FOO
138240
    1MOL0     O    1   9.228   7.018   3.595 -0.9199  0.0808  0.0394
    1MOL0     C    2   9.263   7.016   3.713 -0.4519 -0.7963  0.3311
    1MOL0     O    3   9.176   7.024   3.817  0.2474  0.1501  0.1919
    1MOL0     C    4   9.050   7.035   3.783 -0.1547 -0.3919  0.0814
    1MOL0     C    5   8.962   6.934   3.749 -0.5756 -0.3080 -0.0284
    1MOL0     C    6   8.828   6.951   3.709 -0.8952  0.7554  0.0974
    1MOL0     C    7   8.782   7.081   3.693  0.0430  0.0265 -0.2291
    1MOL0     O    8   8.659   7.111   3.648  0.2777 -0.0161  0.3488
    1MOL0     C    9   8.625   7.252   3.616  0.6764 -0.1885  0.3076
    1MOL0     C   10   8.505   7.262   3.523  0.3264  0.6561  0.1003
    1MOL0     C   11   8.376   7.185   3.582 -0.2866 -0.3113  0.1271
    1MOL0     C   12   8.265   7.162   3.470 -0.1270 -0.2818  0.2086
    1MOL0     C   13   8.159   7.064   3.519  1.4207 -0.1554 -0.2476
    1MOL0     C   14   8.070   7.126   3.630  0.3579 -0.3120  0.3091
    1MOL0     C   15   7.964   7.026   3.668  0.3065  0.6017  0.5177
    1MOL0     C   16   7.871   7.094   3.777 -0.0017  0.2495 -1.1378
    1MOL0     N   17   7.787   6.984   3.831 -0.0960  0.6341 -0.7819
    1MOL0     C   18   7.656   6.960   3.796  0.6837  0.3784  0.4892
    1MOL0     C   19   7.613   6.854   3.866  0.0698 -0.6507  0.0251
    1MOL0     C   20   7.484   6.788   3.863  0.0530 -0.9863 -1.0495
    1MOL0     C   21   7.407   6.822   3.734 -0.8647  0.6899  0.3416
    1MOL0     C   22   7.296   6.724   3.708 -0.4072  0.0943  0.1444
    1MOL0     C   23   7.223   6.754   3.576  0.5006 -0.6132  0.2645
    1MOL0     O   24   7.171   6.635   3.516 -0.5122  0.4562  0.0082
    1MOL0     C   25   7.062   6.577   3.574 -0.0593 -0.9514  0.4737
    1MOL0     C   26   6.933   6.612   3.534  1.3560 -0.7848 -0.2938
    1MOL0     C   27   6.821   6.541   3.588  0.3454  0.1014  1.1164
    1MOL0     C   28   6.683   6.588   3.546  1.2882  0.1587  0.7040
    1MOL0     C   29   6.841   6.445   3.693  0.1958 -0.2789 -0.1827
    1MOL0     C   30   6.736   6.390   3.780  0.1679  0.1008 -0.6174
    1MOL0     O   31   6.618   6.452   3.789  0.2057 -0.2880  0.0709
    1MOL0     C   32   6.513   6.408   3.862  0.6509 -0.2630  0.3300
    1MOL0     C   33   6.510   6.351   3.989  0.2919 -0.0054  0.8041
    1MOL0     C   34   6.402   6.290   4.042 -0.1868  0.5839 -0.5655
    1MOL0     C   35   6.282   6.288   3.978  1.2574  0.3727  0.9692
    1MOL0     O   36   6.174   6.237   4.044 -0.2049  1.0066  0.1353
    1MOL0     C   37   6.066   6.181   3.969 -0.3486 -0.2842 -0.3752
    1MOL0     C   38   6.021   6.046   4.019  0.1901  0.3249  0.3802
    1MOL0     C   39   5.930   5.949   3.931  0.0761  0.9823  0.3336
    1MOL0     C   40   5.819   6.032   3.855 -0.8120 -0.4968 -0.4247
    1MOL0     C   41   5.693   5.943   3.837 -0.3633 -0.3857  0.4491
    1MOL0     C   42   5.607   5.914   3.963 -0.2914 -0.4440  0.1576
    1MOL0     C   43   5.495   5.815   3.921 -0.0115  0.2072 -0.4854
    1MOL0     C   44   5.394   5.784   4.031 -0.2174 -0.1586  0.2452
    1MOL0    Cl   45   5.241   5.687   3.985 -0.2942  0.6215  0.1046
    1MOL0     C   46   6.271   6.350   3.853  0.2762 -0.6720  0.2799
    1MOL0     C   47   6.383   6.405   3.791 -0.4635 -1.4533  0.0864
    1MOL0     O   48   6.766   6.283   3.836  0.5872 -0.4070  0.3435
    1MOL0     C   49   6.977   6.417   3.728 -0.0508 -0.0565  0.9549
    1MOL0     C   50   7.084   6.480   3.667  0.4740  0.4934  0.3131
    1MOL0     N   51   7.724   6.806   3.933  0.0470 -0.3262  0.1159
    1MOL0     N   52   7.822   6.887   3.921  0.1294 -0.4461 -0.4368
    1MOL0     C   53   8.871   7.180   3.721  0.2401 -0.5157 -0.2107
    1MOL0     C   54   9.000   7.156   3.769  0.6985  0.2619  0.9166
    1MOL0     C   55   9.408   6.993   3.741  0.0696  0.1711 -0.0967
    1MOL0     C   56   9.485   6.932   3.638  0.5631  0.4223  0.9982
    1MOL0     C   57   9.623   6.909   3.665  0.9982  0.5239  0.4272
    1MOL0     C   58   9.684   6.955   3.788  0.2349  0.0366  0.2145
    1MOL0     O   59   9.820   6.931   3.798 -0.0492 -0.0014 -0.1686
    1MOL0     C   60   9.890   6.970   3.921 -0.1787 -0.3987  0.7986
    1MOL0     C   61  10.042   6.975   3.904 -0.0963  0.5337  0.4854
    1MOL0     C   62  10.103   6.837   3.907 -0.1637 -0.3791  0.2298
    1MOL0     C   63  10.250   6.849   3.871  0.2017  0.2896 -0.0707
    1MOL0     C   64  10.330   6.921   3.972 -0.0345  0.1939  0.2250
    1MOL0     C   65  10.414   6.972   4.052 -0.0032 -0.5074  0.3397
    1MOL0     C   66   9.604   7.004   3.893  0.2226 -0.9936 -0.3664
    1MOL0     C   67   9.471   7.026   3.863  0.2565 -0.4375  0.2050
    1MOL0     H   68   9.007   6.837   3.768  1.5514  0.6080 -0.1348
    1MOL0     H   69   8.766   6.864   3.689  1.5254 -0.7064 -1.4554
    1MOL0     H   70   8.596   7.302   3.708  1.2992  0.2457  0.2696
    1MOL0     H   71   8.715   7.300   3.578  1.2922  0.2761  2.2436
    1MOL0     H   72   8.471   7.366   3.518  0.7424  0.7733 -0.4243
    1MOL0     H   73   8.526   7.223   3.423 -1.2811 -1.3422  0.4732
    1MOL0     H   74   8.395   7.084   3.621 -1.9528 -0.4852  0.5642
    1MOL0     H   75   8.336   7.249   3.662 -1.5624  0.5119 -1.1320
    1MOL0     H   76   8.230   7.261   3.439  1.0970 -0.2344 -1.1785
    1MOL0     H   77   8.311   7.115   3.382 -0.1065  1.3515 -0.7081
    1MOL0     H   78   8.105   7.033   3.429  1.1842  2.0303 -0.9131
    1MOL0     H   79   8.206   6.977   3.565  1.0341 -0.4199 -0.3451
    1MOL0     H   80   8.124   7.161   3.719 -0.5929 -0.1797  0.8453
    1MOL0     H   81   8.017   7.208   3.581  1.6345  1.5582  1.8977
    1MOL0     H   82   7.914   6.995   3.576 -2.3322 -0.7373  2.2763
    1MOL0     H   83   8.018   6.941   3.710 -1.4689 -0.9732 -0.2506
    1MOL0     H   84   7.802   7.163   3.728 -0.9629  1.2001  1.3720
    1MOL0     H   85   7.933   7.145   3.852 -0.1177 -2.3629  0.8816
    1MOL0     H   86   7.598   7.011   3.720  1.8327  2.1723  0.7686
    1MOL0     H   87   7.505   6.681   3.876 -3.2717 -1.4918  1.7524
    1MOL0     H   88   7.429   6.831   3.948 -1.7824 -0.0807 -2.6187
    1MOL0     H   89   7.483   6.819   3.655 -1.3598  1.6553 -0.1825
    1MOL0     H   90   7.369   6.924   3.738  0.1798  1.0784  0.8717
    1MOL0     H   91   7.218   6.725   3.786 -0.7787  0.5756 -0.2274
    1MOL0     H   92   7.335   6.622   3.697  0.6245  0.5915 -1.0215
    1MOL0     H   93   7.301   6.800   3.514  0.9393 -0.8054  0.6634
    1MOL0     H   94   7.144   6.826   3.595  0.5017  0.0903 -2.0875
    1MOL0     H   95   6.902   6.686   3.461  1.7880 -2.2948 -2.0764
    1MOL0     H   96   6.607   6.510   3.539  1.2995  0.2821 -1.6157
    1MOL0     H   97   6.641   6.653   3.623 -2.9061 -2.3055  0.7700
    1MOL0     H   98   6.682   6.637   3.448 -1.0445  1.3352  1.2386
    1MOL0     H   99   6.597   6.355   4.053 -0.6270 -1.1497  2.2040
    1MOL0     H  100   6.389   6.239   4.137  0.2416  0.7567 -0.4153
    1MOL0     H  101   5.981   6.250   3.975  0.4550  0.7867 -0.9461
    1MOL0     H  102   6.094   6.168   3.864 -1.0613  0.7202 -0.7034
    1MOL0     H  103   6.114   5.987   4.023 -0.4048 -0.6489  0.1782
    1MOL0     H  104   5.969   6.055   4.115  1.8094 -0.9716  1.4565
    1MOL0     H  105   5.887   5.862   3.981 -0.7775 -0.5648 -2.8343
    1MOL0     H  106   5.989   5.904   3.851 -0.4982 -0.1337  0.5214
    1MOL0     H  107   5.789   6.124   3.907 -0.8415 -1.8966  2.1832
    1MOL0     H  108   5.857   6.070   3.760 -0.3350  2.2292  0.7359
    1MOL0     H  109   5.726   5.849   3.792  0.5496  1.0098 -2.0332
    1MOL0     H  110   5.630   5.994   3.763  0.5477 -0.6923 -0.5629
    1MOL0     H  111   5.670   5.872   4.042  1.4635  2.0595  0.2321
    1MOL0     H  112   5.559   6.005   3.999  0.8226  0.1427  0.2150
    1MOL0     H  113   5.544   5.722   3.889  0.1751 -1.0321  2.9811
    1MOL0     H  114   5.447   5.865   3.837 -1.5652 -1.5029 -0.6817
    1MOL0     H  115   5.372   5.872   4.094  3.1192 -0.2760  1.7789
    1MOL0     H  116   5.441   5.714   4.101 -1.9930 -1.7405 -0.0589
    1MOL0     H  117   6.172   6.370   3.812  0.7073  1.8948  0.3268
    1MOL0     H  118   6.366   6.445   3.692 -1.2583  1.3579  1.2648
    1MOL0     H  119   6.997   6.351   3.811 -1.2098  1.5772  2.5977
    1MOL0     H  120   7.182   6.442   3.696  0.4823 -0.6674 -1.0785
    1MOL0     H  121   8.849   7.286   3.716 -0.0789 -0.5231  0.7513
    1MOL0     H  122   9.068   7.238   3.788  3.1473 -0.8840 -2.1542
    1MOL0     H  123   9.438   6.903   3.545 -1.5015  0.0513  2.0878
    1MOL0     H  124   9.685   6.867   3.587  2.7325  2.2883  0.7907
    1MOL0     H  125   9.864   7.071   3.955  0.2824 -0.1662  0.4615
    1MOL0     H  126   9.864   6.890   3.991  0.6773 -1.4532 -0.0527
    1MOL0     H  127  10.085   7.046   3.976 -0.4622 -0.1403  1.3833
    1MOL0     H  128  10.071   7.018   3.807 -1.1780  1.2250  0.4525
    1MOL0     H  129  10.056   6.781   3.825  1.4971  0.8194 -1.6463
    1MOL0     H  130  10.099   6.787   4.004  3.3485  1.1749  1.3181
    1MOL0     H  131  10.261   6.878   3.767  1.4569 -0.0307 -0.0485
    1MOL0     H  132  10.289   6.747   3.884 -1.1287 -0.1427  0.6520
    1MOL0     H  133  10.494   7.014   4.109  0.2686  1.0678 -1.0970
    1MOL0     H  134   9.647   7.036   3.987 -0.8869 -0.0935 -0.1403
    1MOL0     H  135   9.408   7.073   3.938 -1.3356 -1.1918 -0.6237
    2MOL0     O  136   7.630   6.567   5.448 -0.4650  0.0815 -0.0692
    2MOL0     C  137   7.568   6.465   5.486 -0.2733  0.3794 -0.2243
    2MOL0     O  138   7.622   6.344   5.508 -0.6412 -0.2703  0.5590
    2MOL0     C  139   7.759   6.325   5.479  0.1781 -0.9394  0.2881
    2MOL0     C  140   7.816   6.233   5.560  0.5411  0.2483  0.5581
    2MOL0     C  141   7.951   6.201   5.564  0.4929  0.9767  0.7032
    2MOL0     C  142   8.034   6.256   5.469 -0.6162  0.6499 -1.2513
    2MOL0     O  143   8.171   6.233   5.479  0.1987 -0.0690 -0.8450
    2MOL0     C  144   8.243   6.207   5.354 -0.4203  0.4866 -0.1243
    2MOL0     C  145   8.221   6.058   5.312  0.2510  0.3782 -0.2076
    2MOL0     C  146   8.227   5.958   5.421 -0.2088 -0.9442 -0.1822
    2MOL0     C  147   8.370   5.940   5.475  0.7599 -0.6298 -0.0817
    2MOL0     C  148   8.383   5.858   5.596 -0.1100  0.0767 -0.0359
    2MOL0     C  149   8.530   5.828   5.629 -0.4934  0.6190 -0.5526
    2MOL0     C  150   8.555   5.699   5.712 -1.3522  0.7475 -0.0738
    2MOL0     C  151   8.512   5.723   5.855  0.0065  0.6883 -0.7158
    2MOL0     N  152   8.511   5.606   5.941  0.6603  1.2286  0.5954
    2MOL0     C  153   8.446   5.475   5.913 -0.1712  0.2744 -0.0723
    2MOL0     C  154   8.505   5.382   5.984 -0.0180 -0.1624  0.1882
    2MOL0     C  155   8.484   5.231   5.977  0.2286  0.8387  0.2383
    2MOL0     C  156   8.354   5.193   6.038  0.6057 -0.7743  0.7866
    2MOL0     C  157   8.370   5.075   6.135 -0.1341  0.0152  0.8634
    2MOL0     C  158   8.227   5.043   6.181  0.0879  1.1075 -0.0918
    2MOL0     O  159   8.165   5.148   6.259 -0.9451  0.0723 -0.6310
    2MOL0     C  160   8.031   5.145   6.229  0.0498 -0.5695 -0.5504
    2MOL0     C  161   7.944   5.050   6.281  0.7325 -1.2642 -0.3849
    2MOL0     C  162   7.802   5.055   6.253  0.6543  0.5697 -0.3318
    2MOL0     C  163   7.724   4.936   6.315  0.1278 -0.2085  0.3204
    2MOL0     C  164   7.747   5.155   6.174  0.7535  0.2794  0.8853
    2MOL0     C  165   7.600   5.167   6.142  0.2804 -0.3998 -0.0200
    2MOL0     O  166   7.513   5.084   6.195  0.0624 -0.1915 -0.5515
    2MOL0     C  167   7.395   5.057   6.133  0.3089 -0.7902 -0.0042
    2MOL0     C  168   7.383   4.935   6.066  0.0478 -0.3414 -0.0133
    2MOL0     C  169   7.258   4.905   6.010 -0.0074  0.2266 -0.1118
    2MOL0     C  170   7.141   4.976   6.034 -0.3281  0.1452  1.0176
    2MOL0     O  171   7.030   4.906   5.992  0.1921 -0.1215 -0.1344
    2MOL0     C  172   6.909   4.979   5.979 -0.2620  0.2387 -0.6814
    2MOL0     C  173   6.832   4.907   5.868  0.0915 -0.2631  0.0200
    2MOL0     C  174   6.683   4.909   5.894 -0.5342 -0.2432 -0.9639
    2MOL0     C  175   6.607   4.808   5.809  0.0575 -0.7999 -0.0860
    2MOL0     C  176   6.463   4.803   5.856 -0.0858  0.1933 -0.2765
    2MOL0     C  177   6.378   4.708   5.763 -0.5152  0.8500 -0.2579
    2MOL0     C  178   6.328   4.768   5.639  0.0425 -0.3332  0.1012
    2MOL0     C  179   6.207   4.696   5.584  0.2771  0.1244  0.4575
    2MOL0    Cl  180   6.052   4.738   5.673 -0.0878 -0.3467 -0.2570
    2MOL0     C  181   7.157   5.083   6.117 -0.6312  0.0709  0.4620
    2MOL0     C  182   7.279   5.134   6.159  0.0369  0.3737 -0.2754
    2MOL0     O  183   7.575   5.238   6.044 -0.0002  0.0057  0.3165
    2MOL0     C  184   7.840   5.255   6.126 -1.0992 -0.6203  0.0148
    2MOL0     C  185   7.974   5.248   6.156  0.4066 -0.2044  0.7730
    2MOL0     N  186   8.610   5.447   6.052  0.0143  0.9173 -0.6758
    2MOL0     N  187   8.615   5.571   6.022  0.5538 -0.2087 -0.3502
    2MOL0     C  188   7.980   6.350   5.380 -1.1553  1.3107  1.3549
    2MOL0     C  189   7.845   6.385   5.385 -1.1956 -0.3022 -0.1866
    2MOL0     C  190   7.426   6.485   5.527 -0.0627  0.7306  0.4546
    2MOL0     C  191   7.366   6.613   5.512 -0.5458 -0.5443 -0.8223
    2MOL0     C  192   7.230   6.635   5.528 -0.1994 -0.4243 -0.8275
    2MOL0     C  193   7.151   6.532   5.579  0.3572  0.6030 -0.1939
    2MOL0     O  194   7.019   6.560   5.601  0.1362 -0.1585  0.1453
    2MOL0     C  195   6.922   6.473   5.667 -0.1205  0.5540  0.4921
    2MOL0     C  196   6.854   6.390   5.564 -0.2668 -0.6256  0.3768
    2MOL0     C  197   6.718   6.320   5.603  0.0422  0.0971  1.1122
    2MOL0     C  198   6.637   6.259   5.482 -0.0380 -0.2340 -0.5981
    2MOL0     C  199   6.719   6.144   5.440  0.1466 -0.0439 -0.0970
    2MOL0     C  200   6.795   6.054   5.402  0.0535  0.1532  0.5067
    2MOL0     C  201   7.210   6.407   5.616  0.2895 -0.1170  0.1964
    2MOL0     C  202   7.342   6.384   5.587 -0.2516  0.1512  0.0810
    2MOL0     H  203   7.753   6.187   5.636  0.3112  0.4966  0.5179
    2MOL0     H  204   7.989   6.133   5.640 -3.8853  0.0905  2.4106
    2MOL0     H  205   8.225   6.279   5.274 -0.1414 -1.8511 -2.4243
    2MOL0     H  206   8.351   6.213   5.371 -0.3800  0.2697 -0.2967
    2MOL0     H  207   8.123   6.042   5.267  0.9575  0.5562 -1.9294
    2MOL0     H  208   8.288   6.027   5.230 -1.6270  0.6429 -1.9220
    2MOL0     H  209   8.152   5.983   5.495  1.2067  0.2632  0.9102
    2MOL0     H  210   8.200   5.862   5.376 -0.7074 -0.4004 -1.0926
    2MOL0     H  211   8.432   5.909   5.390  2.8956  0.5440  0.9693
    2MOL0     H  212   8.400   6.042   5.502 -0.2122  0.4788 -2.7832
    2MOL0     H  213   8.325   5.905   5.675 -0.1864  1.6972 -1.0077
    2MOL0     H  214   8.331   5.764   5.576  0.8020 -1.1227  2.6934
    2MOL0     H  215   8.591   5.805   5.541 -2.7940 -0.0827 -2.0554
    2MOL0     H  216   8.569   5.922   5.669  2.5703 -0.0978 -1.5640
    2MOL0     H  217   8.509   5.607   5.677  0.4864 -0.8087  1.3851
    2MOL0     H  218   8.662   5.674   5.707 -1.9242 -2.2867  0.9864
    2MOL0     H  219   8.418   5.780   5.855 -0.6442 -0.3449 -1.4178
    2MOL0     H  220   8.582   5.799   5.890 -0.9002  0.5506  1.5382
    2MOL0     H  221   8.361   5.459   5.847  0.3248 -0.2657 -0.5882
    2MOL0     H  222   8.489   5.194   5.874  1.1280  0.1681  0.5068
    2MOL0     H  223   8.567   5.180   6.027 -0.1703 -1.1303 -1.0111
    2MOL0     H  224   8.272   5.184   5.966  0.1659 -2.0822  1.4077
    2MOL0     H  225   8.340   5.277   6.106  1.7935  0.8425 -0.8947
    2MOL0     H  226   8.443   5.093   6.214  0.5178 -2.1697  0.8301
    2MOL0     H  227   8.406   4.991   6.075  3.6650  2.2750 -0.3954
    2MOL0     H  228   8.240   4.950   6.237 -2.1946  0.4231 -0.6030
    2MOL0     H  229   8.163   5.021   6.095  0.0314  3.1091 -0.6140
    2MOL0     H  230   7.983   4.970   6.345 -0.5874  0.2559  2.4903
    2MOL0     H  231   7.789   4.866   6.367  2.9981  0.7432 -1.6811
    2MOL0     H  232   7.654   4.984   6.383 -0.6674  0.6731 -1.0636
    2MOL0     H  233   7.670   4.894   6.230 -0.3823 -0.8539  0.9544
    2MOL0     H  234   7.474   4.880   6.044  0.5254  0.8809 -1.2002
    2MOL0     H  235   7.252   4.807   5.964  1.1085  0.1882 -0.2095
    2MOL0     H  236   6.859   4.986   6.076 -2.1496  2.9704 -1.7197
    2MOL0     H  237   6.932   5.077   5.937  0.9095  0.4699  0.4555
    2MOL0     H  238   6.852   4.944   5.768  0.2796  0.1781  0.2191
    2MOL0     H  239   6.868   4.803   5.871  0.0728 -0.2935 -0.7129
    2MOL0     H  240   6.642   5.010   5.885 -2.2969 -0.5625  2.0270
    2MOL0     H  241   6.674   4.873   5.997 -1.2110  1.7247 -0.3029
    2MOL0     H  242   6.606   4.863   5.715  0.3299 -1.5749 -0.5426
    2MOL0     H  243   6.646   4.707   5.803  1.0627 -0.4768  0.7015
    2MOL0     H  244   6.415   4.901   5.865 -0.5368 -0.0763  0.3101
    2MOL0     H  245   6.452   4.765   5.958 -1.7483 -1.7856 -1.1206
    2MOL0     H  246   6.452   4.635   5.730 -0.8537  0.0468  0.7150
    2MOL0     H  247   6.299   4.659   5.821  0.5561  1.6125  1.9030
    2MOL0     H  248   6.408   4.769   5.564  0.7874  0.3648  0.8793
    2MOL0     H  249   6.291   4.869   5.661 -0.4790 -0.4334 -0.3172
    2MOL0     H  250   6.219   4.588   5.595 -2.1571 -0.2676 -0.2103
    2MOL0     H  251   6.187   4.721   5.479 -2.2336 -1.3516  0.5106
    2MOL0     H  252   7.061   5.129   6.142  0.0905  1.8383  0.1663
    2MOL0     H  253   7.282   5.213   6.233  0.8332  1.5803 -1.5521
    2MOL0     H  254   7.811   5.340   6.066  0.1201 -1.0550 -1.2326
    2MOL0     H  255   8.045   5.319   6.115  0.2787  0.2108  1.2596
    2MOL0     H  256   8.048   6.386   5.304  2.6374 -2.2378  2.6613
    2MOL0     H  257   7.825   6.475   5.327  2.1839 -0.2345 -1.4746
    2MOL0     H  258   7.434   6.694   5.486  2.2690 -2.1800  0.9768
    2MOL0     H  259   7.199   6.735   5.501  1.1134  0.1141 -0.4453
    2MOL0     H  260   6.980   6.403   5.729  1.6955  1.9114  0.4204
    2MOL0     H  261   6.848   6.529   5.725 -1.0284 -0.2047  0.0947
    2MOL0     H  262   6.923   6.316   5.521 -0.3297  1.0487 -2.8615
    2MOL0     H  263   6.821   6.462   5.489 -1.2276  1.3953  2.6003
    2MOL0     H  264   6.649   6.393   5.646 -0.7093 -0.2475  0.5093
    2MOL0     H  265   6.744   6.241   5.674  1.2915 -2.7790 -2.2217
    2MOL0     H  266   6.643   6.341   5.410  1.7346  0.6741  0.4988
    2MOL0     H  267   6.538   6.223   5.511 -0.3475  1.0522  0.0381
    2MOL0     H  268   6.865   5.977   5.375  1.7952  1.7225  0.3635
    2MOL0     H  269   7.161   6.318   5.655 -2.4250  1.7015  1.2826
    2MOL0     H  270   7.370   6.280   5.604 -2.2634 -0.1520  2.0586
    3MOL0     O  271   3.407  10.171   0.972 -0.5042  0.8884  0.0869
    3MOL0     C  272   3.417  10.162   1.090 -0.0637  0.0505 -1.0125
    3MOL0     O  273   3.317  10.125   1.173 -0.5800 -0.8060  0.7400
    3MOL0     C  274   3.191  10.083   1.126 -0.6637  0.2125 -0.9855
    3MOL0     C  275   3.123  10.002   1.227 -0.4254  0.2810  1.1135
    3MOL0     C  276   3.002   9.945   1.203 -0.1779  0.2095 -0.4907
    3MOL0     C  277   2.945   9.973   1.082  0.4091 -0.5985 -0.1309
    3MOL0     O  278   2.825   9.913   1.069 -0.1702  0.4088  0.5275
    3MOL0     C  279   2.774   9.881   0.939  0.0137 -0.3956  0.2909
    3MOL0     C  280   2.630   9.820   0.936  0.7641  0.3230 -0.6028
    3MOL0     C  281   2.526   9.933   0.970 -1.1015  0.4691  1.0435
    3MOL0     C  282   2.385   9.891   0.985  0.4993 -0.0221 -0.4772
    3MOL0     C  283   2.309   9.843   0.856  0.5845 -0.2901  0.1832
    3MOL0     C  284   2.307   9.938   0.736  0.3490 -0.6739 -1.0702
    3MOL0     C  285   2.219   9.867   0.628 -0.3931 -0.5133 -0.4705
    3MOL0     C  286   2.253   9.930   0.492 -0.2488  0.1162 -0.7216
    3MOL0     N  287   2.185  10.057   0.486  0.5141 -0.0497  0.2995
    3MOL0     C  288   2.046  10.071   0.459 -0.5194  0.2732  0.0292
    3MOL0     C  289   2.023  10.201   0.437  0.0112  0.0617 -0.4912
    3MOL0     C  290   1.884  10.262   0.419  0.0765 -0.4476  0.2179
    3MOL0     C  291   1.775  10.194   0.490  0.4726  0.1004 -0.0335
    3MOL0     C  292   1.636  10.260   0.474 -0.3674 -0.5083 -0.4987
    3MOL0     C  293   1.515  10.165   0.514 -0.2587  0.4187 -0.6059
    3MOL0     O  294   1.545  10.110   0.637 -0.6886 -0.0505  0.0541
    3MOL0     C  295   1.458  10.035   0.705  0.3453 -0.6452 -0.4322
    3MOL0     C  296   1.325  10.008   0.670  0.3303  0.1024 -0.0283
    3MOL0     C  297   1.245   9.922   0.746  0.2116 -0.1068  0.5315
    3MOL0     C  298   1.104   9.926   0.697 -0.7078  0.5862 -0.2713
    3MOL0     C  299   1.288   9.857   0.861 -0.3988 -0.3261  0.4254
    3MOL0     C  300   1.204   9.776   0.951 -0.7573  1.5317 -0.0768
    3MOL0     O  301   1.250   9.767   1.082 -0.3997  0.1100  0.0592
    3MOL0     C  302   1.184   9.682   1.178  0.0106 -0.0324 -0.4952
    3MOL0     C  303   1.236   9.696   1.311  0.4628 -0.1813  0.0345
    3MOL0     C  304   1.185   9.617   1.413 -0.4390  0.7139 -0.4946
    3MOL0     C  305   1.085   9.514   1.391 -0.6019 -0.1284 -0.5673
    3MOL0     O  306   1.021   9.446   1.491 -0.2568  0.1888  0.5846
    3MOL0     C  307   1.013   9.511   1.613 -0.6006  0.2370 -0.3666
    3MOL0     C  308   0.880   9.473   1.666 -0.7816  0.8306  0.0888
    3MOL0     C  309   0.848   9.326   1.690 -0.0947  0.8742 -0.1134
    3MOL0     C  310   0.699   9.301   1.723  0.7299  1.0819 -0.1950
    3MOL0     C  311   0.699   9.154   1.766 -0.0323 -0.2553 -0.9774
    3MOL0     C  312   0.561   9.088   1.782 -0.3243 -0.1840  0.7028
    3MOL0     C  313   0.483   9.157   1.897  0.3899 -0.0022  1.0180
    3MOL0     C  314   0.359   9.065   1.911  0.5824  0.3101 -0.3628
    3MOL0    Cl  315   0.240   9.141   2.020 -0.2991 -0.0246 -0.4573
    3MOL0     C  316   1.031   9.503   1.259 -0.1402  0.1721  0.0132
    3MOL0     C  317   1.088   9.576   1.155  0.2285  0.1576  0.2119
    3MOL0     O  318   1.100   9.722   0.904 -0.3552  0.3331 -0.4844
    3MOL0     C  319   1.421   9.880   0.895  0.0808 -0.9812  0.0021
    3MOL0     C  320   1.503   9.976   0.825  0.2861  0.6121 -0.0079
    3MOL0     N  321   2.145  10.263   0.452  0.2299  0.4007  1.0828
    3MOL0     N  322   2.242  10.182   0.475  0.4647 -0.8519  0.0639
    3MOL0     C  323   2.993  10.067   0.988 -0.4454  0.7695  0.7330
    3MOL0     C  324   3.122  10.121   1.012 -0.2872  0.4934 -0.4415
    3MOL0     C  325   3.559  10.171   1.152  0.7134  0.0878  0.0927
    3MOL0     C  326   3.572  10.141   1.292 -0.3422  0.3443  0.4054
    3MOL0     C  327   3.702  10.126   1.353  0.2899  0.7329 -0.6016
    3MOL0     C  328   3.821  10.142   1.279  0.5813  0.5392 -0.3804
    3MOL0     O  329   3.935  10.128   1.351  0.4197 -0.3344 -0.4077
    3MOL0     C  330   4.065  10.148   1.302  0.1248 -0.6460  0.0175
    3MOL0     C  331   4.158  10.077   1.402 -0.6033  0.2919  0.0895
    3MOL0     C  332   4.191  10.159   1.527 -0.5296 -0.6568  0.8140
    3MOL0     C  333   4.312  10.095   1.591 -0.0136  0.1060 -0.6797
    3MOL0     C  334   4.430  10.137   1.517  0.2234  0.0652  0.1577
    3MOL0     C  335   4.523  10.152   1.440  0.8536  0.2924  0.3080
    3MOL0     C  336   3.809  10.173   1.145  0.1524  1.1399 -0.1255
    3MOL0     C  337   3.681  10.188   1.084  0.6427 -0.0073  0.1484
    3MOL0     H  338   3.180   9.979   1.317  0.2296  0.6254  0.7915
    3MOL0     H  339   2.956   9.887   1.281 -0.8912 -0.0203 -1.0770
    3MOL0     H  340   2.781   9.973   0.880 -2.2852 -0.8909 -0.8772
    3MOL0     H  341   2.834   9.804   0.890 -0.7637 -0.4019 -0.6890
    3MOL0     H  342   2.612   9.781   0.835  0.5365 -2.1211  0.3142
    3MOL0     H  343   2.625   9.735   1.004  1.1954 -1.5223 -2.7391
    3MOL0     H  344   2.570   9.980   1.059  1.2949  0.4032 -0.0173
    3MOL0     H  345   2.531  10.005   0.888 -2.6476 -0.6415 -0.0723
    3MOL0     H  346   2.353   9.816   1.059 -2.1718  2.6132  1.2538
    3MOL0     H  347   2.333   9.982   1.016  0.4776 -0.8546  2.2566
    3MOL0     H  348   2.354   9.753   0.812  0.6936  1.1509 -2.8990
    3MOL0     H  349   2.208   9.814   0.888  1.0161 -1.6313  0.3891
    3MOL0     H  350   2.271  10.033   0.778  1.9505  0.1003 -1.3788
    3MOL0     H  351   2.408   9.947   0.694  0.3876 -1.5410 -1.1776
    3MOL0     H  352   2.248   9.762   0.623  2.2789  0.1299 -0.2130
    3MOL0     H  353   2.115   9.875   0.661  0.4083 -0.1691  2.2162
    3MOL0     H  354   2.213   9.861   0.418  2.6046 -0.7818 -1.5658
    3MOL0     H  355   2.361   9.935   0.476  0.0020 -0.6045  0.5605
    3MOL0     H  356   1.979   9.987   0.446 -0.6934  0.5049 -0.6255
    3MOL0     H  357   1.888  10.356   0.474 -0.9711 -1.2773  1.7783
    3MOL0     H  358   1.851  10.276   0.315 -0.2244 -0.5724  0.2966
    3MOL0     H  359   1.794  10.192   0.598 -0.3289 -1.6083  0.1206
    3MOL0     H  360   1.759  10.090   0.459  0.7283  0.4845 -1.5554
    3MOL0     H  361   1.622  10.302   0.374 -1.0894  1.7104  0.4744
    3MOL0     H  362   1.634  10.346   0.541  0.3361 -1.8558  1.3629
    3MOL0     H  363   1.516  10.085   0.440 -0.8441 -1.1214  0.9653
    3MOL0     H  364   1.419  10.218   0.515  0.2885  1.4963  1.7944
    3MOL0     H  365   1.284  10.054   0.581  3.8764  1.5309 -1.1385
    3MOL0     H  366   1.049   9.935   0.791  2.5932 -0.8898  1.9982
    3MOL0     H  367   1.077  10.004   0.625  0.4590  0.4079 -0.9289
    3MOL0     H  368   1.095   9.829   0.647 -0.1606 -0.1110  0.9395
    3MOL0     H  369   1.314   9.766   1.339 -0.3434  1.3256 -1.3463
    3MOL0     H  370   1.223   9.645   1.511  0.2950 -1.0664 -0.2264
    3MOL0     H  371   1.101   9.474   1.666  0.1617  0.3398 -1.5085
    3MOL0     H  372   1.015   9.620   1.613 -1.5430  0.2632 -0.3793
    3MOL0     H  373   0.854   9.525   1.759 -3.0591  0.2817 -0.1831
    3MOL0     H  374   0.799   9.518   1.608 -2.6761  0.6653  2.4655
    3MOL0     H  375   0.903   9.287   1.776 -2.6657 -2.4134  0.2567
    3MOL0     H  376   0.881   9.258   1.610  0.5046 -1.5575  2.0815
    3MOL0     H  377   0.656   9.368   1.798 -1.1153  1.0675 -1.1746
    3MOL0     H  378   0.643   9.310   1.630 -0.1278  0.0679  0.1975
    3MOL0     H  379   0.756   9.144   1.859  0.6593  0.9362 -1.2566
    3MOL0     H  380   0.751   9.092   1.692 -0.0046 -1.7058  0.1969
    3MOL0     H  381   0.498   9.100   1.693  1.2824 -2.0086 -0.7905
    3MOL0     H  382   0.576   8.982   1.806 -1.3668 -0.0403  2.1107
    3MOL0     H  383   0.450   9.255   1.862  3.6934  0.5435 -0.9717
    3MOL0     H  384   0.543   9.166   1.988  0.8405 -1.4887  0.9038
    3MOL0     H  385   0.389   8.970   1.956  0.9934  0.0891 -1.1012
    3MOL0     H  386   0.307   9.043   1.818 -2.4599 -1.3580  1.5368
    3MOL0     H  387   0.954   9.428   1.244  1.2289 -1.1947 -0.4057
    3MOL0     H  388   1.059   9.549   1.054 -0.6045  3.1181 -0.4370
    3MOL0     H  389   1.467   9.852   0.989  0.5563  2.3005  0.8556
    3MOL0     H  390   1.607   9.985   0.856  0.8477 -1.8319 -0.9402
    3MOL0     H  391   2.937  10.096   0.900  0.4967 -2.0103 -0.9226
    3MOL0     H  392   3.156  10.194   0.939 -0.6876  0.5620 -0.5608
    3MOL0     H  393   3.484  10.130   1.354 -0.6795 -0.5589 -0.2137
    3MOL0     H  394   3.708  10.110   1.461 -3.4196  4.3728  0.4454
    3MOL0     H  395   4.069  10.108   1.200 -0.0517  1.1816 -0.7353
    3MOL0     H  396   4.082  10.256   1.304 -0.5505 -0.5316  2.5151
    3MOL0     H  397   4.251  10.048   1.353 -0.8667 -1.3048  0.5023
    3MOL0     H  398   4.121   9.983   1.444 -0.7101 -0.7991 -2.2476
    3MOL0     H  399   4.101  10.153   1.588 -1.9557 -1.0956 -1.2396
    3MOL0     H  400   4.222  10.260   1.498  2.2888 -2.1439 -2.0311
    3MOL0     H  401   4.303   9.986   1.594 -1.0382  0.1604  2.3537
    3MOL0     H  402   4.325  10.129   1.695  1.3459  0.2700 -0.8970
    3MOL0     H  403   4.602  10.172   1.370 -0.2322 -2.6106 -1.9415
    3MOL0     H  404   3.905  10.185   1.096  0.9853  1.8903  1.6230
    3MOL0     H  405   3.668  10.214   0.979 -2.0702  1.3452  0.7510
    4MOL0     O  406   2.569   0.590   0.507  0.1100  0.4108 -0.4184
    4MOL0     C  407   2.598   0.705   0.532 -0.0460 -1.0238 -0.4899
    4MOL0     O  408   2.523   0.803   0.595 -0.0122 -0.1479  0.6448
    4MOL0     C  409   2.388   0.795   0.630  0.6919  0.5824  0.6336
    4MOL0     C  410   2.303   0.688   0.635 -0.0713 -0.2406 -0.7325
    4MOL0     C  411   2.173   0.696   0.670  0.6901 -0.1323 -0.2844
    4MOL0     C  412   2.114   0.815   0.715  1.1402 -0.3297 -0.8272
    4MOL0     O  413   1.988   0.821   0.759 -0.3935  0.3118  0.4795
    4MOL0     C  414   1.919   0.700   0.791  0.4229  0.0415  0.2513
    4MOL0     C  415   1.772   0.727   0.837 -0.5604 -0.3289 -0.1849
    4MOL0     C  416   1.699   0.776   0.708  1.1211  0.4281 -0.7350
    4MOL0     C  417   1.557   0.815   0.750  0.2810 -0.4235  0.4448
    4MOL0     C  418   1.465   0.837   0.635  0.0564 -0.0472  0.7700
    4MOL0     C  419   1.319   0.850   0.685 -0.0140  0.1274 -0.7473
    4MOL0     C  420   1.221   0.858   0.567  0.6026  0.4227 -0.1862
    4MOL0     C  421   1.192   1.004   0.549  0.4321 -0.6069 -0.1877
    4MOL0     N  422   1.082   1.040   0.446 -0.6095 -0.5303 -0.1813
    4MOL0     C  423   1.016   0.945   0.377 -0.1175 -0.5376 -0.3036
    4MOL0     C  424   0.926   1.013   0.296 -0.1471 -0.6143 -0.3452
    4MOL0     C  425   0.830   0.952   0.201  0.1322 -0.1490 -0.2636
    4MOL0     C  426   0.686   0.946   0.260 -0.3269 -0.2442  0.1690
    4MOL0     C  427   0.632   1.092   0.291 -0.3229 -0.3825 -0.7283
    4MOL0     C  428   0.474   1.094   0.286 -0.7070 -0.3427  0.4045
    4MOL0     O  429   0.415   0.993   0.363  0.0940 -0.3173  0.2983
    4MOL0     C  430   0.276   0.993   0.366 -0.1769  0.4471 -0.4992
    4MOL0     C  431   0.198   1.091   0.301  0.5197 -0.8648  0.1019
    4MOL0     C  432   0.060   1.105   0.329  1.1843  0.1237 -0.9952
    4MOL0     C  433  -0.005   1.220   0.259 -0.2418  0.7927 -0.0556
    4MOL0     C  434   0.009   1.008   0.420 -0.4760 -0.5448 -0.0764
    4MOL0     C  435  -0.129   1.007   0.457  0.8247 -0.7508 -0.9292
    4MOL0     O  436  -0.197   1.125   0.441  0.4611 -0.1470  0.0485
    4MOL0     C  437  -0.333   1.131   0.465 -0.8540 -0.7913 -0.1342
    4MOL0     C  438  -0.424   1.143   0.364  0.6210 -0.1368  0.7635
    4MOL0     C  439  -0.561   1.146   0.385  0.7264  0.0307  0.0949
    4MOL0     C  440  -0.610   1.142   0.514  0.2579  0.5732  0.0381
    4MOL0     O  441  -0.748   1.157   0.528  0.3771  0.1895 -0.0051
    4MOL0     C  442  -0.810   1.124   0.656 -0.6744  0.1406  0.2188
    4MOL0     C  443  -0.960   1.141   0.664  0.4615 -0.0772  0.1624
    4MOL0     C  444  -1.006   1.116   0.808  0.7124 -0.0113 -0.7950
    4MOL0     C  445  -1.164   1.131   0.822 -0.1048 -0.0462 -0.3169
    4MOL0     C  446  -1.212   1.168   0.961 -0.3775  0.6443 -0.2387
    4MOL0     C  447  -1.362   1.146   0.966 -0.8388  0.5366  0.2119
    4MOL0     C  448  -1.441   1.257   0.901 -0.6206 -0.1382  0.1559
    4MOL0     C  449  -1.597   1.228   0.879 -0.0464  0.0391  0.3537
    4MOL0    Cl  450  -1.669   1.366   0.804  0.0594 -0.0060 -0.1377
    4MOL0     C  451  -0.522   1.129   0.620 -0.3897  0.1923  0.6075
    4MOL0     C  452  -0.386   1.131   0.595  0.9796  0.4350  0.0267
    4MOL0     O  453  -0.180   0.907   0.508  0.1020  0.3086 -0.9136
    4MOL0     C  454   0.081   0.896   0.472  0.6167  0.0799  0.3733
    4MOL0     C  455   0.218   0.892   0.449 -0.7042  0.3265 -0.4567
    4MOL0     N  456   0.925   1.141   0.346 -0.0774 -0.6642  0.2161
    4MOL0     N  457   1.023   1.160   0.432  0.3215  0.4508 -0.3186
    4MOL0     C  458   2.198   0.927   0.719  0.4706 -0.6270 -0.1941
    4MOL0     C  459   2.339   0.913   0.684  0.2913 -0.8430  0.4642
    4MOL0     C  460   2.736   0.746   0.511 -0.3385  0.8248 -0.0784
    4MOL0     C  461   2.754   0.867   0.456  0.4492 -0.7284  0.0058
    4MOL0     C  462   2.886   0.915   0.443  1.0081  0.0260  0.1701
    4MOL0     C  463   2.998   0.838   0.486 -0.0733  0.3631 -0.4305
    4MOL0     O  464   3.131   0.882   0.502  0.6570  0.5446  0.0990
    4MOL0     C  465   3.174   0.984   0.420 -0.2138 -0.9525  0.2438
    4MOL0     C  466   3.327   0.974   0.402 -1.0384 -0.2033 -0.4593
    4MOL0     C  467   3.396   1.043   0.517 -0.1031  1.2061 -0.2360
    4MOL0     C  468   3.547   1.016   0.517 -0.2744  0.3521  0.3489
    4MOL0     C  469   3.578   0.884   0.571  0.4851  0.0785  0.4365
    4MOL0     C  470   3.603   0.768   0.599  0.6292 -0.2832 -0.4475
    4MOL0     C  471   2.975   0.715   0.536  0.1154  0.3631 -0.5497
    4MOL0     C  472   2.844   0.664   0.538 -1.4194 -0.2654  0.0591
    4MOL0     H  473   2.331   0.585   0.611  4.8068  1.4565 -3.9939
    4MOL0     H  474   2.122   0.602   0.652 -1.4284  1.2888 -2.3723
    4MOL0     H  475   1.908   0.628   0.709 -0.1979 -0.4977  0.7928
    4MOL0     H  476   1.971   0.644   0.869 -2.3615 -2.8045  0.2736
    4MOL0     H  477   1.729   0.638   0.883  1.3319 -0.6055  1.1908
    4MOL0     H  478   1.781   0.803   0.916  1.6812 -0.9752  0.2505
    4MOL0     H  479   1.744   0.862   0.657 -0.3813  1.6568 -0.0655
    4MOL0     H  480   1.688   0.690   0.642 -3.4835 -1.2823  1.8251
    4MOL0     H  481   1.511   0.733   0.806 -5.0233  1.4482 -0.6570
    4MOL0     H  482   1.561   0.910   0.803 -2.2569 -0.0014  0.0031
    4MOL0     H  483   1.481   0.932   0.583 -2.0627 -0.7831 -1.4625
    4MOL0     H  484   1.461   0.753   0.564 -2.0636 -0.0473  0.8207
    4MOL0     H  485   1.299   0.756   0.736 -0.8536  0.8411  0.2888
    4MOL0     H  486   1.303   0.934   0.753 -0.1525  1.1489 -2.0028
    4MOL0     H  487   1.271   0.821   0.477  0.0581 -0.5638 -0.1023
    4MOL0     H  488   1.131   0.797   0.582  0.5647 -0.1678 -2.4181
    4MOL0     H  489   1.283   1.065   0.537  1.2934 -1.1693  2.7434
    4MOL0     H  490   1.154   1.038   0.645  0.5397 -2.7039  0.6574
    4MOL0     H  491   1.024   0.837   0.375  1.6745 -0.4236 -1.4876
    4MOL0     H  492   0.822   0.992   0.100  1.2840 -3.9469 -2.0308
    4MOL0     H  493   0.863   0.849   0.183  2.7543  0.3482  1.1215
    4MOL0     H  494   0.683   0.889   0.353 -1.1229 -1.2887 -0.4804
    4MOL0     H  495   0.619   0.892   0.194  0.7623  1.3148 -2.3528
    4MOL0     H  496   0.673   1.169   0.226 -2.7566  0.8517 -0.9371
    4MOL0     H  497   0.670   1.124   0.389 -2.8280 -2.1325  0.9434
    4MOL0     H  498   0.454   1.068   0.181 -1.0472  0.1772  0.3349
    4MOL0     H  499   0.435   1.195   0.303 -0.9962 -0.5544  1.0216
    4MOL0     H  500   0.248   1.164   0.239  3.0762 -1.1980  1.6518
    4MOL0     H  501  -0.095   1.184   0.207 -0.6798  0.8245  0.6736
    4MOL0     H  502  -0.039   1.290   0.335  0.2389  2.0588 -0.9693
    4MOL0     H  503   0.060   1.265   0.183 -2.1272  1.0204 -1.6117
    4MOL0     H  504  -0.391   1.169   0.264 -1.0507  1.6729  0.6193
    4MOL0     H  505  -0.621   1.162   0.296  1.6161 -0.4436 -0.6062
    4MOL0     H  506  -0.782   1.025   0.693 -3.1217 -0.0201  1.8881
    4MOL0     H  507  -0.771   1.196   0.729 -0.0974 -1.3738  1.4468
    4MOL0     H  508  -0.999   1.234   0.624 -1.6858 -0.2378  1.7108
    4MOL0     H  509  -1.020   1.070   0.607  2.9466 -0.1900 -2.5563
    4MOL0     H  510  -0.971   1.203   0.865 -2.6510  1.4879 -0.7430
    4MOL0     H  511  -0.975   1.023   0.855  0.9026  1.0976  1.4397
    4MOL0     H  512  -1.209   1.196   0.746 -1.5317 -0.6667 -0.0420
    4MOL0     H  513  -1.200   1.030   0.801 -0.1560  0.3319 -2.2187
    4MOL0     H  514  -1.184   1.267   0.997  2.2393 -0.3968  0.8606
    4MOL0     H  515  -1.159   1.096   1.024  1.9305  0.7440 -1.9304
    4MOL0     H  516  -1.391   1.053   0.918 -0.2840  0.1542  0.6090
    4MOL0     H  517  -1.386   1.146   1.073 -0.1293 -0.9759  0.3865
    4MOL0     H  518  -1.403   1.289   0.804  2.5033 -0.4164  1.1613
    4MOL0     H  519  -1.434   1.345   0.966  0.1950  0.9344 -1.3297
    4MOL0     H  520  -1.645   1.211   0.976  1.6635  0.3938  1.3007
    4MOL0     H  521  -1.621   1.139   0.820 -0.3503  0.1682  0.2774
    4MOL0     H  522  -0.535   1.122   0.728  0.5082 -0.5056  0.6750
    4MOL0     H  523  -0.321   1.119   0.681 -2.1287 -1.0757  2.3799
    4MOL0     H  524   0.044   0.817   0.536  2.2163 -0.4470  0.7149
    4MOL0     H  525   0.284   0.812   0.479  0.1581  1.4733  0.8281
    4MOL0     H  526   2.144   1.019   0.738 -0.3351 -0.5735 -2.3927
    4MOL0     H  527   2.392   1.008   0.686 -0.6738 -0.2601 -0.6489
    4MOL0     H  528   2.673   0.930   0.423 -0.2186 -2.2191 -1.2835
    4MOL0     H  529   2.907   1.018   0.414  2.8199 -0.4370 -0.2944
    4MOL0     H  530   3.127   0.984   0.322 -1.1239  1.5231  0.6114
    4MOL0     H  531   3.148   1.074   0.477  1.5515 -0.8916  1.0215
    4MOL0     H  532   3.362   1.014   0.306  1.8579 -2.0335 -0.2955
    4MOL0     H  533   3.360   0.870   0.402  1.3670  0.3759  3.2428
    4MOL0     H  534   3.355   1.006   0.611  1.4597  2.6097  1.0352
    4MOL0     H  535   3.379   1.151   0.521 -0.9837  1.1682 -1.9983
    4MOL0     H  536   3.606   1.092   0.570  0.0269  1.8190 -1.9526
    4MOL0     H  537   3.584   1.004   0.415  0.6290 -0.6932  0.7751
    4MOL0     H  538   3.634   0.675   0.643  1.5940  1.2341  2.3001
    4MOL0     H  539   3.062   0.659   0.568  0.2161  1.1037  0.5458
    4MOL0     H  540   2.837   0.570   0.593  0.8465  1.6601  4.0297
    5MOL0     O  541   7.933   6.740   4.723  0.1431 -0.4887  0.4656
    5MOL0     C  542   7.945   6.791   4.616  0.6520 -1.2239 -0.5842
    5MOL0     O  543   7.892   6.743   4.494 -0.8714 -0.0101  0.1009
    5MOL0     C  544   7.808   6.637   4.468  0.3656 -0.7966  0.7391
    5MOL0     C  545   7.797   6.612   4.328 -0.0937  0.4153 -1.2910
    5MOL0     C  546   7.725   6.497   4.287  0.6014 -0.4774  0.0621
    5MOL0     C  547   7.663   6.415   4.383 -0.0939 -0.1843  0.1979
    5MOL0     O  548   7.581   6.308   4.338  0.2857 -0.1458  0.2056
    5MOL0     C  549   7.548   6.203   4.422 -0.2224  0.9568 -0.4761
    5MOL0     C  550   7.474   6.086   4.351 -1.2900 -0.3115 -0.1930
    5MOL0     C  551   7.462   5.966   4.439  0.1300  0.0709  0.3043
    5MOL0     C  552   7.397   5.999   4.570  0.1819  0.7330 -0.6091
    5MOL0     C  553   7.365   5.875   4.662 -0.3319  0.1082  0.2621
    5MOL0     C  554   7.274   5.927   4.781  0.0560  0.3772  0.4273
    5MOL0     C  555   7.267   5.825   4.896  0.4962 -0.2945  0.1092
    5MOL0     C  556   7.213   5.902   5.024 -0.3458 -0.1171 -0.0679
    5MOL0     N  557   7.077   5.863   5.045  0.0245 -0.2146  0.0560
    5MOL0     C  558   7.031   5.759   5.122 -0.0415  0.1547  0.1754
    5MOL0     C  559   6.898   5.758   5.124 -0.1478 -0.0686 -0.8527
    5MOL0     C  560   6.811   5.656   5.188 -0.5543 -0.3459  0.1199
    5MOL0     C  561   6.844   5.507   5.168 -0.2879 -0.4797  0.9198
    5MOL0     C  562   6.866   5.461   5.025  0.6426  0.3317 -0.7364
    5MOL0     C  563   6.731   5.459   4.955  0.3963  1.0605  0.1371
    5MOL0     O  564   6.648   5.352   5.001 -0.3826  0.5655 -0.1150
    5MOL0     C  565   6.522   5.335   4.952  0.5603 -0.5974  0.6573
    5MOL0     C  566   6.462   5.409   4.848  0.5613  0.2638 -0.2305
    5MOL0     C  567   6.336   5.373   4.796 -0.4757  0.5477  0.5083
    5MOL0     C  568   6.299   5.439   4.672 -0.2877 -0.6845  0.3995
    5MOL0     C  569   6.259   5.282   4.866 -0.0055  0.1330  0.3815
    5MOL0     C  570   6.132   5.222   4.815 -0.7976 -1.2237 -0.2540
    5MOL0     O  571   6.025   5.216   4.904  0.8998  0.8570 -0.5643
    5MOL0     C  572   5.909   5.153   4.871  0.5135 -0.6689  0.5981
    5MOL0     C  573   5.795   5.225   4.872 -0.0129 -0.3410  0.4526
    5MOL0     C  574   5.669   5.169   4.826  0.2113 -0.3399  0.6353
    5MOL0     C  575   5.664   5.034   4.798 -0.2569  0.4868 -0.0687
    5MOL0     O  576   5.541   4.976   4.782  0.5459 -0.0210  0.1573
    5MOL0     C  577   5.531   4.867   4.684 -0.1575  1.1755 -0.1096
    5MOL0     C  578   5.389   4.800   4.706  0.2042 -0.8431  0.0076
    5MOL0     C  579   5.382   4.710   4.826 -0.5282 -0.3647  0.5797
    5MOL0     C  580   5.244   4.663   4.867 -0.4960 -0.0155 -0.0117
    5MOL0     C  581   5.251   4.551   4.977  0.1713  0.8008 -0.3617
    5MOL0     C  582   5.308   4.605   5.116 -0.2129 -0.1805  0.7406
    5MOL0     C  583   5.199   4.686   5.182  0.1358 -0.0991 -0.3861
    5MOL0     C  584   5.264   4.790   5.263 -0.0821 -0.0152 -0.6697
    5MOL0    Cl  585   5.386   4.736   5.385  0.1691 -0.0036  0.2585
    5MOL0     C  586   5.786   4.969   4.786 -0.1213  0.2272  0.4582
    5MOL0     C  587   5.907   5.029   4.811 -0.2504 -0.4829  0.2593
    5MOL0     O  588   6.127   5.198   4.691  0.4569  0.3720 -1.0714
    5MOL0     C  589   6.313   5.215   4.971 -0.3952  0.8694  0.8786
    5MOL0     C  590   6.444   5.238   5.021 -0.2010 -0.5569 -0.0091
    5MOL0     N  591   6.865   5.872   5.052  0.4248 -0.0268 -0.2410
    5MOL0     N  592   6.967   5.931   4.995  0.2396  0.6156  0.2206
    5MOL0     C  593   7.677   6.448   4.522 -0.3632  0.1209 -0.2529
    5MOL0     C  594   7.747   6.559   4.564 -0.1638  0.9700 -0.0622
    5MOL0     C  595   8.026   6.917   4.610 -1.1623 -0.4599 -0.0185
    5MOL0     C  596   8.076   6.956   4.489  0.4382  0.2260  0.7784
    5MOL0     C  597   8.147   7.080   4.465 -0.8545  0.1689 -0.8056
    5MOL0     C  598   8.175   7.164   4.581  0.1502 -0.5739 -0.8288
    5MOL0     O  599   8.238   7.285   4.588  0.1002 -0.4194  0.3324
    5MOL0     C  600   8.302   7.325   4.465 -1.2545  0.4934  0.5191
    5MOL0     C  601   8.387   7.448   4.487  0.1817 -1.0639  0.4916
    5MOL0     C  602   8.497   7.429   4.602  0.7038  0.7508 -0.1228
    5MOL0     C  603   8.591   7.543   4.629  0.6051  0.3927 -0.2292
    5MOL0     C  604   8.680   7.551   4.508  0.2415  0.6421 -0.7020
    5MOL0     C  605   8.751   7.564   4.407  1.1842  0.2318  0.2565
    5MOL0     C  606   8.124   7.117   4.703  0.6155 -0.2900 -0.8160
    5MOL0     C  607   8.052   6.996   4.719  0.4418  0.1015  0.2799
    5MOL0     H  608   7.860   6.679   4.270  0.7473  0.7429 -0.0416
    5MOL0     H  609   7.729   6.464   4.184  1.5297 -1.7948  0.4907
    5MOL0     H  610   7.639   6.152   4.455 -1.0624 -2.1025 -2.4794
    5MOL0     H  611   7.488   6.240   4.505 -0.8652  0.0238 -0.5133
    5MOL0     H  612   7.378   6.123   4.315 -1.8675 -0.3256  1.2685
    5MOL0     H  613   7.542   6.068   4.267  0.2981  0.1917  0.9370
    5MOL0     H  614   7.393   5.889   4.404  0.6280 -2.2367  3.8502
    5MOL0     H  615   7.561   5.921   4.450  0.2016  0.3874  0.9647
    5MOL0     H  616   7.461   6.064   4.629  1.4114 -1.0101  0.0615
    5MOL0     H  617   7.301   6.046   4.546  0.6241  3.4879  2.3737
    5MOL0     H  618   7.315   5.789   4.617  0.6470 -2.0907  3.0674
    5MOL0     H  619   7.454   5.834   4.710 -0.3538  0.4118  0.5699
    5MOL0     H  620   7.319   6.020   4.819 -0.0032  0.0278  1.3602
    5MOL0     H  621   7.179   5.954   4.733  0.4023  0.5301 -0.1864
    5MOL0     H  622   7.202   5.738   4.881  0.1945 -0.1481  0.5792
    5MOL0     H  623   7.368   5.794   4.925  1.0468  0.4985 -0.8873
    5MOL0     H  624   7.207   6.011   5.015 -0.5333 -0.0672  0.6026
    5MOL0     H  625   7.274   5.871   5.110 -1.4227 -0.6377  0.5322
    5MOL0     H  626   7.091   5.685   5.174  0.6249 -0.0193 -0.8231
    5MOL0     H  627   6.803   5.681   5.294 -1.2228  0.8368 -0.1874
    5MOL0     H  628   6.714   5.675   5.142 -0.2900  1.3070  0.1955
    5MOL0     H  629   6.755   5.450   5.196 -1.3990  0.3174 -0.8194
    5MOL0     H  630   6.932   5.473   5.223 -0.4303 -2.5552 -0.0354
    5MOL0     H  631   6.921   5.366   5.018 -0.9768 -0.9333  1.8591
    5MOL0     H  632   6.925   5.539   4.977 -1.0136  2.0310 -0.1337
    5MOL0     H  633   6.754   5.428   4.853 -0.1188 -0.4175  0.4526
    5MOL0     H  634   6.684   5.558   4.955  2.2823  2.1076 -3.2101
    5MOL0     H  635   6.513   5.488   4.793  2.2126 -1.9496 -2.0793
    5MOL0     H  636   6.329   5.543   4.658  2.0950 -1.6381 -2.9499
    5MOL0     H  637   6.339   5.383   4.587 -1.6931 -0.7823 -0.2253
    5MOL0     H  638   6.192   5.445   4.648 -0.2097 -2.1984 -0.4667
    5MOL0     H  639   5.800   5.328   4.906  0.8950  0.0685 -0.8411
    5MOL0     H  640   5.577   5.227   4.841 -0.1696 -1.5438  3.8248
    5MOL0     H  641   5.554   4.905   4.584  0.9521  1.4458  0.2304
    5MOL0     H  642   5.597   4.784   4.708 -2.1379 -0.3499  0.3423
    5MOL0     H  643   5.327   4.888   4.725  0.6709 -0.8323  1.6162
    5MOL0     H  644   5.369   4.743   4.615  2.9296 -0.9026 -0.6359
    5MOL0     H  645   5.441   4.751   4.908 -1.2868  1.6322  0.1781
    5MOL0     H  646   5.440   4.620   4.802  2.2803  1.4771 -0.0709
    5MOL0     H  647   5.173   4.742   4.896  0.2782  0.6610  0.0885
    5MOL0     H  648   5.199   4.617   4.779  0.6855  0.0383 -0.6561
    5MOL0     H  649   5.323   4.475   4.943 -0.7530  0.8677 -2.6815
    5MOL0     H  650   5.153   4.504   4.979 -0.2033  1.5799 -0.1737
    5MOL0     H  651   5.338   4.526   5.186  1.7088  0.1151  0.3053
    5MOL0     H  652   5.404   4.654   5.095  0.1210 -0.7629  0.8590
    5MOL0     H  653   5.142   4.612   5.240 -1.2539  0.0200 -1.5395
    5MOL0     H  654   5.127   4.726   5.110 -2.6323 -3.0098  0.5193
    5MOL0     H  655   5.186   4.846   5.316 -3.4690 -2.4558 -2.6497
    5MOL0     H  656   5.315   4.854   5.190  0.4483 -0.3045 -0.5600
    5MOL0     H  657   5.782   4.861   4.779 -0.8345  0.2559  0.3053
    5MOL0     H  658   5.999   4.977   4.791 -0.9982 -2.1626  0.9631
    5MOL0     H  659   6.247   5.147   5.025 -0.5225  0.3498  0.0805
    5MOL0     H  660   6.501   5.187   5.098  0.4818 -0.5452 -0.4956
    5MOL0     H  661   7.641   6.369   4.587 -2.0843 -1.1274 -2.5626
    5MOL0     H  662   7.758   6.579   4.670  0.8599  1.0298 -0.1739
    5MOL0     H  663   8.065   6.899   4.398 -0.7097  1.5775  0.0346
    5MOL0     H  664   8.199   7.102   4.372 -0.4098  0.3942 -0.5122
    5MOL0     H  665   8.369   7.249   4.424 -0.3174  1.0927  0.9180
    5MOL0     H  666   8.219   7.338   4.394 -0.2585  0.0964 -0.7587
    5MOL0     H  667   8.316   7.528   4.510 -0.1116 -1.3348  0.5326
    5MOL0     H  668   8.434   7.475   4.392  1.6756  0.5991  1.6434
    5MOL0     H  669   8.556   7.342   4.573 -0.1007  0.9871 -2.7164
    5MOL0     H  670   8.450   7.404   4.697 -1.5204 -1.8516 -1.7637
    5MOL0     H  671   8.648   7.527   4.721  1.0316 -0.1985 -0.5905
    5MOL0     H  672   8.538   7.639   4.638 -0.0465  0.0598 -0.4252
    5MOL0     H  673   8.816   7.573   4.323  0.5524  0.5429 -0.2138
    5MOL0     H  674   8.122   7.178   4.793  2.3754 -2.0099  0.4846
    5MOL0     H  675   8.014   6.961   4.815 -1.1737 -0.2074 -0.4571
    6MOL0     O  676   0.404   2.901   4.333 -0.3205  0.1401  0.4257
    6MOL0     C  677   0.347   2.814   4.400  0.2502 -0.3516  0.4129
    6MOL0     O  678   0.381   2.677   4.386  0.2476 -0.2923 -0.1935
    6MOL0     C  679   0.494   2.656   4.315 -0.4541 -0.3349  0.0331
    6MOL0     C  680   0.615   2.663   4.374  0.5632 -0.1538 -0.0964
    6MOL0     C  681   0.737   2.672   4.301  0.1606 -1.0138  0.3349
    6MOL0     C  682   0.735   2.681   4.153  0.0863 -0.5765 -1.2752
    6MOL0     O  683   0.851   2.675   4.089  0.0607  0.1657  0.0045
    6MOL0     C  684   0.843   2.729   3.954 -1.0250  0.4806  0.0770
    6MOL0     C  685   0.978   2.777   3.902  0.0031  0.5239  0.5993
    6MOL0     C  686   1.082   2.671   3.855 -0.1164  0.4042  0.0749
    6MOL0     C  687   1.126   2.567   3.942  0.5317  0.5684 -0.9144
    6MOL0     C  688   1.241   2.479   3.869  0.4508 -0.3990  0.3740
    6MOL0     C  689   1.289   2.376   3.964 -0.9030  0.5705 -0.1880
    6MOL0     C  690   1.424   2.313   3.921 -1.1195  0.4078  0.2147
    6MOL0     C  691   1.437   2.291   3.779 -0.3083  0.5416 -0.2589
    6MOL0     N  692   1.358   2.184   3.722  0.7876 -0.3535  0.2452
    6MOL0     C  693   1.342   2.058   3.783  0.3322 -0.7146 -0.1738
    6MOL0     C  694   1.268   1.984   3.699 -0.0601 -0.0123  0.0107
    6MOL0     C  695   1.193   1.849   3.723  0.1292  0.3988  0.7030
    6MOL0     C  696   1.051   1.858   3.681 -0.6560  0.2255 -0.0824
    6MOL0     C  697   0.992   1.721   3.717 -0.3067 -0.1235 -0.3106
    6MOL0     C  698   0.842   1.710   3.681 -0.3187  0.4537 -0.7816
    6MOL0     O  699   0.794   1.586   3.735 -0.0607 -0.0758 -0.3736
    6MOL0     C  700   0.663   1.555   3.720 -0.4515  0.2898  0.0416
    6MOL0     C  701   0.565   1.642   3.670 -0.6819 -0.5877 -0.2318
    6MOL0     C  702   0.429   1.616   3.695  0.4052 -0.3091  0.6726
    6MOL0     C  703   0.352   1.743   3.662 -0.0377 -0.5482  0.2508
    6MOL0     C  704   0.387   1.501   3.756  0.9049  0.8294 -0.2477
    6MOL0     C  705   0.248   1.468   3.786  0.1988  0.7668  0.0681
    6MOL0     O  706   0.143   1.531   3.714  0.3311  0.2765  0.4557
    6MOL0     C  707   0.021   1.479   3.713  0.0774 -0.3499 -0.4442
    6MOL0     C  708  -0.032   1.395   3.611  0.1240 -0.6398  0.1542
    6MOL0     C  709  -0.165   1.354   3.608  0.8972 -0.4289 -0.2069
    6MOL0     C  710  -0.253   1.392   3.711 -0.2677 -0.2079  0.9414
    6MOL0     O  711  -0.376   1.344   3.703  0.1650  0.0546  0.2054
    6MOL0     C  712  -0.472   1.413   3.797 -0.0940 -0.0826 -0.4174
    6MOL0     C  713  -0.612   1.360   3.788  0.4899 -0.1103 -0.7380
    6MOL0     C  714  -0.665   1.359   3.647 -0.0068 -0.2542  0.5487
    6MOL0     C  715  -0.819   1.338   3.635 -0.0044 -0.0009  0.0742
    6MOL0     C  716  -0.854   1.279   3.498 -0.4753 -0.0244  1.0306
    6MOL0     C  717  -0.812   1.376   3.388  0.4686 -0.1291 -0.2947
    6MOL0     C  718  -0.885   1.335   3.256 -0.5113 -0.4336  0.3603
    6MOL0     C  719  -1.032   1.358   3.254 -0.1275  0.9385  0.4282
    6MOL0    Cl  720  -1.075   1.332   3.080 -0.4801  0.2352 -0.5247
    6MOL0     C  721  -0.199   1.465   3.819 -0.0368  0.4194  0.9322
    6MOL0     C  722  -0.066   1.512   3.815 -0.0697 -0.7345 -0.2511
    6MOL0     O  723   0.234   1.381   3.873 -0.7395 -0.2445  0.0170
    6MOL0     C  724   0.490   1.413   3.796 -0.4377 -0.0407 -0.6298
    6MOL0     C  725   0.621   1.437   3.780 -0.2314 -0.3342  0.5374
    6MOL0     N  726   1.229   2.061   3.589  0.2030 -0.2080  0.1626
    6MOL0     N  727   1.268   2.182   3.612  0.3704 -0.6843  0.3242
    6MOL0     C  728   0.609   2.665   4.099 -0.3719 -0.1506  0.2182
    6MOL0     C  729   0.495   2.666   4.178  0.7137  0.5115  0.2703
    6MOL0     C  730   0.240   2.859   4.487 -0.4597 -0.0530  0.2875
    6MOL0     C  731   0.183   2.761   4.562  0.8782  0.4665 -0.3822
    6MOL0     C  732   0.079   2.789   4.654  0.0934 -0.0042 -0.3648
    6MOL0     C  733   0.028   2.914   4.671  0.4836  0.2206  1.0089
    6MOL0     O  734  -0.075   2.943   4.762  0.2207  1.2038  0.5934
    6MOL0     C  735  -0.203   2.909   4.700 -0.2775 -0.5052  0.3322
    6MOL0     C  736  -0.318   2.908   4.807  0.1695  0.2361  1.0099
    6MOL0     C  737  -0.460   2.878   4.752  0.3274 -0.4858  0.0708
    6MOL0     C  738  -0.499   2.733   4.705  0.0305  0.9534  0.4012
    6MOL0     C  739  -0.640   2.715   4.676 -0.3359 -1.1621  0.5923
    6MOL0     C  740  -0.760   2.717   4.665  0.4979 -0.1807 -0.6461
    6MOL0     C  741   0.086   3.018   4.590  0.9757 -0.2384 -0.1154
    6MOL0     C  742   0.186   2.986   4.501 -0.1618 -0.3490 -0.3607
    6MOL0     H  743   0.622   2.669   4.483 -0.5184  1.2045 -0.0847
    6MOL0     H  744   0.829   2.687   4.356  1.6312 -1.4217 -1.8918
    6MOL0     H  745   0.807   2.659   3.878 -0.3975 -0.2896  0.4729
    6MOL0     H  746   0.782   2.820   3.956  2.4034  2.9475  1.0618
    6MOL0     H  747   0.962   2.836   3.811 -0.7938 -0.4046  0.1153
    6MOL0     H  748   1.018   2.840   3.982 -0.6721  2.2800 -0.3856
    6MOL0     H  749   1.045   2.606   3.775 -1.2872  2.7011 -1.3655
    6MOL0     H  750   1.168   2.729   3.821  0.9709 -0.7179  0.8442
    6MOL0     H  751   1.156   2.611   4.038  0.4016  1.6789 -1.3672
    6MOL0     H  752   1.041   2.503   3.966  0.9068  1.6063  4.3194
    6MOL0     H  753   1.203   2.425   3.782  0.0102 -0.3408  0.5256
    6MOL0     H  754   1.328   2.540   3.845 -0.5529  1.5570  1.4544
    6MOL0     H  755   1.288   2.412   4.068 -0.4400 -0.8229  0.3315
    6MOL0     H  756   1.200   2.313   3.967 -1.4884  1.3885  0.0072
    6MOL0     H  757   1.502   2.387   3.944 -0.5368  1.2255 -3.7900
    6MOL0     H  758   1.434   2.220   3.977 -0.8600  0.0400 -0.4338
    6MOL0     H  759   1.543   2.272   3.759 -0.6733 -0.4561 -1.3973
    6MOL0     H  760   1.413   2.382   3.722 -0.3671  0.2418 -0.7147
    6MOL0     H  761   1.369   2.022   3.882 -0.1622 -2.9297 -0.7852
    6MOL0     H  762   1.238   1.766   3.668 -2.6320 -1.3418  0.8759
    6MOL0     H  763   1.203   1.823   3.829 -0.8118 -1.7863  0.3168
    6MOL0     H  764   1.050   1.881   3.574  0.6712  1.1843  0.0875
    6MOL0     H  765   1.007   1.940   3.739 -0.1397 -0.9459  2.0707
    6MOL0     H  766   0.996   1.701   3.825  0.6754 -1.0933 -0.5094
    6MOL0     H  767   1.044   1.646   3.657  1.1300  0.7893 -0.2667
    6MOL0     H  768   0.832   1.706   3.572 -1.0132 -1.0457 -0.6885
    6MOL0     H  769   0.784   1.795   3.718 -0.8784 -0.3557  0.2699
    6MOL0     H  770   0.595   1.730   3.614 -0.9235  0.0410  0.6201
    6MOL0     H  771   0.258   1.745   3.717 -0.1191 -2.3581  0.2382
    6MOL0     H  772   0.407   1.832   3.693 -1.6962  0.2323  1.0754
    6MOL0     H  773   0.330   1.746   3.555  0.4284 -0.4006  0.1572
    6MOL0     H  774   0.035   1.361   3.532 -1.9209 -2.6810 -0.8117
    6MOL0     H  775  -0.201   1.285   3.532  1.1207  0.3785 -1.0676
    6MOL0     H  776  -0.448   1.400   3.903 -1.9852  1.2235  0.2301
    6MOL0     H  777  -0.461   1.520   3.779  2.9703  0.0052  1.2861
    6MOL0     H  778  -0.615   1.259   3.831  2.5973  0.4368  0.8303
    6MOL0     H  779  -0.678   1.423   3.849  3.6205  1.6499  1.0912
    6MOL0     H  780  -0.615   1.276   3.596  4.1025  1.1099  1.9203
    6MOL0     H  781  -0.640   1.444   3.584 -0.5781 -1.9293 -2.1294
    6MOL0     H  782  -0.844   1.258   3.706  1.9687 -0.8051 -0.0762
    6MOL0     H  783  -0.869   1.433   3.659  3.1715  0.9083  4.2953
    6MOL0     H  784  -0.960   1.252   3.490 -0.7029  0.2149  2.7865
    6MOL0     H  785  -0.808   1.184   3.472  0.9515  0.9309 -0.1049
    6MOL0     H  786  -0.834   1.481   3.408 -0.1086 -0.3519  0.2615
    6MOL0     H  787  -0.708   1.354   3.364  0.7189 -0.1506  0.7819
    6MOL0     H  788  -0.860   1.236   3.217  3.7226  0.3541  0.5417
    6MOL0     H  789  -0.842   1.394   3.174 -1.2218 -2.6699 -1.7515
    6MOL0     H  790  -1.050   1.464   3.276 -0.4815  0.8778  0.4403
    6MOL0     H  791  -1.096   1.290   3.312 -2.1336 -0.5999 -3.2842
    6MOL0     H  792  -0.252   1.496   3.909 -0.6224  0.2771  0.6376
    6MOL0     H  793  -0.035   1.575   3.898 -0.6335 -0.2137 -0.4298
    6MOL0     H  794   0.461   1.323   3.851 -0.8811  0.9043  0.7488
    6MOL0     H  795   0.694   1.373   3.829  0.0209 -0.0475  0.5383
    6MOL0     H  796   0.602   2.669   3.991 -0.4237 -0.8073  0.1911
    6MOL0     H  797   0.399   2.645   4.131  0.2745  0.6242  1.0987
    6MOL0     H  798   0.228   2.662   4.569 -0.3013 -0.2739 -2.3590
    6MOL0     H  799   0.041   2.706   4.713  1.2384  0.2573  0.7862
    6MOL0     H  800  -0.226   2.978   4.619  0.7064  1.9778  2.0562
    6MOL0     H  801  -0.196   2.816   4.643 -0.9449 -1.2796  1.4658
    6MOL0     H  802  -0.308   3.005   4.858 -1.2494 -0.0335  1.8419
    6MOL0     H  803  -0.301   2.826   4.878 -0.7710  0.3889  1.4252
    6MOL0     H  804  -0.473   2.938   4.661  0.8018 -1.8360 -0.9317
    6MOL0     H  805  -0.527   2.906   4.833  0.5853  0.4289 -0.0254
    6MOL0     H  806  -0.467   2.665   4.784 -2.9559 -0.4033  0.5456
    6MOL0     H  807  -0.445   2.699   4.616  0.2657  0.8336  0.5901
    6MOL0     H  808  -0.867   2.722   4.655  0.0439  2.2254  3.2343
    6MOL0     H  809   0.031   3.111   4.583  1.0004 -0.1360  0.8771
    6MOL0     H  810   0.231   3.066   4.442 -0.7490 -0.7980 -1.4528
    7MOL0     O  811   7.288   9.230   4.083 -0.7039 -0.3523 -0.2978
    7MOL0     C  812   7.250   9.342   4.098  0.8809 -0.3495  0.2591
    7MOL0     O  813   7.162   9.404   4.022  0.4856  0.0873  0.3624
    7MOL0     C  814   7.083   9.352   3.916 -0.3986  0.3762 -0.1841
    7MOL0     C  815   7.134   9.252   3.836 -0.9912 -0.5643 -0.4726
    7MOL0     C  816   7.065   9.206   3.724  0.2795  0.2745  0.8879
    7MOL0     C  817   6.946   9.269   3.681  0.0051  0.2328 -1.4852
    7MOL0     O  818   6.872   9.239   3.574 -0.0400 -1.1076  0.1250
    7MOL0     C  819   6.933   9.189   3.456  0.6134 -1.1380 -0.9764
    7MOL0     C  820   6.846   9.195   3.338 -0.0107  0.4223  0.1096
    7MOL0     C  821   6.813   9.337   3.295 -1.1883 -1.1887 -0.4000
    7MOL0     C  822   6.703   9.336   3.185  0.0555  0.0664 -0.5663
    7MOL0     C  823   6.689   9.473   3.115  0.0731  1.2165  0.0808
    7MOL0     C  824   6.554   9.498   3.048  1.1418 -0.2261 -0.4375
    7MOL0     C  825   6.434   9.492   3.146  0.1591  0.3263 -0.4602
    7MOL0     C  826   6.310   9.562   3.094  0.1144 -0.2836  0.4435
    7MOL0     N  827   6.190   9.532   3.167 -0.4510 -0.0041 -0.6604
    7MOL0     C  828   6.103   9.424   3.157 -0.3295  0.0361 -0.4505
    7MOL0     C  829   5.988   9.462   3.222 -0.1981  0.9547  1.3132
    7MOL0     C  830   5.858   9.387   3.233 -0.1003 -0.4220  0.2605
    7MOL0     C  831   5.742   9.481   3.258 -0.1754  0.7370 -0.1790
    7MOL0     C  832   5.606   9.411   3.255 -0.5167  0.0047  0.3677
    7MOL0     C  833   5.498   9.490   3.319 -0.0293  0.2045  0.2838
    7MOL0     O  834   5.510   9.504   3.457  0.2626 -0.1402 -0.5603
    7MOL0     C  835   5.426   9.604   3.509 -0.9105  0.2470 -0.3772
    7MOL0     C  836   5.471   9.659   3.634  0.1680 -0.7049 -0.4233
    7MOL0     C  837   5.390   9.745   3.710 -0.8819 -0.2782 -0.0901
    7MOL0     C  838   5.458   9.795   3.836 -0.5056  0.3727 -0.3436
    7MOL0     C  839   5.269   9.790   3.653 -0.3565 -0.0977 -1.0329
    7MOL0     C  840   5.169   9.878   3.723 -0.1508  0.5813  0.0525
    7MOL0     O  841   5.031   9.859   3.699 -0.6150 -0.1371 -0.6313
    7MOL0     C  842   4.957   9.965   3.741 -0.5192  0.1360 -0.1045
    7MOL0     C  843   4.946  10.083   3.678  0.5064  0.2322 -0.0640
    7MOL0     C  844   4.840  10.170   3.718  0.2797  0.1335 -0.4856
    7MOL0     C  845   4.775  10.149   3.843 -0.1630  0.1029  0.2326
    7MOL0     O  846   4.699  10.251   3.903  0.2237 -0.0275  0.1044
    7MOL0     C  847   4.701  10.385   3.846 -0.0343 -0.9365 -0.0806
    7MOL0     C  848   4.649  10.490   3.947  0.1283 -0.1276  0.6604
    7MOL0     C  849   4.527  10.444   4.020  0.0419  0.1781 -0.0260
    7MOL0     C  850   4.440  10.549   4.096 -0.3561 -0.0844 -0.5888
    7MOL0     C  851   4.324  10.568   4.008 -0.3024 -0.0579 -0.2599
    7MOL0     C  852   4.214  10.644   4.080  0.6218  0.1677 -1.0499
    7MOL0     C  853   4.137  10.561   4.193  0.4904 -0.3904 -0.3915
    7MOL0     C  854   4.051  10.647   4.288  0.2019  0.2118 -0.1304
    7MOL0    Cl  855   3.911  10.713   4.204  0.1896  0.0416 -0.1597
    7MOL0     C  856   4.800  10.034   3.914 -0.6652 -0.1656  0.3550
    7MOL0     C  857   4.871   9.937   3.852  0.1041  0.7846 -0.3039
    7MOL0     O  858   5.215   9.937   3.817 -0.4017 -0.7737 -0.1473
    7MOL0     C  859   5.228   9.738   3.532 -0.5526  0.2476  0.0260
    7MOL0     C  860   5.301   9.651   3.461  0.0576  0.5184  0.3412
    7MOL0     N  861   6.007   9.593   3.265 -0.0810  0.3735 -0.5413
    7MOL0     N  862   6.126   9.636   3.231  0.5729  0.7399 -0.5542
    7MOL0     C  863   6.898   9.366   3.767 -0.4934  0.0299  0.0271
    7MOL0     C  864   6.967   9.406   3.874  0.1347  0.4340 -0.5240
    7MOL0     C  865   7.321   9.408   4.206  0.0689 -0.9379  0.1606
    7MOL0     C  866   7.433   9.349   4.270  0.2661 -0.7374 -0.3743
    7MOL0     C  867   7.487   9.419   4.376 -0.0905  0.4551  0.1535
    7MOL0     C  868   7.443   9.547   4.418 -0.0746 -0.0962  0.2166
    7MOL0     O  869   7.505   9.596   4.525  0.8395 -0.1349 -0.1910
    7MOL0     C  870   7.414   9.562   4.640  0.2990  0.0555 -0.3112
    7MOL0     C  871   7.465   9.639   4.762  1.0742 -0.9134 -0.3768
    7MOL0     C  872   7.616   9.593   4.793  0.3286 -0.3342 -0.3781
    7MOL0     C  873   7.679   9.708   4.862 -0.9052 -0.1974  0.0449
    7MOL0     C  874   7.822   9.679   4.886 -0.3262  0.3007  0.4091
    7MOL0     C  875   7.938   9.664   4.909 -0.1288  0.0201  0.4325
    7MOL0     C  876   7.329   9.600   4.355 -0.1615  0.5392  0.4499
    7MOL0     C  877   7.273   9.528   4.250  0.1209 -0.1420  0.0824
    7MOL0     H  878   7.223   9.201   3.868 -0.7436 -0.0934 -0.4041
    7MOL0     H  879   7.106   9.121   3.671  2.0188  0.6934  1.4904
    7MOL0     H  880   7.025   9.247   3.441  0.2562 -0.7336 -1.6400
    7MOL0     H  881   6.966   9.085   3.463 -0.3888 -1.4202 -0.1673
    7MOL0     H  882   6.906   9.148   3.259  0.7401  1.9009 -0.2445
    7MOL0     H  883   6.753   9.143   3.362 -0.6267  0.3601 -2.1669
    7MOL0     H  884   6.778   9.388   3.386 -0.0191  0.6509 -0.9165
    7MOL0     H  885   6.900   9.394   3.263 -1.4919 -0.1903  0.4688
    7MOL0     H  886   6.714   9.257   3.109 -0.6024  1.7300 -2.4946
    7MOL0     H  887   6.616   9.313   3.246 -0.6494 -0.0395 -1.5957
    7MOL0     H  888   6.713   9.552   3.185  0.2922 -0.2262  1.7016
    7MOL0     H  889   6.769   9.483   3.042  0.2362  1.8809  0.3508
    7MOL0     H  890   6.555   9.600   3.009  0.6296  0.3677  1.0141
    7MOL0     H  891   6.538   9.425   2.969  1.4099 -0.9647  0.1792
    7MOL0     H  892   6.408   9.387   3.166 -1.7812  1.0255  1.0916
    7MOL0     H  893   6.469   9.534   3.241  3.3551 -2.7462 -0.0524
    7MOL0     H  894   6.300   9.537   2.988 -0.0957 -0.5093  0.5159
    7MOL0     H  895   6.327   9.670   3.098 -1.1857 -0.0845  1.4383
    7MOL0     H  896   6.118   9.329   3.107  1.5100 -0.3643  0.7444
    7MOL0     H  897   5.844   9.328   3.142  1.0606 -0.0716 -0.1572
    7MOL0     H  898   5.866   9.316   3.317  2.7171 -1.0488 -0.4299
    7MOL0     H  899   5.733   9.549   3.173 -1.6995 -1.0597 -1.5642
    7MOL0     H  900   5.761   9.527   3.355  0.5946 -0.2722  0.1611
    7MOL0     H  901   5.601   9.311   3.301  0.6451 -0.7413 -1.0622
    7MOL0     H  902   5.590   9.392   3.149 -0.1536  1.8927 -0.0511
    7MOL0     H  903   5.404   9.438   3.301  0.7694 -0.6403 -1.7348
    7MOL0     H  904   5.501   9.588   3.270  1.8587 -0.4704 -1.0481
    7MOL0     H  905   5.572   9.637   3.667  0.4069  0.1823 -0.5371
    7MOL0     H  906   5.527   9.716   3.867  2.0312  1.6093 -2.3486
    7MOL0     H  907   5.510   9.891   3.826 -2.1536  1.4417  0.8979
    7MOL0     H  908   5.390   9.809   3.920  1.0179  1.2331  0.8100
    7MOL0     H  909   5.012  10.113   3.598  1.4033  0.7495  0.8481
    7MOL0     H  910   4.819  10.257   3.657  1.2878  1.3355  0.8325
    7MOL0     H  911   4.804  10.414   3.824 -0.1008 -0.9927 -0.4597
    7MOL0     H  912   4.639  10.391   3.757  0.0513 -0.6212 -0.1188
    7MOL0     H  913   4.724  10.514   4.023  0.9124 -1.2811  0.2892
    7MOL0     H  914   4.629  10.581   3.891  7.8930  0.8764 -1.6282
    7MOL0     H  915   4.557  10.366   4.091  2.3531  1.8500  0.9348
    7MOL0     H  916   4.459  10.398   3.947 -1.6836  1.4738  0.7138
    7MOL0     H  917   4.407  10.501   4.189  2.3749 -1.5342 -0.2664
    7MOL0     H  918   4.481  10.650   4.104 -3.1338  1.0543  0.4840
    7MOL0     H  919   4.283  10.467   3.998 -0.2158 -0.2147  0.8408
    7MOL0     H  920   4.356  10.615   3.915  0.1088 -2.2192 -1.2543
    7MOL0     H  921   4.267  10.723   4.133  0.6919 -1.8740  2.1513
    7MOL0     H  922   4.144  10.680   4.003  0.1134 -2.4715 -1.9335
    7MOL0     H  923   4.214  10.514   4.255  2.6375  1.1799 -1.7400
    7MOL0     H  924   4.088  10.473   4.150  0.3622 -1.0725  1.0555
    7MOL0     H  925   4.116  10.734   4.303 -0.2918  0.2643  2.0075
    7MOL0     H  926   4.015  10.604   4.381 -0.2240  3.1629  1.1617
    7MOL0     H  927   4.761  10.030   4.015  2.2848  0.5127  1.6388
    7MOL0     H  928   4.872   9.840   3.899 -1.7715  0.0356 -1.6837
    7MOL0     H  929   5.128   9.767   3.500 -1.1166 -2.3733 -0.7701
    7MOL0     H  930   5.256   9.604   3.374 -1.4809  0.9916  0.8408
    7MOL0     H  931   6.801   9.410   3.748 -0.4792 -1.2531 -4.1321
    7MOL0     H  932   6.934   9.484   3.941 -3.0946 -2.4744  1.6393
    7MOL0     H  933   7.471   9.253   4.236 -1.7462 -1.5660 -0.3842
    7MOL0     H  934   7.573   9.369   4.418  0.7597  0.4169 -1.5289
    7MOL0     H  935   7.313   9.597   4.620  0.8463  0.7505 -2.1567
    7MOL0     H  936   7.417   9.456   4.666 -0.1069  0.0061 -0.4711
    7MOL0     H  937   7.394   9.614   4.842 -3.1845 -0.2871 -3.5988
    7MOL0     H  938   7.461   9.747   4.746 -2.9621 -0.7464  0.6832
    7MOL0     H  939   7.673   9.578   4.700 -0.6003 -1.3367 -0.8100
    7MOL0     H  940   7.621   9.507   4.860 -1.8101 -1.2591 -1.3043
    7MOL0     H  941   7.618   9.736   4.949 -1.3555  0.1196 -0.3703
    7MOL0     H  942   7.677   9.802   4.807  0.7287  1.1804  2.1775
    7MOL0     H  943   8.040   9.632   4.921  0.3027  2.0468  2.9941
    7MOL0     H  944   7.289   9.698   4.379 -0.6018  0.1285  1.4484
    7MOL0     H  945   7.172   9.563   4.231 -0.2495 -0.0121  2.1160
    8MOL0     O  946   5.893   1.092   9.035 -0.1547  0.5037  0.1090
    8MOL0     C  947   5.859   1.119   8.921 -0.3203  0.0516  0.1978
    8MOL0     O  948   5.739   1.094   8.863 -0.9646  0.5452  0.6481
    8MOL0     C  949   5.648   1.027   8.943 -0.3262  0.7699  0.1820
    8MOL0     C  950   5.557   1.092   9.022  0.2798 -0.4611  0.5334
    8MOL0     C  951   5.456   1.020   9.088  0.6825  0.2443  0.7088
    8MOL0     C  952   5.450   0.882   9.082  0.2141 -0.3395  0.4884
    8MOL0     O  953   5.347   0.820   9.152 -0.1952  0.1196  0.4895
    8MOL0     C  954   5.271   0.716   9.090 -0.3808  1.4106 -0.2636
    8MOL0     C  955   5.183   0.769   8.976 -1.3304  0.4637  0.6773
    8MOL0     C  956   5.094   0.666   8.916  0.6740 -0.9501  0.6709
    8MOL0     C  957   5.051   0.741   8.785  0.7799  0.1912  0.4012
    8MOL0     C  958   4.956   0.655   8.705  0.7608 -0.0404 -0.2203
    8MOL0     C  959   4.813   0.646   8.773 -1.0902  0.1925  0.8687
    8MOL0     C  960   4.716   0.588   8.667 -0.1552  0.6002 -0.0014
    8MOL0     C  961   4.664   0.695   8.567 -0.9626  0.2156 -0.6034
    8MOL0     N  962   4.554   0.768   8.633  0.2611 -0.0706  0.3487
    8MOL0     C  963   4.418   0.742   8.612  0.3392  0.3169 -0.0822
    8MOL0     C  964   4.365   0.856   8.663  0.3899  0.2147 -0.5973
    8MOL0     C  965   4.221   0.892   8.640 -0.8485  0.0025  0.1115
    8MOL0     C  966   4.134   0.864   8.762  0.3412  0.4765  0.7866
    8MOL0     C  967   3.989   0.835   8.732  0.4668 -0.1402  0.3630
    8MOL0     C  968   3.909   0.949   8.677 -0.8342 -0.2654 -0.2128
    8MOL0     O  969   3.779   0.968   8.720 -0.2108  0.2442 -0.4081
    8MOL0     C  970   3.674   0.956   8.632 -0.0333  0.5703  0.4113
    8MOL0     C  971   3.553   0.995   8.678 -0.9868 -1.0097  0.3576
    8MOL0     C  972   3.435   0.957   8.619  0.1726  0.0455 -0.0070
    8MOL0     C  973   3.317   1.012   8.694  0.5846 -0.5739 -1.8216
    8MOL0     C  974   3.429   0.878   8.508 -0.1565  0.8037 -0.1657
    8MOL0     C  975   3.299   0.854   8.443 -0.1911 -0.0298  0.6423
    8MOL0     O  976   3.179   0.846   8.516  0.5734  0.2796 -0.8774
    8MOL0     C  977   3.059   0.853   8.454 -0.6555 -0.3665 -0.0715
    8MOL0     C  978   2.959   0.920   8.521 -0.5261 -0.5363  0.3724
    8MOL0     C  979   2.825   0.917   8.475  0.4590  0.6349  0.6645
    8MOL0     C  980   2.797   0.849   8.358  0.3312  0.0969 -0.5608
    8MOL0     O  981   2.668   0.860   8.325  0.0365  0.1067  0.3711
    8MOL0     C  982   2.627   0.794   8.206 -0.1328 -0.0959  0.1305
    8MOL0     C  983   2.481   0.772   8.183  0.4494 -0.7893  0.7595
    8MOL0     C  984   2.409   0.736   8.307 -0.4656  0.1444 -0.4789
    8MOL0     C  985   2.257   0.745   8.296 -0.6333 -0.7166 -0.1481
    8MOL0     C  986   2.185   0.684   8.414  0.3967  0.6337 -0.1329
    8MOL0     C  987   2.032   0.703   8.408  0.0303 -0.0910  0.3280
    8MOL0     C  988   1.975   0.628   8.278 -0.7281 -0.2793 -0.4259
    8MOL0     C  989   1.817   0.637   8.288  0.3218  0.1649 -0.0565
    8MOL0    Cl  990   1.749   0.519   8.182  0.0355  0.0207  0.0736
    8MOL0     C  991   2.899   0.780   8.288  0.3015  0.0932 -0.0905
    8MOL0     C  992   3.029   0.776   8.338 -0.1190 -0.5948  0.0904
    8MOL0     O  993   3.305   0.831   8.323 -0.2109  0.7238  0.2407
    8MOL0     C  994   3.558   0.843   8.449  0.2731  0.9913 -0.1818
    8MOL0     C  995   3.678   0.880   8.514 -0.6238  0.2960 -0.3713
    8MOL0     N  996   4.458   0.932   8.717  0.5823  0.3155  0.0425
    8MOL0     N  997   4.578   0.883   8.695  0.5777 -0.0469  0.4627
    8MOL0     C  998   5.551   0.815   9.013  0.0598 -0.0705 -0.9870
    8MOL0     C  999   5.651   0.885   8.944 -0.3021 -0.0136  0.0056
    8MOL0     C 1000   5.959   1.190   8.834  0.5286 -0.7173  0.0214
    8MOL0     C 1001   6.092   1.194   8.873 -0.7330  0.1734  0.2825
    8MOL0     C 1002   6.190   1.240   8.783 -0.8436  1.2814  0.8861
    8MOL0     C 1003   6.157   1.309   8.667  0.3126  0.8475  0.4257
    8MOL0     O 1004   6.240   1.369   8.578 -0.0903  0.4997 -0.4419
    8MOL0     C 1005   6.376   1.398   8.628 -0.4438  1.4014 -0.5718
    8MOL0     C 1006   6.475   1.291   8.596  0.0911 -1.1934  0.4447
    8MOL0     C 1007   6.484   1.272   8.443 -0.2927  0.5471 -0.6711
    8MOL0     C 1008   6.615   1.218   8.386  0.2282  0.5409 -0.5642
    8MOL0     C 1009   6.619   1.223   8.234  0.5448  0.1724 -0.3401
    8MOL0     C 1010   6.616   1.230   8.113 -0.2678 -0.2599 -1.1142
    8MOL0     C 1011   6.014   1.307   8.638  0.5994  0.1143 -0.9904
    8MOL0     C 1012   5.919   1.251   8.718  0.3272  0.3611  0.5265
    8MOL0     H 1013   5.549   1.200   9.025 -0.6156 -0.4738 -0.7124
    8MOL0     H 1014   5.378   1.060   9.152  0.1442 -1.2919  1.0612
    8MOL0     H 1015   5.344   0.639   9.064 -0.1914  1.6404 -0.4284
    8MOL0     H 1016   5.204   0.678   9.166 -2.2909  0.4046 -2.3319
    8MOL0     H 1017   5.120   0.852   9.009 -0.9862  0.6095  0.9720
    8MOL0     H 1018   5.259   0.797   8.902 -0.4125 -2.4297  0.3924
    8MOL0     H 1019   5.137   0.571   8.885  1.0722 -0.2587 -1.0458
    8MOL0     H 1020   5.002   0.643   8.971  0.2434 -1.0324 -0.0708
    8MOL0     H 1021   4.992   0.828   8.816  0.9183  0.5337 -0.2717
    8MOL0     H 1022   5.136   0.781   8.728  1.3325 -3.4201 -1.5891
    8MOL0     H 1023   4.952   0.701   8.606 -1.4564  0.0013 -0.1593
    8MOL0     H 1024   4.999   0.555   8.692 -0.1633 -0.1095 -3.7195
    8MOL0     H 1025   4.826   0.583   8.861  3.0645  1.7834  1.6207
    8MOL0     H 1026   4.784   0.748   8.799  0.5939  0.6944  0.9457
    8MOL0     H 1027   4.773   0.512   8.612 -0.2192  0.9489 -0.5522
    8MOL0     H 1028   4.635   0.543   8.725 -1.2975 -0.9193 -2.6027
    8MOL0     H 1029   4.617   0.651   8.479 -0.4744  2.0012 -1.8072
    8MOL0     H 1030   4.746   0.761   8.537 -2.3534  3.2472  1.7202
    8MOL0     H 1031   4.364   0.659   8.566  1.0216 -0.3187  0.2475
    8MOL0     H 1032   4.212   0.999   8.619 -3.6218 -0.3179 -0.8450
    8MOL0     H 1033   4.181   0.838   8.554 -1.6879 -3.0101  2.2253
    8MOL0     H 1034   4.145   0.933   8.846  2.4755 -0.8103  1.6525
    8MOL0     H 1035   4.174   0.770   8.802 -1.1101  0.8056  3.2108
    8MOL0     H 1036   3.947   0.815   8.831  0.1046  0.5505  0.3592
    8MOL0     H 1037   3.963   0.747   8.673 -5.4571  0.3045  1.6217
    8MOL0     H 1038   3.912   0.960   8.568  1.6809  0.3569 -0.1485
    8MOL0     H 1039   3.963   1.035   8.716  0.2120 -0.9808 -0.0314
    8MOL0     H 1040   3.564   1.060   8.765  0.3884 -0.9869  0.1807
    8MOL0     H 1041   3.339   1.078   8.778 -0.0047 -2.1171 -0.4100
    8MOL0     H 1042   3.251   1.071   8.630 -0.2521  0.9348  0.3456
    8MOL0     H 1043   3.258   0.929   8.735  4.6489 -1.3764  3.4447
    8MOL0     H 1044   2.988   0.967   8.614  4.6622  0.5221 -1.4128
    8MOL0     H 1045   2.751   0.970   8.535 -0.4555 -3.0141  3.0505
    8MOL0     H 1046   2.678   0.837   8.119  1.4387 -1.8776  0.1025
    8MOL0     H 1047   2.660   0.690   8.211  1.4937  0.2433 -2.1424
    8MOL0     H 1048   2.433   0.861   8.143 -2.8993 -1.6525  2.4955
    8MOL0     H 1049   2.476   0.693   8.108  2.3010 -0.2424  0.0150
    8MOL0     H 1050   2.449   0.791   8.393 -1.7568 -1.2812  1.1003
    8MOL0     H 1051   2.435   0.634   8.337 -1.2727  0.5629  1.8204
    8MOL0     H 1052   2.220   0.847   8.286 -1.1486 -1.0201 -1.5854
    8MOL0     H 1053   2.224   0.697   8.203  0.8496  0.1606 -1.1719
    8MOL0     H 1054   2.222   0.717   8.512 -0.6532  1.5517 -0.0279
    8MOL0     H 1055   2.199   0.576   8.410  1.1995  0.7604 -1.0016
    8MOL0     H 1056   1.987   0.661   8.499 -2.1469 -0.5561 -0.8803
    8MOL0     H 1057   2.001   0.806   8.390 -0.0962 -0.2279 -0.2609
    8MOL0     H 1058   2.011   0.525   8.270  2.0427  0.6408 -0.7584
    8MOL0     H 1059   2.005   0.686   8.191 -0.2053  1.4407  0.8556
    8MOL0     H 1060   1.784   0.739   8.263  2.8791  0.5300 -2.4888
    8MOL0     H 1061   1.792   0.612   8.391  2.2680 -0.0537  0.4034
    8MOL0     H 1062   2.883   0.716   8.202 -1.9837  0.7258 -0.2078
    8MOL0     H 1063   3.106   0.713   8.294 -1.8692 -2.6964 -0.1229
    8MOL0     H 1064   3.575   0.789   8.356  2.7721 -0.1763  0.8467
    8MOL0     H 1065   3.768   0.846   8.463 -1.8984  0.5391 -2.9572
    8MOL0     H 1066   5.550   0.708   8.994  1.2786 -0.2889  0.0395
    8MOL0     H 1067   5.722   0.843   8.873 -1.6153  0.3288 -1.5827
    8MOL0     H 1068   6.115   1.133   8.960 -0.5918 -0.3046 -0.0853
    8MOL0     H 1069   6.293   1.224   8.811 -0.7592  2.0660  1.0365
    8MOL0     H 1070   6.404   1.489   8.574  3.6572 -0.5213 -2.0597
    8MOL0     H 1071   6.371   1.420   8.735 -0.5987 -3.0856  0.5570
    8MOL0     H 1072   6.449   1.204   8.657 -3.0567 -0.0140  0.9829
    8MOL0     H 1073   6.571   1.329   8.632 -0.8258 -0.7493  2.6057
    8MOL0     H 1074   6.469   1.369   8.395 -0.1228  0.3664 -1.0929
    8MOL0     H 1075   6.395   1.216   8.413 -0.2604  0.1258 -0.0134
    8MOL0     H 1076   6.634   1.118   8.425  1.9613  1.2993  0.6869
    8MOL0     H 1077   6.696   1.279   8.427  0.8494 -1.0807  0.7540
    8MOL0     H 1078   6.615   1.228   8.006  0.6710 -2.3095 -1.1264
    8MOL0     H 1079   5.981   1.349   8.544 -2.6185 -0.2702 -0.1799
    8MOL0     H 1080   5.817   1.270   8.686 -0.1370  0.2484  1.8611
    9MOL0     O 1081  10.723   5.118   8.026 -0.9038  0.4670  0.3822
    9MOL0     C 1082  10.749   5.213   8.104 -0.7151  0.0721 -0.1433
    9MOL0     O 1083  10.653   5.284   8.162 -0.5477 -0.1391  0.1398
    9MOL0     C 1084  10.527   5.251   8.152  0.0600  0.4992 -0.1334
    9MOL0     C 1085  10.446   5.193   8.260 -0.9896  0.5249  0.9306
    9MOL0     C 1086  10.314   5.171   8.250 -0.0225  0.3781  0.1304
    9MOL0     C 1087  10.239   5.213   8.139  0.3998 -0.5924  0.5285
    9MOL0     O 1088  10.109   5.191   8.139 -0.4814  0.0561 -0.1969
    9MOL0     C 1089  10.024   5.288   8.079 -0.1435  1.0335  0.4154
    9MOL0     C 1090   9.885   5.267   8.114  1.1702  0.6109 -0.0416
    9MOL0     C 1091   9.787   5.346   8.034  0.1701 -1.4371 -0.1740
    9MOL0     C 1092   9.641   5.314   8.070 -0.2678 -0.2692  0.3194
    9MOL0     C 1093   9.540   5.367   7.967  0.1844  0.3426 -0.1217
    9MOL0     C 1094   9.394   5.312   7.988 -0.0131  0.1706  0.4844
    9MOL0     C 1095   9.309   5.366   7.865  0.0041  0.4912 -0.8737
    9MOL0     C 1096   9.158   5.332   7.886 -0.3000 -0.3039  0.4008
    9MOL0     N 1097   9.086   5.351   7.757  0.4689  0.7791  0.2161
    9MOL0     C 1098   9.116   5.297   7.634  0.2665 -0.4442  1.0267
    9MOL0     C 1099   9.017   5.345   7.554  0.3101  0.0414 -0.5008
    9MOL0     C 1100   8.996   5.317   7.408 -0.1567  0.3076  0.2576
    9MOL0     C 1101   8.861   5.261   7.375  0.1943 -1.0064  0.6638
    9MOL0     C 1102   8.845   5.248   7.219  0.8970 -0.4638  0.3036
    9MOL0     C 1103   8.699   5.217   7.176  0.4669  0.2028  0.1369
    9MOL0     O 1104   8.608   5.319   7.212  0.4408 -0.2060  0.4245
    9MOL0     C 1105   8.480   5.298   7.178 -0.7713 -0.1324  0.0663
    9MOL0     C 1106   8.430   5.210   7.077  0.0865  0.3593 -0.8133
    9MOL0     C 1107   8.297   5.220   7.039  0.7527 -0.1460 -0.6933
    9MOL0     C 1108   8.258   5.132   6.923 -0.2232  0.5552  0.3479
    9MOL0     C 1109   8.205   5.306   7.102  0.2054  0.8186  0.3204
    9MOL0     C 1110   8.056   5.310   7.097  0.7477 -0.5430 -0.2591
    9MOL0     O 1111   7.973   5.205   7.054 -0.1646 -0.3928  0.7925
    9MOL0     C 1112   7.836   5.226   7.039 -0.0690  0.0438 -0.5313
    9MOL0     C 1113   7.755   5.111   7.056  0.3021 -0.6804  0.2306
    9MOL0     C 1114   7.622   5.109   7.030  0.8381  0.7697 -0.6854
    9MOL0     C 1115   7.556   5.224   7.001  0.1585 -0.3019 -0.4121
    9MOL0     O 1116   7.419   5.222   7.010  0.4777  0.0106  0.0684
    9MOL0     C 1117   7.347   5.348   6.998  0.6354  0.8387 -0.6928
    9MOL0     C 1118   7.348   5.446   7.113 -0.3305 -0.1107 -0.2774
    9MOL0     C 1119   7.233   5.448   7.220 -0.3869 -0.5728  0.1856
    9MOL0     C 1120   7.097   5.483   7.154  0.2316 -0.6371  0.0317
    9MOL0     C 1121   6.996   5.481   7.266 -0.0268 -0.0308 -0.2899
    9MOL0     C 1122   6.854   5.516   7.223  0.5048  0.7540  0.4265
    9MOL0     C 1123   6.760   5.498   7.343 -0.0053 -0.1370 -0.4944
    9MOL0     C 1124   6.623   5.483   7.298  0.4146 -0.4762  0.6833
    9MOL0    Cl 1125   6.513   5.459   7.441 -0.2678  0.0809  0.0134
    9MOL0     C 1126   7.635   5.335   6.978  0.2503 -0.8558  0.4226
    9MOL0     C 1127   7.773   5.340   7.002  0.3804  0.4953  0.5938
    9MOL0     O 1128   8.003   5.411   7.144  0.5135  0.2240 -0.0753
    9MOL0     C 1129   8.261   5.388   7.204 -0.4190  0.4110  0.6437
    9MOL0     C 1130   8.398   5.389   7.236  0.7379  0.2404  0.5736
    9MOL0     N 1131   8.939   5.434   7.616 -0.6281 -0.3083 -0.5289
    9MOL0     N 1132   8.978   5.437   7.740 -0.2076  0.3764 -0.2724
    9MOL0     C 1133  10.314   5.264   8.028 -0.2587  0.2581 -0.5928
    9MOL0     C 1134  10.452   5.287   8.036 -0.7956 -0.0006 -0.5511
    9MOL0     C 1135  10.891   5.236   8.136  0.8086  0.1230 -0.5851
    9MOL0     C 1136  10.987   5.145   8.095  0.8593  0.6554 -0.2410
    9MOL0     C 1137  11.116   5.159   8.122 -0.0213 -0.5910 -0.3894
    9MOL0     C 1138  11.164   5.266   8.201 -0.0676  0.6533  0.7426
    9MOL0     O 1139  11.299   5.259   8.221 -0.1247  0.4347 -0.6142
    9MOL0     C 1140  11.357   5.382   8.271  0.2336  0.0229 -0.0652
    9MOL0     C 1141  11.497   5.364   8.333 -0.8200 -1.2748 -0.5627
    9MOL0     C 1142  11.594   5.330   8.225 -0.0472  0.3372  0.4874
    9MOL0     C 1143  11.726   5.282   8.285 -0.0958  0.1240  0.9884
    9MOL0     C 1144  11.837   5.313   8.197  0.2705  0.3409 -0.5423
    9MOL0     C 1145  11.934   5.341   8.132  0.3815 -0.3121 -0.6232
    9MOL0     C 1146  11.064   5.354   8.250  0.2397  0.3031 -0.9260
    9MOL0     C 1147  10.923   5.338   8.229 -0.7059  0.3299  0.4252
    9MOL0     H 1148  10.494   5.149   8.347 -0.5376 -0.0017  0.4232
    9MOL0     H 1149  10.258   5.123   8.329 -0.4315  0.2432 -0.2341
    9MOL0     H 1150  10.050   5.385   8.121 -1.3278  2.4302 -1.8601
    9MOL0     H 1151  10.042   5.299   7.971  2.7466  2.0058  0.9043
    9MOL0     H 1152   9.859   5.160   8.118  0.6355  0.7092 -0.6396
    9MOL0     H 1153   9.867   5.317   8.210  4.1096  1.9745 -0.0913
    9MOL0     H 1154   9.804   5.454   8.028  0.6489 -1.1394  3.8044
    9MOL0     H 1155   9.803   5.302   7.935  2.0427  0.6312 -0.8700
    9MOL0     H 1156   9.633   5.205   8.062 -1.4074 -0.1605 -0.1548
    9MOL0     H 1157   9.623   5.348   8.172  1.2737  1.1189  0.1675
    9MOL0     H 1158   9.530   5.476   7.968 -0.6329  0.2767  1.0662
    9MOL0     H 1159   9.563   5.325   7.868  3.3253  1.8095 -0.1310
    9MOL0     H 1160   9.387   5.204   7.997 -1.4096  0.2577  0.6494
    9MOL0     H 1161   9.346   5.353   8.078 -2.4188  2.7324 -1.7709
    9MOL0     H 1162   9.329   5.472   7.848 -0.4722  0.2678 -3.1728
    9MOL0     H 1163   9.344   5.303   7.783  2.5192 -0.0114  0.4993
    9MOL0     H 1164   9.119   5.392   7.969 -0.5298  2.3225 -1.4513
    9MOL0     H 1165   9.147   5.228   7.917  1.1544  0.0690  2.3739
    9MOL0     H 1166   9.189   5.221   7.609 -2.4993 -2.5876 -1.1090
    9MOL0     H 1167   9.005   5.410   7.350 -1.3756 -0.4469 -1.2126
    9MOL0     H 1168   9.070   5.247   7.368 -0.4564 -0.5904  1.2361
    9MOL0     H 1169   8.778   5.325   7.405 -0.7854 -1.0519 -1.6911
    9MOL0     H 1170   8.848   5.161   7.417  0.9220 -2.2384 -1.7978
    9MOL0     H 1171   8.920   5.179   7.180  2.7196  0.8137  1.4224
    9MOL0     H 1172   8.871   5.342   7.171  0.8901 -0.6387 -0.0433
    9MOL0     H 1173   8.666   5.123   7.220 -0.5120  0.8460  0.8216
    9MOL0     H 1174   8.704   5.213   7.067  1.0901 -1.0643  0.1960
    9MOL0     H 1175   8.503   5.146   7.027  1.4283  2.6352 -1.9190
    9MOL0     H 1176   8.254   5.181   6.826  1.0747  0.8006  0.4007
    9MOL0     H 1177   8.325   5.046   6.925 -0.8222  0.0760  1.9964
    9MOL0     H 1178   8.155   5.098   6.925  0.0682 -0.4451  2.9711
    9MOL0     H 1179   7.799   5.016   7.085  0.7158 -0.4334  0.4154
    9MOL0     H 1180   7.568   5.015   7.037  3.3034 -0.6748  0.2019
    9MOL0     H 1181   7.377   5.396   6.905 -0.0917  0.0957 -1.3246
    9MOL0     H 1182   7.243   5.320   6.980 -0.1966  2.9310  0.5158
    9MOL0     H 1183   7.435   5.413   7.170  1.2706  0.9469 -2.0214
    9MOL0     H 1184   7.374   5.547   7.080  0.0965  0.1830  0.9192
    9MOL0     H 1185   7.274   5.521   7.290  1.9172  0.5537 -2.1520
    9MOL0     H 1186   7.218   5.355   7.275 -0.5057  0.3034  1.6749
    9MOL0     H 1187   7.100   5.583   7.111 -4.2047 -0.7219 -0.9789
    9MOL0     H 1188   7.067   5.416   7.072  0.0639 -0.0250 -0.4174
    9MOL0     H 1189   7.036   5.551   7.340  1.5024 -2.0483  0.8877
    9MOL0     H 1190   6.994   5.388   7.323 -1.1760 -0.2512 -0.6575
    9MOL0     H 1191   6.841   5.615   7.178  2.3548  0.6115 -0.5294
    9MOL0     H 1192   6.824   5.447   7.143  0.1547  2.6893 -1.2071
    9MOL0     H 1193   6.750   5.583   7.411  0.1868  1.2347 -2.1038
    9MOL0     H 1194   6.793   5.409   7.397  1.2788  0.1724 -0.7127
    9MOL0     H 1195   6.608   5.397   7.232 -1.5499  0.4630 -0.1813
    9MOL0     H 1196   6.594   5.567   7.234  0.9418  0.0781  1.1581
    9MOL0     H 1197   7.595   5.432   6.949  2.1976 -0.2855 -0.5725
    9MOL0     H 1198   7.833   5.427   6.976  1.4559 -0.3425  0.1610
    9MOL0     H 1199   8.190   5.449   7.261 -1.3253  2.7226 -2.6497
    9MOL0     H 1200   8.450   5.459   7.300  0.9777  1.1576 -0.5917
    9MOL0     H 1201  10.270   5.287   7.932 -0.4857  0.7654 -0.3772
    9MOL0     H 1202  10.507   5.340   7.958 -1.1894 -0.4614 -1.1573
    9MOL0     H 1203  10.955   5.067   8.027 -3.0231  1.0562  0.9064
    9MOL0     H 1204  11.190   5.095   8.075 -0.0148 -0.0832 -1.0816
    9MOL0     H 1205  11.361   5.464   8.198 -0.6814  1.1817  1.1393
    9MOL0     H 1206  11.303   5.416   8.359  1.0050 -0.4792  0.6161
    9MOL0     H 1207  11.502   5.284   8.407  2.3506  0.9690  1.9748
    9MOL0     H 1208  11.513   5.459   8.386  0.4555 -0.2525 -2.6598
    9MOL0     H 1209  11.607   5.422   8.167 -0.7883 -0.7087 -1.3988
    9MOL0     H 1210  11.556   5.250   8.161  1.5888 -0.7570  0.8282
    9MOL0     H 1211  11.729   5.173   8.294 -1.0347  0.1030  1.1063
    9MOL0     H 1212  11.742   5.326   8.384  2.7447  1.9484 -0.1324
    9MOL0     H 1213  12.008   5.382   8.065  0.9755 -0.3765 -0.0142
    9MOL0     H 1214  11.103   5.427   8.320  0.5846  0.9501 -1.7743
    9MOL0     H 1215  10.840   5.394   8.271 -3.2269 -1.3162 -1.9465
   10MOL0     O 1216   4.867  10.500   0.767  0.2315 -0.1771 -0.6197
   10MOL0     C 1217   4.886  10.486   0.888 -0.5057 -0.0380 -0.0298
   10MOL0     O 1218   4.807  10.416   0.973  0.8974  0.4698  0.4585
   10MOL0     C 1219   4.679  10.364   0.947  0.9807  0.5512 -0.2723
   10MOL0     C 1220   4.599  10.384   0.835 -0.0070 -0.6770  0.1069
   10MOL0     C 1221   4.474  10.326   0.836 -0.5722 -0.1818  0.9660
   10MOL0     C 1222   4.423  10.246   0.940  0.0054  0.1654 -0.1554
   10MOL0     O 1223   4.304  10.176   0.936  0.4276 -0.1567 -0.0284
   10MOL0     C 1224   4.234  10.191   0.813  0.6178 -0.1976 -0.8617
   10MOL0     C 1225   4.096  10.126   0.838  0.5205 -0.7222  0.6245
   10MOL0     C 1226   3.990  10.172   0.732 -0.3556  1.2282 -0.1817
   10MOL0     C 1227   3.868  10.079   0.752 -0.4544  0.2510 -1.1793
   10MOL0     C 1228   3.755  10.138   0.686 -0.0492 -0.0241 -0.0682
   10MOL0     C 1229   3.625  10.055   0.680  0.9420 -0.0229 -0.3187
   10MOL0     C 1230   3.502  10.147   0.651 -0.9635  0.3147  0.0767
   10MOL0     C 1231   3.384  10.050   0.629  0.2101  0.1174 -0.4426
   10MOL0     N 1232   3.264  10.122   0.581  0.3021  0.3856  0.1426
   10MOL0     C 1233   3.238  10.176   0.454  0.4261  0.0927 -0.0890
   10MOL0     C 1234   3.112  10.216   0.464 -0.5231 -0.5410  0.5271
   10MOL0     C 1235   3.038  10.277   0.346 -0.2136  0.1230 -0.1290
   10MOL0     C 1236   3.006  10.165   0.234 -0.1267  0.4240  0.1402
   10MOL0     C 1237   2.908  10.217   0.114 -0.4169 -0.1057  0.4900
   10MOL0     C 1238   2.751  10.203   0.148 -0.1445 -0.2623  0.1149
   10MOL0     O 1239   2.687  10.265   0.042 -0.0930  0.2108  0.1233
   10MOL0     C 1240   2.555  10.277   0.041  0.0217 -0.9508 -0.5203
   10MOL0     C 1241   2.497  10.302  -0.084 -0.5756  0.4657 -0.0665
   10MOL0     C 1242   2.367  10.312  -0.109  0.6118 -0.3803 -0.4320
   10MOL0     C 1243   2.328  10.308  -0.260  0.2728 -0.1275 -0.6636
   10MOL0     C 1244   2.277  10.314  -0.000 -0.9485  0.1680 -0.4475
   10MOL0     C 1245   2.129  10.303  -0.012 -0.3841 -0.4188 -0.4879
   10MOL0     O 1246   2.060  10.294  -0.131  0.7081  0.0053 -0.2568
   10MOL0     C 1247   1.926  10.256  -0.141  0.6043  0.3890 -0.1013
   10MOL0     C 1248   1.885  10.146  -0.213 -0.1389  0.7340 -0.4083
   10MOL0     C 1249   1.750  10.116  -0.236 -0.0156  0.8377 -0.7293
   10MOL0     C 1250   1.651  10.192  -0.176  0.1375 -0.2564  0.4435
   10MOL0     O 1251   1.518  10.164  -0.194 -0.2902 -0.6103 -0.1303
   10MOL0     C 1252   1.460  10.051  -0.127 -0.0197  0.3273  0.3027
   10MOL0     C 1253   1.312  10.055  -0.162  0.4671  0.0036  0.7765
   10MOL0     C 1254   1.224  10.176  -0.119 -0.6474 -0.4355 -0.1196
   10MOL0     C 1255   1.077  10.149  -0.146 -0.1540 -0.2665 -0.2240
   10MOL0     C 1256   1.002  10.281  -0.108  0.0549  0.4936 -0.4647
   10MOL0     C 1257   0.848  10.267  -0.092  0.7104  0.3991 -0.2790
   10MOL0     C 1258   0.802  10.243   0.052 -1.0266 -0.7420 -0.5510
   10MOL0     C 1259   0.763  10.368   0.128 -0.2842 -0.1620 -0.4973
   10MOL0    Cl 1260   0.655  10.494   0.038  0.0969 -0.1510 -0.6660
   10MOL0     C 1261   1.686  10.302  -0.099 -0.3093 -0.1457 -0.4566
   10MOL0     C 1262   1.822  10.344  -0.094  0.4556 -0.2419 -0.9375
   10MOL0     O 1263   2.075  10.306   0.101 -0.5362 -1.2204 -0.1107
   10MOL0     C 1264   2.335  10.299   0.131 -0.1172 -0.1355 -0.9628
   10MOL0     C 1265   2.472  10.273   0.156  0.1543  0.2569  0.5185
   10MOL0     N 1266   3.059  10.181   0.587 -0.0632  0.0007  0.7364
   10MOL0     N 1267   3.149  10.117   0.656 -0.2141 -0.7344  0.0729
   10MOL0     C 1268   4.505  10.229   1.048  0.5126 -0.6326 -1.2198
   10MOL0     C 1269   4.628  10.292   1.053 -0.0726 -0.1268 -0.7616
   10MOL0     C 1270   5.012  10.540   0.938 -0.3497 -1.0919 -0.5924
   10MOL0     C 1271   5.046  10.527   1.074  0.0436  0.3503 -0.0976
   10MOL0     C 1272   5.176  10.556   1.114  0.2017  0.4091  0.3898
   10MOL0     C 1273   5.260  10.627   1.025  0.7774  0.5582  0.7739
   10MOL0     O 1274   5.389  10.659   1.064 -0.0682 -0.4609  0.1349
   10MOL0     C 1275   5.472  10.572   1.145  1.0506 -0.0082 -0.3933
   10MOL0     C 1276   5.576  10.645   1.234 -0.3353  0.4450  0.2941
   10MOL0     C 1277   5.661  10.728   1.133  0.7570 -0.3981 -0.0476
   10MOL0     C 1278   5.751  10.826   1.204 -0.6444 -0.4586 -0.7571
   10MOL0     C 1279   5.665  10.948   1.238 -0.5985 -0.2385  0.4032
   10MOL0     C 1280   5.597  11.048   1.263  0.6151 -0.0825 -0.1183
   10MOL0     C 1281   5.222  10.653   0.890 -0.6176  0.0986  0.2578
   10MOL0     C 1282   5.100  10.604   0.848 -0.1364 -0.0980 -0.2879
   10MOL0     H 1283   4.631  10.432   0.744 -1.6310  1.3407  0.5209
   10MOL0     H 1284   4.420  10.338   0.743  1.1417 -0.8099 -0.1483
   10MOL0     H 1285   4.221  10.298   0.792 -0.8622 -0.2569 -0.3331
   10MOL0     H 1286   4.288  10.132   0.737  0.9962 -1.6353  0.4728
   10MOL0     H 1287   4.088  10.018   0.823 -1.3727 -0.3392 -1.8157
   10MOL0     H 1288   4.061  10.141   0.941 -1.8059  1.6905 -0.3914
   10MOL0     H 1289   3.972  10.279   0.743 -0.3223  1.1141  1.1418
   10MOL0     H 1290   4.025  10.143   0.632  1.5499 -0.5986  0.9250
   10MOL0     H 1291   3.882   9.977   0.716  0.2933 -0.6566  1.4770
   10MOL0     H 1292   3.845  10.075   0.859 -0.6453 -1.1413 -1.2478
   10MOL0     H 1293   3.726  10.236   0.726 -2.1259 -1.3158  1.8826
   10MOL0     H 1294   3.779  10.149   0.580  1.2860  0.0503  0.2167
   10MOL0     H 1295   3.646   9.981   0.603  2.2482  1.5184 -1.5063
   10MOL0     H 1296   3.616  10.006   0.777  0.9516  2.1139  0.8190
   10MOL0     H 1297   3.477  10.222   0.727 -1.3447 -1.0144  1.3206
   10MOL0     H 1298   3.521  10.204   0.560  0.1572  0.2148  0.2442
   10MOL0     H 1299   3.370   9.999   0.725  0.4815  0.3470 -0.2788
   10MOL0     H 1300   3.395   9.971   0.554  0.2339 -0.2136 -0.0976
   10MOL0     H 1301   3.301  10.161   0.367  2.0933  0.1959  1.0486
   10MOL0     H 1302   2.944  10.321   0.381  0.6743  1.4754  0.6717
   10MOL0     H 1303   3.094  10.353   0.291  2.7476 -1.7680  0.0801
   10MOL0     H 1304   2.960  10.083   0.289  0.3460 -0.7703 -1.2153
   10MOL0     H 1305   3.101  10.134   0.190 -0.7046 -0.8179 -0.2534
   10MOL0     H 1306   2.932  10.165   0.021 -1.1078  2.2550 -1.1100
   10MOL0     H 1307   2.932  10.323   0.101 -0.5232  0.2081  2.5081
   10MOL0     H 1308   2.729  10.245   0.247  3.2971 -1.0004  1.3302
   10MOL0     H 1309   2.719  10.098   0.148  0.7159 -0.5307  0.5843
   10MOL0     H 1310   2.563  10.313  -0.169  1.2932 -0.7256  1.1559
   10MOL0     H 1311   2.287  10.409  -0.260 -1.1410 -0.5514  2.7191
   10MOL0     H 1312   2.404  10.291  -0.337  1.9549  0.2916  0.8342
   10MOL0     H 1313   2.244  10.239  -0.277 -1.7071  2.2200 -0.8880
   10MOL0     H 1314   1.963  10.081  -0.254  2.2240  2.9172  0.3600
   10MOL0     H 1315   1.728  10.027  -0.295 -0.8916 -0.2903  1.1912
   10MOL0     H 1316   1.502   9.960  -0.173 -2.8471 -0.8559 -0.1115
   10MOL0     H 1317   1.473  10.051  -0.019 -0.2586  0.8882  0.3302
   10MOL0     H 1318   1.304  10.053  -0.271 -0.3986  1.5279  0.7798
   10MOL0     H 1319   1.268   9.964  -0.119  0.6718 -0.6758 -0.4002
   10MOL0     H 1320   1.257  10.268  -0.168  0.3687 -0.3959  0.5971
   10MOL0     H 1321   1.252  10.207  -0.018 -0.1908 -0.0531 -0.3600
   10MOL0     H 1322   1.061  10.130  -0.252 -2.2303  0.3655 -0.0733
   10MOL0     H 1323   1.039  10.060  -0.094 -0.3388 -0.1952 -0.2348
   10MOL0     H 1324   1.027  10.346  -0.192  2.1828 -0.6449 -0.7942
   10MOL0     H 1325   1.051  10.318  -0.018 -0.3968 -2.3839  1.0792
   10MOL0     H 1326   0.797  10.354  -0.135  0.9954  0.0068 -1.4401
   10MOL0     H 1327   0.810  10.190  -0.160  2.1058  0.9058 -1.6850
   10MOL0     H 1328   0.872  10.178   0.105 -0.2564 -1.2470 -2.1221
   10MOL0     H 1329   0.710  10.183   0.043 -2.5413  0.8126  2.8810
   10MOL0     H 1330   0.854  10.424   0.152  1.1363 -2.3664 -0.5124
   10MOL0     H 1331   0.712  10.344   0.222 -3.8246  1.7487 -1.7369
   10MOL0     H 1332   1.611  10.364  -0.050  0.9794 -0.9435  2.8141
   10MOL0     H 1333   1.852  10.423  -0.026  1.3515 -1.0279 -0.4027
   10MOL0     H 1334   2.268  10.294   0.216  0.0575  2.1096 -0.6363
   10MOL0     H 1335   2.495  10.243   0.258 -0.9644 -0.9211  0.4557
   10MOL0     H 1336   4.466  10.164   1.125  2.4304  0.4926  0.8389
   10MOL0     H 1337   4.686  10.280   1.144 -0.0844 -0.6628 -0.8227
   10MOL0     H 1338   4.970  10.495   1.144  0.2331 -2.6113 -1.1014
   10MOL0     H 1339   5.203  10.526   1.214 -1.0516 -1.4846  0.2331
   10MOL0     H 1340   5.409  10.519   1.217 -0.1176  2.5440  0.5858
   10MOL0     H 1341   5.518  10.497   1.080  0.0500  0.5628 -1.8269
   10MOL0     H 1342   5.638  10.573   1.288 -0.4220  1.5624  1.9473
   10MOL0     H 1343   5.519  10.705   1.305 -1.9030  0.0406 -0.5807
   10MOL0     H 1344   5.589  10.789   1.078  0.5657 -1.4560 -0.9957
   10MOL0     H 1345   5.715  10.670   1.058 -3.1683 -2.7225 -1.3862
   10MOL0     H 1346   5.826  10.864   1.133 -0.2895 -1.9801 -1.2306
   10MOL0     H 1347   5.801  10.776   1.287 -1.6670 -1.1830 -0.5485
   10MOL0     H 1348   5.539  11.137   1.274 -0.3003 -0.6470 -0.2389
   10MOL0     H 1349   5.284  10.716   0.828  1.4553 -1.9051  0.1339
   10MOL0     H 1350   5.074  10.622   0.744 -0.1863  0.1012 -0.2396
   11MOL0     O 1351   9.687   2.308   2.353  0.3961  0.5667 -0.4915
   11MOL0     C 1352   9.676   2.368   2.244  0.5268  0.3219 -0.5088
   11MOL0     O 1353   9.565   2.428   2.208  1.8295  0.1744 -0.6119
   11MOL0     C 1354   9.457   2.463   2.290  0.3196  0.4261  0.2873
   11MOL0     C 1355   9.334   2.487   2.221  0.0849  0.8293  0.2320
   11MOL0     C 1356   9.214   2.526   2.296 -0.1411 -0.1867  0.9326
   11MOL0     C 1357   9.230   2.560   2.433 -0.2437  0.7653  0.4591
   11MOL0     O 1358   9.116   2.614   2.484  0.0424  0.1825 -0.4648
   11MOL0     C 1359   9.126   2.659   2.621 -0.0205  0.3995  0.5653
   11MOL0     C 1360   8.991   2.684   2.673 -0.1816 -0.2248 -0.8953
   11MOL0     C 1361   8.924   2.546   2.726 -0.0706 -0.6052 -0.4725
   11MOL0     C 1362   8.803   2.580   2.819 -0.5742  0.3199  0.3139
   11MOL0     C 1363   8.726   2.449   2.848 -0.0818 -0.0948 -0.8720
   11MOL0     C 1364   8.574   2.492   2.863  0.2093 -0.4498 -0.0917
   11MOL0     C 1365   8.534   2.609   2.958  0.5473 -0.3960  0.1676
   11MOL0     C 1366   8.380   2.606   2.989 -0.4097 -0.1546  0.4644
   11MOL0     N 1367   8.335   2.713   3.085 -0.5528  0.1622  0.0169
   11MOL0     C 1368   8.279   2.704   3.210 -0.6292 -1.4855  0.2430
   11MOL0     C 1369   8.235   2.832   3.235  0.0343  0.6331  0.6859
   11MOL0     C 1370   8.170   2.882   3.356  0.0208 -0.6718 -0.1889
   11MOL0     C 1371   8.038   2.967   3.327  0.4805 -0.7690  0.1795
   11MOL0     C 1372   7.968   3.025   3.458  0.1942  0.7193  0.0522
   11MOL0     C 1373   7.833   3.106   3.440  0.8011 -0.3803 -0.8141
   11MOL0     O 1374   7.832   3.198   3.329  0.0301  0.8597 -0.5932
   11MOL0     C 1375   7.714   3.273   3.325 -0.4215 -0.1831  0.7622
   11MOL0     C 1376   7.623   3.242   3.231 -0.1829  0.0244  0.7295
   11MOL0     C 1377   7.503   3.304   3.210  0.0810  0.2623  0.0618
   11MOL0     C 1378   7.407   3.259   3.107  0.2673  0.2191  0.4608
   11MOL0     C 1379   7.476   3.422   3.296 -0.0538  0.1071 -0.3204
   11MOL0     C 1380   7.356   3.503   3.286  0.8906  0.3962  0.5581
   11MOL0     O 1381   7.280   3.500   3.176 -0.5812 -0.3194 -0.1870
   11MOL0     C 1382   7.157   3.561   3.195 -0.0573  0.8378  0.5253
   11MOL0     C 1383   7.130   3.698   3.191  0.5825 -0.0718  0.3100
   11MOL0     C 1384   6.997   3.741   3.200 -0.1680  0.2378 -0.8184
   11MOL0     C 1385   6.889   3.648   3.206 -0.0069 -0.1903  0.2118
   11MOL0     O 1386   6.753   3.692   3.199 -0.9844 -0.1911  0.6942
   11MOL0     C 1387   6.716   3.831   3.186 -0.1068 -0.8407 -0.4500
   11MOL0     C 1388   6.563   3.846   3.157  0.1715  0.6963 -0.4109
   11MOL0     C 1389   6.535   3.769   3.023  0.0130 -0.5706  0.1655
   11MOL0     C 1390   6.429   3.850   2.942 -0.0166 -0.1226  0.2750
   11MOL0     C 1391   6.428   3.791   2.803 -0.6001  0.1020  1.3476
   11MOL0     C 1392   6.305   3.844   2.713 -0.4112  0.1034  0.5301
   11MOL0     C 1393   6.171   3.773   2.757 -0.9807  0.1164 -0.5446
   11MOL0     C 1394   6.070   3.823   2.665  1.4457 -0.0887 -0.5447
   11MOL0    Cl 1395   5.899   3.772   2.720 -0.1955  0.2353  0.2260
   11MOL0     C 1396   6.918   3.514   3.210  0.1595  0.3153 -0.2763
   11MOL0     C 1397   7.050   3.470   3.201  0.6307  0.2131 -0.2975
   11MOL0     O 1398   7.328   3.571   3.387 -0.2003 -0.0717 -1.2774
   11MOL0     C 1399   7.575   3.456   3.395 -0.4963 -0.0691  0.2521
   11MOL0     C 1400   7.695   3.387   3.412  0.5187  0.9075  0.2284
   11MOL0     N 1401   8.261   2.912   3.120 -0.1328  0.0744  0.3409
   11MOL0     N 1402   8.319   2.832   3.029  0.4021 -0.6877  0.4946
   11MOL0     C 1403   9.361   2.541   2.492 -0.3070  0.6811  0.7186
   11MOL0     C 1404   9.470   2.493   2.423 -0.1195 -0.1781 -0.4022
   11MOL0     C 1405   9.791   2.391   2.157 -0.5399 -0.0663 -0.2730
   11MOL0     C 1406   9.769   2.439   2.025  0.0738 -0.4686  0.2582
   11MOL0     C 1407   9.865   2.444   1.932 -0.1996  0.8161 -0.0872
   11MOL0     C 1408  10.002   2.409   1.964  0.2393 -0.9118  0.1770
   11MOL0     O 1409  10.108   2.421   1.878  0.6063 -0.7442 -0.1106
   11MOL0     C 1410  10.094   2.339   1.763 -0.1996 -0.1162  0.3672
   11MOL0     C 1411  10.147   2.200   1.790 -0.3353  0.5345 -0.5805
   11MOL0     C 1412  10.190   2.137   1.657  0.8233  1.3122  0.2141
   11MOL0     C 1413  10.234   1.991   1.677 -0.1504 -0.0810 -0.0590
   11MOL0     C 1414  10.273   1.940   1.543  0.7147  0.3643  0.2918
   11MOL0     C 1415  10.314   1.912   1.430  0.9183  0.7268 -0.1411
   11MOL0     C 1416  10.024   2.365   2.094  0.0913  0.9572  0.5769
   11MOL0     C 1417   9.923   2.355   2.195 -0.3384  0.1786 -0.4999
   11MOL0     H 1418   9.329   2.474   2.114  1.1206  1.4652  0.0980
   11MOL0     H 1419   9.115   2.543   2.255 -1.1859 -4.0333  1.5139
   11MOL0     H 1420   9.175   2.573   2.669  0.9842 -0.5561 -2.0280
   11MOL0     H 1421   9.196   2.742   2.630  0.0900  0.6449 -1.8978
   11MOL0     H 1422   9.007   2.748   2.760 -2.7499 -1.0244  0.2587
   11MOL0     H 1423   8.922   2.732   2.602 -0.8196 -1.2535 -0.9929
   11MOL0     H 1424   8.896   2.483   2.642 -0.7813 -2.7681  1.2869
   11MOL0     H 1425   9.002   2.491   2.780  0.5712  0.0506 -0.7050
   11MOL0     H 1426   8.832   2.630   2.912 -1.4316  0.5445  0.4666
   11MOL0     H 1427   8.740   2.646   2.758 -1.2915 -0.1011  0.5895
   11MOL0     H 1428   8.740   2.380   2.764 -1.5569  1.0462 -2.1072
   11MOL0     H 1429   8.766   2.406   2.940  1.2657  0.6159 -1.0985
   11MOL0     H 1430   8.529   2.518   2.767  0.6730 -1.0603 -0.4833
   11MOL0     H 1431   8.536   2.402   2.912 -1.1962 -0.0949 -0.4790
   11MOL0     H 1432   8.589   2.589   3.050  0.4342 -1.0668  0.0962
   11MOL0     H 1433   8.563   2.705   2.915  0.0421  0.6368  2.0424
   11MOL0     H 1434   8.362   2.508   3.035  1.7524 -0.2610  1.2267
   11MOL0     H 1435   8.335   2.623   2.891  0.9563  3.1671  0.2925
   11MOL0     H 1436   8.276   2.623   3.283 -0.0759 -0.2181  1.7324
   11MOL0     H 1437   8.142   2.801   3.424  0.0364  1.2697  2.2762
   11MOL0     H 1438   8.219   2.952   3.424 -2.1036 -1.8786  2.8387
   11MOL0     H 1439   7.970   2.912   3.263  2.1312  1.0297 -3.3778
   11MOL0     H 1440   8.073   3.048   3.263 -0.4351 -0.5856 -0.0956
   11MOL0     H 1441   8.033   3.094   3.514  0.3059  0.0180  0.8046
   11MOL0     H 1442   7.942   2.944   3.527  0.4275  1.4960  1.0750
   11MOL0     H 1443   7.829   3.162   3.534  4.7991  1.3121 -1.4531
   11MOL0     H 1444   7.744   3.045   3.423 -0.5124  1.5310 -1.0769
   11MOL0     H 1445   7.641   3.146   3.183 -0.3722  1.2311 -1.9662
   11MOL0     H 1446   7.426   3.151   3.096 -2.7957 -0.5506  1.4993
   11MOL0     H 1447   7.306   3.263   3.149  0.4940  0.1736  1.0106
   11MOL0     H 1448   7.417   3.306   3.009 -0.8070  0.1552  0.3044
   11MOL0     H 1449   7.215   3.764   3.177  1.0210 -0.3644  1.4980
   11MOL0     H 1450   6.977   3.847   3.202 -1.3710  0.0248  0.9544
   11MOL0     H 1451   6.752   3.891   3.270 -0.2017 -0.3867 -0.7310
   11MOL0     H 1452   6.774   3.877   3.105  2.8553  1.8778  2.8673
   11MOL0     H 1453   6.510   3.816   3.247  0.2398  1.9343  0.0692
   11MOL0     H 1454   6.547   3.952   3.134 -1.3047  0.1997 -1.8410
   11MOL0     H 1455   6.510   3.667   3.054  3.3445 -1.4074  0.4773
   11MOL0     H 1456   6.627   3.760   2.964  0.4602 -4.4790  1.1904
   11MOL0     H 1457   6.337   3.838   3.001  0.3648 -0.5414  0.7977
   11MOL0     H 1458   6.462   3.954   2.942  2.0493 -0.7171  1.6453
   11MOL0     H 1459   6.432   3.681   2.808 -1.5633  0.0509  1.2049
   11MOL0     H 1460   6.514   3.828   2.746 -0.4959  2.2727  2.8287
   11MOL0     H 1461   6.299   3.953   2.716  0.7144  0.2448 -1.2665
   11MOL0     H 1462   6.340   3.814   2.614  1.0045 -4.2656  2.1138
   11MOL0     H 1463   6.147   3.788   2.863  1.0257 -0.2613  0.0002
   11MOL0     H 1464   6.189   3.665   2.753 -0.1713  0.1442  1.1774
   11MOL0     H 1465   6.094   3.795   2.562 -0.2869 -0.3682 -0.9130
   11MOL0     H 1466   6.076   3.932   2.676  2.4236 -0.4042  2.8690
   11MOL0     H 1467   6.836   3.443   3.207  1.0830 -1.1469  3.4438
   11MOL0     H 1468   7.082   3.366   3.208  0.2511  0.0992 -0.2684
   11MOL0     H 1469   7.565   3.545   3.456  1.9769  0.5352 -0.1071
   11MOL0     H 1470   7.764   3.412   3.492  1.2623 -0.4610  0.0495
   11MOL0     H 1471   9.384   2.569   2.594  2.2295 -0.9093  0.6691
   11MOL0     H 1472   9.563   2.461   2.470 -0.6794 -0.7669  0.3402
   11MOL0     H 1473   9.668   2.456   1.991 -0.9332 -2.2193  2.1699
   11MOL0     H 1474   9.829   2.468   1.833 -0.8095 -1.0978 -0.3825
   11MOL0     H 1475   9.997   2.339   1.713  1.1057 -0.8284 -2.4338
   11MOL0     H 1476  10.152   2.382   1.680 -2.6661 -1.8407 -2.4640
   11MOL0     H 1477  10.074   2.133   1.836  0.0560  0.5721  0.1073
   11MOL0     H 1478  10.224   2.209   1.867 -1.4171  0.1904  0.5838
   11MOL0     H 1479  10.277   2.190   1.620  0.5731  0.8249 -1.1121
   11MOL0     H 1480  10.100   2.132   1.594  1.3225 -3.2373 -0.5056
   11MOL0     H 1481  10.148   1.932   1.711 -0.7278  1.0579  0.4906
   11MOL0     H 1482  10.318   1.982   1.747  0.1929  0.4521 -0.4032
   11MOL0     H 1483  10.351   1.894   1.331 -0.9075  2.5971 -1.2523
   11MOL0     H 1484  10.123   2.337   2.130 -0.5988 -1.5379  0.6958
   11MOL0     H 1485   9.951   2.301   2.285 -0.5534 -0.9445 -1.0916
   12MOL0     O 1486   1.613  10.791  11.214  0.8671 -0.2229 -0.9362
   12MOL0     C 1487   1.606  10.716  11.119  0.5973  0.2945  0.0944
   12MOL0     O 1488   1.489  10.640  11.080  1.0116 -0.0871 -0.4000
   12MOL0     C 1489   1.378  10.668  11.151 -0.3151  0.3686 -0.3601
   12MOL0     C 1490   1.310  10.568  11.220 -0.6395  0.6210  0.1143
   12MOL0     C 1491   1.192  10.589  11.285  0.9690 -0.3300 -0.2648
   12MOL0     C 1492   1.126  10.713  11.278  0.0226  0.5625 -0.2323
   12MOL0     O 1493   1.016  10.723  11.353  0.3577 -0.7867  0.2313
   12MOL0     C 1494   0.952  10.854  11.380 -0.4188  0.1580  0.0933
   12MOL0     C 1495   0.826  10.835  11.457  0.1251  0.8414  0.5702
   12MOL0     C 1496   0.837  10.744  11.581 -0.2516  0.3780  0.4400
   12MOL0     C 1497   0.706  10.693  11.641  0.2781  0.2982 -0.4404
   12MOL0     C 1498   0.621  10.798  11.727  0.1307  0.2285 -0.0532
   12MOL0     C 1499   0.517  10.745  11.826  0.2268 -0.3829  0.0091
   12MOL0     C 1500   0.408  10.658  11.753 -1.0738 -1.0616 -0.1551
   12MOL0     C 1501   0.276  10.645  11.832 -0.3789  0.2660  0.4881
   12MOL0     N 1502   0.202  10.774  11.821 -0.3710  0.4911  0.4443
   12MOL0     C 1503   0.109  10.810  11.726 -0.4847  0.5091  0.3504
   12MOL0     C 1504   0.062  10.927  11.775  0.2890 -0.3686  0.0913
   12MOL0     C 1505  -0.047  11.013  11.712 -0.1823  0.1632  1.3143
   12MOL0     C 1506  -0.188  10.968  11.745 -0.4920 -0.7248 -0.0890
   12MOL0     C 1507  -0.209  10.885  11.872 -0.7046 -0.2981 -0.3305
   12MOL0     C 1508  -0.358  10.853  11.918 -1.0960  0.5857  0.1279
   12MOL0     O 1509  -0.430  10.973  11.924 -0.1085  0.5120 -1.1946
   12MOL0     C 1510  -0.570  10.965  11.917 -0.2228 -0.1194 -0.0339
   12MOL0     C 1511  -0.644  10.848  11.916  0.9760 -1.0850  0.3741
   12MOL0     C 1512  -0.780  10.859  11.908  0.3648  0.4501  0.2642
   12MOL0     C 1513  -0.852  10.728  11.919  0.3062  0.2530 -0.4720
   12MOL0     C 1514  -0.854  10.978  11.900 -0.0709  0.4379 -0.7068
   12MOL0     C 1515  -0.999  10.985  11.873  0.2232 -0.3879 -0.5369
   12MOL0     O 1516  -1.064  11.075  11.949  0.3961  0.2405 -0.0060
   12MOL0     C 1517  -1.194  11.104  11.927  0.2198 -0.0363 -0.3604
   12MOL0     C 1518  -1.252  11.135  11.804 -0.7102 -0.5600  0.8292
   12MOL0     C 1519  -1.393  11.155  11.782 -0.6256  0.2778 -0.2751
   12MOL0     C 1520  -1.468  11.158  11.895  0.1857  0.5267 -0.0354
   12MOL0     O 1521  -1.604  11.190  11.898  0.1945  0.4865 -0.0443
   12MOL0     C 1522  -1.683  11.252  11.793 -0.5934  0.3795 -0.7633
   12MOL0     C 1523  -1.827  11.270  11.827  0.5131 -0.9123 -0.0114
   12MOL0     C 1524  -1.844  11.378  11.929  0.2669  0.6452  0.7994
   12MOL0     C 1525  -1.984  11.427  11.952 -0.1411  0.8697  0.5178
   12MOL0     C 1526  -1.992  11.497  12.083  0.3119 -0.0825  0.1947
   12MOL0     C 1527  -2.133  11.548  12.127 -0.9305  0.0560 -0.6329
   12MOL0     C 1528  -2.218  11.592  12.014 -0.5162  0.0221 -0.5664
   12MOL0     C 1529  -2.348  11.661  12.064  0.1984 -0.0110  0.6522
   12MOL0    Cl 1530  -2.443  11.750  11.943 -0.1946  0.3570 -0.2371
   12MOL0     C 1531  -1.412  11.138  12.020  0.3620  0.3879 -0.0345
   12MOL0     C 1532  -1.277  11.109  12.037 -0.1101  0.8649 -0.0906
   12MOL0     O 1533  -1.046  10.914  11.787  0.2500 -0.0731 -0.4223
   12MOL0     C 1534  -0.776  11.090  11.909  0.3122 -0.3397  0.7576
   12MOL0     C 1535  -0.638  11.087  11.917 -0.1316 -0.0520  0.1096
   12MOL0     N 1536   0.134  10.965  11.885 -0.3606  0.0211  0.1846
   12MOL0     N 1537   0.214  10.871  11.917 -0.5045  0.2261  0.6786
   12MOL0     C 1538   1.188  10.804  11.199 -0.5184 -0.2136 -0.2186
   12MOL0     C 1539   1.311  10.789  11.147 -0.4819 -0.1317 -0.3607
   12MOL0     C 1540   1.729  10.695  11.037 -0.2683  0.1782 -0.5092
   12MOL0     C 1541   1.741  10.576  10.963 -0.3910  0.6028 -0.7453
   12MOL0     C 1542   1.856  10.553  10.880  0.1242  0.3884 -0.0775
   12MOL0     C 1543   1.956  10.654  10.873  0.2984  0.2606 -0.5224
   12MOL0     O 1544   2.076  10.651  10.810 -0.0926 -1.2797 -0.3051
   12MOL0     C 1545   2.096  10.538  10.727 -0.4964  0.5304  0.6177
   12MOL0     C 1546   2.232  10.550  10.649  0.2424  0.5183 -0.5552
   12MOL0     C 1547   2.222  10.466  10.517  0.5329 -0.3180 -0.4447
   12MOL0     C 1548   2.350  10.464  10.422 -0.2560 -0.7813 -0.9972
   12MOL0     C 1549   2.321  10.384  10.307 -0.1876  0.1551 -0.4398
   12MOL0     C 1550   2.280  10.313  10.217 -0.5175 -0.1942 -0.2151
   12MOL0     C 1551   1.932  10.769  10.943 -0.4021 -0.0397 -0.5112
   12MOL0     C 1552   1.829  10.791  11.033 -0.0552 -0.1237 -0.2812
   12MOL0     H 1553   1.353  10.469  11.229 -0.3335  0.7465  0.0541
   12MOL0     H 1554   1.149  10.514  11.350 -0.7232  2.0238  1.4937
   12MOL0     H 1555   1.027  10.918  11.428  1.8188 -2.4422  0.3316
   12MOL0     H 1556   0.918  10.903  11.289  0.2477 -1.0575 -0.8393
   12MOL0     H 1557   0.773  10.928  11.480 -1.2927 -0.4994  3.3489
   12MOL0     H 1558   0.762  10.780  11.388 -0.4534  1.3965  0.6500
   12MOL0     H 1559   0.893  10.653  11.557  1.0350  0.6390  2.2325
   12MOL0     H 1560   0.892  10.790  11.664  3.2591 -2.6409  0.0578
   12MOL0     H 1561   0.641  10.647  11.566 -2.1943  0.5722  1.4045
   12MOL0     H 1562   0.732  10.607  11.704 -3.7646 -3.0556 -2.8044
   12MOL0     H 1563   0.686  10.856  11.793 -0.5544 -0.3811  1.1779
   12MOL0     H 1564   0.574  10.878  11.668  2.9199  0.5201 -2.0775
   12MOL0     H 1565   0.566  10.680  11.900 -1.9849 -0.2596  1.6787
   12MOL0     H 1566   0.480  10.841  11.863  3.3728  0.5869  0.9368
   12MOL0     H 1567   0.378  10.694  11.655 -1.3119 -1.8084 -0.3656
   12MOL0     H 1568   0.450  10.559  11.734 -2.4846 -1.8408  0.5942
   12MOL0     H 1569   0.301  10.619  11.935  1.2798  1.0200  0.3165
   12MOL0     H 1570   0.221  10.560  11.791 -0.3583  1.5553 -2.4752
   12MOL0     H 1571   0.080  10.752  11.639  3.6980  0.4800 -1.2432
   12MOL0     H 1572  -0.027  11.119  11.732  0.8654 -0.3251  3.1726
   12MOL0     H 1573  -0.039  11.000  11.604  1.4308  2.7740  1.0347
   12MOL0     H 1574  -0.220  10.907  11.661  1.1314 -0.2637 -1.0694
   12MOL0     H 1575  -0.253  11.057  11.743  0.8756  0.2985 -0.5555
   12MOL0     H 1576  -0.158  10.933  11.957  2.4702 -0.8530 -1.7610
   12MOL0     H 1577  -0.150  10.793  11.863  0.5367  0.3189  0.9882
   12MOL0     H 1578  -0.355  10.806  12.017 -3.9855 -0.8334 -0.3318
   12MOL0     H 1579  -0.397  10.780  11.846 -0.4887 -0.0186  0.4025
   12MOL0     H 1580  -0.593  10.754  11.936 -0.2177 -1.7383  0.4270
   12MOL0     H 1581  -0.934  10.729  11.992  1.1905 -1.4059  0.6005
   12MOL0     H 1582  -0.893  10.699  11.822 -0.5682 -4.2669  1.0053
   12MOL0     H 1583  -0.792  10.643  11.953 -0.6231 -0.2474 -0.0490
   12MOL0     H 1584  -1.178  11.148  11.725 -1.3272  2.4927  0.6384
   12MOL0     H 1585  -1.425  11.184  11.682  0.1823  2.6623  0.1034
   12MOL0     H 1586  -1.639  11.347  11.763  0.6017 -0.5394 -2.0229
   12MOL0     H 1587  -1.660  11.192  11.704 -1.9855 -0.7164 -0.4442
   12MOL0     H 1588  -1.894  11.294  11.744 -0.5514 -1.3314  0.7065
   12MOL0     H 1589  -1.866  11.176  11.867 -0.8344  0.5660  2.3905
   12MOL0     H 1590  -1.789  11.469  11.903 -1.2265  1.0729 -1.1548
   12MOL0     H 1591  -1.814  11.326  12.021 -2.5377 -2.8790 -0.0264
   12MOL0     H 1592  -2.017  11.495  11.874 -1.8482  0.7504  1.0911
   12MOL0     H 1593  -2.052  11.342  11.959  0.7664  0.0758 -0.0669
   12MOL0     H 1594  -1.919  11.578  12.083  0.4942 -0.2348 -0.4420
   12MOL0     H 1595  -1.963  11.429  12.164 -1.1038 -1.6814 -0.5818
   12MOL0     H 1596  -2.189  11.471  12.180  0.2195  1.3643  2.7046
   12MOL0     H 1597  -2.115  11.630  12.197 -1.8136 -0.3040  0.0185
   12MOL0     H 1598  -2.250  11.505  11.955  0.7941 -0.2182 -0.9373
   12MOL0     H 1599  -2.151  11.647  11.947  1.4896 -1.9734 -0.3018
   12MOL0     H 1600  -2.315  11.734  12.139  3.5882  1.5347 -2.0360
   12MOL0     H 1601  -2.413  11.587  12.112 -0.7768 -1.0254 -2.0341
   12MOL0     H 1602  -1.471  11.142  12.111  0.7256 -0.7656  0.2638
   12MOL0     H 1603  -1.240  11.091  12.137  0.3941  1.1892 -0.2159
   12MOL0     H 1604  -0.825  11.188  11.911  0.1091 -0.3742 -0.9984
   12MOL0     H 1605  -0.577  11.175  11.932  0.6771 -0.5082 -0.4609
   12MOL0     H 1606   1.152  10.903  11.172  0.3720 -0.3862 -2.2166
   12MOL0     H 1607   1.349  10.869  11.084 -1.0156 -1.0719 -1.9441
   12MOL0     H 1608   1.670  10.493  10.967  0.0003  0.2588 -0.8478
   12MOL0     H 1609   1.863  10.454  10.837 -2.7107  0.7627 -1.6313
   12MOL0     H 1610   2.095  10.444  10.784  3.0328 -0.9554 -1.4925
   12MOL0     H 1611   2.018  10.535  10.650  1.0648  1.4766 -1.0746
   12MOL0     H 1612   2.316  10.514  10.708  0.6943  2.7522  0.2583
   12MOL0     H 1613   2.256  10.656  10.635 -0.9973  0.8113 -0.5686
   12MOL0     H 1614   2.156  10.529  10.457  1.4123  2.2187  1.0888
   12MOL0     H 1615   2.185  10.364  10.523  0.3853 -0.2913 -0.8738
   12MOL0     H 1616   2.444  10.442  10.474 -0.1767  0.3267 -0.6495
   12MOL0     H 1617   2.357  10.568  10.391 -1.9768 -0.2394  0.2487
   12MOL0     H 1618   2.223  10.259  10.145  1.7761 -1.4483 -1.2138
   12MOL0     H 1619   2.012  10.842  10.944 -0.7240  0.3577  1.5976
   12MOL0     H 1620   1.840  10.879  11.095  0.5473  1.0269 -1.9649
   13MOL0     O 1621   8.116   2.251   3.027 -0.4533  0.1401  0.2534
   13MOL0     C 1622   8.206   2.259   3.108  0.8062  0.5229 -0.6902
   13MOL0     O 1623   8.196   2.344   3.224  0.5451  1.1438 -0.0856
   13MOL0     C 1624   8.084   2.414   3.266  0.6103  0.7445  0.4385
   13MOL0     C 1625   8.081   2.448   3.409  0.7116 -0.7818 -0.1281
   13MOL0     C 1626   7.987   2.546   3.452  1.0775  0.0673 -0.3295
   13MOL0     C 1627   7.902   2.606   3.358  0.0474  0.4680  0.1527
   13MOL0     O 1628   7.807   2.699   3.396  0.5997 -0.4642  0.2189
   13MOL0     C 1629   7.706   2.644   3.479 -0.3854  0.1497  0.6714
   13MOL0     C 1630   7.609   2.743   3.546 -0.0733 -0.0946 -0.0045
   13MOL0     C 1631   7.529   2.829   3.449 -0.2188 -0.0181  0.5569
   13MOL0     C 1632   7.384   2.803   3.475 -0.1501  0.6934  0.7623
   13MOL0     C 1633   7.273   2.894   3.399 -0.5192 -0.8121 -0.2957
   13MOL0     C 1634   7.281   2.883   3.243  0.6435  0.0930 -0.4315
   13MOL0     C 1635   7.179   2.966   3.162  0.1259  0.7015 -0.1551
   13MOL0     C 1636   7.031   2.927   3.177  0.1999 -0.0966  0.1600
   13MOL0     N 1637   6.953   3.032   3.111  0.0915 -0.0462  0.8390
   13MOL0     C 1638   6.908   3.006   2.981  0.4557 -1.5922  0.4973
   13MOL0     C 1639   6.832   3.118   2.947  0.0701 -0.4993 -1.1231
   13MOL0     C 1640   6.750   3.129   2.824 -0.4303 -0.1094 -0.3943
   13MOL0     C 1641   6.681   3.272   2.797  0.3950 -0.1028  0.1371
   13MOL0     C 1642   6.529   3.256   2.816  0.0641 -0.6089  0.1022
   13MOL0     C 1643   6.463   3.395   2.799  0.0341 -0.6588 -0.0308
   13MOL0     O 1644   6.339   3.392   2.878  0.0407 -0.3985 -0.4470
   13MOL0     C 1645   6.224   3.348   2.815 -0.0241  0.6189 -0.3878
   13MOL0     C 1646   6.136   3.270   2.891  0.2505 -0.4278 -0.2308
   13MOL0     C 1647   6.009   3.234   2.841  0.1356 -0.4525  0.6159
   13MOL0     C 1648   5.912   3.154   2.927 -0.0325 -0.3839 -0.3396
   13MOL0     C 1649   5.971   3.288   2.710 -1.4947  1.0693 -0.6967
   13MOL0     C 1650   5.841   3.267   2.652  0.3514 -0.1842 -0.1818
   13MOL0     O 1651   5.774   3.374   2.612 -0.4122 -0.1831  0.2902
   13MOL0     C 1652   5.637   3.369   2.579  0.1691 -0.3950 -0.1864
   13MOL0     C 1653   5.580   3.479   2.514 -0.2364  0.4625  0.7934
   13MOL0     C 1654   5.443   3.482   2.483  0.4419 -0.0933  0.3187
   13MOL0     C 1655   5.362   3.382   2.531 -0.7321 -0.1239  0.0024
   13MOL0     O 1656   5.227   3.369   2.513  0.0881  0.5071 -0.2880
   13MOL0     C 1657   5.144   3.478   2.471  0.0953 -0.1672 -0.1815
   13MOL0     C 1658   4.995   3.441   2.506  0.0915  0.5266  0.1509
   13MOL0     C 1659   4.877   3.502   2.426 -1.2504 -0.9595 -0.3994
   13MOL0     C 1660   4.746   3.439   2.490  0.1293 -0.2466 -0.1328
   13MOL0     C 1661   4.621   3.472   2.405 -0.2445 -0.2414 -0.4375
   13MOL0     C 1662   4.499   3.407   2.454  0.0150  0.4069  0.0888
   13MOL0     C 1663   4.386   3.410   2.353  0.6016 -0.2643  0.1471
   13MOL0     C 1664   4.281   3.309   2.382 -0.4290 -0.3297  0.0350
   13MOL0    Cl 1665   4.218   3.331   2.550 -0.1877 -0.0415  0.1871
   13MOL0     C 1666   5.415   3.285   2.613 -0.0818  0.6039  0.4848
   13MOL0     C 1667   5.551   3.276   2.640 -1.2859  0.0179 -0.1231
   13MOL0     O 1668   5.796   3.150   2.647  0.0475  0.0747  0.1134
   13MOL0     C 1669   6.060   3.382   2.654 -0.4357  0.0931  0.8088
   13MOL0     C 1670   6.184   3.410   2.706  0.6034 -0.1064 -0.2181
   13MOL0     N 1671   6.852   3.211   3.054  0.2479  0.3136 -0.0805
   13MOL0     N 1672   6.913   3.159   3.157  0.2883  0.7536  0.3203
   13MOL0     C 1673   7.901   2.568   3.224  0.2900  0.0655  0.4267
   13MOL0     C 1674   7.996   2.477   3.174 -0.3902  0.4150  0.4187
   13MOL0     C 1675   8.321   2.169   3.094 -0.3444 -0.2241 -0.2852
   13MOL0     C 1676   8.406   2.139   3.204  0.1786  0.3096 -0.0130
   13MOL0     C 1677   8.511   2.046   3.186  0.3044 -1.2578  0.0308
   13MOL0     C 1678   8.530   1.982   3.060  0.1691 -0.1578 -1.1691
   13MOL0     O 1679   8.633   1.887   3.044  0.1969  0.2948  0.6639
   13MOL0     C 1680   8.686   1.871   2.908  0.2548  0.2603 -0.5325
   13MOL0     C 1681   8.821   1.799   2.898  0.0781  0.0041  0.4295
   13MOL0     C 1682   8.924   1.862   2.993 -0.1013  0.0573  1.1262
   13MOL0     C 1683   9.065   1.876   2.930  0.1553 -0.5681 -0.2140
   13MOL0     C 1684   9.125   1.744   2.897 -0.5834 -0.4744 -0.6818
   13MOL0     C 1685   9.171   1.629   2.887  0.7094 -0.3597 -0.5808
   13MOL0     C 1686   8.448   2.012   2.958  0.3684  0.3602 -0.3005
   13MOL0     C 1687   8.343   2.098   2.974  0.3207 -0.1527  0.3716
   13MOL0     H 1688   8.165   2.404   3.463  0.8296  0.5794  0.8333
   13MOL0     H 1689   7.986   2.582   3.554 -0.6206 -1.2890  0.1812
   13MOL0     H 1690   7.644   2.576   3.420 -1.1213  1.7578 -0.4825
   13MOL0     H 1691   7.760   2.591   3.557 -0.3735 -0.9083 -0.0364
   13MOL0     H 1692   7.544   2.682   3.609 -0.3359  1.6084  1.4201
   13MOL0     H 1693   7.665   2.805   3.616 -3.7666 -1.0163  4.2610
   13MOL0     H 1694   7.550   2.933   3.472 -0.5538  0.9166 -2.8505
   13MOL0     H 1695   7.557   2.811   3.345 -1.3265 -1.8371  0.5162
   13MOL0     H 1696   7.362   2.699   3.446  2.4393 -0.1609  1.5457
   13MOL0     H 1697   7.359   2.816   3.580 -1.2880  1.9847  0.3547
   13MOL0     H 1698   7.176   2.858   3.433  0.4871 -1.9418  1.5739
   13MOL0     H 1699   7.280   2.997   3.434 -0.3487 -1.0554  0.4106
   13MOL0     H 1700   7.380   2.920   3.215  0.9135 -0.4224 -0.1556
   13MOL0     H 1701   7.270   2.778   3.214  0.9715 -0.7213  2.1044
   13MOL0     H 1702   7.166   3.065   3.207 -0.6781 -1.6579  5.7203
   13MOL0     H 1703   7.205   2.963   3.056 -2.9886  0.5980 -1.0022
   13MOL0     H 1704   7.021   2.933   3.285  1.1665 -0.6091  0.2881
   13MOL0     H 1705   7.011   2.829   3.133  2.5275 -0.8501  0.6410
   13MOL0     H 1706   6.918   2.918   2.919  1.1216 -2.1651  1.4016
   13MOL0     H 1707   6.813   3.110   2.737  2.2657 -2.0774  1.8102
   13MOL0     H 1708   6.672   3.052   2.828 -0.0492 -0.4467  2.2080
   13MOL0     H 1709   6.700   3.309   2.695  1.2831 -1.4418 -0.2113
   13MOL0     H 1710   6.720   3.353   2.860  1.4305  0.6475 -1.3984
   13MOL0     H 1711   6.519   3.220   2.919  2.6127  1.4406  1.1862
   13MOL0     H 1712   6.487   3.182   2.748  0.7196 -2.2912  1.4774
   13MOL0     H 1713   6.443   3.411   2.693  0.2798 -0.1135  0.0037
   13MOL0     H 1714   6.526   3.476   2.838 -1.2368  0.2142  0.2797
   13MOL0     H 1715   6.172   3.229   2.985 -0.6606 -1.8248 -0.4658
   13MOL0     H 1716   5.971   3.106   3.005 -2.6092 -1.5313  1.0260
   13MOL0     H 1717   5.847   3.233   2.965 -2.2240 -2.7006  1.0330
   13MOL0     H 1718   5.854   3.081   2.870 -1.3114 -0.9451  1.5952
   13MOL0     H 1719   5.658   3.543   2.472 -2.0133  1.8052 -0.6127
   13MOL0     H 1720   5.396   3.566   2.433  2.1514  1.5375  1.3423
   13MOL0     H 1721   5.162   3.572   2.524 -1.0688 -0.7483  1.3270
   13MOL0     H 1722   5.155   3.488   2.363  0.9152 -0.2329 -0.1098
   13MOL0     H 1723   4.987   3.333   2.489 -0.1967  0.7931 -1.5880
   13MOL0     H 1724   4.978   3.456   2.613 -1.2068 -0.1379  0.0609
   13MOL0     H 1725   4.887   3.469   2.322  1.5849  2.2968 -1.3532
   13MOL0     H 1726   4.873   3.611   2.417  0.6786 -0.7288  0.9771
   13MOL0     H 1727   4.762   3.331   2.484 -1.8162 -0.4678 -2.7621
   13MOL0     H 1728   4.725   3.473   2.592 -0.0200 -0.5913 -0.0458
   13MOL0     H 1729   4.637   3.445   2.300  0.3791 -1.1145 -0.1328
   13MOL0     H 1730   4.608   3.580   2.402  0.9002 -0.0575  0.5696
   13MOL0     H 1731   4.507   3.305   2.492  1.1374  0.3686 -0.2117
   13MOL0     H 1732   4.475   3.465   2.544 -2.4069 -0.8886  0.3697
   13MOL0     H 1733   4.420   3.396   2.251 -1.0837  0.6744 -0.5918
   13MOL0     H 1734   4.329   3.504   2.354  1.4980  0.2942 -0.5946
   13MOL0     H 1735   4.342   3.218   2.382  2.0694  1.2461  0.8581
   13MOL0     H 1736   4.197   3.310   2.312  0.3444  1.4193 -0.9181
   13MOL0     H 1737   5.346   3.218   2.663  0.8908  0.4468  1.6619
   13MOL0     H 1738   5.584   3.198   2.706  1.1807  0.7994 -0.3487
   13MOL0     H 1739   6.035   3.435   2.563  0.6330  1.0367  1.0283
   13MOL0     H 1740   6.251   3.483   2.661  2.8404 -1.6036  0.5418
   13MOL0     H 1741   7.824   2.612   3.162 -0.0917  0.5616  1.2277
   13MOL0     H 1742   8.003   2.461   3.067  0.7469  2.1913  0.1919
   13MOL0     H 1743   8.396   2.201   3.292 -2.2550  0.1482 -0.1179
   13MOL0     H 1744   8.576   2.023   3.270 -1.9219 -0.2441  2.1607
   13MOL0     H 1745   8.613   1.817   2.848 -0.0478 -1.1485  1.0271
   13MOL0     H 1746   8.705   1.969   2.864  1.1429  0.2369 -0.2187
   13MOL0     H 1747   8.847   1.814   2.793 -0.2745 -0.8210  0.2167
   13MOL0     H 1748   8.810   1.693   2.921 -3.3871  0.3903  1.0940
   13MOL0     H 1749   8.925   1.819   3.094  0.7648  0.9137  1.5011
   13MOL0     H 1750   8.892   1.965   3.012 -0.9447 -0.0165  0.1629
   13MOL0     H 1751   9.118   1.919   3.015 -0.4293  1.5340 -0.8379
   13MOL0     H 1752   9.075   1.942   2.843 -1.8687  1.5362  1.0270
   13MOL0     H 1753   9.222   1.536   2.869 -3.7593 -2.7793 -2.4124
   13MOL0     H 1754   8.465   1.962   2.863  1.2349  1.8346 -0.9547
   13MOL0     H 1755   8.278   2.113   2.888  1.3260 -1.7430 -0.7224
   14MOL0     O 1756   4.668   5.699   5.022 -0.7213 -0.2381 -0.9031
   14MOL0     C 1757   4.761   5.620   5.049  0.7591  0.0823  0.0110
   14MOL0     O 1758   4.745   5.496   5.115  0.5319 -0.2253  0.5921
   14MOL0     C 1759   4.611   5.460   5.138 -1.1711 -0.4710 -0.6744
   14MOL0     C 1760   4.534   5.382   5.049  0.6039 -0.4975 -0.7663
   14MOL0     C 1761   4.412   5.329   5.088  0.2766  0.4216  0.0488
   14MOL0     C 1762   4.353   5.361   5.211  1.1516 -0.4010  0.0497
   14MOL0     O 1763   4.229   5.317   5.254  0.8020  0.6955 -0.2887
   14MOL0     C 1764   4.114   5.332   5.169  0.0743  0.2810 -0.0741
   14MOL0     C 1765   3.990   5.337   5.271  0.3435  0.4219  0.9668
   14MOL0     C 1766   3.852   5.298   5.205  0.1530 -0.3689 -0.4854
   14MOL0     C 1767   3.745   5.300   5.324 -0.3734 -0.4812  0.3893
   14MOL0     C 1768   3.611   5.250   5.284  0.4042  0.1152 -0.5635
   14MOL0     C 1769   3.524   5.179   5.386 -0.0983  0.2565 -0.4683
   14MOL0     C 1770   3.384   5.143   5.336 -0.0955  0.3567  0.1707
   14MOL0     C 1771   3.282   5.252   5.370  0.1842 -0.4760 -0.7277
   14MOL0     N 1772   3.180   5.211   5.465 -1.1018 -0.5570 -0.1633
   14MOL0     C 1773   3.169   5.272   5.583 -0.1975  0.2843  0.4950
   14MOL0     C 1774   3.063   5.213   5.635  0.0387 -0.2566 -0.3409
   14MOL0     C 1775   3.005   5.236   5.774  1.0948  0.4460 -1.6143
   14MOL0     C 1776   2.880   5.148   5.820 -0.2534 -0.6818  0.1804
   14MOL0     C 1777   2.758   5.189   5.728  0.4587 -0.7342  0.3639
   14MOL0     C 1778   2.623   5.145   5.789  0.0286  0.3909 -0.2322
   14MOL0     O 1779   2.521   5.187   5.695  0.7400 -0.3981  0.5699
   14MOL0     C 1780   2.388   5.184   5.731  0.0138  0.3345 -0.2384
   14MOL0     C 1781   2.299   5.198   5.628  0.8273 -0.2378  0.7171
   14MOL0     C 1782   2.165   5.177   5.649  0.4019  0.0371  0.1902
   14MOL0     C 1783   2.082   5.206   5.527 -0.1809 -0.1653  0.6962
   14MOL0     C 1784   2.116   5.151   5.779 -0.1301 -0.4672  0.1285
   14MOL0     C 1785   1.971   5.123   5.802 -0.0996 -0.3521 -0.6008
   14MOL0     O 1786   1.926   5.157   5.926 -0.2157  0.5375  0.1719
   14MOL0     C 1787   1.794   5.124   5.965 -0.9818 -0.2656  0.6889
   14MOL0     C 1788   1.689   5.165   5.887 -0.4246  0.6987  0.5484
   14MOL0     C 1789   1.557   5.155   5.927  0.4261  0.0613 -0.0690
   14MOL0     C 1790   1.526   5.115   6.056 -0.0484  0.9245 -0.2826
   14MOL0     O 1791   1.394   5.101   6.100  0.1325  0.2427  0.6154
   14MOL0     C 1792   1.339   4.973   6.087  1.1991  0.7496 -0.9477
   14MOL0     C 1793   1.189   4.966   6.128  0.0607  0.0054 -0.4781
   14MOL0     C 1794   1.132   4.824   6.145  0.2638 -0.6044 -0.6750
   14MOL0     C 1795   0.979   4.804   6.151 -0.0165 -0.0387  0.2547
   14MOL0     C 1796   0.949   4.656   6.190 -0.4039  0.6839 -0.2095
   14MOL0     C 1797   0.805   4.662   6.230 -0.1156  0.0120 -0.8350
   14MOL0     C 1798   0.757   4.527   6.294 -0.4959  0.1428 -0.1470
   14MOL0     C 1799   0.630   4.528   6.376  0.5442 -0.5816 -0.4579
   14MOL0    Cl 1800   0.568   4.360   6.385 -0.3202  0.1538  0.1419
   14MOL0     C 1801   1.633   5.079   6.143  0.5366 -0.4646  0.4512
   14MOL0     C 1802   1.763   5.077   6.092 -0.1717 -0.1371 -0.4942
   14MOL0     O 1803   1.914   5.054   5.717 -0.3289  0.2359 -0.2215
   14MOL0     C 1804   2.205   5.138   5.884 -0.2138  0.7704 -0.0289
   14MOL0     C 1805   2.340   5.144   5.858 -0.4170 -0.3771  0.1758
   14MOL0     N 1806   3.015   5.108   5.556  0.1419 -0.6121 -0.4676
   14MOL0     N 1807   3.091   5.116   5.453 -0.5822 -0.6719  0.1801
   14MOL0     C 1808   4.422   5.446   5.298 -0.5075 -0.2783 -0.1444
   14MOL0     C 1809   4.558   5.491   5.261 -0.0409 -0.1517 -0.8216
   14MOL0     C 1810   4.896   5.654   4.992 -0.0010 -1.1162 -0.1864
   14MOL0     C 1811   5.007   5.589   5.030 -0.3779  0.1263  0.2488
   14MOL0     C 1812   5.127   5.622   4.978 -0.4499  0.8701 -0.1338
   14MOL0     C 1813   5.147   5.729   4.890  0.5234 -0.9191 -0.7658
   14MOL0     O 1814   5.272   5.762   4.859 -0.3510 -0.4899  0.0685
   14MOL0     C 1815   5.291   5.865   4.766  0.4675 -0.5666 -0.1380
   14MOL0     C 1816   5.445   5.911   4.793  0.7474 -0.2330  1.1355
   14MOL0     C 1817   5.545   5.800   4.764 -0.6296 -0.4854 -0.6652
   14MOL0     C 1818   5.680   5.859   4.801  0.3777  0.3836 -0.0527
   14MOL0     C 1819   5.788   5.768   4.766  0.0010  0.1895 -0.1099
   14MOL0     C 1820   5.868   5.675   4.751 -0.7719  0.3047 -0.6213
   14MOL0     C 1821   5.031   5.785   4.839 -0.5754  0.3728  0.6673
   14MOL0     C 1822   4.911   5.749   4.890  0.7318  0.0298  0.6205
   14MOL0     H 1823   4.566   5.357   4.948 -1.0315 -4.8276 -0.4312
   14MOL0     H 1824   4.355   5.277   5.011  0.6936  1.9413 -1.3532
   14MOL0     H 1825   4.125   5.423   5.109  1.8533  0.3396  0.2672
   14MOL0     H 1826   4.107   5.248   5.099  3.2513  0.1760 -0.4171
   14MOL0     H 1827   4.010   5.269   5.355  1.2939 -0.1533  0.2970
   14MOL0     H 1828   3.985   5.440   5.306 -2.3458  1.3924 -1.8512
   14MOL0     H 1829   3.829   5.366   5.122 -1.5955  1.8005  1.6236
   14MOL0     H 1830   3.859   5.200   5.156  1.5651 -0.2325 -0.6012
   14MOL0     H 1831   3.785   5.251   5.413  0.3340 -0.0013  0.3421
   14MOL0     H 1832   3.728   5.402   5.361  0.6821  0.4157 -1.4434
   14MOL0     H 1833   3.560   5.333   5.233  2.2019  0.9946 -1.0217
   14MOL0     H 1834   3.616   5.179   5.201  0.9513  2.0284 -2.2612
   14MOL0     H 1835   3.575   5.090   5.424 -0.6424 -0.0282 -0.4092
   14MOL0     H 1836   3.516   5.255   5.464 -1.7457  0.7062 -1.0404
   14MOL0     H 1837   3.382   5.113   5.231  0.6748 -0.1490  0.2931
   14MOL0     H 1838   3.345   5.055   5.387 -2.4537 -1.0979 -3.7599
   14MOL0     H 1839   3.225   5.282   5.281  0.2455  1.0021 -0.2931
   14MOL0     H 1840   3.321   5.342   5.418 -3.1030  1.2795 -0.9966
   14MOL0     H 1841   3.231   5.351   5.624  0.9431 -1.4408  2.2733
   14MOL0     H 1842   3.080   5.202   5.847 -0.9885 -1.0171 -0.0377
   14MOL0     H 1843   2.976   5.341   5.783 -3.6402 -0.7642  0.0453
   14MOL0     H 1844   2.853   5.164   5.924 -2.1635 -0.4919 -0.3009
   14MOL0     H 1845   2.902   5.041   5.813 -1.9471 -1.0914  0.6533
   14MOL0     H 1846   2.767   5.150   5.627 -0.9849  0.1523 -0.1458
   14MOL0     H 1847   2.758   5.299   5.724 -2.8760 -0.4770  2.7585
   14MOL0     H 1848   2.612   5.192   5.887  0.6345 -0.7566  0.4090
   14MOL0     H 1849   2.615   5.037   5.807  4.2583 -0.4157 -1.9616
   14MOL0     H 1850   2.334   5.210   5.526  2.5483 -2.1677  0.9981
   14MOL0     H 1851   2.046   5.110   5.487  0.6736  0.0362 -0.6323
   14MOL0     H 1852   1.995   5.268   5.552  0.9829  2.6398 -1.6645
   14MOL0     H 1853   2.130   5.260   5.445  1.2727 -0.3305  1.4222
   14MOL0     H 1854   1.710   5.210   5.790  0.4271 -2.3912 -0.8259
   14MOL0     H 1855   1.474   5.185   5.864  0.0289 -0.7360  0.0668
   14MOL0     H 1856   1.359   4.937   5.985  1.8631  4.1137 -2.1465
   14MOL0     H 1857   1.378   4.904   6.163 -2.6728 -0.0233  0.5248
   14MOL0     H 1858   1.187   5.008   6.229 -1.7358  1.5917 -1.1080
   14MOL0     H 1859   1.140   5.033   6.057  0.8154  2.1791  0.9439
   14MOL0     H 1860   1.186   4.796   6.236  2.4366  2.4601 -0.8479
   14MOL0     H 1861   1.165   4.757   6.065  0.6082 -2.1730  0.7219
   14MOL0     H 1862   0.947   4.869   6.233  1.0681 -2.0754  2.4414
   14MOL0     H 1863   0.922   4.822   6.059  1.3346  0.2183 -0.5541
   14MOL0     H 1864   0.999   4.631   6.284 -0.5336  1.4566  0.0648
   14MOL0     H 1865   0.968   4.589   6.105 -2.3502  1.3102 -1.1851
   14MOL0     H 1866   0.795   4.734   6.311  3.3243 -1.4356  1.0734
   14MOL0     H 1867   0.737   4.689   6.148  0.6007  1.0573 -1.0987
   14MOL0     H 1868   0.838   4.491   6.358  0.1642  1.2154 -0.3611
   14MOL0     H 1869   0.752   4.451   6.215 -0.5328 -1.9166  1.7645
   14MOL0     H 1870   0.546   4.579   6.330 -0.4213  0.2534  2.0334
   14MOL0     H 1871   0.653   4.569   6.475 -0.3383 -0.1744 -0.4119
   14MOL0     H 1872   1.616   5.050   6.247  0.9314 -1.5704  0.2214
   14MOL0     H 1873   1.845   5.050   6.158 -1.5603  0.3042  1.5134
   14MOL0     H 1874   2.172   5.132   5.987 -0.8910 -1.5302 -0.3262
   14MOL0     H 1875   2.423   5.114   5.921  1.3875 -1.8805 -2.7399
   14MOL0     H 1876   4.386   5.459   5.399  2.0845 -0.5248  0.8634
   14MOL0     H 1877   4.611   5.554   5.331 -1.7133  0.0102  0.3772
   14MOL0     H 1878   5.004   5.511   5.105  1.0497 -2.1539 -1.9266
   14MOL0     H 1879   5.210   5.567   5.022 -2.7422 -3.2731 -0.4355
   14MOL0     H 1880   5.269   5.825   4.667  1.0990  2.1783 -1.4738
   14MOL0     H 1881   5.228   5.954   4.779  0.7664 -0.0273 -2.0758
   14MOL0     H 1882   5.450   5.958   4.892 -1.9099  1.3814  0.5787
   14MOL0     H 1883   5.449   5.997   4.727 -1.5700  0.7197  2.1546
   14MOL0     H 1884   5.545   5.782   4.657 -0.6839  1.6764 -1.0805
   14MOL0     H 1885   5.516   5.710   4.820 -0.9722 -0.1149 -0.2318
   14MOL0     H 1886   5.684   5.881   4.908  1.1491  1.1321 -0.2226
   14MOL0     H 1887   5.680   5.953   4.745  2.2438 -0.0657 -0.9165
   14MOL0     H 1888   5.929   5.587   4.743 -1.4821 -0.2352 -0.1782
   14MOL0     H 1889   5.039   5.861   4.762  2.7715 -1.2018 -0.7568
   14MOL0     H 1890   4.834   5.801   4.834  2.3831  1.1294 -0.7231
   15MOL0     O 1891   4.951   4.794   3.160 -0.1311 -0.1783  0.0391
   15MOL0     C 1892   5.032   4.738   3.234 -0.3734  0.1118  0.4956
   15MOL0     O 1893   5.023   4.606   3.280  0.3280  0.0415 -0.0038
   15MOL0     C 1894   4.898   4.540   3.278 -0.7709 -0.6893  0.4730
   15MOL0     C 1895   4.893   4.418   3.212  0.2429  0.0880  0.7012
   15MOL0     C 1896   4.775   4.349   3.205 -0.1228  1.0913 -0.5670
   15MOL0     C 1897   4.655   4.399   3.257 -0.8675 -0.0376 -0.6510
   15MOL0     O 1898   4.536   4.325   3.247 -0.4119  0.3707  0.5910
   15MOL0     C 1899   4.415   4.398   3.242  0.5182 -0.9382 -0.1604
   15MOL0     C 1900   4.298   4.300   3.242 -0.1559  0.4854  0.4932
   15MOL0     C 1901   4.178   4.365   3.184 -0.6509  0.0290  0.2704
   15MOL0     C 1902   4.052   4.285   3.204  0.3542 -0.1344 -0.9310
   15MOL0     C 1903   3.919   4.360   3.193  0.0209  0.0594  0.6250
   15MOL0     C 1904   3.906   4.427   3.056 -0.3983  0.0436  0.4056
   15MOL0     C 1905   3.771   4.490   3.008 -0.5496 -0.7521  0.0729
   15MOL0     C 1906   3.676   4.534   3.110  0.2655 -0.0431 -0.6860
   15MOL0     N 1907   3.559   4.606   3.059  0.4911  0.6540  0.2394
   15MOL0     C 1908   3.468   4.539   2.976 -0.1647 -0.0367  1.1070
   15MOL0     C 1909   3.387   4.638   2.925  0.1376 -0.1912  0.3301
   15MOL0     C 1910   3.257   4.611   2.844 -0.3901 -0.2230  0.3617
   15MOL0     C 1911   3.122   4.658   2.907 -0.3609 -0.4810 -0.2959
   15MOL0     C 1912   3.099   4.590   3.047  0.2272 -0.4262  0.2496
   15MOL0     C 1913   3.044   4.447   3.028  0.0818  0.0651 -0.6557
   15MOL0     O 1914   2.949   4.432   2.918 -0.0482  0.6731  0.1373
   15MOL0     C 1915   2.827   4.487   2.936  0.4593 -0.0097 -0.6716
   15MOL0     C 1916   2.742   4.482   2.818  0.5101  0.4765  0.5683
   15MOL0     C 1917   2.611   4.518   2.825  0.2458 -0.3018 -0.1215
   15MOL0     C 1918   2.531   4.520   2.700  0.0131  0.2775  0.5004
   15MOL0     C 1919   2.557   4.570   2.947 -0.3974 -0.4857 -0.0491
   15MOL0     C 1920   2.411   4.594   2.973 -0.6518 -0.2330  0.1898
   15MOL0     O 1921   2.375   4.679   3.073  0.4447  0.1809 -0.1925
   15MOL0     C 1922   2.242   4.714   3.093 -0.8508  0.3089  0.0402
   15MOL0     C 1923   2.174   4.812   3.022  0.6404  0.0906  0.2339
   15MOL0     C 1924   2.036   4.844   3.049 -0.0607  0.5275 -0.2897
   15MOL0     C 1925   1.957   4.754   3.130 -1.2151 -0.1783  0.4477
   15MOL0     O 1926   1.822   4.745   3.143  0.0788  0.1662 -0.7601
   15MOL0     C 1927   1.760   4.871   3.102 -0.2902  0.2840 -0.2298
   15MOL0     C 1928   1.621   4.848   3.163 -0.1171  0.5975  0.1894
   15MOL0     C 1929   1.540   4.728   3.113 -0.8131  0.2745  0.2119
   15MOL0     C 1930   1.384   4.749   3.105 -0.3595  1.0878  0.0544
   15MOL0     C 1931   1.317   4.728   3.235  1.0936  0.2792 -0.4493
   15MOL0     C 1932   1.167   4.728   3.213 -0.4097  0.1952  0.0299
   15MOL0     C 1933   1.089   4.688   3.338 -1.2580 -0.1631  0.0457
   15MOL0     C 1934   1.075   4.533   3.360 -0.3299  0.2839 -0.4920
   15MOL0    Cl 1935   0.998   4.447   3.217  0.3069 -0.0452 -0.3189
   15MOL0     C 1936   2.029   4.664   3.198  0.5909 -0.7330 -0.2401
   15MOL0     C 1937   2.167   4.643   3.191  0.2520 -0.1154  0.0143
   15MOL0     O 1938   2.329   4.530   2.911 -0.1025 -0.3528 -0.2692
   15MOL0     C 1939   2.645   4.593   3.052 -0.2601  0.0868 -0.6121
   15MOL0     C 1940   2.778   4.549   3.054  0.0937 -0.3675 -0.1168
   15MOL0     N 1941   3.434   4.764   2.968 -0.3608  0.1237  0.2914
   15MOL0     N 1942   3.535   4.744   3.055  0.6249  0.1572  0.5502
   15MOL0     C 1943   4.665   4.515   3.335  0.6252  0.5929  0.0078
   15MOL0     C 1944   4.785   4.584   3.345 -0.3223  0.0780 -0.1724
   15MOL0     C 1945   5.160   4.812   3.269 -0.4812  0.8522  0.3586
   15MOL0     C 1946   5.182   4.941   3.215  0.5689  0.2336 -0.0111
   15MOL0     C 1947   5.300   5.007   3.244 -0.4861 -0.3572  0.1321
   15MOL0     C 1948   5.396   4.956   3.331  0.4178  0.7757 -0.0298
   15MOL0     O 1949   5.505   5.016   3.376 -0.3230 -0.1853 -0.0327
   15MOL0     C 1950   5.510   5.164   3.380 -0.1905 -0.5662  0.1679
   15MOL0     C 1951   5.611   5.210   3.484 -0.0106 -0.8672  0.7345
   15MOL0     C 1952   5.585   5.150   3.620  0.2506  0.2765 -0.0691
   15MOL0     C 1953   5.637   5.239   3.736  0.3982  0.0530  0.3339
   15MOL0     C 1954   5.780   5.256   3.720  0.2912  0.4438  1.5071
   15MOL0     C 1955   5.899   5.241   3.678  0.2520  0.1647 -0.0182
   15MOL0     C 1956   5.377   4.827   3.382  0.0130  0.1729 -0.3155
   15MOL0     C 1957   5.261   4.752   3.350  1.2223 -0.3886 -0.2624
   15MOL0     H 1958   4.976   4.384   3.151 -2.2567  0.2471 -3.0986
   15MOL0     H 1959   4.769   4.257   3.146 -0.1850  1.8953 -1.8519
   15MOL0     H 1960   4.404   4.467   3.326 -0.9124 -1.2541 -0.0572
   15MOL0     H 1961   4.415   4.449   3.145  1.3611  0.9349  0.7669
   15MOL0     H 1962   4.330   4.221   3.175  0.4922  1.0057  0.1789
   15MOL0     H 1963   4.262   4.267   3.340 -4.1984  0.1149 -0.9384
   15MOL0     H 1964   4.176   4.465   3.229  1.9786  0.5073 -0.4965
   15MOL0     H 1965   4.202   4.379   3.078  1.9154  3.8580  1.1384
   15MOL0     H 1966   4.047   4.204   3.130  0.4644 -0.5601 -0.4802
   15MOL0     H 1967   4.058   4.238   3.303 -1.6884  0.1743 -0.6267
   15MOL0     H 1968   3.835   4.290   3.196  0.7172 -0.7900  0.6023
   15MOL0     H 1969   3.921   4.432   3.275  1.0414 -0.6734  1.2537
   15MOL0     H 1970   3.975   4.512   3.064 -1.5693  1.2244 -1.3879
   15MOL0     H 1971   3.939   4.363   2.973 -2.3016 -1.7973  0.9843
   15MOL0     H 1972   3.792   4.573   2.940 -0.0965 -3.0646 -2.8085
   15MOL0     H 1973   3.722   4.422   2.938 -1.1192 -0.2957  0.0116
   15MOL0     H 1974   3.718   4.612   3.174  0.4618 -0.8838  0.2497
   15MOL0     H 1975   3.638   4.449   3.168 -0.1925  0.7361  0.1868
   15MOL0     H 1976   3.454   4.433   2.960 -0.4755  0.0909  0.5121
   15MOL0     H 1977   3.273   4.672   2.755  0.4392  0.5667  1.0286
   15MOL0     H 1978   3.254   4.504   2.825  0.1423 -0.4495  1.4549
   15MOL0     H 1979   3.036   4.643   2.841 -0.2636 -3.2344  0.0990
   15MOL0     H 1980   3.142   4.764   2.929  0.0784 -0.9882  1.9881
   15MOL0     H 1981   3.026   4.644   3.109  2.5525  4.2953 -0.6754
   15MOL0     H 1982   3.199   4.581   3.091 -0.5431 -2.0608  1.8134
   15MOL0     H 1983   2.999   4.420   3.124  3.2953 -0.4783  0.8491
   15MOL0     H 1984   3.136   4.391   3.012  0.5324  0.3618  0.7850
   15MOL0     H 1985   2.773   4.444   2.721 -0.2200 -1.4633  1.0344
   15MOL0     H 1986   2.422   4.510   2.708 -0.2932  1.8986 -0.9981
   15MOL0     H 1987   2.554   4.611   2.645 -1.5834  1.1116  1.1439
   15MOL0     H 1988   2.555   4.432   2.639 -0.9388  0.3265  0.0307
   15MOL0     H 1989   2.220   4.877   2.948 -0.1859 -1.3082 -1.5918
   15MOL0     H 1990   1.996   4.923   2.987 -1.2907  0.7365  0.7209
   15MOL0     H 1991   1.813   4.954   3.149  0.3587 -1.5674  2.4990
   15MOL0     H 1992   1.764   4.886   2.994  0.4619  0.4759 -0.1806
   15MOL0     H 1993   1.631   4.839   3.272  0.4614 -0.7636  0.0557
   15MOL0     H 1994   1.558   4.935   3.144 -0.6390  0.2295  0.2210
   15MOL0     H 1995   1.549   4.635   3.170 -0.7224 -0.3322 -0.7776
   15MOL0     H 1996   1.582   4.691   3.019  0.3436 -2.5827  1.7175
   15MOL0     H 1997   1.358   4.847   3.063 -0.5896  1.4842  1.0796
   15MOL0     H 1998   1.347   4.667   3.043  2.0065  1.9001 -2.6389
   15MOL0     H 1999   1.329   4.814   3.303  0.9493  0.5206 -0.7292
   15MOL0     H 2000   1.342   4.635   3.288 -3.9626 -0.9296  0.3343
   15MOL0     H 2001   1.126   4.824   3.181 -2.3188 -0.6996 -0.3596
   15MOL0     H 2002   1.148   4.662   3.128 -0.0737 -0.4389  0.4391
   15MOL0     H 2003   0.989   4.732   3.343 -1.4736 -0.7404  1.6860
   15MOL0     H 2004   1.132   4.750   3.417  0.2161 -1.7468  0.5656
   15MOL0     H 2005   1.024   4.508   3.453  0.2336 -0.4589 -0.3728
   15MOL0     H 2006   1.173   4.486   3.365 -0.3157  0.0411 -2.2618
   15MOL0     H 2007   1.966   4.603   3.261 -2.9682  0.4460 -2.3335
   15MOL0     H 2008   2.211   4.560   3.246  1.2820  0.7465  0.5176
   15MOL0     H 2009   2.600   4.625   3.146 -0.7590 -0.1590 -0.7662
   15MOL0     H 2010   2.835   4.552   3.146 -0.0432 -2.0406  0.0514
   15MOL0     H 2011   4.577   4.540   3.393  1.1005  0.2830  0.8853
   15MOL0     H 2012   4.784   4.670   3.411 -0.2251  0.5162 -0.7245
   15MOL0     H 2013   5.111   4.993   3.151 -1.2050 -0.4596  1.3078
   15MOL0     H 2014   5.308   5.109   3.208  1.7445  0.0009  1.4924
   15MOL0     H 2015   5.534   5.193   3.277 -1.1583 -2.1485 -0.5425
   15MOL0     H 2016   5.411   5.205   3.401  0.1735  0.7865 -0.5957
   15MOL0     H 2017   5.607   5.319   3.489  0.1919 -0.8333  0.2553
   15MOL0     H 2018   5.710   5.186   3.443 -0.4651 -0.7486 -0.4716
   15MOL0     H 2019   5.641   5.056   3.622 -0.8225 -0.5214 -2.9588
   15MOL0     H 2020   5.480   5.126   3.639  0.7181  0.0424  2.7048
   15MOL0     H 2021   5.624   5.188   3.832  1.3320  0.7084  0.8188
   15MOL0     H 2022   5.582   5.333   3.723 -1.2099 -1.0077 -0.9675
   15MOL0     H 2023   5.995   5.221   3.635 -0.9303 -0.2531 -2.6824
   15MOL0     H 2024   5.457   4.779   3.436 -2.4318 -3.4928  0.4164
   15MOL0     H 2025   5.254   4.646   3.369 -0.3513 -0.0887  1.0074
   16MOL0     O 2026   9.271   0.725   6.177  0.4929  0.5821 -0.0015
   16MOL0     C 2027   9.291   0.709   6.301 -0.1858  0.0391 -0.0260
   16MOL0     O 2028   9.196   0.692   6.397  0.0813 -0.3475  0.3760
   16MOL0     C 2029   9.066   0.677   6.349  0.3476  0.4683  0.4425
   16MOL0     C 2030   9.018   0.776   6.265  0.2513 -0.3853  0.6595
   16MOL0     C 2031   8.899   0.755   6.184 -0.5693  0.0857 -0.9437
   16MOL0     C 2032   8.827   0.634   6.215  0.1644  0.7160  0.2437
   16MOL0     O 2033   8.698   0.625   6.174  0.1340 -0.2094 -0.0418
   16MOL0     C 2034   8.620   0.504   6.203  0.4411  0.7399 -0.3678
   16MOL0     C 2035   8.486   0.533   6.127  0.4450 -0.2883 -0.8904
   16MOL0     C 2036   8.509   0.530   5.969 -0.3500  0.0700  0.2970
   16MOL0     C 2037   8.375   0.511   5.900 -0.5323 -0.3199 -0.3928
   16MOL0     C 2038   8.392   0.504   5.753 -0.0994  0.8496  0.6258
   16MOL0     C 2039   8.258   0.470   5.682  0.2650  0.1175  0.2810
   16MOL0     C 2040   8.267   0.488   5.533 -0.2349  0.6060  0.1082
   16MOL0     C 2041   8.257   0.635   5.473  0.4340  1.6744 -0.0442
   16MOL0     N 2042   8.253   0.619   5.329 -0.8055  0.0365  0.7287
   16MOL0     C 2043   8.144   0.598   5.246  0.3664  0.0997 -0.0669
   16MOL0     C 2044   8.169   0.635   5.123 -0.1761 -0.1118 -0.0477
   16MOL0     C 2045   8.081   0.643   5.006  0.2111  0.1321  0.1688
   16MOL0     C 2046   8.093   0.509   4.927 -0.5411 -0.4057  0.1030
   16MOL0     C 2047   7.970   0.465   4.849  0.4953 -0.2087 -0.7636
   16MOL0     C 2048   7.943   0.555   4.720  0.3309 -0.1556 -0.1450
   16MOL0     O 2049   7.816   0.525   4.655 -0.4018 -0.7375  0.0063
   16MOL0     C 2050   7.699   0.562   4.715 -0.2907  0.2470  0.3207
   16MOL0     C 2051   7.687   0.685   4.779 -0.2985  0.7757  0.8208
   16MOL0     C 2052   7.557   0.734   4.813 -0.1441 -0.2195 -0.2355
   16MOL0     C 2053   7.568   0.864   4.895 -0.6676  0.1181 -0.1578
   16MOL0     C 2054   7.439   0.668   4.771  0.3655 -0.3315  0.0323
   16MOL0     C 2055   7.309   0.718   4.805 -0.0658  0.4782 -0.1877
   16MOL0     O 2056   7.203   0.640   4.769 -0.1007 -0.1921  0.0551
   16MOL0     C 2057   7.081   0.660   4.820  0.4331 -0.3011 -0.0192
   16MOL0     C 2058   6.968   0.677   4.745  0.4814  0.2672  1.1159
   16MOL0     C 2059   6.841   0.682   4.802  0.3158 -0.6042 -0.6631
   16MOL0     C 2060   6.809   0.672   4.937 -0.9018  0.6180 -0.1889
   16MOL0     O 2061   6.682   0.692   4.978 -0.3530  0.5643 -0.1599
   16MOL0     C 2062   6.663   0.701   5.121  0.6249 -0.3436 -0.1358
   16MOL0     C 2063   6.515   0.738   5.140 -0.0391  0.3536  0.1793
   16MOL0     C 2064   6.432   0.627   5.095 -0.8469  0.6127 -0.2361
   16MOL0     C 2065   6.290   0.651   5.154  1.0519  0.4099  1.1545
   16MOL0     C 2066   6.197   0.531   5.117  0.3033 -0.2076 -0.4116
   16MOL0     C 2067   6.045   0.565   5.130 -0.1102 -0.4576 -0.2532
   16MOL0     C 2068   6.017   0.611   5.273 -0.5365  0.4097  0.4307
   16MOL0     C 2069   5.867   0.606   5.298  1.1177 -0.3398  0.5008
   16MOL0    Cl 2070   5.801   0.434   5.291  0.2408 -0.1301 -0.0591
   16MOL0     C 2071   6.922   0.644   5.011 -0.1310  0.2662  0.6182
   16MOL0     C 2072   7.054   0.641   4.955 -0.4687  0.0497 -0.1901
   16MOL0     O 2073   7.284   0.815   4.877  0.4974  0.0191  0.0309
   16MOL0     C 2074   7.457   0.547   4.696 -0.1026  0.4829 -0.0964
   16MOL0     C 2075   7.584   0.498   4.666  0.6131 -0.7234 -0.8391
   16MOL0     N 2076   8.305   0.659   5.121 -0.6649 -0.0580  0.4967
   16MOL0     N 2077   8.352   0.671   5.246  0.6174 -0.2937 -0.4058
   16MOL0     C 2078   8.878   0.544   6.313 -0.0891 -0.1961 -0.2759
   16MOL0     C 2079   8.997   0.559   6.378 -0.6453 -0.0124  0.0701
   16MOL0     C 2080   9.437   0.707   6.341 -0.0892  0.4984 -0.6747
   16MOL0     C 2081   9.482   0.626   6.451 -0.1368 -1.6108 -0.6084
   16MOL0     C 2082   9.615   0.616   6.474 -0.7421 -0.6544 -0.3979
   16MOL0     C 2083   9.711   0.699   6.418  0.1521 -0.1980 -0.5935
   16MOL0     O 2084   9.833   0.685   6.471  0.6113 -0.1871  0.5975
   16MOL0     C 2085   9.944   0.771   6.427  0.3538 -0.3748  0.6962
   16MOL0     C 2086   9.985   0.858   6.539  0.1820  0.0863 -0.1057
   16MOL0     C 2087  10.010   0.782   6.680  0.0400  1.1807  0.1492
   16MOL0     C 2088  10.128   0.685   6.678 -0.2495 -0.1373  0.5794
   16MOL0     C 2089  10.247   0.741   6.612 -0.0487  0.2941 -0.4301
   16MOL0     C 2090  10.335   0.796   6.547 -0.2247 -1.2275 -0.9590
   16MOL0     C 2091   9.668   0.777   6.307 -0.7830  0.0052  0.0893
   16MOL0     C 2092   9.538   0.773   6.262 -0.4378 -0.2948 -0.3371
   16MOL0     H 2093   9.083   0.861   6.249  1.7423 -1.5536  0.3621
   16MOL0     H 2094   8.874   0.819   6.100 -1.4466 -1.0463 -1.5840
   16MOL0     H 2095   8.662   0.411   6.163  1.0791  0.5007  0.8226
   16MOL0     H 2096   8.594   0.501   6.309  1.5276  1.9182 -0.0446
   16MOL0     H 2097   8.415   0.452   6.143  0.7932 -0.6821 -1.2987
   16MOL0     H 2098   8.439   0.627   6.157 -1.3318 -0.0928 -3.8254
   16MOL0     H 2099   8.569   0.608   5.922 -0.4645 -0.1379 -0.1931
   16MOL0     H 2100   8.574   0.449   5.936  2.1290  2.3507 -0.8906
   16MOL0     H 2101   8.321   0.420   5.926 -1.5908 -0.4787 -2.8913
   16MOL0     H 2102   8.317   0.600   5.925  0.5010  0.3743 -0.3907
   16MOL0     H 2103   8.441   0.589   5.705  2.9447 -0.8436  0.5241
   16MOL0     H 2104   8.464   0.425   5.733  0.4333  0.8124  2.5573
   16MOL0     H 2105   8.217   0.370   5.700  0.8241 -0.1267  0.2207
   16MOL0     H 2106   8.186   0.541   5.725 -1.4050 -1.2701 -0.1098
   16MOL0     H 2107   8.360   0.435   5.509  1.0858  2.0023  1.8351
   16MOL0     H 2108   8.193   0.430   5.478  0.0660  1.2463 -1.0001
   16MOL0     H 2109   8.334   0.704   5.511  1.5299  0.3614  0.1994
   16MOL0     H 2110   8.162   0.678   5.506 -0.2899  1.1469 -1.3661
   16MOL0     H 2111   8.051   0.555   5.283  0.8101  1.1530  2.3986
   16MOL0     H 2112   7.984   0.657   5.056  0.9153 -1.6265  2.1887
   16MOL0     H 2113   8.100   0.730   4.942  0.5618  1.0637  1.5172
   16MOL0     H 2114   8.124   0.438   5.004  0.3932  1.9047  1.9933
   16MOL0     H 2115   8.181   0.511   4.862  1.9666 -0.7682  3.2418
   16MOL0     H 2116   7.883   0.474   4.915  1.4210  0.2686  0.4211
   16MOL0     H 2117   7.973   0.359   4.821 -2.8835 -0.4762 -0.6194
   16MOL0     H 2118   8.026   0.527   4.653 -1.5483 -2.1863 -1.7876
   16MOL0     H 2119   7.960   0.661   4.740  1.3718 -0.2047 -0.6983
   16MOL0     H 2120   7.775   0.744   4.802  0.8366 -0.5959  0.1019
   16MOL0     H 2121   7.513   0.849   4.988 -1.5070  3.6914  0.0431
   16MOL0     H 2122   7.673   0.875   4.926 -0.2972 -0.4429 -1.1353
   16MOL0     H 2123   7.542   0.947   4.829 -2.4460  0.5560  1.0484
   16MOL0     H 2124   6.977   0.701   4.640  1.1505  2.5768  1.6403
   16MOL0     H 2125   6.749   0.704   4.748  0.7151  1.7720 -0.4556
   16MOL0     H 2126   6.681   0.604   5.167 -0.7691 -1.1784 -1.2703
   16MOL0     H 2127   6.722   0.783   5.165 -2.3718  0.6048  2.4940
   16MOL0     H 2128   6.512   0.765   5.246  1.7704  1.1657  0.0567
   16MOL0     H 2129   6.478   0.823   5.082 -0.4004  0.1358  0.0879
   16MOL0     H 2130   6.479   0.543   5.147  0.0045  1.0566 -0.2671
   16MOL0     H 2131   6.438   0.612   4.987  0.8784 -0.0802 -0.0709
   16MOL0     H 2132   6.296   0.664   5.263 -1.3802  0.2045  1.3646
   16MOL0     H 2133   6.245   0.740   5.112 -1.4742 -2.0386 -1.7575
   16MOL0     H 2134   6.217   0.455   5.192  0.6212  2.0174  1.9029
   16MOL0     H 2135   6.215   0.509   5.011  1.5381 -0.0297 -0.2527
   16MOL0     H 2136   6.013   0.652   5.073 -1.0590 -0.7903 -0.2449
   16MOL0     H 2137   5.991   0.476   5.096 -3.6872  1.8941 -1.3458
   16MOL0     H 2138   6.052   0.714   5.286 -2.0682  1.2671 -1.7010
   16MOL0     H 2139   6.063   0.541   5.343 -0.3502  1.0795  0.9761
   16MOL0     H 2140   5.821   0.672   5.224  2.2998  0.3044  0.3170
   16MOL0     H 2141   5.849   0.649   5.397  2.5787 -0.4360  0.8335
   16MOL0     H 2142   6.919   0.641   5.119 -0.1852 -1.2386  0.5917
   16MOL0     H 2143   7.135   0.617   5.022 -0.0395  3.4091  0.6953
   16MOL0     H 2144   7.371   0.512   4.640  0.3168  0.2015 -0.5741
   16MOL0     H 2145   7.594   0.413   4.600  2.4169 -0.7215 -0.6101
   16MOL0     H 2146   8.824   0.461   6.356  3.1202 -0.6923  3.4382
   16MOL0     H 2147   9.042   0.476   6.433 -0.1374 -0.1588 -0.5474
   16MOL0     H 2148   9.413   0.584   6.524  1.6174 -0.6521  1.7553
   16MOL0     H 2149   9.643   0.535   6.541  0.6155  0.0105 -0.1318
   16MOL0     H 2150  10.025   0.706   6.394 -2.3383 -2.9972 -1.2413
   16MOL0     H 2151   9.917   0.834   6.342 -1.2846 -1.1384  0.6096
   16MOL0     H 2152   9.917   0.942   6.551  1.2996  1.0734 -0.5327
   16MOL0     H 2153  10.073   0.916   6.508 -1.6018  1.6112 -2.7203
   16MOL0     H 2154   9.915   0.735   6.706 -0.5982  1.1150 -2.1097
   16MOL0     H 2155  10.027   0.864   6.751  4.4461  0.9473 -0.3704
   16MOL0     H 2156  10.095   0.598   6.620 -1.0405 -1.4996  2.9407
   16MOL0     H 2157  10.155   0.656   6.780 -0.4704 -0.3667  0.5716
   16MOL0     H 2158  10.401   0.859   6.491 -0.6320  0.7675  0.6563
   16MOL0     H 2159   9.741   0.834   6.252  0.5877  1.0138  2.7673
   16MOL0     H 2160   9.532   0.822   6.165  4.9785  4.0851  0.9869
   17MOL0     O 2161   3.238   1.318   5.826  0.1254 -0.8306 -0.3659
   17MOL0     C 2162   3.325   1.232   5.793 -0.0196 -0.3379 -0.5437
   17MOL0     O 2163   3.306   1.093   5.811  0.6020 -0.2718  0.6924
   17MOL0     C 2164   3.184   1.050   5.861 -0.3018 -0.4880 -0.2808
   17MOL0     C 2165   3.085   1.005   5.776  0.0888 -0.1570 -0.0128
   17MOL0     C 2166   2.965   0.960   5.824 -0.0001 -0.6832 -0.5179
   17MOL0     C 2167   2.939   0.953   5.957  0.6994  0.0170 -0.5095
   17MOL0     O 2168   2.818   0.894   5.997 -0.1617 -0.0129  0.5209
   17MOL0     C 2169   2.810   0.844   6.128 -0.4296 -0.3050 -0.2490
   17MOL0     C 2170   2.702   0.737   6.124 -0.8169  0.1848 -0.2856
   17MOL0     C 2171   2.558   0.782   6.132 -0.1054 -0.1600 -0.3189
   17MOL0     C 2172   2.457   0.667   6.124 -1.2326  0.3734  0.2450
   17MOL0     C 2173   2.315   0.730   6.113 -0.4881  0.0806  0.1196
   17MOL0     C 2174   2.276   0.790   6.255 -0.3007 -0.2094  0.5565
   17MOL0     C 2175   2.124   0.799   6.263  0.0805 -0.2857 -0.6285
   17MOL0     C 2176   2.070   0.882   6.385 -0.2606 -0.4942  0.2470
   17MOL0     N 2177   1.926   0.894   6.382 -0.3914 -0.0440  0.1028
   17MOL0     C 2178   1.829   0.801   6.343  0.2639 -0.0764 -0.4046
   17MOL0     C 2179   1.713   0.861   6.353 -0.0969  0.2051 -0.3329
   17MOL0     C 2180   1.580   0.794   6.335 -0.0103  0.1383  0.3161
   17MOL0     C 2181   1.517   0.749   6.475 -0.1220  0.1765  0.3508
   17MOL0     C 2182   1.587   0.632   6.537 -0.3879  0.2443 -0.3346
   17MOL0     C 2183   1.505   0.541   6.630  0.7790  0.3378 -0.5844
   17MOL0     O 2184   1.591   0.469   6.719 -0.1681 -0.0169  0.9187
   17MOL0     C 2185   1.525   0.370   6.799  0.0792 -0.1879 -0.1483
   17MOL0     C 2186   1.602   0.316   6.896 -1.5332 -0.4316 -0.2423
   17MOL0     C 2187   1.555   0.230   6.993 -0.4523  0.3933 -0.1035
   17MOL0     C 2188   1.649   0.182   7.103 -0.0079  0.1428  0.7770
   17MOL0     C 2189   1.422   0.194   6.978 -0.3671 -0.7097 -0.8071
   17MOL0     C 2190   1.357   0.094   7.073 -0.2064 -0.6668 -0.3578
   17MOL0     O 2191   1.244   0.143   7.132 -0.3698 -0.0436  0.4252
   17MOL0     C 2192   1.157   0.045   7.151  0.0676  0.1411  0.1075
   17MOL0     C 2193   1.122   0.015   7.282  0.3772 -0.5527 -0.4239
   17MOL0     C 2194   1.012  -0.069   7.307  0.3575  0.4356 -0.1359
   17MOL0     C 2195   0.931  -0.121   7.209  0.1625 -0.0052 -1.1156
   17MOL0     O 2196   0.813  -0.184   7.239  0.3453  0.7658 -0.7396
   17MOL0     C 2197   0.745  -0.168   7.369  0.8118  0.2744  0.1644
   17MOL0     C 2198   0.611  -0.250   7.364 -0.2392 -0.0106  0.4007
   17MOL0     C 2199   0.511  -0.210   7.252  0.0175  0.5194 -0.7154
   17MOL0     C 2200   0.374  -0.253   7.308 -0.4635 -0.3199  0.0999
   17MOL0     C 2201   0.256  -0.253   7.204 -0.0554  0.0565  0.0543
   17MOL0     C 2202   0.245  -0.368   7.104 -0.4078  0.1530 -0.3261
   17MOL0     C 2203   0.113  -0.365   7.017 -0.0489 -1.1071  0.3582
   17MOL0     C 2204   0.083  -0.499   6.947 -1.2591  0.2596 -0.7112
   17MOL0    Cl 2205   0.091  -0.638   7.067 -0.6034  0.0223  0.3890
   17MOL0     C 2206   0.975  -0.097   7.082 -0.1372  1.2094  0.4612
   17MOL0     C 2207   1.090  -0.020   7.049 -0.4785 -0.2073  1.0020
   17MOL0     O 2208   1.401  -0.025   7.092  0.2610 -0.5059 -0.3227
   17MOL0     C 2209   1.338   0.244   6.886  0.8705 -0.3521 -0.4587
   17MOL0     C 2210   1.388   0.336   6.793  0.3686  0.0646 -0.7541
   17MOL0     N 2211   1.726   0.994   6.392 -0.5453  0.1549 -0.2076
   17MOL0     N 2212   1.854   1.008   6.413  0.1304  0.3728  0.4514
   17MOL0     C 2213   3.034   1.006   6.042  0.5827  0.1595 -0.1431
   17MOL0     C 2214   3.151   1.057   5.994  0.3861  0.3855 -0.2567
   17MOL0     C 2215   3.457   1.279   5.755  0.6935 -0.4040 -0.1117
   17MOL0     C 2216   3.557   1.195   5.708  0.0341 -1.2410  0.3986
   17MOL0     C 2217   3.679   1.245   5.664 -0.1252 -0.0699 -0.0549
   17MOL0     C 2218   3.697   1.383   5.647 -0.6200  0.0162 -0.6077
   17MOL0     O 2219   3.814   1.431   5.596  0.6475  0.6485  0.3072
   17MOL0     C 2220   3.822   1.569   5.574  0.4094  0.2428  0.6211
   17MOL0     C 2221   3.960   1.578   5.507  0.2815  0.0165 -0.4345
   17MOL0     C 2222   4.070   1.537   5.596  0.2181  0.4112 -0.6767
   17MOL0     C 2223   4.209   1.539   5.534 -1.3349 -0.2117  0.2583
   17MOL0     C 2224   4.211   1.413   5.457 -0.2485  0.1298  1.1649
   17MOL0     C 2225   4.230   1.313   5.390  0.6999  0.4550 -0.1671
   17MOL0     C 2226   3.594   1.468   5.692 -0.2509  0.0883  0.3841
   17MOL0     C 2227   3.479   1.417   5.752  0.5929  0.8945  0.2373
   17MOL0     H 2228   3.102   0.997   5.669 -1.1092 -2.5358 -0.0794
   17MOL0     H 2229   2.894   0.923   5.750 -0.5498  0.1436 -0.4237
   17MOL0     H 2230   2.908   0.802   6.153  1.0627  0.8678 -3.4810
   17MOL0     H 2231   2.773   0.928   6.186 -2.5588 -0.5181 -1.1698
   17MOL0     H 2232   2.718   0.675   6.035 -2.1149  0.6946 -0.8938
   17MOL0     H 2233   2.726   0.670   6.207  1.2477 -0.2626 -1.1730
   17MOL0     H 2234   2.541   0.853   6.213  2.0044  1.5290 -1.2718
   17MOL0     H 2235   2.541   0.844   6.044 -1.2302  0.3593  0.2404
   17MOL0     H 2236   2.482   0.600   6.041 -0.7328 -0.4790  1.0651
   17MOL0     H 2237   2.462   0.604   6.213  0.2059 -0.2427 -0.2369
   17MOL0     H 2238   2.306   0.811   6.040  3.6241  0.7264  0.0849
   17MOL0     H 2239   2.250   0.647   6.084  2.0963 -2.2274  0.5152
   17MOL0     H 2240   2.323   0.728   6.332 -1.6833 -0.5190  1.1735
   17MOL0     H 2241   2.311   0.893   6.261 -1.2680  0.0911  1.1787
   17MOL0     H 2242   2.078   0.848   6.177  0.6379  1.4789  0.0213
   17MOL0     H 2243   2.091   0.695   6.272 -1.5024  0.3395  1.9080
   17MOL0     H 2244   2.115   0.982   6.386 -1.0086 -0.0963 -1.6951
   17MOL0     H 2245   2.109   0.841   6.479 -0.2349  0.4562  0.6594
   17MOL0     H 2246   1.839   0.697   6.312 -1.7728  0.1967 -2.1701
   17MOL0     H 2247   1.506   0.853   6.280  0.1318 -3.4019 -4.2917
   17MOL0     H 2248   1.595   0.701   6.280 -1.6188  0.2052 -0.2874
   17MOL0     H 2249   1.412   0.721   6.458  0.5036 -1.8854 -0.4545
   17MOL0     H 2250   1.515   0.832   6.547 -2.6077  0.8923 -0.4202
   17MOL0     H 2251   1.674   0.665   6.595  0.5918 -0.4790 -1.3473
   17MOL0     H 2252   1.629   0.571   6.455  0.7594  1.1726 -0.4707
   17MOL0     H 2253   1.454   0.472   6.563  1.5607 -1.1924  0.3383
   17MOL0     H 2254   1.425   0.596   6.681 -0.0812 -0.2818 -1.2326
   17MOL0     H 2255   1.703   0.355   6.907 -1.7016 -0.3913  1.4273
   17MOL0     H 2256   1.747   0.174   7.055 -0.1332  1.3062  0.3019
   17MOL0     H 2257   1.639   0.256   7.182  0.0279  0.2842  0.6499
   17MOL0     H 2258   1.624   0.087   7.151 -2.1669  1.6554  2.8660
   17MOL0     H 2259   1.160   0.062   7.372  0.4463 -2.6896  0.7317
   17MOL0     H 2260   0.991  -0.095   7.410 -0.9046 -1.6590 -0.8553
   17MOL0     H 2261   0.819  -0.211   7.437  1.4366  0.1918 -0.5640
   17MOL0     H 2262   0.730  -0.061   7.388  0.8189  0.9567 -3.1409
   17MOL0     H 2263   0.638  -0.354   7.346  1.0919  0.3598  0.1941
   17MOL0     H 2264   0.567  -0.244   7.464 -1.3743  0.1873 -0.0958
   17MOL0     H 2265   0.529  -0.263   7.158  0.3191  0.8604 -0.8555
   17MOL0     H 2266   0.520  -0.103   7.228 -0.9774  0.6962 -0.3163
   17MOL0     H 2267   0.392  -0.351   7.353 -0.1333  0.1542  1.0091
   17MOL0     H 2268   0.345  -0.192   7.394 -0.2523 -0.1928  0.0818
   17MOL0     H 2269   0.278  -0.159   7.152  0.1999  0.8489  1.5147
   17MOL0     H 2270   0.159  -0.248   7.254 -1.1441 -2.1481 -1.6848
   17MOL0     H 2271   0.342  -0.378   7.056 -0.3260 -3.5367  0.2869
   17MOL0     H 2272   0.242  -0.458   7.167  2.8805  0.8388  1.0356
   17MOL0     H 2273   0.111  -0.281   6.947 -1.6176 -0.3611  1.2602
   17MOL0     H 2274   0.023  -0.357   7.079 -0.3689 -0.7200 -0.1456
   17MOL0     H 2275   0.151  -0.512   6.863 -0.9163  0.2737 -0.4390
   17MOL0     H 2276  -0.018  -0.509   6.906 -1.8220  0.2067  0.6095
   17MOL0     H 2277   0.913  -0.131   7.000  0.1490  0.7305  0.4366
   17MOL0     H 2278   1.112  -0.004   6.944 -1.5162 -0.2281  0.7806
   17MOL0     H 2279   1.234   0.215   6.892  1.3821 -2.6025 -1.3987
   17MOL0     H 2280   1.314   0.379   6.726 -1.2159 -0.1360  0.7965
   17MOL0     H 2281   3.014   1.011   6.149  1.9351 -0.3521  0.1657
   17MOL0     H 2282   3.215   1.095   6.073 -1.2150  2.8021 -0.0445
   17MOL0     H 2283   3.544   1.087   5.710  1.1917 -1.4230 -0.7609
   17MOL0     H 2284   3.761   1.180   5.635  2.0115  2.6111 -0.3684
   17MOL0     H 2285   3.740   1.615   5.518 -0.3300 -1.5191  0.2194
   17MOL0     H 2286   3.817   1.625   5.668  0.0080 -0.7587  1.2069
   17MOL0     H 2287   3.982   1.682   5.479 -2.9995  1.2541  1.0250
   17MOL0     H 2288   3.968   1.513   5.419  1.1084 -0.4689 -0.0122
   17MOL0     H 2289   4.050   1.436   5.633 -2.0676  1.4415  1.1278
   17MOL0     H 2290   4.073   1.606   5.680  0.5581 -1.7025  1.1522
   17MOL0     H 2291   4.276   1.534   5.621 -3.3742  0.6523  1.9691
   17MOL0     H 2292   4.219   1.624   5.466  3.0831  0.9833  2.0514
   17MOL0     H 2293   4.261   1.226   5.335  1.6208 -1.5482  3.1847
   17MOL0     H 2294   3.613   1.575   5.693  0.7941 -0.0085 -2.0464
   17MOL0     H 2295   3.410   1.491   5.792 -2.3595 -1.2106 -0.6233
   18MOL0     O 2296   1.612   0.345   5.782 -0.2375 -0.1001  0.3218
   18MOL0     C 2297   1.626   0.231   5.738  0.0976  0.1346 -0.4938
   18MOL0     O 2298   1.529   0.142   5.716  0.5785 -0.2280 -0.1293
   18MOL0     C 2299   1.393   0.176   5.715 -0.1811 -0.3432 -0.9605
   18MOL0     C 2300   1.299   0.069   5.725 -0.3474  0.7644 -0.5742
   18MOL0     C 2301   1.158   0.092   5.709 -0.0103  0.3261 -0.0942
   18MOL0     C 2302   1.103   0.218   5.681 -0.2073 -0.0526  0.3053
   18MOL0     O 2303   0.968   0.241   5.672  0.0101  0.2832  0.0844
   18MOL0     C 2304   0.884   0.161   5.756 -0.3377  0.2243  0.1651
   18MOL0     C 2305   0.739   0.199   5.740 -0.4443  0.5960  0.3328
   18MOL0     C 2306   0.628   0.098   5.782 -0.4573 -0.6952 -0.1554
   18MOL0     C 2307   0.486   0.144   5.751 -0.7368  0.3362  0.7593
   18MOL0     C 2308   0.384   0.063   5.818  0.4090 -0.4173  0.7327
   18MOL0     C 2309   0.236   0.105   5.796 -0.3462 -0.0799 -0.2391
   18MOL0     C 2310   0.145   0.007   5.865 -0.0088 -0.3653 -0.1312
   18MOL0     C 2311   0.006   0.075   5.886 -0.2956  0.2615 -0.3492
   18MOL0     N 2312  -0.107  -0.014   5.917  0.4226 -0.5369  0.3555
   18MOL0     C 2313  -0.088  -0.117   6.006  0.1760 -0.3188  0.2755
   18MOL0     C 2314  -0.206  -0.192   5.996  0.2227 -0.5658  0.0573
   18MOL0     C 2315  -0.256  -0.324   6.043  0.2300  0.1465  0.7153
   18MOL0     C 2316  -0.381  -0.317   6.139  0.2175 -0.5723  0.1879
   18MOL0     C 2317  -0.417  -0.459   6.188  0.1903  0.2558 -0.3857
   18MOL0     C 2318  -0.550  -0.464   6.264 -0.3193  0.1797 -0.7237
   18MOL0     O 2319  -0.545  -0.552   6.380 -0.3100  1.4584 -0.2181
   18MOL0     C 2320  -0.664  -0.582   6.444 -0.1164  0.2404 -0.1546
   18MOL0     C 2321  -0.650  -0.661   6.562  0.2200 -0.6342 -0.2966
   18MOL0     C 2322  -0.752  -0.700   6.651  1.0387 -0.1700 -0.0047
   18MOL0     C 2323  -0.722  -0.777   6.780  0.7009  0.6916  0.2144
   18MOL0     C 2324  -0.887  -0.667   6.607 -0.1653  0.4092  0.3140
   18MOL0     C 2325  -1.008  -0.719   6.666  0.3094  0.4004  0.8500
   18MOL0     O 2326  -0.997  -0.839   6.742  0.0775 -0.6929  0.7548
   18MOL0     C 2327  -1.115  -0.907   6.764 -0.5321 -0.4440 -1.0300
   18MOL0     C 2328  -1.209  -0.953   6.673  0.6502  0.8376 -0.3622
   18MOL0     C 2329  -1.323  -1.022   6.719  0.2290  0.0772  0.0741
   18MOL0     C 2330  -1.354  -1.043   6.850 -0.5397 -1.0935 -0.4091
   18MOL0     O 2331  -1.465  -1.117   6.876  1.2049  0.0263 -0.5552
   18MOL0     C 2332  -1.471  -1.168   7.007  1.2079  0.3128 -0.4942
   18MOL0     C 2333  -1.600  -1.252   7.023 -0.1922 -0.6055  0.5881
   18MOL0     C 2334  -1.598  -1.381   6.943 -0.1441  0.4543 -0.0883
   18MOL0     C 2335  -1.457  -1.446   6.927  1.0952 -0.0998  0.8035
   18MOL0     C 2336  -1.468  -1.588   6.863 -0.8197 -0.7421  0.5960
   18MOL0     C 2337  -1.325  -1.651   6.861 -0.0526  0.0403  0.0130
   18MOL0     C 2338  -1.344  -1.798   6.804 -0.4330 -0.7463  0.5963
   18MOL0     C 2339  -1.230  -1.863   6.731  0.1283 -0.1164 -0.6141
   18MOL0    Cl 2340  -1.154  -1.786   6.591 -0.0352 -0.1468 -0.0951
   18MOL0     C 2341  -1.270  -0.985   6.944  0.0502 -0.1334 -0.2758
   18MOL0     C 2342  -1.150  -0.926   6.903 -0.4911 -0.1722  0.2087
   18MOL0     O 2343  -1.111  -0.651   6.646 -0.5584 -0.6547  0.2864
   18MOL0     C 2344  -0.904  -0.597   6.488  0.7339  0.9690  0.0349
   18MOL0     C 2345  -0.796  -0.551   6.418  0.7088  0.5666 -0.4956
   18MOL0     N 2346  -0.291  -0.128   5.915  0.0685 -0.6947 -0.2652
   18MOL0     N 2347  -0.234  -0.027   5.861 -0.8275 -0.6009 -0.0457
   18MOL0     C 2348   1.200   0.326   5.673 -0.6388 -0.2891 -0.3932
   18MOL0     C 2349   1.341   0.299   5.677 -0.1137 -0.0091  0.1163
   18MOL0     C 2350   1.761   0.171   5.716 -0.5188 -0.5263 -0.1839
   18MOL0     C 2351   1.793   0.050   5.657  0.2246  0.5647 -0.0513
   18MOL0     C 2352   1.922  -0.001   5.647  0.1342  0.1822  0.0077
   18MOL0     C 2353   2.028   0.084   5.683 -0.6960  0.5130 -0.9967
   18MOL0     O 2354   2.155   0.034   5.658  0.9328 -0.5262  0.0012
   18MOL0     C 2355   2.262   0.126   5.686  0.1041  0.2031  0.3928
   18MOL0     C 2356   2.394   0.058   5.657 -0.1170  0.1986  0.2140
   18MOL0     C 2357   2.507   0.154   5.640  0.5649  0.1670  0.4181
   18MOL0     C 2358   2.638   0.085   5.628  0.9555  0.8294 -0.3820
   18MOL0     C 2359   2.698   0.047   5.755 -0.2458 -0.2173  0.2717
   18MOL0     C 2360   2.738  -0.002   5.861 -1.3775  0.0991  0.2258
   18MOL0     C 2361   2.002   0.213   5.745  0.3815 -0.0594  0.0654
   18MOL0     C 2362   1.873   0.246   5.767 -0.2649 -0.3370 -0.0696
   18MOL0     H 2363   1.332  -0.033   5.737 -2.7465 -0.0368 -0.2797
   18MOL0     H 2364   1.094   0.006   5.694 -3.2524  2.7899 -1.4716
   18MOL0     H 2365   0.896   0.053   5.747  3.5946  0.7118 -3.8236
   18MOL0     H 2366   0.899   0.192   5.860  1.0786  1.0278 -0.2578
   18MOL0     H 2367   0.730   0.293   5.794 -2.5153  1.1046 -0.7886
   18MOL0     H 2368   0.729   0.216   5.632  0.6638 -0.4242  0.0496
   18MOL0     H 2369   0.638  -0.004   5.743 -1.0395  0.2660 -3.0605
   18MOL0     H 2370   0.636   0.086   5.891  2.7475  2.1703  0.0951
   18MOL0     H 2371   0.461   0.243   5.791 -1.5204  0.8422 -0.9235
   18MOL0     H 2372   0.487   0.152   5.642  1.8936 -1.0122  0.6182
   18MOL0     H 2373   0.392  -0.039   5.779 -1.2478 -0.0937 -0.5961
   18MOL0     H 2374   0.414   0.065   5.923  0.4795  0.0997  0.7019
   18MOL0     H 2375   0.226   0.204   5.841  1.6681  0.3068 -0.5444
   18MOL0     H 2376   0.215   0.109   5.688  1.2385 -0.6391 -0.5898
   18MOL0     H 2377   0.128  -0.090   5.817  1.6654 -1.2657  1.0005
   18MOL0     H 2378   0.178  -0.002   5.969  4.2065  0.7074 -1.1743
   18MOL0     H 2379  -0.013   0.133   5.795 -2.3233  1.5907  0.8553
   18MOL0     H 2380   0.019   0.144   5.969  0.3426  1.7740 -1.6440
   18MOL0     H 2381  -0.006  -0.159   6.064  1.4284  1.2943 -0.2567
   18MOL0     H 2382  -0.280  -0.386   5.956  0.5437  0.6037  0.3007
   18MOL0     H 2383  -0.173  -0.378   6.090  0.3689 -0.7111 -0.4805
   18MOL0     H 2384  -0.458  -0.273   6.076 -0.2248 -1.1540  0.3133
   18MOL0     H 2385  -0.361  -0.239   6.213  0.5020 -0.4947  0.0284
   18MOL0     H 2386  -0.335  -0.491   6.253  0.8852  1.5379 -0.6136
   18MOL0     H 2387  -0.435  -0.524   6.102 -2.8474  0.9442 -0.4081
   18MOL0     H 2388  -0.624  -0.503   6.194  1.7939  0.9441 -3.5481
   18MOL0     H 2389  -0.574  -0.362   6.294  1.5681  0.3536  0.3494
   18MOL0     H 2390  -0.552  -0.688   6.600  0.2923  0.0133 -0.0042
   18MOL0     H 2391  -0.766  -0.724   6.865 -3.5328  0.7093 -1.7358
   18MOL0     H 2392  -0.761  -0.878   6.769 -2.9328  1.6684  2.3211
   18MOL0     H 2393  -0.614  -0.791   6.794  0.9054  1.0549 -0.8978
   18MOL0     H 2394  -1.195  -0.941   6.566  0.0570  2.0012 -0.3146
   18MOL0     H 2395  -1.396  -1.058   6.647  0.2803  1.8106 -0.8870
   18MOL0     H 2396  -1.376  -1.219   7.028  0.9826 -0.2791 -0.8837
   18MOL0     H 2397  -1.483  -1.089   7.081  1.9337  0.5177 -0.5860
   18MOL0     H 2398  -1.624  -1.274   7.127 -2.6765 -2.4778 -0.3053
   18MOL0     H 2399  -1.681  -1.190   6.984  0.1205  1.1304  2.4893
   18MOL0     H 2400  -1.653  -1.370   6.850  0.6107  1.4034 -0.4324
   18MOL0     H 2401  -1.663  -1.447   7.001 -0.4582  0.5692 -0.3081
   18MOL0     H 2402  -1.399  -1.379   6.864 -1.6377  3.4664  1.7408
   18MOL0     H 2403  -1.412  -1.459   7.025 -2.1020 -0.6150  2.3613
   18MOL0     H 2404  -1.495  -1.578   6.758  1.2762 -1.0392 -0.0248
   18MOL0     H 2405  -1.533  -1.651   6.925  0.4438 -3.1253 -0.3627
   18MOL0     H 2406  -1.255  -1.591   6.801 -2.1479  1.3187 -1.3252
   18MOL0     H 2407  -1.296  -1.662   6.966 -1.3343 -0.7226  0.3050
   18MOL0     H 2408  -1.428  -1.794   6.735 -2.0471 -1.0514  2.4603
   18MOL0     H 2409  -1.368  -1.853   6.896 -0.4302 -1.2661  0.2885
   18MOL0     H 2410  -1.257  -1.964   6.701 -3.4821  0.3135  0.7033
   18MOL0     H 2411  -1.140  -1.877   6.792  3.8490  0.4171 -5.4184
   18MOL0     H 2412  -1.288  -0.985   7.051  2.3105 -0.9057  0.1398
   18MOL0     H 2413  -1.082  -0.879   6.973 -0.8440  0.7047 -0.0185
   18MOL0     H 2414  -1.003  -0.584   6.443  0.1467 -1.3165  0.5545
   18MOL0     H 2415  -0.801  -0.491   6.327 -1.3410 -2.1023 -2.3016
   18MOL0     H 2416   1.159   0.426   5.660 -0.0509  0.1670  1.0719
   18MOL0     H 2417   1.410   0.380   5.657  0.6966  0.0885  2.9341
   18MOL0     H 2418   1.707  -0.011   5.629 -1.0853  1.0045  2.6732
   18MOL0     H 2419   1.944  -0.101   5.612 -1.6514  0.2339 -1.4114
   18MOL0     H 2420   2.264   0.209   5.615  3.2758 -1.0355 -1.1196
   18MOL0     H 2421   2.256   0.174   5.784 -2.2606  0.1112  0.3488
   18MOL0     H 2422   2.386   0.008   5.560 -1.6540 -0.6193  0.7439
   18MOL0     H 2423   2.423  -0.016   5.732  2.1547  2.6407  1.9571
   18MOL0     H 2424   2.523   0.220   5.725  1.2737  1.1557 -0.4466
   18MOL0     H 2425   2.497   0.205   5.544  4.0019  0.3876  0.0520
   18MOL0     H 2426   2.712   0.150   5.581  2.6730 -0.4250  0.4624
   18MOL0     H 2427   2.625  -0.002   5.563  2.9695  0.8276 -0.8469
   18MOL0     H 2428   2.779  -0.048   5.949 -0.3140  0.4291 -0.0842
   18MOL0     H 2429   2.068   0.284   5.795 -2.7371  3.4697 -0.4090
   18MOL0     H 2430   1.844   0.342   5.809  0.3188  0.0058 -0.4397
   19MOL0     O 2431   1.662   7.229   0.892  0.0280 -0.5467  0.8020
   19MOL0     C 2432   1.704   7.343   0.908 -1.1444 -0.6567  0.0779
   19MOL0     O 2433   1.629   7.453   0.954 -0.7863  0.3492 -0.4838
   19MOL0     C 2434   1.498   7.425   0.964  0.8974  0.6763  0.9130
   19MOL0     C 2435   1.408   7.459   0.857 -0.2244  0.8333  0.0294
   19MOL0     C 2436   1.268   7.429   0.870 -0.1684  0.3295  0.4322
   19MOL0     C 2437   1.222   7.374   0.988 -0.1874 -0.0818  0.1575
   19MOL0     O 2438   1.094   7.322   1.006  0.2400 -0.0584 -0.1697
   19MOL0     C 2439   1.002   7.335   0.893 -0.0962 -0.3431  0.4148
   19MOL0     C 2440   0.876   7.273   0.935 -0.4039  0.4788 -0.6031
   19MOL0     C 2441   0.767   7.294   0.832  0.5955 -0.0991  0.4430
   19MOL0     C 2442   0.708   7.440   0.815 -0.2202  0.6238 -0.0003
   19MOL0     C 2443   0.569   7.463   0.759  0.4357  0.0748 -0.3817
   19MOL0     C 2444   0.554   7.419   0.608  0.6668 -0.9321  0.3152
   19MOL0     C 2445   0.406   7.400   0.573  0.5173  0.1880 -0.3724
   19MOL0     C 2446   0.350   7.264   0.616  0.0305  0.3903 -0.2014
   19MOL0     N 2447   0.211   7.242   0.575  0.0533  0.1336 -0.4212
   19MOL0     C 2448   0.102   7.242   0.657  0.9530 -0.8412 -0.6472
   19MOL0     C 2449  -0.002   7.202   0.585 -0.0305 -0.7993 -0.0463
   19MOL0     C 2450  -0.140   7.175   0.639 -0.9508  0.1219  0.3063
   19MOL0     C 2451  -0.243   7.256   0.562  0.4838  0.5364  0.2651
   19MOL0     C 2452  -0.390   7.203   0.589  0.1517 -0.4679  0.2358
   19MOL0     C 2453  -0.489   7.289   0.503 -0.5055  0.4059 -0.5750
   19MOL0     O 2454  -0.617   7.236   0.537 -0.2252  0.0546  0.1910
   19MOL0     C 2455  -0.724   7.304   0.485 -0.0384  1.0317  0.0794
   19MOL0     C 2456  -0.731   7.379   0.369  0.0475  0.9588 -0.1181
   19MOL0     C 2457  -0.848   7.447   0.332  0.3427 -0.2952 -0.3314
   19MOL0     C 2458  -0.837   7.532   0.212  0.2057 -0.4133 -0.3915
   19MOL0     C 2459  -0.962   7.426   0.409  0.5519 -0.7233 -1.3546
   19MOL0     C 2460  -1.096   7.488   0.377  0.2369 -0.0261 -0.3148
   19MOL0     O 2461  -1.096   7.608   0.311 -0.6793  0.7381  0.0346
   19MOL0     C 2462  -1.216   7.663   0.298  0.2512 -0.4637 -1.0351
   19MOL0     C 2463  -1.313   7.621   0.211  0.4279  0.9452 -0.6811
   19MOL0     C 2464  -1.439   7.683   0.191 -0.2403 -0.9434  0.1718
   19MOL0     C 2465  -1.467   7.799   0.265 -0.8693 -0.5487  0.8415
   19MOL0     O 2466  -1.581   7.857   0.229  0.2688 -0.5272  0.1907
   19MOL0     C 2467  -1.613   7.988   0.295 -0.0318  0.8080  0.6760
   19MOL0     C 2468  -1.757   8.016   0.251 -0.6464 -0.8041  0.2916
   19MOL0     C 2469  -1.804   8.137   0.322 -0.0448 -0.0229  0.4567
   19MOL0     C 2470  -1.904   8.113   0.435 -0.3357 -1.0438 -0.1752
   19MOL0     C 2471  -1.956   8.244   0.494  0.0466 -0.2070 -0.3298
   19MOL0     C 2472  -2.055   8.315   0.400 -0.0009  0.2100 -0.0204
   19MOL0     C 2473  -2.101   8.441   0.459  0.0310 -0.0021  0.5837
   19MOL0     C 2474  -2.222   8.412   0.547 -0.1896  1.0969  0.4137
   19MOL0    Cl 2475  -2.313   8.563   0.590 -0.3025  0.0520 -0.2471
   19MOL0     C 2476  -1.374   7.843   0.358  0.1944 -1.0359  0.2164
   19MOL0     C 2477  -1.246   7.781   0.366 -0.1358 -0.1485 -0.7435
   19MOL0     O 2478  -1.196   7.420   0.411 -0.3893  0.7035  0.7024
   19MOL0     C 2479  -0.954   7.345   0.524 -0.9424  0.4419 -0.2274
   19MOL0     C 2480  -0.832   7.291   0.563  0.4084 -0.8522  0.5102
   19MOL0     N 2481   0.046   7.173   0.460 -0.4825 -0.7990 -0.0248
   19MOL0     N 2482   0.172   7.200   0.456  0.4492 -0.4903 -0.1586
   19MOL0     C 2483   1.314   7.347   1.094  0.0856 -0.7237  0.3451
   19MOL0     C 2484   1.449   7.371   1.082 -0.3106  0.2812 -0.5084
   19MOL0     C 2485   1.849   7.356   0.888  0.7022 -0.2747 -0.0444
   19MOL0     C 2486   1.908   7.480   0.918  0.2295  0.5788 -0.1703
   19MOL0     C 2487   2.041   7.502   0.888 -0.3515  0.3554  0.4156
   19MOL0     C 2488   2.118   7.407   0.821 -0.3405 -1.2420 -0.1431
   19MOL0     O 2489   2.244   7.438   0.785 -0.3945  0.1962  0.2781
   19MOL0     C 2490   2.263   7.527   0.669  0.1343  0.6325 -0.3387
   19MOL0     C 2491   2.419   7.531   0.632 -0.0765 -0.5360 -0.2433
   19MOL0     C 2492   2.429   7.598   0.495 -0.9698 -0.0004 -0.2831
   19MOL0     C 2493   2.578   7.625   0.453 -0.4663 -0.7843 -0.0160
   19MOL0     C 2494   2.610   7.751   0.513 -0.3550  0.3691 -0.3505
   19MOL0     C 2495   2.653   7.854   0.562 -0.1838  0.5709  0.2413
   19MOL0     C 2496   2.058   7.294   0.782  1.0598 -0.2488 -0.1095
   19MOL0     C 2497   1.927   7.265   0.812  0.3134 -0.2767  0.3092
   19MOL0     H 2498   1.446   7.501   0.764  1.6762 -0.2540  0.2670
   19MOL0     H 2499   1.209   7.451   0.782 -0.4392 -0.0969  0.5048
   19MOL0     H 2500   0.987   7.439   0.861 -3.4200 -0.6122  0.7889
   19MOL0     H 2501   1.037   7.279   0.806  1.3223 -2.4902  2.2583
   19MOL0     H 2502   0.895   7.166   0.952 -0.1339  0.5980 -0.1403
   19MOL0     H 2503   0.846   7.316   1.031 -1.4039 -1.2012 -0.1154
   19MOL0     H 2504   0.788   7.260   0.730 -1.2426 -2.5681  0.7831
   19MOL0     H 2505   0.686   7.226   0.861  2.1502 -2.6050 -0.7081
   19MOL0     H 2506   0.699   7.486   0.914  1.8415  0.9804  0.0724
   19MOL0     H 2507   0.778   7.496   0.752  0.9133  0.5930  1.1732
   19MOL0     H 2508   0.498   7.409   0.822 -0.0143  0.2506 -0.7265
   19MOL0     H 2509   0.551   7.570   0.772  3.0041  0.5472 -0.2773
   19MOL0     H 2510   0.609   7.487   0.543 -0.5308 -0.1578  0.0856
   19MOL0     H 2511   0.597   7.319   0.604  0.4139 -1.0187 -3.1053
   19MOL0     H 2512   0.350   7.482   0.619  1.6319  1.4315 -1.1559
   19MOL0     H 2513   0.404   7.417   0.465 -0.3841  0.6565 -0.2947
   19MOL0     H 2514   0.370   7.240   0.721 -3.1318  1.7210  0.8138
   19MOL0     H 2515   0.414   7.196   0.559  0.0621  0.8725 -0.7567
   19MOL0     H 2516   0.107   7.259   0.764  0.5347 -0.9698 -0.6022
   19MOL0     H 2517  -0.155   7.068   0.621  0.2431  0.3839 -2.7870
   19MOL0     H 2518  -0.148   7.203   0.745 -0.8278  2.1541 -0.1746
   19MOL0     H 2519  -0.232   7.243   0.454 -0.2020 -0.7935  0.3409
   19MOL0     H 2520  -0.245   7.363   0.583 -1.7370  0.7948 -1.0027
   19MOL0     H 2521  -0.412   7.214   0.696  1.3309  2.0374  0.3074
   19MOL0     H 2522  -0.395   7.099   0.557  2.0504 -0.3868 -0.4780
   19MOL0     H 2523  -0.464   7.279   0.397  1.6436  2.5568 -0.3633
   19MOL0     H 2524  -0.483   7.394   0.532  1.8475  0.5144 -1.2421
   19MOL0     H 2525  -0.641   7.390   0.309  0.9712 -1.8555  0.5703
   19MOL0     H 2526  -0.748   7.525   0.149 -1.6224 -1.5178 -3.0250
   19MOL0     H 2527  -0.920   7.520   0.142 -1.7368  1.6690  1.3888
   19MOL0     H 2528  -0.841   7.637   0.244 -2.5170 -1.2554  2.5551
   19MOL0     H 2529  -1.289   7.539   0.144 -1.4507  1.7157 -2.4234
   19MOL0     H 2530  -1.525   7.649   0.133 -0.3239  1.2777 -1.1309
   19MOL0     H 2531  -1.612   7.976   0.403 -1.5685 -0.7089  0.5715
   19MOL0     H 2532  -1.542   8.065   0.266 -1.2611  0.6081 -3.6673
   19MOL0     H 2533  -1.762   8.042   0.145 -1.9068  0.6977  0.6834
   19MOL0     H 2534  -1.818   7.929   0.272 -2.2025 -0.3630 -1.9946
   19MOL0     H 2535  -1.864   8.191   0.248 -2.2481 -1.4450  1.0938
   19MOL0     H 2536  -1.717   8.196   0.350 -0.1219 -0.0762  0.8179
   19MOL0     H 2537  -1.991   8.055   0.402 -1.2447 -1.3997  2.5566
   19MOL0     H 2538  -1.846   8.060   0.511  0.6269  0.8931  0.4914
   19MOL0     H 2539  -1.864   8.299   0.515 -0.6550  0.6120  0.6835
   19MOL0     H 2540  -1.998   8.230   0.594  0.9120  0.2146  0.1082
   19MOL0     H 2541  -1.999   8.340   0.309 -0.9897 -2.8659 -1.5976
   19MOL0     H 2542  -2.142   8.252   0.377 -1.9223  2.5503  0.3758
   19MOL0     H 2543  -2.131   8.496   0.369  3.0645  0.3909 -0.2902
   19MOL0     H 2544  -2.017   8.489   0.510 -0.2477  0.0199  1.0260
   19MOL0     H 2545  -2.202   8.347   0.632  1.7575  0.1315 -0.7206
   19MOL0     H 2546  -2.296   8.367   0.480  0.7859  0.2023 -0.0719
   19MOL0     H 2547  -1.389   7.920   0.433  1.1563 -1.6266  1.0387
   19MOL0     H 2548  -1.175   7.835   0.429 -0.7453 -1.4057  1.1269
   19MOL0     H 2549  -1.041   7.329   0.586 -1.3640 -0.4232 -1.0199
   19MOL0     H 2550  -0.825   7.241   0.659 -1.1228  2.1351  2.3338
   19MOL0     H 2551   1.275   7.307   1.187  1.4199 -0.8940  0.8422
   19MOL0     H 2552   1.521   7.356   1.161 -2.9252  0.4334  2.0997
   19MOL0     H 2553   1.851   7.561   0.963 -0.1554  2.0517 -3.0537
   19MOL0     H 2554   2.093   7.588   0.928  2.1047 -0.6039 -0.5691
   19MOL0     H 2555   2.213   7.491   0.578  1.7883  0.6996 -1.3188
   19MOL0     H 2556   2.229   7.630   0.683 -0.6989  0.8579 -3.3887
   19MOL0     H 2557   2.449   7.427   0.614 -1.9042 -0.9154 -1.3472
   19MOL0     H 2558   2.474   7.584   0.710  1.0693  0.2486 -1.5500
   19MOL0     H 2559   2.366   7.686   0.484  1.4139  2.2647  2.5093
   19MOL0     H 2560   2.391   7.525   0.423  0.4406 -0.3367 -0.7133
   19MOL0     H 2561   2.589   7.632   0.344  3.8004  0.0184  0.3321
   19MOL0     H 2562   2.643   7.543   0.484 -0.2442 -0.8764 -0.7037
   19MOL0     H 2563   2.685   7.950   0.595  1.1135 -0.2895  1.6218
   19MOL0     H 2564   2.110   7.234   0.708  1.9202  0.8814 -0.4579
   19MOL0     H 2565   1.889   7.171   0.775 -0.6633  1.0808 -2.4207
   20MOL0     O 2566   2.042   4.257   8.116 -0.0879 -0.0682 -0.1252
   20MOL0     C 2567   2.132   4.222   8.039  0.7667  0.2595 -0.5210
   20MOL0     O 2568   2.120   4.116   7.954  0.5211 -0.0151 -0.4348
   20MOL0     C 2569   1.996   4.060   7.957 -0.3167  0.6564 -0.5598
   20MOL0     C 2570   1.961   3.949   8.036  0.1172  0.2605 -0.6702
   20MOL0     C 2571   1.834   3.900   8.047  0.6105 -0.9737  0.0498
   20MOL0     C 2572   1.729   3.953   7.965  0.6353  0.1186 -0.7477
   20MOL0     O 2573   1.592   3.923   7.972 -0.5135 -0.6045  0.3989
   20MOL0     C 2574   1.536   3.878   8.102 -0.5522 -0.2355  0.5094
   20MOL0     C 2575   1.395   3.940   8.101 -0.4027  0.7192 -1.1990
   20MOL0     C 2576   1.388   4.095   8.107 -0.2238  0.9450 -0.0647
   20MOL0     C 2577   1.247   4.153   8.062  0.0736  0.4977 -0.8229
   20MOL0     C 2578   1.245   4.302   8.088 -0.0724  0.0956  0.4646
   20MOL0     C 2579   1.108   4.362   8.068  0.8353  0.8479 -0.2533
   20MOL0     C 2580   1.110   4.518   8.051  0.2808 -0.3358 -0.7787
   20MOL0     C 2581   1.127   4.597   8.187  0.3396  0.3583  0.1142
   20MOL0     N 2582   1.000   4.616   8.259 -0.2301 -0.9208 -0.3361
   20MOL0     C 2583   0.885   4.665   8.209  0.3445  0.6705  0.2139
   20MOL0     C 2584   0.792   4.639   8.302 -0.1745 -0.4877  0.0742
   20MOL0     C 2585   0.654   4.678   8.285 -0.2626  0.9237  0.0361
   20MOL0     C 2586   0.633   4.832   8.288 -0.6634 -0.0055 -0.0968
   20MOL0     C 2587   0.602   4.866   8.439 -0.5473  0.0287 -0.4691
   20MOL0     C 2588   0.463   4.817   8.489  0.2268  0.4284 -0.0334
   20MOL0     O 2589   0.367   4.905   8.439  0.2158 -0.4322  0.4906
   20MOL0     C 2590   0.278   4.854   8.339  0.4141  0.6291 -0.1520
   20MOL0     C 2591   0.302   4.739   8.260 -0.3197  0.4095 -0.0267
   20MOL0     C 2592   0.203   4.684   8.183 -0.3220  0.7300 -0.1327
   20MOL0     C 2593   0.239   4.567   8.089 -0.1236  0.2264 -0.5119
   20MOL0     C 2594   0.076   4.746   8.178 -0.4491  0.3003  0.4043
   20MOL0     C 2595  -0.045   4.703   8.092  0.2119  0.0828 -0.3117
   20MOL0     O 2596  -0.138   4.798   8.055  0.2437 -0.2530  0.5846
   20MOL0     C 2597  -0.251   4.755   7.995  1.0335  0.6163  0.2203
   20MOL0     C 2598  -0.374   4.734   8.063 -1.4093  0.7553  0.2511
   20MOL0     C 2599  -0.490   4.694   7.993  0.0554  0.6612 -0.2480
   20MOL0     C 2600  -0.490   4.674   7.858  0.0815 -0.6762 -0.3236
   20MOL0     O 2601  -0.606   4.634   7.809 -0.0043 -0.5087 -0.5746
   20MOL0     C 2602  -0.622   4.639   7.669 -0.8733 -0.6730  1.1794
   20MOL0     C 2603  -0.755   4.578   7.626 -0.2982 -0.0060  0.3889
   20MOL0     C 2604  -0.776   4.610   7.479 -0.6750 -0.2522 -0.6690
   20MOL0     C 2605  -0.896   4.529   7.424  0.2898  0.9818 -0.2674
   20MOL0     C 2606  -1.022   4.593   7.473 -0.5480 -0.2818  0.4474
   20MOL0     C 2607  -1.152   4.525   7.429 -0.1474 -0.2155 -0.6611
   20MOL0     C 2608  -1.270   4.584   7.507 -0.2449  1.0108  0.0803
   20MOL0     C 2609  -1.395   4.560   7.430 -0.3994 -0.3895 -0.5981
   20MOL0    Cl 2610  -1.524   4.639   7.523 -0.3571  0.0308 -0.1500
   20MOL0     C 2611  -0.364   4.692   7.793  0.0033 -0.0251  0.1018
   20MOL0     C 2612  -0.250   4.723   7.861  0.4802  0.1539 -0.0542
   20MOL0     O 2613  -0.057   4.587   8.064  0.0294 -0.2513 -0.9288
   20MOL0     C 2614   0.055   4.863   8.255  0.5105 -0.0116  0.0605
   20MOL0     C 2615   0.151   4.921   8.326 -0.1112  0.3455  0.0908
   20MOL0     N 2616   0.857   4.594   8.409  0.4885  0.5294 -0.6860
   20MOL0     N 2617   0.980   4.582   8.388 -0.2067 -0.1632 -0.8852
   20MOL0     C 2618   1.769   4.049   7.875  0.4026  0.3844  0.4511
   20MOL0     C 2619   1.899   4.102   7.868 -0.1342  0.4169 -0.5825
   20MOL0     C 2620   2.257   4.302   8.025 -0.5235  0.4898 -0.5178
   20MOL0     C 2621   2.277   4.416   8.110 -0.7548  0.5571  0.5419
   20MOL0     C 2622   2.401   4.483   8.102  0.0536 -0.0747 -1.1677
   20MOL0     C 2623   2.501   4.446   8.014 -0.4937 -0.2363 -0.1322
   20MOL0     O 2624   2.612   4.520   8.018  0.1372  0.3497  0.8132
   20MOL0     C 2625   2.704   4.511   7.898  0.6172 -0.3386  0.5426
   20MOL0     C 2626   2.647   4.589   7.777  0.3650 -0.3576 -0.3947
   20MOL0     C 2627   2.628   4.737   7.806 -0.1643 -0.4788 -0.5792
   20MOL0     C 2628   2.520   4.808   7.729 -0.5030 -0.6366 -0.4015
   20MOL0     C 2629   2.540   4.774   7.583 -0.4593  0.1693 -0.0497
   20MOL0     C 2630   2.568   4.750   7.468 -0.6359 -0.2910 -0.3981
   20MOL0     C 2631   2.487   4.322   7.938 -0.0931 -0.6685 -0.2328
   20MOL0     C 2632   2.358   4.258   7.941 -0.6540 -0.0921  0.2714
   20MOL0     H 2633   2.036   3.913   8.106 -1.5423  2.8696  2.7571
   20MOL0     H 2634   1.812   3.823   8.120 -1.1112  0.6031  1.2735
   20MOL0     H 2635   1.532   3.770   8.113 -2.8409  0.0043  3.1171
   20MOL0     H 2636   1.599   3.915   8.183  0.6346  1.0739 -0.9266
   20MOL0     H 2637   1.336   3.900   8.018 -0.8632 -2.8645  0.6818
   20MOL0     H 2638   1.350   3.901   8.193 -0.7020  2.0904 -0.7391
   20MOL0     H 2639   1.399   4.120   8.212 -2.5399 -0.6176  0.6199
   20MOL0     H 2640   1.470   4.141   8.051  0.9312 -1.6334 -0.6711
   20MOL0     H 2641   1.230   4.126   7.958 -1.0344 -0.4259 -0.4235
   20MOL0     H 2642   1.161   4.116   8.118  0.7993  1.9261  1.3918
   20MOL0     H 2643   1.277   4.323   8.190 -0.7702  1.6176  0.3944
   20MOL0     H 2644   1.313   4.345   8.014 -1.4969 -2.7569 -2.7659
   20MOL0     H 2645   1.060   4.312   7.983 -3.1853 -0.2137  2.3534
   20MOL0     H 2646   1.039   4.341   8.151  0.4923  0.9247 -0.5152
   20MOL0     H 2647   1.198   4.545   7.993 -0.0842  0.8605 -0.8083
   20MOL0     H 2648   1.023   4.562   8.001  0.3688  1.5504  0.6364
   20MOL0     H 2649   1.164   4.698   8.166  3.2164 -0.0504  2.4830
   20MOL0     H 2650   1.206   4.558   8.252  0.6836 -0.4437 -0.7463
   20MOL0     H 2651   0.870   4.706   8.109 -2.2512 -0.2408  0.1470
   20MOL0     H 2652   0.620   4.624   8.196  2.4477 -0.2233 -0.4053
   20MOL0     H 2653   0.599   4.630   8.366  1.1870  0.4366  0.7743
   20MOL0     H 2654   0.554   4.859   8.217 -0.2448 -0.0208 -0.5698
   20MOL0     H 2655   0.729   4.881   8.272 -0.0212  0.8735  4.7497
   20MOL0     H 2656   0.605   4.974   8.456  1.9546 -0.1758  0.7209
   20MOL0     H 2657   0.682   4.826   8.502 -1.8117 -0.6052  0.7915
   20MOL0     H 2658   0.469   4.830   8.598  3.8041  1.0475 -0.1780
   20MOL0     H 2659   0.464   4.710   8.467  1.3099  0.4140  0.0238
   20MOL0     H 2660   0.394   4.682   8.272 -0.3488  0.5681  1.1353
   20MOL0     H 2661   0.311   4.499   8.136 -3.4773 -1.1809  3.1563
   20MOL0     H 2662   0.155   4.501   8.066 -1.2356  0.9870  1.1528
   20MOL0     H 2663   0.284   4.607   7.998 -1.1233 -0.2953 -1.2567
   20MOL0     H 2664  -0.368   4.743   8.171  0.7018 -2.2659  0.5365
   20MOL0     H 2665  -0.571   4.674   8.063 -0.3204  2.5895 -0.0765
   20MOL0     H 2666  -0.610   4.739   7.627 -0.3556 -1.3784 -0.4094
   20MOL0     H 2667  -0.545   4.582   7.618 -0.8648 -0.1163  0.5488
   20MOL0     H 2668  -0.752   4.469   7.637  0.2943 -0.0749 -0.3290
   20MOL0     H 2669  -0.834   4.619   7.688 -0.5281  0.7589 -0.3842
   20MOL0     H 2670  -0.687   4.587   7.420 -0.9165  1.0803 -1.6286
   20MOL0     H 2671  -0.786   4.719   7.471  0.8081  0.0202  0.8525
   20MOL0     H 2672  -0.891   4.530   7.315  3.6752  0.3410 -0.2143
   20MOL0     H 2673  -0.890   4.427   7.463  0.1433  1.3605  0.7772
   20MOL0     H 2674  -1.027   4.692   7.426 -0.8639 -1.7659 -2.9485
   20MOL0     H 2675  -1.014   4.607   7.581  1.7456  0.4798  0.2330
   20MOL0     H 2676  -1.153   4.552   7.323 -1.1276  2.7585  0.0132
   20MOL0     H 2677  -1.154   4.417   7.447 -2.7597  0.1664  2.0467
   20MOL0     H 2678  -1.259   4.692   7.520  2.0089  0.9127 -0.6898
   20MOL0     H 2679  -1.284   4.526   7.599 -0.9531  0.6913 -0.2187
   20MOL0     H 2680  -1.408   4.452   7.419 -0.9946 -0.7925  2.8426
   20MOL0     H 2681  -1.381   4.612   7.335  0.4614 -1.6169 -1.1696
   20MOL0     H 2682  -0.358   4.675   7.686  0.4368 -0.6459  0.2214
   20MOL0     H 2683  -0.150   4.726   7.820  1.1594 -1.9132  1.3352
   20MOL0     H 2684  -0.041   4.915   8.253  1.5628  2.0231 -0.8598
   20MOL0     H 2685   0.138   5.009   8.388  1.0217  0.3307  0.3732
   20MOL0     H 2686   1.692   4.098   7.816  0.1503 -0.7929 -0.2088
   20MOL0     H 2687   1.935   4.186   7.810 -1.3541  0.0353 -1.9509
   20MOL0     H 2688   2.204   4.468   8.170 -0.3639  1.9600 -0.1463
   20MOL0     H 2689   2.401   4.566   8.171  2.2678 -0.1298 -1.0079
   20MOL0     H 2690   2.804   4.547   7.924  0.4581 -1.4812  2.9890
   20MOL0     H 2691   2.717   4.405   7.876  0.5576 -0.0065 -1.2743
   20MOL0     H 2692   2.550   4.546   7.750 -0.2031  0.9725 -0.5560
   20MOL0     H 2693   2.722   4.580   7.698  0.8406 -2.3516  0.2293
   20MOL0     H 2694   2.720   4.790   7.780  0.9641 -1.2343  1.6649
   20MOL0     H 2695   2.622   4.752   7.914  1.4097 -3.7614  0.0821
   20MOL0     H 2696   2.519   4.917   7.738 -0.7788 -0.7810  1.5910
   20MOL0     H 2697   2.419   4.778   7.757  0.0105 -0.5888  1.5995
   20MOL0     H 2698   2.595   4.720   7.369  1.3770  0.8851 -0.2606
   20MOL0     H 2699   2.566   4.272   7.883  0.0042 -1.0574  0.2619
   20MOL0     H 2700   2.352   4.162   7.890  2.4419  0.0512 -0.6234
   21MOL0     O 2701   2.005   2.619   4.545  0.2304 -0.2341 -0.3684
   21MOL0     C 2702   2.095   2.562   4.488 -0.8773  0.8715  0.5528
   21MOL0     O 2703   2.125   2.427   4.486  0.2830  0.3137  0.2949
   21MOL0     C 2704   2.036   2.347   4.548  0.0204  0.3560 -0.3751
   21MOL0     C 2705   1.976   2.374   4.667  0.4999  1.0691 -0.2920
   21MOL0     C 2706   1.892   2.281   4.720 -0.0605  1.2583 -0.6405
   21MOL0     C 2707   1.865   2.156   4.660 -0.0897 -0.2534  0.0289
   21MOL0     O 2708   1.763   2.069   4.688 -0.1486  0.9692 -0.2472
   21MOL0     C 2709   1.667   2.103   4.787  0.2988  1.0605  0.4639
   21MOL0     C 2710   1.538   2.034   4.775 -0.6679  0.6360  0.6645
   21MOL0     C 2711   1.425   2.089   4.865  0.4900 -0.1432  0.8728
   21MOL0     C 2712   1.300   2.004   4.860 -0.2274 -0.5976  0.3322
   21MOL0     C 2713   1.191   2.053   4.962 -0.0499 -0.2071  0.2607
   21MOL0     C 2714   1.115   2.179   4.919  0.9073  0.4583 -0.5557
   21MOL0     C 2715   1.011   2.224   5.035  0.5330 -0.8818  0.4765
   21MOL0     C 2716   0.934   2.353   4.997  0.5549 -0.3004  0.8112
   21MOL0     N 2717   0.835   2.401   5.090 -0.5762 -0.0018 -0.4692
   21MOL0     C 2718   0.707   2.347   5.105 -0.7247  0.0260 -0.5588
   21MOL0     C 2719   0.648   2.441   5.191  1.1966  0.0754 -1.0335
   21MOL0     C 2720   0.512   2.432   5.267  0.8578 -0.2416 -0.9442
   21MOL0     C 2721   0.488   2.293   5.321  0.4356  0.1282 -0.2812
   21MOL0     C 2722   0.361   2.276   5.388 -0.3808  0.3726 -0.3115
   21MOL0     C 2723   0.241   2.295   5.303 -0.3933 -0.0348 -0.3628
   21MOL0     O 2724   0.135   2.300   5.398  0.0665  0.3520 -0.8950
   21MOL0     C 2725   0.010   2.259   5.361 -0.5526  0.4590 -0.5431
   21MOL0     C 2726  -0.082   2.278   5.464 -0.7382 -1.0380 -0.1840
   21MOL0     C 2727  -0.216   2.261   5.446 -0.2992 -0.0380 -0.1158
   21MOL0     C 2728  -0.304   2.295   5.563 -0.2847 -0.1176 -0.7485
   21MOL0     C 2729  -0.263   2.211   5.320 -0.2491 -0.4851  0.3830
   21MOL0     C 2730  -0.401   2.182   5.281  0.5624  0.7552 -0.8079
   21MOL0     O 2731  -0.498   2.256   5.344 -0.1943 -0.5795 -0.3722
   21MOL0     C 2732  -0.630   2.204   5.340 -0.5945 -1.1603  0.1700
   21MOL0     C 2733  -0.711   2.238   5.232  0.6150 -0.6377 -0.1463
   21MOL0     C 2734  -0.838   2.202   5.231  1.0712 -0.3372 -1.0104
   21MOL0     C 2735  -0.885   2.126   5.337  0.6744  0.0922  0.1314
   21MOL0     O 2736  -1.014   2.081   5.322 -0.5731  0.8520 -0.5783
   21MOL0     C 2737  -1.080   2.050   5.448 -0.8702  0.5924 -0.0216
   21MOL0     C 2738  -1.224   2.014   5.424  0.3937  0.2243 -0.4692
   21MOL0     C 2739  -1.312   2.042   5.544 -0.7541 -0.6482 -0.3058
   21MOL0     C 2740  -1.445   1.978   5.533  0.5075  0.3265 -0.0062
   21MOL0     C 2741  -1.440   1.843   5.610  0.1390 -0.7726  0.4755
   21MOL0     C 2742  -1.566   1.758   5.582  0.0619 -0.0854  0.1834
   21MOL0     C 2743  -1.582   1.650   5.688 -0.1700  0.1051 -0.0511
   21MOL0     C 2744  -1.680   1.544   5.657 -0.3640 -0.3392  0.2973
   21MOL0    Cl 2745  -1.630   1.403   5.759  0.4985  0.0399  0.0335
   21MOL0     C 2746  -0.802   2.095   5.452  0.6753  0.7312  0.7035
   21MOL0     C 2747  -0.671   2.138   5.446  0.5313 -0.6351  0.0541
   21MOL0     O 2748  -0.427   2.095   5.196  0.4850  0.0384  1.1035
   21MOL0     C 2749  -0.167   2.190   5.213  0.2243  0.1041 -0.3932
   21MOL0     C 2750  -0.032   2.219   5.237 -0.2574 -0.0918  0.1127
   21MOL0     N 2751   0.744   2.530   5.236 -0.0376  0.1138  0.2199
   21MOL0     N 2752   0.848   2.510   5.169 -0.1565 -0.2742  0.6379
   21MOL0     C 2753   1.932   2.130   4.536  0.4146 -0.0708 -0.4009
   21MOL0     C 2754   2.024   2.220   4.487 -0.2919 -0.1255  0.9958
   21MOL0     C 2755   2.198   2.644   4.422 -0.6960 -0.7655 -0.4013
   21MOL0     C 2756   2.323   2.590   4.384 -0.1623  0.3896 -0.1873
   21MOL0     C 2757   2.421   2.674   4.338  0.5003  0.1186  0.6917
   21MOL0     C 2758   2.404   2.816   4.335  0.1829  0.8217 -0.5670
   21MOL0     O 2759   2.511   2.898   4.305 -0.2791  0.3854  0.0390
   21MOL0     C 2760   2.634   2.832   4.257  0.2048 -0.7155 -0.6104
   21MOL0     C 2761   2.734   2.932   4.199 -0.2612 -0.0342  1.1110
   21MOL0     C 2762   2.776   3.037   4.303  0.3747 -0.2269  0.2973
   21MOL0     C 2763   2.874   3.134   4.243 -0.6281  0.3150 -0.6159
   21MOL0     C 2764   3.011   3.078   4.259  0.0262 -0.2435 -0.7277
   21MOL0     C 2765   3.127   3.042   4.281  1.0826  0.5969 -0.7979
   21MOL0     C 2766   2.289   2.874   4.386  0.2741 -0.2517  0.4419
   21MOL0     C 2767   2.187   2.791   4.429 -0.0575  0.0053 -0.1840
   21MOL0     H 2768   1.995   2.464   4.725  0.7493  0.1256  1.1499
   21MOL0     H 2769   1.848   2.306   4.816  3.5525  0.9179  1.2535
   21MOL0     H 2770   1.708   2.082   4.886  2.3963  1.9934 -0.1634
   21MOL0     H 2771   1.645   2.209   4.776 -1.5893  0.5555 -1.3504
   21MOL0     H 2772   1.505   2.036   4.671 -2.5006  0.0448  1.1951
   21MOL0     H 2773   1.544   1.928   4.802 -3.6566  0.4095  0.7989
   21MOL0     H 2774   1.465   2.094   4.967 -1.9432 -3.9858  2.2508
   21MOL0     H 2775   1.406   2.191   4.830 -0.6416  0.2951  2.6174
   21MOL0     H 2776   1.254   1.998   4.761 -0.3224  0.3359  0.3080
   21MOL0     H 2777   1.335   1.905   4.889 -0.6878 -0.2162  2.3477
   21MOL0     H 2778   1.126   1.967   4.979 -0.8366  0.5884  1.5002
   21MOL0     H 2779   1.232   2.084   5.059 -1.8717  2.1799  0.3777
   21MOL0     H 2780   1.188   2.257   4.896 -0.8064  2.3094  0.0288
   21MOL0     H 2781   1.063   2.153   4.826 -0.0016  1.6799 -0.4142
   21MOL0     H 2782   0.942   2.140   5.042  1.2097 -1.6440 -1.3898
   21MOL0     H 2783   1.056   2.227   5.135  0.8126  0.0098  0.3354
   21MOL0     H 2784   0.881   2.339   4.902 -2.5640 -0.9773  2.5380
   21MOL0     H 2785   1.007   2.434   4.984  0.6867 -0.5019  0.2441
   21MOL0     H 2786   0.669   2.257   5.057  1.4286 -1.5183  0.4594
   21MOL0     H 2787   0.506   2.495   5.357 -2.1561 -2.0378  0.2683
   21MOL0     H 2788   0.442   2.460   5.188  0.8411  0.8054 -0.5754
   21MOL0     H 2789   0.568   2.266   5.390 -0.0265  0.7543  0.5250
   21MOL0     H 2790   0.490   2.217   5.243  0.2719 -0.6810  0.4841
   21MOL0     H 2791   0.350   2.347   5.470  1.0866  0.7971 -0.4374
   21MOL0     H 2792   0.349   2.172   5.421 -1.1585  0.3980 -0.5026
   21MOL0     H 2793   0.224   2.212   5.235  2.5151 -1.0357 -0.0071
   21MOL0     H 2794   0.244   2.388   5.244  0.5780  0.4441  0.4009
   21MOL0     H 2795  -0.055   2.316   5.562  0.6530 -1.0287 -0.5527
   21MOL0     H 2796  -0.362   2.207   5.591  1.8117 -2.0650 -2.1858
   21MOL0     H 2797  -0.253   2.333   5.653 -2.3987 -0.2483  0.5784
   21MOL0     H 2798  -0.379   2.372   5.543 -1.6110 -0.8747  0.9686
   21MOL0     H 2799  -0.675   2.289   5.143  0.7765  1.2240  0.9205
   21MOL0     H 2800  -0.904   2.240   5.154 -1.4483  1.6932  1.8946
   21MOL0     H 2801  -1.029   1.971   5.503 -0.8957  0.4864 -0.1483
   21MOL0     H 2802  -1.068   2.146   5.500  2.3918  0.2995 -0.0383
   21MOL0     H 2803  -1.265   2.072   5.341 -0.4280  1.1976  0.5846
   21MOL0     H 2804  -1.237   1.908   5.399 -1.0439  0.2554  0.0471
   21MOL0     H 2805  -1.320   2.151   5.547 -1.3473 -0.6935 -0.0549
   21MOL0     H 2806  -1.267   2.009   5.638 -0.6019 -0.0277 -0.1578
   21MOL0     H 2807  -1.517   2.036   5.591  0.7192 -1.0402  1.6869
   21MOL0     H 2808  -1.468   1.965   5.426 -1.0822  3.2700 -0.1319
   21MOL0     H 2809  -1.424   1.855   5.717 -2.0730 -2.3187  1.0416
   21MOL0     H 2810  -1.355   1.781   5.581  1.2788  0.4051  1.1718
   21MOL0     H 2811  -1.657   1.819   5.582 -0.1760 -0.4345 -0.1322
   21MOL0     H 2812  -1.551   1.722   5.480  0.8813  2.0407 -0.5088
   21MOL0     H 2813  -1.607   1.696   5.784  1.5532  0.5968  0.1942
   21MOL0     H 2814  -1.480   1.613   5.697  0.3315  1.0693 -1.3905
   21MOL0     H 2815  -1.663   1.524   5.551 -2.7405 -0.6017 -0.0837
   21MOL0     H 2816  -1.782   1.580   5.676  0.5875  1.3460  2.8182
   21MOL0     H 2817  -0.843   2.039   5.536 -0.3980  2.6744  1.5358
   21MOL0     H 2818  -0.610   2.125   5.534  0.3094  1.3224  0.5512
   21MOL0     H 2819  -0.202   2.163   5.114 -0.5361 -1.2937  0.2249
   21MOL0     H 2820   0.025   2.213   5.145 -3.1821 -2.1056 -1.7590
   21MOL0     H 2821   1.916   2.044   4.473 -1.1030  0.2135 -0.4492
   21MOL0     H 2822   2.072   2.205   4.390 -2.4819  1.3961 -0.4311
   21MOL0     H 2823   2.336   2.482   4.388 -0.9956  0.3126  1.8616
   21MOL0     H 2824   2.514   2.622   4.318  0.4040  1.1098 -3.1678
   21MOL0     H 2825   2.682   2.773   4.335 -1.2193  0.1774  1.0100
   21MOL0     H 2826   2.598   2.762   4.181  2.4386 -1.0501 -1.4538
   21MOL0     H 2827   2.683   2.988   4.120 -2.9148  0.7472  3.2139
   21MOL0     H 2828   2.816   2.878   4.151 -0.7066  1.3705 -1.4140
   21MOL0     H 2829   2.827   2.987   4.386 -0.7048  1.3974  2.0006
   21MOL0     H 2830   2.697   3.095   4.351  0.7479 -0.1986  0.8841
   21MOL0     H 2831   2.863   3.222   4.307 -0.7623  0.7137 -1.1810
   21MOL0     H 2832   2.859   3.156   4.136 -0.2534 -0.1349 -0.7637
   21MOL0     H 2833   3.225   2.998   4.286  0.4447 -0.8195 -0.3413
   21MOL0     H 2834   2.270   2.980   4.393  1.6847 -0.0018  0.7441
   21MOL0     H 2835   2.089   2.830   4.453 -0.4959 -1.3507  0.3597
   22MOL0     O 2836   0.183   5.474   3.121  0.4397 -0.0700  0.7371
   22MOL0     C 2837   0.287   5.424   3.074 -0.4569 -0.2777  0.4518
   22MOL0     O 2838   0.299   5.326   2.988 -0.4673 -0.1480 -1.0658
   22MOL0     C 2839   0.187   5.249   2.965  0.0938  1.0273 -0.9689
   22MOL0     C 2840   0.063   5.299   2.925  0.6891 -0.4807 -0.6391
   22MOL0     C 2841  -0.047   5.219   2.898 -0.1698 -0.0071  0.3842
   22MOL0     C 2842  -0.032   5.081   2.899 -0.8371 -1.2013 -0.0093
   22MOL0     O 2843  -0.136   5.005   2.859 -0.2391 -0.4050 -0.1882
   22MOL0     C 2844  -0.177   4.915   2.968  0.6505  1.0536 -0.0585
   22MOL0     C 2845  -0.329   4.914   2.967  0.1529 -1.2724 -0.1183
   22MOL0     C 2846  -0.388   5.029   3.066 -0.1702  0.0031  0.8253
   22MOL0     C 2847  -0.542   5.048   3.069  0.5625  0.6713  0.2026
   22MOL0     C 2848  -0.578   5.158   3.170 -0.1578 -0.3352 -0.2585
   22MOL0     C 2849  -0.726   5.148   3.223  0.2172 -0.2192 -0.8792
   22MOL0     C 2850  -0.846   5.156   3.131 -0.0914  0.1781 -0.5571
   22MOL0     C 2851  -0.844   5.291   3.064 -0.0928  0.1567  0.0783
   22MOL0     N 2852  -0.971   5.320   3.002  0.3096 -0.7887  0.1533
   22MOL0     C 2853  -0.994   5.355   2.875 -0.1544 -1.0161 -0.5612
   22MOL0     C 2854  -1.124   5.388   2.872 -0.5635 -0.1990  0.8271
   22MOL0     C 2855  -1.201   5.461   2.757 -0.5178  0.6217  0.5286
   22MOL0     C 2856  -1.333   5.531   2.799  0.4217 -0.5740 -0.0339
   22MOL0     C 2857  -1.374   5.655   2.708 -0.6104  0.3005  0.4073
   22MOL0     C 2858  -1.502   5.710   2.769 -0.3829 -1.1018 -0.3039
   22MOL0     O 2859  -1.622   5.647   2.716  0.5700  0.3472  0.2864
   22MOL0     C 2860  -1.751   5.693   2.751 -0.1278  0.0784  0.2909
   22MOL0     C 2861  -1.857   5.637   2.685  0.9661 -1.0440 -1.3832
   22MOL0     C 2862  -1.987   5.658   2.723 -0.8372  0.2647  0.4171
   22MOL0     C 2863  -2.092   5.585   2.638  0.2208  0.0789  0.2015
   22MOL0     C 2864  -2.013   5.750   2.826 -0.6018 -0.0827  0.1834
   22MOL0     C 2865  -2.150   5.780   2.893 -0.0203  0.3936  0.3064
   22MOL0     O 2866  -2.151   5.834   3.017 -0.6653  0.1830  0.4025
   22MOL0     C 2867  -2.275   5.869   3.068  0.5644  0.4516  1.0140
   22MOL0     C 2868  -2.360   5.786   3.143 -0.4032  0.3657 -0.2330
   22MOL0     C 2869  -2.482   5.832   3.196  0.5805 -0.1751  0.1736
   22MOL0     C 2870  -2.509   5.966   3.171 -0.1097  0.7514 -1.0463
   22MOL0     O 2871  -2.624   6.028   3.200  0.6260 -0.3498 -0.2651
   22MOL0     C 2872  -2.708   5.966   3.300  0.0218 -0.3030  0.6003
   22MOL0     C 2873  -2.829   6.057   3.327  0.0637 -1.1486  0.2951
   22MOL0     C 2874  -2.799   6.201   3.379  0.1653  0.3329 -0.7602
   22MOL0     C 2875  -2.923   6.273   3.423  0.1872 -0.7688  1.0666
   22MOL0     C 2876  -2.883   6.421   3.466 -0.4783 -0.4855 -0.1332
   22MOL0     C 2877  -3.008   6.480   3.524 -0.0147  0.4714 -0.7050
   22MOL0     C 2878  -2.991   6.617   3.591  0.2849  0.2330 -0.0291
   22MOL0     C 2879  -2.925   6.721   3.497  0.1761 -0.5991 -0.0448
   22MOL0    Cl 2880  -3.031   6.748   3.367 -0.1428  0.0903 -0.1841
   22MOL0     C 2881  -2.419   6.047   3.104  0.4703  0.6404  0.0167
   22MOL0     C 2882  -2.308   5.996   3.045 -0.6374 -0.0919 -0.5197
   22MOL0     O 2883  -2.252   5.755   2.829 -0.4907 -0.7443  0.3059
   22MOL0     C 2884  -1.906   5.814   2.885 -0.3920 -0.7858  0.7623
   22MOL0     C 2885  -1.775   5.787   2.848 -0.6703 -0.0007 -0.2566
   22MOL0     N 2886  -1.175   5.375   2.996 -0.5451  0.3733  0.0107
   22MOL0     N 2887  -1.091   5.321   3.066 -0.0598  0.3900 -0.3391
   22MOL0     C 2888   0.092   5.023   2.933 -0.2727 -0.0659 -0.7758
   22MOL0     C 2889   0.199   5.106   2.968 -0.1380 -0.3136  0.4819
   22MOL0     C 2890   0.419   5.490   3.116  0.9359  0.1407  0.2974
   22MOL0     C 2891   0.543   5.441   3.080  0.6110  1.1378  0.0223
   22MOL0     C 2892   0.660   5.511   3.116 -0.7930  0.4150  0.6367
   22MOL0     C 2893   0.655   5.623   3.197 -0.1026 -0.8176  0.4091
   22MOL0     O 2894   0.763   5.698   3.242 -0.1386 -0.1311 -0.0005
   22MOL0     C 2895   0.894   5.660   3.197  0.7461  0.3075 -0.8273
   22MOL0     C 2896   0.988   5.762   3.244 -0.8036  0.4340  0.8767
   22MOL0     C 2897   1.013   5.759   3.395  0.1914  0.2235 -0.6245
   22MOL0     C 2898   1.162   5.779   3.443 -0.0599  0.2364  0.2842
   22MOL0     C 2899   1.239   5.891   3.380  0.1349  0.6412 -0.2564
   22MOL0     C 2900   1.315   5.971   3.334  0.3057  0.1236 -0.1158
   22MOL0     C 2901   0.532   5.685   3.224 -0.6304  0.8480  1.0122
   22MOL0     C 2902   0.417   5.617   3.182 -0.1289 -0.1131 -0.3082
   22MOL0     H 2903   0.041   5.405   2.922  0.1698 -0.4602  1.7412
   22MOL0     H 2904  -0.141   5.264   2.869 -0.2297 -0.5270 -0.2447
   22MOL0     H 2905  -0.134   4.818   2.941  0.9196  1.2181 -0.2259
   22MOL0     H 2906  -0.145   4.943   3.068 -1.7717 -0.8740  1.3660
   22MOL0     H 2907  -0.369   4.934   2.867 -0.6261 -0.1281  0.4077
   22MOL0     H 2908  -0.372   4.818   2.997  1.6615 -1.9670 -0.0800
   22MOL0     H 2909  -0.352   5.001   3.166 -0.4526  1.7155  1.4382
   22MOL0     H 2910  -0.343   5.128   3.058  0.0729 -0.1294  0.5526
   22MOL0     H 2911  -0.568   5.087   2.970 -1.4462 -0.0573  0.3988
   22MOL0     H 2912  -0.599   4.958   3.091 -0.9061  1.6458  0.5312
   22MOL0     H 2913  -0.512   5.147   3.257 -0.4127  1.1772  0.1524
   22MOL0     H 2914  -0.565   5.259   3.131 -1.6278  0.3573  0.9139
   22MOL0     H 2915  -0.740   5.050   3.270  0.0782  0.3201  0.2408
   22MOL0     H 2916  -0.741   5.218   3.306  1.8594  0.0187 -0.7554
   22MOL0     H 2917  -0.837   5.069   3.065 -0.1996 -2.2633  2.4447
   22MOL0     H 2918  -0.944   5.148   3.179 -0.2699 -0.3969 -1.0073
   22MOL0     H 2919  -0.755   5.297   3.001 -0.6016 -3.2423 -1.1752
   22MOL0     H 2920  -0.832   5.370   3.139 -1.4299  0.6042 -0.1460
   22MOL0     H 2921  -0.928   5.383   2.793 -1.8409  0.9306 -1.3479
   22MOL0     H 2922  -1.136   5.535   2.710  1.0013 -1.3246 -0.6349
   22MOL0     H 2923  -1.226   5.385   2.681  0.9772  0.5794  0.0382
   22MOL0     H 2924  -1.318   5.558   2.904 -0.3501 -0.8834  0.1599
   22MOL0     H 2925  -1.414   5.458   2.795  0.4523 -0.6202  0.2203
   22MOL0     H 2926  -1.394   5.621   2.606  2.2264  1.4973 -0.6813
   22MOL0     H 2927  -1.292   5.727   2.710  0.8623 -1.3127  1.8513
   22MOL0     H 2928  -1.500   5.816   2.743  0.3798 -1.2389 -0.8690
   22MOL0     H 2929  -1.509   5.710   2.878 -3.4950  0.5217 -0.3774
   22MOL0     H 2930  -1.830   5.577   2.598  2.0173 -3.4044  0.4565
   22MOL0     H 2931  -2.168   5.648   2.591 -1.4523 -2.4693 -0.7233
   22MOL0     H 2932  -2.049   5.523   2.558  2.3144  0.7200  0.7613
   22MOL0     H 2933  -2.138   5.516   2.710  0.1760 -2.1484 -1.8509
   22MOL0     H 2934  -2.329   5.682   3.148  3.8024  1.4263 -0.5852
   22MOL0     H 2935  -2.548   5.767   3.252  0.2734  0.4655  0.5745
   22MOL0     H 2936  -2.740   5.870   3.258 -1.1369 -0.1943  1.1976
   22MOL0     H 2937  -2.659   5.954   3.397 -0.4179 -0.9915  0.7475
   22MOL0     H 2938  -2.899   6.055   3.243  0.9103 -0.5405 -0.4443
   22MOL0     H 2939  -2.883   6.009   3.410 -1.8603  1.6022  0.7898
   22MOL0     H 2940  -2.743   6.252   3.301  0.5054 -0.4371 -1.0274
   22MOL0     H 2941  -2.735   6.196   3.467 -1.1955 -0.0732  0.2528
   22MOL0     H 2942  -2.996   6.288   3.342  1.3203  1.9707  0.4197
   22MOL0     H 2943  -2.978   6.224   3.503  1.3816 -1.3382  1.5553
   22MOL0     H 2944  -2.845   6.481   3.383  2.1153  1.9797  2.5880
   22MOL0     H 2945  -2.805   6.426   3.543  0.5066 -1.0133 -1.0650
   22MOL0     H 2946  -3.079   6.484   3.440  0.1571  0.9427 -0.8316
   22MOL0     H 2947  -3.054   6.427   3.607 -0.6916  2.1488  0.0413
   22MOL0     H 2948  -2.925   6.601   3.676 -1.3398 -1.3534  0.9938
   22MOL0     H 2949  -3.078   6.654   3.646  1.0689 -1.2691  2.3891
   22MOL0     H 2950  -2.823   6.695   3.468  0.1608 -0.2739 -0.3862
   22MOL0     H 2951  -2.914   6.811   3.559 -0.7035 -0.8637  0.5262
   22MOL0     H 2952  -2.444   6.148   3.075 -0.7337  0.8545  1.6173
   22MOL0     H 2953  -2.241   6.058   2.986  1.3459  0.4467  2.1204
   22MOL0     H 2954  -1.912   5.885   2.966  1.0764  1.7878 -1.2420
   22MOL0     H 2955  -1.698   5.855   2.883  0.6672 -0.1155 -2.7760
   22MOL0     H 2956   0.131   4.922   2.942 -0.6116 -0.3350 -2.1475
   22MOL0     H 2957   0.288   5.051   2.995  1.2598  1.0989 -1.0660
   22MOL0     H 2958   0.548   5.338   3.045  1.0302  0.3105  2.3394
   22MOL0     H 2959   0.755   5.471   3.081  0.9594  2.4405  2.7822
   22MOL0     H 2960   0.921   5.560   3.231 -1.7913 -0.7275 -1.6010
   22MOL0     H 2961   0.901   5.666   3.087 -1.4036 -0.2083 -1.0322
   22MOL0     H 2962   0.951   5.861   3.218 -0.9142  0.4273  1.0111
   22MOL0     H 2963   1.089   5.751   3.203  0.1848  3.5473  2.1812
   22MOL0     H 2964   1.002   5.655   3.426 -0.3668  1.3341  3.6629
   22MOL0     H 2965   0.936   5.819   3.445 -0.2317  0.0694 -1.0836
   22MOL0     H 2966   1.221   5.695   3.406 -2.1109 -0.7788 -0.8175
   22MOL0     H 2967   1.153   5.781   3.552  0.6589  1.9490  0.3397
   22MOL0     H 2968   1.379   6.050   3.300 -0.1783  0.0601 -1.2194
   22MOL0     H 2969   0.524   5.779   3.277 -0.1673  1.5387 -0.1269
   22MOL0     H 2970   0.323   5.668   3.196  0.0382  0.3826 -0.9296
   23MOL0     O 2971   4.402   9.027   6.406 -0.3142  0.3489 -0.7453
   23MOL0     C 2972   4.448   9.037   6.293 -0.0304  0.5379  0.6479
   23MOL0     O 2973   4.434   9.139   6.206 -0.1986 -0.0181 -0.0002
   23MOL0     C 2974   4.341   9.235   6.229 -0.4279  0.5152 -0.2140
   23MOL0     C 2975   4.356   9.352   6.156  0.3441 -0.0992  0.1465
   23MOL0     C 2976   4.265   9.457   6.155  0.3742  0.0278  0.2690
   23MOL0     C 2977   4.143   9.438   6.237  0.1805  0.9901  0.2484
   23MOL0     O 2978   4.042   9.532   6.224 -0.5350  0.4591 -0.0665
   23MOL0     C 2979   3.905   9.496   6.235  0.3236 -0.3282 -0.0282
   23MOL0     C 2980   3.809   9.616   6.209  0.1970  0.0512 -0.1551
   23MOL0     C 2981   3.665   9.568   6.178  0.7655 -0.0377  0.4114
   23MOL0     C 2982   3.576   9.688   6.137  0.1386  0.0919 -0.3394
   23MOL0     C 2983   3.429   9.639   6.123  0.1844 -0.3035 -0.0322
   23MOL0     C 2984   3.344   9.765   6.083 -0.0164  1.0681  0.0146
   23MOL0     C 2985   3.199   9.723   6.051  0.8255  0.4266  0.3878
   23MOL0     C 2986   3.115   9.842   6.038 -0.1209 -0.4584 -0.8474
   23MOL0     N 2987   2.973   9.811   6.016 -0.4878  0.0060 -0.3069
   23MOL0     C 2988   2.865   9.864   6.083 -0.0858  0.3220 -0.2346
   23MOL0     C 2989   2.753   9.794   6.038 -0.6384  0.2302 -0.4851
   23MOL0     C 2990   2.610   9.823   6.083  0.7979 -0.7119  0.7117
   23MOL0     C 2991   2.513   9.780   5.978  0.0853 -0.3551 -0.6493
   23MOL0     C 2992   2.374   9.749   6.036  0.2231 -0.1630 -0.1153
   23MOL0     C 2993   2.263   9.766   5.936  0.1022 -0.0275 -0.1384
   23MOL0     O 2994   2.139   9.735   5.999  0.6472  0.1019  0.1459
   23MOL0     C 2995   2.021   9.726   5.925  0.5142 -0.3747  0.1416
   23MOL0     C 2996   1.913   9.672   5.988  0.5971  0.0810 -0.1570
   23MOL0     C 2997   1.782   9.680   5.934  0.5429 -0.3817 -0.1524
   23MOL0     C 2998   1.679   9.635   6.029  0.3081  0.0376 -0.7313
   23MOL0     C 2999   1.763   9.726   5.800  0.4317  0.4825 -0.4555
   23MOL0     C 3000   1.634   9.715   5.723  0.7325  0.0931  0.3261
   23MOL0     O 3001   1.626   9.755   5.589  0.1930  0.6815  0.6691
   23MOL0     C 3002   1.498   9.741   5.544 -0.5997  0.1972  0.4136
   23MOL0     C 3003   1.466   9.638   5.462  0.3124  0.2775 -1.2585
   23MOL0     C 3004   1.333   9.633   5.424  0.0017  0.5883 -0.5573
   23MOL0     C 3005   1.233   9.717   5.468 -0.1158 -0.5168  0.0187
   23MOL0     O 3006   1.098   9.687   5.446 -0.3223 -1.1333  0.5045
   23MOL0     C 3007   1.059   9.557   5.485  0.3226  0.2946 -0.0385
   23MOL0     C 3008   0.907   9.540   5.505 -0.7068 -0.2081  0.4778
   23MOL0     C 3009   0.850   9.612   5.629  0.2928 -0.0848  0.3284
   23MOL0     C 3010   0.694   9.623   5.624 -0.2396 -0.5483  0.0302
   23MOL0     C 3011   0.639   9.700   5.749 -0.8148  0.2950 -0.2092
   23MOL0     C 3012   0.491   9.727   5.733  0.0337  0.3457  0.1015
   23MOL0     C 3013   0.412   9.594   5.736  0.2986  0.2873  0.3052
   23MOL0     C 3014   0.256   9.614   5.753 -1.3971  0.4007  0.0238
   23MOL0    Cl 3015   0.183   9.451   5.779  0.1012  0.4697  0.0681
   23MOL0     C 3016   1.276   9.832   5.541  0.5203 -0.1128 -0.7251
   23MOL0     C 3017   1.409   9.844   5.570 -0.2637  0.6848  0.1723
   23MOL0     O 3018   1.535   9.685   5.794  0.4697 -0.4421 -0.6256
   23MOL0     C 3019   1.874   9.774   5.739 -0.3334 -0.0359  0.0511
   23MOL0     C 3020   2.005   9.779   5.799  0.5568  0.6918  0.0475
   23MOL0     N 3021   2.801   9.696   5.958  0.0557  0.1432 -0.0540
   23MOL0     N 3022   2.931   9.712   5.932 -0.5713 -0.5788  0.6737
   23MOL0     C 3023   4.133   9.319   6.315  0.9848  0.1597  0.1971
   23MOL0     C 3024   4.222   9.223   6.311  0.2311  0.0318 -0.2780
   23MOL0     C 3025   4.526   8.924   6.251  0.1555  0.3894  0.6141
   23MOL0     C 3026   4.606   8.930   6.138  0.4685 -0.7937  0.5237
   23MOL0     C 3027   4.676   8.816   6.082 -0.1457 -0.0252  0.2966
   23MOL0     C 3028   4.659   8.692   6.151 -0.1240  0.0945 -0.2555
   23MOL0     O 3029   4.715   8.575   6.112 -0.6029  0.1537  0.2153
   23MOL0     C 3030   4.769   8.571   5.977  0.0222 -1.1309  0.2180
   23MOL0     C 3031   4.802   8.429   5.933  0.1157  0.4147  0.5003
   23MOL0     C 3032   4.679   8.339   5.957 -0.0495  0.6236  0.0316
   23MOL0     C 3033   4.707   8.203   5.911 -0.4339  0.0853  0.7390
   23MOL0     C 3034   4.801   8.125   5.983 -0.3622 -0.1995  0.2257
   23MOL0     C 3035   4.880   8.061   6.048  0.3770  0.0602 -0.4524
   23MOL0     C 3036   4.568   8.680   6.251 -0.0510  0.7131  0.6434
   23MOL0     C 3037   4.507   8.794   6.306  0.8982  0.3259  0.1467
   23MOL0     H 3038   4.446   9.375   6.101  0.6310  0.5524  0.8676
   23MOL0     H 3039   4.276   9.546   6.094 -0.8615 -0.7749 -1.1968
   23MOL0     H 3040   3.886   9.419   6.160  2.4845  1.9334 -3.1479
   23MOL0     H 3041   3.891   9.447   6.332 -0.1003  0.1552  0.1545
   23MOL0     H 3042   3.798   9.676   6.300  0.4702 -1.6503  1.0576
   23MOL0     H 3043   3.854   9.682   6.135  0.8691 -0.8064 -0.5223
   23MOL0     H 3044   3.658   9.501   6.092 -1.4639 -0.3624  0.7976
   23MOL0     H 3045   3.620   9.530   6.270  1.0508  1.5950  1.2771
   23MOL0     H 3046   3.569   9.758   6.222  0.0745 -0.7360  0.3510
   23MOL0     H 3047   3.608   9.741   6.047 -1.5837  1.1836 -0.3581
   23MOL0     H 3048   3.425   9.557   6.051  0.4111 -5.9299  5.5321
   23MOL0     H 3049   3.392   9.604   6.220  1.1629  0.3951  0.6192
   23MOL0     H 3050   3.354   9.828   6.171  0.3374 -0.1853  0.8948
   23MOL0     H 3051   3.388   9.811   5.994 -3.4571 -0.5786 -2.8563
   23MOL0     H 3052   3.194   9.665   5.958  1.2436  1.1043 -0.0604
   23MOL0     H 3053   3.153   9.659   6.128 -0.8724 -1.7803 -2.2286
   23MOL0     H 3054   3.146   9.900   5.951 -0.8667 -0.1100 -0.8868
   23MOL0     H 3055   3.135   9.910   6.121  1.6900 -3.1116  1.0819
   23MOL0     H 3056   2.874   9.938   6.162  0.8235  0.0765 -0.0880
   23MOL0     H 3057   2.584   9.783   6.182 -1.1258  0.4446  0.7205
   23MOL0     H 3058   2.602   9.931   6.094  0.5769 -0.4469 -1.5478
   23MOL0     H 3059   2.539   9.682   5.936 -4.3575 -1.8829 -0.4161
   23MOL0     H 3060   2.502   9.856   5.900 -0.2503  1.6963  1.3131
   23MOL0     H 3061   2.360   9.813   6.124  2.0413 -1.1007  0.9130
   23MOL0     H 3062   2.369   9.649   6.079  1.7013  0.5149  1.7653
   23MOL0     H 3063   2.280   9.704   5.848 -1.7007  1.9167 -1.9570
   23MOL0     H 3064   2.267   9.873   5.913 -1.2413 -0.1444 -1.0037
   23MOL0     H 3065   1.932   9.631   6.087 -0.2665  0.3525  0.1340
   23MOL0     H 3066   1.724   9.622   6.128 -0.7335  0.5763 -0.1696
   23MOL0     H 3067   1.605   9.715   6.042  1.5189  1.1696 -0.5295
   23MOL0     H 3068   1.638   9.539   5.995  4.2680 -1.6779 -1.1983
   23MOL0     H 3069   1.530   9.558   5.426 -0.9658 -1.0756 -0.6398
   23MOL0     H 3070   1.312   9.551   5.356  0.1536 -0.2331  0.3621
   23MOL0     H 3071   1.094   9.491   5.405 -2.0688 -0.7486 -0.2932
   23MOL0     H 3072   1.110   9.520   5.575  2.9645  0.9834 -1.1563
   23MOL0     H 3073   0.864   9.579   5.412 -0.0010  0.6756  0.5052
   23MOL0     H 3074   0.876   9.437   5.528  1.4959 -1.2331 -0.8344
   23MOL0     H 3075   0.887   9.713   5.647 -2.7961  0.6915  3.6903
   23MOL0     H 3076   0.867   9.550   5.717  0.6673  2.1015  1.8795
   23MOL0     H 3077   0.661   9.684   5.540  0.5530 -0.6410 -0.3581
   23MOL0     H 3078   0.652   9.522   5.615  2.4327 -1.8919  1.5679
   23MOL0     H 3079   0.696   9.790   5.772  0.7016 -1.2680  2.6513
   23MOL0     H 3080   0.662   9.637   5.836  0.8463  0.5995 -0.4051
   23MOL0     H 3081   0.455   9.791   5.814 -0.9100  0.4842 -0.4110
   23MOL0     H 3082   0.471   9.773   5.636  0.5152 -1.1656 -0.7481
   23MOL0     H 3083   0.449   9.534   5.819 -0.3938 -0.2457  0.2376
   23MOL0     H 3084   0.426   9.525   5.652 -1.7955 -1.8855  1.6081
   23MOL0     H 3085   0.218   9.648   5.656  2.2010 -0.0509 -1.6918
   23MOL0     H 3086   0.237   9.696   5.823  1.3296 -0.2303  1.6414
   23MOL0     H 3087   1.204   9.906   5.577  1.4617  1.3043 -1.6504
   23MOL0     H 3088   1.437   9.928   5.634 -0.4897  0.5580  0.4396
   23MOL0     H 3089   1.866   9.810   5.637 -3.0127 -1.2167 -0.2424
   23MOL0     H 3090   2.082   9.835   5.748  0.6800 -0.2581 -0.8274
   23MOL0     H 3091   4.042   9.304   6.371  0.4771  1.9831 -0.0745
   23MOL0     H 3092   4.195   9.139   6.374 -0.4299 -2.0496 -3.1562
   23MOL0     H 3093   4.632   9.024   6.090  2.1645 -0.2308  2.3973
   23MOL0     H 3094   4.739   8.827   5.994 -1.4433 -0.4439 -0.7118
   23MOL0     H 3095   4.695   8.604   5.904  0.1167  1.6709  1.2699
   23MOL0     H 3096   4.856   8.637   5.966 -1.0463  0.9914  3.0699
   23MOL0     H 3097   4.894   8.393   5.980 -0.6442 -0.7140  1.1743
   23MOL0     H 3098   4.822   8.431   5.825 -3.6555  2.5284 -0.3341
   23MOL0     H 3099   4.601   8.390   5.900 -1.1763  1.5418  2.3161
   23MOL0     H 3100   4.645   8.329   6.060 -0.0644 -2.0681 -0.1527
   23MOL0     H 3101   4.731   8.204   5.804  0.1678  0.9203  0.8734
   23MOL0     H 3102   4.612   8.149   5.915  0.1503 -1.3767 -2.1476
   23MOL0     H 3103   4.947   7.985   6.083 -0.6360 -1.8507 -2.3824
   23MOL0     H 3104   4.547   8.585   6.299 -1.8916  0.7189 -0.0534
   23MOL0     H 3105   4.435   8.787   6.387  0.9999  2.3297  0.4504
   24MOL0     O 3106   8.611  11.108  10.908 -0.0472  0.2688 -0.3202
   24MOL0     C 3107   8.616  11.153  10.797 -0.1389 -0.0704 -0.3417
   24MOL0     O 3108   8.516  11.186  10.722  0.0402  0.0146 -0.3879
   24MOL0     C 3109   8.390  11.157  10.762  0.3883  0.2801 -0.0401
   24MOL0     C 3110   8.297  11.266  10.736 -0.0353  0.4484  0.1155
   24MOL0     C 3111   8.164  11.250  10.783  0.2922 -0.0876 -0.6512
   24MOL0     C 3112   8.119  11.132  10.848 -0.3210  0.3484  1.2436
   24MOL0     O 3113   7.984  11.128  10.888 -0.2467 -0.5339 -0.2873
   24MOL0     C 3114   7.943  11.041  11.000 -0.2566  0.0227 -0.4426
   24MOL0     C 3115   7.873  10.907  10.976  0.4440  0.3924  0.3611
   24MOL0     C 3116   7.721  10.919  10.942  0.0501  0.4732 -0.6161
   24MOL0     C 3117   7.679  10.987  10.809 -1.2093  0.3492 -0.3108
   24MOL0     C 3118   7.536  10.957  10.747 -0.0657  0.5029  0.5424
   24MOL0     C 3119   7.419  11.020  10.826  0.4751  1.2153 -0.1265
   24MOL0     C 3120   7.408  11.168  10.807  0.1419  0.2828 -0.3039
   24MOL0     C 3121   7.317  11.233  10.914  0.3692 -0.3087  0.0352
   24MOL0     N 3122   7.167  11.235  10.900  0.3306  0.4865 -1.1953
   24MOL0     C 3123   7.084  11.123  10.905  0.5055  0.6117  0.2486
   24MOL0     C 3124   6.954  11.175  10.915 -0.3394  0.0504  0.0663
   24MOL0     C 3125   6.831  11.091  10.930  0.2014  0.1581  0.1610
   24MOL0     C 3126   6.761  11.113  11.068 -0.3584  0.0609  0.1596
   24MOL0     C 3127   6.670  11.232  11.050 -0.1745  0.0251 -0.1732
   24MOL0     C 3128   6.578  11.254  11.173 -0.0553  0.9304  0.1501
   24MOL0     O 3129   6.478  11.350  11.136 -0.7570 -0.4894  0.2847
   24MOL0     C 3130   6.383  11.316  11.048  0.7008 -0.4490  0.0042
   24MOL0     C 3131   6.323  11.422  10.986 -0.7880  0.1775 -0.1248
   24MOL0     C 3132   6.218  11.406  10.891 -0.3389  0.6681  0.8945
   24MOL0     C 3133   6.177  11.534  10.819  0.0995  0.6692 -0.3296
   24MOL0     C 3134   6.180  11.274  10.858  0.2330  0.3890  0.4693
   24MOL0     C 3135   6.074  11.242  10.757  0.4175  0.0103  0.4038
   24MOL0     O 3136   6.051  11.108  10.725 -0.6048 -0.7463 -0.4307
   24MOL0     C 3137   5.989  11.089  10.608 -0.1576  0.2462 -0.0423
   24MOL0     C 3138   6.056  11.119  10.485  1.0242  0.6415 -0.1713
   24MOL0     C 3139   5.996  11.087  10.360  0.4693  0.9924 -0.1704
   24MOL0     C 3140   5.859  11.043  10.359 -0.2583  0.8469  0.3851
   24MOL0     O 3141   5.793  11.028  10.237  0.9886 -0.5199 -0.0868
   24MOL0     C 3142   5.858  11.037  10.109 -0.0659 -0.7151  0.3166
   24MOL0     C 3143   5.775  10.980  10.002 -0.3285 -0.3513 -0.0333
   24MOL0     C 3144   5.643  11.059   9.987  0.8204  0.0529  0.0761
   24MOL0     C 3145   5.558  11.008   9.872 -0.3506  0.1080 -1.2857
   24MOL0     C 3146   5.431  11.092   9.862 -0.5437  0.1997  0.1795
   24MOL0     C 3147   5.328  11.010   9.799  0.1933 -0.0110  0.3003
   24MOL0     C 3148   5.210  11.102   9.758 -0.2334 -0.5314 -0.8455
   24MOL0     C 3149   5.078  11.024   9.774 -0.7784 -0.1514  0.5089
   24MOL0    Cl 3150   5.084  10.864   9.705 -0.6013 -0.1171  0.5996
   24MOL0     C 3151   5.792  11.021  10.479  0.6835 -0.3744 -0.0557
   24MOL0     C 3152   5.857  11.039  10.601 -0.8324  0.3004 -0.3708
   24MOL0     O 3153   6.007  11.337  10.719  0.3654  0.1586 -0.4438
   24MOL0     C 3154   6.250  11.166  10.916 -0.6318 -0.1030 -0.2895
   24MOL0     C 3155   6.345  11.190  11.008 -0.0449 -0.0956 -0.5645
   24MOL0     N 3156   6.966  11.311  10.913  0.0755 -0.2005  0.4436
   24MOL0     N 3157   7.097  11.347  10.904  0.3226  0.6399  0.0552
   24MOL0     C 3158   8.212  11.022  10.850 -0.8015 -0.3766  0.0126
   24MOL0     C 3159   8.342  11.034  10.812 -0.3329 -0.9346 -0.4226
   24MOL0     C 3160   8.751  11.167  10.742  0.2656  1.0438  0.7940
   24MOL0     C 3161   8.759  11.204  10.609 -0.4431  0.1278 -0.1173
   24MOL0     C 3162   8.892  11.194  10.547  0.2052  0.1289  0.5063
   24MOL0     C 3163   9.004  11.163  10.625 -0.1947  0.3253 -0.2411
   24MOL0     O 3164   9.131  11.143  10.574  0.1572  0.1435  0.2876
   24MOL0     C 3165   9.158  11.171  10.435  0.2466 -0.4118  0.6795
   24MOL0     C 3166   9.305  11.167  10.387 -0.6311 -0.8557  0.7210
   24MOL0     C 3167   9.353  11.026  10.387  0.2228 -0.4047 -0.1242
   24MOL0     C 3168   9.507  11.018  10.394 -0.3889 -0.2679 -0.1676
   24MOL0     C 3169   9.542  10.875  10.367  0.2464 -0.1778  0.4566
   24MOL0     C 3170   9.569  10.758  10.360 -0.6820  0.5490  0.3537
   24MOL0     C 3171   8.991  11.125  10.760 -0.1707  0.2447 -0.1319
   24MOL0     C 3172   8.864  11.129  10.822 -0.1890 -0.8137 -0.5429
   24MOL0     H 3173   8.330  11.353  10.682 -0.4445  0.4062 -0.2048
   24MOL0     H 3174   8.088  11.327  10.772 -0.1331 -0.2140  1.1031
   24MOL0     H 3175   8.030  11.030  11.066 -0.0879  1.2607 -0.4338
   24MOL0     H 3176   7.871  11.102  11.056 -1.5783 -3.2502  1.7772
   24MOL0     H 3177   7.932  10.860  10.897 -0.3161 -1.0716  0.6283
   24MOL0     H 3178   7.886  10.848  11.067  1.5889  0.0308 -0.0306
   24MOL0     H 3179   7.681  10.818  10.949  0.5828  0.2197 -1.2130
   24MOL0     H 3180   7.682  10.986  11.020 -1.5551 -2.5945  1.3919
   24MOL0     H 3181   7.700  11.094  10.804 -3.1930  0.7765 -0.5893
   24MOL0     H 3182   7.748  10.949  10.733 -1.2940  0.1540 -0.2911
   24MOL0     H 3183   7.541  10.999  10.646 -1.4881 -1.1995 -0.2854
   24MOL0     H 3184   7.518  10.852  10.723 -0.7717  1.2211 -2.4799
   24MOL0     H 3185   7.328  10.974  10.787  0.6550 -0.1755  0.9989
   24MOL0     H 3186   7.423  10.989  10.931  0.1949  3.1359  0.5025
   24MOL0     H 3187   7.505  11.212  10.831  0.8938 -0.8911 -1.0871
   24MOL0     H 3188   7.384  11.202  10.706  0.8436 -0.4784 -0.7412
   24MOL0     H 3189   7.348  11.336  10.930 -0.1987 -0.2091  0.5032
   24MOL0     H 3190   7.339  11.193  11.013  1.3522 -1.7316 -0.7241
   24MOL0     H 3191   7.100  11.016  10.908 -0.1219  0.4710 -0.9486
   24MOL0     H 3192   6.765  11.122  10.849 -0.3208 -1.9183 -0.2821
   24MOL0     H 3193   6.846  10.983  10.917 -1.2028 -0.4447  2.7433
   24MOL0     H 3194   6.828  11.134  11.152 -0.3971  0.9893 -0.0269
   24MOL0     H 3195   6.701  11.022  11.077 -0.5556 -0.1376 -2.2601
   24MOL0     H 3196   6.605  11.216  10.963 -1.0414 -1.4121  0.7064
   24MOL0     H 3197   6.730  11.323  11.037  2.3751 -1.2806  1.5201
   24MOL0     H 3198   6.638  11.312  11.244  1.3147  1.0374 -1.0454
   24MOL0     H 3199   6.539  11.157  11.207 -3.6421  2.6169  1.3765
   24MOL0     H 3200   6.362  11.522  11.000 -0.4371  0.0883 -0.4253
   24MOL0     H 3201   6.208  11.618  10.883 -1.3060  1.9619 -1.2800
   24MOL0     H 3202   6.218  11.542  10.718  1.9809  0.0700  0.3320
   24MOL0     H 3203   6.070  11.545  10.802 -0.1953  0.1415  1.0378
   24MOL0     H 3204   6.157  11.156  10.478  2.0167 -1.8885 -0.1343
   24MOL0     H 3205   6.056  11.082  10.270  0.1913  0.3462 -0.3235
   24MOL0     H 3206   5.867  11.143  10.082  2.7721 -0.3677  2.1386
   24MOL0     H 3207   5.949  10.976  10.106  1.1574  0.8690  2.1659
   24MOL0     H 3208   5.833  10.988   9.910  0.9059  3.1859  0.8772
   24MOL0     H 3209   5.748  10.877  10.025 -0.8849 -0.0632  0.6659
   24MOL0     H 3210   5.664  11.163   9.959 -1.0070  0.1789 -0.9809
   24MOL0     H 3211   5.586  11.059  10.081  0.8283  0.9913  0.0953
   24MOL0     H 3212   5.613  11.016   9.778 -1.2630  0.3510 -1.8113
   24MOL0     H 3213   5.542  10.905   9.903 -1.4112  1.4323  3.5230
   24MOL0     H 3214   5.457  11.178   9.800  0.1567 -1.8202 -2.5426
   24MOL0     H 3215   5.395  11.120   9.962 -0.3442 -0.2463  0.3788
   24MOL0     H 3216   5.354  10.945   9.715 -2.5980  0.5320 -1.1198
   24MOL0     H 3217   5.296  10.935   9.872  0.0418 -2.5374 -2.1941
   24MOL0     H 3218   5.222  11.116   9.650  3.8799  0.1397 -0.4606
   24MOL0     H 3219   5.211  11.200   9.806  0.3229 -1.5649  1.3653
   24MOL0     H 3220   4.996  11.077   9.725  0.2807  2.0009  0.9059
   24MOL0     H 3221   5.059  11.018   9.882  2.4277 -3.4619  1.0667
   24MOL0     H 3222   5.694  10.979  10.461 -0.5207  2.2140  0.0208
   24MOL0     H 3223   5.808  11.004  10.691 -0.0091 -0.2130 -0.1023
   24MOL0     H 3224   6.228  11.060  10.906  3.1210 -1.3012  2.0469
   24MOL0     H 3225   6.401  11.110  11.057 -0.8231 -0.3710 -0.1140
   24MOL0     H 3226   8.175  10.940  10.910  0.5618 -0.1076  1.2625
   24MOL0     H 3227   8.417  10.957  10.823  3.3130  2.3749 -0.0961
   24MOL0     H 3228   8.687  11.238  10.536  1.5207  1.2852 -1.6158
   24MOL0     H 3229   8.900  11.227  10.444  1.7871  0.8319  0.8197
   24MOL0     H 3230   9.106  11.104  10.366 -1.6324  3.9881 -2.6847
   24MOL0     H 3231   9.118  11.269  10.409 -1.7103 -2.1090 -3.6782
   24MOL0     H 3232   9.365  11.227  10.456  0.4700 -0.1006 -0.8231
   24MOL0     H 3233   9.312  11.214  10.288 -0.6820 -3.1935 -0.4706
   24MOL0     H 3234   9.318  10.982  10.293 -0.3084  1.1521 -0.6975
   24MOL0     H 3235   9.313  10.980  10.477  0.5857  2.5259  1.6794
   24MOL0     H 3236   9.551  11.059  10.485  1.8831 -0.3517 -1.1590
   24MOL0     H 3237   9.550  11.089  10.323 -0.1066  0.2055  0.4738
   24MOL0     H 3238   9.599  10.655  10.350 -0.3157  0.8662 -2.9723
   24MOL0     H 3239   9.079  11.101  10.819 -0.8858  2.6679  2.1338
   24MOL0     H 3240   8.837  11.091  10.921 -5.0607  0.7135 -0.9778
   25MOL0     O 3241   3.247  10.190   5.962  0.1915  0.2449 -0.6427
   25MOL0     C 3242   3.329  10.197   6.052 -0.3290  0.2316  0.0941
   25MOL0     O 3243   3.319  10.263   6.178 -0.4108 -0.1981 -0.1154
   25MOL0     C 3244   3.197  10.309   6.214 -0.3278  0.2378  0.7085
   25MOL0     C 3245   3.176  10.443   6.201 -0.0722  0.2003  0.7389
   25MOL0     C 3246   3.048  10.501   6.227  0.7451  0.2103 -0.0832
   25MOL0     C 3247   2.942  10.416   6.281 -0.5551  0.8936 -0.1114
   25MOL0     O 3248   2.833  10.479   6.333 -0.1261  0.4230  0.4163
   25MOL0     C 3249   2.711  10.441   6.273  0.0932  0.3954  0.2015
   25MOL0     C 3250   2.676  10.555   6.172  1.4962 -0.3937 -0.1266
   25MOL0     C 3251   2.528  10.582   6.191  0.5310  0.2825  1.2028
   25MOL0     C 3252   2.435  10.463   6.152  0.4099  0.4374 -0.0996
   25MOL0     C 3253   2.290  10.478   6.204  0.1218 -0.4407 -0.2095
   25MOL0     C 3254   2.199  10.559   6.103 -0.1967  0.4164 -0.0289
   25MOL0     C 3255   2.051  10.559   6.140  0.2165 -0.1875  0.2787
   25MOL0     C 3256   1.950  10.595   6.023  0.6730  0.7488  0.9543
   25MOL0     N 3257   1.812  10.614   6.072  0.6038 -0.5547 -0.6391
   25MOL0     C 3258   1.773  10.687   6.185  0.2323 -0.5992  0.0985
   25MOL0     C 3259   1.635  10.693   6.173  0.4611  0.3702  0.0078
   25MOL0     C 3260   1.531  10.762   6.268 -0.9545 -0.3518 -0.5470
   25MOL0     C 3261   1.453  10.884   6.201 -0.3798 -0.4991 -0.8249
   25MOL0     C 3262   1.345  10.929   6.300 -0.2724 -0.1765  0.5405
   25MOL0     C 3263   1.256  11.039   6.252 -0.6766  0.8868  0.0216
   25MOL0     O 3264   1.168  11.092   6.359  0.4946 -0.4434 -0.0108
   25MOL0     C 3265   1.043  11.047   6.352  0.3010 -0.4447 -1.2305
   25MOL0     C 3266   0.948  11.154   6.367  0.5580  0.2874  0.1994
   25MOL0     C 3267   0.807  11.124   6.382 -0.7410 -0.4670  0.0520
   25MOL0     C 3268   0.713  11.230   6.417 -1.1443  0.0033 -0.3669
   25MOL0     C 3269   0.765  10.987   6.375  0.9581  0.3499 -0.3494
   25MOL0     C 3270   0.630  10.933   6.399 -0.4047  0.1038 -0.1676
   25MOL0     O 3271   0.526  11.017   6.396 -0.0159 -0.5212 -0.0361
   25MOL0     C 3272   0.401  10.964   6.408 -0.7593 -0.7697  0.4913
   25MOL0     C 3273   0.345  10.964   6.534  0.7120 -0.5692 -0.4547
   25MOL0     C 3274   0.208  10.936   6.557 -1.1742  0.8984  0.0546
   25MOL0     C 3275   0.123  10.908   6.447 -0.0441 -0.2749 -0.2149
   25MOL0     O 3276  -0.006  10.892   6.460 -0.4904  0.0985  0.0243
   25MOL0     C 3277  -0.068  10.996   6.537  0.4245  0.3335 -0.4484
   25MOL0     C 3278  -0.220  10.998   6.484  0.7949  0.1910 -0.6463
   25MOL0     C 3279  -0.281  11.126   6.543 -0.2371  0.0902  0.2055
   25MOL0     C 3280  -0.431  11.128   6.513 -0.4954  0.1204 -0.0527
   25MOL0     C 3281  -0.508  11.027   6.601 -0.1385 -1.2233 -0.6065
   25MOL0     C 3282  -0.654  11.062   6.579  0.1515 -0.2650  0.6665
   25MOL0     C 3283  -0.742  10.993   6.684  0.1755  0.9710 -0.5246
   25MOL0     C 3284  -0.893  11.001   6.658 -0.1338  0.1805 -0.4531
   25MOL0    Cl 3285  -0.934  11.158   6.724 -0.0755  0.1851 -0.1940
   25MOL0     C 3286   0.179  10.895   6.324  0.1315 -0.0454  0.3021
   25MOL0     C 3287   0.316  10.925   6.297 -0.5301  0.2981 -0.5646
   25MOL0     O 3288   0.613  10.811   6.416 -0.3099  0.2546  0.1987
   25MOL0     C 3289   0.866  10.891   6.360 -0.2255 -0.1165 -1.0701
   25MOL0     C 3290   1.003  10.916   6.342  0.2852  0.0258  0.0209
   25MOL0     N 3291   1.603  10.610   6.072 -0.3970  0.4367 -0.8770
   25MOL0     N 3292   1.702  10.566   6.013  0.8230 -0.4867  0.8113
   25MOL0     C 3293   2.972  10.279   6.300 -0.0110 -0.6641  0.0438
   25MOL0     C 3294   3.098  10.225   6.259 -0.5901 -0.4983  0.1693
   25MOL0     C 3295   3.462  10.137   6.022 -0.3263 -1.5697 -0.0534
   25MOL0     C 3296   3.545  10.094   6.127  0.6152 -0.5223  0.6227
   25MOL0     C 3297   3.659  10.019   6.087  0.1092 -0.5727 -0.3269
   25MOL0     C 3298   3.695   9.997   5.952  0.6790 -0.2487 -0.2875
   25MOL0     O 3299   3.802   9.920   5.916 -1.0811 -0.4371 -0.0317
   25MOL0     C 3300   3.927   9.942   5.982  0.2198  0.0628 -0.4216
   25MOL0     C 3301   4.037   9.910   5.881  0.3474 -0.5213 -0.4650
   25MOL0     C 3302   4.170   9.942   5.950 -0.1418 -0.1919  0.9408
   25MOL0     C 3303   4.285   9.883   5.869 -0.1120 -0.0566  0.0326
   25MOL0     C 3304   4.407   9.897   5.951  0.1783  0.5550 -0.1821
   25MOL0     C 3305   4.498   9.912   6.026 -0.4244 -0.2708 -0.3245
   25MOL0     C 3306   3.613  10.056   5.845 -1.3126 -0.3803  0.1244
   25MOL0     C 3307   3.492  10.117   5.883 -0.7243  0.8320  0.7229
   25MOL0     H 3308   3.259  10.512   6.189  0.4596 -0.5760 -0.1178
   25MOL0     H 3309   3.025  10.607   6.227  1.1511  0.3006 -0.5039
   25MOL0     H 3310   2.719  10.342   6.227  2.3325  0.4530  0.3489
   25MOL0     H 3311   2.641  10.436   6.357  1.1656  0.3990  1.1212
   25MOL0     H 3312   2.738  10.644   6.188  0.1386  0.8562 -1.4887
   25MOL0     H 3313   2.701  10.532   6.068 -0.5506  0.2315 -0.8033
   25MOL0     H 3314   2.511  10.613   6.295  2.0885 -1.2728  1.9686
   25MOL0     H 3315   2.497  10.667   6.129  2.9562  0.2346 -0.1854
   25MOL0     H 3316   2.441  10.447   6.044 -1.2376  0.4285 -0.2210
   25MOL0     H 3317   2.466  10.374   6.207  0.6651 -0.5189 -1.7273
   25MOL0     H 3318   2.253  10.380   6.234  1.7183 -1.0649 -0.1630
   25MOL0     H 3319   2.288  10.535   6.297  0.2684  2.7108 -2.0014
   25MOL0     H 3320   2.228  10.665   6.106  2.3425 -0.1943 -0.6780
   25MOL0     H 3321   2.209  10.511   6.006 -1.1251 -0.7191  0.4141
   25MOL0     H 3322   2.022  10.465   6.188 -1.2221 -0.7879 -1.5921
   25MOL0     H 3323   2.042  10.638   6.214  1.4358  1.5178 -1.3014
   25MOL0     H 3324   1.942  10.512   5.952 -0.5626  0.5863  1.2640
   25MOL0     H 3325   1.977  10.685   5.967 -1.9689  1.4247  0.6351
   25MOL0     H 3326   1.841  10.734   6.256  0.3312  2.1447 -1.6757
   25MOL0     H 3327   1.460  10.684   6.296  0.7960 -2.0806 -0.6920
   25MOL0     H 3328   1.583  10.796   6.358  0.5385 -3.4252 -0.1175
   25MOL0     H 3329   1.418  10.847   6.104 -4.0563  0.5039 -0.0298
   25MOL0     H 3330   1.527  10.963   6.185  0.0255 -0.6446  0.2816
   25MOL0     H 3331   1.406  10.957   6.386 -0.8957 -0.0740  0.9544
   25MOL0     H 3332   1.282  10.851   6.344 -2.8185  0.1472 -2.2079
   25MOL0     H 3333   1.195  11.008   6.167 -0.0418  0.8670 -0.4316
   25MOL0     H 3334   1.324  11.118   6.219  0.6608  0.4951  1.6586
   25MOL0     H 3335   0.987  11.255   6.373  1.9469 -0.2896  1.8599
   25MOL0     H 3336   0.670  11.194   6.510  1.2582 -2.7471 -0.1807
   25MOL0     H 3337   0.771  11.321   6.437  0.8974 -1.3871  0.3071
   25MOL0     H 3338   0.647  11.240   6.331 -1.4930 -0.4799 -0.1547
   25MOL0     H 3339   0.414  10.970   6.617  1.2993 -0.6808 -0.9257
   25MOL0     H 3340   0.170  10.946   6.658 -0.0391  0.0026  0.5896
   25MOL0     H 3341  -0.064  10.970   6.643  1.8555 -2.4608 -1.0992
   25MOL0     H 3342  -0.019  11.092   6.515 -1.6630  1.4635 -0.4096
   25MOL0     H 3343  -0.218  10.990   6.375  1.4669 -1.0719 -0.5604
   25MOL0     H 3344  -0.273  10.909   6.517 -0.6962 -0.3854 -4.1314
   25MOL0     H 3345  -0.225  11.210   6.499 -0.0145  1.0865  2.2846
   25MOL0     H 3346  -0.265  11.145   6.649  1.1661  0.1022  0.0170
   25MOL0     H 3347  -0.456  11.233   6.527  1.2230  0.9368 -2.4494
   25MOL0     H 3348  -0.445  11.110   6.406  0.6538 -1.3699  0.0117
   25MOL0     H 3349  -0.477  11.030   6.706  1.0640 -0.2214 -0.9628
   25MOL0     H 3350  -0.489  10.928   6.558  0.5467 -0.7859 -1.3453
   25MOL0     H 3351  -0.673  11.167   6.602 -2.5206 -0.5850  0.2778
   25MOL0     H 3352  -0.687  11.048   6.476 -0.6121  0.2205  0.8413
   25MOL0     H 3353  -0.715  11.023   6.786  3.0500 -3.8966  0.4382
   25MOL0     H 3354  -0.714  10.888   6.683  3.7894  1.7913 -1.2844
   25MOL0     H 3355  -0.945  10.924   6.715  1.3891 -0.2854  0.3732
   25MOL0     H 3356  -0.916  10.984   6.552  0.7389 -2.9582 -0.2300
   25MOL0     H 3357   0.105  10.888   6.244  0.7401  2.6651 -0.6250
   25MOL0     H 3358   0.362  10.916   6.200  0.2650 -0.0645 -0.1658
   25MOL0     H 3359   0.838  10.786   6.368 -2.0288  0.3054 -1.2462
   25MOL0     H 3360   1.066  10.828   6.331 -3.3375 -2.6676 -1.1137
   25MOL0     H 3361   2.897  10.213   6.342 -0.6225 -1.1586 -1.7530
   25MOL0     H 3362   3.116  10.118   6.266  0.4661 -0.5874 -2.5268
   25MOL0     H 3363   3.514  10.106   6.230  0.4407  1.0852  0.4100
   25MOL0     H 3364   3.721   9.965   6.158 -0.1219  0.9450  1.1038
   25MOL0     H 3365   3.929  10.042   6.028  0.6729  0.3566 -1.0561
   25MOL0     H 3366   3.947   9.871   6.062  0.8916  1.4296  0.6813
   25MOL0     H 3367   4.029   9.967   5.788 -0.0186  0.7157  0.2951
   25MOL0     H 3368   4.034   9.805   5.852  2.0372 -0.7190 -0.0270
   25MOL0     H 3369   4.179   9.908   6.054  4.2035 -0.1022  0.7927
   25MOL0     H 3370   4.163  10.051   5.947 -0.2964 -0.1844  1.5118
   25MOL0     H 3371   4.311   9.916   5.768  0.3222 -0.6315 -0.0468
   25MOL0     H 3372   4.252   9.779   5.858 -3.1531  0.9329 -1.5239
   25MOL0     H 3373   4.581   9.945   6.085 -1.3394  2.3783 -0.3677
   25MOL0     H 3374   3.638  10.057   5.739  2.2703 -0.1019  0.8391
   25MOL0     H 3375   3.417  10.150   5.812 -1.2939 -0.9329  0.4431
   26MOL0     O 3376   3.049   8.005   9.689  0.3258  0.3555  0.4502
   26MOL0     C 3377   3.000   8.100   9.736 -0.0934  0.0517 -0.7852
   26MOL0     O 3378   3.058   8.212   9.784 -0.9300  0.3834  0.5348
   26MOL0     C 3379   3.190   8.242   9.775  0.1434 -0.3765  0.2333
   26MOL0     C 3380   3.221   8.348   9.849 -0.1035 -0.7964  0.3100
   26MOL0     C 3381   3.356   8.386   9.867  0.0239 -0.1944 -0.2811
   26MOL0     C 3382   3.459   8.310   9.816  0.8485 -0.4264 -0.1020
   26MOL0     O 3383   3.589   8.359   9.845  0.5664 -0.2832 -0.2002
   26MOL0     C 3384   3.700   8.314   9.763 -0.0448 -0.5427 -0.5610
   26MOL0     C 3385   3.825   8.383   9.808  0.5972 -0.5477 -0.2203
   26MOL0     C 3386   3.865   8.374   9.956 -0.0433  1.1246  0.3148
   26MOL0     C 3387   4.007   8.433   9.990  0.6747  0.2720  0.5639
   26MOL0     C 3388   4.010   8.483  10.125 -0.0903  0.5736 -0.6237
   26MOL0     C 3389   4.147   8.526  10.182  0.0024 -0.5446  0.4539
   26MOL0     C 3390   4.201   8.650  10.092 -0.0171  0.0053  0.0801
   26MOL0     C 3391   4.322   8.713  10.164  0.4700  0.4750 -1.1587
   26MOL0     N 3392   4.368   8.836  10.105 -0.3339  0.0056  0.8068
   26MOL0     C 3393   4.300   8.958  10.098 -0.6983  0.1061  0.0734
   26MOL0     C 3394   4.393   9.046  10.049  0.8195  0.9497  0.7563
   26MOL0     C 3395   4.358   9.187  10.056  0.3590 -0.4757 -0.3429
   26MOL0     C 3396   4.267   9.238   9.941  0.7491 -0.2376  0.4028
   26MOL0     C 3397   4.352   9.284   9.818  0.5574  0.0032  0.1211
   26MOL0     C 3398   4.270   9.349   9.700 -0.6271  0.4467 -0.0026
   26MOL0     O 3399   4.218   9.465   9.757 -0.5199 -0.1977  0.5225
   26MOL0     C 3400   4.087   9.499   9.733  0.1224 -0.5811  0.4065
   26MOL0     C 3401   4.029   9.588   9.826  0.4839 -0.1324  0.4312
   26MOL0     C 3402   3.892   9.629   9.816  0.5815  0.2950  0.6102
   26MOL0     C 3403   3.837   9.714   9.929 -0.2333  0.3875 -0.1080
   26MOL0     C 3404   3.816   9.573   9.713 -0.2282  0.0723  0.3825
   26MOL0     C 3405   3.674   9.616   9.687  0.4889 -0.2647 -0.4052
   26MOL0     O 3406   3.634   9.619   9.553 -0.3593  0.1080  0.6340
   26MOL0     C 3407   3.503   9.648   9.521 -0.8281 -0.6815 -0.9894
   26MOL0     C 3408   3.403   9.563   9.565 -0.3763  0.1835 -0.2201
   26MOL0     C 3409   3.269   9.590   9.540 -0.0914  0.2682  0.6332
   26MOL0     C 3410   3.231   9.705   9.467  0.2644  0.9449 -0.0180
   26MOL0     O 3411   3.098   9.729   9.457 -0.6261  0.3971  1.1638
   26MOL0     C 3412   3.042   9.844   9.502  0.3124 -0.1538 -0.6495
   26MOL0     C 3413   3.056   9.973   9.419 -0.2057  0.1949 -0.2897
   26MOL0     C 3414   2.923  10.031   9.427  1.3120 -0.4499  0.4950
   26MOL0     C 3415   2.911  10.159   9.352  0.2062 -0.2268 -0.7232
   26MOL0     C 3416   2.776  10.236   9.363 -0.1178  0.3297  0.1505
   26MOL0     C 3417   2.667  10.168   9.284  0.6194  0.1706 -0.1336
   26MOL0     C 3418   2.533  10.244   9.283 -0.1199 -0.2119 -0.3508
   26MOL0     C 3419   2.417  10.148   9.283  0.7889 -0.0157  0.6404
   26MOL0    Cl 3420   2.263  10.227   9.289  0.0037 -0.2391 -0.0061
   26MOL0     C 3421   3.330   9.793   9.422  1.2822 -0.3697  0.0643
   26MOL0     C 3422   3.464   9.765   9.455 -0.0589  1.3346  0.0796
   26MOL0     O 3423   3.600   9.651   9.784  0.3670  0.0435 -0.2373
   26MOL0     C 3424   3.875   9.492   9.616  0.1005  0.5166 -0.9428
   26MOL0     C 3425   4.010   9.462   9.623 -0.1214  0.1294  0.5453
   26MOL0     N 3426   4.509   8.975  10.032  0.0368  0.6763 -0.2046
   26MOL0     N 3427   4.495   8.852  10.062  0.5216  0.9788  0.3777
   26MOL0     C 3428   3.427   8.203   9.732  1.2805  0.0779 -0.3498
   26MOL0     C 3429   3.288   8.167   9.716  0.2284 -0.3358  0.3790
   26MOL0     C 3430   2.855   8.100   9.752  0.2288 -0.4733  0.2466
   26MOL0     C 3431   2.792   8.209   9.815 -0.0506  0.0739  0.4808
   26MOL0     C 3432   2.650   8.215   9.833 -0.1423 -0.1682 -1.2658
   26MOL0     C 3433   2.574   8.119   9.770 -0.3824 -0.4116 -0.4096
   26MOL0     O 3434   2.439   8.135   9.764 -0.2364 -0.1917  0.8152
   26MOL0     C 3435   2.382   8.252   9.814  0.0203 -0.0883  0.5766
   26MOL0     C 3436   2.235   8.263   9.781  0.2717  0.4312 -0.5820
   26MOL0     C 3437   2.204   8.351   9.653  1.1828  0.8979 -0.2634
   26MOL0     C 3438   2.053   8.373   9.638 -0.4183  0.1445 -0.2915
   26MOL0     C 3439   1.992   8.440   9.751 -0.1528  0.4010 -0.0219
   26MOL0     C 3440   1.938   8.475   9.855  0.7701  0.4787  0.0917
   26MOL0     C 3441   2.632   8.015   9.700  0.1265 -0.5518 -0.0444
   26MOL0     C 3442   2.772   8.003   9.689 -0.9216  0.9441 -0.9525
   26MOL0     H 3443   3.141   8.413   9.883 -1.0001 -0.7303 -1.7586
   26MOL0     H 3444   3.369   8.480   9.921 -1.3440 -0.7794  1.1544
   26MOL0     H 3445   3.715   8.207   9.775  0.4458 -0.2826  1.4159
   26MOL0     H 3446   3.689   8.339   9.657 -2.1253 -0.6506 -0.4100
   26MOL0     H 3447   3.903   8.341   9.744 -0.8311 -0.8338 -1.8360
   26MOL0     H 3448   3.821   8.485   9.769  0.6759 -1.7559 -3.7792
   26MOL0     H 3449   3.792   8.430  10.015  0.5167  2.7690 -0.4747
   26MOL0     H 3450   3.862   8.270   9.989  1.7220  0.9775  0.1161
   26MOL0     H 3451   4.075   8.354   9.957  1.7821  2.4680 -2.9882
   26MOL0     H 3452   4.034   8.521   9.930 -0.9135 -0.4430 -1.2946
   26MOL0     H 3453   3.945   8.570  10.133 -2.4295 -1.0650 -0.8444
   26MOL0     H 3454   3.965   8.409  10.192 -2.4401  1.1297 -1.5299
   26MOL0     H 3455   4.136   8.556  10.287  1.8265 -0.7810  0.7403
   26MOL0     H 3456   4.214   8.442  10.165 -0.8627 -0.7729 -2.2062
   26MOL0     H 3457   4.248   8.618   9.998 -0.4797  2.1523 -0.9340
   26MOL0     H 3458   4.120   8.723  10.088  0.2164  0.6602  3.9031
   26MOL0     H 3459   4.403   8.639  10.164 -0.1231 -0.2713 -3.5796
   26MOL0     H 3460   4.303   8.735  10.269  0.5463 -1.3058 -0.7392
   26MOL0     H 3461   4.205   8.986  10.143 -0.5120 -1.3334  1.4567
   26MOL0     H 3462   4.314   9.195  10.156 -0.5064 -1.0483 -0.6705
   26MOL0     H 3463   4.454   9.239  10.045  0.3398 -0.7064 -1.8205
   26MOL0     H 3464   4.204   9.322   9.972 -0.6259 -0.5804 -1.2988
   26MOL0     H 3465   4.201   9.153   9.920 -2.1326  1.2094  2.8444
   26MOL0     H 3466   4.420   9.205   9.784 -0.1661 -0.3075 -0.6206
   26MOL0     H 3467   4.422   9.360   9.853 -0.1073  1.3407 -1.3629
   26MOL0     H 3468   4.195   9.279   9.662  0.3595 -1.5597  1.5529
   26MOL0     H 3469   4.331   9.378   9.614  0.5148  1.3471  1.0797
   26MOL0     H 3470   4.087   9.621   9.912  1.6905  2.9792 -1.4001
   26MOL0     H 3471   3.921   9.748   9.989 -0.4396  1.5447 -0.4444
   26MOL0     H 3472   3.785   9.803   9.893  1.3203  0.4203 -2.4808
   26MOL0     H 3473   3.766   9.657   9.989 -0.1436  0.7795  0.3725
   26MOL0     H 3474   3.441   9.480   9.624  1.3783  1.5071  0.6143
   26MOL0     H 3475   3.196   9.521   9.581  0.1333  0.0461  0.6606
   26MOL0     H 3476   2.935   9.821   9.503 -0.2529  2.1663  1.7680
   26MOL0     H 3477   3.073   9.866   9.604 -1.3990 -2.0237  0.3284
   26MOL0     H 3478   3.130  10.045   9.456 -0.5215  0.4425 -0.1369
   26MOL0     H 3479   3.091   9.940   9.321 -1.9183 -0.8338 -0.5942
   26MOL0     H 3480   2.888  10.045   9.530 -2.5080 -0.5877 -0.6353
   26MOL0     H 3481   2.846   9.971   9.378  0.4941  0.2547  0.8732
   26MOL0     H 3482   2.992  10.227   9.381 -0.2623  0.0375  0.0061
   26MOL0     H 3483   2.924  10.135   9.246 -0.5483 -1.6210 -0.5194
   26MOL0     H 3484   2.802  10.332   9.318  0.3754  0.1019 -0.0605
   26MOL0     H 3485   2.759  10.254   9.469 -0.4439  0.4735  0.0746
   26MOL0     H 3486   2.690  10.149   9.179 -4.0294 -1.4942 -1.0716
   26MOL0     H 3487   2.649  10.077   9.341  0.6349 -0.6190 -1.3687
   26MOL0     H 3488   2.536  10.305   9.192  2.2315  1.8918  1.0113
   26MOL0     H 3489   2.521  10.308   9.371 -1.6742 -0.7666 -0.1386
   26MOL0     H 3490   2.421  10.092   9.377  0.2404 -0.3557  0.4678
   26MOL0     H 3491   2.422  10.074   9.202 -1.8286 -2.3153  2.3599
   26MOL0     H 3492   3.309   9.882   9.363  0.6373  1.5547  2.9422
   26MOL0     H 3493   3.542   9.834   9.423 -0.6491  0.8713 -2.5217
   26MOL0     H 3494   3.817   9.445   9.537 -1.4855  2.7552 -1.1972
   26MOL0     H 3495   4.036   9.392   9.544 -2.0248 -0.3577  0.2943
   26MOL0     H 3496   3.507   8.138   9.699  1.1921  0.7665 -2.0195
   26MOL0     H 3497   3.273   8.079   9.655  1.4994  0.8472 -1.7719
   26MOL0     H 3498   2.849   8.286   9.866 -1.0149 -0.0446  1.7620
   26MOL0     H 3499   2.612   8.306   9.878 -0.5604 -0.4365 -1.0701
   26MOL0     H 3500   2.397   8.267   9.921  1.1880  2.0869  0.1718
   26MOL0     H 3501   2.422   8.342   9.765  1.3966 -0.2704  1.3264
   26MOL0     H 3502   2.178   8.304   9.864 -3.4941  0.4489 -2.9738
   26MOL0     H 3503   2.193   8.165   9.757 -0.6719  1.0457 -1.4450
   26MOL0     H 3504   2.253   8.308   9.566  1.5744 -1.8891  1.2107
   26MOL0     H 3505   2.250   8.450   9.666  2.3715  0.6524 -2.1411
   26MOL0     H 3506   2.017   8.273   9.614  1.7911 -0.3299 -1.9932
   26MOL0     H 3507   2.037   8.444   9.556  1.5793  0.7870 -0.1837
   26MOL0     H 3508   1.915   8.509   9.954 -1.3744  0.5090 -0.3839
   26MOL0     H 3509   2.572   7.937   9.654 -3.4344  1.1406  1.2898
   26MOL0     H 3510   2.813   7.924   9.626 -0.8921 -1.3029  1.6972
   27MOL0     O 3511   4.427   0.647   6.938 -0.0128 -0.3676  0.0174
   27MOL0     C 3512   4.493   0.602   7.028 -0.2908 -0.4175 -0.4496
   27MOL0     O 3513   4.448   0.511   7.118 -0.0913 -0.2656  0.3981
   27MOL0     C 3514   4.311   0.497   7.122 -0.5353 -0.0735 -0.2730
   27MOL0     C 3515   4.248   0.550   7.231  1.0063  0.2756  0.7382
   27MOL0     C 3516   4.111   0.561   7.233  0.2390  0.3576  0.4224
   27MOL0     C 3517   4.035   0.491   7.135 -0.3029  0.7254 -0.5629
   27MOL0     O 3518   3.894   0.498   7.139 -0.1388 -0.4638  0.2794
   27MOL0     C 3519   3.813   0.423   7.042 -0.5603 -0.0983  0.4135
   27MOL0     C 3520   3.669   0.455   7.060 -0.8271 -0.4255 -1.3527
   27MOL0     C 3521   3.586   0.372   6.962  0.1966  0.2305 -0.0090
   27MOL0     C 3522   3.442   0.387   6.989 -0.3258 -0.4879 -0.5253
   27MOL0     C 3523   3.369   0.322   6.873 -0.0295  0.0976  0.5526
   27MOL0     C 3524   3.226   0.371   6.875  0.7388  0.4764  0.4906
   27MOL0     C 3525   3.150   0.315   6.751 -0.1871 -1.1531  0.6483
   27MOL0     C 3526   3.103   0.165   6.766 -0.1119  0.2438  0.7577
   27MOL0     N 3527   3.017   0.105   6.664  0.0935 -0.0906 -0.5253
   27MOL0     C 3528   2.915   0.174   6.614  0.2119  0.0716 -0.4400
   27MOL0     C 3529   2.870   0.088   6.526 -0.4235  0.6287 -0.3297
   27MOL0     C 3530   2.730   0.096   6.466 -0.1457  0.6557  0.0584
   27MOL0     C 3531   2.609   0.043   6.550  0.3622  0.4000  0.2743
   27MOL0     C 3532   2.625  -0.109   6.573  0.1521  0.7432  0.0553
   27MOL0     C 3533   2.538  -0.165   6.683  0.1254 -0.3963  0.5428
   27MOL0     O 3534   2.397  -0.122   6.671 -0.0641  0.3277 -0.8353
   27MOL0     C 3535   2.317  -0.158   6.566  0.1869 -0.6752 -0.1028
   27MOL0     C 3536   2.342  -0.256   6.476 -0.1718 -0.9054  0.2501
   27MOL0     C 3537   2.250  -0.284   6.372  0.1082  0.1125  0.6890
   27MOL0     C 3538   2.288  -0.398   6.283  0.3559 -0.0468  0.6846
   27MOL0     C 3539   2.125  -0.217   6.358 -0.7624 -0.0682  0.7855
   27MOL0     C 3540   2.016  -0.255   6.262 -0.1958 -0.5772  0.8354
   27MOL0     O 3541   1.912  -0.168   6.243 -0.2672  0.3232  0.1619
   27MOL0     C 3542   1.821  -0.180   6.136 -0.2238  0.0347  0.0294
   27MOL0     C 3543   1.818  -0.265   6.023  0.2230 -0.6808 -1.0395
   27MOL0     C 3544   1.702  -0.273   5.943 -0.0717 -0.4935  0.6880
   27MOL0     C 3545   1.592  -0.190   5.962 -0.0888  0.1494 -0.3287
   27MOL0     O 3546   1.471  -0.199   5.888  0.5165  0.3800 -0.2552
   27MOL0     C 3547   1.441  -0.319   5.815 -0.8257 -0.2513  0.3205
   27MOL0     C 3548   1.293  -0.322   5.771  0.1693 -0.3260 -0.7299
   27MOL0     C 3549   1.205  -0.321   5.895 -0.8793  0.9178 -0.1691
   27MOL0     C 3550   1.063  -0.341   5.853 -0.1995 -0.9441 -0.4609
   27MOL0     C 3551   0.969  -0.336   5.980  0.1733  0.8713  0.3611
   27MOL0     C 3552   0.820  -0.309   5.945  0.3062 -0.4997  0.2306
   27MOL0     C 3553   0.739  -0.275   6.064 -0.1488 -0.4425  0.0125
   27MOL0     C 3554   0.601  -0.223   6.040 -0.4358  0.4121  0.3920
   27MOL0    Cl 3555   0.485  -0.350   5.978  0.3680 -0.5831  0.0315
   27MOL0     C 3556   1.600  -0.094   6.064 -0.5410 -0.1011  0.9365
   27MOL0     C 3557   1.708  -0.098   6.149 -0.3002 -0.8411 -0.3038
   27MOL0     O 3558   2.024  -0.364   6.207 -0.1230  0.5503  0.4945
   27MOL0     C 3559   2.106  -0.115   6.460 -0.3111 -0.2414 -0.4995
   27MOL0     C 3560   2.194  -0.092   6.568  0.4758  0.3154 -0.3375
   27MOL0     N 3561   2.959  -0.025   6.503 -0.4538 -1.5114  1.3098
   27MOL0     N 3562   3.053  -0.004   6.592  0.8305  0.4809 -0.3167
   27MOL0     C 3563   4.103   0.414   7.042  0.5669  0.3256  0.2922
   27MOL0     C 3564   4.243   0.429   7.031  0.2364  0.8818 -0.1711
   27MOL0     C 3565   4.634   0.639   7.043  0.0858  0.0765  0.1207
   27MOL0     C 3566   4.719   0.565   7.132 -0.3569  0.9260  0.2418
   27MOL0     C 3567   4.856   0.597   7.136 -0.9231 -0.6308  0.4905
   27MOL0     C 3568   4.904   0.708   7.060  0.5474  0.0942  0.1092
   27MOL0     O 3569   5.038   0.740   7.055 -0.2904 -0.1044 -0.4146
   27MOL0     C 3570   5.135   0.673   7.137  0.1099 -0.8371 -0.7617
   27MOL0     C 3571   5.277   0.742   7.131 -0.6221 -0.0317 -0.4912
   27MOL0     C 3572   5.389   0.643   7.165 -0.6994 -0.6156  0.1270
   27MOL0     C 3573   5.509   0.724   7.216  0.2843  0.5109 -0.5243
   27MOL0     C 3574   5.619   0.627   7.231 -0.2016 -0.4482  0.3911
   27MOL0     C 3575   5.692   0.537   7.246 -0.0486 -0.7961 -0.1303
   27MOL0     C 3576   4.825   0.763   6.965  0.5165  1.2888  0.4923
   27MOL0     C 3577   4.692   0.731   6.960  0.8906  0.0234 -0.2895
   27MOL0     H 3578   4.306   0.588   7.314  2.5367 -0.7180  0.1853
   27MOL0     H 3579   4.070   0.627   7.309 -0.0987  0.9458 -0.2558
   27MOL0     H 3580   3.850   0.447   6.942 -0.3804 -0.5947  0.3557
   27MOL0     H 3581   3.836   0.320   7.073  0.4583 -0.1755 -0.5586
   27MOL0     H 3582   3.640   0.430   7.162  2.5832  1.4507  0.2545
   27MOL0     H 3583   3.651   0.563   7.049  1.3899 -0.1183 -2.7826
   27MOL0     H 3584   3.620   0.409   6.864 -0.4593 -1.7297 -1.0201
   27MOL0     H 3585   3.618   0.269   6.981  0.3835  0.2722 -0.0854
   27MOL0     H 3586   3.417   0.325   7.076 -1.1989 -0.7671 -0.9685
   27MOL0     H 3587   3.415   0.493   6.993 -0.5107 -0.4351 -2.4428
   27MOL0     H 3588   3.416   0.339   6.775  0.2772  0.6543  0.7945
   27MOL0     H 3589   3.360   0.214   6.887  0.0144 -0.0285 -0.3170
   27MOL0     H 3590   3.183   0.358   6.974 -0.4436  2.1503  0.2437
   27MOL0     H 3591   3.229   0.479   6.860  0.5957  0.2599 -1.4429
   27MOL0     H 3592   3.060   0.377   6.745  0.0747 -0.3871  3.2074
   27MOL0     H 3593   3.200   0.338   6.657 -1.2192  0.6385  0.4795
   27MOL0     H 3594   3.058   0.165   6.866  0.8859  4.7663  1.4282
   27MOL0     H 3595   3.191   0.101   6.777 -1.4176 -1.2012  4.0962
   27MOL0     H 3596   2.864   0.260   6.659 -0.3701  0.9477 -2.6423
   27MOL0     H 3597   2.707   0.198   6.433 -0.7261 -0.0688 -1.8746
   27MOL0     H 3598   2.729   0.041   6.372 -0.7830  2.4865 -1.0704
   27MOL0     H 3599   2.517   0.070   6.497 -0.1577  1.6950  1.7470
   27MOL0     H 3600   2.614   0.098   6.645  1.9756  0.9760 -0.1125
   27MOL0     H 3601   2.729  -0.134   6.595 -0.6424 -1.2246  1.9529
   27MOL0     H 3602   2.606  -0.162   6.480 -0.6063  0.3371  0.4240
   27MOL0     H 3603   2.567  -0.132   6.783 -2.8404 -0.4130  1.4994
   27MOL0     H 3604   2.551  -0.274   6.674 -4.5301 -1.1064  0.1801
   27MOL0     H 3605   2.432  -0.316   6.478 -0.2123 -1.0096 -0.7155
   27MOL0     H 3606   2.388  -0.432   6.312  1.1819  1.7642  0.0856
   27MOL0     H 3607   2.221  -0.483   6.299 -0.0033  0.4989  2.2404
   27MOL0     H 3608   2.295  -0.361   6.181  2.2830  1.2356  1.2372
   27MOL0     H 3609   1.901  -0.334   6.012  1.3102 -0.2103  2.8803
   27MOL0     H 3610   1.710  -0.351   5.868  2.6157 -1.4755  1.8700
   27MOL0     H 3611   1.484  -0.304   5.715 -1.5890  0.9396  0.1421
   27MOL0     H 3612   1.461  -0.416   5.862 -3.6404 -0.9295  0.2855
   27MOL0     H 3613   1.268  -0.236   5.708 -4.1022  0.2310  1.3514
   27MOL0     H 3614   1.281  -0.408   5.704  1.8023 -0.3091 -1.0861
   27MOL0     H 3615   1.198  -0.221   5.938  0.7649  0.5653  1.0079
   27MOL0     H 3616   1.250  -0.395   5.962  1.4190  1.4198 -1.0617
   27MOL0     H 3617   1.030  -0.252   5.798  0.5279 -0.7699 -0.6275
   27MOL0     H 3618   1.053  -0.431   5.791 -1.2280 -0.0032 -1.7151
   27MOL0     H 3619   1.009  -0.252   6.038 -1.2424  1.1711  0.9559
   27MOL0     H 3620   0.984  -0.426   6.041 -0.6884  1.3633  1.3344
   27MOL0     H 3621   0.822  -0.225   5.876  1.9616 -2.3332 -2.1270
   27MOL0     H 3622   0.790  -0.404   5.898 -2.0129 -0.0636  0.7019
   27MOL0     H 3623   0.793  -0.200   6.123 -1.4867 -1.8870  3.3177
   27MOL0     H 3624   0.719  -0.362   6.127 -1.0665 -0.1407  0.1473
   27MOL0     H 3625   0.605  -0.143   5.966  1.4670  0.5122  0.5501
   27MOL0     H 3626   0.560  -0.180   6.131  0.4935  0.7088  0.6819
   27MOL0     H 3627   1.515  -0.031   6.087 -1.2904 -1.3027  1.5394
   27MOL0     H 3628   1.709  -0.037   6.239  0.1018 -1.8625  0.4081
   27MOL0     H 3629   2.014  -0.058   6.454  0.9227  1.9978  0.2910
   27MOL0     H 3630   2.162  -0.019   6.641 -0.3178  1.7600 -2.0710
   27MOL0     H 3631   4.049   0.370   6.959  1.7417 -0.9393  0.1650
   27MOL0     H 3632   4.286   0.371   6.951  0.5005  1.1891 -0.2543
   27MOL0     H 3633   4.676   0.484   7.189  0.6845 -1.5260 -2.2202
   27MOL0     H 3634   4.917   0.534   7.200  0.4440 -0.6154 -0.7375
   27MOL0     H 3635   5.100   0.675   7.241  0.5896  1.9770 -0.5722
   27MOL0     H 3636   5.144   0.569   7.106 -1.5054 -2.4521  3.4501
   27MOL0     H 3637   5.284   0.822   7.205  0.3280 -0.4629 -0.0906
   27MOL0     H 3638   5.300   0.788   7.034 -1.4474 -0.4016 -0.8731
   27MOL0     H 3639   5.417   0.582   7.079 -0.2814  2.3709 -2.0263
   27MOL0     H 3640   5.361   0.581   7.251  1.4417 -0.6231  0.8887
   27MOL0     H 3641   5.488   0.765   7.315  1.0218  0.7974 -0.4827
   27MOL0     H 3642   5.530   0.798   7.139 -0.2341  1.9371  0.6655
   27MOL0     H 3643   5.739   0.441   7.256  0.6604 -0.5698 -1.2056
   27MOL0     H 3644   4.876   0.835   6.902  0.7676  1.2744  0.6784
   27MOL0     H 3645   4.639   0.788   6.884  0.9872  1.1232  0.4294
   28MOL0     O 3646   4.677  10.431   1.417  0.4956  0.3122  0.8508
   28MOL0     C 3647   4.679  10.556   1.400  0.7616  0.0647  0.1178
   28MOL0     O 3648   4.588  10.625   1.340  0.2580  0.0022 -0.6630
   28MOL0     C 3649   4.465  10.579   1.284 -1.7652 -0.7784  0.5371
   28MOL0     C 3650   4.426  10.447   1.255  0.5344  0.1663 -0.4090
   28MOL0     C 3651   4.301  10.429   1.200  1.1885  0.5684 -0.0051
   28MOL0     C 3652   4.212  10.529   1.184 -0.4680  0.0617 -0.2385
   28MOL0     O 3653   4.092  10.499   1.138  0.0660 -0.4370 -0.0677
   28MOL0     C 3654   3.995  10.597   1.121  0.5228 -1.0922  0.2674
   28MOL0     C 3655   3.870  10.532   1.083 -0.1080 -0.3822  0.5891
   28MOL0     C 3656   3.789  10.633   0.991 -0.9956 -0.2453 -0.9900
   28MOL0     C 3657   3.642  10.575   0.977 -0.6952 -0.2913 -0.9831
   28MOL0     C 3658   3.559  10.668   0.891  0.3630 -0.0759  0.2649
   28MOL0     C 3659   3.446  10.575   0.838 -0.1855  0.7887 -0.2714
   28MOL0     C 3660   3.348  10.629   0.737  1.5582  0.5872  0.7326
   28MOL0     C 3661   3.273  10.520   0.658 -0.1923 -0.1084  0.6030
   28MOL0     N 3662   3.166  10.572   0.575 -0.3632 -0.3975  0.3471
   28MOL0     C 3663   3.032  10.596   0.603 -0.4111  0.0676  0.2674
   28MOL0     C 3664   2.976  10.624   0.486 -0.2673  0.3163 -0.0840
   28MOL0     C 3665   2.836  10.661   0.452 -0.4184  0.0346  0.6652
   28MOL0     C 3666   2.763  10.561   0.354  0.2262  0.2279  0.6240
   28MOL0     C 3667   2.643  10.604   0.269  0.1537  0.7386  0.7884
   28MOL0     C 3668   2.506  10.585   0.337 -0.2695 -0.5707 -0.0045
   28MOL0     O 3669   2.499  10.671   0.459  0.1328 -0.2225  0.5310
   28MOL0     C 3670   2.378  10.669   0.531  0.4027  0.6826 -0.2312
   28MOL0     C 3671   2.375  10.758   0.639 -0.2110  0.3289  0.1962
   28MOL0     C 3672   2.262  10.768   0.720 -0.9859  0.2745 -0.2308
   28MOL0     C 3673   2.253  10.886   0.809  0.7232  0.6408  0.2161
   28MOL0     C 3674   2.146  10.692   0.697 -0.5373 -0.0224 -0.8831
   28MOL0     C 3675   2.017  10.697   0.775  0.6495  0.2589  0.2965
   28MOL0     O 3676   1.923  10.598   0.745  0.3753 -0.3339  0.5908
   28MOL0     C 3677   1.795  10.595   0.807  0.3166  0.5172 -0.1693
   28MOL0     C 3678   1.725  10.704   0.864  0.6824 -0.1760  0.7640
   28MOL0     C 3679   1.583  10.692   0.897 -0.4313 -0.3158 -0.3174
   28MOL0     C 3680   1.525  10.562   0.890  0.6776  0.7867  0.0950
   28MOL0     O 3681   1.394  10.527   0.915  0.1888  0.5964  0.2926
   28MOL0     C 3682   1.301  10.636   0.917 -0.2893 -0.0665  0.0920
   28MOL0     C 3683   1.162  10.592   0.945  0.2491 -0.3463 -0.2658
   28MOL0     C 3684   1.062  10.713   0.970 -0.0302 -0.6014  0.0536
   28MOL0     C 3685   0.920  10.679   1.000  0.0953  0.1385  0.4311
   28MOL0     C 3686   0.860  10.544   0.942  0.7981 -0.1502  0.3136
   28MOL0     C 3687   0.720  10.494   0.976  1.0142  0.4528 -0.2166
   28MOL0     C 3688   0.630  10.614   0.985  0.3489 -0.2440 -0.5994
   28MOL0     C 3689   0.481  10.580   1.009 -0.6264 -0.0839  0.5685
   28MOL0    Cl 3690   0.436  10.458   0.891 -0.1345 -0.0050  0.1868
   28MOL0     C 3691   1.607  10.454   0.855 -0.3703  0.7162 -0.4988
   28MOL0     C 3692   1.737  10.467   0.805  0.6334  0.5409  0.8483
   28MOL0     O 3693   2.002  10.776   0.870 -0.2061 -0.4423  0.4349
   28MOL0     C 3694   2.155  10.598   0.593 -0.5629 -0.0608 -0.4225
   28MOL0     C 3695   2.270  10.584   0.517 -0.4950 -0.0580 -0.2316
   28MOL0     N 3696   3.069  10.610   0.387 -0.2439 -0.0787  0.0491
   28MOL0     N 3697   3.181  10.577   0.439 -0.0551 -0.1131  0.4169
   28MOL0     C 3698   4.249  10.662   1.215 -0.3130  0.3477  0.0576
   28MOL0     C 3699   4.376  10.684   1.266  0.6072  0.3520 -0.3315
   28MOL0     C 3700   4.796  10.634   1.436  0.3078 -0.0276 -0.2627
   28MOL0     C 3701   4.802  10.777   1.410  0.5561  0.1335 -0.2226
   28MOL0     C 3702   4.914  10.851   1.443 -0.4108  0.7036 -0.4182
   28MOL0     C 3703   5.015  10.796   1.520 -0.0516 -0.4146 -0.2587
   28MOL0     O 3704   5.114  10.892   1.560 -0.0093  0.1883  0.1116
   28MOL0     C 3705   5.212  10.841   1.644  0.6639 -0.0739 -0.0367
   28MOL0     C 3706   5.314  10.946   1.661  0.0850  0.7771 -0.2454
   28MOL0     C 3707   5.439  10.897   1.735  0.0930 -0.5646  0.5919
   28MOL0     C 3708   5.541  10.820   1.641 -0.2451  0.2147 -0.5956
   28MOL0     C 3709   5.668  10.803   1.710  0.3215  1.1296 -0.2580
   28MOL0     C 3710   5.773  10.777   1.775  0.5481 -0.4581 -0.2466
   28MOL0     C 3711   5.009  10.661   1.552  0.2925 -0.3439 -0.6693
   28MOL0     C 3712   4.903  10.577   1.510 -0.6157 -0.0439 -0.3595
   28MOL0     H 3713   4.499  10.368   1.270 -0.0713 -0.3696 -0.2276
   28MOL0     H 3714   4.268  10.332   1.163 -0.5169  1.0741  0.0912
   28MOL0     H 3715   3.969  10.665   1.202 -0.8418 -0.7070 -0.4544
   28MOL0     H 3716   4.032  10.664   1.042 -1.5744  2.6761  2.1795
   28MOL0     H 3717   3.884  10.446   1.018  1.7196  1.0202 -1.0222
   28MOL0     H 3718   3.818  10.500   1.174 -3.1266  0.4433 -0.7391
   28MOL0     H 3719   3.795  10.730   1.042  0.3846 -0.9686  0.3248
   28MOL0     H 3720   3.830  10.655   0.892 -0.4219  1.1632 -0.4735
   28MOL0     H 3721   3.646  10.474   0.938  1.0258  0.1481 -2.0591
   28MOL0     H 3722   3.590  10.575   1.073  1.0194  0.8325  0.0077
   28MOL0     H 3723   3.523  10.745   0.959 -1.6201 -0.4070 -0.3333
   28MOL0     H 3724   3.615  10.717   0.811  1.9709  2.0195  2.5520
   28MOL0     H 3725   3.502  10.498   0.784 -3.3235 -0.7248 -1.5800
   28MOL0     H 3726   3.395  10.526   0.921 -0.7279 -0.1659 -1.1403
   28MOL0     H 3727   3.279  10.699   0.785  0.4198  2.4256 -3.1625
   28MOL0     H 3728   3.397  10.689   0.659  2.2222  0.0451  0.7233
   28MOL0     H 3729   3.235  10.435   0.717  1.1306 -2.8545 -2.1894
   28MOL0     H 3730   3.342  10.476   0.585  0.5636  1.4549  0.3411
   28MOL0     H 3731   2.996  10.595   0.705 -0.9532  0.3118  0.0860
   28MOL0     H 3732   2.780  10.677   0.545 -0.0468  1.1106  0.7151
   28MOL0     H 3733   2.841  10.751   0.391 -0.0343 -0.9390 -0.7710
   28MOL0     H 3734   2.731  10.486   0.428 -0.1985  0.9937  1.2334
   28MOL0     H 3735   2.836  10.510   0.291 -0.6085 -3.0540  2.0583
   28MOL0     H 3736   2.657  10.556   0.172  0.3202  3.7768 -0.8212
   28MOL0     H 3737   2.657  10.709   0.241  1.1077  1.5068  3.7861
   28MOL0     H 3738   2.498  10.477   0.356 -1.3094 -0.5615 -0.3263
   28MOL0     H 3739   2.432  10.616   0.262  0.6751  0.7810 -0.4224
   28MOL0     H 3740   2.469  10.813   0.642  1.7333 -2.8116  1.6846
   28MOL0     H 3741   2.348  10.940   0.807  1.0491  0.0433 -0.7119
   28MOL0     H 3742   2.181  10.957   0.766  2.8009  2.5708 -0.3007
   28MOL0     H 3743   2.233  10.859   0.913  2.9080  0.7962  0.7173
   28MOL0     H 3744   1.769  10.803   0.861 -0.0293  0.2494  3.0410
   28MOL0     H 3745   1.516  10.774   0.920 -1.8625 -2.0860  2.3947
   28MOL0     H 3746   1.324  10.705   0.999  1.1075  0.6195 -0.8436
   28MOL0     H 3747   1.303  10.679   0.817  0.8748  0.2412  0.2348
   28MOL0     H 3748   1.129  10.534   0.858  0.5460 -1.4910  0.3549
   28MOL0     H 3749   1.155  10.538   1.039  0.6825  2.5821  1.5572
   28MOL0     H 3750   1.062  10.776   0.881 -0.2764 -0.1646  0.3599
   28MOL0     H 3751   1.094  10.773   1.056  0.4777  1.8494 -1.7707
   28MOL0     H 3752   0.911  10.683   1.109  1.1734  0.9929  0.5030
   28MOL0     H 3753   0.863  10.767   0.968  2.7273  1.0426 -2.2033
   28MOL0     H 3754   0.934  10.467   0.965  1.2773  0.3017  0.2964
   28MOL0     H 3755   0.868  10.551   0.834  3.9749 -0.2636  0.4434
   28MOL0     H 3756   0.680  10.415   0.912 -1.1253 -0.7937  2.4689
   28MOL0     H 3757   0.727  10.447   1.075  1.0653  2.5879  0.8739
   28MOL0     H 3758   0.654  10.670   0.895  1.4287 -1.8836 -1.3867
   28MOL0     H 3759   0.658  10.683   1.065 -5.9368  2.2135  0.0377
   28MOL0     H 3760   0.433  10.677   0.989 -1.5530 -0.8907 -1.2868
   28MOL0     H 3761   0.450  10.539   1.105  1.2045 -2.1697  0.3288
   28MOL0     H 3762   1.557  10.357   0.861  1.7976 -0.3687  2.9214
   28MOL0     H 3763   1.781  10.378   0.762  3.6667  3.0011 -1.6912
   28MOL0     H 3764   2.070  10.540   0.558 -1.4450  1.8940 -1.7334
   28MOL0     H 3765   2.253  10.512   0.437 -2.5100 -0.8559  0.8475
   28MOL0     H 3766   4.183  10.747   1.205 -1.4231 -0.4230  0.5502
   28MOL0     H 3767   4.393  10.787   1.295 -0.9093  0.2276  1.1337
   28MOL0     H 3768   4.728  10.827   1.347  0.0662  1.2316  1.1657
   28MOL0     H 3769   4.937  10.950   1.403  1.1972  1.4441  2.0913
   28MOL0     H 3770   5.171  10.804   1.738  0.1447 -1.7451 -0.8815
   28MOL0     H 3771   5.257  10.752   1.600 -0.1809 -1.0257  0.9568
   28MOL0     H 3772   5.263  11.013   1.732  0.8711 -0.2415  1.3248
   28MOL0     H 3773   5.341  10.986   1.564 -0.4131 -1.3946 -1.3467
   28MOL0     H 3774   5.414  10.855   1.833 -2.0101 -0.1352  0.2706
   28MOL0     H 3775   5.496  10.985   1.766  0.7162 -0.3811 -0.9874
   28MOL0     H 3776   5.557  10.868   1.544  0.2001 -2.0510 -1.7070
   28MOL0     H 3777   5.491  10.725   1.617 -0.0807 -0.4173  1.4098
   28MOL0     H 3778   5.865  10.748   1.821 -0.2744  0.2445  1.9880
   28MOL0     H 3779   5.088  10.618   1.612 -1.1655 -3.0387 -0.5337
   28MOL0     H 3780   4.902  10.470   1.526 -0.3270  0.2865  2.1716
   29MOL0     O 3781   5.950   3.223   8.623 -0.0360 -0.0491  0.0838
   29MOL0     C 3782   6.061   3.174   8.650  0.0745 -0.4685 -0.0683
   29MOL0     O 3783   6.183   3.245   8.631  0.0751  0.6004 -0.0870
   29MOL0     C 3784   6.178   3.377   8.591 -0.7461 -0.4556 -0.4412
   29MOL0     C 3785   6.114   3.467   8.667 -0.5200  0.4380  0.3385
   29MOL0     C 3786   6.098   3.595   8.617 -0.6956 -0.3283 -1.0896
   29MOL0     C 3787   6.171   3.636   8.509 -0.1805 -0.5359  0.1429
   29MOL0     O 3788   6.168   3.768   8.458 -0.3634  0.2954  0.1215
   29MOL0     C 3789   6.113   3.873   8.538 -0.2805  0.4824 -0.4151
   29MOL0     C 3790   5.952   3.884   8.540 -0.1789 -0.2895 -0.2928
   29MOL0     C 3791   5.882   3.868   8.403 -0.0272  0.4409  0.4424
   29MOL0     C 3792   5.758   3.951   8.393 -0.4405  0.1929  0.6059
   29MOL0     C 3793   5.698   3.947   8.252  0.3068  0.2783 -0.0476
   29MOL0     C 3794   5.567   4.032   8.245 -0.1757  0.2615 -0.8600
   29MOL0     C 3795   5.518   4.043   8.094 -0.1478  0.0067 -0.0608
   29MOL0     C 3796   5.369   4.077   8.076 -0.2563 -0.5644  0.5406
   29MOL0     N 3797   5.331   4.060   7.930 -0.0703 -0.0310 -0.8835
   29MOL0     C 3798   5.336   4.163   7.842 -0.3605 -0.5946  0.3436
   29MOL0     C 3799   5.324   4.094   7.722  0.1962 -0.1282  0.1591
   29MOL0     C 3800   5.307   4.162   7.592  0.3299  0.1213 -0.0504
   29MOL0     C 3801   5.164   4.204   7.552 -0.5795  0.2443 -0.2253
   29MOL0     C 3802   5.130   4.172   7.406  0.3283  0.8229  0.0167
   29MOL0     C 3803   5.100   4.024   7.385  0.3114  0.2634 -0.5031
   29MOL0     O 3804   5.083   4.005   7.245  0.3132 -0.4470 -0.1950
   29MOL0     C 3805   4.960   4.026   7.183 -0.0233  0.7091  0.6251
   29MOL0     C 3806   4.960   3.994   7.043  0.1362  1.0887  0.0668
   29MOL0     C 3807   4.847   3.994   6.965 -0.1782 -0.2589  0.4611
   29MOL0     C 3808   4.854   3.951   6.816 -0.0073  0.2254 -0.4483
   29MOL0     C 3809   4.721   4.018   7.032  0.1124 -0.3854  0.1718
   29MOL0     C 3810   4.591   3.990   6.967  0.5699 -0.6363  0.0721
   29MOL0     O 3811   4.581   3.906   6.865  0.1050 -0.5861 -0.3743
   29MOL0     C 3812   4.461   3.902   6.793  0.1455  0.7986 -0.1138
   29MOL0     C 3813   4.353   3.814   6.824 -1.1934  1.0608  0.1613
   29MOL0     C 3814   4.230   3.811   6.750  0.4473  0.1414 -0.2323
   29MOL0     C 3815   4.223   3.885   6.630 -0.5694 -0.7389 -0.0129
   29MOL0     O 3816   4.100   3.877   6.565  0.6723 -0.0310 -0.5090
   29MOL0     C 3817   4.079   3.954   6.452  0.4832  0.5051 -0.1037
   29MOL0     C 3818   3.963   3.904   6.365 -0.4715 -0.8974 -0.3238
   29MOL0     C 3819   3.959   3.965   6.228  0.3192  0.2848 -0.2185
   29MOL0     C 3820   3.837   3.921   6.132  0.4798 -0.5065 -0.3211
   29MOL0     C 3821   3.702   3.968   6.185 -0.3333 -0.5596  0.5977
   29MOL0     C 3822   3.679   4.119   6.150 -0.2200  0.2431 -0.6595
   29MOL0     C 3823   3.578   4.161   6.262  0.5599 -0.4252 -0.0186
   29MOL0     C 3824   3.437   4.121   6.237  0.1813  0.0414 -0.2211
   29MOL0    Cl 3825   3.382   4.154   6.069  0.1283 -0.1393 -0.0644
   29MOL0     C 3826   4.327   3.969   6.592  0.0556 -0.0127  0.1618
   29MOL0     C 3827   4.440   3.984   6.680 -0.2497 -0.8142 -1.2163
   29MOL0     O 3828   4.496   4.047   7.015  0.8733 -0.2742 -0.0817
   29MOL0     C 3829   4.726   4.067   7.166  0.1383  0.7456  0.2391
   29MOL0     C 3830   4.843   4.069   7.241 -0.2117  0.1146 -0.0728
   29MOL0     N 3831   5.305   3.957   7.747 -0.1796  0.4732 -0.9135
   29MOL0     N 3832   5.306   3.938   7.879 -0.3601  0.6371  0.5389
   29MOL0     C 3833   6.237   3.544   8.430 -0.2941 -0.4761 -0.7827
   29MOL0     C 3834   6.234   3.412   8.474 -0.4945 -0.1477  0.4777
   29MOL0     C 3835   6.068   3.030   8.713 -1.2133 -0.7740 -0.4299
   29MOL0     C 3836   5.961   2.935   8.707  0.1965 -0.1934  0.4925
   29MOL0     C 3837   5.972   2.803   8.758  1.3961  0.0684 -0.5396
   29MOL0     C 3838   6.083   2.766   8.829 -0.2894 -0.2053 -0.2600
   29MOL0     O 3839   6.081   2.645   8.881  0.0775 -0.1139  0.4302
   29MOL0     C 3840   6.187   2.605   8.965  0.2643  0.1707  0.4347
   29MOL0     C 3841   6.148   2.478   9.039 -0.1436  0.0198 -0.3270
   29MOL0     C 3842   6.261   2.427   9.127  0.7937 -0.5512  0.4463
   29MOL0     C 3843   6.247   2.292   9.202  0.5366  0.3976 -0.8151
   29MOL0     C 3844   6.116   2.259   9.250 -0.2427 -0.2104  0.4838
   29MOL0     C 3845   6.012   2.233   9.306 -0.1273 -0.8344  0.1682
   29MOL0     C 3846   6.187   2.851   8.839 -0.7759 -0.1600 -0.2556
   29MOL0     C 3847   6.186   2.977   8.779  0.1316 -0.4312  0.1855
   29MOL0     H 3848   6.068   3.439   8.761 -1.5512  2.7761  0.5924
   29MOL0     H 3849   6.046   3.672   8.674  0.7323 -0.3112  0.2540
   29MOL0     H 3850   6.140   3.862   8.644  1.1969  2.2009 -0.5738
   29MOL0     H 3851   6.166   3.962   8.505  0.9891 -0.3023 -0.5929
   29MOL0     H 3852   5.918   3.811   8.614  0.6668  0.0365  0.4311
   29MOL0     H 3853   5.935   3.985   8.577  1.9670 -0.1731  0.5339
   29MOL0     H 3854   5.948   3.908   8.325 -1.3499  1.3452 -0.2407
   29MOL0     H 3855   5.856   3.767   8.373  2.5115  0.3752 -1.9314
   29MOL0     H 3856   5.688   3.903   8.462 -0.4051 -1.1778 -0.2660
   29MOL0     H 3857   5.779   4.051   8.433 -0.9050  0.7824 -0.5826
   29MOL0     H 3858   5.770   3.980   8.176  2.3932 -1.8139  0.9069
   29MOL0     H 3859   5.667   3.847   8.222 -1.4831  0.4248  1.1907
   29MOL0     H 3860   5.487   3.987   8.304  1.0593 -0.0300  0.6453
   29MOL0     H 3861   5.587   4.132   8.283 -2.5333 -0.0827  1.5630
   29MOL0     H 3862   5.582   4.122   8.054  1.9899 -0.1771  2.6400
   29MOL0     H 3863   5.523   3.949   8.039  0.5012 -0.8103  1.3329
   29MOL0     H 3864   5.345   4.179   8.105  1.3355  0.7346 -2.2985
   29MOL0     H 3865   5.308   4.007   8.134  1.5992 -2.4249  0.3653
   29MOL0     H 3866   5.355   4.269   7.855 -1.3095 -0.3510 -0.1246
   29MOL0     H 3867   5.361   4.257   7.601 -1.5399  1.0347  3.1633
   29MOL0     H 3868   5.361   4.103   7.518  0.7526  0.0995  0.2750
   29MOL0     H 3869   5.144   4.307   7.582 -1.4095  0.0697 -0.1522
   29MOL0     H 3870   5.093   4.147   7.613  1.3931 -0.9806  1.0327
   29MOL0     H 3871   5.209   4.208   7.339 -1.0348  3.3959 -0.3189
   29MOL0     H 3872   5.050   4.244   7.385 -0.7697 -0.1313  0.7905
   29MOL0     H 3873   5.013   3.988   7.440 -1.0830  3.3789 -0.4572
   29MOL0     H 3874   5.182   3.959   7.415 -0.1921 -0.7067 -1.1928
   29MOL0     H 3875   5.048   3.972   6.982  1.0827  2.4634  0.8772
   29MOL0     H 3876   4.809   4.028   6.754  1.5680  0.9662 -0.7170
   29MOL0     H 3877   4.956   3.934   6.781  0.9022  3.7930  0.1185
   29MOL0     H 3878   4.795   3.861   6.796  0.0334  0.3116 -0.9682
   29MOL0     H 3879   4.349   3.763   6.920  0.4830  1.6593  0.5925
   29MOL0     H 3880   4.147   3.751   6.786  0.9224  0.9266  2.3922
   29MOL0     H 3881   4.069   4.056   6.491  2.0493 -0.0143  1.8336
   29MOL0     H 3882   4.165   3.947   6.385  1.9067 -1.7730  1.7742
   29MOL0     H 3883   3.969   3.795   6.365  1.1800 -0.8668  1.4467
   29MOL0     H 3884   3.869   3.928   6.416  0.5808  2.2616  0.3662
   29MOL0     H 3885   4.044   3.925   6.172 -0.8080  0.9296 -2.5306
   29MOL0     H 3886   3.972   4.073   6.236  0.5245  0.2579 -0.1958
   29MOL0     H 3887   3.845   3.947   6.027 -1.1147 -0.1803 -0.3936
   29MOL0     H 3888   3.836   3.811   6.133 -0.5389 -0.5219  1.0935
   29MOL0     H 3889   3.698   3.961   6.294 -0.2919  1.1589  0.7380
   29MOL0     H 3890   3.635   3.896   6.135  0.4232 -0.3491 -0.7857
   29MOL0     H 3891   3.771   4.179   6.148  0.0883 -0.1756 -3.3513
   29MOL0     H 3892   3.644   4.120   6.046 -1.4427  0.1377 -0.2675
   29MOL0     H 3893   3.577   4.270   6.267  0.8886 -0.4380  0.3496
   29MOL0     H 3894   3.612   4.127   6.360  1.2257  0.0997 -0.0632
   29MOL0     H 3895   3.372   4.178   6.304  1.0609 -0.5391  1.1711
   29MOL0     H 3896   3.425   4.013   6.252 -0.1008 -0.2661 -2.4148
   29MOL0     H 3897   4.313   4.034   6.506  1.7699  0.3446  0.1177
   29MOL0     H 3898   4.526   4.047   6.657 -1.4426  1.1666 -0.5286
   29MOL0     H 3899   4.627   4.088   7.204  0.0049  0.6757 -0.0688
   29MOL0     H 3900   4.836   4.116   7.338  1.5274 -0.0677  0.1805
   29MOL0     H 3901   6.286   3.576   8.338  1.0426  3.8412  1.1790
   29MOL0     H 3902   6.270   3.335   8.406 -0.9608  0.3524 -0.3653
   29MOL0     H 3903   5.878   2.964   8.643  0.2390 -0.3847  0.3521
   29MOL0     H 3904   5.902   2.721   8.749  0.2717  0.7591  1.2529
   29MOL0     H 3905   6.277   2.604   8.904  1.0257 -0.1476  1.5319
   29MOL0     H 3906   6.202   2.676   9.047 -3.1742 -0.1245  1.4866
   29MOL0     H 3907   6.123   2.401   8.965 -2.3759  0.1500  0.2104
   29MOL0     H 3908   6.058   2.506   9.095 -1.9615  0.7061 -3.3241
   29MOL0     H 3909   6.275   2.504   9.203  1.5083 -1.6827  1.5026
   29MOL0     H 3910   6.347   2.420   9.060 -2.6569 -2.6027 -4.3366
   29MOL0     H 3911   6.319   2.273   9.282 -1.0426 -0.6320  0.4326
   29MOL0     H 3912   6.267   2.213   9.129  0.8947 -0.8897  0.6041
   29MOL0     H 3913   5.912   2.211   9.339 -0.4515  0.3987  0.0245
   29MOL0     H 3914   6.282   2.832   8.889 -0.3171  2.2869 -0.0418
   29MOL0     H 3915   6.271   3.042   8.798 -1.1390  0.7229  2.2723
   30MOL0     O 3916   0.445   1.894   8.732 -0.7434 -0.2285 -1.0184
   30MOL0     C 3917   0.394   1.921   8.842 -0.1759 -0.1552 -0.4571
   30MOL0     O 3918   0.261   1.940   8.871  0.2335 -0.0860 -0.8072
   30MOL0     C 3919   0.161   1.887   8.793  0.0181  0.7504 -0.9229
   30MOL0     C 3920   0.037   1.943   8.803 -0.0232 -0.2040  0.3292
   30MOL0     C 3921  -0.070   1.889   8.737 -0.2636 -1.1601  0.3951
   30MOL0     C 3922  -0.062   1.782   8.645  0.2133  0.2527 -1.3329
   30MOL0     O 3923  -0.178   1.735   8.585 -0.3351  0.8334  0.5845
   30MOL0     C 3924  -0.182   1.605   8.527 -0.3841  0.0240  0.5448
   30MOL0     C 3925  -0.317   1.578   8.471 -0.6142 -0.2469  0.8695
   30MOL0     C 3926  -0.428   1.576   8.569 -0.0770  1.2924 -0.2864
   30MOL0     C 3927  -0.399   1.481   8.686 -0.1007 -0.7913 -0.6880
   30MOL0     C 3928  -0.531   1.403   8.715  0.7325  0.9512 -0.9855
   30MOL0     C 3929  -0.521   1.295   8.831  0.2426  0.5777  0.3157
   30MOL0     C 3930  -0.649   1.217   8.845  0.4625  1.3915  0.0500
   30MOL0     C 3931  -0.633   1.064   8.884 -0.2542 -0.0270  0.5562
   30MOL0     N 3932  -0.769   0.999   8.900 -0.2686 -0.4844  0.3269
   30MOL0     C 3933  -0.823   0.888   8.829  0.1190 -0.5580 -0.8966
   30MOL0     C 3934  -0.950   0.876   8.875 -0.1863  0.2161 -0.2293
   30MOL0     C 3935  -1.046   0.778   8.809  0.4755  0.1311  0.1726
   30MOL0     C 3936  -1.198   0.822   8.827 -1.5208  0.2008 -0.1810
   30MOL0     C 3937  -1.251   0.771   8.959  0.0069  0.7208 -0.0378
   30MOL0     C 3938  -1.381   0.844   8.988 -0.1644 -0.2209 -0.3248
   30MOL0     O 3939  -1.488   0.811   8.898  0.3799  0.6868 -0.2378
   30MOL0     C 3940  -1.615   0.836   8.928  0.5954  0.5427  0.0933
   30MOL0     C 3941  -1.664   0.875   9.055 -0.0400 -0.4691 -0.4799
   30MOL0     C 3942  -1.803   0.905   9.066  0.6137 -0.5163  0.4661
   30MOL0     C 3943  -1.846   0.974   9.196  0.0787  0.2427  0.1853
   30MOL0     C 3944  -1.898   0.877   8.966  0.2116 -0.1573 -0.3098
   30MOL0     C 3945  -2.045   0.892   8.981 -0.0453  0.1863  0.1381
   30MOL0     O 3946  -2.111   0.883   8.863 -0.3375 -0.0941 -0.2647
   30MOL0     C 3947  -2.247   0.892   8.879 -0.8373 -0.4247  0.5108
   30MOL0     C 3948  -2.304   1.013   8.919 -0.8669 -0.4954  0.8242
   30MOL0     C 3949  -2.447   1.016   8.942  0.0118  1.1016  0.5810
   30MOL0     C 3950  -2.527   0.899   8.924  0.1925 -0.3679 -0.1445
   30MOL0     O 3951  -2.664   0.903   8.913 -0.0835 -0.0783 -0.0080
   30MOL0     C 3952  -2.737   0.952   9.029 -0.7238  0.9738 -0.3112
   30MOL0     C 3953  -2.888   0.951   8.990  0.4885 -0.8790 -0.1473
   30MOL0     C 3954  -2.946   0.811   8.987 -0.4018 -0.5699 -0.0775
   30MOL0     C 3955  -3.096   0.804   8.952 -0.3851 -0.1900 -0.4633
   30MOL0     C 3956  -3.158   0.657   8.947 -0.6398 -0.6088  0.7461
   30MOL0     C 3957  -3.305   0.663   8.891  0.2326 -0.4370 -0.6316
   30MOL0     C 3958  -3.350   0.522   8.848  0.0007 -0.1762 -0.3291
   30MOL0     C 3959  -3.477   0.510   8.767  0.0251  0.0716  0.7709
   30MOL0    Cl 3960  -3.462   0.572   8.593  0.1630  0.7000  0.1255
   30MOL0     C 3961  -2.461   0.790   8.890  0.3067  0.9517  0.8939
   30MOL0     C 3962  -2.326   0.784   8.863 -0.3730 -0.8109 -0.2275
   30MOL0     O 3963  -2.093   0.901   9.092 -0.1414  0.7278 -0.0472
   30MOL0     C 3964  -1.843   0.842   8.840  0.0389  0.3136 -0.0871
   30MOL0     C 3965  -1.705   0.824   8.821 -0.2707  0.5910  0.0172
   30MOL0     N 3966  -0.969   0.961   8.983  0.3775  0.9367  0.3665
   30MOL0     N 3967  -0.857   1.040   8.995  0.2988 -0.2496  0.4659
   30MOL0     C 3968   0.063   1.721   8.646  0.1682  0.3966 -0.2446
   30MOL0     C 3969   0.171   1.768   8.718 -0.1505 -0.5378  0.1882
   30MOL0     C 3970   0.491   1.955   8.950  0.4484 -0.5805 -0.1955
   30MOL0     C 3971   0.633   1.956   8.928 -0.6406 -0.1889 -0.6471
   30MOL0     C 3972   0.715   1.979   9.035 -0.2625  0.5130  0.1570
   30MOL0     C 3973   0.665   1.979   9.164  0.3641 -0.3598 -0.0087
   30MOL0     O 3974   0.758   1.986   9.269 -0.3813 -0.2842  0.7127
   30MOL0     C 3975   0.847   1.872   9.284  0.4239 -0.0696  0.0642
   30MOL0     C 3976   0.773   1.756   9.345 -0.0777  0.4113  0.0759
   30MOL0     C 3977   0.809   1.621   9.282 -0.0413 -0.5422 -0.0752
   30MOL0     C 3978   0.733   1.498   9.328  0.2353 -0.8406  0.6112
   30MOL0     C 3979   0.732   1.463   9.468 -1.2056 -0.5356 -0.2380
   30MOL0     C 3980   0.721   1.416   9.580 -0.1893 -0.2690  0.4735
   30MOL0     C 3981   0.534   1.992   9.188 -0.9697 -0.3601 -0.3334
   30MOL0     C 3982   0.445   1.978   9.084 -0.6201 -0.3737  0.3426
   30MOL0     H 3983   0.007   2.035   8.852 -2.1263  0.8022 -2.6068
   30MOL0     H 3984  -0.160   1.947   8.757  1.4031  0.9985  2.1812
   30MOL0     H 3985  -0.102   1.587   8.455 -0.1342 -0.7875  1.0155
   30MOL0     H 3986  -0.160   1.532   8.605  0.5824 -0.9155 -0.5608
   30MOL0     H 3987  -0.340   1.648   8.390 -1.5278  0.9485  2.1318
   30MOL0     H 3988  -0.309   1.477   8.429 -0.1870 -0.1957  0.8278
   30MOL0     H 3989  -0.457   1.675   8.606 -3.7157  0.9341 -1.7083
   30MOL0     H 3990  -0.524   1.544   8.527  0.6188 -2.5901  0.6959
   30MOL0     H 3991  -0.322   1.408   8.661  0.4148 -0.6200  0.3773
   30MOL0     H 3992  -0.370   1.548   8.768 -2.7573 -1.6434  1.0910
   30MOL0     H 3993  -0.604   1.472   8.758 -0.6527 -0.9785 -0.0441
   30MOL0     H 3994  -0.572   1.356   8.625  0.5328  0.7352 -0.7853
   30MOL0     H 3995  -0.454   1.213   8.805 -0.2433 -0.1050  1.1420
   30MOL0     H 3996  -0.491   1.349   8.921  1.8803  0.1117  0.0842
   30MOL0     H 3997  -0.702   1.270   8.925  2.3393  1.9539  0.9704
   30MOL0     H 3998  -0.705   1.216   8.751 -0.2667  0.6382  0.4757
   30MOL0     H 3999  -0.581   1.046   8.979  0.1043 -0.6945  0.2386
   30MOL0     H 4000  -0.572   1.023   8.804  0.9749  1.2093  0.8217
   30MOL0     H 4001  -0.779   0.844   8.740 -2.0106 -3.4450 -0.6808
   30MOL0     H 4002  -1.028   0.764   8.701 -1.1244  1.2675 -0.2706
   30MOL0     H 4003  -1.030   0.677   8.849  1.9119 -0.9948 -2.8605
   30MOL0     H 4004  -1.266   0.773   8.757 -0.3021 -2.0181  0.0929
   30MOL0     H 4005  -1.195   0.931   8.831  2.5446  0.2836 -1.1307
   30MOL0     H 4006  -1.185   0.797   9.043 -0.6910  3.8194 -0.3257
   30MOL0     H 4007  -1.256   0.662   8.963 -1.0938  0.7681  0.3166
   30MOL0     H 4008  -1.362   0.951   8.995  1.2533 -0.5490  2.7572
   30MOL0     H 4009  -1.422   0.817   9.086  0.6876 -1.8812 -0.3845
   30MOL0     H 4010  -1.596   0.899   9.137  2.0875  0.2502 -2.3506
   30MOL0     H 4011  -1.755   1.004   9.249  1.4953 -2.6488 -0.4435
   30MOL0     H 4012  -1.893   1.069   9.169  0.8112 -0.1048 -2.6218
   30MOL0     H 4013  -1.914   0.915   9.258 -0.8776  1.3463  0.2157
   30MOL0     H 4014  -2.246   1.100   8.947 -0.5843  0.2808 -1.8485
   30MOL0     H 4015  -2.495   1.113   8.957 -1.2927  0.9980 -2.3319
   30MOL0     H 4016  -2.731   0.877   9.108  3.3502  3.4470  2.0612
   30MOL0     H 4017  -2.701   1.047   9.070  2.0150  2.1402 -4.6917
   30MOL0     H 4018  -2.949   1.011   9.058 -0.6509 -0.0235 -1.8546
   30MOL0     H 4019  -2.898   1.004   8.895  3.3607  3.3364  1.6213
   30MOL0     H 4020  -2.925   0.758   9.080 -0.5052 -1.5511 -0.5986
   30MOL0     H 4021  -2.887   0.752   8.917  1.1039  0.0499  0.6381
   30MOL0     H 4022  -3.152   0.868   9.021 -2.1292 -1.3103 -0.7779
   30MOL0     H 4023  -3.115   0.853   8.856  0.1103 -2.0488 -1.5512
   30MOL0     H 4024  -3.138   0.605   9.041  0.6084  1.1149  1.4917
   30MOL0     H 4025  -3.100   0.601   8.873 -0.4534 -0.4823  0.7961
   30MOL0     H 4026  -3.379   0.706   8.960  1.1183 -0.0074  0.0657
   30MOL0     H 4027  -3.296   0.720   8.798  0.1410  1.1244  0.2763
   30MOL0     H 4028  -3.364   0.469   8.943 -0.5567  1.6047  0.6313
   30MOL0     H 4029  -3.273   0.481   8.781  1.1020  4.2671 -2.1357
   30MOL0     H 4030  -3.560   0.571   8.803 -0.1451  0.9752 -1.0567
   30MOL0     H 4031  -3.503   0.403   8.761  1.7589 -0.2916 -0.7701
   30MOL0     H 4032  -2.511   0.696   8.871  3.6146 -0.4226 -2.3130
   30MOL0     H 4033  -2.280   0.686   8.852 -0.6434 -0.7162 -3.0364
   30MOL0     H 4034  -1.905   0.824   8.752 -0.0244 -0.6438  0.1428
   30MOL0     H 4035  -1.670   0.794   8.723 -0.6980  1.9553 -0.5739
   30MOL0     H 4036   0.078   1.630   8.590 -2.2176  0.8670 -1.8043
   30MOL0     H 4037   0.262   1.709   8.714  0.9687  1.1945 -0.9700
   30MOL0     H 4038   0.667   1.951   8.825 -2.2067 -2.6717 -1.1200
   30MOL0     H 4039   0.823   1.977   9.021  0.1747 -1.3372  2.9277
   30MOL0     H 4040   0.897   1.841   9.192  0.3000 -1.7385  0.5204
   30MOL0     H 4041   0.923   1.901   9.356  0.4209 -2.1333  0.9676
   30MOL0     H 4042   0.665   1.771   9.343  0.1162  1.9500 -0.7304
   30MOL0     H 4043   0.801   1.750   9.450  1.8780  2.9397 -0.2049
   30MOL0     H 4044   0.912   1.604   9.317  1.2937  2.7642 -1.9305
   30MOL0     H 4045   0.807   1.632   9.174  2.3794  3.1075  0.0820
   30MOL0     H 4046   0.774   1.411   9.277 -0.4352 -0.9042  0.1703
   30MOL0     H 4047   0.629   1.514   9.297  1.3442  1.1755 -2.6820
   30MOL0     H 4048   0.705   1.390   9.682  1.2888  0.2673  0.8655
   30MOL0     H 4049   0.496   1.995   9.290  1.3969 -2.3843  0.7166
   30MOL0     H 4050   0.339   1.982   9.110 -0.1489  0.6017  2.3351
   31MOL0     O 4051   1.927   8.868   0.845 -0.6263 -0.3953  0.2870
   31MOL0     C 4052   1.956   8.961   0.773 -0.2323  0.9489  0.0601
   31MOL0     O 4053   1.865   9.047   0.714 -0.2194  0.1736  0.8049
   31MOL0     C 4054   1.733   9.023   0.725 -0.0017 -1.2958  0.0415
   31MOL0     C 4055   1.682   8.919   0.648  0.4361  0.7387  0.7680
   31MOL0     C 4056   1.540   8.903   0.639 -0.3872 -0.3352  0.9543
   31MOL0     C 4057   1.459   8.991   0.695 -0.4016 -0.7134 -0.3865
   31MOL0     O 4058   1.324   8.987   0.697  0.2480  0.4878 -0.3113
   31MOL0     C 4059   1.264   8.856   0.675  0.1110 -0.6985 -0.0286
   31MOL0     C 4060   1.215   8.842   0.531  0.4555  0.4918  0.1867
   31MOL0     C 4061   1.101   8.740   0.527 -0.0572 -0.2351  0.6086
   31MOL0     C 4062   1.032   8.755   0.391 -0.3108 -0.1049  0.0491
   31MOL0     C 4063   0.914   8.659   0.377 -0.2855  0.1982  0.2748
   31MOL0     C 4064   0.864   8.675   0.233 -1.4000 -0.3208 -0.0416
   31MOL0     C 4065   0.728   8.615   0.204  0.5320 -0.6629  0.1206
   31MOL0     C 4066   0.675   8.676   0.072  0.4708 -0.2260 -0.3093
   31MOL0     N 4067   0.533   8.626   0.037  0.5493  0.4107  0.9567
   31MOL0     C 4068   0.475   8.503   0.064  0.5382 -0.4728 -0.4730
   31MOL0     C 4069   0.367   8.496  -0.025 -0.5377 -0.4779  0.9958
   31MOL0     C 4070   0.306   8.366  -0.062  0.4347 -0.5067 -0.0842
   31MOL0     C 4071   0.169   8.346  -0.001 -0.4768  0.0268 -0.0218
   31MOL0     C 4072   0.114   8.212  -0.038  0.0443 -0.2154  0.0935
   31MOL0     C 4073  -0.003   8.156   0.045 -0.1872 -0.1257 -0.2409
   31MOL0     O 4074  -0.105   8.253   0.050 -0.2343 -0.1398  0.4388
   31MOL0     C 4075  -0.240   8.214   0.070 -0.2033  0.0044  0.5363
   31MOL0     C 4076  -0.333   8.272  -0.016 -0.3439 -0.6254 -0.1468
   31MOL0     C 4077  -0.470   8.236  -0.008  0.0820 -0.0656 -0.1013
   31MOL0     C 4078  -0.543   8.310  -0.117  0.4759 -0.1472  0.4519
   31MOL0     C 4079  -0.519   8.148   0.087 -0.2617  0.4675 -0.9324
   31MOL0     C 4080  -0.670   8.112   0.097 -0.1913  0.1188 -0.1650
   31MOL0     O 4081  -0.758   8.163   0.002 -0.5304 -0.3451 -0.7562
   31MOL0     C 4082  -0.894   8.133   0.015  0.0501  0.6995 -0.0949
   31MOL0     C 4083  -0.952   8.014   0.063 -0.2782  0.0948  0.6537
   31MOL0     C 4084  -1.093   8.005   0.069 -0.1255  0.2003 -0.3028
   31MOL0     C 4085  -1.177   8.105   0.024  0.1044  0.3815 -0.8034
   31MOL0     O 4086  -1.314   8.095   0.035 -0.5235 -0.4787  0.2795
   31MOL0     C 4087  -1.374   7.993  -0.042 -0.6448  0.1677  0.1950
   31MOL0     C 4088  -1.414   8.041  -0.192  0.0916  0.2952  0.1694
   31MOL0     C 4089  -1.518   8.149  -0.198 -0.6692  0.0337 -0.4473
   31MOL0     C 4090  -1.543   8.177  -0.347 -0.2405 -0.0052 -0.3507
   31MOL0     C 4091  -1.661   8.276  -0.356 -0.6879 -0.4726  0.2975
   31MOL0     C 4092  -1.699   8.298  -0.507 -0.4384  0.3005 -0.5018
   31MOL0     C 4093  -1.833   8.349  -0.498 -0.4554  0.0981 -0.5802
   31MOL0     C 4094  -1.866   8.418  -0.629 -0.9063 -0.1644 -0.6567
   31MOL0    Cl 4095  -1.908   8.310  -0.766 -0.0138  0.5790  0.0595
   31MOL0     C 4096  -1.124   8.221  -0.031 -0.1202 -1.1821  0.1098
   31MOL0     C 4097  -0.982   8.232  -0.030 -0.1961 -0.1965  0.5722
   31MOL0     O 4098  -0.703   8.057   0.199  0.0214  0.7911 -0.3785
   31MOL0     C 4099  -0.423   8.081   0.163  0.6902 -0.6844  1.0245
   31MOL0     C 4100  -0.285   8.121   0.159 -0.0697 -0.0968  0.9245
   31MOL0     N 4101   0.361   8.615  -0.097 -0.1496  0.6200  0.4928
   31MOL0     N 4102   0.464   8.682  -0.067 -0.2114  0.3040  0.3522
   31MOL0     C 4103   1.510   9.090   0.777 -0.8875  0.1285 -0.0632
   31MOL0     C 4104   1.648   9.108   0.795 -0.0622  0.0279 -1.1995
   31MOL0     C 4105   2.099   8.995   0.757 -0.4628 -0.6018  0.5960
   31MOL0     C 4106   2.198   8.940   0.843 -0.2009  0.6480 -0.3907
   31MOL0     C 4107   2.330   8.978   0.815  0.1397  0.2433 -0.3720
   31MOL0     C 4108   2.366   9.066   0.707 -0.5458  0.0246  0.5646
   31MOL0     O 4109   2.500   9.099   0.680  0.1202  0.3260 -0.6072
   31MOL0     C 4110   2.602   9.032   0.746  0.3588  0.6811  0.4000
   31MOL0     C 4111   2.740   9.064   0.707 -0.6479 -0.8535  0.7151
   31MOL0     C 4112   2.775   9.205   0.756  0.2407 -0.2919 -0.3026
   31MOL0     C 4113   2.906   9.259   0.697 -0.4361 -0.2642  0.1159
   31MOL0     C 4114   3.013   9.169   0.743 -0.2211  0.0730 -0.2685
   31MOL0     C 4115   3.098   9.088   0.747  0.1958  0.1637  0.1568
   31MOL0     C 4116   2.260   9.114   0.619 -0.5742 -0.0271  0.6590
   31MOL0     C 4117   2.128   9.069   0.641  0.0744 -0.0692  0.2983
   31MOL0     H 4118   1.739   8.848   0.589  2.5118  3.0484 -0.2187
   31MOL0     H 4119   1.501   8.830   0.568  0.9025 -2.3336  2.2079
   31MOL0     H 4120   1.329   8.772   0.702  0.4220 -0.1772  0.8722
   31MOL0     H 4121   1.178   8.863   0.742 -1.4672  1.8572 -2.1586
   31MOL0     H 4122   1.176   8.939   0.497 -0.2551 -0.6927 -2.6443
   31MOL0     H 4123   1.289   8.812   0.457 -0.2076  1.2479 -0.8069
   31MOL0     H 4124   1.137   8.637   0.535  0.8818 -0.3528 -3.0716
   31MOL0     H 4125   1.029   8.762   0.606 -0.1792  0.9411  0.1913
   31MOL0     H 4126   0.991   8.855   0.380  0.3521  0.0094 -1.6663
   31MOL0     H 4127   1.108   8.745   0.313 -0.3143  1.1561 -0.1288
   31MOL0     H 4128   0.950   8.557   0.391 -1.7186 -0.2304  1.0364
   31MOL0     H 4129   0.827   8.678   0.441 -0.7316 -2.5113  0.5870
   31MOL0     H 4130   0.852   8.777   0.195 -0.3982 -0.9363 -2.1278
   31MOL0     H 4131   0.942   8.617   0.182 -0.7320 -0.3090  0.9410
   31MOL0     H 4132   0.741   8.509   0.179  1.8231  0.0179 -2.4459
   31MOL0     H 4133   0.654   8.636   0.281  1.2526  1.2950  0.3265
   31MOL0     H 4134   0.737   8.656  -0.016 -0.1873 -0.4996 -0.7158
   31MOL0     H 4135   0.663   8.784   0.081 -1.3468 -0.3867 -0.3191
   31MOL0     H 4136   0.520   8.418   0.115  0.4380  1.8629  3.9790
   31MOL0     H 4137   0.298   8.369  -0.171 -2.3760  1.0705  0.0779
   31MOL0     H 4138   0.370   8.284  -0.029  2.4473  1.1309  0.3078
   31MOL0     H 4139   0.106   8.428  -0.039  0.9970  0.1876 -2.3153
   31MOL0     H 4140   0.167   8.369   0.106  0.0251  1.5882 -0.3112
   31MOL0     H 4141   0.191   8.137  -0.018  0.5380  0.1892 -0.2489
   31MOL0     H 4142   0.094   8.200  -0.145 -4.0638  1.2541  0.5337
   31MOL0     H 4143   0.043   8.140   0.144 -0.3202  1.9340  0.2079
   31MOL0     H 4144  -0.040   8.057   0.018 -1.0769 -0.4132  1.8554
   31MOL0     H 4145  -0.284   8.331  -0.093  1.0431 -1.9259 -0.3165
   31MOL0     H 4146  -0.629   8.367  -0.082  0.5276 -1.0995  2.2405
   31MOL0     H 4147  -0.486   8.382  -0.177  1.5367 -1.6614 -0.4318
   31MOL0     H 4148  -0.584   8.231  -0.181  1.3246  0.4831 -0.9038
   31MOL0     H 4149  -0.893   7.925   0.084  2.5408 -0.1192 -5.7870
   31MOL0     H 4150  -1.136   7.914   0.107  1.2217 -0.4993 -0.3879
   31MOL0     H 4151  -1.315   7.901  -0.044 -1.6390 -0.4810  0.1152
   31MOL0     H 4152  -1.460   7.965   0.019 -0.5396  1.7602  1.1204
   31MOL0     H 4153  -1.329   8.076  -0.252 -0.9846 -0.2231 -1.7161
   31MOL0     H 4154  -1.448   7.945  -0.231  1.4662 -0.2305  0.1921
   31MOL0     H 4155  -1.485   8.242  -0.151  2.1016 -0.7492 -0.6350
   31MOL0     H 4156  -1.601   8.115  -0.137 -0.3678  3.9779  2.5091
   31MOL0     H 4157  -1.460   8.226  -0.398  0.1781 -1.7608 -1.4354
   31MOL0     H 4158  -1.582   8.085  -0.391 -1.1805  1.0609 -1.8182
   31MOL0     H 4159  -1.642   8.369  -0.302 -1.7271 -0.9127  1.4464
   31MOL0     H 4160  -1.739   8.218  -0.306  1.0157 -1.0006  2.5121
   31MOL0     H 4161  -1.629   8.365  -0.558  2.1494 -0.4775  1.7555
   31MOL0     H 4162  -1.704   8.207  -0.567 -0.5528  1.5398 -2.4429
   31MOL0     H 4163  -1.838   8.428  -0.423  1.7209 -1.6730  1.5850
   31MOL0     H 4164  -1.903   8.272  -0.465  1.7665 -0.6613  2.8524
   31MOL0     H 4165  -1.777   8.470  -0.666  0.2200 -1.7666 -0.3516
   31MOL0     H 4166  -1.953   8.483  -0.619 -0.1061  0.9565 -0.7428
   31MOL0     H 4167  -1.186   8.293  -0.082  0.5030 -1.4383 -1.0680
   31MOL0     H 4168  -0.942   8.323  -0.075  1.6160 -1.6653 -0.9896
   31MOL0     H 4169  -0.439   8.003   0.237  2.3326  0.1513  2.2993
   31MOL0     H 4170  -0.207   8.080   0.222  0.7702 -0.9755 -0.6211
   31MOL0     H 4171   1.451   9.172   0.818  1.3773  1.0343  1.6546
   31MOL0     H 4172   1.683   9.192   0.854 -0.8387  1.7097 -3.0314
   31MOL0     H 4173   2.170   8.873   0.924  2.1857  2.0009  1.7236
   31MOL0     H 4174   2.408   8.923   0.867 -0.2045 -0.7870 -0.9151
   31MOL0     H 4175   2.587   9.054   0.853  1.8456 -0.2971  0.8408
   31MOL0     H 4176   2.602   8.924   0.727  1.3854  0.8770 -0.8346
   31MOL0     H 4177   2.750   9.049   0.599 -0.9980 -0.3961  0.6180
   31MOL0     H 4178   2.811   9.000   0.762  1.3180 -0.1306 -0.8696
   31MOL0     H 4179   2.779   9.207   0.866  2.7962  2.7422 -0.3022
   31MOL0     H 4180   2.704   9.279   0.719  1.6768 -0.2590 -3.2618
   31MOL0     H 4181   2.932   9.361   0.727  3.1005 -0.3480 -2.0771
   31MOL0     H 4182   2.895   9.262   0.588 -1.2329 -0.3256  0.1824
   31MOL0     H 4183   3.178   9.018   0.758  1.7818  1.9723  0.7474
   31MOL0     H 4184   2.294   9.181   0.540  1.0731 -0.3970  1.0095
   31MOL0     H 4185   2.046   9.075   0.570  0.6907 -1.8077 -0.6302
   32MOL0     O 4186   5.297   6.116   6.788 -0.5642  0.0733  0.3023
   32MOL0     C 4187   5.301   6.181   6.890 -0.5604  0.5000 -0.7498
   32MOL0     O 4188   5.403   6.186   6.978 -0.0076  0.1337 -0.4639
   32MOL0     C 4189   5.532   6.155   6.958  0.2621  0.1255 -1.6228
   32MOL0     C 4190   5.623   6.182   7.071 -0.0540 -0.5927  0.2778
   32MOL0     C 4191   5.760   6.147   7.060  0.4732  0.0199  0.8576
   32MOL0     C 4192   5.809   6.083   6.944  0.8825  0.1620  1.6606
   32MOL0     O 4193   5.941   6.052   6.917 -0.2205 -0.3057  0.8497
   32MOL0     C 4194   5.995   5.968   7.023  1.4792 -0.5430  0.4667
   32MOL0     C 4195   6.124   5.916   6.968 -0.1110  0.0150 -0.2985
   32MOL0     C 4196   6.205   5.829   7.062 -0.0553  0.2132  0.5463
   32MOL0     C 4197   6.286   5.908   7.168  1.1807 -1.2023  1.0271
   32MOL0     C 4198   6.406   5.826   7.215  0.5185 -0.6948 -0.7282
   32MOL0     C 4199   6.497   5.905   7.308 -0.5855  0.0880 -0.5027
   32MOL0     C 4200   6.610   5.817   7.359 -0.5528  0.0110  0.3011
   32MOL0     C 4201   6.687   5.909   7.459 -0.5306  0.4943 -0.0498
   32MOL0     N 4202   6.822   5.855   7.495  0.9696  0.2101 -0.7741
   32MOL0     C 4203   6.941   5.900   7.446  0.0777  0.5266  0.4335
   32MOL0     C 4204   7.040   5.826   7.496 -0.5547 -0.1862  0.5567
   32MOL0     C 4205   7.185   5.812   7.444 -0.4425  0.1390 -0.7484
   32MOL0     C 4206   7.264   5.937   7.455  0.0466  0.1888  0.1407
   32MOL0     C 4207   7.245   6.010   7.586 -0.1532  0.8780  0.6688
   32MOL0     C 4208   7.325   6.142   7.580 -0.1829  0.6840 -0.1607
   32MOL0     O 4209   7.262   6.239   7.494 -0.2321  0.1791  0.1359
   32MOL0     C 4210   7.159   6.315   7.549  0.9183 -0.1208  0.7526
   32MOL0     C 4211   7.171   6.436   7.618  0.1820  0.3071  0.4093
   32MOL0     C 4212   7.050   6.507   7.656  0.0552 -0.7052 -0.4388
   32MOL0     C 4213   7.064   6.636   7.736  0.7064 -0.0900  1.0667
   32MOL0     C 4214   6.925   6.442   7.638 -0.1066  0.2862  0.4102
   32MOL0     C 4215   6.790   6.512   7.678 -0.8556  0.8482  0.7058
   32MOL0     O 4216   6.687   6.444   7.631 -0.7290 -0.5548 -0.1062
   32MOL0     C 4217   6.560   6.478   7.661  0.3086 -0.7728  1.0643
   32MOL0     C 4218   6.463   6.381   7.640 -0.5734 -0.5675  0.7027
   32MOL0     C 4219   6.331   6.415   7.652  0.2069  0.9590  0.6418
   32MOL0     C 4220   6.281   6.545   7.681  0.2000  0.5294 -0.0789
   32MOL0     O 4221   6.146   6.575   7.708  0.3760 -0.3615  0.6174
   32MOL0     C 4222   6.046   6.474   7.714  0.1303 -0.7330 -0.0883
   32MOL0     C 4223   5.904   6.523   7.714 -1.2685 -0.6816  0.1803
   32MOL0     C 4224   5.884   6.593   7.854  1.0926  0.5922 -0.1302
   32MOL0     C 4225   5.733   6.630   7.875 -0.7449  0.4104 -0.3284
   32MOL0     C 4226   5.642   6.507   7.879 -0.2596 -0.0151 -0.8603
   32MOL0     C 4227   5.496   6.521   7.936  0.6759 -0.1925 -0.4155
   32MOL0     C 4228   5.485   6.513   8.086 -1.1314 -0.3489 -0.3269
   32MOL0     C 4229   5.361   6.559   8.159 -0.8741 -0.2593  0.8369
   32MOL0    Cl 4230   5.225   6.511   8.071 -0.2819  0.0169  0.2977
   32MOL0     C 4231   6.383   6.643   7.693  0.0870  0.1923 -0.4679
   32MOL0     C 4232   6.516   6.613   7.678  0.1312  0.3272 -0.1248
   32MOL0     O 4233   6.794   6.593   7.767  0.4533 -1.0006  0.1761
   32MOL0     C 4234   6.920   6.319   7.577  0.7036 -0.5259  1.0787
   32MOL0     C 4235   7.031   6.259   7.528  0.0531 -0.4570  0.5116
   32MOL0     N 4236   6.980   5.752   7.595  0.1331  0.2784 -0.2451
   32MOL0     N 4237   6.852   5.762   7.591  0.4949 -0.0790 -0.4202
   32MOL0     C 4238   5.717   6.061   6.835 -0.1306  0.8549 -0.3159
   32MOL0     C 4239   5.581   6.104   6.840  0.1263 -0.1093  0.1383
   32MOL0     C 4240   5.178   6.253   6.940  0.6637 -0.7853  0.1863
   32MOL0     C 4241   5.049   6.201   6.910 -0.1151 -0.2786  0.1526
   32MOL0     C 4242   4.934   6.270   6.948  0.1201 -0.3478 -0.2843
   32MOL0     C 4243   4.950   6.385   7.033 -0.6169  0.1276  0.4973
   32MOL0     O 4244   4.850   6.461   7.088 -0.1284  0.3968 -0.1880
   32MOL0     C 4245   4.716   6.424   7.060  1.2126  0.3592  0.3969
   32MOL0     C 4246   4.654   6.311   7.146  0.2689  0.3764 -0.1916
   32MOL0     C 4247   4.503   6.346   7.173 -0.2382 -0.7355  0.1737
   32MOL0     C 4248   4.426   6.227   7.223 -0.5626  0.6424 -0.2455
   32MOL0     C 4249   4.488   6.178   7.347  0.9374 -0.3918 -0.0562
   32MOL0     C 4250   4.571   6.153   7.430  1.0909  0.3615 -0.0892
   32MOL0     C 4251   5.071   6.426   7.073 -0.1342  1.0606  0.3608
   32MOL0     C 4252   5.184   6.372   7.020 -0.1856  0.1718 -0.2163
   32MOL0     H 4253   5.577   6.251   7.140  1.6091  1.3715 -0.4587
   32MOL0     H 4254   5.831   6.188   7.132  0.0101 -2.3553  2.8120
   32MOL0     H 4255   6.008   6.033   7.110 -0.7687  1.9275 -0.8817
   32MOL0     H 4256   5.930   5.880   7.030  1.1794 -0.4478 -0.7600
   32MOL0     H 4257   6.104   5.855   6.879 -1.5239  0.7335 -0.5045
   32MOL0     H 4258   6.188   6.002   6.944  0.4549  0.2370  1.8484
   32MOL0     H 4259   6.139   5.756   7.109  0.4367 -0.7540 -0.2180
   32MOL0     H 4260   6.271   5.769   6.998 -2.1232 -2.0856  0.4216
   32MOL0     H 4261   6.306   6.004   7.120 -0.6279  0.3015  3.0815
   32MOL0     H 4262   6.223   5.933   7.253 -1.6232  1.5535 -1.6003
   32MOL0     H 4263   6.376   5.733   7.263  4.5866 -1.0429  1.6324
   32MOL0     H 4264   6.457   5.783   7.127  0.4354 -0.6402 -0.8030
   32MOL0     H 4265   6.541   5.995   7.264 -0.8481 -0.2075 -1.3833
   32MOL0     H 4266   6.441   5.932   7.398 -0.0060 -3.3327  1.0643
   32MOL0     H 4267   6.573   5.730   7.414  0.1433  0.8885  2.2307
   32MOL0     H 4268   6.669   5.781   7.274 -0.6169  0.7563 -0.0661
   32MOL0     H 4269   6.630   5.928   7.551 -0.7325 -0.5232  0.0445
   32MOL0     H 4270   6.712   6.002   7.406  3.5316 -0.8714 -0.9064
   32MOL0     H 4271   6.959   5.971   7.367  1.0007  2.1774  2.0351
   32MOL0     H 4272   7.242   5.730   7.489  1.5420  0.3188 -2.7494
   32MOL0     H 4273   7.181   5.786   7.338  0.3758 -0.4961 -0.6344
   32MOL0     H 4274   7.228   6.011   7.383 -1.0785  0.8969  1.4003
   32MOL0     H 4275   7.371   5.924   7.436  0.4420 -0.6661  2.6339
   32MOL0     H 4276   7.293   5.950   7.664 -1.1405 -1.9011 -0.7402
   32MOL0     H 4277   7.142   6.021   7.621 -0.0662  0.8495  0.9331
   32MOL0     H 4278   7.427   6.127   7.544  0.4724 -0.3753  1.9771
   32MOL0     H 4279   7.344   6.175   7.682  2.1404  0.6370 -0.5381
   32MOL0     H 4280   7.269   6.474   7.644  0.6538 -1.9933  2.3452
   32MOL0     H 4281   7.166   6.676   7.737  0.6806 -0.0256  1.2927
   32MOL0     H 4282   6.994   6.716   7.711 -0.1545 -0.2427  2.8546
   32MOL0     H 4283   7.051   6.614   7.842 -1.7498  3.2240  1.6121
   32MOL0     H 4284   6.497   6.287   7.599  1.9661  0.0408  1.2461
   32MOL0     H 4285   6.268   6.328   7.638  2.7510 -0.7667 -0.8994
   32MOL0     H 4286   6.051   6.427   7.615  2.0147  2.8906 -1.9117
   32MOL0     H 4287   6.066   6.401   7.794 -1.3257  1.3045  2.2730
   32MOL0     H 4288   5.897   6.602   7.638 -1.4794 -0.4134  0.4747
   32MOL0     H 4289   5.833   6.443   7.692 -0.8085  0.0186 -4.9914
   32MOL0     H 4290   5.948   6.681   7.868  1.5528 -0.0937  2.6620
   32MOL0     H 4291   5.919   6.516   7.923 -0.3496  0.3198  0.3249
   32MOL0     H 4292   5.731   6.701   7.958 -1.2004  1.4447 -1.1993
   32MOL0     H 4293   5.705   6.688   7.787 -0.2264 -1.1494 -1.5773
   32MOL0     H 4294   5.681   6.421   7.934 -2.1287 -0.8072 -0.6954
   32MOL0     H 4295   5.633   6.484   7.773 -2.0984  2.4110 -1.3263
   32MOL0     H 4296   5.460   6.618   7.901 -0.2172  0.2046  1.4766
   32MOL0     H 4297   5.435   6.440   7.895  0.1984  0.2185 -0.5318
   32MOL0     H 4298   5.573   6.560   8.130 -1.5460  0.4472 -0.3236
   32MOL0     H 4299   5.483   6.406   8.106 -0.0670 -0.2955  0.1440
   32MOL0     H 4300   5.369   6.668   8.157  0.6217 -0.3469  0.1885
   32MOL0     H 4301   5.372   6.517   8.259  1.0175  0.8307  1.1354
   32MOL0     H 4302   6.357   6.746   7.713 -2.3990 -0.3043 -0.7639
   32MOL0     H 4303   6.583   6.698   7.669  0.6384 -0.2344 -1.9221
   32MOL0     H 4304   6.826   6.269   7.556  1.1483 -1.3041  0.8856
   32MOL0     H 4305   7.020   6.170   7.466 -0.1892  0.3964 -0.6946
   32MOL0     H 4306   5.766   6.029   6.744  2.5128  3.4857  0.0226
   32MOL0     H 4307   5.522   6.070   6.755  0.8619  0.7161 -0.7198
   32MOL0     H 4308   5.034   6.109   6.853 -0.8850 -0.1832  0.1930
   32MOL0     H 4309   4.841   6.225   6.916 -0.5108 -0.5643  1.7187
   32MOL0     H 4310   4.668   6.518   7.087 -2.3045 -0.7406 -1.2724
   32MOL0     H 4311   4.686   6.414   6.955 -2.5303 -0.9156  1.4288
   32MOL0     H 4312   4.698   6.296   7.244 -1.3770 -1.2099  0.3676
   32MOL0     H 4313   4.669   6.216   7.093 -0.5855  2.2592 -4.2201
   32MOL0     H 4314   4.460   6.379   7.078  1.3347 -1.8370 -0.9785
   32MOL0     H 4315   4.482   6.427   7.244 -0.8919 -0.2127 -0.5998
   32MOL0     H 4316   4.428   6.148   7.148  0.8553 -0.3449  0.7720
   32MOL0     H 4317   4.321   6.257   7.238 -0.3952  0.1573  2.3616
   32MOL0     H 4318   4.644   6.121   7.501  1.3588  0.8829 -0.1271
   32MOL0     H 4319   5.082   6.510   7.141  2.1096  1.9089 -0.9311
   32MOL0     H 4320   5.281   6.407   7.055  2.5235 -5.2652 -1.2972
   33MOL0     O 4321   6.644  10.044   8.617  0.5589 -0.6781  0.1605
   33MOL0     C 4322   6.630   9.956   8.706 -0.8065 -0.3238  0.3590
   33MOL0     O 4323   6.514   9.904   8.741 -0.0296 -0.4885 -0.4651
   33MOL0     C 4324   6.385   9.946   8.693 -0.4409  0.9476 -0.1719
   33MOL0     C 4325   6.358   9.986   8.559  0.8774  0.2313 -0.0967
   33MOL0     C 4326   6.231  10.026   8.519 -0.7817  0.2556  0.0241
   33MOL0     C 4327   6.123  10.015   8.605  0.1063 -0.1388 -0.6858
   33MOL0     O 4328   5.985  10.052   8.582  0.1425  0.1054 -0.0013
   33MOL0     C 4329   5.963  10.102   8.448  0.0071 -0.2183  0.0501
   33MOL0     C 4330   5.816  10.132   8.403  0.5136  0.0975 -0.3989
   33MOL0     C 4331   5.734  10.162   8.531  0.3602  0.0940 -0.9701
   33MOL0     C 4332   5.763  10.299   8.582  0.3995  0.5346  0.6790
   33MOL0     C 4333   5.720  10.320   8.727 -0.1080  0.2275  0.0005
   33MOL0     C 4334   5.743  10.467   8.772  0.0578  0.0457  0.5480
   33MOL0     C 4335   5.651  10.504   8.895  0.2149 -0.8087 -0.7450
   33MOL0     C 4336   5.643  10.661   8.925 -0.0495  0.2636  0.7879
   33MOL0     N 4337   5.550  10.723   8.830  0.4858  0.0955 -0.0193
   33MOL0     C 4338   5.452  10.811   8.878  1.2840 -0.7198 -0.5672
   33MOL0     C 4339   5.408  10.879   8.769 -0.6222 -0.3913 -0.1091
   33MOL0     C 4340   5.311  10.979   8.759  1.1984 -0.6058 -0.4934
   33MOL0     C 4341   5.197  10.938   8.657  0.3555 -0.7960  0.6142
   33MOL0     C 4342   5.225  10.981   8.513 -0.1803 -0.3645  1.2745
   33MOL0     C 4343   5.184  11.129   8.496 -0.3019 -0.1949 -0.5125
   33MOL0     O 4344   5.189  11.155   8.356 -0.0888 -0.4838 -0.0966
   33MOL0     C 4345   5.070  11.159   8.297  0.4586  0.0785  0.3361
   33MOL0     C 4346   5.074  11.106   8.166  0.2768  0.1668  0.0894
   33MOL0     C 4347   4.969  11.110   8.076  0.6775 -0.3743  0.0590
   33MOL0     C 4348   5.002  11.078   7.935  0.5865  0.4231 -0.2114
   33MOL0     C 4349   4.840  11.154   8.124 -0.6644 -0.5422  0.2473
   33MOL0     C 4350   4.711  11.139   8.049 -0.3674  0.4081 -0.2427
   33MOL0     O 4351   4.607  11.211   8.077  0.4228 -0.1617 -0.1384
   33MOL0     C 4352   4.486  11.177   8.016  0.5005  0.6063  1.2097
   33MOL0     C 4353   4.440  11.044   7.982 -0.4288  0.2100 -0.4995
   33MOL0     C 4354   4.315  11.021   7.923 -0.4081 -0.6656 -0.5253
   33MOL0     C 4355   4.239  11.130   7.878 -0.2629  0.2016 -0.1223
   33MOL0     O 4356   4.112  11.115   7.829  0.0942 -0.1566 -0.1630
   33MOL0     C 4357   4.100  11.022   7.721  0.4065  0.7171  0.1256
   33MOL0     C 4358   3.984  11.056   7.637  1.3095 -0.4207  0.0075
   33MOL0     C 4359   3.853  11.035   7.717 -0.2579 -0.3578  0.1320
   33MOL0     C 4360   3.736  11.058   7.620 -0.1603 -1.0666  1.1943
   33MOL0     C 4361   3.600  11.038   7.700  0.5676 -0.1124  0.4933
   33MOL0     C 4362   3.471  11.039   7.619  0.2795 -0.1416  0.1533
   33MOL0     C 4363   3.357  10.991   7.715  0.4839  1.1102  0.5442
   33MOL0     C 4364   3.233  10.948   7.634 -0.3409 -1.2198 -0.2651
   33MOL0    Cl 4365   3.165  11.092   7.551 -0.0412 -0.2262 -0.0232
   33MOL0     C 4366   4.284  11.258   7.903  0.1008  0.7150  0.3213
   33MOL0     C 4367   4.406  11.281   7.975  0.6144 -0.2157 -0.0874
   33MOL0     O 4368   4.713  11.056   7.959 -0.0848  0.1995  0.1395
   33MOL0     C 4369   4.837  11.189   8.262  0.0765 -0.9919 -0.1481
   33MOL0     C 4370   4.941  11.198   8.350  0.2348 -0.8528 -1.5383
   33MOL0     N 4371   5.482  10.843   8.655  0.3363  0.2172 -0.4737
   33MOL0     N 4372   5.567  10.751   8.696  0.6921  0.3881 -0.0441
   33MOL0     C 4373   6.147   9.979   8.737 -0.3261 -0.6443 -0.2460
   33MOL0     C 4374   6.274   9.942   8.785  0.2713 -0.5107  0.6085
   33MOL0     C 4375   6.751   9.874   8.748 -0.5109  0.1272 -0.2361
   33MOL0     C 4376   6.871   9.884   8.675 -0.1550  0.2761  0.1234
   33MOL0     C 4377   6.984   9.807   8.713  0.7884 -0.1957  0.4652
   33MOL0     C 4378   6.969   9.698   8.803 -0.2814 -0.4507 -0.1558
   33MOL0     O 4379   7.060   9.598   8.820 -0.4152  0.4600 -0.1766
   33MOL0     C 4380   7.193   9.637   8.859  0.2200 -0.2501  0.6440
   33MOL0     C 4381   7.272   9.521   8.928 -0.0449 -0.1049  0.4715
   33MOL0     C 4382   7.220   9.506   9.061  0.5634 -0.4945 -0.3718
   33MOL0     C 4383   7.255   9.384   9.139 -0.6684 -0.6481  0.1017
   33MOL0     C 4384   7.397   9.381   9.158 -0.8757 -0.4203  0.1807
   33MOL0     C 4385   7.511   9.403   9.184  0.4745  0.8911 -1.0676
   33MOL0     C 4386   6.837   9.679   8.861 -1.2405  0.4942  0.1654
   33MOL0     C 4387   6.740   9.769   8.833  0.2963  0.0600 -0.2198
   33MOL0     H 4388   6.437  10.000   8.486  0.3468 -0.1577 -0.7544
   33MOL0     H 4389   6.209  10.047   8.415 -0.5260 -0.9819 -0.2977
   33MOL0     H 4390   6.016  10.197   8.437  0.0337 -0.2253  0.1276
   33MOL0     H 4391   6.006  10.036   8.372  2.3770  1.5170 -0.2168
   33MOL0     H 4392   5.824  10.217   8.334  2.8715 -0.9624 -1.5438
   33MOL0     H 4393   5.764  10.051   8.351 -2.8872  0.8956  1.4468
   33MOL0     H 4394   5.625  10.154   8.520  0.0628  1.4053  0.5825
   33MOL0     H 4395   5.755  10.090   8.610  1.0381  0.0744 -1.1648
   33MOL0     H 4396   5.870  10.313   8.568  0.4064 -1.1649 -1.4265
   33MOL0     H 4397   5.722  10.371   8.511 -1.0907 -3.4005 -2.8580
   33MOL0     H 4398   5.614  10.300   8.745  0.2846 -1.0583  1.0532
   33MOL0     H 4399   5.786  10.253   8.784  0.8984 -0.0274 -1.3868
   33MOL0     H 4400   5.847  10.493   8.796 -0.2149  1.4580  0.3033
   33MOL0     H 4401   5.707  10.524   8.686 -0.3384 -2.5129 -1.0951
   33MOL0     H 4402   5.551  10.463   8.878  0.1664  0.1034 -3.0791
   33MOL0     H 4403   5.702  10.471   8.986  1.2525  1.2596 -0.5371
   33MOL0     H 4404   5.746  10.699   8.921 -0.1058  0.4802  1.2490
   33MOL0     H 4405   5.606  10.666   9.028 -0.4636 -2.7869  0.8883
   33MOL0     H 4406   5.399  10.828   8.971  0.4941 -0.0003 -1.1330
   33MOL0     H 4407   5.263  10.990   8.857 -0.3337 -1.9461 -1.0493
   33MOL0     H 4408   5.349  11.077   8.729 -1.5425  0.0986 -2.0612
   33MOL0     H 4409   5.093  10.959   8.685 -0.2605 -0.8300 -1.4696
   33MOL0     H 4410   5.197  10.829   8.659  0.8409 -0.8641 -1.3235
   33MOL0     H 4411   5.168  10.920   8.443 -0.1994 -0.3516  1.2788
   33MOL0     H 4412   5.331  10.969   8.491  0.4280  1.5258  2.8487
   33MOL0     H 4413   5.258  11.190   8.550  1.1998 -2.3544  0.0219
   33MOL0     H 4414   5.087  11.157   8.538  0.5846 -0.5041  1.9101
   33MOL0     H 4415   5.165  11.057   8.133  1.4831  0.1899  3.0422
   33MOL0     H 4416   4.945  11.130   7.857  0.6957  4.5464  2.1816
   33MOL0     H 4417   5.106  11.110   7.923  1.1712 -1.2225  0.2275
   33MOL0     H 4418   5.001  10.971   7.915  1.2042  0.0238  1.7214
   33MOL0     H 4419   4.503  10.962   8.014  2.7086  3.2439  1.8439
   33MOL0     H 4420   4.283  10.917   7.917  0.3189 -0.9372  0.1046
   33MOL0     H 4421   4.191  11.024   7.661  0.8441  4.9465  0.6451
   33MOL0     H 4422   4.087  10.923   7.766 -0.6096  0.3834 -0.8513
   33MOL0     H 4423   3.988  11.160   7.602 -0.1333 -0.8584 -1.6159
   33MOL0     H 4424   3.991  10.986   7.553 -2.0367 -0.1814 -0.5978
   33MOL0     H 4425   3.842  11.104   7.802 -0.0397 -0.4127  0.2065
   33MOL0     H 4426   3.842  10.932   7.749 -3.1743  0.6063  2.6991
   33MOL0     H 4427   3.740  11.163   7.592  1.4697 -0.7872  2.2859
   33MOL0     H 4428   3.747  10.988   7.536  1.2368  2.5814 -1.9381
   33MOL0     H 4429   3.595  11.100   7.790  1.4434  1.2625 -0.3741
   33MOL0     H 4430   3.612  10.937   7.742 -5.8882 -0.4412  2.7230
   33MOL0     H 4431   3.446  11.142   7.588 -2.4451 -1.4817 -2.6733
   33MOL0     H 4432   3.470  10.980   7.526 -1.4643 -2.4482  1.5311
   33MOL0     H 4433   3.319  11.058   7.792 -3.1917 -1.3684  1.1591
   33MOL0     H 4434   3.404  10.907   7.768 -0.8143  0.9197  1.4582
   33MOL0     H 4435   3.165  10.905   7.708 -1.4857 -1.8712 -1.6489
   33MOL0     H 4436   3.256  10.868   7.562 -2.3775 -1.7125 -0.4250
   33MOL0     H 4437   4.230  11.346   7.869  1.1108 -0.1099 -4.0651
   33MOL0     H 4438   4.426  11.387   7.988  2.5701 -0.0144 -3.6872
   33MOL0     H 4439   4.736  11.211   8.294 -0.3105 -0.6512 -1.5291
   33MOL0     H 4440   4.927  11.241   8.448  1.0771 -0.7999 -1.4326
   33MOL0     H 4441   6.058   9.957   8.795 -0.6396  0.8513 -0.1064
   33MOL0     H 4442   6.290   9.916   8.890 -1.1773  1.0051  1.2487
   33MOL0     H 4443   6.876   9.970   8.609  2.2765  0.0580 -0.0896
   33MOL0     H 4444   7.082   9.827   8.669  0.6643  1.3029  0.8469
   33MOL0     H 4445   7.251   9.678   8.776 -2.2654 -0.1001 -1.1528
   33MOL0     H 4446   7.202   9.724   8.925  4.0461 -0.3744  0.4983
   33MOL0     H 4447   7.376   9.555   8.942  0.6591 -1.4892 -1.0414
   33MOL0     H 4448   7.273   9.430   8.869  0.9963  0.4139 -0.3453
   33MOL0     H 4449   7.111   9.505   9.045  0.9236  0.1034 -3.3151
   33MOL0     H 4450   7.248   9.594   9.120 -2.1739  1.2795 -1.4962
   33MOL0     H 4451   7.213   9.300   9.083 -3.7023 -1.0615  2.6856
   33MOL0     H 4452   7.199   9.387   9.234 -0.7417  1.5374  0.0472
   33MOL0     H 4453   7.612   9.430   9.207  1.3398 -2.7455  0.1384
   33MOL0     H 4454   6.822   9.608   8.942 -4.2925 -0.0949 -0.7889
   33MOL0     H 4455   6.648   9.751   8.888  0.9778  0.6927  1.2011
   34MOL0     O 4456   9.386   3.013   9.987 -0.4849 -0.0789 -0.1784
   34MOL0     C 4457   9.411   3.075  10.088  0.3015  0.2324 -0.4294
   34MOL0     O 4458   9.315   3.139  10.168  0.1504  0.0169  0.3412
   34MOL0     C 4459   9.175   3.132  10.129  0.1172 -0.2092 -0.4331
   34MOL0     C 4460   9.103   3.014  10.094 -0.6415 -0.2183  0.5735
   34MOL0     C 4461   8.960   3.017  10.087 -0.5657 -0.8472 -0.8672
   34MOL0     C 4462   8.883   3.123  10.137 -0.4618  0.2240  0.4381
   34MOL0     O 4463   8.746   3.124  10.150 -0.6777  0.0763  0.4027
   34MOL0     C 4464   8.664   3.103  10.036 -0.0932 -0.0258 -0.1762
   34MOL0     C 4465   8.547   3.204  10.018 -0.9797  0.2304 -0.0570
   34MOL0     C 4466   8.453   3.225  10.137  0.6853  0.9390 -0.4237
   34MOL0     C 4467   8.331   3.309  10.090 -0.1071 -0.2496 -0.5678
   34MOL0     C 4468   8.228   3.302  10.194 -0.3117  0.0940  0.0408
   34MOL0     C 4469   8.102   3.379  10.155  0.1181 -1.1096  0.2176
   34MOL0     C 4470   8.028   3.418  10.278  0.5015 -0.0519  0.3159
   34MOL0     C 4471   7.895   3.482  10.245  0.2319 -0.2249  0.1909
   34MOL0     N 4472   7.805   3.471  10.362  0.3524 -0.6477 -0.2496
   34MOL0     C 4473   7.718   3.363  10.375  0.2280 -0.1634  0.1447
   34MOL0     C 4474   7.643   3.397  10.481 -0.4304 -0.5168  0.0706
   34MOL0     C 4475   7.523   3.323  10.521  0.7429  0.0613 -0.4661
   34MOL0     C 4476   7.416   3.316  10.421  0.2401  0.0946 -0.1881
   34MOL0     C 4477   7.300   3.213  10.460  0.0400  0.9115 -0.2085
   34MOL0     C 4478   7.340   3.067  10.450 -0.1410 -0.0088  0.2768
   34MOL0     O 4479   7.232   3.004  10.510  0.7814  0.0034 -0.5515
   34MOL0     C 4480   7.122   2.967  10.435 -0.0499 -0.0277  0.0777
   34MOL0     C 4481   7.027   2.890  10.502  0.8566 -0.4459  0.0420
   34MOL0     C 4482   6.920   2.826  10.439 -0.3803  0.2756  0.0587
   34MOL0     C 4483   6.839   2.734  10.527 -0.2471  0.3428  0.3173
   34MOL0     C 4484   6.908   2.846  10.298  0.5386  0.6001 -0.2902
   34MOL0     C 4485   6.804   2.782  10.223 -0.5103  0.6958 -0.1744
   34MOL0     O 4486   6.822   2.789  10.087 -0.0168 -0.6221  0.2774
   34MOL0     C 4487   6.711   2.768  10.014 -0.0963 -0.1175  0.2122
   34MOL0     C 4488   6.595   2.849  10.000 -1.1556  0.6417 -0.6741
   34MOL0     C 4489   6.521   2.837   9.890  0.8016 -1.3413  0.1390
   34MOL0     C 4490   6.530   2.738   9.792  1.1913  0.3844 -0.0837
   34MOL0     O 4491   6.439   2.743   9.686 -0.1487 -0.2935 -0.0598
   34MOL0     C 4492   6.470   2.663   9.569 -0.0031  0.6830 -0.5089
   34MOL0     C 4493   6.386   2.697   9.451 -0.2096 -0.4285 -0.2954
   34MOL0     C 4494   6.450   2.822   9.369  0.0673  0.8428 -0.3243
   34MOL0     C 4495   6.354   2.880   9.268 -0.1039  0.5240 -0.1170
   34MOL0     C 4496   6.415   3.016   9.213  0.1222 -0.0102 -0.2981
   34MOL0     C 4497   6.539   2.998   9.132  0.8482 -0.7816  0.0077
   34MOL0     C 4498   6.565   3.127   9.059  0.4881  0.6227 -0.2478
   34MOL0     C 4499   6.708   3.137   9.005  0.6572  0.2052  0.5627
   34MOL0    Cl 4500   6.821   3.158   9.142  0.5039 -0.0097  0.2057
   34MOL0     C 4501   6.623   2.636   9.821 -0.3489 -0.0407 -0.0508
   34MOL0     C 4502   6.716   2.651   9.929  0.4586  0.5167 -0.2222
   34MOL0     O 4503   6.697   2.760  10.278 -0.0260  0.3200  0.2168
   34MOL0     C 4504   6.993   2.940  10.244  0.0130 -0.7039  0.1753
   34MOL0     C 4505   7.110   2.994  10.299  0.4722 -0.7399  0.0770
   34MOL0     N 4506   7.679   3.527  10.519 -1.0654  0.8058  0.2617
   34MOL0     N 4507   7.773   3.575  10.447 -0.0723  0.7749 -0.8642
   34MOL0     C 4508   8.960   3.240  10.176  0.4526  0.5985  0.4806
   34MOL0     C 4509   9.099   3.243  10.166 -0.6697 -0.4815 -0.3376
   34MOL0     C 4510   9.545   3.084  10.138 -0.3633 -0.8989  0.1966
   34MOL0     C 4511   9.653   3.024  10.069  0.5264 -0.3908 -0.6026
   34MOL0     C 4512   9.784   3.046  10.112 -0.0784  0.3990  0.5219
   34MOL0     C 4513   9.816   3.121  10.228  0.1185 -0.1768 -0.2009
   34MOL0     O 4514   9.948   3.133  10.281  0.3892  0.0140  0.1386
   34MOL0     C 4515  10.061   3.081  10.208  0.0798 -0.3837 -0.0551
   34MOL0     C 4516  10.187   3.163  10.242  0.6422 -0.1552  0.5463
   34MOL0     C 4517  10.231   3.129  10.383  0.3634  0.7498  0.2685
   34MOL0     C 4518  10.350   3.223  10.427 -0.5629  0.4894  0.2444
   34MOL0     C 4519  10.380   3.200  10.574  0.0911 -0.6398  0.2577
   34MOL0     C 4520  10.401   3.193  10.693 -0.1713  0.4337 -0.4659
   34MOL0     C 4521   9.709   3.176  10.297  0.8389  0.1594 -0.1072
   34MOL0     C 4522   9.573   3.156  10.256 -0.0680  0.0169  0.3027
   34MOL0     H 4523   9.157   2.928  10.057 -2.1798 -0.3890 -1.4494
   34MOL0     H 4524   8.912   2.927  10.053  0.0531 -0.7909 -1.9325
   34MOL0     H 4525   8.723   3.105   9.944 -2.7276  0.0984 -1.9378
   34MOL0     H 4526   8.620   3.003  10.044  1.2275 -0.5211  1.5492
   34MOL0     H 4527   8.598   3.297   9.994  0.9893 -0.3620  1.5775
   34MOL0     H 4528   8.481   3.177   9.934  1.0308 -0.0118 -1.6538
   34MOL0     H 4529   8.430   3.122  10.166  0.6976  1.2249  0.6145
   34MOL0     H 4530   8.505   3.275  10.219 -0.5029  2.7816 -0.7302
   34MOL0     H 4531   8.366   3.408  10.062 -1.7780 -0.1209 -2.3842
   34MOL0     H 4532   8.277   3.268  10.004 -1.4336 -1.2000  0.6725
   34MOL0     H 4533   8.202   3.198  10.215  1.2378  0.2826  3.6553
   34MOL0     H 4534   8.279   3.330  10.287 -1.3621  0.1205  0.6243
   34MOL0     H 4535   8.120   3.460  10.084 -1.1755 -2.1286 -1.3481
   34MOL0     H 4536   8.042   3.300  10.108  0.6832 -0.8603 -0.9649
   34MOL0     H 4537   8.005   3.325  10.330  0.7447  0.8628  2.1351
   34MOL0     H 4538   8.085   3.490  10.337 -0.1086 -1.2268  2.4534
   34MOL0     H 4539   7.846   3.433  10.161 -3.0814 -0.3035  1.9587
   34MOL0     H 4540   7.908   3.588  10.221 -0.2590 -0.0890  0.5039
   34MOL0     H 4541   7.710   3.267  10.325 -1.4883  0.4593 -0.8421
   34MOL0     H 4542   7.545   3.219  10.547  1.9220 -0.2998 -2.6451
   34MOL0     H 4543   7.487   3.367  10.614  0.2224  0.4534 -0.8440
   34MOL0     H 4544   7.460   3.275  10.330  4.0988 -1.8335  2.2705
   34MOL0     H 4545   7.375   3.415  10.399 -3.1672 -1.5488 -2.0716
   34MOL0     H 4546   7.218   3.232  10.390 -3.2341 -1.7843  2.5229
   34MOL0     H 4547   7.265   3.234  10.561  1.6316 -1.6663  0.9802
   34MOL0     H 4548   7.423   3.046  10.518  0.7677  0.4186 -0.6533
   34MOL0     H 4549   7.367   3.031  10.350 -0.0872 -0.1506  0.3419
   34MOL0     H 4550   7.025   2.897  10.610  0.2086 -0.8569  0.0619
   34MOL0     H 4551   6.742   2.781  10.542  0.7969  3.3353 -1.4636
   34MOL0     H 4552   6.825   2.644  10.467 -0.4861  1.5038 -1.4072
   34MOL0     H 4553   6.881   2.707  10.625 -0.7926 -0.1280  0.4311
   34MOL0     H 4554   6.584   2.934  10.066  1.1746  1.5092 -1.3175
   34MOL0     H 4555   6.440   2.909   9.879  2.0628  0.0574 -0.3653
   34MOL0     H 4556   6.575   2.686   9.546  2.3848 -1.3255  6.1126
   34MOL0     H 4557   6.464   2.557   9.594 -1.5490  0.8047 -0.2898
   34MOL0     H 4558   6.386   2.609   9.386  0.1845 -1.3371  0.9022
   34MOL0     H 4559   6.282   2.698   9.486 -0.8130 -2.2679 -1.8777
   34MOL0     H 4560   6.543   2.795   9.318 -0.0095  2.1176 -1.1796
   34MOL0     H 4561   6.483   2.903   9.435 -1.8213 -0.2268  2.0652
   34MOL0     H 4562   6.336   2.802   9.194  0.4764  0.1468  0.1282
   34MOL0     H 4563   6.261   2.904   9.319  0.4736 -1.3047  1.9530
   34MOL0     H 4564   6.434   3.083   9.297  0.7229  0.6185 -0.9168
   34MOL0     H 4565   6.333   3.070   9.164  0.6489  1.2993  0.2127
   34MOL0     H 4566   6.619   2.973   9.203  0.6072  1.0491  1.0000
   34MOL0     H 4567   6.523   2.915   9.063 -1.5480 -2.2467  2.1197
   34MOL0     H 4568   6.559   3.220   9.117 -1.3549  0.9814 -0.9296
   34MOL0     H 4569   6.492   3.140   8.979  0.3665  4.3518  0.2707
   34MOL0     H 4570   6.723   3.218   8.933  1.1823 -0.9633 -0.6693
   34MOL0     H 4571   6.736   3.052   8.943 -0.5584  0.3152 -0.1846
   34MOL0     H 4572   6.640   2.549   9.758 -0.9529  1.0132 -1.7134
   34MOL0     H 4573   6.795   2.579   9.948 -0.0919 -0.1217 -0.3341
   34MOL0     H 4574   6.966   2.966  10.142  2.2972 -1.0566 -0.6018
   34MOL0     H 4575   7.167   3.058  10.232 -2.7438  2.2676 -0.0882
   34MOL0     H 4576   8.908   3.331  10.205  0.4057  0.6962  0.0893
   34MOL0     H 4577   9.158   3.323  10.209  0.4476 -2.0943  1.3058
   34MOL0     H 4578   9.637   2.958   9.984  0.5073 -0.7985 -0.2867
   34MOL0     H 4579   9.856   2.983  10.060 -0.2220  0.7283 -0.0766
   34MOL0     H 4580  10.082   2.978  10.237 -1.5606 -0.6788  0.1745
   34MOL0     H 4581  10.038   3.089  10.101 -1.6196  2.5244  0.3945
   34MOL0     H 4582  10.161   3.267  10.220 -1.7950 -0.8385 -0.1272
   34MOL0     H 4583  10.268   3.135  10.175 -0.3988  1.6133 -1.6000
   34MOL0     H 4584  10.266   3.026  10.390 -1.2386 -0.0870 -2.4518
   34MOL0     H 4585  10.147   3.144  10.451  0.5046 -0.1075  0.6451
   34MOL0     H 4586  10.319   3.327  10.413 -0.3143  0.4862 -0.3266
   34MOL0     H 4587  10.435   3.197  10.364  0.8051  0.3482  2.0460
   34MOL0     H 4588  10.453   3.187  10.787  4.1724 -1.7836 -2.7352
   34MOL0     H 4589   9.727   3.231  10.389  1.3995  0.7214 -0.5364
   34MOL0     H 4590   9.494   3.215  10.300 -0.8518 -1.4256  0.8805
   35MOL0     O 4591  11.014   9.582   6.372  0.2372  0.4688  0.3090
   35MOL0     C 4592  11.052   9.590   6.251 -0.2453  0.0829 -1.0754
   35MOL0     O 4593  10.966   9.559   6.144 -0.1868  0.7214 -0.6801
   35MOL0     C 4594  10.838   9.508   6.165 -0.1964  0.0718  0.2882
   35MOL0     C 4595  10.792   9.400   6.096  0.2072  0.6766 -0.2643
   35MOL0     C 4596  10.654   9.358   6.112 -0.1530  0.0545  0.5313
   35MOL0     C 4597  10.560   9.442   6.170  0.4439  0.2768  0.6952
   35MOL0     O 4598  10.426   9.406   6.174  0.4131  0.5197 -0.7091
   35MOL0     C 4599  10.412   9.311   6.284 -0.7891 -0.5001  0.0641
   35MOL0     C 4600  10.281   9.232   6.286  0.0048  0.2112  0.2927
   35MOL0     C 4601  10.241   9.159   6.162  0.1581 -0.4040  1.4756
   35MOL0     C 4602  10.175   9.018   6.184 -0.1917 -0.7285 -0.3280
   35MOL0     C 4603  10.025   9.024   6.209  0.0287 -0.8765 -0.2819
   35MOL0     C 4604   9.955   8.891   6.226 -0.1355  1.0715 -0.2983
   35MOL0     C 4605   9.803   8.887   6.225 -0.5607 -0.1862 -0.5657
   35MOL0     C 4606   9.757   8.745   6.246  0.1270  0.6405 -0.2658
   35MOL0     N 4607   9.608   8.732   6.238  0.7252  0.2650 -0.3374
   35MOL0     C 4608   9.532   8.727   6.123 -0.1820  0.3563 -0.9462
   35MOL0     C 4609   9.405   8.741   6.171  0.6318 -0.5392  0.5472
   35MOL0     C 4610   9.279   8.729   6.085  0.2081  0.0491 -0.1614
   35MOL0     C 4611   9.160   8.810   6.155 -0.3167  0.4698  0.0216
   35MOL0     C 4612   9.062   8.718   6.248 -0.8586 -0.2878 -0.1097
   35MOL0     C 4613   8.949   8.808   6.308  0.1096  0.7818  0.8043
   35MOL0     O 4614   8.907   8.750   6.433 -0.1763  0.4109  0.3412
   35MOL0     C 4615   8.799   8.809   6.489 -0.2751 -0.1463 -0.3827
   35MOL0     C 4616   8.736   8.927   6.445 -0.3766  0.2661  0.0729
   35MOL0     C 4617   8.633   8.989   6.513 -0.6159  0.0366 -0.1322
   35MOL0     C 4618   8.573   9.105   6.440  0.1040  0.0727  0.3318
   35MOL0     C 4619   8.583   8.939   6.635  1.0632 -0.3482 -0.0397
   35MOL0     C 4620   8.471   8.990   6.714  0.6815  0.0973  0.4432
   35MOL0     O 4621   8.433   8.923   6.824 -0.0856 -0.3973 -0.1321
   35MOL0     C 4622   8.340   8.974   6.912 -0.1948 -0.6205  0.5966
   35MOL0     C 4623   8.208   8.954   6.890  0.3478 -0.6419  0.1393
   35MOL0     C 4624   8.111   8.995   6.976 -0.0330  0.3613  0.0368
   35MOL0     C 4625   8.146   9.056   7.099  0.1049  0.3643  0.4259
   35MOL0     O 4626   8.060   9.084   7.202  0.2145  0.0058 -0.0283
   35MOL0     C 4627   7.964   8.985   7.236  0.3072 -0.1025  0.3451
   35MOL0     C 4628   7.991   8.922   7.376  0.1464 -0.1467 -0.7315
   35MOL0     C 4629   8.095   8.812   7.379  0.0370  0.0394 -0.2404
   35MOL0     C 4630   8.028   8.670   7.352  0.5279  0.0390  0.4016
   35MOL0     C 4631   8.115   8.590   7.261  0.1456  0.1894  0.2101
   35MOL0     C 4632   8.250   8.546   7.324 -0.0932  0.0277  0.4561
   35MOL0     C 4633   8.328   8.467   7.212 -0.0360 -0.3515  0.9324
   35MOL0     C 4634   8.446   8.386   7.262 -0.1206 -0.7271 -0.2046
   35MOL0    Cl 4635   8.513   8.283   7.141 -0.0409 -0.3517 -0.3288
   35MOL0     C 4636   8.281   9.088   7.108 -0.5520  0.8576 -0.1055
   35MOL0     C 4637   8.380   9.047   7.019  0.3610  0.1510 -0.1053
   35MOL0     O 4638   8.418   9.100   6.678 -0.1030 -0.5922  0.5853
   35MOL0     C 4639   8.652   8.830   6.685  0.1768 -0.4208  0.4180
   35MOL0     C 4640   8.757   8.765   6.614  0.1996 -0.1587 -0.4500
   35MOL0     N 4641   9.414   8.745   6.307 -0.4781  0.6580  0.8579
   35MOL0     N 4642   9.535   8.754   6.349  0.2726  0.3049 -0.7728
   35MOL0     C 4643  10.599   9.554   6.237  0.1660  0.0074  0.8917
   35MOL0     C 4644  10.737   9.588   6.239  0.1481 -1.1359  0.1105
   35MOL0     C 4645  11.194   9.635   6.228 -0.0384 -0.4446  0.2696
   35MOL0     C 4646  11.260   9.719   6.319  0.2301  0.2693 -0.4343
   35MOL0     C 4647  11.391   9.762   6.298 -0.3731 -0.2216 -0.3871
   35MOL0     C 4648  11.463   9.725   6.179 -0.5049  0.4272 -1.0727
   35MOL0     O 4649  11.591   9.776   6.149 -0.1688 -0.3767  1.2229
   35MOL0     C 4650  11.624   9.904   6.208 -0.3499  0.0449  0.3223
   35MOL0     C 4651  11.707   9.970   6.096 -0.4232 -0.3152 -0.3833
   35MOL0     C 4652  11.842   9.903   6.093 -0.4016  0.4130 -0.0844
   35MOL0     C 4653  11.958   9.993   6.055  0.3826 -0.9662 -0.0809
   35MOL0     C 4654  11.997  10.079   6.171  0.1057  0.1049 -0.3562
   35MOL0     C 4655  12.029  10.143   6.269  0.5587  0.0143 -0.4684
   35MOL0     C 4656  11.399   9.642   6.087  0.5669  1.0018 -0.8382
   35MOL0     C 4657  11.266   9.598   6.113 -0.1285  0.4246  0.1105
   35MOL0     H 4658  10.862   9.351   6.029 -0.9800  0.3689 -1.3069
   35MOL0     H 4659  10.622   9.268   6.059  0.6012 -0.2952  0.6541
   35MOL0     H 4660  10.494   9.239   6.281  1.1224  1.5814 -0.2341
   35MOL0     H 4661  10.423   9.365   6.378 -4.0426  0.2887  0.1399
   35MOL0     H 4662  10.283   9.164   6.371  1.2220  1.2230  1.1151
   35MOL0     H 4663  10.198   9.302   6.301  0.8574  1.3347 -0.0539
   35MOL0     H 4664  10.169   9.220   6.107  0.0618  1.1754  3.2250
   35MOL0     H 4665  10.324   9.142   6.093 -2.1355 -2.9374 -0.9128
   35MOL0     H 4666  10.183   8.966   6.089  3.0691  1.0350 -1.1382
   35MOL0     H 4667  10.232   8.962   6.259 -0.3188 -0.0134  0.3159
   35MOL0     H 4668  10.013   9.077   6.305  0.3538 -1.2224 -0.0486
   35MOL0     H 4669   9.988   9.094   6.133 -1.3977  0.7370  1.7726
   35MOL0     H 4670   9.968   8.817   6.147 -0.2688 -0.8319  1.3828
   35MOL0     H 4671  10.005   8.847   6.312  0.3423  0.5030 -0.8600
   35MOL0     H 4672   9.764   8.956   6.300  0.6842 -0.0285 -0.0472
   35MOL0     H 4673   9.768   8.923   6.128 -0.0676  0.1012 -0.6389
   35MOL0     H 4674   9.793   8.706   6.342  0.3665 -1.7690 -1.2645
   35MOL0     H 4675   9.800   8.674   6.175  1.2709 -0.6129  1.5612
   35MOL0     H 4676   9.574   8.709   6.025  1.8036 -1.0055  0.0918
   35MOL0     H 4677   9.293   8.774   5.986 -1.0056  3.9661  1.2141
   35MOL0     H 4678   9.248   8.626   6.070 -1.8177  0.5817  0.0569
   35MOL0     H 4679   9.109   8.844   6.064  2.4817 -0.4316 -2.0418
   35MOL0     H 4680   9.193   8.893   6.219 -1.4895  0.2205  0.9756
   35MOL0     H 4681   9.120   8.669   6.326 -0.7817  0.4341  0.2880
   35MOL0     H 4682   9.011   8.644   6.186  1.7066  0.3562 -3.2915
   35MOL0     H 4683   8.872   8.815   6.231  1.1235 -0.2980 -0.3770
   35MOL0     H 4684   8.980   8.908   6.340 -0.6773  0.7509  1.6997
   35MOL0     H 4685   8.770   8.975   6.354  1.5215 -0.7538  0.1847
   35MOL0     H 4686   8.592   9.192   6.504 -2.2135 -0.2776  1.6073
   35MOL0     H 4687   8.625   9.137   6.349 -1.6781  3.8620  0.4563
   35MOL0     H 4688   8.466   9.085   6.424 -0.3555  0.0493  2.9982
   35MOL0     H 4689   8.177   8.900   6.801 -0.7841 -3.3216  2.0507
   35MOL0     H 4690   8.011   8.955   6.965 -1.9727  3.6922  3.1004
   35MOL0     H 4691   7.874   9.040   7.261  0.3770  0.7385 -1.1131
   35MOL0     H 4692   7.955   8.902   7.165 -0.5482 -1.0171  1.4883
   35MOL0     H 4693   8.035   9.004   7.435  0.2018  0.8308 -2.0842
   35MOL0     H 4694   7.907   8.880   7.432  1.4097  0.1658  1.5643
   35MOL0     H 4695   8.148   8.804   7.474 -1.4487  0.3257  0.6556
   35MOL0     H 4696   8.169   8.841   7.304 -0.8270  0.5713 -0.9142
   35MOL0     H 4697   8.014   8.614   7.445  0.5852 -1.0857 -0.2492
   35MOL0     H 4698   7.930   8.680   7.304  0.6672  0.8542  0.2697
   35MOL0     H 4699   8.141   8.634   7.165 -0.5307 -1.9234 -1.0123
   35MOL0     H 4700   8.064   8.493   7.251  1.7479 -0.5627 -0.9639
   35MOL0     H 4701   8.304   8.636   7.353  1.9988 -1.6272  1.9816
   35MOL0     H 4702   8.240   8.481   7.411  3.7518 -1.6072 -0.1269
   35MOL0     H 4703   8.358   8.536   7.132 -2.8355 -0.5674 -0.4269
   35MOL0     H 4704   8.257   8.401   7.162 -1.5391  2.4436 -0.8936
   35MOL0     H 4705   8.418   8.322   7.347  0.0182  0.5844  0.8672
   35MOL0     H 4706   8.518   8.459   7.300  1.6444  0.3202 -4.9404
   35MOL0     H 4707   8.311   9.142   7.198  0.9587  0.3549 -0.2867
   35MOL0     H 4708   8.483   9.075   7.041  1.5725 -2.0334 -2.4715
   35MOL0     H 4709   8.615   8.783   6.775 -0.6122 -0.9204 -0.1495
   35MOL0     H 4710   8.804   8.683   6.666 -0.2611  1.1963  2.2951
   35MOL0     H 4711  10.525   9.617   6.286 -0.1313 -0.5402  1.1618
   35MOL0     H 4712  10.775   9.679   6.284  2.2437 -0.9125 -1.9347
   35MOL0     H 4713  11.221   9.763   6.411 -0.1228 -0.0570 -0.4215
   35MOL0     H 4714  11.441   9.826   6.370 -1.3706 -1.4321  1.4650
   35MOL0     H 4715  11.541   9.966   6.243 -0.4505 -0.2730  0.6541
   35MOL0     H 4716  11.686   9.886   6.296 -2.6682 -0.9424  1.8697
   35MOL0     H 4717  11.722  10.076   6.119  2.7257 -0.8472  0.5505
   35MOL0     H 4718  11.658   9.961   5.999 -3.1235 -1.4392  0.9934
   35MOL0     H 4719  11.840   9.829   6.012  2.1276 -0.1349  0.2858
   35MOL0     H 4720  11.864   9.844   6.183 -2.5117  0.5559  0.5764
   35MOL0     H 4721  11.940  10.055   5.967 -1.6198  0.0739  1.0015
   35MOL0     H 4722  12.046   9.927   6.049  1.5913  0.3372  1.9564
   35MOL0     H 4723  12.050  10.194   6.361 -1.3081 -1.6306  0.9757
   35MOL0     H 4724  11.453   9.601   6.003  0.5931 -1.6172  0.3388
   35MOL0     H 4725  11.234   9.522   6.042 -1.1553  1.2946 -0.3917
   36MOL0     O 4726  10.103   8.517   9.669 -0.5047  0.3102  0.0651
   36MOL0     C 4727  10.127   8.632   9.712 -0.7367  0.4870 -0.1116
   36MOL0     O 4728  10.053   8.706   9.797 -0.0100  0.1002  0.5878
   36MOL0     C 4729   9.936   8.656   9.829 -0.4702  0.4900 -0.3290
   36MOL0     C 4730   9.827   8.667   9.746  0.4603  0.2462 -0.1447
   36MOL0     C 4731   9.699   8.630   9.793 -0.1847 -0.0611  0.3026
   36MOL0     C 4732   9.685   8.585   9.925 -0.5691  0.6839 -0.7480
   36MOL0     O 4733   9.549   8.552   9.966 -0.3976 -0.3650  0.0939
   36MOL0     C 4734   9.517   8.544  10.104 -0.2230 -0.6525  0.0673
   36MOL0     C 4735   9.366   8.559  10.108 -0.1996  0.5074 -0.3625
   36MOL0     C 4736   9.298   8.495  10.238 -0.2058 -0.6692 -0.6655
   36MOL0     C 4737   9.176   8.582  10.292 -0.1591 -0.4509  0.3136
   36MOL0     C 4738   9.088   8.490  10.382  0.9432  0.3601 -0.1839
   36MOL0     C 4739   8.979   8.421  10.295  0.2686 -0.0859  0.4140
   36MOL0     C 4740   8.866   8.370  10.383  0.5595  0.0052 -0.0393
   36MOL0     C 4741   8.773   8.271  10.310 -0.2246  0.0576 -0.2921
   36MOL0     N 4742   8.642   8.242  10.384 -0.6151 -0.1361 -0.1808
   36MOL0     C 4743   8.570   8.336  10.451  0.0799 -0.6389  0.1764
   36MOL0     C 4744   8.462   8.274  10.498 -0.4692 -0.4942 -1.1927
   36MOL0     C 4745   8.352   8.338  10.580 -0.1584  0.6011  0.0781
   36MOL0     C 4746   8.241   8.403  10.497  0.3912 -0.6638 -0.0990
   36MOL0     C 4747   8.284   8.511  10.404  0.0200 -0.6237 -0.2168
   36MOL0     C 4748   8.160   8.582  10.359  0.1509  0.9931  0.4877
   36MOL0     O 4749   8.181   8.694  10.282 -0.2099 -0.4338 -0.5726
   36MOL0     C 4750   8.066   8.758  10.224  0.1069  0.3109 -0.2746
   36MOL0     C 4751   8.035   8.883  10.266 -0.1774  0.7409 -0.3734
   36MOL0     C 4752   7.921   8.954  10.222  0.4868 -0.1527  0.4433
   36MOL0     C 4753   7.897   9.095  10.272  0.2560  0.4199  0.1569
   36MOL0     C 4754   7.836   8.890  10.120  0.3866 -0.7432 -0.7565
   36MOL0     C 4755   7.717   8.962  10.059  0.7637  0.1000  0.1799
   36MOL0     O 4756   7.646   8.868   9.985  0.0316 -0.5299 -0.0966
   36MOL0     C 4757   7.522   8.904   9.942 -0.5668 -0.3440  0.4360
   36MOL0     C 4758   7.487   8.893   9.808 -0.7563 -0.1109 -0.0986
   36MOL0     C 4759   7.358   8.934   9.766  0.2201 -0.1233 -0.5357
   36MOL0     C 4760   7.258   8.960   9.855  0.6771 -0.1705 -0.0924
   36MOL0     O 4761   7.131   8.978   9.803 -0.6627  0.1526  0.0198
   36MOL0     C 4762   7.028   9.034   9.890 -0.3245  0.1713  0.4879
   36MOL0     C 4763   6.906   8.946   9.861 -0.3977  0.0033  1.0827
   36MOL0     C 4764   6.798   8.996   9.950  0.0265 -0.9856 -0.4480
   36MOL0     C 4765   6.671   8.915   9.920 -1.4563 -0.1700 -0.4456
   36MOL0     C 4766   6.548   8.948  10.004  1.0417 -0.5049  0.3306
   36MOL0     C 4767   6.508   9.094  10.008  0.2959  0.2499  0.5021
   36MOL0     C 4768   6.374   9.122  10.074  0.1489  0.0240 -0.4547
   36MOL0     C 4769   6.363   9.277  10.090 -0.3979  0.8918  0.0895
   36MOL0    Cl 4770   6.229   9.300  10.211 -0.0579 -0.0080  0.2480
   36MOL0     C 4771   7.297   8.970   9.993  0.8540  0.0090  0.5843
   36MOL0     C 4772   7.420   8.931  10.038  0.3002  0.0432 -0.0335
   36MOL0     O 4773   7.689   9.081  10.071 -0.1555  0.8116  0.1450
   36MOL0     C 4774   7.882   8.760  10.066 -0.7778 -0.9353  0.0608
   36MOL0     C 4775   7.993   8.702  10.123 -0.3214 -1.4992 -0.1294
   36MOL0     N 4776   8.466   8.140  10.463  0.0843  0.3028 -0.0202
   36MOL0     N 4777   8.576   8.121  10.396 -0.6154  0.0168 -0.0484
   36MOL0     C 4778   9.795   8.574  10.016 -0.6502  0.1425  0.3095
   36MOL0     C 4779   9.918   8.608   9.960 -0.1936 -1.2201  0.2818
   36MOL0     C 4780  10.271   8.671   9.715  0.5164 -0.3056 -0.7317
   36MOL0     C 4781  10.351   8.636   9.611 -0.2655 -0.1445 -0.3860
   36MOL0     C 4782  10.485   8.666   9.616 -0.2981 -0.3329 -0.0611
   36MOL0     C 4783  10.542   8.732   9.729 -0.3544 -0.1273 -0.2246
   36MOL0     O 4784  10.671   8.778   9.726 -0.7612 -0.1704 -0.4816
   36MOL0     C 4785  10.744   8.804   9.610 -0.2810  0.1192  0.5443
   36MOL0     C 4786  10.873   8.881   9.633  0.1553 -0.1574 -0.2426
   36MOL0     C 4787  10.979   8.806   9.710  0.5953 -0.3623 -0.2360
   36MOL0     C 4788  11.102   8.902   9.728  0.4066 -0.0461  0.0245
   36MOL0     C 4789  11.182   8.936   9.608  0.2682  0.0105  0.5306
   36MOL0     C 4790  11.241   8.974   9.506  0.0867  0.4193  0.0842
   36MOL0     C 4791  10.463   8.774   9.838  0.1613  0.7008 -0.4468
   36MOL0     C 4792  10.327   8.733   9.830 -0.1860 -0.7829 -0.4697
   36MOL0     H 4793   9.833   8.710   9.647 -0.0935  1.1430  0.2013
   36MOL0     H 4794   9.607   8.648   9.740 -0.4986 -3.1029 -0.3576
   36MOL0     H 4795   9.548   8.444  10.137  0.0307  0.1319  2.4406
   36MOL0     H 4796   9.579   8.611  10.166  0.1638 -1.3740  0.4722
   36MOL0     H 4797   9.337   8.664  10.105 -0.7485  0.6174  3.4946
   36MOL0     H 4798   9.334   8.500  10.022  0.9065 -1.1730  0.3179
   36MOL0     H 4799   9.268   8.393  10.212  0.3938 -0.4017 -2.5660
   36MOL0     H 4800   9.373   8.507  10.316  0.2142 -0.5537 -1.0813
   36MOL0     H 4801   9.220   8.660  10.356 -1.8043  1.4222 -0.7195
   36MOL0     H 4802   9.116   8.639  10.222 -0.2404 -1.0417 -0.1004
   36MOL0     H 4803   9.141   8.411  10.436  2.1096  1.5060  0.3855
   36MOL0     H 4804   9.038   8.556  10.452 -2.4124 -3.1570  1.1037
   36MOL0     H 4805   8.941   8.494  10.222 -3.3699  0.3283  2.4849
   36MOL0     H 4806   9.026   8.342  10.236  0.6343 -2.0950  3.1929
   36MOL0     H 4807   8.891   8.325  10.479 -0.6541  1.1051  0.8334
   36MOL0     H 4808   8.808   8.457  10.415  0.3591 -0.0947 -0.1307
   36MOL0     H 4809   8.820   8.174  10.291 -2.8427 -1.3160 -0.3549
   36MOL0     H 4810   8.736   8.312  10.215  0.4726 -0.1912 -0.6794
   36MOL0     H 4811   8.597   8.439  10.471  0.6568 -0.8144  0.3122
   36MOL0     H 4812   8.302   8.261  10.640  0.4188 -1.3835 -1.8394
   36MOL0     H 4813   8.402   8.411  10.644  0.3273  1.2557 -1.0264
   36MOL0     H 4814   8.168   8.439  10.570 -0.4220  1.6651 -1.9093
   36MOL0     H 4815   8.186   8.326  10.442 -1.8096 -0.8329  2.1400
   36MOL0     H 4816   8.343   8.483  10.317  0.7453 -1.1038  0.4146
   36MOL0     H 4817   8.334   8.594  10.456  0.3770 -0.1544 -1.2703
   36MOL0     H 4818   8.080   8.591  10.434 -1.2242 -0.2093 -0.7655
   36MOL0     H 4819   8.122   8.513  10.283  0.8682  3.0594 -1.8548
   36MOL0     H 4820   8.104   8.920  10.341 -0.3064 -2.2643  1.3670
   36MOL0     H 4821   7.959   9.103  10.362  0.5060 -0.9910  0.1338
   36MOL0     H 4822   7.931   9.159  10.190  0.7956 -0.2501 -0.1556
   36MOL0     H 4823   7.791   9.106  10.295  0.0446  2.1177 -1.4179
   36MOL0     H 4824   7.550   8.878   9.722 -1.2470  3.2696 -1.2211
   36MOL0     H 4825   7.349   8.955   9.660  4.1330 -2.0569 -1.4661
   36MOL0     H 4826   7.043   9.020   9.997 -1.8637  0.4498  0.7622
   36MOL0     H 4827   7.000   9.138   9.873  0.9087  0.8408  2.1823
   36MOL0     H 4828   6.886   8.957   9.754  0.8586  0.9970  0.9322
   36MOL0     H 4829   6.930   8.841   9.877  0.6636 -0.0536 -0.6647
   36MOL0     H 4830   6.774   9.098   9.921  0.5051 -0.6524  0.2943
   36MOL0     H 4831   6.808   8.995  10.059 -4.6700 -0.9801  0.1792
   36MOL0     H 4832   6.641   8.931   9.816 -0.0900 -1.2102 -1.0149
   36MOL0     H 4833   6.697   8.809   9.927  3.1398  0.6493 -2.1335
   36MOL0     H 4834   6.562   8.904  10.104 -0.5595  0.2681  0.9323
   36MOL0     H 4835   6.469   8.882   9.968  2.4139 -1.6266 -0.7311
   36MOL0     H 4836   6.585   9.149  10.064  0.4245  0.8110 -0.2156
   36MOL0     H 4837   6.504   9.120   9.902 -0.2509  0.1739  0.4999
   36MOL0     H 4838   6.377   9.074  10.172 -0.7197  1.4935  0.3400
   36MOL0     H 4839   6.289   9.075  10.023 -1.7601  2.9249 -0.1861
   36MOL0     H 4840   6.331   9.314   9.993  0.2757  2.1794  0.3303
   36MOL0     H 4841   6.461   9.317  10.119  0.8252 -1.6152 -0.3343
   36MOL0     H 4842   7.225   8.998  10.070 -0.0865  1.3254 -0.7104
   36MOL0     H 4843   7.432   8.915  10.145 -0.9056  0.9357  0.2601
   36MOL0     H 4844   7.848   8.714   9.974  1.2609 -0.9762 -0.7274
   36MOL0     H 4845   8.014   8.601  10.087 -0.2717 -1.1412 -1.1152
   36MOL0     H 4846   9.783   8.534  10.116 -0.9080 -2.4637 -0.6818
   36MOL0     H 4847  10.000   8.621  10.029 -0.5690 -0.1443  0.5551
   36MOL0     H 4848  10.310   8.583   9.526  0.1017 -1.7773  0.4291
   36MOL0     H 4849  10.553   8.638   9.536  1.8053  0.9813  1.1780
   36MOL0     H 4850  10.768   8.711   9.558  3.3352  0.2200  1.7178
   36MOL0     H 4851  10.684   8.869   9.544 -0.7248 -0.9010 -0.0827
   36MOL0     H 4852  10.840   8.972   9.684  1.2018  0.6188 -0.9142
   36MOL0     H 4853  10.905   8.896   9.529  0.6965  0.6476  0.0309
   36MOL0     H 4854  11.015   8.723   9.648  0.5226  1.6422 -3.1665
   36MOL0     H 4855  10.943   8.771   9.807  0.4191 -0.5883 -0.3812
   36MOL0     H 4856  11.161   8.859   9.809  0.5220  0.4989  0.2291
   36MOL0     H 4857  11.062   8.993   9.774 -0.8557 -0.7010  0.2679
   36MOL0     H 4858  11.297   8.989   9.415 -0.5517 -2.0585 -0.8016
   36MOL0     H 4859  10.497   8.831   9.924 -0.1207 -0.1828  0.2724
   36MOL0     H 4860  10.252   8.753   9.907 -0.1610  0.5939 -0.7797
   37MOL0     O 4861   8.617   7.651   8.539 -0.1676 -0.2947  0.0880
   37MOL0     C 4862   8.587   7.611   8.426 -1.1996  0.0088 -0.7156
   37MOL0     O 4863   8.461   7.576   8.390  0.1980 -0.0369  0.5117
   37MOL0     C 4864   8.363   7.576   8.482  0.2844 -0.4439  0.3859
   37MOL0     C 4865   8.352   7.482   8.589 -0.3972 -0.5015 -0.1509
   37MOL0     C 4866   8.265   7.499   8.697  0.0012  0.8208  0.4867
   37MOL0     C 4867   8.193   7.618   8.711  1.2909  0.3534  0.0773
   37MOL0     O 4868   8.109   7.644   8.819  0.1238 -0.0513  0.4337
   37MOL0     C 4869   8.062   7.532   8.899 -0.0313  0.2385  0.4129
   37MOL0     C 4870   7.930   7.577   8.960 -1.1869 -0.0472 -0.3831
   37MOL0     C 4871   7.807   7.520   8.895 -0.4496 -0.4711  0.0496
   37MOL0     C 4872   7.684   7.585   8.937 -0.2522 -0.5267 -0.3649
   37MOL0     C 4873   7.548   7.519   8.910  0.1289 -0.2917  0.1391
   37MOL0     C 4874   7.537   7.435   8.776 -0.0898  0.0673  0.5101
   37MOL0     C 4875   7.389   7.399   8.735 -0.5618 -0.2439 -0.5632
   37MOL0     C 4876   7.282   7.511   8.764 -0.7100  0.0678  0.4633
   37MOL0     N 4877   7.159   7.482   8.700 -0.1083  0.0821  0.0884
   37MOL0     C 4878   7.089   7.367   8.718 -0.1045  0.5641  0.1436
   37MOL0     C 4879   6.997   7.355   8.628  0.5011 -1.2571 -0.1206
   37MOL0     C 4880   6.896   7.258   8.603 -0.4699 -0.8812  0.3596
   37MOL0     C 4881   6.779   7.267   8.694  0.3433  0.2611  0.5173
   37MOL0     C 4882   6.674   7.367   8.634 -0.3502  0.0251 -0.2146
   37MOL0     C 4883   6.546   7.355   8.713 -0.1654 -0.9095 -0.7894
   37MOL0     O 4884   6.573   7.388   8.848 -1.0204 -0.4139 -0.3330
   37MOL0     C 4885   6.490   7.448   8.933  0.3069 -0.6115  0.2606
   37MOL0     C 4886   6.540   7.454   9.062 -0.1369  0.5096 -0.9339
   37MOL0     C 4887   6.476   7.500   9.171 -0.5533 -0.1629 -0.5046
   37MOL0     C 4888   6.561   7.511   9.297  0.4907 -0.7295  0.5032
   37MOL0     C 4889   6.341   7.539   9.154  0.2947 -0.1337 -0.0013
   37MOL0     C 4890   6.249   7.584   9.261 -0.2870  0.2668 -0.0824
   37MOL0     O 4891   6.120   7.614   9.220 -0.1556 -0.3543  0.3637
   37MOL0     C 4892   6.013   7.591   9.302 -0.0861  0.0379  0.2984
   37MOL0     C 4893   6.012   7.553   9.439  0.0608  0.5952 -0.9513
   37MOL0     C 4894   5.893   7.547   9.507 -0.9951  0.0974 -0.6785
   37MOL0     C 4895   5.768   7.558   9.444  0.3637  0.4790  0.0096
   37MOL0     O 4896   5.664   7.546   9.533 -0.2644 -0.8313 -0.0621
   37MOL0     C 4897   5.539   7.565   9.468  0.2194 -0.0396  0.1630
   37MOL0     C 4898   5.434   7.552   9.580  0.1702 -0.1415  0.5480
   37MOL0     C 4899   5.297   7.607   9.548 -0.1494 -0.2166  0.7019
   37MOL0     C 4900   5.196   7.555   9.650 -0.9295 -0.4825  0.2073
   37MOL0     C 4901   5.058   7.615   9.626 -0.6034  0.5787  0.2202
   37MOL0     C 4902   4.949   7.570   9.722 -0.0857 -0.0890  0.3120
   37MOL0     C 4903   4.823   7.660   9.721 -1.5239  0.1680  0.1803
   37MOL0     C 4904   4.744   7.633   9.603  0.6215 -0.6745  0.2738
   37MOL0    Cl 4905   4.595   7.724   9.623  0.3905 -0.1327 -0.1302
   37MOL0     C 4906   5.767   7.597   9.311 -0.1984  0.4439  0.4868
   37MOL0     C 4907   5.887   7.616   9.239  0.3753  0.1937  0.4948
   37MOL0     O 4908   6.297   7.605   9.376  0.0649 -0.3282 -0.1998
   37MOL0     C 4909   6.284   7.532   9.021 -0.0132 -0.5133 -0.5169
   37MOL0     C 4910   6.362   7.495   8.911 -0.3718  0.1341 -0.6318
   37MOL0     N 4911   7.021   7.460   8.541 -0.5415  1.0413  0.2327
   37MOL0     N 4912   7.123   7.526   8.581 -0.4348 -0.0328  0.3474
   37MOL0     C 4913   8.202   7.709   8.608 -0.3631  0.5091 -0.6779
   37MOL0     C 4914   8.288   7.690   8.496  0.2594  0.7630 -0.7378
   37MOL0     C 4915   8.688   7.598   8.316  0.1690 -0.3177  0.6084
   37MOL0     C 4916   8.653   7.543   8.193  1.1201  0.8203 -0.4595
   37MOL0     C 4917   8.747   7.535   8.085  0.0684 -1.3538  0.3445
   37MOL0     C 4918   8.884   7.581   8.110 -0.6469 -0.3320 -0.3708
   37MOL0     O 4919   8.975   7.587   8.007 -0.1912 -0.6029  0.3476
   37MOL0     C 4920   9.116   7.558   8.021 -0.2427 -0.0510  0.1771
   37MOL0     C 4921   9.148   7.419   8.064 -0.6169 -0.6103 -0.0626
   37MOL0     C 4922   9.098   7.313   7.967  0.2502  0.2497  0.5737
   37MOL0     C 4923   9.150   7.308   7.819  0.5433  0.4210 -0.1129
   37MOL0     C 4924   9.285   7.258   7.830  0.1452  0.3348 -0.5767
   37MOL0     C 4925   9.397   7.212   7.816  0.2369 -0.1491 -0.4322
   37MOL0     C 4926   8.916   7.621   8.242 -0.2463  0.1410 -0.1009
   37MOL0     C 4927   8.817   7.637   8.338  0.0524  0.2976 -0.9881
   37MOL0     H 4928   8.411   7.392   8.584 -3.1641 -2.4532  0.1887
   37MOL0     H 4929   8.272   7.421   8.773  0.5824  1.3287  0.9713
   37MOL0     H 4930   8.048   7.448   8.830 -0.3875  0.7185 -0.1108
   37MOL0     H 4931   8.146   7.514   8.966  0.6295  1.5473 -0.0256
   37MOL0     H 4932   7.930   7.545   9.064  0.2951  1.5021  0.1426
   37MOL0     H 4933   7.944   7.686   8.957 -0.1091 -0.1404  0.5119
   37MOL0     H 4934   7.831   7.547   8.792  1.5145 -0.9568  0.3400
   37MOL0     H 4935   7.799   7.414   8.920 -0.0926 -0.4664  0.1969
   37MOL0     H 4936   7.686   7.606   9.044  2.1794  4.5284 -1.1281
   37MOL0     H 4937   7.685   7.689   8.903 -1.4027  0.2255  1.7014
   37MOL0     H 4938   7.528   7.459   8.999 -3.7348  1.1901  0.4690
   37MOL0     H 4939   7.476   7.602   8.913 -0.9139 -1.2085  1.6114
   37MOL0     H 4940   7.584   7.483   8.690  1.3219 -0.4376  0.9842
   37MOL0     H 4941   7.585   7.340   8.799  1.0113  0.7816  1.2542
   37MOL0     H 4942   7.381   7.359   8.634 -1.8999 -5.7393  1.3694
   37MOL0     H 4943   7.352   7.305   8.778  1.1563  0.1319  1.9437
   37MOL0     H 4944   7.326   7.610   8.754  1.3753 -0.6312  2.0405
   37MOL0     H 4945   7.268   7.506   8.872 -1.2807  0.8447  0.4376
   37MOL0     H 4946   7.102   7.285   8.788 -0.1572  0.0384 -0.4529
   37MOL0     H 4947   6.869   7.247   8.497 -1.7990 -0.2855  0.6161
   37MOL0     H 4948   6.947   7.163   8.622 -0.1266 -1.0447 -1.1929
   37MOL0     H 4949   6.815   7.297   8.792  1.0686  1.5034 -0.0972
   37MOL0     H 4950   6.728   7.170   8.688  1.4662 -0.3194  0.1331
   37MOL0     H 4951   6.670   7.345   8.527  1.0583 -1.6473  0.0324
   37MOL0     H 4952   6.713   7.466   8.659 -1.0014 -0.2216  1.9564
   37MOL0     H 4953   6.519   7.251   8.692  1.1668 -1.5586  0.5555
   37MOL0     H 4954   6.469   7.419   8.670  0.6909  0.6216 -0.1196
   37MOL0     H 4955   6.645   7.428   9.077 -0.2990  0.3146 -0.0272
   37MOL0     H 4956   6.541   7.598   9.361  0.0934 -0.7055  0.3526
   37MOL0     H 4957   6.537   7.416   9.347 -3.4088 -0.7546 -1.0158
   37MOL0     H 4958   6.666   7.503   9.268 -0.3506 -2.7420 -2.4235
   37MOL0     H 4959   6.101   7.525   9.495 -1.2049 -2.6971 -0.4129
   37MOL0     H 4960   5.878   7.515   9.610 -1.2748 -3.3025 -1.6532
   37MOL0     H 4961   5.544   7.660   9.414 -2.0630 -1.3421 -2.5755
   37MOL0     H 4962   5.526   7.485   9.394 -1.7963  0.2269  0.1932
   37MOL0     H 4963   5.418   7.449   9.612 -0.9054 -1.0549 -2.6021
   37MOL0     H 4964   5.464   7.597   9.675 -0.7700  2.0873 -0.1276
   37MOL0     H 4965   5.273   7.588   9.443 -0.5740  1.4909  0.4574
   37MOL0     H 4966   5.302   7.716   9.555  1.7529 -0.2300  0.1062
   37MOL0     H 4967   5.199   7.447   9.635  1.1065 -0.6526  1.4640
   37MOL0     H 4968   5.225   7.568   9.755 -2.7118 -2.2272  0.9859
   37MOL0     H 4969   5.020   7.602   9.525 -1.3866  2.5536  0.1928
   37MOL0     H 4970   5.074   7.723   9.641 -0.4287  0.4213  1.2616
   37MOL0     H 4971   4.920   7.468   9.697  1.8298  0.1858 -4.1193
   37MOL0     H 4972   4.990   7.575   9.823  1.6509 -0.0306 -0.3534
   37MOL0     H 4973   4.854   7.764   9.726 -2.7777  0.5362  0.8067
   37MOL0     H 4974   4.763   7.639   9.810 -1.0271  1.3858  0.8203
   37MOL0     H 4975   4.711   7.529   9.594 -0.6291 -0.4708  1.9634
   37MOL0     H 4976   4.789   7.658   9.507 -2.4382 -1.5629 -1.5356
   37MOL0     H 4977   5.676   7.601   9.251 -0.0701  0.1418  0.2727
   37MOL0     H 4978   5.885   7.644   9.134  0.6096 -0.9936  0.1592
   37MOL0     H 4979   6.184   7.564   8.993  0.0129  0.3787  0.3432
   37MOL0     H 4980   6.327   7.489   8.808  3.0667  1.9852 -2.0974
   37MOL0     H 4981   8.149   7.804   8.615 -0.2548  0.4407  1.4643
   37MOL0     H 4982   8.284   7.775   8.428  0.1747  0.0514 -1.6556
   37MOL0     H 4983   8.556   7.499   8.175  1.5126  0.5579 -2.1341
   37MOL0     H 4984   8.731   7.494   7.986  1.0187  1.0148 -0.8556
   37MOL0     H 4985   9.164   7.592   7.929 -1.6426  0.6804 -0.3135
   37MOL0     H 4986   9.157   7.617   8.103 -1.0437  2.3067 -1.0159
   37MOL0     H 4987   9.123   7.402   8.169  1.6599 -3.0622  0.1804
   37MOL0     H 4988   9.257   7.414   8.057 -0.7228 -3.1164 -0.6659
   37MOL0     H 4989   8.989   7.326   7.960  0.2990 -0.2214 -2.0726
   37MOL0     H 4990   9.129   7.216   8.006  0.0440 -0.3801 -0.7669
   37MOL0     H 4991   9.152   7.404   7.768  1.0571  0.4275 -0.0859
   37MOL0     H 4992   9.090   7.233   7.766  1.9262 -0.9499  0.1878
   37MOL0     H 4993   9.497   7.178   7.797  0.9453  0.7759  1.3797
   37MOL0     H 4994   9.013   7.654   8.275  0.5566 -4.0493  2.4216
   37MOL0     H 4995   8.852   7.655   8.439 -0.4167  0.4531 -0.8557
   38MOL0     O 4996   2.132   8.484  11.002 -0.3123  0.1848 -0.5045
   38MOL0     C 4997   2.213   8.412  11.062  0.4300 -0.2822  0.5941
   38MOL0     O 4998   2.176   8.288  11.127  0.4424 -0.1253 -0.2701
   38MOL0     C 4999   2.047   8.262  11.165  0.0558 -0.1845  0.1423
   38MOL0     C 5000   2.030   8.127  11.210  0.6750 -0.0374  0.3580
   38MOL0     C 5001   1.906   8.083  11.261  0.1526  0.4028 -0.5394
   38MOL0     C 5002   1.804   8.183  11.289  0.1047 -0.4198 -0.0152
   38MOL0     O 5003   1.683   8.164  11.360  0.1947  0.2901  0.8837
   38MOL0     C 5004   1.652   8.031  11.394  0.1255 -0.8011 -1.0483
   38MOL0     C 5005   1.518   8.016  11.471  0.7496 -0.4417 -0.1780
   38MOL0     C 5006   1.392   8.024  11.379 -0.3255 -0.6705 -0.1440
   38MOL0     C 5007   1.251   7.999  11.439 -0.2209  0.2758  0.0189
   38MOL0     C 5008   1.143   7.988  11.321 -0.6523  0.5787 -0.1126
   38MOL0     C 5009   1.001   7.976  11.381  0.7128  0.3173 -0.1834
   38MOL0     C 5010   0.937   8.098  11.459 -0.1496 -0.0089 -0.9046
   38MOL0     C 5011   0.933   8.234  11.386 -0.2446 -0.8143  0.2288
   38MOL0     N 5012   0.842   8.231  11.268  0.0591 -0.6713  0.1185
   38MOL0     C 5013   0.884   8.187  11.144  0.0293 -1.1198 -0.9376
   38MOL0     C 5014   0.765   8.147  11.084 -0.4228  0.3673  0.2357
   38MOL0     C 5015   0.741   8.079  10.946  0.0160 -0.3498  0.2577
   38MOL0     C 5016   0.688   7.938  10.952  0.5765 -0.2823  0.7309
   38MOL0     C 5017   0.622   7.902  10.825  0.7269 -0.0697 -0.8742
   38MOL0     C 5018   0.543   7.765  10.830 -0.0644 -0.7092 -0.8351
   38MOL0     O 5019   0.629   7.654  10.852  0.0210 -0.6617 -0.1592
   38MOL0     C 5020   0.576   7.524  10.850 -0.1682 -0.0291  0.6556
   38MOL0     C 5021   0.441   7.504  10.811 -0.5620  0.1446 -0.3051
   38MOL0     C 5022   0.383   7.377  10.794  0.1505 -0.6659 -1.2927
   38MOL0     C 5023   0.236   7.377  10.758  0.3083  0.4574  0.6641
   38MOL0     C 5024   0.468   7.262  10.794 -0.0636  0.3177 -0.6645
   38MOL0     C 5025   0.423   7.129  10.761  0.0410  0.8671  1.1481
   38MOL0     O 5026   0.341   7.127  10.656  0.0947  0.6469  0.1219
   38MOL0     C 5027   0.310   7.002  10.594  0.0092 -0.2311 -0.1186
   38MOL0     C 5028   0.382   6.974  10.473  0.4317 -0.3289 -0.4538
   38MOL0     C 5029   0.368   6.857  10.405  0.2685  0.6063  0.2264
   38MOL0     C 5030   0.270   6.757  10.454  0.4572  0.4134  0.5128
   38MOL0     O 5031   0.229   6.641  10.386  0.9059 -0.4040  0.0875
   38MOL0     C 5032   0.315   6.594  10.289  0.5435  0.4749  0.0404
   38MOL0     C 5033   0.278   6.447  10.247 -0.5141 -0.1356  0.2791
   38MOL0     C 5034   0.146   6.447  10.172  0.1179  0.3027 -0.2384
   38MOL0     C 5035   0.129   6.309  10.116  0.4320  0.2212  0.1149
   38MOL0     C 5036   0.003   6.286  10.021  0.0672 -0.0418 -0.6069
   38MOL0     C 5037  -0.133   6.325  10.081  0.6496 -0.0995  0.0241
   38MOL0     C 5038  -0.257   6.268  10.020  0.2608  0.7013 -0.5458
   38MOL0     C 5039  -0.386   6.305  10.111 -0.7403  0.9863  0.6688
   38MOL0    Cl 5040  -0.405   6.478  10.130  0.3811 -0.3054 -0.2740
   38MOL0     C 5041   0.194   6.787  10.571 -0.2951  0.4778  0.8382
   38MOL0     C 5042   0.215   6.910  10.641  0.1084 -0.5229  0.9561
   38MOL0     O 5043   0.455   7.031  10.831  0.0107 -1.2681 -0.3803
   38MOL0     C 5044   0.603   7.285  10.827 -0.1174  0.3405  0.7390
   38MOL0     C 5045   0.658   7.411  10.864 -0.0716 -0.1335  0.7145
   38MOL0     N 5046   0.655   8.185  11.158  0.5439  0.0131  0.3773
   38MOL0     N 5047   0.696   8.240  11.271 -0.3254 -0.0734 -0.1326
   38MOL0     C 5048   1.820   8.312  11.234 -0.0107  0.1780 -0.0997
   38MOL0     C 5049   1.941   8.352  11.178  0.1382  0.1034  0.0997
   38MOL0     C 5050   2.354   8.433  11.053 -0.1726 -0.0325  0.3970
   38MOL0     C 5051   2.453   8.353  11.125  0.7304 -0.8151  0.3960
   38MOL0     C 5052   2.589   8.365  11.101 -0.4571  0.1100 -0.8655
   38MOL0     C 5053   2.644   8.470  11.022  0.6211  0.6381  0.7332
   38MOL0     O 5054   2.777   8.487  11.001 -0.5690  0.6941  0.0797
   38MOL0     C 5055   2.870   8.388  11.043 -0.4175 -0.1947 -0.4389
   38MOL0     C 5056   2.859   8.257  10.952  0.2016 -0.1012 -0.9780
   38MOL0     C 5057   2.918   8.137  11.031  0.8302 -0.2431  0.0658
   38MOL0     C 5058   2.872   8.004  10.972  0.3040 -0.1461  0.2759
   38MOL0     C 5059   2.936   7.898  11.049 -0.1715 -0.0066 -0.3262
   38MOL0     C 5060   2.963   7.804  11.121  0.0864  0.9691  0.1231
   38MOL0     C 5061   2.548   8.556  10.961  0.2785  0.5201 -0.3709
   38MOL0     C 5062   2.412   8.545  10.977  0.9002  0.2365 -0.3555
   38MOL0     H 5063   2.112   8.056  11.204  1.1160  0.2478  2.3827
   38MOL0     H 5064   1.895   7.987  11.310  0.8352  0.1641 -0.8551
   38MOL0     H 5065   1.640   7.967  11.306 -3.4596 -0.3980 -1.0039
   38MOL0     H 5066   1.729   7.988  11.458 -2.4744  0.2762  3.1501
   38MOL0     H 5067   1.508   7.918  11.520 -3.8017 -0.0546  0.1219
   38MOL0     H 5068   1.506   8.094  11.546 -2.4833 -1.1236  0.1778
   38MOL0     H 5069   1.385   8.130  11.350 -4.1106 -0.3663  1.2353
   38MOL0     H 5070   1.398   7.975  11.282 -1.7619  1.6805 -1.5485
   38MOL0     H 5071   1.249   7.906  11.496 -3.2121 -0.2362 -0.7080
   38MOL0     H 5072   1.220   8.085  11.498 -2.9881  0.1185 -1.0292
   38MOL0     H 5073   1.154   8.085  11.271 -0.8854  1.0127  0.6474
   38MOL0     H 5074   1.178   7.906  11.258  0.6471  0.6311  0.4982
   38MOL0     H 5075   0.921   7.947  11.312 -0.3010  1.0690  0.6278
   38MOL0     H 5076   1.007   7.897  11.457 -1.0252  0.4677  0.1720
   38MOL0     H 5077   0.838   8.057  11.483 -0.5848  0.4817 -1.8254
   38MOL0     H 5078   0.986   8.113  11.556 -0.7912 -2.0798 -0.1894
   38MOL0     H 5079   1.035   8.257  11.355 -0.6086  0.1717 -0.2846
   38MOL0     H 5080   0.892   8.316  11.445  1.1759 -0.4102  0.6814
   38MOL0     H 5081   0.986   8.167  11.111 -0.0472 -0.3395 -1.6893
   38MOL0     H 5082   0.678   8.144  10.883 -1.1094 -1.7154 -0.0948
   38MOL0     H 5083   0.841   8.072  10.902 -0.0954 -0.1467 -0.0348
   38MOL0     H 5084   0.629   7.923  11.043  2.6437 -0.8909  2.0390
   38MOL0     H 5085   0.778   7.876  10.957  0.7459 -0.0674  0.3811
   38MOL0     H 5086   0.695   7.907  10.744  1.6143  1.5140 -0.0157
   38MOL0     H 5087   0.543   7.974  10.803  2.2768  1.6403 -1.0923
   38MOL0     H 5088   0.502   7.759  10.729  1.5094 -1.9877 -1.4373
   38MOL0     H 5089   0.468   7.767  10.911 -1.0721  0.5772 -1.7636
   38MOL0     H 5090   0.376   7.588  10.788 -3.3724 -1.2085  2.0681
   38MOL0     H 5091   0.179   7.458  10.802 -0.1100  1.9638 -2.3683
   38MOL0     H 5092   0.232   7.393  10.649 -0.2399  0.4735  0.6848
   38MOL0     H 5093   0.204   7.275  10.780  0.8111 -0.0282 -0.7165
   38MOL0     H 5094   0.445   7.048  10.426 -2.3057  2.2297 -0.3926
   38MOL0     H 5095   0.427   6.861  10.314 -0.0315 -0.8637 -0.0540
   38MOL0     H 5096   0.318   6.664  10.205 -2.2435  0.3139 -0.2882
   38MOL0     H 5097   0.410   6.598  10.342 -1.0595  2.0322  3.0464
   38MOL0     H 5098   0.364   6.408  10.192 -0.2828 -0.3717  0.7987
   38MOL0     H 5099   0.272   6.381  10.334  1.3353 -1.8131 -0.7584
   38MOL0     H 5100   0.156   6.521  10.092 -2.1011 -0.0723 -0.9304
   38MOL0     H 5101   0.059   6.467  10.234  0.6504 -1.6113  1.2365
   38MOL0     H 5102   0.217   6.274  10.061  0.6539  1.3540 -0.2682
   38MOL0     H 5103   0.125   6.248  10.207 -1.6707  0.3836  0.1903
   38MOL0     H 5104  -0.007   6.178  10.009 -3.6709 -0.0860  1.5175
   38MOL0     H 5105   0.013   6.345   9.929  2.4814  1.9353  0.7999
   38MOL0     H 5106  -0.129   6.302  10.188  1.5735  2.3780  0.5937
   38MOL0     H 5107  -0.133   6.434  10.085  0.1196 -0.0764 -0.5126
   38MOL0     H 5108  -0.255   6.159  10.019 -2.4584  0.3506  3.9261
   38MOL0     H 5109  -0.280   6.314   9.923  0.0983  2.1366  0.1378
   38MOL0     H 5110  -0.377   6.256  10.209  1.7133 -1.2872 -0.5543
   38MOL0     H 5111  -0.476   6.262  10.067  0.2618 -1.4637  0.8764
   38MOL0     H 5112   0.109   6.723  10.593 -2.2214  2.1837 -1.1491
   38MOL0     H 5113   0.155   6.944  10.724 -2.8564  4.3651 -2.6267
   38MOL0     H 5114   0.674   7.203  10.820  0.7015  1.0639  0.4150
   38MOL0     H 5115   0.766   7.418  10.873  0.1894 -1.0682 -1.1143
   38MOL0     H 5116   1.744   8.388  11.250  0.7389  0.4411  2.8160
   38MOL0     H 5117   1.947   8.452  11.136 -0.0648 -0.4719 -1.3555
   38MOL0     H 5118   2.423   8.284  11.204  2.4336  0.7080  2.5092
   38MOL0     H 5119   2.645   8.288  11.153 -2.9552 -3.2716 -2.7441
   38MOL0     H 5120   2.964   8.444  11.047 -0.1643 -0.5762 -0.8557
   38MOL0     H 5121   2.848   8.358  11.146  0.6580  2.6485  0.7179
   38MOL0     H 5122   2.913   8.266  10.857  1.4977 -1.2363 -0.3901
   38MOL0     H 5123   2.756   8.225  10.932  0.5538 -1.3327 -0.9325
   38MOL0     H 5124   2.885   8.149  11.135 -3.8248 -1.3104 -1.0728
   38MOL0     H 5125   3.026   8.149  11.017  0.5931 -0.1196 -1.9148
   38MOL0     H 5126   2.909   7.984  10.872  2.2065  0.9052  0.7197
   38MOL0     H 5127   2.763   8.003  10.984  0.1795  4.2098  1.1138
   38MOL0     H 5128   2.972   7.712  11.174  1.3419  0.6754 -0.5582
   38MOL0     H 5129   2.582   8.634  10.894  0.3126  1.1971  0.4127
   38MOL0     H 5130   2.347   8.618  10.929  0.7022 -0.8030 -1.7267
   39MOL0     O 5131   4.225  10.053  10.730  0.2554  0.4133  0.8718
   39MOL0     C 5132   4.236  10.113  10.830 -0.1202 -1.3039  0.0583
   39MOL0     O 5133   4.134  10.190  10.876 -0.3499  0.9261  0.3369
   39MOL0     C 5134   4.028  10.213  10.798 -0.2397  0.8762  0.5051
   39MOL0     C 5135   3.912  10.137  10.806  0.1518 -0.7488  0.0540
   39MOL0     C 5136   3.801  10.166  10.722  0.1494  0.2044 -0.1464
   39MOL0     C 5137   3.804  10.273  10.634 -1.0479  0.5153 -0.3494
   39MOL0     O 5138   3.713  10.314  10.544 -0.1487 -0.4598  0.0424
   39MOL0     C 5139   3.574  10.276  10.549 -0.7419 -0.4796 -0.1741
   39MOL0     C 5140   3.493  10.405  10.564 -0.2609 -0.0974  0.2906
   39MOL0     C 5141   3.348  10.405  10.520  0.4814  0.2497 -0.2195
   39MOL0     C 5142   3.339  10.361  10.372  1.0964  0.1665  0.2770
   39MOL0     C 5143   3.203  10.418  10.309  1.1744 -0.2978 -0.2390
   39MOL0     C 5144   3.170  10.339  10.183 -0.5872 -0.1716 -0.7436
   39MOL0     C 5145   3.029  10.366  10.137  0.2073 -0.6955 -0.4175
   39MOL0     C 5146   3.006  10.271  10.022 -0.5174 -0.3807  0.2445
   39MOL0     N 5147   2.870  10.297   9.969 -0.5922 -0.0874 -0.3570
   39MOL0     C 5148   2.822  10.404   9.894  0.7830  0.4120  0.8956
   39MOL0     C 5149   2.697  10.369   9.852  0.1726 -0.0037  0.4319
   39MOL0     C 5150   2.608  10.429   9.749 -0.0403 -0.6363 -0.2961
   39MOL0     C 5151   2.510  10.339   9.670 -0.6075  0.0522 -0.1939
   39MOL0     C 5152   2.383  10.300   9.748 -0.3325 -0.3119 -0.1942
   39MOL0     C 5153   2.314  10.423   9.805 -0.2049 -0.2157 -0.2486
   39MOL0     O 5154   2.183  10.369   9.834 -0.6245  0.1129 -0.3015
   39MOL0     C 5155   2.108  10.422   9.933  0.0505 -0.3669  0.0946
   39MOL0     C 5156   2.137  10.538  10.003  0.2851  1.1414 -0.6261
   39MOL0     C 5157   2.057  10.587  10.116  0.5256  0.4319 -0.2133
   39MOL0     C 5158   2.119  10.699  10.188  0.1751 -0.2122  0.1322
   39MOL0     C 5159   1.937  10.523  10.150  0.4289  0.5347 -0.2531
   39MOL0     C 5160   1.851  10.575  10.255 -0.4392 -0.2303 -0.1661
   39MOL0     O 5161   1.872  10.704  10.314  0.1984 -0.5519 -0.0642
   39MOL0     C 5162   1.804  10.749  10.432 -0.1209 -0.1883  0.7772
   39MOL0     C 5163   1.668  10.734  10.434  0.6932 -0.1844 -0.6241
   39MOL0     C 5164   1.594  10.784  10.535 -0.0330  0.3371 -0.8415
   39MOL0     C 5165   1.656  10.849  10.643 -0.6639  0.1557  0.6118
   39MOL0     O 5166   1.592  10.895  10.749 -0.1695 -0.0059 -0.3133
   39MOL0     C 5167   1.454  10.861  10.772 -0.0836 -0.2152  0.9216
   39MOL0     C 5168   1.350  10.962  10.705  0.0231 -0.7725  0.5310
   39MOL0     C 5169   1.209  10.904  10.688 -0.2505  0.8108 -1.0184
   39MOL0     C 5170   1.142  10.884  10.823  0.0675  0.1082  0.2848
   39MOL0     C 5171   0.995  10.850  10.809  0.3784  0.4473 -0.1526
   39MOL0     C 5172   0.931  10.799  10.935  0.0105  0.2541 -0.4020
   39MOL0     C 5173   0.780  10.772  10.909 -0.6992  0.1443  0.2302
   39MOL0     C 5174   0.713  10.685  11.027  0.0464  0.0794  0.6614
   39MOL0    Cl 5175   0.540  10.653  10.984  0.2024 -0.5168  0.1324
   39MOL0     C 5176   1.792  10.870  10.634 -0.4318  0.9473 -0.8106
   39MOL0     C 5177   1.864  10.819  10.534  0.0145 -0.1547 -0.3070
   39MOL0     O 5178   1.754  10.501  10.275  0.1492 -0.0869 -0.2136
   39MOL0     C 5179   1.910  10.399  10.076  0.3787  0.8821  0.7042
   39MOL0     C 5180   1.992  10.349   9.972 -1.4455 -0.3360  0.2535
   39MOL0     N 5181   2.675  10.236   9.905  0.3211 -0.0483  0.4874
   39MOL0     N 5182   2.777  10.198   9.966 -0.2894 -0.2322 -0.4450
   39MOL0     C 5183   3.921  10.353  10.635  0.4383  0.3544  0.7278
   39MOL0     C 5184   4.033  10.316  10.708 -0.2975  0.0174  0.5208
   39MOL0     C 5185   4.361  10.104  10.919  0.3222 -0.6484  0.0389
   39MOL0     C 5186   4.362  10.175  11.037 -0.1057 -0.4346  0.2461
   39MOL0     C 5187   4.472  10.159  11.121  0.2470 -0.4197 -0.0594
   39MOL0     C 5188   4.586  10.086  11.087  0.0952  0.7516 -0.0031
   39MOL0     O 5189   4.664  10.063  11.196  0.4828  0.1978 -0.1052
   39MOL0     C 5190   4.759   9.956  11.181 -0.0289 -0.4152 -0.4110
   39MOL0     C 5191   4.704   9.819  11.195 -0.1208  0.2754  0.2596
   39MOL0     C 5192   4.624   9.790  11.321  0.3312 -0.4125 -0.8579
   39MOL0     C 5193   4.580   9.643  11.327 -0.1972  0.9894  0.1625
   39MOL0     C 5194   4.695   9.550  11.315  0.5691  0.4489  0.1569
   39MOL0     C 5195   4.777   9.461  11.307 -0.1567 -0.5762 -0.9693
   39MOL0     C 5196   4.582  10.029  10.958 -0.3948 -0.8211 -0.5650
   39MOL0     C 5197   4.471  10.042  10.872  0.1527  0.3489  1.0297
   39MOL0     H 5198   3.913  10.059  10.881 -2.6873 -1.4659 -0.5498
   39MOL0     H 5199   3.724  10.091  10.736  1.3631 -1.0493  0.0473
   39MOL0     H 5200   3.551  10.232  10.452 -3.3245 -1.8697  0.9560
   39MOL0     H 5201   3.558  10.199  10.626 -4.6146  0.5999  0.3329
   39MOL0     H 5202   3.505  10.431  10.670  3.3012 -2.0720  0.5459
   39MOL0     H 5203   3.550  10.480  10.509 -0.4209  1.2197  1.8486
   39MOL0     H 5204   3.287  10.342  10.585  1.3174 -0.5001 -0.1433
   39MOL0     H 5205   3.313  10.507  10.540 -3.0222 -0.9231  0.3490
   39MOL0     H 5206   3.422  10.394  10.308  0.1207  2.7314  0.1851
   39MOL0     H 5207   3.332  10.252  10.370  2.5855  0.0336  0.8750
   39MOL0     H 5208   3.127  10.407  10.387 -0.9223 -0.2970 -2.1917
   39MOL0     H 5209   3.209  10.526  10.295  0.1405 -0.1531  0.3334
   39MOL0     H 5210   3.244  10.373  10.109  0.2352  1.5883  0.7870
   39MOL0     H 5211   3.167  10.231  10.197  0.4435 -0.4671 -2.4300
   39MOL0     H 5212   2.960  10.338  10.216  2.2351 -0.0227  1.7140
   39MOL0     H 5213   3.004  10.470  10.112 -0.2858 -1.1398 -1.9159
   39MOL0     H 5214   3.023  10.167  10.050  0.6529 -0.1615  0.3831
   39MOL0     H 5215   3.084  10.288   9.947 -0.5680  0.8248  0.4435
   39MOL0     H 5216   2.870  10.501   9.882  0.0511  0.8440  1.3484
   39MOL0     H 5217   2.551  10.503   9.805 -1.9841 -1.7795 -0.6722
   39MOL0     H 5218   2.669  10.477   9.672  2.7298 -3.1909  0.1230
   39MOL0     H 5219   2.561  10.248   9.640  1.3239  1.0159  0.0013
   39MOL0     H 5220   2.477  10.387   9.578  1.8982 -0.4559 -1.4419
   39MOL0     H 5221   2.406  10.238   9.835 -0.6234  0.0115  0.1204
   39MOL0     H 5222   2.314  10.240   9.688 -0.6100 -0.4244  0.2352
   39MOL0     H 5223   2.314  10.501   9.728  0.7606 -0.0326 -0.0772
   39MOL0     H 5224   2.362  10.458   9.897 -1.1548 -0.0976  0.2124
   39MOL0     H 5225   2.223  10.595   9.968  1.0155  0.5613  0.1765
   39MOL0     H 5226   2.053  10.787  10.181 -1.2612 -1.2702  0.0034
   39MOL0     H 5227   2.132  10.683  10.296  3.3445 -0.7339 -0.2501
   39MOL0     H 5228   2.214  10.735  10.147 -0.5980  0.0294 -1.5347
   39MOL0     H 5229   1.617  10.680  10.355  0.0472  0.4325 -0.6402
   39MOL0     H 5230   1.487  10.766  10.533  0.1546 -0.8621 -1.1030
   39MOL0     H 5231   1.438  10.761  10.731  0.2145  0.4160 -0.8659
   39MOL0     H 5232   1.442  10.856  10.880  1.9729 -1.5114  1.1429
   39MOL0     H 5233   1.340  11.050  10.769  0.3568  0.5307 -1.1326
   39MOL0     H 5234   1.395  11.002  10.614  2.4715  0.8842  2.3204
   39MOL0     H 5235   1.216  10.810  10.634  2.8062 -0.6483  1.6011
   39MOL0     H 5236   1.151  10.981  10.637  0.6024  1.4327 -1.0698
   39MOL0     H 5237   1.187  10.798  10.874  0.6367  0.9138  1.1671
   39MOL0     H 5238   1.159  10.964  10.895  1.7737 -1.0593  1.2569
   39MOL0     H 5239   0.991  10.773  10.732  2.0516 -1.3375  1.4390
   39MOL0     H 5240   0.947  10.943  10.774  3.8582  2.6255  0.3645
   39MOL0     H 5241   0.981  10.708  10.970  0.0984  0.8320  1.0527
   39MOL0     H 5242   0.933  10.887  11.000 -0.0054  0.7842 -1.1094
   39MOL0     H 5243   0.783  10.704  10.824 -1.3406  0.5753 -0.1485
   39MOL0     H 5244   0.725  10.864  10.886  1.3896  1.7539  1.3614
   39MOL0     H 5245   0.715  10.733  11.125  0.2601 -0.5576  0.9741
   39MOL0     H 5246   0.762  10.588  11.034 -0.1210 -0.1114 -0.5992
   39MOL0     H 5247   1.844  10.939  10.700 -0.5290  1.9174 -1.7273
   39MOL0     H 5248   1.970  10.843  10.527 -0.0566  0.6766  1.1471
   39MOL0     H 5249   1.817  10.344  10.086  2.1288 -2.1761  1.5574
   39MOL0     H 5250   1.966  10.261   9.914 -0.3800  0.1785 -1.0535
   39MOL0     H 5251   3.924  10.441  10.571 -0.1867  1.4187  2.1324
   39MOL0     H 5252   4.107  10.394  10.715 -0.3540 -0.0825  3.0789
   39MOL0     H 5253   4.275  10.233  11.065  0.8050  1.2877 -0.3174
   39MOL0     H 5254   4.471  10.200  11.222 -2.1159  1.6951 -0.8298
   39MOL0     H 5255   4.819   9.955  11.090 -0.3121 -0.7576 -0.5928
   39MOL0     H 5256   4.830   9.968  11.263 -0.3450  0.6995 -0.2810
   39MOL0     H 5257   4.790   9.753  11.179 -0.3460 -0.1077  0.5983
   39MOL0     H 5258   4.640   9.798  11.109  1.2001  0.1739 -0.7284
   39MOL0     H 5259   4.533   9.850  11.329 -0.0495 -1.2344  3.2728
   39MOL0     H 5260   4.691   9.811  11.404 -1.0454  2.5968 -0.3794
   39MOL0     H 5261   4.503   9.612  11.256 -0.2898 -2.4813  1.5897
   39MOL0     H 5262   4.537   9.621  11.425 -1.4447  2.9605  0.1086
   39MOL0     H 5263   4.852   9.384  11.302 -0.1318 -0.6143 -0.2306
   39MOL0     H 5264   4.659   9.955  10.937  1.5803  1.1528 -0.5865
   39MOL0     H 5265   4.468   9.982  10.782 -1.4598  0.0761  1.2370
   40MOL0     O 5266   2.087   9.761   5.501  0.1018 -0.2603 -0.1446
   40MOL0     C 5267   2.179   9.717   5.435 -0.6677  0.2339  0.2385
   40MOL0     O 5268   2.165   9.620   5.345  0.7214  0.4147 -0.5779
   40MOL0     C 5269   2.048   9.543   5.338 -0.5915  0.3450  0.6498
   40MOL0     C 5270   1.969   9.501   5.440 -0.2387 -0.0685  0.6147
   40MOL0     C 5271   1.845   9.439   5.420  0.8161  0.7391  0.5389
   40MOL0     C 5272   1.816   9.393   5.293  0.0564  0.5350 -0.1439
   40MOL0     O 5273   1.702   9.323   5.274 -0.6089  0.8307 -0.2568
   40MOL0     C 5274   1.645   9.303   5.148  0.5214  0.2337  0.6918
   40MOL0     C 5275   1.530   9.206   5.151  0.2329  0.3431  0.7319
   40MOL0     C 5276   1.415   9.254   5.238  0.1403 -0.9773 -0.5872
   40MOL0     C 5277   1.306   9.144   5.243  0.0046  1.4552 -0.6276
   40MOL0     C 5278   1.180   9.194   5.326  0.4739  0.3862  0.1414
   40MOL0     C 5279   1.054   9.104   5.322 -0.0271  0.6468  0.9272
   40MOL0     C 5280   0.931   9.157   5.389  0.0249 -0.0315 -0.4861
   40MOL0     C 5281   0.824   9.049   5.371  0.2826  0.1043 -0.4173
   40MOL0     N 5282   0.698   9.067   5.448  0.5150 -0.8176 -0.6739
   40MOL0     C 5283   0.657   9.169   5.533 -0.2811 -0.7084  0.5586
   40MOL0     C 5284   0.525   9.140   5.564  0.0407 -0.5931  0.0088
   40MOL0     C 5285   0.448   9.229   5.656 -0.2749 -0.4936  0.0296
   40MOL0     C 5286   0.429   9.172   5.800  0.2393  1.2115 -0.6013
   40MOL0     C 5287   0.333   9.051   5.788  0.1181 -0.4328 -0.3683
   40MOL0     C 5288   0.315   8.975   5.917  1.0553  0.1164  0.5259
   40MOL0     O 5289   0.211   8.879   5.908 -0.2630  0.0643 -0.2385
   40MOL0     C 5290   0.082   8.932   5.903 -0.5847  0.3511  0.1485
   40MOL0     C 5291   0.037   9.066   5.914  0.4303 -0.2457 -0.1431
   40MOL0     C 5292  -0.098   9.098   5.906  0.1042  1.2692  0.0576
   40MOL0     C 5293  -0.131   9.248   5.897 -0.0663  0.5217  0.1394
   40MOL0     C 5294  -0.195   8.991   5.900 -0.2422 -0.5536  1.1214
   40MOL0     C 5295  -0.339   9.015   5.877  0.6087  0.1146 -0.0609
   40MOL0     O 5296  -0.419   8.905   5.880  0.1564 -0.0551 -0.1215
   40MOL0     C 5297  -0.538   8.911   5.820  0.4797  0.1611  0.4262
   40MOL0     C 5298  -0.662   8.888   5.889 -0.7288  0.1588  0.5153
   40MOL0     C 5299  -0.790   8.884   5.830 -0.4194  0.0652  1.5128
   40MOL0     C 5300  -0.801   8.901   5.694 -0.5503 -0.3957  0.3474
   40MOL0     O 5301  -0.924   8.897   5.643  0.2245 -0.0654  0.7451
   40MOL0     C 5302  -0.935   8.877   5.499  0.0555 -0.1923  0.1333
   40MOL0     C 5303  -0.946   9.001   5.417 -0.1400 -0.9199  0.1584
   40MOL0     C 5304  -1.090   9.037   5.405  0.4390 -0.2648 -0.2756
   40MOL0     C 5305  -1.113   9.151   5.310  0.3370  0.3041  0.1729
   40MOL0     C 5306  -1.265   9.181   5.292  0.3336 -0.1108 -0.2577
   40MOL0     C 5307  -1.312   9.313   5.222 -0.3640 -0.3467 -0.5444
   40MOL0     C 5308  -1.447   9.298   5.150  0.1490 -0.9674 -0.5716
   40MOL0     C 5309  -1.464   9.424   5.068  0.8441  1.4621 -0.1144
   40MOL0    Cl 5310  -1.615   9.411   4.971 -0.4957 -0.0580 -0.2993
   40MOL0     C 5311  -0.680   8.926   5.624 -0.1047 -0.5056 -0.7647
   40MOL0     C 5312  -0.553   8.926   5.680 -0.0428  0.2827 -0.9590
   40MOL0     O 5313  -0.368   9.124   5.830 -0.1369 -0.1860  0.0803
   40MOL0     C 5314  -0.152   8.857   5.912  0.0437 -0.4557 -0.3422
   40MOL0     C 5315  -0.017   8.833   5.914  0.0229 -0.4406  0.0584
   40MOL0     N 5316   0.489   9.034   5.488 -0.7490  0.0748  0.5677
   40MOL0     N 5317   0.590   8.991   5.420  0.3830  0.8523 -0.4665
   40MOL0     C 5318   1.909   9.410   5.193  0.0445 -0.0697  0.8648
   40MOL0     C 5319   2.020   9.493   5.210 -0.0665  0.1504  0.4490
   40MOL0     C 5320   2.312   9.761   5.472 -0.0823 -0.0608  0.6691
   40MOL0     C 5321   2.420   9.680   5.442 -0.2187 -0.1444  0.1606
   40MOL0     C 5322   2.551   9.719   5.474  0.2557 -0.0192 -0.2373
   40MOL0     C 5323   2.567   9.837   5.552  0.0830  0.2335 -0.4261
   40MOL0     O 5324   2.699   9.866   5.577 -0.9921  0.5502  0.5701
   40MOL0     C 5325   2.737   9.983   5.660 -0.5017 -0.0936 -0.3907
   40MOL0     C 5326   2.893   9.983   5.654 -0.5517  0.2885 -0.1783
   40MOL0     C 5327   2.962   9.999   5.519  0.2311  0.3616  1.2371
   40MOL0     C 5328   2.957  10.146   5.462  0.0390  0.6141 -0.3918
   40MOL0     C 5329   2.831  10.185   5.395  0.6821  0.8577 -0.2459
   40MOL0     C 5330   2.724  10.226   5.344 -0.1055  0.2861  0.1217
   40MOL0     C 5331   2.461   9.912   5.592 -0.6636 -0.0367 -0.2878
   40MOL0     C 5332   2.335   9.877   5.549 -0.2581 -0.3227  0.7755
   40MOL0     H 5333   1.994   9.539   5.538 -1.6497  0.3997  0.8183
   40MOL0     H 5334   1.774   9.433   5.502 -0.6808  2.1210 -0.5878
   40MOL0     H 5335   1.617   9.403   5.115  2.0830 -0.2776 -2.5150
   40MOL0     H 5336   1.713   9.263   5.072 -2.7806  0.9755 -2.9540
   40MOL0     H 5337   1.490   9.187   5.051  1.9939 -0.1602  0.0982
   40MOL0     H 5338   1.554   9.107   5.191  4.4270  0.9600  0.1978
   40MOL0     H 5339   1.461   9.277   5.334 -0.4976  0.7346 -0.6513
   40MOL0     H 5340   1.370   9.348   5.204 -1.5948 -1.4693  0.2270
   40MOL0     H 5341   1.286   9.112   5.141  0.7317 -0.6927 -0.1495
   40MOL0     H 5342   1.351   9.061   5.299  1.0621  2.1805 -0.3749
   40MOL0     H 5343   1.196   9.219   5.431  1.7727  0.9926 -0.1850
   40MOL0     H 5344   1.152   9.288   5.276 -0.0322 -0.8326 -2.0141
   40MOL0     H 5345   1.027   9.089   5.217  0.4213  0.7938  0.7878
   40MOL0     H 5346   1.077   9.004   5.357 -3.9505 -1.8322 -2.6162
   40MOL0     H 5347   0.950   9.183   5.493 -0.2549 -2.9604  0.3717
   40MOL0     H 5348   0.895   9.249   5.342  0.6027 -0.1312 -1.1350
   40MOL0     H 5349   0.861   8.952   5.406 -0.3032 -0.4685 -1.3267
   40MOL0     H 5350   0.795   9.035   5.266  0.8976  0.4296 -0.6334
   40MOL0     H 5351   0.715   9.259   5.550 -1.5896  0.8632 -2.4422
   40MOL0     H 5352   0.488   9.331   5.654 -1.4206 -0.0211  0.0501
   40MOL0     H 5353   0.347   9.239   5.615 -0.6597  0.7164  1.1994
   40MOL0     H 5354   0.383   9.249   5.863  1.2805  1.0366  0.4309
   40MOL0     H 5355   0.524   9.158   5.854  0.1320  1.3297 -0.3780
   40MOL0     H 5356   0.374   8.985   5.712  3.0197  0.3220  0.4092
   40MOL0     H 5357   0.241   9.092   5.746  1.9292  1.5935 -2.6977
   40MOL0     H 5358   0.285   9.042   5.997 -0.5250 -0.3688  0.3791
   40MOL0     H 5359   0.402   8.914   5.946 -0.8926 -3.2802 -0.1385
   40MOL0     H 5360   0.116   9.141   5.913  0.7169 -0.5198 -2.0531
   40MOL0     H 5361  -0.180   9.265   5.801 -0.4087  0.2839  0.2682
   40MOL0     H 5362  -0.201   9.285   5.973 -1.4779  1.3199 -1.4805
   40MOL0     H 5363  -0.039   9.307   5.896  0.2146  0.2182 -3.5281
   40MOL0     H 5364  -0.651   8.879   5.997 -3.8707 -1.2847  0.8289
   40MOL0     H 5365  -0.881   8.863   5.885  0.0232  0.0933  2.2604
   40MOL0     H 5366  -0.853   8.817   5.456  0.0615 -2.1172  2.6430
   40MOL0     H 5367  -1.024   8.815   5.489 -0.8723  1.0007  0.7744
   40MOL0     H 5368  -0.881   9.082   5.451  0.1303 -0.0961 -2.1350
   40MOL0     H 5369  -0.906   8.966   5.321 -0.5047  1.2060 -0.8282
   40MOL0     H 5370  -1.128   9.066   5.504  1.4710  1.0799 -0.2439
   40MOL0     H 5371  -1.144   8.952   5.362 -1.0472  0.5433 -0.1103
   40MOL0     H 5372  -1.058   9.242   5.335 -0.5954  1.4641 -1.7130
   40MOL0     H 5373  -1.075   9.124   5.211 -0.1085  1.0523 -0.2114
   40MOL0     H 5374  -1.312   9.162   5.389  0.6414 -1.3569 -0.3275
   40MOL0     H 5375  -1.303   9.104   5.224 -1.0139 -0.1007  0.4378
   40MOL0     H 5376  -1.296   9.407   5.276  3.2219 -0.6939 -0.7945
   40MOL0     H 5377  -1.240   9.322   5.140  0.8656  1.4167  0.6651
   40MOL0     H 5378  -1.525   9.296   5.227 -0.7099  1.0244 -1.3185
   40MOL0     H 5379  -1.455   9.204   5.095 -2.4390 -3.4903  3.6011
   40MOL0     H 5380  -1.375   9.427   5.004  0.4105 -0.3186 -0.8491
   40MOL0     H 5381  -1.469   9.515   5.129 -0.8428  1.1945  0.2060
   40MOL0     H 5382  -0.682   8.953   5.518 -0.0956  0.0055 -0.6383
   40MOL0     H 5383  -0.469   8.936   5.611  1.9337 -2.9430  0.7379
   40MOL0     H 5384  -0.216   8.769   5.913  0.7209 -0.9636  0.9502
   40MOL0     H 5385   0.017   8.731   5.929 -2.2851 -1.1742  0.7059
   40MOL0     H 5386   1.905   9.350   5.103 -0.9940 -0.1554  0.9524
   40MOL0     H 5387   2.090   9.513   5.130 -0.8854 -1.5272 -0.7541
   40MOL0     H 5388   2.405   9.585   5.390 -2.9675  0.5463 -0.4830
   40MOL0     H 5389   2.623   9.644   5.443 -1.5113 -2.2313  0.6271
   40MOL0     H 5390   2.705  10.077   5.614 -0.0504  0.4117  0.3069
   40MOL0     H 5391   2.697   9.973   5.761 -0.0848 -0.3322 -0.2490
   40MOL0     H 5392   2.917   9.883   5.692 -3.6289 -0.7634 -0.6706
   40MOL0     H 5393   2.942  10.060   5.714  1.0089  4.0826 -5.5519
   40MOL0     H 5394   2.907   9.931   5.452 -0.6043 -0.6677  2.8715
   40MOL0     H 5395   3.067   9.975   5.532 -0.0641 -0.9690  1.3339
   40MOL0     H 5396   3.039  10.150   5.390 -0.3454 -1.7750 -1.0675
   40MOL0     H 5397   2.978  10.208   5.550  0.2800 -1.4636  1.1172
   40MOL0     H 5398   2.627  10.243   5.303  0.6562 -1.1070 -2.4466
   40MOL0     H 5399   2.481  10.010   5.635  1.2623  0.3744 -2.0019
   40MOL0     H 5400   2.245   9.933   5.574 -0.5352  0.0723 -0.9567
   41MOL0     O 5401   3.102   6.217   9.169 -0.2460 -0.0309 -0.4854
   41MOL0     C 5402   3.168   6.324   9.187 -0.5876  0.8417  0.1286
   41MOL0     O 5403   3.125   6.435   9.258  0.2562  0.4984 -0.0664
   41MOL0     C 5404   2.989   6.436   9.287 -0.3690 -0.6520 -0.8325
   41MOL0     C 5405   2.957   6.396   9.417  0.2940 -0.9150  0.0107
   41MOL0     C 5406   2.829   6.399   9.461  0.6841  0.2622  0.3559
   41MOL0     C 5407   2.723   6.452   9.377 -0.0125 -0.2802 -0.1594
   41MOL0     O 5408   2.590   6.474   9.417 -0.0160 -0.1819 -0.6617
   41MOL0     C 5409   2.550   6.422   9.545 -0.2859 -0.0770  0.0623
   41MOL0     C 5410   2.404   6.392   9.559  0.5362 -0.8412 -0.6037
   41MOL0     C 5411   2.318   6.512   9.520 -0.5359  0.2453 -0.9087
   41MOL0     C 5412   2.182   6.509   9.574  0.3117  0.1663  0.1594
   41MOL0     C 5413   2.089   6.615   9.508 -0.5259  0.3608 -0.7651
   41MOL0     C 5414   1.978   6.651   9.601  0.5062 -0.8343 -0.0812
   41MOL0     C 5415   1.914   6.789   9.580  0.2801 -0.4908 -0.7856
   41MOL0     C 5416   1.784   6.802   9.663 -0.3274  0.0958 -0.1149
   41MOL0     N 5417   1.670   6.827   9.577  0.1208  0.4607  0.3365
   41MOL0     C 5418   1.631   6.941   9.524 -0.2121 -0.7289 -0.4064
   41MOL0     C 5419   1.548   6.917   9.417  0.6215 -0.1926 -0.7973
   41MOL0     C 5420   1.475   7.017   9.325 -0.5980  0.3781  0.6190
   41MOL0     C 5421   1.329   6.991   9.294 -0.1852 -0.3870  0.6495
   41MOL0     C 5422   1.248   6.968   9.424 -0.2101  0.9761 -1.1931
   41MOL0     C 5423   1.095   6.979   9.417 -0.7598 -0.3093 -0.5574
   41MOL0     O 5424   1.066   7.104   9.340  0.3038  0.0325 -0.1923
   41MOL0     C 5425   0.939   7.123   9.303  0.0204  0.2404  0.1009
   41MOL0     C 5426   0.910   7.255   9.261 -0.2431  0.5992 -0.5112
   41MOL0     C 5427   0.787   7.298   9.215 -0.5414  0.2720 -0.6398
   41MOL0     C 5428   0.779   7.433   9.166  0.2233 -0.4401  0.9007
   41MOL0     C 5429   0.683   7.201   9.211  0.1817  0.1792  0.3570
   41MOL0     C 5430   0.554   7.224   9.144 -0.4166  0.3562 -0.0729
   41MOL0     O 5431   0.490   7.115   9.084 -0.4905 -0.6069  0.5247
   41MOL0     C 5432   0.362   7.124   9.033 -0.4309  0.3502 -0.4089
   41MOL0     C 5433   0.254   7.193   9.085 -0.1662  0.1998 -0.0813
   41MOL0     C 5434   0.127   7.181   9.020 -0.2784 -0.4411 -0.1245
   41MOL0     C 5435   0.097   7.088   8.915 -0.4848  0.5098 -0.6735
   41MOL0     O 5436  -0.035   7.062   8.891 -0.8315  0.8173 -0.3215
   41MOL0     C 5437  -0.066   6.960   8.797  0.7532  0.0115 -0.4350
   41MOL0     C 5438  -0.220   6.964   8.770  0.8348  0.1735 -0.1238
   41MOL0     C 5439  -0.257   6.840   8.680 -0.4847 -0.4981 -0.1543
   41MOL0     C 5440  -0.408   6.830   8.660  0.1889  0.4148 -0.1114
   41MOL0     C 5441  -0.493   6.815   8.786 -0.4408  0.1130 -0.4368
   41MOL0     C 5442  -0.636   6.793   8.756 -0.1028  0.6207 -0.0142
   41MOL0     C 5443  -0.708   6.733   8.880  0.6145 -0.2701 -0.1873
   41MOL0     C 5444  -0.853   6.692   8.844  0.5060  1.2492 -0.2080
   41MOL0    Cl 5445  -0.945   6.840   8.801 -0.2068  0.2532  0.2771
   41MOL0     C 5446   0.210   7.028   8.866 -0.0237  0.4411  0.7075
   41MOL0     C 5447   0.337   7.040   8.924 -0.4426  0.3855  0.5665
   41MOL0     O 5448   0.510   7.340   9.166  0.2237  0.2254 -0.4061
   41MOL0     C 5449   0.707   7.066   9.255 -0.2349 -0.0502  0.0478
   41MOL0     C 5450   0.829   7.035   9.309 -0.3358 -0.1462 -0.2628
   41MOL0     N 5451   1.539   6.780   9.410  0.7199 -0.6972 -0.1471
   41MOL0     N 5452   1.628   6.729   9.489 -0.1833  0.2443  0.2045
   41MOL0     C 5453   2.758   6.484   9.249  0.4417 -0.1842  0.1521
   41MOL0     C 5454   2.891   6.476   9.199  0.4410  0.3220  0.0777
   41MOL0     C 5455   3.302   6.341   9.128 -1.1652  0.0827  0.4484
   41MOL0     C 5456   3.368   6.460   9.121  0.4778 -0.1231 -0.7796
   41MOL0     C 5457   3.484   6.469   9.053  0.8501 -0.9611  0.0144
   41MOL0     C 5458   3.550   6.363   8.984  0.5095 -0.1561  0.0968
   41MOL0     O 5459   3.674   6.358   8.926 -0.4753 -0.7727 -0.3153
   41MOL0     C 5460   3.782   6.372   9.009  0.4114  0.3403 -0.4843
   41MOL0     C 5461   3.908   6.376   8.923  0.7793 -0.3784 -0.2143
   41MOL0     C 5462   3.958   6.251   8.847  0.2077 -0.8579 -0.4288
   41MOL0     C 5463   4.090   6.286   8.781 -0.4812  0.2450 -0.1605
   41MOL0     C 5464   4.201   6.269   8.881 -0.2567  0.4255 -1.0318
   41MOL0     C 5465   4.288   6.248   8.959 -0.1062 -0.7682  0.4096
   41MOL0     C 5466   3.487   6.236   8.996 -0.1027 -0.5255  0.7428
   41MOL0     C 5467   3.368   6.226   9.076 -0.2297 -0.0538 -0.2242
   41MOL0     H 5468   3.051   6.382   9.469  1.4966 -1.3810 -2.1987
   41MOL0     H 5469   2.807   6.383   9.566 -0.7020 -1.0895 -0.0952
   41MOL0     H 5470   2.595   6.323   9.556 -2.5078 -0.9778  1.8007
   41MOL0     H 5471   2.574   6.490   9.628 -0.3293  1.1148 -0.8683
   41MOL0     H 5472   2.377   6.315   9.485  0.7279  2.7932 -4.8743
   41MOL0     H 5473   2.375   6.359   9.660  0.5156 -1.9636 -0.9556
   41MOL0     H 5474   2.361   6.602   9.565 -1.6599  0.0502  0.6369
   41MOL0     H 5475   2.307   6.531   9.412 -2.9973 -0.2824 -0.8274
   41MOL0     H 5476   2.132   6.414   9.553 -0.8334  0.4430  1.4135
   41MOL0     H 5477   2.174   6.521   9.683 -1.1862 -1.8444  0.3276
   41MOL0     H 5478   2.143   6.710   9.506  1.6819 -0.8431 -1.2368
   41MOL0     H 5479   2.058   6.590   9.406  0.1941 -1.0611 -0.6594
   41MOL0     H 5480   1.906   6.568   9.603  0.4614 -0.8453 -1.1731
   41MOL0     H 5481   2.020   6.660   9.701 -0.8059  1.2069  0.3346
   41MOL0     H 5482   1.984   6.862   9.621 -1.0868  0.1665  0.4598
   41MOL0     H 5483   1.894   6.812   9.475  1.8907  3.3625 -0.3994
   41MOL0     H 5484   1.789   6.875   9.744  1.2721  0.7695 -0.7856
   41MOL0     H 5485   1.775   6.704   9.710 -2.0741 -0.3890 -1.3544
   41MOL0     H 5486   1.664   7.041   9.549 -2.1617 -0.7212  2.6555
   41MOL0     H 5487   1.476   7.118   9.366 -1.4202  0.6040  0.1054
   41MOL0     H 5488   1.521   7.021   9.226 -1.2598  0.1483  0.2980
   41MOL0     H 5489   1.327   6.909   9.221  2.0837  1.0340 -1.1177
   41MOL0     H 5490   1.293   7.073   9.232  1.8402 -0.6234 -0.9465
   41MOL0     H 5491   1.284   7.023   9.512 -0.0128 -2.7068  1.2479
   41MOL0     H 5492   1.269   6.864   9.452  1.9652  0.9301 -2.7454
   41MOL0     H 5493   1.058   6.979   9.520 -0.9648 -3.1129 -0.5412
   41MOL0     H 5494   1.060   6.890   9.364 -1.1992 -0.0794 -0.6582
   41MOL0     H 5495   0.993   7.325   9.270  1.1953 -0.9608 -1.0750
   41MOL0     H 5496   0.848   7.503   9.214 -0.9909  2.3336 -1.1396
   41MOL0     H 5497   0.812   7.415   9.063 -1.6193 -3.6500  0.7243
   41MOL0     H 5498   0.683   7.484   9.155 -2.1194 -4.1289  2.1166
   41MOL0     H 5499   0.262   7.267   9.165 -0.8458  0.4625 -0.2444
   41MOL0     H 5500   0.049   7.240   9.066 -2.2076 -3.0265  0.1438
   41MOL0     H 5501  -0.011   6.973   8.703  2.0939  1.8454  0.5470
   41MOL0     H 5502  -0.037   6.864   8.841  0.0657 -1.7238 -3.4766
   41MOL0     H 5503  -0.279   6.954   8.861 -0.3531 -1.4103 -1.0153
   41MOL0     H 5504  -0.242   7.059   8.719 -2.3734 -0.1951  0.3781
   41MOL0     H 5505  -0.210   6.755   8.730 -0.1184  1.4835  3.1157
   41MOL0     H 5506  -0.216   6.846   8.579  1.1984 -1.4370  0.4416
   41MOL0     H 5507  -0.452   6.911   8.601  0.3382 -0.1027 -0.9628
   41MOL0     H 5508  -0.417   6.740   8.598  0.5586 -1.2105  2.0748
   41MOL0     H 5509  -0.491   6.905   8.848 -0.2877 -0.1521 -0.0472
   41MOL0     H 5510  -0.450   6.735   8.848  0.9377  1.6742  0.6916
   41MOL0     H 5511  -0.680   6.889   8.727 -3.4638 -1.3410 -2.0485
   41MOL0     H 5512  -0.639   6.726   8.669 -1.2324  2.0999 -1.1649
   41MOL0     H 5513  -0.723   6.804   8.962 -5.3536 -2.4349  1.0828
   41MOL0     H 5514  -0.656   6.647   8.924 -0.6070 -0.6601  0.5512
   41MOL0     H 5515  -0.897   6.651   8.935 -0.6911  0.4583 -1.1132
   41MOL0     H 5516  -0.863   6.618   8.764  1.5595  0.7871  0.0628
   41MOL0     H 5517   0.191   6.950   8.792  0.8301  0.1748  0.7576
   41MOL0     H 5518   0.413   6.975   8.882 -1.2379 -1.1133  1.3335
   41MOL0     H 5519   0.627   6.994   9.270 -0.3047  0.2531  1.3076
   41MOL0     H 5520   0.842   6.940   9.359  0.0960 -0.3265 -0.7161
   41MOL0     H 5521   2.676   6.515   9.185 -0.8304  0.9289  2.2283
   41MOL0     H 5522   2.902   6.509   9.096 -2.1317  0.4838 -0.2162
   41MOL0     H 5523   3.319   6.544   9.171 -1.5216 -1.3518 -0.5651
   41MOL0     H 5524   3.540   6.561   9.057  1.4438 -1.3562  0.8696
   41MOL0     H 5525   3.767   6.461   9.071 -0.4812  0.2992 -0.6286
   41MOL0     H 5526   3.792   6.291   9.083 -0.1786  0.5923 -0.1175
   41MOL0     H 5527   3.995   6.400   8.986  0.7428 -0.8558  0.0202
   41MOL0     H 5528   3.900   6.449   8.842  2.9457  0.3012  0.1149
   41MOL0     H 5529   3.886   6.223   8.770  0.1560 -1.6139 -0.1114
   41MOL0     H 5530   3.964   6.166   8.915 -0.1768 -1.9666 -1.7359
   41MOL0     H 5531   4.091   6.387   8.740 -0.3468  0.3610  0.1343
   41MOL0     H 5532   4.100   6.218   8.695 -0.4499  0.3523 -0.2422
   41MOL0     H 5533   4.361   6.239   9.036 -1.6666 -1.3738  1.8785
   41MOL0     H 5534   3.521   6.140   8.960  0.1675  0.2322 -1.1272
   41MOL0     H 5535   3.325   6.127   9.092  1.0309 -0.0878  4.5327
   42MOL0     O 5536   5.646   4.748   4.421  0.3162  0.4128  0.4827
   42MOL0     C 5537   5.744   4.682   4.455 -1.1394  0.4478 -0.0303
   42MOL0     O 5538   5.752   4.543   4.482  0.2481 -0.0141  0.8196
   42MOL0     C 5539   5.636   4.479   4.520  0.3372  0.1000 -0.0218
   42MOL0     C 5540   5.550   4.433   4.418 -0.9044  0.2509  0.2420
   42MOL0     C 5541   5.437   4.358   4.452 -0.0366  0.4932 -0.4550
   42MOL0     C 5542   5.404   4.329   4.582  0.0477  0.8021 -0.1039
   42MOL0     O 5543   5.286   4.271   4.621  0.2474 -1.0734 -0.3920
   42MOL0     C 5544   5.256   4.158   4.543  0.5595  0.2991  0.2442
   42MOL0     C 5545   5.165   4.066   4.620 -0.2721 -0.1018 -0.2431
   42MOL0     C 5546   5.235   3.971   4.713 -0.3833 -0.1017  0.6009
   42MOL0     C 5547   5.133   3.883   4.779 -0.3658  0.4657 -0.0360
   42MOL0     C 5548   5.195   3.790   4.887 -0.2250 -0.1218  0.7013
   42MOL0     C 5549   5.098   3.771   5.006  0.2483  0.2422  0.1686
   42MOL0     C 5550   5.160   3.669   5.104  0.3610  0.5538 -0.2233
   42MOL0     C 5551   5.081   3.660   5.233 -0.1999  0.2523  0.0091
   42MOL0     N 5552   5.136   3.553   5.307  0.4416  0.1531 -1.0927
   42MOL0     C 5553   5.155   3.421   5.271 -0.1395 -0.2319 -0.6654
   42MOL0     C 5554   5.200   3.362   5.387  0.0187 -0.6722  0.9534
   42MOL0     C 5555   5.222   3.218   5.395 -0.0392  0.2050 -0.2679
   42MOL0     C 5556   5.127   3.122   5.307 -0.5413 -0.1241 -0.1232
   42MOL0     C 5557   5.131   2.976   5.362 -0.0964  1.1167  0.5584
   42MOL0     C 5558   5.081   2.953   5.506  0.4478  0.2876 -0.8642
   42MOL0     O 5559   5.053   2.818   5.534 -0.2582 -0.1095  0.2127
   42MOL0     C 5560   4.957   2.755   5.466  0.0968 -0.1880  0.1448
   42MOL0     C 5561   4.985   2.625   5.429  0.5326  0.4051  0.1602
   42MOL0     C 5562   4.899   2.551   5.347 -0.8699 -0.0386  0.3370
   42MOL0     C 5563   4.955   2.427   5.301  0.1752  0.5206 -0.8778
   42MOL0     C 5564   4.773   2.604   5.307  0.0409 -0.4435 -0.9993
   42MOL0     C 5565   4.677   2.515   5.228 -0.3289 -0.3015 -0.0359
   42MOL0     O 5566   4.568   2.588   5.180 -0.5248 -0.2406 -0.4237
   42MOL0     C 5567   4.465   2.530   5.123  0.4422  0.3459 -0.4038
   42MOL0     C 5568   4.399   2.606   5.025  0.2902 -0.0056 -0.0525
   42MOL0     C 5569   4.274   2.565   4.971 -0.1005 -0.3016  0.0607
   42MOL0     C 5570   4.221   2.438   5.001  0.2278 -0.5149 -0.0690
   42MOL0     O 5571   4.104   2.410   4.932 -0.3500  0.1060 -0.7624
   42MOL0     C 5572   4.011   2.337   5.014 -0.0892 -0.1666 -0.3806
   42MOL0     C 5573   3.872   2.381   4.981  0.0171 -0.2422  0.6723
   42MOL0     C 5574   3.824   2.381   4.836  0.0405  0.2695  0.4980
   42MOL0     C 5575   3.667   2.403   4.837  0.8495  0.2737  0.2776
   42MOL0     C 5576   3.604   2.395   4.695 -0.0386  0.2574  0.0203
   42MOL0     C 5577   3.581   2.527   4.631  0.2990  0.4637  0.9559
   42MOL0     C 5578   3.489   2.619   4.710 -0.2507  0.2579  0.5821
   42MOL0     C 5579   3.352   2.647   4.640  0.0563  0.0942 -0.0785
   42MOL0    Cl 5580   3.245   2.515   4.584 -0.6611 -0.0649  0.6464
   42MOL0     C 5581   4.295   2.351   5.088  0.0342  0.9196  0.5373
   42MOL0     C 5582   4.414   2.398   5.146 -0.1825  0.8894 -0.2152
   42MOL0     O 5583   4.692   2.393   5.223  0.3898  0.3660 -0.1743
   42MOL0     C 5584   4.737   2.740   5.344 -0.6149  0.1882 -0.4415
   42MOL0     C 5585   4.833   2.812   5.422 -0.9515 -0.3522  0.1484
   42MOL0     N 5586   5.207   3.455   5.483 -0.1285 -0.3680 -0.0105
   42MOL0     N 5587   5.173   3.570   5.431 -0.1978 -0.0223  0.1677
   42MOL0     C 5588   5.486   4.385   4.675 -0.1958  0.1576  0.2240
   42MOL0     C 5589   5.601   4.465   4.646 -1.1129 -0.0287 -0.1254
   42MOL0     C 5590   5.875   4.753   4.458  0.2123  0.2023 -0.2038
   42MOL0     C 5591   5.975   4.715   4.544 -0.0535 -0.2704 -0.9847
   42MOL0     C 5592   6.106   4.771   4.529 -0.3628  0.0971 -0.1067
   42MOL0     C 5593   6.130   4.881   4.443 -0.3389 -0.1467  0.2350
   42MOL0     O 5594   6.244   4.940   4.422 -0.3045 -0.3251 -0.2423
   42MOL0     C 5595   6.332   4.941   4.535 -0.0777 -0.4804  0.1493
   42MOL0     C 5596   6.446   5.042   4.494 -0.3710 -0.3020 -0.6121
   42MOL0     C 5597   6.571   5.021   4.582  0.4591 -0.2033  0.3346
   42MOL0     C 5598   6.678   5.120   4.547  0.1904  0.8348  0.0993
   42MOL0     C 5599   6.749   5.102   4.422 -0.4522 -0.5360 -0.3367
   42MOL0     C 5600   6.819   5.099   4.324  0.1942  0.2615  0.5783
   42MOL0     C 5601   6.017   4.930   4.374 -0.3255 -0.1083 -0.2052
   42MOL0     C 5602   5.891   4.872   4.385  0.4768  0.0118 -0.3184
   42MOL0     H 5603   5.578   4.459   4.316  2.9099  0.5006  1.2122
   42MOL0     H 5604   5.380   4.320   4.368  0.8089 -0.9448 -0.4254
   42MOL0     H 5605   5.212   4.180   4.445  0.3826 -0.8401  0.0527
   42MOL0     H 5606   5.341   4.093   4.524 -0.7930 -1.2415 -0.8592
   42MOL0     H 5607   5.102   4.138   4.672  1.2357  1.0445  0.0571
   42MOL0     H 5608   5.104   4.005   4.552 -1.3434  0.9765 -0.2665
   42MOL0     H 5609   5.301   3.908   4.653 -1.0355 -0.6495  0.4430
   42MOL0     H 5610   5.302   4.012   4.789  0.7917 -1.0740  0.1230
   42MOL0     H 5611   5.058   3.951   4.821 -2.1246 -1.7532  0.5878
   42MOL0     H 5612   5.074   3.826   4.706 -1.0054  1.1287 -0.0552
   42MOL0     H 5613   5.211   3.696   4.832  3.0584  1.8391 -2.1212
   42MOL0     H 5614   5.292   3.822   4.927 -0.0470 -1.5540  1.4979
   42MOL0     H 5615   5.088   3.869   5.054  1.7011  0.3172  0.3614
   42MOL0     H 5616   5.000   3.736   4.972 -0.3477 -1.7875  3.5074
   42MOL0     H 5617   5.149   3.567   5.065 -1.7245 -0.2758  2.1964
   42MOL0     H 5618   5.264   3.694   5.130  0.7089  0.9017 -1.8352
   42MOL0     H 5619   4.978   3.636   5.207  0.4981 -0.8827 -2.0402
   42MOL0     H 5620   5.078   3.760   5.275 -0.6601  0.1449  0.2324
   42MOL0     H 5621   5.135   3.375   5.174 -2.1285  0.0345 -0.4314
   42MOL0     H 5622   5.325   3.209   5.359  0.3988 -1.5937  1.2716
   42MOL0     H 5623   5.216   3.198   5.502  1.2019  3.1057  0.4223
   42MOL0     H 5624   5.169   3.122   5.206  2.9766  1.4329  1.1609
   42MOL0     H 5625   5.025   3.161   5.298 -0.6481 -0.5540 -0.8465
   42MOL0     H 5626   5.236   2.944   5.359 -0.3519  0.1760  1.1617
   42MOL0     H 5627   5.093   2.907   5.286  5.1935 -1.7384  0.0351
   42MOL0     H 5628   4.994   3.016   5.528  0.0863 -0.4735 -0.0419
   42MOL0     H 5629   5.158   2.987   5.576  2.5901  1.4033 -3.5830
   42MOL0     H 5630   5.074   2.586   5.477  0.1442  0.7556  1.2156
   42MOL0     H 5631   4.924   2.408   5.198 -1.8649 -1.3885  0.0131
   42MOL0     H 5632   5.063   2.429   5.319  0.3737  0.5387 -1.9990
   42MOL0     H 5633   4.910   2.345   5.358  0.4461 -1.7563 -3.7582
   42MOL0     H 5634   4.421   2.710   5.004  1.9044 -0.3486 -0.2309
   42MOL0     H 5635   4.233   2.634   4.899 -1.3716  1.3999  2.2993
   42MOL0     H 5636   4.015   2.235   4.977  2.7058  0.6132 -2.5602
   42MOL0     H 5637   4.030   2.341   5.122 -0.0790  2.1703 -0.4152
   42MOL0     H 5638   3.810   2.314   5.041  0.9777 -2.2977 -0.5231
   42MOL0     H 5639   3.852   2.485   5.009 -2.8928  0.0256 -1.9442
   42MOL0     H 5640   3.840   2.287   4.781 -0.8739  0.0833  0.5265
   42MOL0     H 5641   3.867   2.468   4.784  0.7709 -1.3190 -1.7284
   42MOL0     H 5642   3.621   2.324   4.898 -1.2120  0.1163 -1.3973
   42MOL0     H 5643   3.655   2.502   4.880  1.9445  0.2950  0.5631
   42MOL0     H 5644   3.505   2.349   4.702 -0.2543  0.5937 -0.6787
   42MOL0     H 5645   3.668   2.334   4.631  1.7142  2.8640 -0.8918
   42MOL0     H 5646   3.684   2.560   4.614  1.3454 -2.9563 -0.1379
   42MOL0     H 5647   3.532   2.517   4.534  0.8500 -1.9839  0.8755
   42MOL0     H 5648   3.544   2.713   4.713  0.3256 -0.0926  1.0947
   42MOL0     H 5649   3.465   2.593   4.813 -1.7524 -0.2956  0.1285
   42MOL0     H 5650   3.359   2.710   4.551 -0.3873 -0.3767 -0.4573
   42MOL0     H 5651   3.302   2.707   4.716  1.9297  0.7141  0.7252
   42MOL0     H 5652   4.261   2.249   5.098  0.8811  0.0672 -3.3911
   42MOL0     H 5653   4.462   2.328   5.214 -1.5995 -0.6653 -0.7394
   42MOL0     H 5654   4.640   2.779   5.314 -0.2406  1.5775  0.0476
   42MOL0     H 5655   4.820   2.915   5.454 -1.5298 -0.5329  0.5263
   42MOL0     H 5656   5.465   4.366   4.779 -1.2079 -2.5961 -0.3986
   42MOL0     H 5657   5.646   4.506   4.736  0.1867 -0.6646 -0.4636
   42MOL0     H 5658   5.962   4.628   4.608 -1.7996  1.1712  0.7176
   42MOL0     H 5659   6.184   4.730   4.593 -0.7552  0.0782  0.3650
   42MOL0     H 5660   6.282   4.970   4.628 -4.6161 -0.4943 -2.0430
   42MOL0     H 5661   6.370   4.838   4.535 -2.1103 -1.2868  1.0326
   42MOL0     H 5662   6.405   5.143   4.504 -2.7715 -1.1572 -1.1665
   42MOL0     H 5663   6.463   5.021   4.388  0.5230 -2.8617 -0.0424
   42MOL0     H 5664   6.609   4.920   4.564  1.0925  0.2674 -1.1423
   42MOL0     H 5665   6.536   5.033   4.685 -2.2919 -0.7769 -0.4623
   42MOL0     H 5666   6.753   5.121   4.627 -1.1960 -0.1623  1.4654
   42MOL0     H 5667   6.623   5.214   4.562 -2.1386 -0.3985 -0.2038
   42MOL0     H 5668   6.886   5.086   4.241 -1.4241  1.5718 -1.0072
   42MOL0     H 5669   6.029   5.023   4.319 -0.2673 -0.5827 -1.0052
   42MOL0     H 5670   5.810   4.919   4.331  0.9785  0.1800 -0.9421
   43MOL0     O 5671   2.714   1.080   0.194 -0.2262  0.2112  0.5461
   43MOL0     C 5672   2.781   1.029   0.102  0.2544  0.1701  0.3727
   43MOL0     O 5673   2.738   0.920   0.017  0.1699  0.1146 -0.3002
   43MOL0     C 5674   2.618   0.860   0.028  0.7545  0.4486 -0.4659
   43MOL0     C 5675   2.493   0.928   0.018  0.1187  1.1263  0.1995
   43MOL0     C 5676   2.376   0.871   0.059  0.5915 -0.6759 -0.9982
   43MOL0     C 5677   2.378   0.732   0.096  0.5957 -0.4466  0.5338
   43MOL0     O 5678   2.254   0.678   0.129 -0.5625 -0.2072 -0.0499
   43MOL0     C 5679   2.252   0.653   0.264 -0.1542  1.7144 -0.3320
   43MOL0     C 5680   2.109   0.615   0.311 -0.2955  0.6786  0.7560
   43MOL0     C 5681   2.011   0.730   0.286  0.4129  0.1064 -0.6829
   43MOL0     C 5682   1.887   0.698   0.367  0.0966  0.3381  0.3124
   43MOL0     C 5683   1.791   0.820   0.359 -0.2012  0.4137  0.1293
   43MOL0     C 5684   1.654   0.770   0.301  0.3077 -0.0588 -0.0612
   43MOL0     C 5685   1.547   0.883   0.291  0.7114 -0.7803 -0.9052
   43MOL0     C 5686   1.562   0.957   0.160  1.2005 -1.0505 -0.2272
   43MOL0     N 5687   1.472   1.078   0.162  0.3756  0.3935 -0.1730
   43MOL0     C 5688   1.492   1.186   0.247  0.1857  0.9422 -0.0060
   43MOL0     C 5689   1.374   1.254   0.241 -0.6813 -0.3629 -0.1585
   43MOL0     C 5690   1.350   1.375   0.322  0.0781  0.2881 -0.2093
   43MOL0     C 5691   1.225   1.447   0.280  1.3110 -0.1473 -0.4470
   43MOL0     C 5692   1.232   1.583   0.354  0.5149  0.7553 -0.4086
   43MOL0     C 5693   1.104   1.663   0.326  0.3987 -0.1311 -0.2441
   43MOL0     O 5694   1.002   1.613   0.411 -0.6116  0.3307 -0.5043
   43MOL0     C 5695   0.877   1.615   0.362  0.4058 -0.6581 -0.6878
   43MOL0     C 5696   0.806   1.724   0.309  0.2095  0.4893 -0.1015
   43MOL0     C 5697   0.674   1.712   0.260  0.2370  0.0739  0.0411
   43MOL0     C 5698   0.619   1.847   0.211  0.6373 -0.1120 -0.0288
   43MOL0     C 5699   0.607   1.588   0.253 -0.1984  0.2110 -0.6008
   43MOL0     C 5700   0.471   1.561   0.217 -0.2491 -0.2451  1.0331
   43MOL0     O 5701   0.398   1.662   0.157 -1.3702  0.5257 -0.0075
   43MOL0     C 5702   0.266   1.642   0.133  0.2387  0.1209 -0.0087
   43MOL0     C 5703   0.176   1.575   0.215  0.3130 -0.1826 -0.1171
   43MOL0     C 5704   0.039   1.581   0.182 -0.1166 -0.4486 -1.1269
   43MOL0     C 5705  -0.007   1.640   0.064  0.0710 -0.2886 -0.0143
   43MOL0     O 5706  -0.138   1.634   0.020 -1.0596  0.2552 -0.6754
   43MOL0     C 5707  -0.202   1.508   0.046  0.1668 -0.2308 -0.7877
   43MOL0     C 5708  -0.334   1.509  -0.035 -0.2609  0.0277  0.4366
   43MOL0     C 5709  -0.417   1.379  -0.005  0.9946  0.1136 -0.1246
   43MOL0     C 5710  -0.542   1.397  -0.087 -0.1138  0.0645 -0.5350
   43MOL0     C 5711  -0.633   1.278  -0.070  0.4640  0.0567  0.3274
   43MOL0     C 5712  -0.758   1.301  -0.161  0.1871  0.4459 -0.4441
   43MOL0     C 5713  -0.867   1.395  -0.099  1.0622  0.2878 -0.0674
   43MOL0     C 5714  -0.976   1.425  -0.206 -0.6655 -0.2706  0.0008
   43MOL0    Cl 5715  -1.079   1.281  -0.210 -0.0471  0.1807  0.1319
   43MOL0     C 5716   0.091   1.686  -0.023  0.7623 -0.4697 -0.6350
   43MOL0     C 5717   0.224   1.699   0.016 -0.0091 -0.2185  0.0100
   43MOL0     O 5718   0.436   1.441   0.239  0.0230  0.7927  0.3651
   43MOL0     C 5719   0.677   1.487   0.327 -1.2197 -0.7209 -0.4890
   43MOL0     C 5720   0.801   1.497   0.372  1.1023 -0.4013 -0.1311
   43MOL0     N 5721   1.284   1.193   0.153 -0.7677 -0.1758  0.4072
   43MOL0     N 5722   1.347   1.095   0.108 -0.6768  0.0720  0.0231
   43MOL0     C 5723   2.495   0.657   0.091  0.2817 -0.6837 -0.0613
   43MOL0     C 5724   2.615   0.726   0.065  0.7977  0.2606  0.6840
   43MOL0     C 5725   2.924   1.072   0.091  0.0809  0.5405 -0.1982
   43MOL0     C 5726   3.013   1.001   0.012 -0.3227 -0.6066 -0.5151
   43MOL0     C 5727   3.152   1.035   0.007 -0.5364 -0.3349  0.1883
   43MOL0     C 5728   3.199   1.153   0.069 -0.2086 -0.0241  0.6870
   43MOL0     O 5729   3.327   1.192   0.038 -0.6582  0.2098  0.0269
   43MOL0     C 5730   3.387   1.288   0.133 -0.2880 -0.6298  0.2457
   43MOL0     C 5731   3.547   1.276   0.122 -0.3564 -0.5141  0.6548
   43MOL0     C 5732   3.605   1.315  -0.014  0.6816 -0.6746 -0.3154
   43MOL0     C 5733   3.755   1.290  -0.019 -0.4339 -0.2575  0.5843
   43MOL0     C 5734   3.814   1.174   0.045  0.2422 -0.3581 -0.4715
   43MOL0     C 5735   3.843   1.076   0.110 -0.9279  0.4550  0.5783
   43MOL0     C 5736   3.108   1.209   0.166 -0.1335 -0.5399  0.5129
   43MOL0     C 5737   2.975   1.176   0.170  0.0148 -0.0852  0.0638
   43MOL0     H 5738   2.482   1.032  -0.009 -3.5952  0.7790 -0.1263
   43MOL0     H 5739   2.282   0.925   0.062  0.3984 -0.8253  3.9106
   43MOL0     H 5740   2.318   0.568   0.286 -0.5670  1.7900  1.3131
   43MOL0     H 5741   2.271   0.738   0.331 -1.0389  0.3710  1.7324
   43MOL0     H 5742   2.078   0.533   0.245  0.3123  1.3413 -0.3944
   43MOL0     H 5743   2.112   0.583   0.415  1.7730  0.9734  0.8217
   43MOL0     H 5744   2.061   0.817   0.331  0.3932 -0.4972  0.5762
   43MOL0     H 5745   1.986   0.741   0.181 -3.9075  0.2973  0.1777
   43MOL0     H 5746   1.840   0.605   0.333 -0.6932  0.3990  1.2043
   43MOL0     H 5747   1.917   0.686   0.471  0.1954 -1.1477  0.1257
   43MOL0     H 5748   1.778   0.878   0.451  1.2786 -0.6313  1.0224
   43MOL0     H 5749   1.833   0.892   0.289  0.4621 -0.2189 -0.1311
   43MOL0     H 5750   1.669   0.734   0.199  1.6626 -1.7765  0.7030
   43MOL0     H 5751   1.602   0.689   0.353 -0.1350  0.6930  0.7081
   43MOL0     H 5752   1.447   0.840   0.308  0.4680 -0.6355 -1.9095
   43MOL0     H 5753   1.567   0.946   0.378  0.9658 -1.8446 -0.1797
   43MOL0     H 5754   1.533   0.890   0.079  2.7539 -1.7849 -0.2018
   43MOL0     H 5755   1.667   0.983   0.144  0.4617  0.9376 -2.6400
   43MOL0     H 5756   1.576   1.210   0.312 -0.7624 -0.5401  1.8893
   43MOL0     H 5757   1.334   1.340   0.424 -0.3683 -3.3109 -1.3562
   43MOL0     H 5758   1.430   1.449   0.324 -0.2236  0.6381  2.5983
   43MOL0     H 5759   1.138   1.385   0.304  0.5006  0.4977 -1.5965
   43MOL0     H 5760   1.215   1.462   0.172 -1.8393 -1.8073 -0.4874
   43MOL0     H 5761   1.318   1.639   0.315  1.8691 -0.6328  0.5039
   43MOL0     H 5762   1.253   1.579   0.461  1.0092 -3.0332 -0.5415
   43MOL0     H 5763   1.073   1.665   0.221  0.6302 -1.5650 -0.3581
   43MOL0     H 5764   1.123   1.765   0.360 -1.7293  0.3649 -0.4419
   43MOL0     H 5765   0.853   1.822   0.308  2.2352 -0.4100 -1.8255
   43MOL0     H 5766   0.519   1.862   0.253  0.1486 -1.3954 -0.6965
   43MOL0     H 5767   0.680   1.925   0.259  0.4794 -1.8258  3.2718
   43MOL0     H 5768   0.607   1.860   0.104  0.5453 -0.9429 -0.1259
   43MOL0     H 5769   0.193   1.520   0.308  0.8847 -0.4562 -0.3774
   43MOL0     H 5770  -0.026   1.544   0.261 -0.0418  3.6196  1.0827
   43MOL0     H 5771  -0.131   1.429   0.023 -0.5109 -0.1839 -3.4162
   43MOL0     H 5772  -0.234   1.502   0.150 -1.4174 -0.6748 -1.2707
   43MOL0     H 5773  -0.389   1.596   0.001 -1.1078 -0.0759 -0.5696
   43MOL0     H 5774  -0.315   1.517  -0.142 -2.0227 -2.5516 -0.1625
   43MOL0     H 5775  -0.437   1.378   0.102  0.6532  1.7335 -0.1482
   43MOL0     H 5776  -0.358   1.295  -0.043  0.5147  1.0781 -3.3582
   43MOL0     H 5777  -0.586   1.493  -0.060 -2.4258 -0.9879 -0.3556
   43MOL0     H 5778  -0.519   1.401  -0.194 -4.6231 -0.8350 -1.7139
   43MOL0     H 5779  -0.678   1.273   0.029 -2.7006 -0.5410 -0.9984
   43MOL0     H 5780  -0.580   1.187  -0.098 -0.1339  0.4786 -2.5048
   43MOL0     H 5781  -0.715   1.331  -0.256  5.0286 -0.5821  1.1402
   43MOL0     H 5782  -0.807   1.203  -0.171 -1.5572  0.7195  3.4879
   43MOL0     H 5783  -0.816   1.485  -0.063 -2.6777  2.4975  0.1715
   43MOL0     H 5784  -0.907   1.336  -0.015 -0.2598 -0.1704 -0.9942
   43MOL0     H 5785  -0.938   1.446  -0.307 -4.3396  2.5021 -1.0346
   43MOL0     H 5786  -1.036   1.515  -0.189 -1.3351  0.7382 -5.6425
   43MOL0     H 5787   0.058   1.729  -0.117  1.1351  0.8446 -0.1851
   43MOL0     H 5788   0.291   1.757  -0.047  0.6953  0.5350  1.3964
   43MOL0     H 5789   0.636   1.386   0.326  0.2187 -1.3389 -1.3087
   43MOL0     H 5790   0.860   1.428   0.432 -0.5125 -2.0121 -0.2951
   43MOL0     H 5791   2.495   0.550   0.110  0.1149 -0.1730  3.6539
   43MOL0     H 5792   2.706   0.667   0.064  1.2131  0.8730  1.0663
   43MOL0     H 5793   2.980   0.919  -0.050  4.0227 -3.9664  1.0846
   43MOL0     H 5794   3.219   0.989  -0.064 -0.2631  1.6507 -0.9225
   43MOL0     H 5795   3.339   1.385   0.118 -0.8431 -0.9949 -0.4158
   43MOL0     H 5796   3.374   1.245   0.232  2.1989 -0.7415  0.5870
   43MOL0     H 5797   3.566   1.170   0.139 -1.4195 -0.7046  0.6963
   43MOL0     H 5798   3.595   1.349   0.189 -3.6130  2.0929  0.3767
   43MOL0     H 5799   3.576   1.418  -0.033 -0.1247 -0.6586  0.8363
   43MOL0     H 5800   3.549   1.250  -0.082 -0.3783  0.2429 -0.3329
   43MOL0     H 5801   3.795   1.383   0.022 -0.3704  0.4736 -1.0708
   43MOL0     H 5802   3.788   1.294  -0.123  2.9143 -0.3253  1.5324
   43MOL0     H 5803   3.885   0.998   0.170  1.0486 -1.5505 -3.0695
   43MOL0     H 5804   3.147   1.298   0.215  1.6422 -0.8764 -0.1961
   43MOL0     H 5805   2.904   1.232   0.229  1.3565 -0.4108  2.0865
   44MOL0     O 5806   2.130   9.569  10.316  0.3668 -0.0857  0.3551
   44MOL0     C 5807   2.177   9.604  10.419  0.0383  0.5405 -0.3673
   44MOL0     O 5808   2.111   9.644  10.536  0.6933 -1.0418 -0.0396
   44MOL0     C 5809   1.977   9.650  10.519 -0.1533  0.0288 -0.5074
   44MOL0     C 5810   1.928   9.775  10.575 -0.1880  0.7599  0.5577
   44MOL0     C 5811   1.783   9.778  10.579 -0.7468  0.4403 -0.2538
   44MOL0     C 5812   1.703   9.673  10.539 -0.3262 -0.1456  0.5144
   44MOL0     O 5813   1.559   9.672  10.553 -0.5951  0.8335  0.0087
   44MOL0     C 5814   1.487   9.795  10.579  0.3213 -0.3478  0.1813
   44MOL0     C 5815   1.475   9.839  10.726  0.2255  0.2534 -0.7439
   44MOL0     C 5816   1.411   9.726  10.813  0.3130 -0.6517  0.4289
   44MOL0     C 5817   1.264   9.716  10.786  0.1509 -0.1825  0.0273
   44MOL0     C 5818   1.200   9.611  10.872 -0.0244  0.1065  0.4664
   44MOL0     C 5819   1.049   9.588  10.830  0.8511 -0.0626  0.2578
   44MOL0     C 5820   0.988   9.452  10.863  0.0458 -0.4516 -0.3396
   44MOL0     C 5821   0.850   9.431  10.803 -0.2180 -0.2564 -0.3664
   44MOL0     N 5822   0.744   9.486  10.901  1.0880 -0.2061 -0.2313
   44MOL0     C 5823   0.687   9.613  10.911 -0.7709 -0.3879 -0.2533
   44MOL0     C 5824   0.578   9.605  10.988  0.0920 -0.0211 -1.1564
   44MOL0     C 5825   0.470   9.718  10.998 -0.5076  0.5858  0.9484
   44MOL0     C 5826   0.531   9.856  11.012  0.0395 -0.3147  0.6484
   44MOL0     C 5827   0.423   9.966  11.024 -0.0640  0.0970 -0.1059
   44MOL0     C 5828   0.333   9.974  11.148 -0.3116  0.7020 -0.2149
   44MOL0     O 5829   0.384  10.063  11.255 -0.4432  0.5996 -0.0061
   44MOL0     C 5830   0.297  10.095  11.354  0.3775 -0.4381  1.1894
   44MOL0     C 5831   0.328  10.217  11.419 -0.6148 -0.8847  0.2020
   44MOL0     C 5832   0.248  10.279  11.521 -1.3769 -0.5718  0.3264
   44MOL0     C 5833   0.296  10.416  11.560 -0.4015 -0.0627 -0.0125
   44MOL0     C 5834   0.142  10.209  11.568 -0.1896  0.4775  0.1109
   44MOL0     C 5835   0.049  10.259  11.670 -0.2571 -0.3014 -0.2326
   44MOL0     O 5836  -0.058  10.176  11.719 -0.1042 -0.3667 -0.3382
   44MOL0     C 5837  -0.116  10.214  11.843  0.4717 -0.5162 -0.0984
   44MOL0     C 5838  -0.244  10.160  11.858 -0.1092  0.2894 -1.7969
   44MOL0     C 5839  -0.327  10.194  11.968 -0.2254 -0.1181  0.4742
   44MOL0     C 5840  -0.282  10.298  12.048  0.6595 -0.1537 -0.9402
   44MOL0     O 5841  -0.375  10.340  12.147 -0.2204  0.3323  0.2101
   44MOL0     C 5842  -0.324  10.408  12.266  0.3816  0.7472 -0.3376
   44MOL0     C 5843  -0.442  10.433  12.358 -0.2967 -0.0297  0.0468
   44MOL0     C 5844  -0.535  10.540  12.294  0.6854 -0.7859  0.2307
   44MOL0     C 5845  -0.641  10.598  12.392 -0.3272  0.3623  0.8660
   44MOL0     C 5846  -0.743  10.662  12.303  0.8844 -0.7729  0.0214
   44MOL0     C 5847  -0.809  10.780  12.372  0.6075  0.1054 -0.4497
   44MOL0     C 5848  -0.905  10.851  12.274  0.0210 -0.5849 -0.8446
   44MOL0     C 5849  -0.964  10.982  12.317 -0.6162  0.8108  0.1281
   44MOL0    Cl 5850  -1.046  10.961  12.477  0.0118 -0.4840  0.4253
   44MOL0     C 5851  -0.149  10.347  12.042  0.0319 -0.0031 -0.4182
   44MOL0     C 5852  -0.066  10.295  11.945 -0.4405  0.7181 -0.2805
   44MOL0     O 5853   0.063  10.378  11.702  0.2380  0.4023 -0.1113
   44MOL0     C 5854   0.103  10.085  11.500 -0.1346 -0.0563  0.8943
   44MOL0     C 5855   0.186  10.026  11.404 -0.5204 -0.3178  0.3243
   44MOL0     N 5856   0.577   9.473  11.033 -0.0457  0.2338  0.1493
   44MOL0     N 5857   0.676   9.410  10.992  0.0587  0.0334  0.0927
   44MOL0     C 5858   1.758   9.550  10.495  0.0588 -0.5694 -0.1083
   44MOL0     C 5859   1.893   9.541  10.488 -0.1062  0.5785 -0.1126
   44MOL0     C 5860   2.321   9.608  10.431  0.3764 -0.6978  0.3038
   44MOL0     C 5861   2.410   9.535  10.346 -0.0930  0.7132  0.4968
   44MOL0     C 5862   2.545   9.541  10.354 -0.6386 -0.4610 -0.5124
   44MOL0     C 5863   2.608   9.602  10.472  0.1692 -0.9014  0.7630
   44MOL0     O 5864   2.750   9.607  10.484  0.3615  0.3625  0.6220
   44MOL0     C 5865   2.827   9.528  10.387 -0.5841 -0.6595 -0.3931
   44MOL0     C 5866   2.970   9.542  10.421 -0.9013  0.3046 -0.1240
   44MOL0     C 5867   3.065   9.466  10.329 -0.2605 -0.1074 -0.2851
   44MOL0     C 5868   3.143   9.352  10.403 -1.0121 -0.0257 -0.5908
   44MOL0     C 5869   3.050   9.260  10.458  0.7577  0.2308 -0.6147
   44MOL0     C 5870   2.986   9.176  10.506  0.7700 -0.1867  0.4916
   44MOL0     C 5871   2.528   9.683  10.548  0.2062 -0.4130 -0.5932
   44MOL0     C 5872   2.390   9.685  10.528 -0.4236 -0.7113 -0.3100
   44MOL0     H 5873   1.986   9.855  10.618  0.0478  0.3271  1.0581
   44MOL0     H 5874   1.734   9.867  10.615 -0.9275  0.1690  0.1864
   44MOL0     H 5875   1.531   9.871  10.514 -0.2284  0.3691  0.6284
   44MOL0     H 5876   1.392   9.782  10.525 -0.3886  0.4359  1.1907
   44MOL0     H 5877   1.575   9.861  10.766  0.0051 -0.2943  0.1392
   44MOL0     H 5878   1.427   9.937  10.734  0.7505  0.4648 -0.0353
   44MOL0     H 5879   1.460   9.631  10.791 -0.2399 -0.9910  0.6321
   44MOL0     H 5880   1.420   9.750  10.920 -0.9570  0.4471  0.3221
   44MOL0     H 5881   1.212   9.810  10.807 -0.0503 -0.6956  2.0508
   44MOL0     H 5882   1.233   9.697  10.682 -2.1470  1.9372  0.2231
   44MOL0     H 5883   1.251   9.514  10.872 -2.2503 -1.1386 -0.9076
   44MOL0     H 5884   1.200   9.646  10.975 -0.7036  2.3644 -0.2406
   44MOL0     H 5885   0.988   9.655  10.890  0.1966 -0.3261 -0.1101
   44MOL0     H 5886   1.036   9.613  10.724  2.6502 -0.5329 -0.1100
   44MOL0     H 5887   1.055   9.376  10.821  0.6431  0.0588 -0.3357
   44MOL0     H 5888   0.996   9.442  10.971  2.1201  2.3239 -0.1235
   44MOL0     H 5889   0.825   9.325  10.801 -0.0350 -0.3147  0.1471
   44MOL0     H 5890   0.842   9.483  10.707  1.4411  0.7304 -0.0143
   44MOL0     H 5891   0.717   9.702  10.857  3.8887 -1.0366  0.8366
   44MOL0     H 5892   0.398   9.709  10.916 -1.5324  1.3674  1.7257
   44MOL0     H 5893   0.405   9.685  11.079  0.5406 -1.6150  0.9419
   44MOL0     H 5894   0.599   9.866  10.927  1.9419 -3.5617  1.6064
   44MOL0     H 5895   0.591   9.865  11.103  1.8409  0.5678 -0.5795
   44MOL0     H 5896   0.346   9.947  10.949  0.3624 -0.5554 -0.3824
   44MOL0     H 5897   0.457  10.069  11.009 -1.6405  0.3424 -2.5542
   44MOL0     H 5898   0.315   9.869  11.174  0.7195  0.0653 -1.8773
   44MOL0     H 5899   0.231  10.006  11.129 -0.3647 -0.1434 -1.4605
   44MOL0     H 5900   0.411  10.269  11.371 -1.8905 -0.1269 -1.2814
   44MOL0     H 5901   0.233  10.504  11.553  1.8142  1.7360  1.1740
   44MOL0     H 5902   0.338  10.401  11.661  1.3938  1.1381 -0.5314
   44MOL0     H 5903   0.379  10.459  11.504 -0.0589 -0.5897  0.0807
   44MOL0     H 5904  -0.260  10.081  11.785  5.0686 -1.0836 -1.8255
   44MOL0     H 5905  -0.432  10.168  11.976 -0.1981  0.1198  1.8454
   44MOL0     H 5906  -0.255  10.342  12.319  0.2173  0.4204 -0.5249
   44MOL0     H 5907  -0.282  10.502  12.229 -0.6385  0.6569 -1.8312
   44MOL0     H 5908  -0.489  10.340  12.391  0.2316 -0.0420  0.7818
   44MOL0     H 5909  -0.406  10.480  12.450 -0.3706 -0.4790  0.3048
   44MOL0     H 5910  -0.584  10.491  12.209 -0.0422  0.6339 -0.2007
   44MOL0     H 5911  -0.478  10.624  12.252  0.4026 -1.0629 -0.7248
   44MOL0     H 5912  -0.693  10.529  12.460 -0.5579 -1.1263 -0.7309
   44MOL0     H 5913  -0.583  10.667  12.453  1.2490 -0.9448  0.9249
   44MOL0     H 5914  -0.824  10.599  12.266  1.2367 -1.0714 -0.2533
   44MOL0     H 5915  -0.694  10.702  12.214  2.2622  0.3098  1.2171
   44MOL0     H 5916  -0.863  10.743  12.459  0.2162 -2.1187 -1.5644
   44MOL0     H 5917  -0.729  10.852  12.392 -1.9695  2.6739  1.3521
   44MOL0     H 5918  -0.991  10.785  12.258 -4.3997  3.4156  3.1067
   44MOL0     H 5919  -0.858  10.861  12.176 -1.5618 -1.8804 -1.7974
   44MOL0     H 5920  -1.036  11.026  12.248  1.0456  1.2781 -1.3645
   44MOL0     H 5921  -0.886  11.057  12.325  1.1464 -0.5243 -2.8370
   44MOL0     H 5922  -0.094  10.416  12.105 -0.3813 -1.2140  1.3554
   44MOL0     H 5923   0.040  10.317  11.945  0.1511 -1.7566  0.2896
   44MOL0     H 5924   0.009  10.031  11.509 -0.2497  0.1388  0.8691
   44MOL0     H 5925   0.155   9.930  11.365  0.8287 -1.9686  2.9840
   44MOL0     H 5926   1.700   9.462  10.472  0.9267 -0.8370 -1.3368
   44MOL0     H 5927   1.939   9.448  10.460  1.8537  1.0385  1.3640
   44MOL0     H 5928   2.369   9.463  10.275 -1.8211  1.3582  0.7917
   44MOL0     H 5929   2.584   9.477  10.275 -3.2770 -1.5729 -1.0270
   44MOL0     H 5930   2.799   9.422  10.384  2.4828 -1.5564 -3.0459
   44MOL0     H 5931   2.816   9.584  10.294  2.2886 -0.4222 -0.6907
   44MOL0     H 5932   2.976   9.509  10.525 -0.8970 -0.9214 -0.4914
   44MOL0     H 5933   2.997   9.648  10.422  1.2883 -0.1102 -2.9317
   44MOL0     H 5934   3.147   9.528  10.292  0.6062 -1.3754 -0.5584
   44MOL0     H 5935   3.029   9.421  10.236  1.6806 -0.2068 -1.0428
   44MOL0     H 5936   3.200   9.397  10.484  0.5754 -2.7836 -0.0533
   44MOL0     H 5937   3.218   9.302  10.341  3.5721  3.6358  1.3796
   44MOL0     H 5938   2.920   9.103  10.549 -1.1514 -0.2330 -2.2979
   44MOL0     H 5939   2.555   9.751  10.629 -3.8594  1.2248 -0.3403
   44MOL0     H 5940   2.325   9.739  10.596  0.1626 -0.8454  0.3748
   45MOL0     O 5941   5.155   2.942   6.314 -0.7085 -0.2366 -0.4728
   45MOL0     C 5942   5.193   2.830   6.334 -0.1103  0.5158 -0.5700
   45MOL0     O 5943   5.150   2.722   6.273 -0.4779  0.4031 -0.2741
   45MOL0     C 5944   5.048   2.719   6.177 -0.2971  0.3510 -0.0771
   45MOL0     C 5945   5.054   2.609   6.088  0.7342 -1.0208 -0.8160
   45MOL0     C 5946   4.961   2.594   5.987 -0.2848 -0.2969  0.0403
   45MOL0     C 5947   4.851   2.682   5.976 -0.2698  1.2901  0.2871
   45MOL0     O 5948   4.742   2.671   5.892  0.2400  0.5295  0.9177
   45MOL0     C 5949   4.788   2.654   5.755 -0.5405 -0.8321 -0.1500
   45MOL0     C 5950   4.768   2.507   5.717 -0.1667 -0.1138 -0.0598
   45MOL0     C 5951   4.629   2.490   5.651 -0.1650 -0.7051 -0.1136
   45MOL0     C 5952   4.587   2.349   5.618  0.3073 -0.3385  0.2765
   45MOL0     C 5953   4.437   2.344   5.570  0.3914  0.2098 -0.5838
   45MOL0     C 5954   4.368   2.210   5.589 -0.1791  0.1947  0.8858
   45MOL0     C 5955   4.419   2.099   5.498  0.4817  0.1081 -0.0995
   45MOL0     C 5956   4.321   1.980   5.525 -0.0234  0.1285  1.0102
   45MOL0     N 5957   4.178   1.978   5.512 -0.4078  0.7864 -0.2573
   45MOL0     C 5958   4.106   2.006   5.391 -1.4045  0.6117 -0.1219
   45MOL0     C 5959   3.975   1.984   5.423  0.1143 -0.5628 -0.3504
   45MOL0     C 5960   3.863   1.996   5.338 -0.5602  0.1235  0.8448
   45MOL0     C 5961   3.756   1.896   5.355  0.0667 -0.0095  0.4591
   45MOL0     C 5962   3.620   1.933   5.274 -1.1225 -0.4309 -0.6410
   45MOL0     C 5963   3.495   1.871   5.337 -0.1584 -0.4550  1.0367
   45MOL0     O 5964   3.498   1.729   5.366 -0.3142  0.2258  0.2249
   45MOL0     C 5965   3.388   1.669   5.413 -0.1369 -0.3548 -0.4861
   45MOL0     C 5966   3.272   1.733   5.461  0.1447  0.3215  0.3535
   45MOL0     C 5967   3.170   1.663   5.514 -0.4547 -0.4657  0.5266
   45MOL0     C 5968   3.048   1.753   5.552 -0.2526 -0.0843 -0.1286
   45MOL0     C 5969   3.171   1.523   5.523 -0.7497  0.3893  0.7278
   45MOL0     C 5970   3.055   1.453   5.574  0.4144  0.0954 -0.9686
   45MOL0     O 5971   2.976   1.515   5.664 -0.1335 -0.5520 -0.1910
   45MOL0     C 5972   2.874   1.444   5.736 -0.1223 -0.2252  0.2498
   45MOL0     C 5973   2.885   1.330   5.819 -0.4443 -0.5526  0.2424
   45MOL0     C 5974   2.781   1.272   5.881  0.4446 -0.1604  0.2657
   45MOL0     C 5975   2.649   1.321   5.876  0.3135  0.0996 -0.0419
   45MOL0     O 5976   2.549   1.285   5.961  0.1156 -0.8483  0.1520
   45MOL0     C 5977   2.564   1.172   6.046  0.1979  0.5228  0.0852
   45MOL0     C 5978   2.427   1.152   6.115 -0.2329  0.5536  1.1636
   45MOL0     C 5979   2.312   1.120   6.014 -0.4455 -0.5911 -0.4565
   45MOL0     C 5980   2.180   1.133   6.094  0.6946  0.0906  0.4707
   45MOL0     C 5981   2.062   1.115   6.007 -0.0282  0.5898  0.1185
   45MOL0     C 5982   1.936   1.108   6.083 -0.2055 -0.2955 -0.0344
   45MOL0     C 5983   1.813   1.134   6.003 -0.1818 -0.5879  0.4328
   45MOL0     C 5984   1.687   1.127   6.096 -0.1100  0.2496 -0.4947
   45MOL0    Cl 5985   1.533   1.160   6.003  0.1214  0.5515  0.3875
   45MOL0     C 5986   2.637   1.431   5.787 -0.3201 -0.3004  0.1810
   45MOL0     C 5987   2.747   1.490   5.726  0.5316  0.2132 -0.3041
   45MOL0     O 5988   3.034   1.345   5.523  0.5913  0.1862  0.3454
   45MOL0     C 5989   3.287   1.456   5.468 -0.5828  0.3051  0.3787
   45MOL0     C 5990   3.393   1.526   5.415  0.6026 -0.0659  0.3978
   45MOL0     N 5991   3.974   1.939   5.557  0.3910  0.5019 -0.5037
   45MOL0     N 5992   4.090   1.938   5.603  0.6287 -0.7209  0.1940
   45MOL0     C 5993   4.845   2.782   6.067  0.9447  0.0111 -0.2965
   45MOL0     C 5994   4.940   2.802   6.162  0.7663 -0.8822 -0.1988
   45MOL0     C 5995   5.272   2.797   6.462  0.6815 -0.8612  0.0427
   45MOL0     C 5996   5.347   2.680   6.474 -0.2922  0.2899  0.2118
   45MOL0     C 5997   5.437   2.666   6.580  0.3182 -0.0557  0.4672
   45MOL0     C 5998   5.439   2.762   6.683 -0.4086  0.3929 -1.0421
   45MOL0     O 5999   5.505   2.762   6.803 -0.4122  0.2354  0.6553
   45MOL0     C 6000   5.606   2.661   6.818 -0.4588 -0.3071  0.8593
   45MOL0     C 6001   5.673   2.678   6.955  0.1542  0.3269 -0.6377
   45MOL0     C 6002   5.699   2.829   6.996 -0.0443 -0.6976  0.0134
   45MOL0     C 6003   5.766   2.848   7.133 -0.6972  0.5259 -0.5082
   45MOL0     C 6004   5.690   2.781   7.243 -0.7980 -0.2479  0.4755
   45MOL0     C 6005   5.618   2.729   7.323 -0.7380 -0.2787  0.0040
   45MOL0     C 6006   5.352   2.870   6.680  0.4164 -0.2759 -0.3818
   45MOL0     C 6007   5.278   2.893   6.566  0.5509  0.7006  0.3423
   45MOL0     H 6008   5.139   2.543   6.082  1.1776 -0.7321  1.2912
   45MOL0     H 6009   4.970   2.514   5.913 -0.1071  1.1315 -1.5510
   45MOL0     H 6010   4.732   2.716   5.685 -0.1723 -0.2440  0.0769
   45MOL0     H 6011   4.896   2.670   5.745 -0.5008  0.5351  1.8628
   45MOL0     H 6012   4.835   2.472   5.638 -0.4412  1.8047 -1.1949
   45MOL0     H 6013   4.771   2.442   5.805 -1.0401 -2.5999 -1.7308
   45MOL0     H 6014   4.555   2.545   5.711 -0.9322 -1.9327  0.1011
   45MOL0     H 6015   4.636   2.550   5.560  1.1529  1.3781  1.2912
   45MOL0     H 6016   4.650   2.303   5.542  1.0760  0.6731  0.2782
   45MOL0     H 6017   4.605   2.302   5.716 -0.0152 -0.2120  0.3978
   45MOL0     H 6018   4.374   2.406   5.634 -0.5664  0.5143 -1.8049
   45MOL0     H 6019   4.430   2.396   5.475 -0.9674  0.3312 -0.4300
   45MOL0     H 6020   4.374   2.181   5.694  4.1454  0.0093  0.7340
   45MOL0     H 6021   4.262   2.227   5.566 -0.0496  1.4256  1.1424
   45MOL0     H 6022   4.413   2.121   5.391  1.4110  2.9686  0.3460
   45MOL0     H 6023   4.524   2.074   5.518  0.6135 -0.7472 -1.6563
   45MOL0     H 6024   4.345   1.947   5.626 -0.2976 -1.0339  0.7198
   45MOL0     H 6025   4.344   1.894   5.460 -0.8258  0.7060 -0.0722
   45MOL0     H 6026   4.142   2.039   5.294  0.7251 -0.8188  0.1165
   45MOL0     H 6027   3.825   2.092   5.372  1.5104  1.2026  0.2528
   45MOL0     H 6028   3.903   1.987   5.237  2.9087 -2.4318  2.2289
   45MOL0     H 6029   3.721   1.892   5.459 -2.8409  0.5526 -0.4053
   45MOL0     H 6030   3.789   1.800   5.314 -0.0731  0.6190 -1.1769
   45MOL0     H 6031   3.633   1.907   5.168 -1.5686  2.0693 -1.3679
   45MOL0     H 6032   3.602   2.041   5.280  0.5220 -0.2040  2.5291
   45MOL0     H 6033   3.411   1.887   5.269 -0.7357 -1.1048  1.5806
   45MOL0     H 6034   3.478   1.921   5.432 -0.5188 -0.8774  1.2007
   45MOL0     H 6035   3.251   1.840   5.456 -1.0679  0.0453 -1.8484
   45MOL0     H 6036   2.951   1.714   5.517 -0.9567  1.2655  0.2576
   45MOL0     H 6037   3.031   1.767   5.659  0.2056  1.0751 -0.1994
   45MOL0     H 6038   3.057   1.848   5.498 -0.8825  0.9303  1.4972
   45MOL0     H 6039   2.987   1.297   5.833  0.4794  2.2779  0.8154
   45MOL0     H 6040   2.800   1.177   5.930 -0.9941  0.0366  1.2894
   45MOL0     H 6041   2.580   1.073   6.002 -2.2995 -1.6585  3.4699
   45MOL0     H 6042   2.647   1.195   6.113 -0.1534 -1.2151  1.1874
   45MOL0     H 6043   2.423   1.074   6.191  1.7949 -3.3900 -2.3394
   45MOL0     H 6044   2.394   1.242   6.167  0.3916  1.2697  0.3641
   45MOL0     H 6045   2.331   1.022   5.969  0.8431 -0.4131 -0.3526
   45MOL0     H 6046   2.311   1.185   5.926 -0.3520 -1.1898 -0.9113
   45MOL0     H 6047   2.180   1.058   6.174  2.7177 -0.3274  0.1464
   45MOL0     H 6048   2.183   1.230   6.144  0.5880 -0.9645  2.6139
   45MOL0     H 6049   2.076   1.020   5.953  0.3282  0.7154 -0.0165
   45MOL0     H 6050   2.064   1.192   5.929 -0.6199 -0.1226 -0.6263
   45MOL0     H 6051   1.911   1.008   6.120 -2.0465 -0.3475 -1.2951
   45MOL0     H 6052   1.942   1.179   6.167  2.5308 -2.1848  1.5231
   45MOL0     H 6053   1.809   1.060   5.923  0.8340 -0.7983  0.5639
   45MOL0     H 6054   1.817   1.237   5.967 -1.7127 -0.0027  1.8247
   45MOL0     H 6055   1.701   1.189   6.185  2.6435 -0.0099 -0.6725
   45MOL0     H 6056   1.689   1.028   6.144 -2.0844  0.0662 -0.6945
   45MOL0     H 6057   2.546   1.487   5.771  0.8535  1.8296  0.5238
   45MOL0     H 6058   2.736   1.585   5.674 -2.1746 -0.1530 -0.4992
   45MOL0     H 6059   3.306   1.350   5.480 -0.0392  0.5642  2.1234
   45MOL0     H 6060   3.480   1.468   5.384  3.1467  3.2322  0.8337
   45MOL0     H 6061   4.762   2.851   6.060  0.3109 -0.8211 -1.4627
   45MOL0     H 6062   4.922   2.888   6.227  1.1160 -0.0829 -1.1312
   45MOL0     H 6063   5.333   2.599   6.403 -1.3614  1.0936 -0.5060
   45MOL0     H 6064   5.498   2.578   6.598  1.5043  0.6764  0.1428
   45MOL0     H 6065   5.578   2.556   6.805 -1.3623  0.1315 -1.1624
   45MOL0     H 6066   5.681   2.675   6.740  0.4814  1.0496  1.9398
   45MOL0     H 6067   5.765   2.620   6.950  0.9789  1.5274  0.0288
   45MOL0     H 6068   5.598   2.632   7.020 -1.3542  0.9066 -1.9142
   45MOL0     H 6069   5.605   2.885   6.999 -0.3307 -1.1575 -0.4685
   45MOL0     H 6070   5.762   2.873   6.918  2.1657 -1.4568  1.2496
   45MOL0     H 6071   5.759   2.953   7.162 -1.1042  0.5039 -0.5250
   45MOL0     H 6072   5.872   2.820   7.132 -1.4146 -2.5187 -0.3247
   45MOL0     H 6073   5.553   2.684   7.395 -0.6271 -1.3167 -0.5220
   45MOL0     H 6074   5.335   2.949   6.753 -3.8299 -0.1652 -1.2144
   45MOL0     H 6075   5.205   2.973   6.568 -0.3611 -0.1150  2.7492
   46MOL0     O 6076  10.743   6.556   1.615  0.3713 -0.3372  0.2161
   46MOL0     C 6077  10.780   6.650   1.684 -0.5115 -0.1434 -0.3373
   46MOL0     O 6078  10.708   6.762   1.705 -0.2335  0.3029  0.2270
   46MOL0     C 6079  10.576   6.767   1.679  0.2418 -0.8562  0.4302
   46MOL0     C 6080  10.479   6.757   1.780 -0.7413  0.2619  0.3997
   46MOL0     C 6081  10.342   6.779   1.746 -0.7625 -0.3731 -0.9837
   46MOL0     C 6082  10.298   6.822   1.623  0.1777 -0.2150  0.4279
   46MOL0     O 6083  10.169   6.854   1.582 -0.8598  0.1742 -0.5346
   46MOL0     C 6084  10.057   6.830   1.662  0.1891  0.4940 -0.7633
   46MOL0     C 6085   9.942   6.769   1.570 -0.2185  0.8561 -0.0535
   46MOL0     C 6086   9.819   6.742   1.654  0.2419 -0.3836  0.2781
   46MOL0     C 6087   9.702   6.705   1.555  0.4024  0.1041  0.7661
   46MOL0     C 6088   9.573   6.682   1.628 -0.0080 -0.0976 -0.1238
   46MOL0     C 6089   9.467   6.697   1.516  0.2548  0.3205 -0.3129
   46MOL0     C 6090   9.322   6.697   1.561  0.4759  0.8473  0.3839
   46MOL0     C 6091   9.272   6.829   1.619  0.1678  0.0548 -0.1676
   46MOL0     N 6092   9.130   6.823   1.639  0.1537  0.2668  0.0847
   46MOL0     C 6093   9.067   6.777   1.750 -0.2737  0.1295  0.2641
   46MOL0     C 6094   8.936   6.786   1.704 -0.4277 -0.3109 -0.2635
   46MOL0     C 6095   8.815   6.752   1.790  0.3628 -0.5586  0.0756
   46MOL0     C 6096   8.712   6.665   1.713 -0.7069 -0.4071  0.1522
   46MOL0     C 6097   8.758   6.517   1.671 -1.0082  0.4378  0.0451
   46MOL0     C 6098   8.647   6.447   1.589  0.4881  0.3116  0.0408
   46MOL0     O 6099   8.522   6.453   1.673  0.7095  0.0932  0.5891
   46MOL0     C 6100   8.403   6.446   1.603  0.1767 -0.0871 -0.1758
   46MOL0     C 6101   8.386   6.391   1.477  0.6226 -0.3123 -0.0943
   46MOL0     C 6102   8.267   6.388   1.415  0.3140  0.0224  0.2260
   46MOL0     C 6103   8.255   6.335   1.277  0.6411  1.0433 -0.1408
   46MOL0     C 6104   8.149   6.428   1.485  0.7368 -0.0541  0.0345
   46MOL0     C 6105   8.012   6.438   1.428  0.0468  0.2761 -0.2194
   46MOL0     O 6106   7.916   6.395   1.525  0.2340  0.1226  0.0016
   46MOL0     C 6107   7.787   6.409   1.497  0.3652  0.1619  1.0492
   46MOL0     C 6108   7.719   6.531   1.470 -0.7324 -0.2797 -0.1432
   46MOL0     C 6109   7.581   6.535   1.458 -0.5747 -0.2010  0.1215
   46MOL0     C 6110   7.504   6.424   1.455  0.4470 -1.2151  0.2502
   46MOL0     O 6111   7.374   6.437   1.429  0.8595  0.0202 -0.2225
   46MOL0     C 6112   7.276   6.342   1.478 -0.3984 -0.0797  0.5384
   46MOL0     C 6113   7.137   6.395   1.435  0.4370 -0.2095  0.0882
   46MOL0     C 6114   7.109   6.391   1.282  0.7863 -0.0221 -0.7090
   46MOL0     C 6115   6.971   6.437   1.261 -0.0795 -0.2778 -0.0505
   46MOL0     C 6116   6.907   6.448   1.120  0.6806 -0.0027 -0.7905
   46MOL0     C 6117   6.900   6.316   1.044  1.2131 -0.3657  0.3732
   46MOL0     C 6118   6.853   6.339   0.900 -0.8709  0.0503 -0.5422
   46MOL0     C 6119   6.730   6.420   0.887 -0.1552  0.1929 -0.1856
   46MOL0    Cl 6120   6.675   6.412   0.721  0.2184  0.4186 -0.0082
   46MOL0     C 6121   7.569   6.302   1.458 -0.3793 -0.4042  0.3421
   46MOL0     C 6122   7.708   6.290   1.485  0.0077  0.2899  0.2666
   46MOL0     O 6123   7.980   6.484   1.321  0.1647 -0.6562  0.3011
   46MOL0     C 6124   8.171   6.476   1.614  0.7373  0.2231 -0.6957
   46MOL0     C 6125   8.297   6.491   1.670 -0.6919 -0.4755 -0.0298
   46MOL0     N 6126   8.925   6.827   1.572  0.3581  0.2734  0.6201
   46MOL0     N 6127   9.046   6.840   1.535 -0.2075 -0.6688  0.3913
   46MOL0     C 6128  10.398   6.824   1.523  0.9055 -0.4735  0.1373
   46MOL0     C 6129  10.537   6.798   1.552 -0.5177  0.1503 -0.0025
   46MOL0     C 6130  10.910   6.648   1.756 -0.4977 -0.7484  0.9414
   46MOL0     C 6131  11.015   6.571   1.698 -1.4322  0.2408 -0.2305
   46MOL0     C 6132  11.143   6.578   1.759  0.5335  0.2926  0.5455
   46MOL0     C 6133  11.171   6.650   1.880 -0.1391 -0.1960  0.7667
   46MOL0     O 6134  11.299   6.657   1.921  0.7127  0.0158 -0.5011
   46MOL0     C 6135  11.331   6.607   2.048  0.0275 -1.1399 -0.4049
   46MOL0     C 6136  11.453   6.509   2.057  0.2262  0.7424 -0.3403
   46MOL0     C 6137  11.578   6.548   1.985  0.4335  0.1194 -0.5386
   46MOL0     C 6138  11.674   6.429   1.948  0.6656 -1.1941  0.0883
   46MOL0     C 6139  11.739   6.365   2.067  0.0800 -0.6840 -0.0178
   46MOL0     C 6140  11.781   6.322   2.168  0.7944  0.4149  0.1823
   46MOL0     C 6141  11.061   6.719   1.941 -0.2841 -0.2479 -0.0785
   46MOL0     C 6142  10.933   6.726   1.873 -0.0469 -0.5763  0.2478
   46MOL0     H 6143  10.507   6.730   1.881 -0.6601 -2.0148 -0.1801
   46MOL0     H 6144  10.281   6.785   1.837  2.3738  0.4345  1.2363
   46MOL0     H 6145  10.083   6.760   1.742  0.5537  1.9379  0.4045
   46MOL0     H 6146  10.022   6.922   1.709  1.6961  1.1467 -0.8556
   46MOL0     H 6147   9.919   6.840   1.490  0.7498 -1.5671 -2.6680
   46MOL0     H 6148   9.974   6.681   1.514 -3.2282 -0.3209 -0.1053
   46MOL0     H 6149   9.841   6.663   1.726  0.6427 -0.3505  0.1969
   46MOL0     H 6150   9.790   6.834   1.705  0.2042  0.0684 -0.5286
   46MOL0     H 6151   9.681   6.787   1.485 -4.1524 -0.1617  1.4981
   46MOL0     H 6152   9.717   6.612   1.501  3.1790 -1.9017  4.4768
   46MOL0     H 6153   9.583   6.585   1.678 -0.1748 -0.0411  0.0181
   46MOL0     H 6154   9.561   6.763   1.701 -2.3797 -0.4642 -0.0158
   46MOL0     H 6155   9.482   6.783   1.449  1.3074  0.0496 -0.4435
   46MOL0     H 6156   9.479   6.608   1.453  1.6968  0.4172 -0.2160
   46MOL0     H 6157   9.257   6.667   1.479 -2.3953 -2.1522  3.3978
   46MOL0     H 6158   9.311   6.618   1.637 -0.5739  0.2406 -0.3754
   46MOL0     H 6159   9.305   6.907   1.550 -0.3178 -0.8511 -1.4632
   46MOL0     H 6160   9.311   6.844   1.721 -1.9685  0.9066  0.5718
   46MOL0     H 6161   9.103   6.745   1.847  0.4659  2.7634  0.9549
   46MOL0     H 6162   8.835   6.703   1.885 -2.6001 -3.5998 -0.6689
   46MOL0     H 6163   8.762   6.845   1.812 -2.2162 -2.0170  0.4609
   46MOL0     H 6164   8.698   6.711   1.615  3.8896 -2.8800 -2.0147
   46MOL0     H 6165   8.617   6.665   1.768 -0.6518  0.1127  0.2540
   46MOL0     H 6166   8.767   6.455   1.761 -0.8582 -0.6882 -0.7222
   46MOL0     H 6167   8.856   6.514   1.623 -1.8331 -2.7857 -1.7036
   46MOL0     H 6168   8.665   6.339   1.580 -1.8167 -0.3802  2.4407
   46MOL0     H 6169   8.639   6.495   1.492 -2.9894  0.8580  0.4860
   46MOL0     H 6170   8.471   6.350   1.423  0.5290 -1.3261  0.4913
   46MOL0     H 6171   8.285   6.412   1.205  1.3949  0.4859 -0.4239
   46MOL0     H 6172   8.324   6.252   1.262  0.2480  0.3392  1.6847
   46MOL0     H 6173   8.154   6.301   1.254  0.9574  0.4742 -0.7056
   46MOL0     H 6174   7.771   6.625   1.474 -1.9032  0.3511  1.5610
   46MOL0     H 6175   7.533   6.632   1.442  0.0884  0.1306  0.1235
   46MOL0     H 6176   7.299   6.241   1.444  1.0508 -1.3186  4.6911
   46MOL0     H 6177   7.284   6.333   1.586  2.6327 -3.2763  0.2059
   46MOL0     H 6178   7.076   6.328   1.495  0.4680 -0.3855 -0.0757
   46MOL0     H 6179   7.116   6.497   1.471  1.5778 -0.2132  0.7958
   46MOL0     H 6180   7.108   6.286   1.250 -0.3899  0.2341 -1.5753
   46MOL0     H 6181   7.178   6.447   1.218  0.7883 -0.9409 -1.5522
   46MOL0     H 6182   6.895   6.389   1.324  0.9713 -0.3724  1.1690
   46MOL0     H 6183   6.985   6.539   1.296  1.7322 -0.5066 -0.0126
   46MOL0     H 6184   6.970   6.523   1.071 -1.7170  2.2372 -0.7113
   46MOL0     H 6185   6.804   6.486   1.129  0.5436 -0.3583 -0.8576
   46MOL0     H 6186   7.001   6.274   1.048  1.5056  0.3864  1.3326
   46MOL0     H 6187   6.833   6.246   1.094 -0.4171  1.1013  0.3657
   46MOL0     H 6188   6.837   6.236   0.866  0.0671 -1.0205  1.9539
   46MOL0     H 6189   6.939   6.370   0.839  1.2894 -1.3749  1.5700
   46MOL0     H 6190   6.734   6.525   0.916  2.4853  0.1745 -0.2962
   46MOL0     H 6191   6.644   6.378   0.941 -0.6266  2.4833  0.9820
   46MOL0     H 6192   7.515   6.208   1.448 -0.5832 -0.3649  1.0320
   46MOL0     H 6193   7.745   6.188   1.488  0.6349  0.4406 -1.5864
   46MOL0     H 6194   8.089   6.510   1.675  1.1551 -0.5241  0.3077
   46MOL0     H 6195   8.312   6.540   1.766 -0.3640 -0.0436 -0.3008
   46MOL0     H 6196  10.370   6.856   1.424 -1.4542  1.8913  1.4403
   46MOL0     H 6197  10.606   6.828   1.474  0.3242  1.7644  1.3078
   46MOL0     H 6198  10.996   6.508   1.611 -0.7112 -0.4773  0.1153
   46MOL0     H 6199  11.227   6.523   1.718  1.4505  1.3244  1.0156
   46MOL0     H 6200  11.344   6.685   2.123 -3.2610  0.9588 -1.7989
   46MOL0     H 6201  11.243   6.552   2.085 -1.0635 -0.4526 -1.8952
   46MOL0     H 6202  11.413   6.420   2.008 -2.7481  0.7791  1.7954
   46MOL0     H 6203  11.476   6.493   2.162  0.4800 -1.7849 -0.7381
   46MOL0     H 6204  11.635   6.615   2.051 -2.1033  1.3818  0.5231
   46MOL0     H 6205  11.546   6.602   1.896  0.5796 -0.5174 -0.9823
   46MOL0     H 6206  11.754   6.465   1.884  0.4530  0.4668  0.7009
   46MOL0     H 6207  11.614   6.352   1.898 -0.2105  0.1339 -0.9841
   46MOL0     H 6208  11.819   6.291   2.263 -1.6424 -1.2180  0.7206
   46MOL0     H 6209  11.080   6.778   2.030  1.1144 -0.5793 -0.1398
   46MOL0     H 6210  10.844   6.772   1.914 -1.2023 -0.4199 -2.2571
   47MOL0     O 6211   6.064   1.937   1.635  0.3927 -0.2583 -0.0821
   47MOL0     C 6212   6.102   2.048   1.656 -0.0064 -0.5511 -0.7704
   47MOL0     O 6213   6.031   2.142   1.708 -0.2325  0.0967  0.0768
   47MOL0     C 6214   5.906   2.112   1.765 -0.4935  0.0357  0.0183
   47MOL0     C 6215   5.797   2.181   1.722 -0.5258  0.1170  0.0883
   47MOL0     C 6216   5.666   2.143   1.762 -0.4326 -0.1159 -0.2022
   47MOL0     C 6217   5.646   2.040   1.854  0.1863 -0.3890 -0.6373
   47MOL0     O 6218   5.522   2.001   1.904 -0.6757 -0.3470  0.3785
   47MOL0     C 6219   5.405   2.079   1.879  0.5815 -0.4438  0.1102
   47MOL0     C 6220   5.276   2.014   1.928 -1.1852  0.4809 -0.5572
   47MOL0     C 6221   5.232   1.889   1.855 -0.1190 -0.3178 -0.9768
   47MOL0     C 6222   5.177   1.922   1.718 -0.6326 -0.0092 -0.7935
   47MOL0     C 6223   5.024   1.925   1.721 -0.1573 -0.0801  0.4464
   47MOL0     C 6224   4.937   1.801   1.772  0.4649 -1.1691  0.1416
   47MOL0     C 6225   4.787   1.824   1.738  1.7124  0.2229 -0.8502
   47MOL0     C 6226   4.752   1.814   1.582 -1.2686  0.5902  0.0698
   47MOL0     N 6227   4.618   1.879   1.537 -0.1352 -0.3569  0.2286
   47MOL0     C 6228   4.582   2.005   1.485  0.7454 -0.0708  0.5909
   47MOL0     C 6229   4.455   1.988   1.448  0.3091 -0.3391 -0.2674
   47MOL0     C 6230   4.377   2.088   1.379  0.5922  0.2358 -0.6484
   47MOL0     C 6231   4.417   2.102   1.231 -0.3488  0.0382  0.8474
   47MOL0     C 6232   4.362   2.233   1.162  0.2219  0.4689  1.0009
   47MOL0     C 6233   4.217   2.252   1.189  0.1324 -0.2749 -0.8627
   47MOL0     O 6234   4.162   2.366   1.112 -0.5596 -0.0052  0.1850
   47MOL0     C 6235   4.041   2.419   1.149  0.4188 -0.3622 -0.2619
   47MOL0     C 6236   4.016   2.560   1.148  0.5963 -0.8921  0.3685
   47MOL0     C 6237   3.894   2.621   1.183 -0.1686 -0.3202  0.3039
   47MOL0     C 6238   3.876   2.763   1.153  0.3562  0.7348  0.3432
   47MOL0     C 6239   3.804   2.544   1.246 -0.0939  0.0203  0.4316
   47MOL0     C 6240   3.685   2.613   1.301  0.0800  0.1290  0.0722
   47MOL0     O 6241   3.583   2.523   1.318  0.2602  0.7624  0.4277
   47MOL0     C 6242   3.464   2.563   1.368  0.6682  0.2486  0.3925
   47MOL0     C 6243   3.386   2.626   1.275  0.8588 -0.1653 -0.7303
   47MOL0     C 6244   3.250   2.664   1.311  0.7610 -0.5237  0.4223
   47MOL0     C 6245   3.214   2.653   1.448  0.3881  0.0157  0.2843
   47MOL0     O 6246   3.097   2.720   1.489  0.0680 -0.2594  0.2106
   47MOL0     C 6247   3.050   2.693   1.618  0.1340  0.1763  0.1589
   47MOL0     C 6248   2.901   2.719   1.611  0.2703 -0.0809  0.0889
   47MOL0     C 6249   2.817   2.721   1.739 -0.2982  0.5244 -0.1674
   47MOL0     C 6250   2.668   2.714   1.729  0.3334 -0.0665 -0.5505
   47MOL0     C 6251   2.597   2.696   1.871 -0.0869  0.4666  0.1906
   47MOL0     C 6252   2.443   2.708   1.868  0.4058 -0.1755  0.3331
   47MOL0     C 6253   2.354   2.775   1.985 -0.3985 -0.0333  0.1981
   47MOL0     C 6254   2.204   2.761   1.954 -0.4289 -0.0036  0.3568
   47MOL0    Cl 6255   2.100   2.878   2.043  0.2643 -0.0079 -0.0917
   47MOL0     C 6256   3.308   2.602   1.539 -0.6788 -0.6639 -0.8947
   47MOL0     C 6257   3.424   2.545   1.496 -0.3223 -0.8015  0.5151
   47MOL0     O 6258   3.678   2.730   1.339  0.2423 -0.3742 -0.3632
   47MOL0     C 6259   3.820   2.401   1.242 -0.2002  0.2840 -0.4461
   47MOL0     C 6260   3.935   2.341   1.199  0.0942  0.7751 -0.5415
   47MOL0     N 6261   4.417   1.860   1.462  0.9817  0.1881  0.4502
   47MOL0     N 6262   4.510   1.799   1.518 -1.0737 -0.3300  0.3716
   47MOL0     C 6263   5.753   1.969   1.895 -1.7439 -0.3504  0.4941
   47MOL0     C 6264   5.885   1.996   1.853 -0.3838  0.8363  0.2520
   47MOL0     C 6265   6.245   2.083   1.624 -0.1685 -0.5792  0.2287
   47MOL0     C 6266   6.336   1.977   1.593 -0.6230  0.3520  0.1587
   47MOL0     C 6267   6.478   2.003   1.575  0.7819 -0.1828  0.6272
   47MOL0     C 6268   6.522   2.137   1.575  0.0088 -0.1183  0.5944
   47MOL0     O 6269   6.653   2.178   1.564 -0.0048  0.6494  0.1797
   47MOL0     C 6270   6.738   2.092   1.486  0.1665  0.2304 -0.1528
   47MOL0     C 6271   6.865   2.156   1.418 -0.8137 -0.4151  0.0133
   47MOL0     C 6272   6.962   2.193   1.537 -0.0214  0.4952 -0.6170
   47MOL0     C 6273   7.109   2.211   1.486 -0.2366  0.1386 -0.8628
   47MOL0     C 6274   7.199   2.218   1.603 -0.5854  0.4118  0.7360
   47MOL0     C 6275   7.288   2.221   1.682 -0.9710  0.0154  0.1574
   47MOL0     C 6276   6.428   2.241   1.601 -0.6730 -0.4862 -0.3095
   47MOL0     C 6277   6.292   2.212   1.635 -0.3801 -0.3729 -0.4244
   47MOL0     H 6278   5.812   2.254   1.643  1.3024  1.6811  1.7822
   47MOL0     H 6279   5.581   2.193   1.717 -0.3530 -0.0685 -0.3029
   47MOL0     H 6280   5.403   2.173   1.935 -0.7771  0.0360 -0.6764
   47MOL0     H 6281   5.405   2.107   1.773  2.5530  1.0047  0.4519
   47MOL0     H 6282   5.313   1.968   2.020 -2.6895 -0.4568 -0.3733
   47MOL0     H 6283   5.197   2.088   1.941 -2.3147 -0.7951  0.1394
   47MOL0     H 6284   5.322   1.827   1.847  0.0514 -0.1717 -0.2220
   47MOL0     H 6285   5.176   1.820   1.919  1.2631 -0.8475 -0.2927
   47MOL0     H 6286   5.208   2.023   1.689 -1.6581  0.6052  0.1463
   47MOL0     H 6287   5.212   1.842   1.653 -2.4318 -1.4455 -0.0985
   47MOL0     H 6288   5.004   2.018   1.774 -4.0847 -1.0954  1.0771
   47MOL0     H 6289   5.002   1.938   1.614  3.4031 -2.6326 -0.7784
   47MOL0     H 6290   4.965   1.708   1.721  0.0430 -0.3527 -1.6396
   47MOL0     H 6291   4.950   1.779   1.879  0.8770 -3.0199 -0.2569
   47MOL0     H 6292   4.733   1.748   1.794 -0.8407  2.2997 -0.2909
   47MOL0     H 6293   4.759   1.924   1.772 -0.0308 -0.1762 -1.0597
   47MOL0     H 6294   4.749   1.707   1.556 -1.0499  0.8167 -0.9283
   47MOL0     H 6295   4.829   1.864   1.522 -1.9410 -0.5607 -1.8484
   47MOL0     H 6296   4.635   2.099   1.473 -0.5504  0.8291  1.5827
   47MOL0     H 6297   4.273   2.054   1.383  1.2372 -2.3054 -2.5691
   47MOL0     H 6298   4.386   2.186   1.426  0.2768  0.6804 -1.4930
   47MOL0     H 6299   4.397   2.012   1.172  0.4583  0.1363  0.4098
   47MOL0     H 6300   4.526   2.110   1.225 -0.0590 -0.8079  3.4867
   47MOL0     H 6301   4.377   2.236   1.054  0.2872  1.5030  1.0212
   47MOL0     H 6302   4.410   2.326   1.196 -0.4940  2.2091 -2.3037
   47MOL0     H 6303   4.198   2.257   1.297  2.6349 -0.5331 -0.3425
   47MOL0     H 6304   4.156   2.164   1.168 -1.3088 -0.5084  3.2714
   47MOL0     H 6305   4.089   2.635   1.120 -0.2096 -0.9219 -1.9858
   47MOL0     H 6306   3.915   2.823   1.236  0.1068  1.1227  0.1836
   47MOL0     H 6307   3.937   2.797   1.069  0.6335  2.9953  1.3804
   47MOL0     H 6308   3.775   2.795   1.127 -0.7285  0.3982  3.6729
   47MOL0     H 6309   3.425   2.636   1.175 -3.1535  0.9185 -2.3907
   47MOL0     H 6310   3.196   2.718   1.235  2.4332 -0.9475 -1.1579
   47MOL0     H 6311   3.074   2.599   1.669 -2.7915 -1.7421 -1.6928
   47MOL0     H 6312   3.091   2.767   1.687 -0.6958  0.0588  0.7995
   47MOL0     H 6313   2.882   2.810   1.553  0.0878  0.5885  1.1658
   47MOL0     H 6314   2.865   2.636   1.551  0.8336  0.8459 -1.5917
   47MOL0     H 6315   2.846   2.810   1.796 -0.2741  0.9655 -0.8533
   47MOL0     H 6316   2.851   2.632   1.793  0.2039  0.3429 -0.7749
   47MOL0     H 6317   2.631   2.805   1.681 -4.0069 -1.7059 -0.8007
   47MOL0     H 6318   2.639   2.632   1.662 -0.5624 -0.5373  0.3819
   47MOL0     H 6319   2.625   2.786   1.927  0.8564  1.0626 -1.1606
   47MOL0     H 6320   2.616   2.598   1.915 -1.2865  0.5304  0.8864
   47MOL0     H 6321   2.415   2.766   1.780 -1.3055 -3.1499 -1.2478
   47MOL0     H 6322   2.397   2.612   1.841 -0.5032 -0.4715  2.6624
   47MOL0     H 6323   2.382   2.880   2.001 -3.9232  1.2669 -1.0823
   47MOL0     H 6324   2.380   2.720   2.075 -1.0145  1.7279  1.5231
   47MOL0     H 6325   2.177   2.665   2.000 -0.4002  0.5643  1.6227
   47MOL0     H 6326   2.182   2.760   1.847 -4.1732 -0.8459  0.9946
   47MOL0     H 6327   3.289   2.606   1.645  1.2455  1.2390 -0.5413
   47MOL0     H 6328   3.495   2.484   1.550  1.6941  1.8201  1.0610
   47MOL0     H 6329   3.739   2.338   1.277 -0.5776  1.3021  0.5599
   47MOL0     H 6330   3.933   2.233   1.203 -0.6303  0.8145  0.6596
   47MOL0     H 6331   5.728   1.886   1.960 -0.2805 -0.0300  1.5129
   47MOL0     H 6332   5.966   1.934   1.891 -0.5834  0.3925 -0.0377
   47MOL0     H 6333   6.307   1.873   1.589 -0.7075  0.3645  0.4236
   47MOL0     H 6334   6.544   1.922   1.548  0.0095 -1.4094  2.2401
   47MOL0     H 6335   6.776   2.012   1.550  0.3770  0.6688  0.2706
   47MOL0     H 6336   6.688   2.046   1.400  2.3118  1.8770 -2.4036
   47MOL0     H 6337   6.831   2.246   1.366  1.4726  0.0800 -0.7242
   47MOL0     H 6338   6.925   2.094   1.351  1.4833  1.4113  0.2430
   47MOL0     H 6339   6.964   2.112   1.610 -0.1970  0.8755 -0.1915
   47MOL0     H 6340   6.935   2.287   1.585  0.5779  1.1004 -1.4244
   47MOL0     H 6341   7.130   2.303   1.432  1.0975 -0.2885 -1.1035
   47MOL0     H 6342   7.135   2.126   1.423  0.6646 -2.0376  2.1680
   47MOL0     H 6343   7.370   2.235   1.750  0.9295  0.1312 -2.0387
   47MOL0     H 6344   6.470   2.341   1.596  1.9579 -1.4164  1.4455
   47MOL0     H 6345   6.219   2.289   1.660  2.3967  2.0384  0.9335
   48MOL0     O 6346   8.886   5.499   9.446  0.0495  0.3800 -0.1239
   48MOL0     C 6347   8.899   5.542   9.563 -0.3087  1.1260 -0.0848
   48MOL0     O 6348   8.804   5.580   9.646  0.7318 -0.4828  0.0410
   48MOL0     C 6349   8.667   5.565   9.640  0.1933  0.7031 -0.6540
   48MOL0     C 6350   8.588   5.594   9.749  0.1587 -0.7652 -0.0287
   48MOL0     C 6351   8.443   5.583   9.743  0.1523  0.0865 -0.3223
   48MOL0     C 6352   8.381   5.541   9.625  0.1695 -0.2319 -1.1194
   48MOL0     O 6353   8.250   5.517   9.625 -0.5629  0.1119 -0.4548
   48MOL0     C 6354   8.176   5.538   9.509 -0.3702  0.1525  0.2758
   48MOL0     C 6355   8.045   5.601   9.557 -0.4103 -0.4613 -0.0059
   48MOL0     C 6356   7.926   5.590   9.461 -0.0596  0.8527 -0.1267
   48MOL0     C 6357   7.797   5.647   9.513 -0.6435 -0.1058  0.1027
   48MOL0     C 6358   7.682   5.579   9.445  1.0907 -0.8657 -0.2446
   48MOL0     C 6359   7.551   5.644   9.498 -0.2410 -0.7159 -0.4190
   48MOL0     C 6360   7.453   5.659   9.391  0.7481  0.5310  0.4424
   48MOL0     C 6361   7.416   5.531   9.312  0.4280  0.4833 -0.4721
   48MOL0     N 6362   7.309   5.468   9.390 -0.1821 -0.0320 -0.5017
   48MOL0     C 6363   7.324   5.366   9.486 -0.1037  0.1235 -0.6685
   48MOL0     C 6364   7.199   5.341   9.531  0.9198  1.0884  0.3644
   48MOL0     C 6365   7.149   5.235   9.628  0.0283 -0.6742 -0.1240
   48MOL0     C 6366   7.013   5.167   9.611 -0.6892  0.6054 -0.4878
   48MOL0     C 6367   6.969   5.091   9.731  0.2413 -0.3141  0.2098
   48MOL0     C 6368   6.836   5.023   9.696  0.2405 -0.0072  0.5914
   48MOL0     O 6369   6.859   4.918   9.603  0.5362 -0.2334  0.7140
   48MOL0     C 6370   6.757   4.829   9.571  0.3673  0.2655  0.2330
   48MOL0     C 6371   6.762   4.766   9.445  0.5352 -0.4879 -0.5708
   48MOL0     C 6372   6.653   4.675   9.406 -0.7537  0.1569  0.5448
   48MOL0     C 6373   6.680   4.628   9.261  0.1958 -1.1108 -1.0366
   48MOL0     C 6374   6.548   4.651   9.492 -0.1646  0.3067 -0.4510
   48MOL0     C 6375   6.433   4.566   9.456  0.5459  0.0627 -0.1819
   48MOL0     O 6376   6.324   4.557   9.528 -0.2215  0.1037  0.2814
   48MOL0     C 6377   6.210   4.525   9.465  1.3254 -0.2949  0.1196
   48MOL0     C 6378   6.173   4.392   9.426  0.1353  0.6806 -0.1492
   48MOL0     C 6379   6.055   4.369   9.351  0.6954  0.5767 -0.9027
   48MOL0     C 6380   5.975   4.482   9.316  0.1675 -1.3862  0.1264
   48MOL0     O 6381   5.860   4.461   9.244  0.6743  0.1998  0.2251
   48MOL0     C 6382   5.740   4.523   9.290  0.5020 -0.0091 -0.4379
   48MOL0     C 6383   5.626   4.438   9.217 -0.0553  0.4636  0.2487
   48MOL0     C 6384   5.485   4.478   9.252  0.2173  0.6581 -0.1508
   48MOL0     C 6385   5.390   4.378   9.177  0.2787 -0.3398 -0.1806
   48MOL0     C 6386   5.241   4.413   9.204  0.5068  0.3264 -0.8212
   48MOL0     C 6387   5.143   4.302   9.167 -0.8235  0.3627  0.5739
   48MOL0     C 6388   5.008   4.340   9.220  0.1320  0.2057  0.4810
   48MOL0     C 6389   4.902   4.234   9.205  0.8990  0.1197 -0.1519
   48MOL0    Cl 6390   4.901   4.145   9.050 -0.4326 -0.5754 -0.1011
   48MOL0     C 6391   6.010   4.613   9.360  0.5425  0.2341 -0.5889
   48MOL0     C 6392   6.127   4.630   9.428 -0.4049  0.1840  0.0535
   48MOL0     O 6393   6.449   4.497   9.353 -0.4262  0.5927 -0.2938
   48MOL0     C 6394   6.559   4.702   9.620  0.1335 -0.0114 -0.3457
   48MOL0     C 6395   6.648   4.794   9.657  0.0179  0.1079  0.0769
   48MOL0     N 6396   7.112   5.419   9.459 -0.3220 -0.4182 -0.5317
   48MOL0     N 6397   7.177   5.502   9.381 -0.2433 -0.6304  0.5360
   48MOL0     C 6398   8.466   5.515   9.514 -0.3677 -0.6000  0.3911
   48MOL0     C 6399   8.605   5.528   9.521  0.7982  0.0374  0.8939
   48MOL0     C 6400   9.038   5.558   9.614  0.6800  0.7098 -0.1433
   48MOL0     C 6401   9.147   5.517   9.539 -0.0323  0.2892 -0.0508
   48MOL0     C 6402   9.278   5.532   9.575 -0.4707 -0.4798  0.4416
   48MOL0     C 6403   9.311   5.593   9.701 -0.2843  0.6062  0.5321
   48MOL0     O 6404   9.443   5.593   9.716  0.7877  0.3189  0.1616
   48MOL0     C 6405   9.500   5.623   9.845 -0.4410 -0.3214 -0.1564
   48MOL0     C 6406   9.658   5.623   9.827  0.1248  0.3849 -0.5877
   48MOL0     C 6407   9.718   5.635   9.967 -0.0569  0.1422  0.7377
   48MOL0     C 6408   9.685   5.759  10.054  0.5635  0.4102 -0.1818
   48MOL0     C 6409   9.748   5.757  10.183 -0.2509 -0.4956 -0.1975
   48MOL0     C 6410   9.790   5.766  10.294  0.3213  0.1602  0.2710
   48MOL0     C 6411   9.208   5.640   9.783  0.1542  0.1579 -0.7429
   48MOL0     C 6412   9.071   5.627   9.739 -0.3823 -0.7142  0.3488
   48MOL0     H 6413   8.635   5.628   9.840  0.7124  1.2677 -1.0185
   48MOL0     H 6414   8.384   5.600   9.832  0.9425 -2.3204  0.7627
   48MOL0     H 6415   8.227   5.599   9.435 -0.4943  0.2094  0.2364
   48MOL0     H 6416   8.157   5.436   9.475  0.4598  0.8256 -2.4588
   48MOL0     H 6417   8.027   5.546   9.650  1.3602  2.4123  2.1743
   48MOL0     H 6418   8.064   5.705   9.584  2.4416 -1.1438  0.8953
   48MOL0     H 6419   7.945   5.639   9.365  1.5240  1.6449  0.5649
   48MOL0     H 6420   7.914   5.482   9.446  0.6432  0.5990  0.9751
   48MOL0     H 6421   7.786   5.631   9.620 -2.1995 -2.0191 -0.2836
   48MOL0     H 6422   7.799   5.755   9.492 -0.5076 -0.5132 -2.2597
   48MOL0     H 6423   7.687   5.602   9.339  0.5467 -2.6873 -0.7041
   48MOL0     H 6424   7.676   5.473   9.473  1.1599 -1.0686 -0.9766
   48MOL0     H 6425   7.515   5.590   9.586 -1.0028  0.1214 -0.2043
   48MOL0     H 6426   7.578   5.748   9.518  0.4126 -1.0708  0.6217
   48MOL0     H 6427   7.362   5.703   9.433 -2.7159 -0.7837 -4.7364
   48MOL0     H 6428   7.496   5.729   9.319  0.5538 -1.1438 -1.3910
   48MOL0     H 6429   7.502   5.468   9.287 -0.3118 -0.1465 -1.5032
   48MOL0     H 6430   7.356   5.554   9.223 -1.3917 -5.0028 -1.0263
   48MOL0     H 6431   7.413   5.320   9.527  0.0287  0.2378 -0.8290
   48MOL0     H 6432   7.227   5.159   9.617 -0.7143 -1.2216 -2.1386
   48MOL0     H 6433   7.163   5.292   9.720 -1.1305  1.9152 -1.4517
   48MOL0     H 6434   7.026   5.097   9.528  1.0036  1.2900 -0.8518
   48MOL0     H 6435   6.932   5.235   9.584  1.4561  2.1926 -3.5310
   48MOL0     H 6436   6.947   5.154   9.818 -0.4697  0.6472 -0.6464
   48MOL0     H 6437   7.043   5.019   9.768  3.0330  0.8764 -2.6644
   48MOL0     H 6438   6.760   5.093   9.659  0.3943  0.3541  0.9559
   48MOL0     H 6439   6.797   4.980   9.789 -0.2844  1.3625  1.0360
   48MOL0     H 6440   6.839   4.802   9.377 -0.0581  2.7115  0.2520
   48MOL0     H 6441   6.683   4.519   9.259 -1.9977 -1.3111  1.2393
   48MOL0     H 6442   6.598   4.654   9.193 -0.5560 -0.1470  0.1996
   48MOL0     H 6443   6.770   4.668   9.214 -1.1817  3.0837 -0.5655
   48MOL0     H 6444   6.240   4.310   9.450 -1.2779 -0.3955  0.2701
   48MOL0     H 6445   6.013   4.275   9.316 -0.9558  1.8847 -2.6178
   48MOL0     H 6446   5.729   4.517   9.399 -0.3372 -2.1605 -0.5876
   48MOL0     H 6447   5.717   4.622   9.252 -2.9631 -0.2947  0.5489
   48MOL0     H 6448   5.640   4.448   9.109 -1.2574 -0.7939 -0.0619
   48MOL0     H 6449   5.648   4.331   9.230 -0.9644  0.2267 -0.0396
   48MOL0     H 6450   5.476   4.580   9.212  3.1850 -0.2450 -3.6100
   48MOL0     H 6451   5.475   4.473   9.360 -2.8769 -1.2563 -0.3742
   48MOL0     H 6452   5.406   4.379   9.069  0.6348 -1.9615 -0.1753
   48MOL0     H 6453   5.418   4.275   9.201  2.5145  0.2058 -0.2843
   48MOL0     H 6454   5.221   4.504   9.147  1.3289  0.6511 -0.5993
   48MOL0     H 6455   5.234   4.449   9.307  0.7238 -0.2156 -0.6146
   48MOL0     H 6456   5.135   4.275   9.061 -3.1051  1.5343  0.3914
   48MOL0     H 6457   5.165   4.209   9.220  0.1699  0.1642 -0.1597
   48MOL0     H 6458   4.976   4.433   9.172  0.0057 -0.4410 -0.7182
   48MOL0     H 6459   5.024   4.352   9.328  4.0603  0.9723 -0.0262
   48MOL0     H 6460   4.809   4.289   9.222  1.1063  0.6037 -0.5667
   48MOL0     H 6461   4.908   4.158   9.283 -4.0237 -2.4096 -1.7830
   48MOL0     H 6462   5.946   4.696   9.331  1.9220  1.7718  0.5952
   48MOL0     H 6463   6.167   4.728   9.451  2.0102 -0.9467  1.0267
   48MOL0     H 6464   6.474   4.680   9.683 -1.0468 -0.6462 -2.0842
   48MOL0     H 6465   6.641   4.834   9.757  0.7907  0.6840 -0.0879
   48MOL0     H 6466   8.424   5.475   9.422  1.1928  1.2119 -1.2035
   48MOL0     H 6467   8.667   5.511   9.434  0.8893 -2.7499  1.4029
   48MOL0     H 6468   9.148   5.462   9.446 -0.8409  0.9619 -0.4698
   48MOL0     H 6469   9.347   5.473   9.516 -1.3271 -1.4775  0.4175
   48MOL0     H 6470   9.466   5.727   9.851  0.2104 -0.1862  1.5228
   48MOL0     H 6471   9.459   5.570   9.931 -2.8923  2.1512  0.3670
   48MOL0     H 6472   9.696   5.709   9.770  0.6517  1.0933  0.7763
   48MOL0     H 6473   9.691   5.528   9.784 -1.5142 -0.6663  0.3832
   48MOL0     H 6474   9.827   5.638   9.962 -0.0409 -0.9883  0.0650
   48MOL0     H 6475   9.683   5.551  10.028  0.8770 -1.3154 -0.6541
   48MOL0     H 6476   9.577   5.776  10.067  0.9194  1.2978  2.0667
   48MOL0     H 6477   9.718   5.851  10.004 -4.0962  1.9319 -1.0480
   48MOL0     H 6478   9.822   5.777  10.395 -0.3591  0.7970  0.4276
   48MOL0     H 6479   9.221   5.689   9.880 -0.2100  1.1464 -1.1864
   48MOL0     H 6480   8.988   5.666   9.797 -0.0061 -0.5565  0.7826
   49MOL0     O 6481   8.741   1.218   2.732  0.2767 -0.2146  0.3260
   49MOL0     C 6482   8.836   1.293   2.705  0.7859 -0.0761 -0.4794
   49MOL0     O 6483   8.822   1.430   2.693  0.0327 -0.4404 -0.3844
   49MOL0     C 6484   8.701   1.494   2.701 -0.7775  0.0314 -0.6393
   49MOL0     C 6485   8.672   1.599   2.610  0.3851 -0.2362  0.4411
   49MOL0     C 6486   8.550   1.663   2.612 -0.3072 -0.0343  0.1351
   49MOL0     C 6487   8.444   1.614   2.696 -0.2829 -0.1652  0.0935
   49MOL0     O 6488   8.333   1.693   2.688  0.4094 -0.1471 -0.2722
   49MOL0     C 6489   8.270   1.705   2.815 -0.0101 -0.6364  0.0420
   49MOL0     C 6490   8.144   1.797   2.820 -0.1980  0.5967 -0.1180
   49MOL0     C 6491   8.057   1.777   2.693 -0.0278  0.4882 -0.2853
   49MOL0     C 6492   8.023   1.636   2.653  0.6897 -0.3552 -0.5507
   49MOL0     C 6493   7.917   1.637   2.548 -0.3986  0.5335 -0.6420
   49MOL0     C 6494   7.892   1.498   2.486  0.4947 -1.0901 -0.1613
   49MOL0     C 6495   7.777   1.510   2.387 -0.0658  0.0704 -0.0581
   49MOL0     C 6496   7.777   1.391   2.287 -0.4082 -0.7972 -0.1565
   49MOL0     N 6497   7.661   1.391   2.197  0.3109 -0.0526  0.1357
   49MOL0     C 6498   7.660   1.375   2.055  0.2967  0.9862  0.2868
   49MOL0     C 6499   7.537   1.332   2.017 -0.3396 -0.4854 -0.5339
   49MOL0     C 6500   7.498   1.286   1.880  0.3242  0.1850  0.7495
   49MOL0     C 6501   7.353   1.264   1.850  0.1717 -0.0203 -0.0474
   49MOL0     C 6502   7.335   1.260   1.693  0.4246  0.2768  0.6224
   49MOL0     C 6503   7.193   1.264   1.654  0.3532 -0.3267  0.4622
   49MOL0     O 6504   7.143   1.384   1.696  0.3433 -0.7966 -0.5901
   49MOL0     C 6505   7.029   1.422   1.648  0.1260 -0.0552 -0.9230
   49MOL0     C 6506   6.976   1.543   1.697 -0.4589  0.5817 -0.4928
   49MOL0     C 6507   6.841   1.576   1.668  0.0678  0.4503 -0.3748
   49MOL0     C 6508   6.794   1.707   1.719 -0.7748 -1.0807  0.0158
   49MOL0     C 6509   6.766   1.492   1.587 -0.0874  0.3469  0.0196
   49MOL0     C 6510   6.626   1.531   1.540 -0.1427 -0.2445 -0.4809
   49MOL0     O 6511   6.558   1.435   1.488  0.5331 -0.0078  0.3170
   49MOL0     C 6512   6.419   1.459   1.479  0.4775 -0.5862  0.8545
   49MOL0     C 6513   6.325   1.521   1.568 -0.5625 -0.0328 -0.0366
   49MOL0     C 6514   6.189   1.537   1.531  0.6473 -0.7575 -0.5277
   49MOL0     C 6515   6.142   1.500   1.406 -0.1166  0.5398 -0.0903
   49MOL0     O 6516   6.016   1.521   1.377  0.4419  0.3338 -0.0319
   49MOL0     C 6517   5.966   1.549   1.243 -0.2989  0.0151  0.0208
   49MOL0     C 6518   5.819   1.594   1.252 -0.0866 -0.3874  0.0730
   49MOL0     C 6519   5.746   1.567   1.127  0.0361  0.5656  0.1029
   49MOL0     C 6520   5.607   1.622   1.138  0.0239  0.7640  0.2942
   49MOL0     C 6521   5.519   1.585   1.016 -0.7541 -0.7365  0.1898
   49MOL0     C 6522   5.378   1.630   1.038 -0.1155 -0.1687  0.1117
   49MOL0     C 6523   5.290   1.616   0.918 -0.4212  0.0758  0.0714
   49MOL0     C 6524   5.146   1.616   0.954  0.2280 -0.0454 -0.7433
   49MOL0    Cl 6525   5.078   1.457   1.045 -0.1074 -0.1377 -0.0424
   49MOL0     C 6526   6.240   1.458   1.314  0.2214  0.3327  0.0641
   49MOL0     C 6527   6.371   1.443   1.347  0.0074  0.0614 -0.1843
   49MOL0     O 6528   6.582   1.646   1.564  0.2602 -0.8553 -0.3577
   49MOL0     C 6529   6.824   1.375   1.536 -0.3004  0.1629  0.2919
   49MOL0     C 6530   6.950   1.334   1.571  0.2606 -0.1984 -0.4939
   49MOL0     N 6531   7.459   1.348   2.132  0.3785  0.1041 -0.3666
   49MOL0     N 6532   7.529   1.377   2.236 -0.7083 -0.3285 -0.4532
   49MOL0     C 6533   8.472   1.512   2.783 -0.4465  0.4686  0.7404
   49MOL0     C 6534   8.600   1.459   2.797 -0.3923  0.9213  0.3883
   49MOL0     C 6535   8.971   1.234   2.708 -0.3423 -1.1540  0.9404
   49MOL0     C 6536   9.072   1.303   2.652 -0.0272  0.7101  0.9496
   49MOL0     C 6537   9.208   1.263   2.648  0.1679 -0.0022 -0.1596
   49MOL0     C 6538   9.239   1.144   2.718  0.4571  0.6800 -0.9489
   49MOL0     O 6539   9.368   1.104   2.727  0.2692  0.8351  0.0568
   49MOL0     C 6540   9.473   1.177   2.664  0.0754  0.0986 -0.7381
   49MOL0     C 6541   9.613   1.114   2.671  0.8108 -0.3036 -0.0738
   49MOL0     C 6542   9.711   1.230   2.652 -0.8774  0.5077 -0.1385
   49MOL0     C 6543   9.859   1.185   2.698  0.8490 -0.2805  0.8450
   49MOL0     C 6544   9.910   1.067   2.626  0.5963  0.4913 -0.3704
   49MOL0     C 6545   9.959   0.979   2.559  1.0042 -0.7438  0.6951
   49MOL0     C 6546   9.143   1.070   2.778  1.1988 -0.4186 -0.1475
   49MOL0     C 6547   9.008   1.112   2.760  0.0469  0.1626 -0.0138
   49MOL0     H 6548   8.748   1.613   2.533  2.4931  0.7602  2.5378
   49MOL0     H 6549   8.526   1.747   2.547  1.1984 -1.2670 -2.1307
   49MOL0     H 6550   8.240   1.603   2.842 -2.6360 -0.3736 -1.5101
   49MOL0     H 6551   8.333   1.743   2.895 -1.1573  0.3514  0.5160
   49MOL0     H 6552   8.097   1.772   2.915  0.7991 -1.9356 -0.2100
   49MOL0     H 6553   8.171   1.903   2.828  1.6617  0.0903  0.8663
   49MOL0     H 6554   7.968   1.840   2.690 -0.4921 -0.1623 -2.9585
   49MOL0     H 6555   8.115   1.814   2.608 -1.4476  0.0188 -1.5020
   49MOL0     H 6556   8.112   1.588   2.613  0.8752  0.3525 -1.0011
   49MOL0     H 6557   7.986   1.575   2.736 -1.3355  0.6956 -0.6042
   49MOL0     H 6558   7.826   1.670   2.600 -0.2559  1.8582 -1.1975
   49MOL0     H 6559   7.935   1.701   2.462  0.4115 -0.2014 -1.0332
   49MOL0     H 6560   7.992   1.474   2.449  0.2722 -0.2999 -1.3561
   49MOL0     H 6561   7.870   1.434   2.572  0.5601 -1.1352 -0.1778
   49MOL0     H 6562   7.682   1.507   2.442 -0.1585 -1.7612 -0.2688
   49MOL0     H 6563   7.767   1.602   2.328  1.8935  0.4734  0.1833
   49MOL0     H 6564   7.782   1.295   2.340 -3.0454 -0.2387  1.2535
   49MOL0     H 6565   7.868   1.394   2.227  0.0838 -2.7934  0.3963
   49MOL0     H 6566   7.741   1.362   1.984 -0.8754  2.7442 -1.4901
   49MOL0     H 6567   7.540   1.352   1.804  1.6112 -1.4456 -0.0139
   49MOL0     H 6568   7.537   1.185   1.863 -0.6857 -0.7315  3.2786
   49MOL0     H 6569   7.285   1.345   1.878 -0.1378  0.9876 -3.3372
   49MOL0     H 6570   7.326   1.170   1.900 -2.4359  1.4387  1.5284
   49MOL0     H 6571   7.374   1.166   1.653  0.0438  0.8937 -1.3215
   49MOL0     H 6572   7.385   1.348   1.650 -0.3278  1.3603  1.8718
   49MOL0     H 6573   7.137   1.187   1.709  0.7637 -0.2905  0.9360
   49MOL0     H 6574   7.187   1.257   1.545  0.9343 -0.9384  0.4591
   49MOL0     H 6575   7.051   1.607   1.743 -0.5788 -0.1266  0.7250
   49MOL0     H 6576   6.703   1.695   1.778  0.0941 -0.8869  1.4314
   49MOL0     H 6577   6.870   1.758   1.778  0.8712 -0.1528 -2.7286
   49MOL0     H 6578   6.780   1.775   1.634  1.9306 -2.5167 -1.7085
   49MOL0     H 6579   6.368   1.548   1.664 -1.7740  2.0599 -0.0084
   49MOL0     H 6580   6.122   1.587   1.600  1.9805  0.9833 -0.4393
   49MOL0     H 6581   6.026   1.628   1.198 -1.1704  0.1981 -0.8521
   49MOL0     H 6582   5.969   1.455   1.187 -1.1562 -0.2827  0.4538
   49MOL0     H 6583   5.767   1.541   1.331  0.8457  0.5202  1.3466
   49MOL0     H 6584   5.822   1.702   1.272 -0.4612 -0.0961 -1.2898
   49MOL0     H 6585   5.734   1.461   1.103 -0.1743 -0.0151  2.5096
   49MOL0     H 6586   5.800   1.624   1.051  1.0811  1.2964  1.3439
   49MOL0     H 6587   5.563   1.578   1.228 -0.3964  0.1221 -0.2201
   49MOL0     H 6588   5.612   1.731   1.143 -0.6716  0.9017 -1.4675
   49MOL0     H 6589   5.515   1.477   1.003 -2.1277 -0.7780  0.7124
   49MOL0     H 6590   5.554   1.647   0.933  0.9045 -0.2156  1.2437
   49MOL0     H 6591   5.343   1.565   1.119  0.0318  1.4863  1.5504
   49MOL0     H 6592   5.369   1.735   1.066 -3.2174 -0.1411 -0.6506
   49MOL0     H 6593   5.309   1.524   0.861  3.0379  0.8408 -0.2310
   49MOL0     H 6594   5.313   1.697   0.848 -0.3444  0.4498  0.5270
   49MOL0     H 6595   5.076   1.640   0.873 -0.6069 -1.3550 -0.4411
   49MOL0     H 6596   5.132   1.693   1.031 -1.8262 -1.2259  0.1478
   49MOL0     H 6597   6.220   1.434   1.210  0.1346 -4.3949  0.9579
   49MOL0     H 6598   6.427   1.394   1.268 -3.1435  0.4869 -2.8971
   49MOL0     H 6599   6.777   1.307   1.465  0.9839 -0.3364 -0.1060
   49MOL0     H 6600   6.990   1.241   1.532  1.2943  0.4092 -0.9164
   49MOL0     H 6601   8.390   1.470   2.840 -0.1844 -1.2048 -0.0646
   49MOL0     H 6602   8.619   1.385   2.873 -1.5972  0.3755  0.1787
   49MOL0     H 6603   9.052   1.396   2.600 -1.1094 -0.8977 -1.6856
   49MOL0     H 6604   9.278   1.332   2.602  1.1643  0.5075  2.0333
   49MOL0     H 6605   9.440   1.195   2.561 -1.1326  1.8808 -0.0826
   49MOL0     H 6606   9.488   1.274   2.712  1.6719 -0.0352 -0.9139
   49MOL0     H 6607   9.634   1.028   2.606  0.3363  1.5655 -2.8669
   49MOL0     H 6608   9.626   1.078   2.773  3.3741 -0.8107 -0.5030
   49MOL0     H 6609   9.681   1.307   2.724 -2.4342 -0.6531  0.5209
   49MOL0     H 6610   9.712   1.256   2.546 -2.9684 -2.0546 -0.8919
   49MOL0     H 6611   9.869   1.173   2.806  0.5932  0.2866  0.9322
   49MOL0     H 6612   9.931   1.261   2.666  0.6168 -0.6185 -0.5239
   49MOL0     H 6613  10.007   0.901   2.503  3.0523  1.4672 -0.8049
   49MOL0     H 6614   9.184   0.978   2.819  0.9861 -0.2606  0.4271
   49MOL0     H 6615   8.930   1.054   2.807 -1.1835  2.4987  1.0108
   50MOL0     O 6616   8.091   8.654   5.780  0.6274 -0.1283 -0.0442
   50MOL0     C 6617   8.198   8.634   5.728 -0.5418  0.7757  0.6225
   50MOL0     O 6618   8.244   8.695   5.612  0.3287  0.0715 -0.5371
   50MOL0     C 6619   8.184   8.810   5.566  0.6032  0.4917 -0.1574
   50MOL0     C 6620   8.143   8.806   5.430 -0.6332 -0.0203 -0.5807
   50MOL0     C 6621   8.083   8.924   5.371 -1.4450 -0.1907 -0.2061
   50MOL0     C 6622   8.095   9.046   5.435  0.9406 -0.2598 -1.3701
   50MOL0     O 6623   8.051   9.157   5.365 -0.5791 -0.4119  0.0773
   50MOL0     C 6624   8.017   9.279   5.435  0.6430  0.0349  0.4687
   50MOL0     C 6625   7.867   9.315   5.430 -0.2839 -0.3131  0.4840
   50MOL0     C 6626   7.822   9.358   5.290 -0.6051  0.1144 -0.6505
   50MOL0     C 6627   7.679   9.363   5.267  0.0477  0.3604 -0.3170
   50MOL0     C 6628   7.629   9.395   5.120 -0.3308 -0.0751  0.4699
   50MOL0     C 6629   7.476   9.407   5.123  0.1298  0.0831 -0.9434
   50MOL0     C 6630   7.412   9.274   5.094  0.1521  0.4098  0.3352
   50MOL0     C 6631   7.266   9.283   5.080  0.0294 -0.2950  0.6467
   50MOL0     N 6632   7.226   9.276   4.941  0.3588 -0.1036 -0.3928
   50MOL0     C 6633   7.200   9.166   4.870 -0.3583 -0.4902  0.2394
   50MOL0     C 6634   7.164   9.205   4.749 -0.8725  0.2464  0.1681
   50MOL0     C 6635   7.103   9.113   4.652  0.4581 -0.7458 -0.7309
   50MOL0     C 6636   7.162   9.128   4.509 -0.3553 -0.2211 -0.1530
   50MOL0     C 6637   7.303   9.064   4.486 -1.1674 -0.1364  0.3617
   50MOL0     C 6638   7.414   9.139   4.563  0.6168 -0.0423  1.1682
   50MOL0     O 6639   7.543   9.130   4.511 -0.0343 -0.2410  0.1350
   50MOL0     C 6640   7.660   9.166   4.573  0.4870  0.0375 -0.4988
   50MOL0     C 6641   7.781   9.154   4.501  1.0011  0.4665  0.5122
   50MOL0     C 6642   7.903   9.188   4.554 -0.5567  0.5523 -0.7389
   50MOL0     C 6643   8.026   9.151   4.478 -0.3533 -0.3861  0.2242
   50MOL0     C 6644   7.906   9.243   4.687  0.6440  0.3210  0.3438
   50MOL0     C 6645   8.027   9.289   4.756 -0.3778  0.5679  0.0261
   50MOL0     O 6646   8.024   9.299   4.888  0.9795 -0.2913  0.7607
   50MOL0     C 6647   8.130   9.331   4.965  0.0488 -0.1617  0.6768
   50MOL0     C 6648   8.159   9.258   5.081 -0.8199 -0.1402  0.2236
   50MOL0     C 6649   8.252   9.298   5.167 -0.2233  0.2644 -0.7799
   50MOL0     C 6650   8.341   9.403   5.133  1.0556  0.1696 -0.3359
   50MOL0     O 6651   8.429   9.439   5.236 -0.3245  0.6011 -0.6433
   50MOL0     C 6652   8.557   9.454   5.182 -1.1600 -0.4560  0.3360
   50MOL0     C 6653   8.659   9.472   5.295  0.7582 -0.8912  0.8952
   50MOL0     C 6654   8.795   9.525   5.252 -0.2239  0.5025 -0.2061
   50MOL0     C 6655   8.899   9.516   5.369 -0.0757  0.4298 -0.4826
   50MOL0     C 6656   9.032   9.559   5.307 -0.4292  0.3159 -0.6636
   50MOL0     C 6657   9.044   9.708   5.264 -0.4125  0.0739  0.8996
   50MOL0     C 6658   9.186   9.754   5.263  0.4628 -0.1740  0.0316
   50MOL0     C 6659   9.200   9.897   5.221  0.2284 -0.6022  0.5313
   50MOL0    Cl 6660   9.380   9.935   5.218 -0.3462  0.4154 -0.0591
   50MOL0     C 6661   8.325   9.469   5.010 -0.0329 -0.0644 -0.3818
   50MOL0     C 6662   8.215   9.436   4.928  0.0351  0.3258 -0.2986
   50MOL0     O 6663   8.132   9.291   4.690 -0.0670  0.2387 -0.3416
   50MOL0     C 6664   7.782   9.258   4.756 -0.0060 -0.5854 -0.2884
   50MOL0     C 6665   7.660   9.220   4.694  0.2965 -0.5165 -0.3008
   50MOL0     N 6666   7.182   9.343   4.738  0.5729  0.5772  0.6175
   50MOL0     N 6667   7.212   9.383   4.858  0.1589  0.4920 -0.5827
   50MOL0     C 6668   8.140   9.052   5.565 -0.6029  0.0031 -0.3448
   50MOL0     C 6669   8.181   8.933   5.637  0.4476  0.5312 -0.8335
   50MOL0     C 6670   8.276   8.521   5.786 -0.7457 -0.2268 -0.3271
   50MOL0     C 6671   8.251   8.487   5.917 -1.0045  0.0427  0.4107
   50MOL0     C 6672   8.342   8.398   5.986 -0.2965  0.4264 -0.2666
   50MOL0     C 6673   8.451   8.333   5.925 -0.3047  1.2245  1.2703
   50MOL0     O 6674   8.538   8.255   5.996 -0.1355 -0.2948 -0.2853
   50MOL0     C 6675   8.496   8.200   6.121  0.3328  0.1127  0.1744
   50MOL0     C 6676   8.595   8.082   6.162  0.6086 -0.5821  0.1041
   50MOL0     C 6677   8.540   8.013   6.277  0.6292 -1.0328  0.2878
   50MOL0     C 6678   8.573   8.070   6.420  0.0071 -0.2917  0.0473
   50MOL0     C 6679   8.704   8.025   6.455  0.1423  0.0779  0.1285
   50MOL0     C 6680   8.811   7.976   6.496  0.7302  0.3392 -0.4753
   50MOL0     C 6681   8.464   8.355   5.790  0.0455  0.3644 -0.5283
   50MOL0     C 6682   8.383   8.444   5.721  0.4037 -0.3430  0.1567
   50MOL0     H 6683   8.138   8.717   5.368 -0.9705 -1.5160  1.4662
   50MOL0     H 6684   8.047   8.924   5.269 -0.4686 -0.5658 -0.5647
   50MOL0     H 6685   8.035   9.273   5.543 -3.6339 -0.1559  1.3561
   50MOL0     H 6686   8.073   9.363   5.393 -0.0198  0.5428  0.5942
   50MOL0     H 6687   7.799   9.239   5.470 -0.5681  1.9292  4.8900
   50MOL0     H 6688   7.844   9.404   5.490 -0.6338 -0.6003  0.7822
   50MOL0     H 6689   7.855   9.462   5.277 -2.7512  1.0653  0.9449
   50MOL0     H 6690   7.865   9.282   5.224  1.6323  0.2826  0.5144
   50MOL0     H 6691   7.637   9.266   5.293  1.3648  0.4104  2.3591
   50MOL0     H 6692   7.630   9.439   5.328 -2.1178 -0.1591 -1.3150
   50MOL0     H 6693   7.672   9.492   5.094  2.1683 -0.5547  2.5033
   50MOL0     H 6694   7.665   9.320   5.048 -2.2814  0.2375 -0.9236
   50MOL0     H 6695   7.436   9.449   5.215 -1.6933 -1.3962 -0.9947
   50MOL0     H 6696   7.451   9.476   5.041  1.0157  0.0687 -1.2335
   50MOL0     H 6697   7.451   9.236   4.999 -0.2296  0.0983  0.3005
   50MOL0     H 6698   7.425   9.210   5.181  1.1334  2.1824  1.5732
   50MOL0     H 6699   7.227   9.369   5.136 -1.3397 -1.0137  0.8234
   50MOL0     H 6700   7.219   9.196   5.126  1.5217  0.2695  3.4335
   50MOL0     H 6701   7.179   9.068   4.912 -1.4594  0.3632  1.7933
   50MOL0     H 6702   7.110   9.014   4.697  2.6407  0.7009  2.5351
   50MOL0     H 6703   6.995   9.131   4.650  0.5451  0.4383  1.4955
   50MOL0     H 6704   7.165   9.237   4.500 -3.3999  0.1586  1.8736
   50MOL0     H 6705   7.089   9.092   4.436  0.5503  0.9006 -1.6633
   50MOL0     H 6706   7.330   9.086   4.383  0.1454 -0.0810  0.6953
   50MOL0     H 6707   7.308   8.955   4.496  2.7220 -0.3713 -1.9179
   50MOL0     H 6708   7.419   9.083   4.657  0.3766 -1.8043  0.1612
   50MOL0     H 6709   7.376   9.241   4.577 -0.4380 -0.2112 -0.2658
   50MOL0     H 6710   7.772   9.101   4.406 -0.1508 -3.4095  2.5615
   50MOL0     H 6711   8.088   9.239   4.457  0.2765 -0.1761  2.7042
   50MOL0     H 6712   8.092   9.077   4.524  0.0548  0.2343  0.6460
   50MOL0     H 6713   8.007   9.107   4.379  0.2573  3.1969 -1.6502
   50MOL0     H 6714   8.092   9.176   5.102 -2.0790  0.7577 -0.1590
   50MOL0     H 6715   8.270   9.254   5.264 -0.1267 -1.9485 -1.7220
   50MOL0     H 6716   8.599   9.364   5.136 -0.6656 -0.3659  0.6053
   50MOL0     H 6717   8.560   9.532   5.106  3.8118 -1.3861 -0.7515
   50MOL0     H 6718   8.627   9.550   5.364 -0.8908 -1.5288  0.8940
   50MOL0     H 6719   8.657   9.378   5.351  0.1490  0.6656  3.6616
   50MOL0     H 6720   8.785   9.624   5.207 -1.1747  0.7959  0.6337
   50MOL0     H 6721   8.822   9.459   5.169 -0.5626 -3.9464  2.8602
   50MOL0     H 6722   8.867   9.585   5.447 -2.5290  0.6183 -1.5614
   50MOL0     H 6723   8.910   9.415   5.409  0.0822  0.3282 -0.7804
   50MOL0     H 6724   9.053   9.491   5.223 -0.0204 -2.5185  1.5780
   50MOL0     H 6725   9.107   9.544   5.385 -0.7110  0.5366 -0.3529
   50MOL0     H 6726   8.997   9.725   5.167  1.1934 -1.0414 -0.1253
   50MOL0     H 6727   8.988   9.757   5.344  0.1685  1.4009  0.5260
   50MOL0     H 6728   9.251   9.700   5.195 -0.3088 -1.7498  0.4937
   50MOL0     H 6729   9.225   9.738   5.364 -3.0058 -3.1307  1.1469
   50MOL0     H 6730   9.152   9.958   5.298 -2.2352 -2.6691  0.7594
   50MOL0     H 6731   9.142   9.921   5.131 -2.1467 -2.4172  1.4849
   50MOL0     H 6732   8.397   9.549   4.998  0.3579 -0.4689 -0.7759
   50MOL0     H 6733   8.197   9.491   4.837  1.7957 -1.2203 -1.6529
   50MOL0     H 6734   7.784   9.299   4.857 -1.1290  0.7505 -0.7851
   50MOL0     H 6735   7.565   9.240   4.744  0.2728  0.0728 -0.5754
   50MOL0     H 6736   8.168   9.147   5.610  3.4070  0.2020 -2.7115
   50MOL0     H 6737   8.211   8.939   5.741 -0.4833 -2.0923 -0.3340
   50MOL0     H 6738   8.176   8.535   5.980  1.5967  0.3442  3.5658
   50MOL0     H 6739   8.320   8.374   6.090 -2.2719  0.1234 -0.7066
   50MOL0     H 6740   8.487   8.276   6.199 -1.3277  2.2195 -1.9210
   50MOL0     H 6741   8.395   8.158   6.115 -0.1849  1.4193 -0.7257
   50MOL0     H 6742   8.700   8.110   6.177  1.2413 -0.6658 -3.2111
   50MOL0     H 6743   8.595   8.011   6.078 -0.4246  0.5113 -0.8557
   50MOL0     H 6744   8.559   7.905   6.269  1.0600 -1.0130  0.9386
   50MOL0     H 6745   8.432   8.030   6.276  0.4572 -1.8007 -2.2377
   50MOL0     H 6746   8.511   8.027   6.499  0.6507  0.4959  0.9869
   50MOL0     H 6747   8.549   8.176   6.423  3.1760  0.8490 -4.2848
   50MOL0     H 6748   8.904   7.939   6.536  0.1263 -0.9206 -0.2140
   50MOL0     H 6749   8.548   8.311   5.736 -1.6057 -0.6427 -2.4241
   50MOL0     H 6750   8.406   8.473   5.618 -0.8474 -1.5579 -0.4969
   51MOL0     O 6751   1.238   2.860   8.086  0.6484 -0.3844 -0.2421
   51MOL0     C 6752   1.349   2.920   8.081  0.2399 -0.1678  0.1848
   51MOL0     O 6753   1.403   3.010   8.175 -0.6785  0.3378  0.6103
   51MOL0     C 6754   1.333   3.062   8.283  0.7207  0.6107  1.2316
   51MOL0     C 6755   1.409   3.145   8.369 -0.3967  0.4381  0.0101
   51MOL0     C 6756   1.341   3.214   8.465 -0.1029  0.3524 -0.0825
   51MOL0     C 6757   1.209   3.212   8.488 -0.5632 -0.6223  0.6206
   51MOL0     O 6758   1.154   3.280   8.593 -0.1856 -0.3090 -0.2411
   51MOL0     C 6759   1.022   3.329   8.558 -0.3857  0.5904 -0.1446
   51MOL0     C 6760   0.969   3.430   8.650  0.0758 -0.6048  0.2119
   51MOL0     C 6761   0.978   3.398   8.800 -0.4007  0.5711  0.0086
   51MOL0     C 6762   0.932   3.509   8.901  0.3576  0.6235  0.0880
   51MOL0     C 6763   0.791   3.574   8.870  0.0552 -0.0911  1.0489
   51MOL0     C 6764   0.679   3.466   8.863  0.1134  0.1796 -0.4712
   51MOL0     C 6765   0.534   3.523   8.857  0.1952  0.2442  0.7902
   51MOL0     C 6766   0.440   3.402   8.811  0.0038 -0.0276  0.1987
   51MOL0     N 6767   0.307   3.449   8.819  0.1000 -0.4576 -1.0402
   51MOL0     C 6768   0.238   3.499   8.927  0.1271 -0.1172 -0.7012
   51MOL0     C 6769   0.108   3.527   8.895  0.5909  0.0883  0.4809
   51MOL0     C 6770  -0.012   3.573   8.978 -0.5055 -0.5562  0.0363
   51MOL0     C 6771  -0.045   3.476   9.090 -0.7307 -0.0861  0.7623
   51MOL0     C 6772  -0.083   3.330   9.036 -0.2253  1.1839 -0.6265
   51MOL0     C 6773  -0.085   3.230   9.157  0.1830 -0.3044  0.7609
   51MOL0     O 6774  -0.193   3.258   9.249 -0.0709 -0.1298 -0.1453
   51MOL0     C 6775  -0.323   3.221   9.262 -0.0436  0.3644 -1.0692
   51MOL0     C 6776  -0.380   3.111   9.202 -0.0142 -0.0055 -0.2723
   51MOL0     C 6777  -0.516   3.086   9.241 -0.1968 -0.7499 -0.3443
   51MOL0     C 6778  -0.584   2.969   9.169 -0.1599  0.3908  0.3350
   51MOL0     C 6779  -0.584   3.165   9.333  0.1089 -0.0016 -0.0106
   51MOL0     C 6780  -0.723   3.130   9.374 -0.0775  0.4822  0.6702
   51MOL0     O 6781  -0.808   3.085   9.278 -0.1869  0.1076 -1.4134
   51MOL0     C 6782  -0.910   2.995   9.304  0.6822 -0.1046  0.5523
   51MOL0     C 6783  -0.901   2.892   9.405 -0.1925 -0.4972 -0.4866
   51MOL0     C 6784  -1.005   2.799   9.419 -0.4312 -0.5718  0.1498
   51MOL0     C 6785  -1.122   2.817   9.349 -0.4575 -0.0743  0.9726
   51MOL0     O 6786  -1.220   2.721   9.364 -0.1685  0.7210  0.7604
   51MOL0     C 6787  -1.349   2.725   9.293 -0.3918 -0.3649 -0.9178
   51MOL0     C 6788  -1.373   2.578   9.253  0.6706  0.2222  0.5742
   51MOL0     C 6789  -1.273   2.516   9.150 -0.4338 -0.8753  1.4024
   51MOL0     C 6790  -1.305   2.366   9.115 -0.0239  0.2982  0.0614
   51MOL0     C 6791  -1.219   2.315   8.994  0.0260 -0.4447 -0.5456
   51MOL0     C 6792  -1.079   2.280   9.045  0.2928 -0.9342  0.6160
   51MOL0     C 6793  -0.984   2.286   8.923 -0.4099  0.6759 -0.3180
   51MOL0     C 6794  -0.845   2.237   8.958  0.3686 -0.0125  0.1864
   51MOL0    Cl 6795  -0.769   2.155   8.811 -0.3476  0.1730 -0.0886
   51MOL0     C 6796  -1.138   2.931   9.270 -0.0171 -0.6811 -0.1217
   51MOL0     C 6797  -1.034   3.012   9.231 -0.0907  0.6908 -0.7759
   51MOL0     O 6798  -0.758   3.153   9.485 -0.4437 -0.4277 -0.2984
   51MOL0     C 6799  -0.528   3.277   9.387 -0.1609  0.3951  0.3102
   51MOL0     C 6800  -0.401   3.302   9.352 -1.1941 -0.1792  0.3447
   51MOL0     N 6801   0.101   3.499   8.760 -0.1101  0.8383  0.4306
   51MOL0     N 6802   0.218   3.446   8.722 -0.0749  0.3261  0.9252
   51MOL0     C 6803   1.140   3.119   8.404  1.0695  0.0945 -0.0834
   51MOL0     C 6804   1.200   3.044   8.313 -0.1271  0.0683 -0.0692
   51MOL0     C 6805   1.434   2.888   7.969 -0.6340  0.8829 -0.1548
   51MOL0     C 6806   1.427   2.760   7.914 -0.8406 -0.4378 -0.4679
   51MOL0     C 6807   1.520   2.729   7.810 -0.1481  0.7693 -0.7741
   51MOL0     C 6808   1.615   2.814   7.767 -0.2345 -0.8902 -0.7448
   51MOL0     O 6809   1.713   2.779   7.672  0.0439 -0.2601 -0.7014
   51MOL0     C 6810   1.762   2.644   7.671  0.2788  0.1642 -0.0403
   51MOL0     C 6811   1.897   2.629   7.603  0.9925  0.0783 -0.7039
   51MOL0     C 6812   1.882   2.632   7.457 -0.5601  0.9306  0.0922
   51MOL0     C 6813   2.006   2.690   7.382 -0.1495  0.3356  0.3610
   51MOL0     C 6814   2.127   2.608   7.406  0.2056 -0.1381  0.5673
   51MOL0     C 6815   2.238   2.564   7.425 -1.6894  0.1258  0.0393
   51MOL0     C 6816   1.626   2.939   7.826 -0.0767  0.7790  0.6161
   51MOL0     C 6817   1.538   2.978   7.926  0.6984  0.1614 -1.0668
   51MOL0     H 6818   1.516   3.158   8.358 -0.4273  0.0608 -0.7945
   51MOL0     H 6819   1.409   3.271   8.528  2.5543 -4.2814  1.7601
   51MOL0     H 6820   1.026   3.376   8.459 -0.5461  0.5457 -0.1721
   51MOL0     H 6821   0.947   3.250   8.553 -2.3840  2.3314  0.7993
   51MOL0     H 6822   1.033   3.518   8.633 -1.9281  0.4963 -2.3654
   51MOL0     H 6823   0.869   3.460   8.618  0.4668  1.3377  0.6923
   51MOL0     H 6824   0.949   3.297   8.832 -2.4939  0.8738 -0.7763
   51MOL0     H 6825   1.086   3.384   8.811 -0.3613  1.1661  0.4091
   51MOL0     H 6826   0.933   3.456   8.997 -2.1745 -2.0711 -1.2419
   51MOL0     H 6827   1.017   3.577   8.896  1.5577 -0.9092 -1.6404
   51MOL0     H 6828   0.776   3.655   8.942  1.1385  1.7103 -0.6458
   51MOL0     H 6829   0.795   3.633   8.778  0.6235 -0.6283  0.7187
   51MOL0     H 6830   0.695   3.404   8.775 -0.0584 -2.6064  1.3358
   51MOL0     H 6831   0.670   3.401   8.950 -2.6591  0.9330 -0.1018
   51MOL0     H 6832   0.492   3.563   8.950  0.9905  1.2228  0.7448
   51MOL0     H 6833   0.542   3.609   8.790  0.4860  0.4022  1.0237
   51MOL0     H 6834   0.451   3.314   8.875 -0.5317 -0.6193 -0.5088
   51MOL0     H 6835   0.473   3.367   8.713  1.8038  1.2600  0.2887
   51MOL0     H 6836   0.282   3.520   9.025 -1.9053  1.5121 -0.0703
   51MOL0     H 6837   0.022   3.663   9.030 -2.3690  0.5293 -0.5196
   51MOL0     H 6838  -0.097   3.596   8.914  1.7962  0.5761 -2.8313
   51MOL0     H 6839  -0.125   3.520   9.150  0.8056 -0.0359  2.8891
   51MOL0     H 6840   0.041   3.462   9.156  0.2916 -1.0355 -0.7227
   51MOL0     H 6841  -0.007   3.287   8.971 -1.2571 -0.9771 -0.5010
   51MOL0     H 6842  -0.176   3.331   8.978 -0.3746 -2.4506 -0.6927
   51MOL0     H 6843   0.014   3.242   9.203  0.1657  1.4967  0.4235
   51MOL0     H 6844  -0.104   3.131   9.115  1.2571 -0.7615  1.3085
   51MOL0     H 6845  -0.323   3.050   9.133  0.8147  0.4613 -0.0169
   51MOL0     H 6846  -0.518   2.916   9.101  1.1129  1.7653  0.4432
   51MOL0     H 6847  -0.619   2.887   9.233 -3.1300  2.7177  2.0034
   51MOL0     H 6848  -0.669   3.009   9.113 -1.1283 -0.8334  0.8665
   51MOL0     H 6849  -0.819   2.884   9.476 -1.0174 -1.0106  0.4400
   51MOL0     H 6850  -0.991   2.715   9.487  1.0251 -0.1261  0.4442
   51MOL0     H 6851  -1.425   2.781   9.349  0.3200  1.8650 -2.0926
   51MOL0     H 6852  -1.334   2.775   9.197  2.1449 -2.6787 -1.8694
   51MOL0     H 6853  -1.380   2.518   9.344 -0.3899 -2.0691 -0.9119
   51MOL0     H 6854  -1.473   2.569   9.208  0.9075  1.0342 -0.1536
   51MOL0     H 6855  -1.169   2.522   9.183  0.6788 -3.2284 -1.2816
   51MOL0     H 6856  -1.279   2.571   9.056  0.0731 -0.2934  1.7093
   51MOL0     H 6857  -1.292   2.311   9.209 -1.5177  2.2817  1.5283
   51MOL0     H 6858  -1.412   2.360   9.093  0.2872 -2.4800 -1.1515
   51MOL0     H 6859  -1.222   2.401   8.926  0.9848 -0.3261 -0.4483
   51MOL0     H 6860  -1.262   2.227   8.946 -0.2248 -1.6997  1.8489
   51MOL0     H 6861  -1.042   2.342   9.127 -3.2211  0.0194  1.6353
   51MOL0     H 6862  -1.084   2.175   9.073  1.5547 -0.8118  1.3802
   51MOL0     H 6863  -0.986   2.387   8.881  1.8705  0.4379 -1.1447
   51MOL0     H 6864  -1.019   2.220   8.844  0.8855  0.4640 -0.7414
   51MOL0     H 6865  -0.851   2.169   9.043 -1.0479  0.1443  0.2315
   51MOL0     H 6866  -0.790   2.322   8.999  0.1598 -0.9859  2.6035
   51MOL0     H 6867  -1.230   2.942   9.212 -0.0777 -0.7953 -0.0474
   51MOL0     H 6868  -1.039   3.082   9.149 -1.0430  0.5988 -0.8089
   51MOL0     H 6869  -0.581   3.344   9.454 -0.8162  1.1141 -0.8962
   51MOL0     H 6870  -0.345   3.386   9.391  0.6977 -1.5987  0.8519
   51MOL0     H 6871   1.035   3.103   8.425  1.4774 -2.2879  0.4347
   51MOL0     H 6872   1.147   2.956   8.277  0.7955 -0.8571  0.7657
   51MOL0     H 6873   1.345   2.690   7.929 -1.2861  0.2600  0.4789
   51MOL0     H 6874   1.528   2.630   7.766  1.6994  1.3763 -1.9053
   51MOL0     H 6875   1.764   2.602   7.772  1.1669 -0.8564 -0.4582
   51MOL0     H 6876   1.685   2.591   7.613 -0.1717  0.4944  0.2525
   51MOL0     H 6877   1.940   2.535   7.640  1.2579  0.5175  0.1465
   51MOL0     H 6878   1.968   2.703   7.642 -0.3358  1.8819 -1.5551
   51MOL0     H 6879   1.802   2.702   7.433 -0.1576  1.0981 -0.7804
   51MOL0     H 6880   1.851   2.532   7.424 -0.6397  0.5661  1.2147
   51MOL0     H 6881   2.016   2.795   7.412 -3.3046  1.4863 -2.1290
   51MOL0     H 6882   1.989   2.696   7.274  0.2532 -0.7812  0.2309
   51MOL0     H 6883   2.331   2.510   7.426 -0.7649  1.6436  1.2312
   51MOL0     H 6884   1.717   2.991   7.797  1.4071 -0.3814  2.8272
   51MOL0     H 6885   1.557   3.076   7.967  2.2437 -0.4322 -0.3024
   52MOL0     O 6886   6.254   3.352   2.110  0.2156  0.4305 -0.1169
   52MOL0     C 6887   6.280   3.354   2.232 -1.0330 -0.1429 -0.7660
   52MOL0     O 6888   6.194   3.378   2.337  0.0466 -0.2369 -0.5172
   52MOL0     C 6889   6.061   3.349   2.309  0.0194  0.7800  0.0194
   52MOL0     C 6890   5.983   3.435   2.237  0.4938 -1.2116  0.3912
   52MOL0     C 6891   5.843   3.411   2.236 -0.4025 -0.6053  0.2111
   52MOL0     C 6892   5.786   3.299   2.279 -0.6715  0.5869  0.0822
   52MOL0     O 6893   5.651   3.283   2.266 -0.0058  0.1781  0.5327
   52MOL0     C 6894   5.593   3.156   2.302  0.4134  0.2904  0.3698
   52MOL0     C 6895   5.444   3.148   2.275 -0.4144 -0.0857 -0.6772
   52MOL0     C 6896   5.390   3.012   2.313  0.2418  0.0673  0.3235
   52MOL0     C 6897   5.245   2.988   2.261 -0.7336 -0.8920  0.6370
   52MOL0     C 6898   5.140   3.099   2.285  0.5707 -0.3530  0.0602
   52MOL0     C 6899   4.995   3.063   2.242  0.2640 -0.0467 -0.9073
   52MOL0     C 6900   4.895   3.181   2.255  0.7164 -0.5119  0.4777
   52MOL0     C 6901   4.776   3.176   2.151  0.4499 -0.0824 -0.6528
   52MOL0     N 6902   4.679   3.074   2.181  0.1670 -0.0835 -0.2916
   52MOL0     C 6903   4.635   3.049   2.315 -1.0853  0.4108  0.4923
   52MOL0     C 6904   4.530   2.961   2.302  0.6295 -0.7536 -0.2426
   52MOL0     C 6905   4.459   2.899   2.421  0.5478  0.0730  0.8951
   52MOL0     C 6906   4.316   2.940   2.441 -0.0129 -0.5277  0.4707
   52MOL0     C 6907   4.227   2.880   2.331 -0.0541  0.4035 -0.7514
   52MOL0     C 6908   4.078   2.896   2.346  0.3904  1.0260 -1.0983
   52MOL0     O 6909   4.039   3.015   2.413  0.5425 -0.2031 -0.3358
   52MOL0     C 6910   3.948   3.017   2.518  0.1927 -0.0635  0.2240
   52MOL0     C 6911   3.917   2.914   2.609  0.7732 -0.3417  0.6039
   52MOL0     C 6912   3.807   2.932   2.698  0.9688  0.1388  0.3274
   52MOL0     C 6913   3.773   2.822   2.791  0.5277  0.3406  0.5677
   52MOL0     C 6914   3.735   3.054   2.698 -0.1490  0.0920  0.4416
   52MOL0     C 6915   3.599   3.073   2.761 -0.6388 -0.1865 -0.6345
   52MOL0     O 6916   3.563   3.197   2.796 -0.3597  0.0778 -0.0901
   52MOL0     C 6917   3.436   3.212   2.847 -0.1562 -0.6996 -0.3899
   52MOL0     C 6918   3.374   3.328   2.798 -0.3912 -0.4207  0.0613
   52MOL0     C 6919   3.237   3.363   2.821  0.2982  0.8173  0.6780
   52MOL0     C 6920   3.159   3.271   2.903  0.0410 -0.1784  0.0055
   52MOL0     O 6921   3.025   3.283   2.918  0.7718  0.2863 -0.4991
   52MOL0     C 6922   2.953   3.399   2.869  0.6146  0.8195  0.4687
   52MOL0     C 6923   2.804   3.427   2.916 -0.3920 -1.2684 -0.5152
   52MOL0     C 6924   2.779   3.578   2.887  0.3328  0.1285 -0.3626
   52MOL0     C 6925   2.644   3.616   2.946  1.1738  0.5870  1.1385
   52MOL0     C 6926   2.611   3.760   2.901  0.6974  0.5610 -0.3547
   52MOL0     C 6927   2.476   3.805   2.955  0.5464 -0.7773  0.3827
   52MOL0     C 6928   2.366   3.775   2.846  0.3155 -0.0347  0.7857
   52MOL0     C 6929   2.226   3.782   2.902  0.0650  0.4718 -0.5896
   52MOL0    Cl 6930   2.172   3.951   2.896  0.1011  0.0190 -0.0418
   52MOL0     C 6931   3.225   3.165   2.959  0.6230 -0.1329 -0.5094
   52MOL0     C 6932   3.363   3.138   2.940 -0.5265  0.8589 -0.3800
   52MOL0     O 6933   3.531   2.971   2.771 -0.2850  0.2749  0.5344
   52MOL0     C 6934   3.793   3.162   2.634 -0.2795 -1.6621  0.4606
   52MOL0     C 6935   3.896   3.139   2.540 -0.0778 -1.1531  0.0963
   52MOL0     N 6936   4.501   2.934   2.168 -0.0868  0.6888  0.5497
   52MOL0     N 6937   4.592   3.010   2.098  0.5743 -0.1133 -1.0880
   52MOL0     C 6938   5.872   3.206   2.343 -0.0095  0.3397  0.5257
   52MOL0     C 6939   6.009   3.232   2.366  0.0492 -0.0419  0.2630
   52MOL0     C 6940   6.420   3.322   2.262 -0.2262 -0.8134  0.2438
   52MOL0     C 6941   6.458   3.273   2.391  0.0961  0.9707  0.2193
   52MOL0     C 6942   6.597   3.223   2.404  0.6831 -0.2072 -0.3593
   52MOL0     C 6943   6.700   3.227   2.299  0.2371  0.8741  0.1746
   52MOL0     O 6944   6.820   3.158   2.297 -0.7658 -0.4134 -0.7534
   52MOL0     C 6945   6.845   3.091   2.419 -0.8925 -0.2358 -0.8254
   52MOL0     C 6946   6.976   3.019   2.409  0.7418  1.2951  0.1694
   52MOL0     C 6947   7.015   2.972   2.559  0.1126 -0.1950  0.8675
   52MOL0     C 6948   7.151   2.902   2.568  0.4608 -0.9418 -0.5059
   52MOL0     C 6949   7.164   2.850   2.702 -0.6399  0.1545 -0.8618
   52MOL0     C 6950   7.178   2.797   2.813  0.6249  0.2940 -0.4927
   52MOL0     C 6951   6.661   3.294   2.185 -0.0147  0.6461  0.8674
   52MOL0     C 6952   6.529   3.345   2.174  0.3467  0.4769  0.8060
   52MOL0     H 6953   6.026   3.526   2.198 -0.3300 -1.0370 -0.1352
   52MOL0     H 6954   5.785   3.492   2.194  2.3797  1.8987  0.8115
   52MOL0     H 6955   5.638   3.080   2.238 -1.7825 -0.7588 -0.0041
   52MOL0     H 6956   5.608   3.134   2.408 -1.7072  0.7348  0.8058
   52MOL0     H 6957   5.382   3.228   2.317  1.3699  0.6696  0.6558
   52MOL0     H 6958   5.453   3.142   2.166  1.4405 -1.8003 -0.5020
   52MOL0     H 6959   5.455   2.938   2.267  0.4377 -0.1041  0.8682
   52MOL0     H 6960   5.393   3.010   2.422  0.5601  0.2702  0.3210
   52MOL0     H 6961   5.254   2.976   2.153  0.0690 -1.2443  0.7399
   52MOL0     H 6962   5.206   2.895   2.305 -1.0586 -1.2496 -0.3887
   52MOL0     H 6963   5.129   3.116   2.393 -1.8127 -0.8620 -0.0651
   52MOL0     H 6964   5.158   3.187   2.224 -2.7446 -0.4427 -1.2080
   52MOL0     H 6965   5.012   3.032   2.139  1.7038  0.1724 -0.7501
   52MOL0     H 6966   4.960   2.971   2.290 -0.0247  0.2403 -0.5563
   52MOL0     H 6967   4.862   3.192   2.358 -2.8126  3.0906 -0.8049
   52MOL0     H 6968   4.955   3.270   2.232  2.1338 -1.9349 -1.8416
   52MOL0     H 6969   4.820   3.156   2.053 -0.0494 -0.7506 -0.7512
   52MOL0     H 6970   4.731   3.275   2.139  3.8290  1.3261 -3.3081
   52MOL0     H 6971   4.691   3.081   2.402  0.9890  0.8207 -0.9344
   52MOL0     H 6972   4.458   2.793   2.391 -0.4442  0.8827 -2.3040
   52MOL0     H 6973   4.519   2.894   2.512 -1.1936 -0.7599  2.0554
   52MOL0     H 6974   4.304   3.049   2.448 -0.1611 -0.6054  1.7221
   52MOL0     H 6975   4.287   2.899   2.538  2.1735  1.7695  2.2398
   52MOL0     H 6976   4.248   2.775   2.310 -0.0334 -0.2005  1.9342
   52MOL0     H 6977   4.250   2.932   2.237  3.0168 -0.1974 -0.4249
   52MOL0     H 6978   4.040   2.806   2.395  1.6618  1.2811  0.4000
   52MOL0     H 6979   4.020   2.893   2.253 -2.0848 -1.0161  0.4037
   52MOL0     H 6980   3.967   2.818   2.608 -0.6577 -1.1367  1.6312
   52MOL0     H 6981   3.858   2.756   2.812  0.6373  0.7470  1.4211
   52MOL0     H 6982   3.747   2.864   2.888  1.2191  1.9572  0.0961
   52MOL0     H 6983   3.687   2.770   2.748  1.4231  1.3350 -2.7638
   52MOL0     H 6984   3.416   3.397   2.726 -2.4006  1.7970  0.8771
   52MOL0     H 6985   3.200   3.448   2.765  1.9097 -0.4072 -2.4663
   52MOL0     H 6986   3.006   3.494   2.875  1.2907  0.9115 -3.5659
   52MOL0     H 6987   2.945   3.370   2.763 -1.6563 -2.9064  1.4769
   52MOL0     H 6988   2.729   3.359   2.875 -1.4058 -0.3974 -0.1454
   52MOL0     H 6989   2.808   3.411   3.024  0.9534 -1.8140 -0.6192
   52MOL0     H 6990   2.765   3.586   2.779 -0.7993 -0.9368 -0.3213
   52MOL0     H 6991   2.855   3.645   2.929 -0.5846  0.9703 -0.0213
   52MOL0     H 6992   2.568   3.544   2.915  0.0787  1.4412  1.7684
   52MOL0     H 6993   2.629   3.609   3.054 -1.3994  2.2723  0.9933
   52MOL0     H 6994   2.618   3.769   2.792  3.0574 -0.8340 -0.3903
   52MOL0     H 6995   2.690   3.824   2.942  0.8063 -0.5242  1.2418
   52MOL0     H 6996   2.461   3.751   3.049  1.3101 -0.8803  0.4545
   52MOL0     H 6997   2.465   3.911   2.982  0.3755  0.2890 -3.2246
   52MOL0     H 6998   2.373   3.667   2.827 -0.6450  0.2025 -1.1680
   52MOL0     H 6999   2.379   3.836   2.756  2.4325 -5.5828 -3.2541
   52MOL0     H 7000   2.212   3.751   3.006  0.5199  4.2889  0.7954
   52MOL0     H 7001   2.159   3.714   2.849 -1.6783  0.5444  1.3835
   52MOL0     H 7002   3.173   3.111   3.036  0.6631 -0.4642 -0.7140
   52MOL0     H 7003   3.414   3.054   2.987  0.9299  1.8205 -0.1774
   52MOL0     H 7004   3.742   3.257   2.629  1.0076 -1.0103 -2.1313
   52MOL0     H 7005   3.934   3.216   2.474 -1.2316 -0.5449  0.1155
   52MOL0     H 7006   5.832   3.114   2.384 -2.5493  0.0146 -2.3056
   52MOL0     H 7007   6.061   3.178   2.443  3.9664 -0.5883 -2.4685
   52MOL0     H 7008   6.384   3.267   2.471 -1.0835 -2.9310 -0.9445
   52MOL0     H 7009   6.612   3.170   2.497  1.2576 -0.9118 -0.8463
   52MOL0     H 7010   6.845   3.158   2.505  0.6223 -0.2480 -0.7874
   52MOL0     H 7011   6.761   3.026   2.445 -1.5552  1.5868  2.1024
   52MOL0     H 7012   7.045   3.090   2.361  0.0807  1.9080  0.1158
   52MOL0     H 7013   6.953   2.933   2.344  0.2377  0.3740  1.5314
   52MOL0     H 7014   6.940   2.902   2.597  0.1754 -0.7369  0.0324
   52MOL0     H 7015   7.016   3.066   2.615 -0.4158  2.2682 -2.9082
   52MOL0     H 7016   7.238   2.966   2.546  0.2482 -0.8117 -0.9690
   52MOL0     H 7017   7.157   2.817   2.499 -0.5541 -1.0800 -0.4337
   52MOL0     H 7018   7.184   2.756   2.912 -1.9644  1.2386  0.1195
   52MOL0     H 7019   6.742   3.301   2.113  0.2579 -2.5280  0.7123
   52MOL0     H 7020   6.497   3.386   2.079  2.3514 -1.4297 -0.7915
   53MOL0     O 7021   5.818   0.747   3.383 -0.4898 -0.7370 -0.4834
   53MOL0     C 7022   5.841   0.867   3.415  0.2806 -0.0485 -0.0204
   53MOL0     O 7023   5.748   0.977   3.394 -0.4141 -0.2684  0.8739
   53MOL0     C 7024   5.621   0.939   3.355 -0.6288 -0.2349 -0.3460
   53MOL0     C 7025   5.552   0.827   3.390  0.3598 -0.5414  0.3354
   53MOL0     C 7026   5.423   0.804   3.342  0.8447 -0.1781 -0.4340
   53MOL0     C 7027   5.358   0.900   3.259 -0.3713  0.6868  0.4694
   53MOL0     O 7028   5.233   0.878   3.218  0.1564 -0.5299  0.4405
   53MOL0     C 7029   5.168   0.749   3.245  0.2790 -0.2578 -0.0767
   53MOL0     C 7030   5.076   0.748   3.132  0.5721  0.0862 -0.1910
   53MOL0     C 7031   5.051   0.613   3.075  0.7484 -0.6048  0.7859
   53MOL0     C 7032   4.979   0.618   2.942 -0.6117  0.1982 -1.0749
   53MOL0     C 7033   4.913   0.496   2.881  0.1339 -0.4228 -0.3017
   53MOL0     C 7034   4.995   0.362   2.868  0.5186 -1.3803  0.4282
   53MOL0     C 7035   4.896   0.242   2.845 -0.4911  0.0029 -0.4116
   53MOL0     C 7036   4.804   0.242   2.720 -0.2631 -0.4076  0.7203
   53MOL0     N 7037   4.688   0.140   2.733  0.2301  0.5650  0.3577
   53MOL0     C 7038   4.688   0.020   2.804 -0.1346  0.1764 -1.5604
   53MOL0     C 7039   4.579  -0.055   2.757 -0.2935 -1.0410 -0.1591
   53MOL0     C 7040   4.538  -0.189   2.789  0.2622  0.6603  0.3985
   53MOL0     C 7041   4.392  -0.191   2.837  0.3440  0.3840 -0.9935
   53MOL0     C 7042   4.358  -0.340   2.854  0.3562 -0.1370 -0.3206
   53MOL0     C 7043   4.208  -0.354   2.882 -0.3380 -0.0511  1.2329
   53MOL0     O 7044   4.174  -0.315   3.018 -0.1021 -0.3066 -0.0071
   53MOL0     C 7045   4.040  -0.325   3.053  0.1019 -0.5573 -0.1725
   53MOL0     C 7046   3.937  -0.382   2.978 -0.0578 -1.0247  0.1954
   53MOL0     C 7047   3.808  -0.403   3.024 -0.5293 -0.5476 -0.5114
   53MOL0     C 7048   3.719  -0.461   2.920 -0.3455  1.1251 -0.3588
   53MOL0     C 7049   3.783  -0.378   3.160 -0.7734  0.3857  0.4826
   53MOL0     C 7050   3.655  -0.397   3.217 -0.1115  0.4241 -0.2494
   53MOL0     O 7051   3.655  -0.394   3.352 -0.3015  0.3254 -0.6240
   53MOL0     C 7052   3.547  -0.435   3.429  0.7732  0.2791  0.3103
   53MOL0     C 7053   3.558  -0.415   3.566 -0.6385  0.5406 -0.1770
   53MOL0     C 7054   3.464  -0.446   3.658 -0.3688  0.7105  0.7059
   53MOL0     C 7055   3.337  -0.488   3.613  0.0982  0.0047  0.0907
   53MOL0     O 7056   3.231  -0.530   3.693  0.1280 -1.1534  0.6051
   53MOL0     C 7057   3.213  -0.455   3.811 -0.8953 -0.0156 -0.5940
   53MOL0     C 7058   3.082  -0.366   3.796 -0.8671  0.5678  0.3282
   53MOL0     C 7059   2.952  -0.434   3.819  0.2611 -0.0968  0.2665
   53MOL0     C 7060   2.828  -0.346   3.815  0.1559 -0.8466 -0.5233
   53MOL0     C 7061   2.693  -0.428   3.810  0.1011  0.7516  0.7242
   53MOL0     C 7062   2.589  -0.364   3.716  0.3047 -0.1516 -0.4587
   53MOL0     C 7063   2.438  -0.417   3.740  0.0372  0.4938  0.3124
   53MOL0     C 7064   2.417  -0.565   3.682  0.0691 -0.1049 -0.0358
   53MOL0    Cl 7065   2.253  -0.619   3.717  0.0870 -0.1085  0.5495
   53MOL0     C 7066   3.318  -0.502   3.477  0.4863 -0.2260 -0.9278
   53MOL0     C 7067   3.416  -0.469   3.388 -0.2936  0.2632  0.1072
   53MOL0     O 7068   3.556  -0.429   3.149 -0.3377 -0.0398  0.8937
   53MOL0     C 7069   3.884  -0.311   3.239  0.3239  1.1691 -0.2275
   53MOL0     C 7070   4.013  -0.288   3.185 -0.0185  0.3841 -0.0063
   53MOL0     N 7071   4.532   0.023   2.654  0.0414  0.7509  0.9494
   53MOL0     N 7072   4.593   0.136   2.638  0.0174 -0.0381 -0.4112
   53MOL0     C 7073   5.428   1.016   3.217  0.3497  0.0903  0.5246
   53MOL0     C 7074   5.551   1.032   3.271 -0.0469  0.2871  0.3767
   53MOL0     C 7075   5.975   0.909   3.472 -0.4017  0.9771 -0.7728
   53MOL0     C 7076   6.082   0.815   3.474 -0.4996 -0.1940 -0.5877
   53MOL0     C 7077   6.205   0.857   3.523 -0.0727  0.8347 -0.1390
   53MOL0     C 7078   6.216   0.975   3.585 -0.7438  0.3096 -0.2494
   53MOL0     O 7079   6.342   1.005   3.638  0.0057  0.9706  0.4678
   53MOL0     C 7080   6.350   1.083   3.756  0.0168 -0.2944 -0.1968
   53MOL0     C 7081   6.492   1.066   3.805  0.4609  0.3407 -0.6919
   53MOL0     C 7082   6.513   0.924   3.862 -0.6338  0.8418 -0.5398
   53MOL0     C 7083   6.650   0.920   3.929  0.5451 -0.9725  0.4332
   53MOL0     C 7084   6.674   0.783   3.975  0.8008  0.1782  0.4839
   53MOL0     C 7085   6.707   0.673   4.020  0.0176 -0.2468  0.7369
   53MOL0     C 7086   6.108   1.066   3.586 -0.1072  0.1839  0.6395
   53MOL0     C 7087   5.986   1.035   3.521 -0.7979 -0.3359 -0.0410
   53MOL0     H 7088   5.588   0.755   3.463 -0.4257 -0.5668  0.7090
   53MOL0     H 7089   5.367   0.715   3.370 -3.1100  1.6805 -1.7671
   53MOL0     H 7090   5.238   0.666   3.234  2.4663  1.5445 -0.6418
   53MOL0     H 7091   5.106   0.749   3.335 -1.8607 -1.4038 -1.4470
   53MOL0     H 7092   4.977   0.788   3.155 -0.1494 -0.4672 -2.1113
   53MOL0     H 7093   5.118   0.809   3.051  1.1816 -1.5432 -1.1515
   53MOL0     H 7094   5.144   0.557   3.064  0.4971 -0.6707 -1.4060
   53MOL0     H 7095   4.989   0.557   3.145 -0.2945 -2.1153 -1.2443
   53MOL0     H 7096   4.896   0.686   2.962  1.2640  2.0115  1.0921
   53MOL0     H 7097   5.048   0.662   2.869  0.2306 -0.5809 -0.7789
   53MOL0     H 7098   4.825   0.475   2.943 -0.8471  3.6826 -0.0398
   53MOL0     H 7099   4.868   0.534   2.789 -0.5317  1.4171  0.7327
   53MOL0     H 7100   5.067   0.364   2.785  0.9955  0.1616  0.8631
   53MOL0     H 7101   5.055   0.352   2.958  2.3657 -0.4554 -0.6410
   53MOL0     H 7102   4.957   0.153   2.823 -3.1852 -2.0043 -0.3569
   53MOL0     H 7103   4.847   0.217   2.940 -0.0133 -1.9073 -0.6249
   53MOL0     H 7104   4.866   0.211   2.636 -0.3132  0.1334  0.4827
   53MOL0     H 7105   4.758   0.338   2.698 -3.6806 -2.6778 -3.7691
   53MOL0     H 7106   4.759  -0.006   2.883 -2.8885  0.7006  1.2913
   53MOL0     H 7107   4.540  -0.246   2.695 -0.2177 -1.0218  1.3674
   53MOL0     H 7108   4.595  -0.233   2.871  3.4490 -0.9533 -2.3947
   53MOL0     H 7109   4.318  -0.152   2.766 -1.7040 -1.5037 -0.0164
   53MOL0     H 7110   4.375  -0.142   2.933 -1.3880 -0.5485 -0.7770
   53MOL0     H 7111   4.422  -0.379   2.935  0.8981  1.2513 -0.0460
   53MOL0     H 7112   4.390  -0.383   2.759 -1.4093  1.5575 -1.7356
   53MOL0     H 7113   4.190  -0.462   2.878 -0.7451  0.0118  1.2782
   53MOL0     H 7114   4.153  -0.292   2.811  0.7346  0.8159  1.1421
   53MOL0     H 7115   3.957  -0.405   2.874  0.8569  0.9955 -0.1286
   53MOL0     H 7116   3.760  -0.446   2.819  1.0158  0.0604  0.0038
   53MOL0     H 7117   3.685  -0.564   2.933 -2.9119  2.0905  1.3373
   53MOL0     H 7118   3.625  -0.406   2.911 -0.9875  0.1795  0.4553
   53MOL0     H 7119   3.656  -0.380   3.598 -0.5214  1.6093 -1.6368
   53MOL0     H 7120   3.501  -0.446   3.760 -0.1736 -1.8727  0.6849
   53MOL0     H 7121   3.212  -0.530   3.891  2.5305  0.6221  0.1918
   53MOL0     H 7122   3.293  -0.384   3.831  0.6420 -1.8340  0.0691
   53MOL0     H 7123   3.082  -0.291   3.876 -1.7622 -1.7066  2.6299
   53MOL0     H 7124   3.085  -0.331   3.693 -1.6472 -0.9950 -0.2545
   53MOL0     H 7125   2.962  -0.494   3.910  3.2630  0.8315  0.6617
   53MOL0     H 7126   2.939  -0.509   3.740  2.1437 -0.1940 -0.0123
   53MOL0     H 7127   2.823  -0.270   3.894 -0.0766 -0.7925 -0.5891
   53MOL0     H 7128   2.838  -0.284   3.725  7.0156  0.8905  0.8737
   53MOL0     H 7129   2.657  -0.447   3.912 -1.4255  0.0554  0.0782
   53MOL0     H 7130   2.717  -0.523   3.763  1.0814  1.2908  0.0993
   53MOL0     H 7131   2.586  -0.257   3.741 -1.7818 -0.0536 -0.9301
   53MOL0     H 7132   2.607  -0.369   3.608 -2.2003  1.8985 -1.0667
   53MOL0     H 7133   2.362  -0.360   3.686 -0.9984 -1.3027 -0.2189
   53MOL0     H 7134   2.408  -0.419   3.845  1.2714 -3.1499  0.7189
   53MOL0     H 7135   2.492  -0.631   3.726 -0.1038  0.6189  1.3978
   53MOL0     H 7136   2.433  -0.563   3.574  0.3627 -2.6426 -0.1136
   53MOL0     H 7137   3.215  -0.509   3.443  0.1896  1.9165 -0.6601
   53MOL0     H 7138   3.391  -0.469   3.283 -1.3103  2.6422  0.2864
   53MOL0     H 7139   3.866  -0.271   3.339  0.7011  0.8338 -0.0230
   53MOL0     H 7140   4.090  -0.231   3.236  0.9642 -0.4946 -0.4633
   53MOL0     H 7141   5.383   1.098   3.163  1.8152  0.1050 -0.7411
   53MOL0     H 7142   5.606   1.122   3.246  0.6507  0.2167  1.5757
   53MOL0     H 7143   6.071   0.713   3.437  4.0885 -1.4131  0.7436
   53MOL0     H 7144   6.291   0.791   3.525  0.1336  0.9366  4.0525
   53MOL0     H 7145   6.332   1.187   3.727 -1.3498  0.6292  3.3637
   53MOL0     H 7146   6.278   1.060   3.835 -1.3478  1.3271 -0.8937
   53MOL0     H 7147   6.506   1.143   3.882 -0.0132  1.3978 -1.6230
   53MOL0     H 7148   6.558   1.081   3.720  3.7530 -1.1753  1.3981
   53MOL0     H 7149   6.519   0.846   3.785 -0.1095  0.4258 -0.0891
   53MOL0     H 7150   6.432   0.893   3.929  0.5364 -1.2106  0.0299
   53MOL0     H 7151   6.638   0.990   4.012  1.2547  1.3132 -1.2915
   53MOL0     H 7152   6.719   0.955   3.852 -2.2319 -0.7503 -2.1673
   53MOL0     H 7153   6.734   0.577   4.059 -0.2439 -0.4943  0.3153
   53MOL0     H 7154   6.102   1.171   3.615 -0.2429  0.9001 -1.7588
   53MOL0     H 7155   5.912   1.115   3.525 -0.7908 -0.3166 -0.3011
   54MOL0     O 7156   8.884   3.633   4.789  0.3372  0.0107 -0.0391
   54MOL0     C 7157   8.912   3.677   4.678 -0.8695  0.1818 -0.3733
   54MOL0     O 7158   8.835   3.765   4.608 -1.0013  0.5585 -0.0402
   54MOL0     C 7159   8.718   3.815   4.655  0.7188 -0.5096  0.0022
   54MOL0     C 7160   8.695   3.959   4.656 -0.2783 -0.0011  0.3880
   54MOL0     C 7161   8.580   4.008   4.710  0.5631  0.0898  0.6291
   54MOL0     C 7162   8.487   3.922   4.768  0.6028  0.4909 -0.8492
   54MOL0     O 7163   8.382   3.977   4.839 -0.2475  0.3059 -0.7266
   54MOL0     C 7164   8.298   3.902   4.923  0.2880  0.3429 -0.1779
   54MOL0     C 7165   8.205   3.992   5.007 -0.1385 -0.5822  0.5248
   54MOL0     C 7166   8.137   3.913   5.120 -0.3188 -0.1207  0.6567
   54MOL0     C 7167   7.999   3.967   5.152  0.1451  0.4680 -0.5065
   54MOL0     C 7168   7.887   3.976   5.038  0.6445  0.1331  0.3779
   54MOL0     C 7169   7.748   4.008   5.100  0.1607  0.6040 -0.8322
   54MOL0     C 7170   7.631   4.045   5.001  0.5636 -0.3072 -0.7397
   54MOL0     C 7171   7.553   3.924   4.952  0.1445  0.0156 -1.1686
   54MOL0     N 7172   7.445   3.955   4.869  0.0951  0.0664  0.3244
   54MOL0     C 7173   7.323   4.012   4.892 -0.3309 -0.2672  0.5814
   54MOL0     C 7174   7.255   4.018   4.774  0.2028 -0.0177  0.3370
   54MOL0     C 7175   7.115   4.047   4.751  0.1420 -0.5610  1.0395
   54MOL0     C 7176   7.035   3.961   4.649 -0.2265  0.4609 -0.4998
   54MOL0     C 7177   6.886   3.958   4.685  0.4596 -0.0663 -0.1476
   54MOL0     C 7178   6.795   3.898   4.572 -0.4756  0.5615  0.5846
   54MOL0     O 7179   6.657   3.928   4.611  0.5233  0.4646  0.1928
   54MOL0     C 7180   6.552   3.870   4.545  0.0804 -0.3187  0.1575
   54MOL0     C 7181   6.427   3.917   4.583  1.0567 -0.3265 -0.2531
   54MOL0     C 7182   6.313   3.875   4.519 -0.7145 -0.2384 -0.2942
   54MOL0     C 7183   6.173   3.936   4.568 -0.5309 -0.1350  0.7127
   54MOL0     C 7184   6.319   3.782   4.413  0.1764 -0.8311 -0.3907
   54MOL0     C 7185   6.191   3.737   4.346  0.7644  0.1408 -0.1633
   54MOL0     O 7186   6.160   3.602   4.368  0.0075  0.4541 -0.5099
   54MOL0     C 7187   6.036   3.553   4.333 -0.6369 -0.2019  0.2918
   54MOL0     C 7188   6.028   3.427   4.272  0.3698  0.0421  0.2368
   54MOL0     C 7189   5.897   3.376   4.244  0.4529  0.0915 -0.5318
   54MOL0     C 7190   5.785   3.446   4.275  0.1457  0.2535  0.6247
   54MOL0     O 7191   5.650   3.403   4.255  0.1054  0.3347  0.0030
   54MOL0     C 7192   5.626   3.264   4.230 -0.4875 -0.0271 -0.0696
   54MOL0     C 7193   5.487   3.213   4.279  0.0021 -0.0949 -0.1963
   54MOL0     C 7194   5.364   3.273   4.217  0.1244  0.3840 -0.6305
   54MOL0     C 7195   5.344   3.220   4.079 -0.4684 -0.4407  0.4431
   54MOL0     C 7196   5.219   3.274   4.011 -0.3959 -0.3029  0.9087
   54MOL0     C 7197   5.081   3.215   4.064  0.0928  1.6523 -0.0777
   54MOL0     C 7198   4.954   3.254   3.995  0.1379 -0.3556 -0.6234
   54MOL0     C 7199   4.838   3.185   4.070  0.1084 -0.2274  0.4150
   54MOL0    Cl 7200   4.684   3.270   4.022 -0.7705  0.1098  0.1217
   54MOL0     C 7201   5.795   3.572   4.324  0.4355 -0.0118 -0.1964
   54MOL0     C 7202   5.921   3.619   4.357  0.4063 -0.9273 -0.1005
   54MOL0     O 7203   6.128   3.810   4.271 -0.1362 -0.0082 -0.1958
   54MOL0     C 7204   6.445   3.735   4.374  0.0638  1.1924 -0.4078
   54MOL0     C 7205   6.558   3.779   4.443 -0.7743  1.4216 -0.3435
   54MOL0     N 7206   7.335   3.969   4.677 -0.0004 -0.4377  0.2874
   54MOL0     N 7207   7.447   3.937   4.733 -0.0493  0.1513  0.6665
   54MOL0     C 7208   8.506   3.780   4.765 -0.8862  0.5409 -1.4188
   54MOL0     C 7209   8.617   3.732   4.701 -0.8596 -0.1617 -0.0313
   54MOL0     C 7210   9.054   3.647   4.622  1.1132 -0.0977  0.6360
   54MOL0     C 7211   9.152   3.593   4.710 -0.0609  0.3193 -0.3457
   54MOL0     C 7212   9.283   3.579   4.669 -0.6971 -0.2196 -0.8903
   54MOL0     C 7213   9.329   3.620   4.544  0.3160  0.3183 -0.4057
   54MOL0     O 7214   9.463   3.606   4.525 -0.6084 -0.2772  0.0358
   54MOL0     C 7215   9.517   3.619   4.392 -0.5570  0.0610 -0.4938
   54MOL0     C 7216   9.475   3.507   4.292 -0.4626 -0.6257  0.0907
   54MOL0     C 7217   9.517   3.369   4.350  0.4757  0.7646 -0.0124
   54MOL0     C 7218   9.465   3.255   4.254  0.5398  0.4687  0.6026
   54MOL0     C 7219   9.529   3.131   4.294 -0.2355 -0.0474  0.4972
   54MOL0     C 7220   9.584   3.028   4.312 -0.3269 -0.3615 -0.9844
   54MOL0     C 7221   9.230   3.669   4.454 -0.0077 -0.6546 -0.7751
   54MOL0     C 7222   9.103   3.690   4.496  0.5768  0.2773 -0.2874
   54MOL0     H 7223   8.766   4.027   4.611 -1.8434  2.3958  1.3751
   54MOL0     H 7224   8.560   4.114   4.695  2.2083  0.8667  3.3347
   54MOL0     H 7225   8.233   3.836   4.865 -0.0564 -1.6636  2.2906
   54MOL0     H 7226   8.365   3.849   4.991  0.8503  0.9612 -0.2424
   54MOL0     H 7227   8.253   4.078   5.053  0.3789 -1.0519  0.8739
   54MOL0     H 7228   8.130   4.034   4.940  1.3703  1.1484 -0.1877
   54MOL0     H 7229   8.132   3.805   5.101 -1.8152  0.2725 -1.5444
   54MOL0     H 7230   8.205   3.924   5.205  0.4592  2.3595 -0.2175
   54MOL0     H 7231   7.951   3.907   5.230 -1.5558  1.2193 -0.9410
   54MOL0     H 7232   8.009   4.062   5.205 -0.2426  1.0058 -1.3839
   54MOL0     H 7233   7.924   4.055   4.972  0.2262  2.6309  2.9381
   54MOL0     H 7234   7.886   3.878   4.989 -1.5837  0.1553  0.2663
   54MOL0     H 7235   7.714   3.935   5.174  1.9112 -2.5758 -2.9122
   54MOL0     H 7236   7.765   4.094   5.165  0.0192  0.5815 -0.7659
   54MOL0     H 7237   7.565   4.117   5.051  0.0049 -1.0191 -0.4324
   54MOL0     H 7238   7.678   4.095   4.915 -0.3369  0.3352 -0.8741
   54MOL0     H 7239   7.516   3.870   5.040  2.0756 -0.7696 -0.7861
   54MOL0     H 7240   7.608   3.841   4.906 -1.2823 -1.8700  0.3358
   54MOL0     H 7241   7.264   4.042   4.979 -3.2638  0.5346 -1.5340
   54MOL0     H 7242   7.071   4.046   4.851  3.8123 -0.1130  2.8224
   54MOL0     H 7243   7.111   4.150   4.711  1.3076 -1.1655 -0.7638
   54MOL0     H 7244   7.077   3.861   4.643  1.0628  0.8664  1.0945
   54MOL0     H 7245   7.032   4.002   4.548  1.3447 -1.5102 -1.4096
   54MOL0     H 7246   6.862   4.065   4.690  1.4949  0.6086 -4.7677
   54MOL0     H 7247   6.872   3.910   4.782  1.8053 -1.3777 -0.5636
   54MOL0     H 7248   6.819   3.791   4.562  1.4478  1.0521 -0.5207
   54MOL0     H 7249   6.810   3.945   4.474 -0.9968  1.5981  0.9923
   54MOL0     H 7250   6.421   3.992   4.662 -0.1862  2.4562 -2.7654
   54MOL0     H 7251   6.116   3.973   4.483  2.4131 -0.1594 -1.4236
   54MOL0     H 7252   6.119   3.866   4.633 -2.7376  0.9473  0.1377
   54MOL0     H 7253   6.197   4.026   4.626 -0.3819  0.0729  0.3328
   54MOL0     H 7254   6.116   3.368   4.249 -0.2508 -0.8543  0.1239
   54MOL0     H 7255   5.884   3.279   4.197 -3.1818 -0.5004  1.3300
   54MOL0     H 7256   5.639   3.236   4.125  1.5632 -3.0146  0.8685
   54MOL0     H 7257   5.697   3.203   4.287  0.8380 -1.4141 -3.0165
   54MOL0     H 7258   5.491   3.103   4.271 -2.9421 -0.4144  1.4169
   54MOL0     H 7259   5.461   3.230   4.383 -2.7447  2.9343 -1.2440
   54MOL0     H 7260   5.373   3.381   4.231 -2.3463  0.4148  1.6130
   54MOL0     H 7261   5.278   3.249   4.279  1.8762 -0.0330  1.7750
   54MOL0     H 7262   5.428   3.272   4.031 -0.7812  1.9912  2.3348
   54MOL0     H 7263   5.344   3.112   4.062  2.1079 -0.5123  0.5734
   54MOL0     H 7264   5.210   3.236   3.909 -0.3765  0.0245  0.7852
   54MOL0     H 7265   5.220   3.383   4.002 -3.1569 -0.2926 -0.3692
   54MOL0     H 7266   5.085   3.105   4.062  2.1393  1.6693  0.5907
   54MOL0     H 7267   5.072   3.237   4.170  0.7932 -0.0555  0.3682
   54MOL0     H 7268   4.955   3.213   3.894  2.9581 -2.7686  0.2565
   54MOL0     H 7269   4.947   3.363   3.990  0.7277 -0.3782 -2.4130
   54MOL0     H 7270   4.846   3.189   4.179 -0.6514 -2.7370  0.6163
   54MOL0     H 7271   4.844   3.080   4.040 -1.4414 -0.4815  0.9470
   54MOL0     H 7272   5.702   3.612   4.362  2.0933  2.4931  1.5299
   54MOL0     H 7273   5.936   3.722   4.389  3.7641 -1.5019  0.6025
   54MOL0     H 7274   6.465   3.665   4.293 -0.0088  1.1671 -0.4033
   54MOL0     H 7275   6.654   3.733   4.424 -0.1973  1.7429  1.6642
   54MOL0     H 7276   8.447   3.708   4.821 -0.7019  0.3399 -1.4849
   54MOL0     H 7277   8.632   3.625   4.704  1.0533  0.0828  1.5815
   54MOL0     H 7278   9.134   3.566   4.814  2.9250  0.6394  0.3567
   54MOL0     H 7279   9.360   3.538   4.733  0.8675 -0.1589 -2.6544
   54MOL0     H 7280   9.492   3.716   4.350 -0.8810  0.0031 -0.4332
   54MOL0     H 7281   9.627   3.616   4.385 -0.6209  1.1758 -3.8997
   54MOL0     H 7282   9.529   3.521   4.198  1.0739  0.0090  1.0389
   54MOL0     H 7283   9.365   3.512   4.285 -0.6124 -2.4805  0.6417
   54MOL0     H 7284   9.476   3.349   4.449  1.8269 -2.8951 -0.0350
   54MOL0     H 7285   9.626   3.369   4.363  0.8084 -0.8656 -2.0685
   54MOL0     H 7286   9.501   3.286   4.156  0.1364  1.0486  0.6297
   54MOL0     H 7287   9.356   3.251   4.244  0.6638 -2.5796 -0.3043
   54MOL0     H 7288   9.637   2.936   4.327 -0.3641 -0.3344 -0.6721
   54MOL0     H 7289   9.271   3.711   4.363  0.0377  0.7033 -0.1492
   54MOL0     H 7290   9.040   3.750   4.430  1.3872 -1.4055 -2.7460
   55MOL0     O 7291   9.912   5.533   7.131  0.5128 -0.4443  0.2564
   55MOL0     C 7292   9.856   5.445   7.194 -0.6573 -0.3884  0.0776
   55MOL0     O 7293   9.741   5.391   7.156  0.5720  0.0698 -0.1730
   55MOL0     C 7294   9.676   5.423   7.037 -0.1686 -0.0422  0.3798
   55MOL0     C 7295   9.626   5.322   6.963 -0.6235  0.1226  0.3530
   55MOL0     C 7296   9.578   5.340   6.833 -0.5561  0.3298 -0.7041
   55MOL0     C 7297   9.580   5.472   6.778  0.5794 -0.8760  0.3157
   55MOL0     O 7298   9.558   5.505   6.646  0.0455 -0.1790  0.4510
   55MOL0     C 7299   9.448   5.444   6.574  0.1942 -0.5855 -0.3758
   55MOL0     C 7300   9.499   5.336   6.480 -0.3655 -0.4424  0.1452
   55MOL0     C 7301   9.408   5.314   6.359 -0.2227  0.1172  0.8020
   55MOL0     C 7302   9.259   5.296   6.397  0.5118 -0.4863  0.2535
   55MOL0     C 7303   9.181   5.301   6.264 -0.5615 -0.9459  0.3843
   55MOL0     C 7304   9.031   5.281   6.290 -0.5076 -0.8675 -0.2920
   55MOL0     C 7305   8.969   5.268   6.150  0.1856  0.3551 -0.4188
   55MOL0     C 7306   8.825   5.223   6.159 -0.0339 -0.4284 -0.2307
   55MOL0     N 7307   8.801   5.082   6.192  0.0728  0.4046  0.0296
   55MOL0     C 7308   8.755   4.991   6.100  0.1336  0.0200 -0.0061
   55MOL0     C 7309   8.747   4.870   6.166  0.2642  0.2756  0.9332
   55MOL0     C 7310   8.727   4.728   6.118 -0.7532  0.9594 -0.9617
   55MOL0     C 7311   8.588   4.713   6.058 -0.5138  0.9763  0.1491
   55MOL0     C 7312   8.487   4.696   6.162 -0.0608  0.8425 -0.4416
   55MOL0     C 7313   8.351   4.677   6.118 -0.6143 -0.0828 -0.3003
   55MOL0     O 7314   8.264   4.708   6.223 -0.6751 -0.0140 -0.6733
   55MOL0     C 7315   8.134   4.683   6.217 -0.6532  1.0738  0.4739
   55MOL0     C 7316   8.069   4.637   6.327  0.5546  0.1761  0.4069
   55MOL0     C 7317   7.928   4.614   6.324 -0.4690  0.6153 -0.3379
   55MOL0     C 7318   7.871   4.581   6.463  0.0644 -0.1976 -0.1327
   55MOL0     C 7319   7.863   4.610   6.201 -0.1562 -0.3407 -0.7342
   55MOL0     C 7320   7.715   4.584   6.181 -0.2961  0.7269 -0.1820
   55MOL0     O 7321   7.650   4.531   6.288 -0.5600 -0.3830  0.5471
   55MOL0     C 7322   7.517   4.522   6.267  0.1484 -0.1514  0.0455
   55MOL0     C 7323   7.433   4.624   6.320 -0.2577 -0.7446  0.4835
   55MOL0     C 7324   7.295   4.614   6.294  0.1421 -0.7540  0.0619
   55MOL0     C 7325   7.246   4.516   6.214  0.2528 -0.1648  0.5613
   55MOL0     O 7326   7.113   4.500   6.173  0.1222 -0.1692 -0.1426
   55MOL0     C 7327   7.004   4.581   6.228  0.1186 -0.1706  0.4829
   55MOL0     C 7328   6.865   4.532   6.179 -0.5261 -0.5626  0.4455
   55MOL0     C 7329   6.832   4.565   6.027  0.3288  0.2775 -0.1818
   55MOL0     C 7330   6.726   4.465   5.980  0.4521 -0.5416 -0.6897
   55MOL0     C 7331   6.593   4.464   6.063 -1.1044 -0.2052  0.5274
   55MOL0     C 7332   6.494   4.366   6.004 -0.6985 -0.0900 -0.7110
   55MOL0     C 7333   6.356   4.405   6.065 -0.2584  0.3695 -0.1465
   55MOL0     C 7334   6.251   4.293   6.045 -1.2329 -0.3349 -0.2804
   55MOL0    Cl 7335   6.310   4.145   6.119  0.0670  0.1083 -0.1337
   55MOL0     C 7336   7.332   4.421   6.158 -0.5062 -0.5592  0.2234
   55MOL0     C 7337   7.465   4.417   6.189 -0.6195  0.2074  0.0631
   55MOL0     O 7338   7.671   4.619   6.076  0.6792 -0.1468  0.3347
   55MOL0     C 7339   7.934   4.664   6.086  0.3544  0.5130  0.5455
   55MOL0     C 7340   8.061   4.692   6.097  0.4892 -0.3890  0.5793
   55MOL0     N 7341   8.789   4.889   6.297  0.7861 -0.3765 -0.9033
   55MOL0     N 7342   8.816   5.016   6.316 -0.1508  0.2676 -0.7056
   55MOL0     C 7343   9.617   5.579   6.857  0.0363  0.2558 -0.8016
   55MOL0     C 7344   9.677   5.555   6.987  0.7125  0.4237  0.0906
   55MOL0     C 7345   9.927   5.406   7.324  0.5211  0.2366  0.2622
   55MOL0     C 7346  10.047   5.464   7.354 -0.1582 -0.6938  0.1118
   55MOL0     C 7347  10.094   5.462   7.487  0.6457  0.2428  0.1876
   55MOL0     C 7348  10.031   5.393   7.589  0.3367  0.0595 -0.0475
   55MOL0     O 7349  10.059   5.402   7.724 -0.3741 -0.3408  0.0115
   55MOL0     C 7350  10.113   5.535   7.775  0.0692 -0.3353 -0.4414
   55MOL0     C 7351  10.009   5.647   7.780 -0.8857 -0.0924 -0.4397
   55MOL0     C 7352  10.090   5.776   7.812  0.5816  0.0490 -0.8568
   55MOL0     C 7353  10.154   5.780   7.948  0.3219 -0.2522 -0.1785
   55MOL0     C 7354  10.054   5.730   8.045  0.2375  0.1777  0.1389
   55MOL0     C 7355   9.976   5.691   8.129  0.7170 -0.3701 -0.8303
   55MOL0     C 7356   9.918   5.326   7.552 -0.1914  0.7780 -0.3701
   55MOL0     C 7357   9.867   5.326   7.422  0.8197 -0.3107  0.0337
   55MOL0     H 7358   9.633   5.226   7.013  1.3710 -1.1241 -2.0747
   55MOL0     H 7359   9.551   5.258   6.767 -1.0696 -0.5150  0.5141
   55MOL0     H 7360   9.376   5.393   6.638 -0.7439  0.0159 -0.9263
   55MOL0     H 7361   9.403   5.523   6.513  1.1178 -0.7326 -1.2664
   55MOL0     H 7362   9.599   5.360   6.443 -0.2928 -0.7667  0.1302
   55MOL0     H 7363   9.506   5.237   6.525  0.4269 -0.3603  0.2167
   55MOL0     H 7364   9.400   5.400   6.291 -0.1958  1.4627  2.4470
   55MOL0     H 7365   9.452   5.227   6.309  2.0273  1.7800 -0.2755
   55MOL0     H 7366   9.238   5.203   6.451  0.0509 -0.3423  0.3311
   55MOL0     H 7367   9.226   5.367   6.474  3.1037  1.8236 -0.6383
   55MOL0     H 7368   9.196   5.395   6.210  1.9496 -1.9822 -0.8734
   55MOL0     H 7369   9.215   5.217   6.203 -1.2350  0.3013 -1.8128
   55MOL0     H 7370   9.011   5.193   6.352 -0.0420  0.2477  1.5232
   55MOL0     H 7371   8.989   5.367   6.344  1.5913  0.4823 -0.7097
   55MOL0     H 7372   8.979   5.365   6.101 -1.0504  0.3193 -0.7646
   55MOL0     H 7373   9.029   5.209   6.079  1.1495  1.0895 -0.2474
   55MOL0     H 7374   8.763   5.252   6.073 -1.5498 -1.3076  0.5098
   55MOL0     H 7375   8.778   5.279   6.240 -0.6086  0.0515 -0.8858
   55MOL0     H 7376   8.743   5.015   5.995  1.1677 -0.2410 -0.2003
   55MOL0     H 7377   8.805   4.701   6.046  1.0566 -1.1722  1.6044
   55MOL0     H 7378   8.741   4.656   6.200  1.1870 -1.0386 -2.9127
   55MOL0     H 7379   8.590   4.628   5.989 -1.2576 -0.2003  1.5219
   55MOL0     H 7380   8.571   4.800   5.994 -0.4158  0.6862 -0.2703
   55MOL0     H 7381   8.485   4.792   6.215 -0.7915 -0.3657  1.8781
   55MOL0     H 7382   8.509   4.617   6.234 -0.6639  1.5156  0.5157
   55MOL0     H 7383   8.327   4.576   6.083  3.0899 -1.1516 -0.1990
   55MOL0     H 7384   8.338   4.746   6.034  0.0102 -1.7632 -1.8436
   55MOL0     H 7385   8.126   4.621   6.418  2.8169  2.6705 -0.4305
   55MOL0     H 7386   7.889   4.665   6.530  0.1909 -0.5524  0.2879
   55MOL0     H 7387   7.764   4.559   6.464 -0.4668  1.4011 -4.0709
   55MOL0     H 7388   7.929   4.503   6.514  2.3427  2.7862  2.2344
   55MOL0     H 7389   7.471   4.700   6.388  2.5982 -2.0047  0.3930
   55MOL0     H 7390   7.222   4.681   6.339  0.5459 -1.9780  2.8122
   55MOL0     H 7391   6.999   4.578   6.337  1.9124 -0.8499  0.5714
   55MOL0     H 7392   7.015   4.687   6.202 -0.7406 -0.7381 -2.6894
   55MOL0     H 7393   6.841   4.429   6.206 -2.0521 -0.2582  0.3731
   55MOL0     H 7394   6.787   4.583   6.237  0.8973  2.5348 -0.1571
   55MOL0     H 7395   6.920   4.569   5.963  0.5559 -1.2850 -0.0013
   55MOL0     H 7396   6.785   4.664   6.026 -0.6206 -0.1101  1.7921
   55MOL0     H 7397   6.711   4.498   5.877  2.2883  0.1623 -0.7774
   55MOL0     H 7398   6.763   4.362   5.984  1.8110 -0.0469  0.3018
   55MOL0     H 7399   6.551   4.564   6.056 -1.4793 -0.3138  1.2007
   55MOL0     H 7400   6.606   4.450   6.170  1.2704 -0.9115  0.2035
   55MOL0     H 7401   6.484   4.362   5.895 -4.9917 -4.0536 -0.4944
   55MOL0     H 7402   6.523   4.264   6.032 -2.5062 -1.4257 -3.1832
   55MOL0     H 7403   6.325   4.493   6.008  0.8884  0.8787 -0.0040
   55MOL0     H 7404   6.366   4.437   6.169  3.3272  0.7721 -0.4986
   55MOL0     H 7405   6.226   4.278   5.939 -1.3465 -0.6975 -0.2034
   55MOL0     H 7406   6.157   4.318   6.095 -1.2917 -2.0492  0.5403
   55MOL0     H 7407   7.281   4.352   6.090  1.3583  0.3271 -2.2175
   55MOL0     H 7408   7.529   4.333   6.163  0.0549  0.0388  2.0848
   55MOL0     H 7409   7.884   4.657   5.990 -0.9401 -3.4939  1.2940
   55MOL0     H 7410   8.113   4.719   6.005 -2.0141  1.5121 -0.4116
   55MOL0     H 7411   9.606   5.684   6.831 -5.0447  0.4632  1.0124
   55MOL0     H 7412   9.718   5.633   7.051  2.4689 -0.7646  0.4818
   55MOL0     H 7413  10.105   5.523   7.283 -2.3058 -0.0080 -1.1621
   55MOL0     H 7414  10.184   5.521   7.502  0.4922  1.0005 -1.6294
   55MOL0     H 7415  10.155   5.526   7.876 -0.3432 -0.1235 -0.2480
   55MOL0     H 7416  10.199   5.557   7.711  0.6542  1.2654  0.8216
   55MOL0     H 7417   9.926   5.616   7.844 -0.9165  2.1134  0.6954
   55MOL0     H 7418   9.956   5.660   7.685 -2.8222  0.8465  0.7084
   55MOL0     H 7419  10.019   5.859   7.808 -1.3216 -1.5147 -2.6126
   55MOL0     H 7420  10.173   5.797   7.744  1.8320 -0.2399  0.5437
   55MOL0     H 7421  10.180   5.886   7.961 -2.8742  0.7487 -1.0012
   55MOL0     H 7422  10.242   5.716   7.947  1.2812  1.0268 -0.8405
   55MOL0     H 7423   9.898   5.667   8.198  0.9497  0.3068 -0.3208
   55MOL0     H 7424   9.858   5.279   7.630  1.1110 -0.5938 -0.1438
   55MOL0     H 7425   9.774   5.277   7.397  0.6726 -0.2756  0.5113
   56MOL0     O 7426   3.272   3.961   9.503  0.0767 -0.1100  0.2989
   56MOL0     C 7427   3.299   3.931   9.387  0.2787 -0.1211 -0.3126
   56MOL0     O 7428   3.211   3.930   9.284  0.3365 -0.6529 -0.0064
   56MOL0     C 7429   3.076   3.947   9.313 -0.8790 -0.1965  0.2919
   56MOL0     C 7430   3.024   4.063   9.370 -0.3626 -0.7314  0.1419
   56MOL0     C 7431   2.887   4.077   9.382  0.2139 -0.1852  0.4913
   56MOL0     C 7432   2.801   3.973   9.344  0.3606  0.8485  0.6538
   56MOL0     O 7433   2.664   3.985   9.337  0.1742  0.6397 -0.0750
   56MOL0     C 7434   2.588   4.083   9.413 -0.0854 -0.3840 -0.4251
   56MOL0     C 7435   2.435   4.105   9.372 -0.5167  0.1935  0.1290
   56MOL0     C 7436   2.345   4.165   9.486  0.1046  0.4122  0.4100
   56MOL0     C 7437   2.197   4.174   9.443 -0.1328 -0.4395 -0.3720
   56MOL0     C 7438   2.098   4.191   9.564 -0.6309  0.4400 -0.1580
   56MOL0     C 7439   1.959   4.239   9.524  0.2748 -0.4100  0.3871
   56MOL0     C 7440   1.886   4.257   9.657 -0.0279 -0.0399 -0.4384
   56MOL0     C 7441   1.748   4.318   9.621 -0.0722  0.5371  0.1813
   56MOL0     N 7442   1.675   4.322   9.742  0.2327 -1.2783  0.2971
   56MOL0     C 7443   1.544   4.287   9.751  0.6351 -0.7527  0.2670
   56MOL0     C 7444   1.503   4.313   9.873 -0.9028 -0.6498  0.1321
   56MOL0     C 7445   1.372   4.291   9.944 -0.3536  0.8275 -0.4171
   56MOL0     C 7446   1.239   4.320   9.869 -0.1780 -0.8815 -0.7024
   56MOL0     C 7447   1.114   4.255   9.933  0.7353 -0.0346 -0.6769
   56MOL0     C 7448   0.982   4.281   9.861 -0.2640  0.2970  0.4559
   56MOL0     O 7449   0.884   4.190   9.913  0.2445 -0.0863 -0.4214
   56MOL0     C 7450   0.825   4.220  10.039 -0.1398  0.7886 -0.3583
   56MOL0     C 7451   0.886   4.202  10.164  0.1251  0.0768 -0.7242
   56MOL0     C 7452   0.825   4.230  10.291 -0.4197  0.3338 -0.4497
   56MOL0     C 7453   0.903   4.184  10.414 -0.2600  0.4939 -0.3727
   56MOL0     C 7454   0.693   4.278  10.287  0.4291  0.6448 -0.1006
   56MOL0     C 7455   0.606   4.310  10.408  0.5926  0.3207  0.7300
   56MOL0     O 7456   0.502   4.396  10.387 -0.6164  0.4824  0.0225
   56MOL0     C 7457   0.429   4.435  10.494 -0.1810  0.1484  1.0470
   56MOL0     C 7458   0.354   4.340  10.566 -0.6706 -0.0620  0.2659
   56MOL0     C 7459   0.286   4.373  10.679 -0.5338 -0.1706  0.2683
   56MOL0     C 7460   0.287   4.503  10.727  0.5045 -0.2331 -0.0514
   56MOL0     O 7461   0.210   4.527  10.833 -0.4525 -0.2403  0.2372
   56MOL0     C 7462   0.202   4.646  10.907 -0.4732 -0.4843  0.6909
   56MOL0     C 7463   0.099   4.741  10.855 -0.1490 -0.3324  1.1720
   56MOL0     C 7464  -0.047   4.691  10.881  0.3100 -0.6140  0.2676
   56MOL0     C 7465  -0.144   4.778  10.803  0.1049 -0.6294 -0.0116
   56MOL0     C 7466  -0.293   4.757  10.837 -0.1238 -0.5631 -0.6160
   56MOL0     C 7467  -0.384   4.831  10.743  0.3502  0.5327  0.1378
   56MOL0     C 7468  -0.524   4.778  10.776  0.1940 -0.0096 -0.1717
   56MOL0     C 7469  -0.625   4.846  10.685 -0.9480  0.2738  0.0544
   56MOL0    Cl 7470  -0.791   4.776  10.716  0.1795  0.1795 -0.1640
   56MOL0     C 7471   0.349   4.602  10.651  0.2650 -0.5808 -1.1881
   56MOL0     C 7472   0.427   4.563  10.542  0.5643 -0.2022  0.6039
   56MOL0     O 7473   0.638   4.265  10.521 -0.1687  0.1299  0.2403
   56MOL0     C 7474   0.637   4.306  10.161  0.1323  0.2757  0.2657
   56MOL0     C 7475   0.699   4.262  10.042  0.6606  0.0804  0.0156
   56MOL0     N 7476   1.611   4.377   9.936  0.5091 -0.0145 -0.2923
   56MOL0     N 7477   1.713   4.383   9.856  0.2729 -0.3729  0.8229
   56MOL0     C 7478   2.848   3.854   9.286 -1.1923  0.1012  0.5062
   56MOL0     C 7479   2.990   3.844   9.271  0.2142 -0.5183 -0.6725
   56MOL0     C 7480   3.432   3.893   9.359 -0.4434 -0.0415  0.2840
   56MOL0     C 7481   3.535   3.879   9.458 -0.2546 -0.0923 -0.7363
   56MOL0     C 7482   3.672   3.874   9.421  0.1065 -0.5470  0.3633
   56MOL0     C 7483   3.708   3.862   9.282  0.0171 -0.2059 -0.1411
   56MOL0     O 7484   3.839   3.851   9.254 -0.0213 -0.5850 -0.8379
   56MOL0     C 7485   3.883   3.900   9.132  0.5146 -0.1213  0.2843
   56MOL0     C 7486   4.028   3.904   9.121 -0.4365 -0.3598 -0.5122
   56MOL0     C 7487   4.101   3.767   9.150  0.2067 -0.4694 -0.5546
   56MOL0     C 7488   4.259   3.770   9.169  0.1958 -0.5038 -1.3015
   56MOL0     C 7489   4.333   3.820   9.055 -0.5136  0.5403 -0.2657
   56MOL0     C 7490   4.410   3.861   8.975  0.0419  0.6067  0.5859
   56MOL0     C 7491   3.606   3.862   9.190 -0.3206  0.2066 -0.4207
   56MOL0     C 7492   3.472   3.880   9.225  0.4821 -0.5395  0.0074
   56MOL0     H 7493   3.093   4.140   9.402 -2.2229  0.4317  1.5119
   56MOL0     H 7494   2.867   4.174   9.428 -0.2887 -1.0759  2.2657
   56MOL0     H 7495   2.596   4.059   9.519  0.7681 -0.1855 -0.4358
   56MOL0     H 7496   2.641   4.179   9.403 -0.9537  0.4307  2.0095
   56MOL0     H 7497   2.440   4.170   9.284  0.4267 -1.5010 -1.1393
   56MOL0     H 7498   2.406   4.006   9.335 -1.3892  1.7315 -3.8435
   56MOL0     H 7499   2.366   4.096   9.568  0.2239 -0.6374 -0.4785
   56MOL0     H 7500   2.382   4.267   9.503  3.6805 -0.6824 -0.0298
   56MOL0     H 7501   2.183   4.252   9.368  0.6018 -0.9690 -1.0751
   56MOL0     H 7502   2.174   4.081   9.390  3.0717 -1.8900  0.5149
   56MOL0     H 7503   2.077   4.098   9.616 -1.4664  0.9818  0.4955
   56MOL0     H 7504   2.146   4.264   9.631  3.6276 -2.3346  0.2092
   56MOL0     H 7505   1.953   4.334   9.469 -1.8155 -0.8142 -0.1709
   56MOL0     H 7506   1.907   4.172   9.455 -1.8941  1.3694  0.1781
   56MOL0     H 7507   1.868   4.164   9.712  0.2463  0.5195  0.6238
   56MOL0     H 7508   1.952   4.315   9.721  1.1723 -1.2989 -0.4938
   56MOL0     H 7509   1.696   4.248   9.555 -0.3490 -1.1571  2.1062
   56MOL0     H 7510   1.769   4.422   9.592 -0.7334  0.8788  0.8983
   56MOL0     H 7511   1.487   4.245   9.668  0.3211 -0.5110  0.3593
   56MOL0     H 7512   1.366   4.184   9.967 -3.2248  0.9483 -0.2863
   56MOL0     H 7513   1.371   4.337  10.043 -0.7435  1.4805 -0.7165
   56MOL0     H 7514   1.243   4.287   9.765  1.2357  0.3085 -1.0690
   56MOL0     H 7515   1.220   4.428   9.866  1.1471 -0.6335 -0.9131
   56MOL0     H 7516   1.108   4.287  10.037 -0.5356 -1.3728 -0.2974
   56MOL0     H 7517   1.126   4.146   9.934 -2.7742 -0.5493  0.1714
   56MOL0     H 7518   1.002   4.259   9.756 -1.0612  1.9083 -0.0741
   56MOL0     H 7519   0.959   4.387   9.880  0.0349  0.9786 -2.4510
   56MOL0     H 7520   0.981   4.153  10.147 -0.6224 -2.0305  0.7430
   56MOL0     H 7521   0.839   4.122  10.478 -0.8845  1.9959  0.5337
   56MOL0     H 7522   1.004   4.151  10.390  0.0779  0.4359  1.0677
   56MOL0     H 7523   0.919   4.276  10.472 -3.7658  0.0623  1.5926
   56MOL0     H 7524   0.347   4.236  10.535  2.0236 -0.0421 -0.6888
   56MOL0     H 7525   0.245   4.300  10.748  0.1548  0.1836  1.0608
   56MOL0     H 7526   0.173   4.615  11.007 -2.6458 -0.0257  0.2466
   56MOL0     H 7527   0.304   4.686  10.912  1.0385 -4.1191  1.7173
   56MOL0     H 7528   0.126   4.837  10.899 -1.2468 -0.3846  2.0064
   56MOL0     H 7529   0.110   4.760  10.748  2.7597  3.3464  1.9262
   56MOL0     H 7530  -0.074   4.709  10.985 -0.0354  1.2692 -0.1189
   56MOL0     H 7531  -0.062   4.586  10.856 -0.7534 -0.3132 -0.4010
   56MOL0     H 7532  -0.114   4.881  10.824 -0.5617  0.0406 -2.0782
   56MOL0     H 7533  -0.133   4.755  10.697 -0.5524  1.8463 -0.6765
   56MOL0     H 7534  -0.316   4.796  10.937 -0.1596 -3.5590  0.6403
   56MOL0     H 7535  -0.320   4.651  10.836  0.6770 -0.7699 -0.9944
   56MOL0     H 7536  -0.374   4.940  10.753  2.6527  0.5798 -1.7400
   56MOL0     H 7537  -0.364   4.804  10.638  1.1023 -1.1206  0.6728
   56MOL0     H 7538  -0.564   4.806  10.874  0.4222 -0.2156 -0.0191
   56MOL0     H 7539  -0.521   4.670  10.761  2.8417 -0.3782  2.1588
   56MOL0     H 7540  -0.605   4.834  10.578 -1.5297  1.8221 -0.2576
   56MOL0     H 7541  -0.630   4.951  10.714  2.2277  0.1382  1.4824
   56MOL0     H 7542   0.359   4.704  10.686  1.9117 -1.3196  0.7373
   56MOL0     H 7543   0.475   4.639  10.480  0.7234 -1.1275 -0.4371
   56MOL0     H 7544   0.539   4.352  10.165  0.5351  1.2697 -0.8905
   56MOL0     H 7545   0.650   4.272   9.945  0.8783  2.2218  0.0692
   56MOL0     H 7546   2.774   3.778   9.262  0.8049 -2.2089  1.1305
   56MOL0     H 7547   3.027   3.752   9.225  1.7126 -0.6937  0.7960
   56MOL0     H 7548   3.522   3.879   9.566 -0.1025  2.0469 -0.6734
   56MOL0     H 7549   3.744   3.867   9.502  0.4214 -2.2518 -0.0311
   56MOL0     H 7550   3.839   3.840   9.052 -0.9936  0.0420  0.9411
   56MOL0     H 7551   3.846   4.002   9.116 -2.3879 -1.3599 -1.8841
   56MOL0     H 7552   4.060   3.967   9.204 -2.0412  1.8404 -1.4668
   56MOL0     H 7553   4.055   3.949   9.025  0.9367 -0.5996 -0.2478
   56MOL0     H 7554   4.071   3.689   9.080 -0.0867  0.0961 -1.0773
   56MOL0     H 7555   4.062   3.744   9.249 -2.9161  2.4165 -0.9474
   56MOL0     H 7556   4.306   3.680   9.210 -1.7647  0.0883  2.6496
   56MOL0     H 7557   4.275   3.849   9.243  1.8819 -0.9597 -1.1457
   56MOL0     H 7558   4.479   3.898   8.902 -0.4506  1.8448  0.7316
   56MOL0     H 7559   3.632   3.851   9.085 -1.9476  0.7388 -0.9068
   56MOL0     H 7560   3.398   3.884   9.146  0.0118 -0.6265  0.4421
   57MOL0     O 7561   1.424   3.232   4.428 -0.3571  0.0365  0.0603
   57MOL0     C 7562   1.471   3.122   4.395  0.1884  0.0800  0.8028
   57MOL0     O 7563   1.405   3.009   4.391  0.2003  0.3701  0.4493
   57MOL0     C 7564   1.271   3.005   4.428 -0.5265 -0.0158 -0.0938
   57MOL0     C 7565   1.224   3.021   4.554  0.5931  0.1903 -0.2597
   57MOL0     C 7566   1.091   3.007   4.589  0.3515 -0.4790 -0.3658
   57MOL0     C 7567   0.993   2.984   4.488  0.2619  0.1959  0.7402
   57MOL0     O 7568   0.858   2.972   4.508  1.2848 -0.3910  0.2200
   57MOL0     C 7569   0.814   3.073   4.602  0.3146 -0.2026 -1.4526
   57MOL0     C 7570   0.664   3.089   4.586 -0.2837 -0.0895 -0.2744
   57MOL0     C 7571   0.598   3.190   4.677  0.0233 -0.4481 -0.2455
   57MOL0     C 7572   0.459   3.222   4.613  0.2127  0.7044 -0.1402
   57MOL0     C 7573   0.385   3.300   4.714  0.1327 -0.4930  0.2450
   57MOL0     C 7574   0.228   3.310   4.705  0.5093  0.5735 -0.7200
   57MOL0     C 7575   0.191   3.435   4.772 -0.6649 -0.2031 -1.5086
   57MOL0     C 7576   0.051   3.444   4.823 -0.0931 -0.0646  0.4841
   57MOL0     N 7577  -0.045   3.423   4.707 -0.4073 -1.2883 -0.0915
   57MOL0     C 7578  -0.086   3.520   4.618 -0.0445  0.0460  1.0146
   57MOL0     C 7579  -0.181   3.454   4.546 -0.2505 -0.8655 -0.4442
   57MOL0     C 7580  -0.274   3.525   4.447 -0.3799 -0.8478 -0.3901
   57MOL0     C 7581  -0.361   3.637   4.509 -0.2594  0.0018 -0.1406
   57MOL0     C 7582  -0.424   3.599   4.644  0.0361  0.7136  0.2265
   57MOL0     C 7583  -0.533   3.698   4.686 -0.9525 -0.2302 -0.2049
   57MOL0     O 7584  -0.638   3.661   4.595 -0.4650 -0.1455  0.1014
   57MOL0     C 7585  -0.764   3.695   4.628  0.7789 -0.1126 -0.4940
   57MOL0     C 7586  -0.857   3.600   4.599  0.0188  0.4539 -0.3855
   57MOL0     C 7587  -1.006   3.609   4.613 -0.2089  0.6524  1.0057
   57MOL0     C 7588  -1.095   3.500   4.568  0.0425  0.1902  0.0442
   57MOL0     C 7589  -1.046   3.737   4.671 -0.1516 -0.7403 -0.1387
   57MOL0     C 7590  -1.189   3.765   4.686  0.1249 -0.1417 -0.4794
   57MOL0     O 7591  -1.236   3.892   4.654 -0.2016  0.8042  0.3528
   57MOL0     C 7592  -1.366   3.922   4.672 -0.2655 -1.0619  0.3227
   57MOL0     C 7593  -1.473   3.842   4.628 -0.7019 -0.0677 -0.4875
   57MOL0     C 7594  -1.603   3.874   4.672  0.4807  0.2034  0.0866
   57MOL0     C 7595  -1.641   3.994   4.736  0.1134 -0.5689  0.3665
   57MOL0     O 7596  -1.764   4.050   4.760  0.3253  0.6260 -0.2183
   57MOL0     C 7597  -1.877   3.965   4.797 -0.8302  0.3491  0.0948
   57MOL0     C 7598  -2.012   4.037   4.785  0.2055 -1.3310 -0.7179
   57MOL0     C 7599  -2.128   3.973   4.852  0.3481 -0.3169  0.2343
   57MOL0     C 7600  -2.245   4.072   4.873 -0.2849  0.3082  0.3437
   57MOL0     C 7601  -2.370   4.000   4.937 -1.2784 -0.1904  0.1653
   57MOL0     C 7602  -2.478   4.106   4.970  0.1255  0.1247 -0.0151
   57MOL0     C 7603  -2.580   4.033   5.063  0.4046  0.2664 -0.5662
   57MOL0     C 7604  -2.685   4.134   5.123 -0.4307  0.5710  0.5738
   57MOL0    Cl 7605  -2.796   4.036   5.221 -0.1231 -0.1124  0.1783
   57MOL0     C 7606  -1.521   4.069   4.781  0.5771  0.7286  0.6697
   57MOL0     C 7607  -1.391   4.034   4.745  0.2857  0.2608 -0.0206
   57MOL0     O 7608  -1.251   3.680   4.756  0.1568  0.5837 -0.0781
   57MOL0     C 7609  -0.953   3.838   4.701 -0.4269 -0.0689  0.5625
   57MOL0     C 7610  -0.815   3.820   4.679  0.9946  0.5151  0.4619
   57MOL0     N 7611  -0.190   3.321   4.586  0.7132  0.2329  0.3542
   57MOL0     N 7612  -0.111   3.308   4.686  0.3782 -0.3257  0.1501
   57MOL0     C 7613   1.051   2.949   4.362  0.1765 -0.5770 -0.5253
   57MOL0     C 7614   1.181   2.982   4.327 -0.0433 -0.4327 -0.4187
   57MOL0     C 7615   1.609   3.104   4.349  0.1521  0.3368 -0.2403
   57MOL0     C 7616   1.670   3.206   4.272 -0.7371 -0.7545  0.1352
   57MOL0     C 7617   1.805   3.209   4.235 -0.2022  1.1056  0.1852
   57MOL0     C 7618   1.883   3.098   4.265 -0.0744 -1.5471 -0.3188
   57MOL0     O 7619   2.010   3.086   4.222  0.0198  0.9258 -0.3242
   57MOL0     C 7620   2.084   3.193   4.159  0.0845 -0.0573  0.1695
   57MOL0     C 7621   2.215   3.145   4.116 -0.1516 -0.2939  0.6942
   57MOL0     C 7622   2.294   3.250   4.039  0.8211 -0.1455 -0.2057
   57MOL0     C 7623   2.432   3.191   4.002  0.3652 -0.6855 -0.5201
   57MOL0     C 7624   2.486   3.255   3.875 -0.2960  0.0491 -0.2102
   57MOL0     C 7625   2.547   3.317   3.788 -1.0284  0.6515  0.2652
   57MOL0     C 7626   1.827   2.991   4.335  0.7265  0.3623 -0.7239
   57MOL0     C 7627   1.693   2.996   4.388 -0.1594  0.1500  0.1156
   57MOL0     H 7628   1.295   3.026   4.636  0.0990 -0.7209  0.2456
   57MOL0     H 7629   1.060   3.021   4.693 -1.7105 -3.0557 -0.5271
   57MOL0     H 7630   0.842   3.039   4.702  1.4859 -0.7914 -1.9535
   57MOL0     H 7631   0.866   3.169   4.590 -1.6902  0.7679 -2.9475
   57MOL0     H 7632   0.638   3.125   4.486 -3.3407 -0.6967  0.2124
   57MOL0     H 7633   0.625   2.990   4.611 -1.7940  0.8584  1.3583
   57MOL0     H 7634   0.592   3.155   4.780  1.3000 -0.4343 -0.1515
   57MOL0     H 7635   0.647   3.287   4.681 -1.0658  0.1108  3.4751
   57MOL0     H 7636   0.475   3.282   4.523  0.4868  0.6596 -0.1212
   57MOL0     H 7637   0.400   3.134   4.585 -2.1085  2.7971 -2.3288
   57MOL0     H 7638   0.408   3.252   4.810  1.1596 -1.7328 -0.5846
   57MOL0     H 7639   0.431   3.399   4.704 -3.6579  1.2541 -2.3149
   57MOL0     H 7640   0.202   3.328   4.601  1.5343 -1.6336 -1.4339
   57MOL0     H 7641   0.175   3.221   4.741  0.7068  0.3496 -0.9710
   57MOL0     H 7642   0.262   3.444   4.855 -0.3555  0.1201 -1.8056
   57MOL0     H 7643   0.196   3.526   4.712  2.6441  1.5248  1.0407
   57MOL0     H 7644   0.030   3.541   4.869 -0.5517  0.5324 -0.9345
   57MOL0     H 7645   0.040   3.364   4.898 -1.7652 -0.7285 -0.4053
   57MOL0     H 7646  -0.064   3.626   4.614 -1.5255  0.3826  1.0849
   57MOL0     H 7647  -0.212   3.562   4.364  0.0634  0.4602  0.5003
   57MOL0     H 7648  -0.332   3.443   4.403  1.7599 -2.3289 -0.6129
   57MOL0     H 7649  -0.442   3.652   4.438 -0.2388  2.1751  0.2416
   57MOL0     H 7650  -0.296   3.724   4.520  2.0299 -1.1356 -3.1185
   57MOL0     H 7651  -0.346   3.605   4.720 -1.3605  2.5662  1.6158
   57MOL0     H 7652  -0.465   3.498   4.646 -0.5590  0.9397 -0.3312
   57MOL0     H 7653  -0.506   3.804   4.684 -2.5093  0.1781 -1.3321
   57MOL0     H 7654  -0.565   3.683   4.789  0.6887 -2.0710  0.0993
   57MOL0     H 7655  -0.828   3.504   4.556 -1.8284  0.6838 -2.3267
   57MOL0     H 7656  -1.138   3.514   4.469  0.2804  0.5885 -0.0049
   57MOL0     H 7657  -1.039   3.406   4.566 -0.7034 -0.2584 -0.0378
   57MOL0     H 7658  -1.177   3.494   4.639  0.3432  1.8653  0.5682
   57MOL0     H 7659  -1.439   3.754   4.573 -1.9953  0.0041 -1.4388
   57MOL0     H 7660  -1.688   3.808   4.657  0.5474 -0.1142  1.0611
   57MOL0     H 7661  -1.880   3.869   4.744 -2.4805  0.9238 -0.9191
   57MOL0     H 7662  -1.865   3.941   4.903  1.3957 -4.6297 -0.9716
   57MOL0     H 7663  -2.014   4.137   4.829 -0.2663 -2.5673  2.2682
   57MOL0     H 7664  -2.044   4.045   4.680 -1.4093  3.6011 -0.1085
   57MOL0     H 7665  -2.094   3.942   4.951 -0.1165  1.4971  1.0260
   57MOL0     H 7666  -2.156   3.885   4.794  1.3297 -1.2793  1.1901
   57MOL0     H 7667  -2.218   4.161   4.931  0.4243  0.6822 -0.5367
   57MOL0     H 7668  -2.273   4.111   4.774  0.8486 -0.4527 -0.2923
   57MOL0     H 7669  -2.325   3.956   5.026 -0.6492 -0.5535 -0.3273
   57MOL0     H 7670  -2.412   3.915   4.882  0.4985 -1.7056  1.0481
   57MOL0     H 7671  -2.443   4.199   5.016 -0.0152  0.0135  0.3185
   57MOL0     H 7672  -2.526   4.130   4.875 -0.2100 -1.0482 -0.1563
   57MOL0     H 7673  -2.531   3.987   5.149 -0.8090  1.0419  0.5811
   57MOL0     H 7674  -2.638   3.963   5.003 -0.7223  0.8660 -0.2182
   57MOL0     H 7675  -2.741   4.174   5.037 -0.9295  1.7071  1.4139
   57MOL0     H 7676  -2.637   4.210   5.184  1.1457 -1.6897  2.3113
   57MOL0     H 7677  -1.547   4.151   4.848  0.0790 -1.3532  3.1615
   57MOL0     H 7678  -1.309   4.097   4.778  1.0858 -1.1749  0.8210
   57MOL0     H 7679  -0.990   3.931   4.744 -2.8925 -0.6979 -0.0383
   57MOL0     H 7680  -0.743   3.897   4.705  2.6018 -0.4825 -0.8538
   57MOL0     H 7681   0.978   2.916   4.288 -1.4502 -0.1294  0.8036
   57MOL0     H 7682   1.214   2.954   4.227 -1.2901 -3.8373 -0.0256
   57MOL0     H 7683   1.622   3.303   4.264 -0.1516 -0.1398  2.9370
   57MOL0     H 7684   1.841   3.298   4.184  0.5636  0.2424 -0.8255
   57MOL0     H 7685   2.027   3.240   4.079  1.7843  0.6292 -0.6877
   57MOL0     H 7686   2.104   3.278   4.225  0.1431  2.7515 -3.1973
   57MOL0     H 7687   2.198   3.057   4.053 -0.4394  0.8303 -0.8558
   57MOL0     H 7688   2.271   3.114   4.205 -0.6061  2.0214  1.8311
   57MOL0     H 7689   2.308   3.340   4.100 -1.4260 -0.8543  1.4636
   57MOL0     H 7690   2.232   3.284   3.955  3.7042 -1.2082 -3.0244
   57MOL0     H 7691   2.426   3.082   3.997 -2.5521 -0.5744 -0.9335
   57MOL0     H 7692   2.497   3.221   4.085 -3.8384  2.7273  2.0204
   57MOL0     H 7693   2.604   3.383   3.726 -1.4575  1.4229  0.6640
   57MOL0     H 7694   1.894   2.907   4.344 -0.4914 -0.4466  1.4932
   57MOL0     H 7695   1.655   2.922   4.457 -3.8370  0.5042 -1.2795
   58MOL0     O 7696   0.924  10.122   4.166  0.4890  0.9023 -0.6334
   58MOL0     C 7697   0.973  10.150   4.274  0.5242 -0.1858 -0.3256
   58MOL0     O 7698   0.897  10.142   4.399  0.1078  0.0616 -0.1335
   58MOL0     C 7699   0.778  10.069   4.397  0.5312 -0.1234 -0.2009
   58MOL0     C 7700   0.676  10.071   4.296 -0.3097 -0.4889 -0.4352
   58MOL0     C 7701   0.556  10.007   4.318  0.2216 -0.0849  0.2797
   58MOL0     C 7702   0.533   9.933   4.439  0.2351  1.1983  0.6906
   58MOL0     O 7703   0.429   9.849   4.456  0.3001 -0.6617 -0.4430
   58MOL0     C 7704   0.305   9.880   4.374  0.0403  0.3965 -0.5561
   58MOL0     C 7705   0.192   9.822   4.465  0.0115 -0.8427 -0.7593
   58MOL0     C 7706   0.207   9.668   4.485 -0.1849 -0.8743  0.1907
   58MOL0     C 7707   0.080   9.607   4.538 -0.4699 -0.0025 -0.3635
   58MOL0     C 7708  -0.044   9.613   4.450  0.1583  0.5465  0.2350
   58MOL0     C 7709  -0.040   9.534   4.326 -0.4270  0.9061 -0.0920
   58MOL0     C 7710  -0.166   9.535   4.245  0.1597 -0.4805  0.7588
   58MOL0     C 7711  -0.147   9.476   4.105  0.0986 -0.5149  0.2386
   58MOL0     N 7712  -0.256   9.502   4.009 -0.1785 -0.3627 -0.2468
   58MOL0     C 7713  -0.270   9.629   3.958  0.3853  1.2941 -0.3921
   58MOL0     C 7714  -0.369   9.605   3.866 -0.4568 -0.3245  0.3669
   58MOL0     C 7715  -0.430   9.695   3.767  0.3634 -0.4697 -0.2140
   58MOL0     C 7716  -0.578   9.726   3.810  0.0766 -0.1030  0.6511
   58MOL0     C 7717  -0.635   9.812   3.699 -0.4184  0.3239  0.9712
   58MOL0     C 7718  -0.774   9.861   3.754  0.0827  0.4442 -0.6293
   58MOL0     O 7719  -0.869   9.857   3.643 -0.2075  0.6306 -0.1991
   58MOL0     C 7720  -0.995   9.884   3.674 -0.1382  0.1619  0.0299
   58MOL0     C 7721  -1.093   9.853   3.580 -1.3356  0.3429  0.4565
   58MOL0     C 7722  -1.221   9.905   3.586 -0.2046 -0.8766  0.5117
   58MOL0     C 7723  -1.302   9.881   3.463  0.4998  0.6519 -0.6399
   58MOL0     C 7724  -1.261   9.990   3.697  0.1706  0.4821 -0.6474
   58MOL0     C 7725  -1.385  10.068   3.712  0.3400  0.3689 -0.7288
   58MOL0     O 7726  -1.416  10.121   3.835  0.0309  0.1966 -0.4806
   58MOL0     C 7727  -1.515  10.213   3.851 -0.4523 -0.2133 -0.4176
   58MOL0     C 7728  -1.581  10.218   3.978 -0.4137 -0.7395  0.2063
   58MOL0     C 7729  -1.686  10.303   4.012 -0.2353 -0.6188  0.0931
   58MOL0     C 7730  -1.725  10.393   3.911 -0.0292 -0.3615 -1.0034
   58MOL0     O 7731  -1.823  10.478   3.948  0.3603  0.1026 -0.2002
   58MOL0     C 7732  -1.932  10.480   3.860  0.2040  0.1453 -0.2181
   58MOL0     C 7733  -2.015  10.360   3.895 -1.2203  0.4623 -0.0699
   58MOL0     C 7734  -2.141  10.354   3.813 -0.2347  0.9054 -0.0055
   58MOL0     C 7735  -2.254  10.433   3.862 -0.4277  0.7323  0.3693
   58MOL0     C 7736  -2.357  10.417   3.755 -0.1416 -0.8313  0.0935
   58MOL0     C 7737  -2.483  10.496   3.795  0.0731  0.1530  0.7977
   58MOL0     C 7738  -2.598  10.454   3.702  0.5972  0.4770 -0.1614
   58MOL0     C 7739  -2.727  10.538   3.724  0.0694 -0.3476 -0.1635
   58MOL0    Cl 7740  -2.861  10.461   3.631 -0.0731  0.1874  0.0596
   58MOL0     C 7741  -1.656  10.390   3.789 -0.4754 -0.8152  0.0083
   58MOL0     C 7742  -1.556  10.307   3.755 -0.0681 -1.0114  1.1281
   58MOL0     O 7743  -1.461  10.072   3.617 -0.0276 -0.1253  0.4079
   58MOL0     C 7744  -1.165  10.001   3.798 -0.4992 -0.1302  0.7077
   58MOL0     C 7745  -1.032   9.953   3.787  0.2616  0.3489 -0.0634
   58MOL0     N 7746  -0.420   9.473   3.869 -0.2045 -0.5692  0.5044
   58MOL0     N 7747  -0.351   9.415   3.955 -0.3092  0.4079 -0.2871
   58MOL0     C 7748   0.630   9.943   4.538 -0.6889 -0.6669 -0.3190
   58MOL0     C 7749   0.754  10.001   4.513 -0.6675 -0.3350 -0.5120
   58MOL0     C 7750   1.110  10.203   4.280 -0.2574 -0.1878 -0.7726
   58MOL0     C 7751   1.185  10.222   4.165  0.2815 -0.4710  0.5755
   58MOL0     C 7752   1.312  10.274   4.173 -0.4562  0.3673  0.4951
   58MOL0     C 7753   1.362  10.309   4.298 -0.0889 -1.2810  0.4620
   58MOL0     O 7754   1.482  10.378   4.289 -0.0524  0.4030 -0.4467
   58MOL0     C 7755   1.552  10.403   4.412 -1.1215  0.1802  0.1162
   58MOL0     C 7756   1.676  10.495   4.391  0.4340 -0.5391 -0.9732
   58MOL0     C 7757   1.771  10.424   4.290  0.0572 -0.0100 -0.7580
   58MOL0     C 7758   1.907  10.496   4.290 -0.4763  0.4499 -0.2864
   58MOL0     C 7759   1.977  10.463   4.414 -0.1083  0.4926 -0.4102
   58MOL0     C 7760   2.021  10.427   4.516 -0.2372 -0.8562 -1.3110
   58MOL0     C 7761   1.297  10.280   4.416  1.0448 -0.7151 -0.2550
   58MOL0     C 7762   1.173  10.221   4.407  0.0361  0.1793  0.3143
   58MOL0     H 7763   0.681  10.137   4.209  1.6718 -0.4430 -0.3331
   58MOL0     H 7764   0.486  10.024   4.237  0.6498 -4.5105 -1.2322
   58MOL0     H 7765   0.291   9.989   4.367  1.2693  0.8286  2.3038
   58MOL0     H 7766   0.310   9.834   4.275  0.1190  0.1169 -0.4211
   58MOL0     H 7767   0.192   9.866   4.565 -3.8254 -1.8475 -0.1488
   58MOL0     H 7768   0.100   9.850   4.412  0.1055  0.7631 -0.1508
   58MOL0     H 7769   0.236   9.603   4.401  2.1162 -0.1704  0.3684
   58MOL0     H 7770   0.285   9.647   4.558 -1.0133  1.4348  1.8590
   58MOL0     H 7771   0.098   9.501   4.557  0.7750  0.0559 -1.0831
   58MOL0     H 7772   0.055   9.660   4.631  0.0659  2.7445 -1.6880
   58MOL0     H 7773  -0.130   9.573   4.503 -1.7746  2.0900 -1.5720
   58MOL0     H 7774  -0.066   9.719   4.435  0.6931  0.5880 -0.2963
   58MOL0     H 7775   0.047   9.570   4.270  0.7780 -0.8702  0.5660
   58MOL0     H 7776  -0.014   9.434   4.361 -1.1069  0.7153 -0.1068
   58MOL0     H 7777  -0.240   9.484   4.308 -0.8214  2.1784  1.9470
   58MOL0     H 7778  -0.194   9.640   4.237  2.8904  0.2531 -0.5552
   58MOL0     H 7779  -0.139   9.367   4.114 -2.7832 -0.9007 -0.7721
   58MOL0     H 7780  -0.049   9.510   4.072  0.1203  1.5724  2.2703
   58MOL0     H 7781  -0.212   9.715   3.987  1.8161  0.1807  0.1793
   58MOL0     H 7782  -0.378   9.791   3.762 -1.9795  0.8552 -0.7917
   58MOL0     H 7783  -0.431   9.654   3.666  1.4175  0.2718 -0.5434
   58MOL0     H 7784  -0.573   9.774   3.908 -1.1977 -1.6740  1.5308
   58MOL0     H 7785  -0.637   9.636   3.832 -0.1258  0.0493  0.7327
   58MOL0     H 7786  -0.646   9.750   3.610 -0.9847 -0.3540  1.4985
   58MOL0     H 7787  -0.570   9.895   3.670 -0.5658  0.0617 -0.1362
   58MOL0     H 7788  -0.758   9.958   3.802 -0.1701 -0.1174  0.6389
   58MOL0     H 7789  -0.805   9.783   3.824 -0.4023  0.8163 -0.4349
   58MOL0     H 7790  -1.065   9.790   3.497 -0.3929 -1.1354  1.8455
   58MOL0     H 7791  -1.408   9.878   3.487  0.3332 -1.4013 -1.4177
   58MOL0     H 7792  -1.292   9.962   3.391 -0.3945  1.0862 -0.2867
   58MOL0     H 7793  -1.280   9.782   3.421  1.9420  0.1632  1.1047
   58MOL0     H 7794  -1.564  10.134   4.045 -0.9286 -0.8146  0.2461
   58MOL0     H 7795  -1.747  10.288   4.100 -2.6400  0.6716 -1.2625
   58MOL0     H 7796  -1.990  10.566   3.896 -1.2408 -1.6863  2.0925
   58MOL0     H 7797  -1.906  10.484   3.754  1.3705  0.8417  0.0714
   58MOL0     H 7798  -1.967  10.263   3.879 -0.5267  0.9974 -1.3107
   58MOL0     H 7799  -2.043  10.350   4.000  0.0948 -0.9303  0.1862
   58MOL0     H 7800  -2.166  10.249   3.795  1.2361  0.4728  0.3670
   58MOL0     H 7801  -2.115  10.383   3.710 -0.6850 -1.6788 -0.9312
   58MOL0     H 7802  -2.281  10.381   3.954 -1.2060 -1.1562 -0.8558
   58MOL0     H 7803  -2.217  10.535   3.875 -0.2261  0.6060  0.7803
   58MOL0     H 7804  -2.374  10.309   3.751  1.9447 -1.1468 -1.9222
   58MOL0     H 7805  -2.320  10.461   3.662  2.5705  0.8176  1.8255
   58MOL0     H 7806  -2.495  10.469   3.900  0.3640  0.1977  0.8428
   58MOL0     H 7807  -2.477  10.604   3.780 -2.8562  0.2471 -0.4748
   58MOL0     H 7808  -2.618  10.347   3.708  3.9686 -0.2043  0.8694
   58MOL0     H 7809  -2.577  10.477   3.597 -3.1769 -0.0798 -1.1879
   58MOL0     H 7810  -2.709  10.637   3.682 -0.2503 -0.9034 -1.6895
   58MOL0     H 7811  -2.751  10.548   3.830 -0.0672 -1.1238 -0.1124
   58MOL0     H 7812  -1.689  10.472   3.727  1.9215  0.9770  0.9528
   58MOL0     H 7813  -1.499  10.324   3.664  0.9634 -0.1490  1.9041
   58MOL0     H 7814  -1.197  10.052   3.889  0.2799  1.9826 -0.1439
   58MOL0     H 7815  -0.958   9.977   3.862  1.2927 -0.5431 -0.7660
   58MOL0     H 7816   0.624   9.884   4.628 -0.6627  1.3734  1.0834
   58MOL0     H 7817   0.834  10.007   4.587  0.5932  0.6848 -1.8938
   58MOL0     H 7818   1.144  10.204   4.066 -1.1350 -0.7846  1.1929
   58MOL0     H 7819   1.378  10.300   4.090 -1.3375  0.4588 -0.1932
   58MOL0     H 7820   1.487  10.458   4.480 -0.5204  1.3426 -0.2322
   58MOL0     H 7821   1.601  10.317   4.459  0.6930  0.2993 -1.4354
   58MOL0     H 7822   1.719  10.516   4.490 -2.7452  1.7372  0.0773
   58MOL0     H 7823   1.641  10.591   4.351  1.9828  2.0356  3.1149
   58MOL0     H 7824   1.740  10.437   4.186 -1.3540  0.1499 -0.3404
   58MOL0     H 7825   1.782  10.318   4.312 -2.8277 -0.2666 -0.1418
   58MOL0     H 7826   1.890  10.604   4.283  4.7397  1.5618 -0.2193
   58MOL0     H 7827   1.974  10.457   4.213  0.5804  0.1317  0.7427
   58MOL0     H 7828   2.056  10.411   4.616 -0.5956  1.6123 -0.7098
   58MOL0     H 7829   1.336  10.292   4.517  0.8626 -1.8630 -0.0296
   58MOL0     H 7830   1.118  10.199   4.498 -0.7497  2.0300  0.3150
   59MOL0     O 7831   0.631   0.464   1.668  0.5945 -0.7302  0.2976
   59MOL0     C 7832   0.689   0.375   1.609  0.6726 -0.0854 -0.2060
   59MOL0     O 7833   0.640   0.312   1.507 -0.0958 -0.1210 -0.2451
   59MOL0     C 7834   0.546   0.363   1.420 -0.5519  0.3273 -0.6700
   59MOL0     C 7835   0.546   0.497   1.369 -0.5567  0.9973 -0.5359
   59MOL0     C 7836   0.444   0.542   1.289  0.1947 -0.3488 -0.0110
   59MOL0     C 7837   0.346   0.452   1.246  0.0006 -0.5495 -0.1862
   59MOL0     O 7838   0.236   0.504   1.174  0.4607 -0.6021  0.0334
   59MOL0     C 7839   0.103   0.458   1.209 -1.2901  0.9825 -0.0255
   59MOL0     C 7840   0.003   0.541   1.133 -0.7804 -0.0437  0.1280
   59MOL0     C 7841   0.033   0.547   0.984  0.2346  0.1416  0.0694
   59MOL0     C 7842  -0.070   0.631   0.906  0.1038  0.7124 -0.5423
   59MOL0     C 7843  -0.029   0.646   0.766 -0.1601 -0.6282  0.6709
   59MOL0     C 7844  -0.052   0.525   0.678 -0.6167 -0.2285  0.3491
   59MOL0     C 7845  -0.027   0.565   0.532  0.0998  0.2883 -0.2574
   59MOL0     C 7846  -0.066   0.458   0.424  0.0500  0.1442  0.1470
   59MOL0     N 7847   0.040   0.356   0.424 -0.7007 -0.4063  0.0452
   59MOL0     C 7848   0.060   0.260   0.528  0.3719  0.0854 -0.3437
   59MOL0     C 7849   0.167   0.186   0.494 -0.1789  0.3729 -0.2496
   59MOL0     C 7850   0.212   0.053   0.546 -0.1310 -0.0155 -0.6570
   59MOL0     C 7851   0.363   0.021   0.516  0.8103  0.6450  0.0461
   59MOL0     C 7852   0.434  -0.116   0.544  0.4254 -0.2070  0.4806
   59MOL0     C 7853   0.441  -0.129   0.705  0.2460 -0.1334  0.8594
   59MOL0     O 7854   0.535  -0.236   0.732  0.3683 -0.0843  0.9122
   59MOL0     C 7855   0.667  -0.207   0.728 -0.1404 -0.8470 -0.0182
   59MOL0     C 7856   0.723  -0.079   0.726  0.0926  0.9479 -0.0135
   59MOL0     C 7857   0.859  -0.064   0.716 -0.6357 -0.4249 -0.2404
   59MOL0     C 7858   0.915   0.069   0.717 -0.6947 -0.3038  0.9258
   59MOL0     C 7859   0.942  -0.172   0.705  0.1283 -0.7339 -0.0335
   59MOL0     C 7860   1.091  -0.171   0.689  0.0272  0.6134  0.3860
   59MOL0     O 7861   1.162  -0.280   0.739 -0.3588 -0.1318  0.1877
   59MOL0     C 7862   1.295  -0.287   0.718 -0.1342  0.2357 -0.0859
   59MOL0     C 7863   1.349  -0.305   0.589 -1.3653 -0.5305  0.2420
   59MOL0     C 7864   1.485  -0.276   0.562 -0.4066  0.8999  0.1640
   59MOL0     C 7865   1.577  -0.259   0.670 -0.3117 -0.3996  0.0428
   59MOL0     O 7866   1.710  -0.231   0.652  0.6674 -0.1955  0.6407
   59MOL0     C 7867   1.757  -0.253   0.523 -0.4880 -0.5248 -0.0155
   59MOL0     C 7868   1.913  -0.229   0.525  0.3032  0.4623  0.0102
   59MOL0     C 7869   1.972  -0.291   0.398 -0.5463 -0.0499 -0.3830
   59MOL0     C 7870   2.131  -0.280   0.402 -0.0614 -0.1645 -0.9667
   59MOL0     C 7871   2.191  -0.136   0.386 -0.0440  0.0543  1.3703
   59MOL0     C 7872   2.340  -0.133   0.417 -0.4506  0.2198  0.4099
   59MOL0     C 7873   2.435  -0.229   0.338  1.0244  0.4468 -0.7933
   59MOL0     C 7874   2.576  -0.221   0.384 -0.0387  0.4530  0.4586
   59MOL0    Cl 7875   2.646  -0.069   0.321 -0.2301 -0.1406  0.4359
   59MOL0     C 7876   1.523  -0.250   0.797 -0.2866  0.1694  0.8254
   59MOL0     C 7877   1.389  -0.267   0.822 -0.2045  0.0269  0.6755
   59MOL0     O 7878   1.141  -0.076   0.630  0.2073  0.5097 -0.4358
   59MOL0     C 7879   0.886  -0.298   0.718  0.3013  0.1363  0.6729
   59MOL0     C 7880   0.750  -0.313   0.739  0.7210  0.6573  0.6390
   59MOL0     N 7881   0.221   0.248   0.384  0.3916  0.5565 -0.1685
   59MOL0     N 7882   0.155   0.351   0.347 -0.4996 -0.5578 -0.0433
   59MOL0     C 7883   0.355   0.315   1.281  0.0768  0.4586 -0.2344
   59MOL0     C 7884   0.452   0.273   1.367 -0.3246  0.0302  0.1014
   59MOL0     C 7885   0.819   0.331   1.660 -0.4667 -0.9540 -0.2180
   59MOL0     C 7886   0.848   0.354   1.793 -0.2847 -1.6667 -0.2617
   59MOL0     C 7887   0.977   0.334   1.845  0.2255  0.0343  0.4782
   59MOL0     C 7888   1.078   0.266   1.769  0.3600 -0.5250 -0.1430
   59MOL0     O 7889   1.193   0.236   1.843 -0.0158  0.3222 -0.1023
   59MOL0     C 7890   1.292   0.171   1.778 -0.7843  0.2251  0.7349
   59MOL0     C 7891   1.402   0.139   1.876  0.3165  0.3869  0.7213
   59MOL0     C 7892   1.469   0.267   1.910  1.0604  0.8448  0.8297
   59MOL0     C 7893   1.590   0.229   1.999 -0.0104  0.6049  0.0688
   59MOL0     C 7894   1.621   0.344   2.083  0.0373 -0.2994 -0.8059
   59MOL0     C 7895   1.669   0.429   2.162  0.1795  0.6061 -1.0776
   59MOL0     C 7896   1.043   0.235   1.640 -0.4969  0.0880 -0.0593
   59MOL0     C 7897   0.920   0.262   1.584  0.6735  0.5146  0.8971
   59MOL0     H 7898   0.630   0.557   1.402  0.7865  0.2943 -2.4871
   59MOL0     H 7899   0.435   0.647   1.264 -0.4548 -0.0226  1.4328
   59MOL0     H 7900   0.092   0.353   1.183  0.8181  0.8246 -0.4815
   59MOL0     H 7901   0.088   0.469   1.317  1.9533 -1.7616  0.8611
   59MOL0     H 7902  -0.092   0.487   1.144 -1.2959  1.0645  1.3976
   59MOL0     H 7903  -0.005   0.638   1.184 -0.7880  1.0252 -1.7975
   59MOL0     H 7904   0.135   0.583   0.965  0.0725 -0.1568 -1.4902
   59MOL0     H 7905   0.021   0.454   0.929  1.2507  1.2537 -2.1754
   59MOL0     H 7906  -0.166   0.581   0.921  0.2603  0.5023 -0.2102
   59MOL0     H 7907  -0.079   0.729   0.954  2.4898  0.2660  1.0416
   59MOL0     H 7908  -0.090   0.723   0.719  1.6874  0.1259 -0.6109
   59MOL0     H 7909   0.076   0.678   0.758 -0.6133  0.4791 -4.5180
   59MOL0     H 7910   0.023   0.447   0.695  0.7299 -0.2527 -4.3779
   59MOL0     H 7911  -0.158   0.499   0.687 -0.8983  0.8757  0.3691
   59MOL0     H 7912  -0.089   0.653   0.510 -2.1790 -0.7362  1.6523
   59MOL0     H 7913   0.079   0.590   0.518  0.6194  0.3368  2.9863
   59MOL0     H 7914  -0.074   0.504   0.324 -0.2849  0.3919  0.2883
   59MOL0     H 7915  -0.165   0.419   0.446 -1.3146  1.8413 -2.4861
   59MOL0     H 7916  -0.013   0.240   0.605 -0.7694  0.8924 -1.1827
   59MOL0     H 7917   0.182   0.050   0.651 -0.6653  2.8393 -0.6508
   59MOL0     H 7918   0.156  -0.017   0.483  1.0353  0.7109 -2.5818
   59MOL0     H 7919   0.422   0.102   0.559 -0.3507  2.1616 -1.0654
   59MOL0     H 7920   0.362   0.031   0.407 -1.1513  2.2734  0.1635
   59MOL0     H 7921   0.532  -0.127   0.495  1.7073  1.2882  2.5483
   59MOL0     H 7922   0.363  -0.191   0.508  0.4237  0.9413 -2.1376
   59MOL0     H 7923   0.338  -0.150   0.734  0.4707 -2.7301 -0.0081
   59MOL0     H 7924   0.467  -0.033   0.752  3.2107 -0.8464  0.8813
   59MOL0     H 7925   0.664   0.011   0.737  0.3557  1.3989 -1.8866
   59MOL0     H 7926   1.009   0.074   0.774  0.2133 -0.5019 -0.4986
   59MOL0     H 7927   0.939   0.095   0.614 -1.5083  3.3016  1.5102
   59MOL0     H 7928   0.852   0.151   0.752 -1.0331 -0.7911  1.4724
   59MOL0     H 7929   1.282  -0.323   0.505 -1.5586 -2.0571  0.6815
   59MOL0     H 7930   1.513  -0.291   0.458 -1.5896 -2.4234  0.1863
   59MOL0     H 7931   1.741  -0.355   0.487 -0.5213 -1.0413  1.3986
   59MOL0     H 7932   1.724  -0.170   0.461 -1.9028 -2.1136 -1.5035
   59MOL0     H 7933   1.940  -0.124   0.543  1.5203  0.2073 -0.2431
   59MOL0     H 7934   1.964  -0.282   0.606  1.0291  1.7152  0.4125
   59MOL0     H 7935   1.932  -0.246   0.306 -1.1526  0.9637  0.3544
   59MOL0     H 7936   1.955  -0.398   0.410 -1.7762  0.4024  3.0057
   59MOL0     H 7937   2.160  -0.307   0.505  0.1513 -0.2478 -1.0492
   59MOL0     H 7938   2.167  -0.339   0.317 -3.5318  1.0288 -3.5014
   59MOL0     H 7939   2.145  -0.054   0.442  0.7648  0.3818  1.5649
   59MOL0     H 7940   2.183  -0.097   0.284  1.5152  1.2000  1.6430
   59MOL0     H 7941   2.375  -0.032   0.394 -1.0048  0.0873 -1.0887
   59MOL0     H 7942   2.355  -0.140   0.525  2.4908  2.2877  0.2526
   59MOL0     H 7943   2.438  -0.209   0.230  2.4787  1.1510 -0.6473
   59MOL0     H 7944   2.401  -0.332   0.354  1.6180  0.1641 -1.2884
   59MOL0     H 7945   2.630  -0.306   0.341  0.0642  1.6299 -1.9074
   59MOL0     H 7946   2.588  -0.214   0.493 -1.2885 -1.3264  0.7396
   59MOL0     H 7947   1.594  -0.233   0.877  0.3504  1.1226  0.0850
   59MOL0     H 7948   1.351  -0.271   0.923 -1.3374  1.8343  0.3514
   59MOL0     H 7949   0.946  -0.387   0.699  1.7384  0.5698  2.8821
   59MOL0     H 7950   0.704  -0.411   0.751  4.3111 -1.1532  1.0468
   59MOL0     H 7951   0.275   0.247   1.252  0.2057  0.6404 -1.0553
   59MOL0     H 7952   0.452   0.168   1.394 -1.4491  0.2225  0.9498
   59MOL0     H 7953   0.770   0.401   1.852 -2.0995 -2.5047 -1.8568
   59MOL0     H 7954   0.995   0.362   1.948 -1.2690  2.8880  0.0649
   59MOL0     H 7955   1.259   0.086   1.717  1.2699  1.2774 -2.0615
   59MOL0     H 7956   1.335   0.240   1.705 -0.9917  1.3583  1.6564
   59MOL0     H 7957   1.468   0.065   1.830 -1.8125 -0.2398 -1.5789
   59MOL0     H 7958   1.352   0.088   1.959  0.7063 -2.6265 -0.7575
   59MOL0     H 7959   1.392   0.333   1.953 -0.4567 -0.8446  0.8029
   59MOL0     H 7960   1.518   0.310   1.823 -2.0049  0.5611 -1.2015
   59MOL0     H 7961   1.675   0.204   1.935  0.6381 -2.0841  1.8228
   59MOL0     H 7962   1.574   0.139   2.058  0.3140 -0.4522 -1.4167
   59MOL0     H 7963   1.711   0.490   2.240  1.3044 -0.3813 -0.8863
   59MOL0     H 7964   1.108   0.188   1.567 -3.1333 -0.2747 -2.3451
   59MOL0     H 7965   0.895   0.237   1.482  1.7378  2.7814  0.0087
   60MOL0     O 7966   7.030   7.465   2.350  0.2675  0.3264  0.0503
   60MOL0     C 7967   6.923   7.456   2.287  0.4980 -0.5981 -0.6654
   60MOL0     O 7968   6.804   7.405   2.344  0.2052  0.1395  0.9794
   60MOL0     C 7969   6.799   7.386   2.482 -1.2752 -0.1479  0.2161
   60MOL0     C 7970   6.858   7.474   2.579  0.0772 -0.6778  0.0303
   60MOL0     C 7971   6.831   7.451   2.714  0.2656 -0.0194 -0.6774
   60MOL0     C 7972   6.734   7.351   2.755  0.0624 -0.9106 -0.2408
   60MOL0     O 7973   6.712   7.319   2.889 -0.3876  0.0742  0.6060
   60MOL0     C 7974   6.765   7.401   2.987  0.0810  0.2366 -0.5195
   60MOL0     C 7975   6.714   7.360   3.135  0.3206 -0.1458  0.9648
   60MOL0     C 7976   6.563   7.358   3.153 -0.3911  0.4475  1.0296
   60MOL0     C 7977   6.514   7.368   3.298 -0.0872  0.6801 -0.1244
   60MOL0     C 7978   6.360   7.393   3.312 -0.2606  0.0447  0.1197
   60MOL0     C 7979   6.268   7.279   3.240 -1.0485  0.0954 -0.4246
   60MOL0     C 7980   6.126   7.241   3.293 -0.8632 -0.1411  1.0049
   60MOL0     C 7981   6.138   7.163   3.427  1.5460 -0.0578 -0.9031
   60MOL0     N 7982   6.007   7.096   3.456 -1.0089  0.1737  0.6552
   60MOL0     C 7983   5.885   7.163   3.436 -0.1790 -0.3262 -0.5222
   60MOL0     C 7984   5.800   7.060   3.411  0.6615  0.3319 -0.1269
   60MOL0     C 7985   5.656   7.075   3.378 -0.3519  0.1188  0.3963
   60MOL0     C 7986   5.565   7.022   3.486  0.1541 -0.6261 -0.4323
   60MOL0     C 7987   5.415   7.046   3.435 -0.5131  0.8083  0.2511
   60MOL0     C 7988   5.318   6.945   3.503  0.1807  1.0343  0.2772
   60MOL0     O 7989   5.295   6.984   3.639  0.0262 -0.0493 -0.4397
   60MOL0     C 7990   5.171   6.960   3.702  0.2688 -0.6725  0.6037
   60MOL0     C 7991   5.133   7.038   3.809 -0.0307  0.4086 -0.0398
   60MOL0     C 7992   5.015   7.035   3.875  0.4395 -0.3453 -0.7404
   60MOL0     C 7993   5.006   7.117   4.009 -0.1089 -0.3729  1.0187
   60MOL0     C 7994   4.925   6.941   3.840 -0.0789 -0.0386  0.6800
   60MOL0     C 7995   4.800   6.925   3.907 -0.1861  0.3834 -0.1299
   60MOL0     O 7996   4.704   7.014   3.862 -0.2099  0.2364  0.1372
   60MOL0     C 7997   4.581   6.962   3.871 -0.0869 -0.2836 -0.5548
   60MOL0     C 7998   4.478   7.042   3.927  0.1734  0.5987 -0.2288
   60MOL0     C 7999   4.341   6.999   3.931 -0.3724 -0.0596 -0.0731
   60MOL0     C 8000   4.306   6.876   3.868  0.4705  0.1121  0.1415
   60MOL0     O 8001   4.172   6.851   3.864 -0.3311 -0.5559 -0.0124
   60MOL0     C 8002   4.126   6.766   3.753 -0.7973  0.2092  0.3287
   60MOL0     C 8003   3.979   6.770   3.725 -0.6393 -0.6740  0.2927
   60MOL0     C 8004   3.904   6.719   3.843  0.7405  0.2317  0.8601
   60MOL0     C 8005   3.761   6.711   3.810  0.4741  0.2738  0.1202
   60MOL0     C 8006   3.675   6.683   3.934 -0.1955  0.8471  0.4201
   60MOL0     C 8007   3.530   6.722   3.904  0.6321  1.1715 -0.1611
   60MOL0     C 8008   3.436   6.650   4.000 -0.3441 -0.0815 -0.2199
   60MOL0     C 8009   3.310   6.727   4.033 -0.1008  0.5243  0.5549
   60MOL0    Cl 8010   3.207   6.782   3.889 -0.0519 -0.4657 -0.2423
   60MOL0     C 8011   4.407   6.793   3.808 -0.0990 -0.4888 -0.3293
   60MOL0     C 8012   4.546   6.840   3.811 -0.4911 -1.0994  0.4045
   60MOL0     O 8013   4.779   6.822   3.974 -0.3558  0.3041 -0.8655
   60MOL0     C 8014   4.951   6.860   3.729  0.4013 -0.2641 -0.4076
   60MOL0     C 8015   5.072   6.875   3.658 -0.3530  0.2831 -0.3697
   60MOL0     N 8016   5.873   6.939   3.431  0.1922  0.5086  0.4198
   60MOL0     N 8017   5.991   6.965   3.463 -0.1930 -0.2265 -0.5178
   60MOL0     C 8018   6.670   7.273   2.664 -0.0511 -0.5809 -0.3550
   60MOL0     C 8019   6.703   7.291   2.527  1.2863  0.0286 -0.6131
   60MOL0     C 8020   6.911   7.481   2.145 -0.1235  0.4132  0.8195
   60MOL0     C 8021   6.792   7.472   2.065  0.7338 -0.2147  0.7493
   60MOL0     C 8022   6.801   7.500   1.926  0.5977 -0.0342  0.4022
   60MOL0     C 8023   6.921   7.547   1.872  0.4820  0.6378 -0.1619
   60MOL0     O 8024   6.936   7.543   1.738 -0.0670 -0.3222 -0.1204
   60MOL0     C 8025   6.916   7.410   1.675 -0.6370 -0.4390  0.1720
   60MOL0     C 8026   7.038   7.377   1.584  1.5533  0.6956 -0.0182
   60MOL0     C 8027   7.173   7.371   1.655 -0.3336  0.3142  0.4157
   60MOL0     C 8028   7.297   7.367   1.551  0.7699 -0.2679 -0.4423
   60MOL0     C 8029   7.415   7.362   1.634 -1.0947 -0.2413 -1.1662
   60MOL0     C 8030   7.526   7.373   1.691 -1.0354 -0.0221 -0.2588
   60MOL0     C 8031   7.031   7.561   1.954  0.0441 -0.4465 -0.0286
   60MOL0     C 8032   7.024   7.526   2.085  0.8403 -0.6843  0.0225
   60MOL0     H 8033   6.922   7.555   2.546 -3.5548  2.0065 -1.1795
   60MOL0     H 8034   6.884   7.519   2.780 -2.7314  0.9082  0.9471
   60MOL0     H 8035   6.872   7.377   2.984 -0.1096 -0.8667  0.7305
   60MOL0     H 8036   6.736   7.505   2.966 -0.5325 -0.3727 -3.0450
   60MOL0     H 8037   6.755   7.260   3.155  0.4459 -0.4260 -0.6232
   60MOL0     H 8038   6.761   7.429   3.206 -0.3643  0.1422  1.1441
   60MOL0     H 8039   6.524   7.437   3.089  1.5327  0.5382 -0.1384
   60MOL0     H 8040   6.526   7.264   3.112 -1.2834  1.4356 -0.4885
   60MOL0     H 8041   6.523   7.264   3.331 -1.1080 -0.6554 -3.5523
   60MOL0     H 8042   6.564   7.440   3.364 -1.2269  0.3097  1.1758
   60MOL0     H 8043   6.328   7.389   3.416 -0.8867 -0.4978 -0.0846
   60MOL0     H 8044   6.328   7.489   3.273 -0.9792 -0.0261  0.5203
   60MOL0     H 8045   6.262   7.302   3.133 -0.5851 -0.8867 -0.6650
   60MOL0     H 8046   6.327   7.187   3.240 -0.4076  0.4981 -0.5922
   60MOL0     H 8047   6.076   7.335   3.317  3.1682  1.6649  3.2740
   60MOL0     H 8048   6.077   7.187   3.211 -0.6492  0.4749  0.4695
   60MOL0     H 8049   6.147   7.233   3.510  0.5517 -0.0799 -0.7623
   60MOL0     H 8050   6.222   7.093   3.432  0.8749 -0.9270 -1.5265
   60MOL0     H 8051   5.854   7.266   3.426 -0.7812 -0.3747  0.6490
   60MOL0     H 8052   5.640   7.183   3.390 -1.5289 -0.0318  0.2655
   60MOL0     H 8053   5.637   7.034   3.278  2.6215 -0.9585  0.1484
   60MOL0     H 8054   5.578   7.069   3.585  2.2262 -2.0386  0.0177
   60MOL0     H 8055   5.577   6.915   3.505  0.8385  0.0546  4.2793
   60MOL0     H 8056   5.413   7.023   3.328  1.8489  0.8349  0.1571
   60MOL0     H 8057   5.372   7.145   3.451 -0.1927  1.9839 -4.5288
   60MOL0     H 8058   5.366   6.847   3.490  0.9713  1.5847 -1.2397
   60MOL0     H 8059   5.224   6.955   3.448  0.0672 -1.0695 -0.0185
   60MOL0     H 8060   5.210   7.106   3.846  0.0528  0.2880  0.0113
   60MOL0     H 8061   4.901   7.121   4.041 -0.0551  1.4436  1.0731
   60MOL0     H 8062   5.058   7.070   4.093 -3.9137  0.2875  4.0883
   60MOL0     H 8063   5.039   7.221   4.007  0.3587 -0.5326  0.2701
   60MOL0     H 8064   4.504   7.138   3.970 -0.9885  0.4696  0.8212
   60MOL0     H 8065   4.260   7.059   3.971  0.3525 -0.1157  1.5564
   60MOL0     H 8066   4.170   6.794   3.658 -0.0463  0.9096  0.8724
   60MOL0     H 8067   4.160   6.664   3.773 -1.9408 -0.4581 -0.9438
   60MOL0     H 8068   3.954   6.875   3.704 -1.3629 -0.8958  0.0175
   60MOL0     H 8069   3.964   6.718   3.629  0.9931  0.7522 -0.8007
   60MOL0     H 8070   3.927   6.781   3.930 -0.3166  2.7291 -0.5275
   60MOL0     H 8071   3.941   6.619   3.866  0.6998  0.1933  0.7580
   60MOL0     H 8072   3.736   6.810   3.769  1.8223 -0.0569 -1.6354
   60MOL0     H 8073   3.741   6.637   3.732 -1.2156 -0.3831  1.1098
   60MOL0     H 8074   3.708   6.735   4.024 -0.5727  1.5215  0.1741
   60MOL0     H 8075   3.687   6.577   3.958 -1.3492  0.1346 -1.8371
   60MOL0     H 8076   3.525   6.831   3.912 -0.8431  1.2035 -1.0750
   60MOL0     H 8077   3.491   6.711   3.803  0.0357  1.8886 -0.0161
   60MOL0     H 8078   3.476   6.643   4.101 -0.4814 -1.9146 -0.2656
   60MOL0     H 8079   3.417   6.545   3.976  1.4777 -0.7001  0.8622
   60MOL0     H 8080   3.331   6.819   4.088  0.5664  0.2566  0.7624
   60MOL0     H 8081   3.247   6.661   4.093 -0.6224  1.1737  0.7284
   60MOL0     H 8082   4.388   6.688   3.788  3.5534 -1.6842  1.5545
   60MOL0     H 8083   4.623   6.782   3.761  1.0627  1.7804 -0.7939
   60MOL0     H 8084   4.880   6.793   3.683 -3.2530  2.3376  1.0021
   60MOL0     H 8085   5.081   6.809   3.573 -1.2444  1.0696 -1.1030
   60MOL0     H 8086   6.596   7.200   2.695 -1.1102  0.2779 -0.8019
   60MOL0     H 8087   6.652   7.237   2.448  0.5447  0.9924 -0.8264
   60MOL0     H 8088   6.700   7.449   2.117 -0.7245  1.2258 -1.0686
   60MOL0     H 8089   6.714   7.477   1.864 -0.7307  2.7997  1.0454
   60MOL0     H 8090   6.903   7.334   1.752 -4.1431 -0.4346 -0.2770
   60MOL0     H 8091   6.819   7.409   1.625 -0.5521  0.5327 -0.0405
   60MOL0     H 8092   7.045   7.447   1.500  0.2554  0.9052  0.0281
   60MOL0     H 8093   7.011   7.277   1.548 -0.8361  0.9622  0.8243
   60MOL0     H 8094   7.170   7.278   1.713 -3.5587  0.2001  0.2481
   60MOL0     H 8095   7.186   7.466   1.708  1.7577  0.8755 -0.9664
   60MOL0     H 8096   7.300   7.453   1.484  3.0885 -1.3561 -1.8598
   60MOL0     H 8097   7.279   7.279   1.490 -0.6402  0.4831 -1.1521
   60MOL0     H 8098   7.607   7.374   1.761 -3.1044  0.1464  2.3050
   60MOL0     H 8099   7.128   7.568   1.906  0.9446 -4.6705  0.7517
   60MOL0     H 8100   7.113   7.552   2.142  0.5925  2.5000 -0.8232
   61MOL0     O 8101   3.299  10.188  10.829  0.0688 -0.0645  0.9107
   61MOL0     C 8102   3.323  10.069  10.865  0.3123 -0.1616  0.3573
   61MOL0     O 8103   3.256   9.951  10.823 -0.0436  0.0022 -0.2789
   61MOL0     C 8104   3.166   9.953  10.723 -0.3110  0.3594 -0.1350
   61MOL0     C 8105   3.186  10.022  10.605 -1.1356  0.4801  0.1459
   61MOL0     C 8106   3.097  10.009  10.502  0.0809 -0.4792  0.4032
   61MOL0     C 8107   2.993   9.918  10.495  0.1518  0.3574 -1.3583
   61MOL0     O 8108   2.906   9.884  10.396 -0.3399 -0.6984 -0.0784
   61MOL0     C 8109   2.892   9.962  10.273 -0.3028 -0.0926  0.0003
   61MOL0     C 8110   2.803   9.890  10.179 -0.1390 -0.4858  0.0477
   61MOL0     C 8111   2.659   9.927  10.214  0.3798 -0.5811 -0.3131
   61MOL0     C 8112   2.564   9.840  10.132  0.2988 -0.1261  0.6473
   61MOL0     C 8113   2.421   9.879  10.150 -0.1671  0.3664  0.2773
   61MOL0     C 8114   2.325   9.783  10.071  0.0404  0.2783 -0.6459
   61MOL0     C 8115   2.180   9.834  10.084  0.0741  0.2828  0.7486
   61MOL0     C 8116   2.080   9.730  10.028  0.7063 -0.3436  0.0538
   61MOL0     N 8117   1.948   9.792  10.053 -0.0084 -0.8412 -0.1773
   61MOL0     C 8118   1.877   9.786  10.163 -0.0926 -0.0974 -0.5550
   61MOL0     C 8119   1.761   9.854  10.141  0.0473 -0.1379 -0.1872
   61MOL0     C 8120   1.635   9.874  10.228 -0.9617 -0.3501 -0.5940
   61MOL0     C 8121   1.522   9.770  10.208 -0.2209  0.1753 -0.1749
   61MOL0     C 8122   1.486   9.748  10.060 -1.3258 -0.2051 -0.7673
   61MOL0     C 8123   1.360   9.673  10.021 -0.2316 -0.3685 -1.0343
   61MOL0     O 8124   1.249   9.747  10.082 -0.0405  0.6197  0.8271
   61MOL0     C 8125   1.118   9.708  10.065  1.0645  0.0684 -0.4170
   61MOL0     C 8126   1.073   9.607   9.985 -0.1246  0.0684  0.1582
   61MOL0     C 8127   0.934   9.563   9.969  0.2044  0.7730 -0.1390
   61MOL0     C 8128   0.901   9.459   9.867  0.2108  0.5353  0.4992
   61MOL0     C 8129   0.835   9.630  10.051 -0.0138  0.1316  0.0549
   61MOL0     C 8130   0.685   9.598  10.042 -0.7286 -0.1576 -0.3809
   61MOL0     O 8131   0.609   9.655  10.132  0.2164  0.0301 -0.6442
   61MOL0     C 8132   0.470   9.645  10.124  0.3807  0.0725 -0.1892
   61MOL0     C 8133   0.394   9.651  10.011 -0.2436 -0.6732 -0.3406
   61MOL0     C 8134   0.252   9.641  10.018  0.4076 -0.1892  1.2705
   61MOL0     C 8135   0.186   9.643  10.136  1.1420 -0.8797  0.1880
   61MOL0     O 8136   0.046   9.643  10.144  0.2686  0.6758 -0.5342
   61MOL0     C 8137  -0.026   9.610  10.264 -0.2718 -0.4962  0.7195
   61MOL0     C 8138  -0.170   9.645  10.228 -0.5767  0.0837 -0.0846
   61MOL0     C 8139  -0.276   9.597  10.325  0.1227 -0.4510  0.7283
   61MOL0     C 8140  -0.313   9.446  10.318  0.2153 -1.5284 -0.1570
   61MOL0     C 8141  -0.414   9.399  10.421 -0.6938 -0.2391 -0.5842
   61MOL0     C 8142  -0.559   9.443  10.403  0.3817 -0.0629 -0.2128
   61MOL0     C 8143  -0.642   9.444  10.529  0.5156 -0.5681  0.5775
   61MOL0     C 8144  -0.775   9.493  10.493  0.7673  0.7110 -0.9298
   61MOL0    Cl 8145  -0.867   9.365  10.402 -0.1972  0.2127  0.0330
   61MOL0     C 8146   0.262   9.633  10.251  0.3273  0.1635 -0.0239
   61MOL0     C 8147   0.402   9.619  10.243 -0.1266 -0.6732 -0.3004
   61MOL0     O 8148   0.639   9.526   9.955 -0.6413  0.3866  0.3984
   61MOL0     C 8149   0.881   9.741  10.123  0.4096 -0.0254 -0.4685
   61MOL0     C 8150   1.016   9.780  10.133  0.5294  0.7912 -0.0999
   61MOL0     N 8151   1.761   9.887  10.009 -0.2933  0.5358 -0.6286
   61MOL0     N 8152   1.867   9.836   9.955  0.1265 -0.7490  0.4607
   61MOL0     C 8153   2.976   9.841  10.622  1.0206  0.3551  0.5945
   61MOL0     C 8154   3.058   9.865  10.736 -0.3786  0.1459 -0.9685
   61MOL0     C 8155   3.446  10.052  10.944 -1.2526 -0.0308  0.0926
   61MOL0     C 8156   3.495   9.923  10.979 -0.0361 -0.3876 -0.3116
   61MOL0     C 8157   3.618   9.907  11.044  0.1493  0.0967  1.0281
   61MOL0     C 8158   3.698  10.019  11.071  0.9207 -0.0593 -0.5546
   61MOL0     O 8159   3.819   9.991  11.134  0.1555 -0.3092  0.3976
   61MOL0     C 8160   3.903  10.101  11.174  0.4794 -1.0805  0.3631
   61MOL0     C 8161   4.016  10.055  11.262 -0.7732 -0.0191 -0.3260
   61MOL0     C 8162   4.102   9.943  11.201 -0.0749 -0.2277  0.3770
   61MOL0     C 8163   4.243   9.915  11.259  1.2716 -0.5485  1.0116
   61MOL0     C 8164   4.241   9.829  11.386  0.3980  0.5791  0.0260
   61MOL0     C 8165   4.244   9.762  11.489  0.4856 -0.5092  0.8594
   61MOL0     C 8166   3.654  10.150  11.028  0.0282 -0.0663  0.4160
   61MOL0     C 8167   3.531  10.163  10.971  0.5649  0.9997  0.2618
   61MOL0     H 8168   3.278  10.073  10.578 -1.3762  0.5272 -0.6028
   61MOL0     H 8169   3.114  10.071  10.415  1.6575 -1.5246 -0.0695
   61MOL0     H 8170   2.856  10.063  10.297 -0.0036 -0.1800  0.8293
   61MOL0     H 8171   2.991   9.975  10.230 -1.2677 -2.4355 -3.3365
   61MOL0     H 8172   2.831   9.923  10.079 -2.6431 -2.0766 -1.2645
   61MOL0     H 8173   2.826   9.783  10.179  2.6752  0.0179  0.5887
   61MOL0     H 8174   2.638   9.905  10.319 -1.2751  0.2670 -0.4330
   61MOL0     H 8175   2.633  10.032  10.194  2.6446 -0.2497 -2.0464
   61MOL0     H 8176   2.586   9.829  10.026 -2.6366 -0.1936 -0.0289
   61MOL0     H 8177   2.583   9.745  10.183  0.1075 -0.4246  0.1599
   61MOL0     H 8178   2.398   9.868  10.256 -0.9611 -2.8595 -0.1151
   61MOL0     H 8179   2.409   9.983  10.121  0.2706  0.3767  0.1248
   61MOL0     H 8180   2.365   9.782   9.969 -1.7719 -2.3371 -1.4265
   61MOL0     H 8181   2.331   9.679  10.103  0.9509 -0.0858 -1.9133
   61MOL0     H 8182   2.158   9.860  10.188 -2.3172  0.2529  0.3099
   61MOL0     H 8183   2.165   9.924  10.024  2.2476 -0.8963 -1.7470
   61MOL0     H 8184   2.100   9.637  10.083 -1.4957 -0.7295  0.3029
   61MOL0     H 8185   2.097   9.701   9.924 -1.8162 -0.2660 -0.4527
   61MOL0     H 8186   1.920   9.741  10.252  2.5764  1.6185 -0.8736
   61MOL0     H 8187   1.668   9.872  10.333 -0.9933  2.4550 -0.4346
   61MOL0     H 8188   1.588   9.972  10.212 -0.4957  0.4888  2.3800
   61MOL0     H 8189   1.436   9.788  10.274 -1.4555  0.0372 -1.6880
   61MOL0     H 8190   1.560   9.673  10.241 -1.0489  0.1056  0.6227
   61MOL0     H 8191   1.574   9.698  10.019 -1.8348  0.0658 -2.2670
   61MOL0     H 8192   1.477   9.850  10.021  0.8786  0.1099 -0.5518
   61MOL0     H 8193   1.359   9.569  10.057  1.0177 -0.9496 -2.5654
   61MOL0     H 8194   1.361   9.680   9.912  3.9123 -2.3331 -1.3178
   61MOL0     H 8195   1.149   9.555   9.928  0.9332  0.1835  1.4140
   61MOL0     H 8196   0.843   9.377   9.911  1.5359  0.2564  1.7990
   61MOL0     H 8197   0.845   9.495   9.779  1.4571  1.9081  0.2245
   61MOL0     H 8198   0.991   9.409   9.830 -2.2745 -2.3734 -2.2374
   61MOL0     H 8199   0.444   9.668   9.916  0.0943  0.3618  0.0095
   61MOL0     H 8200   0.190   9.642   9.929  2.4008 -0.3716 -0.1879
   61MOL0     H 8201  -0.004   9.506  10.287  1.3128 -0.2676  0.3627
   61MOL0     H 8202   0.018   9.676  10.340  1.2826  1.6188 -1.8332
   61MOL0     H 8203  -0.172   9.752  10.204 -1.8519  0.1880  0.4125
   61MOL0     H 8204  -0.191   9.601  10.130 -1.4144 -1.6217  0.8123
   61MOL0     H 8205  -0.369   9.649  10.300  0.3708 -0.4845 -0.2943
   61MOL0     H 8206  -0.240   9.623  10.425 -0.6426 -0.5038  1.0243
   61MOL0     H 8207  -0.340   9.421  10.215  1.2429  1.7341 -1.3372
   61MOL0     H 8208  -0.219   9.393  10.338  0.4483 -1.0411  0.0570
   61MOL0     H 8209  -0.379   9.439  10.517 -3.7500 -1.8783  1.3607
   61MOL0     H 8210  -0.415   9.290  10.417  2.1744 -0.5508  2.5038
   61MOL0     H 8211  -0.552   9.539  10.350 -0.2931 -1.1936 -2.4906
   61MOL0     H 8212  -0.600   9.367  10.336  0.2545  1.1391 -1.5401
   61MOL0     H 8213  -0.601   9.522  10.593  0.6612 -0.0681 -0.1123
   61MOL0     H 8214  -0.650   9.352  10.587  0.5936 -0.8086  0.2154
   61MOL0     H 8215  -0.776   9.586  10.435 -1.4911 -0.1524 -2.4563
   61MOL0     H 8216  -0.834   9.526  10.579  1.9590 -1.5156  0.8501
   61MOL0     H 8217   0.214   9.624  10.348  1.2817 -1.3832  0.3325
   61MOL0     H 8218   0.447   9.602  10.341 -0.6397 -0.6444 -0.0555
   61MOL0     H 8219   0.813   9.804  10.180  1.6560  0.0002  1.0595
   61MOL0     H 8220   1.049   9.858  10.202  1.5371 -0.9386  1.4713
   61MOL0     H 8221   2.888   9.779  10.614  0.9014  0.5531  0.3516
   61MOL0     H 8222   3.045   9.807  10.827  0.3547  0.1985 -0.8248
   61MOL0     H 8223   3.437   9.833  10.960  0.6564 -1.0622  0.6468
   61MOL0     H 8224   3.647   9.805  11.070  0.2104 -0.4529 -1.0081
   61MOL0     H 8225   3.945  10.151  11.087  0.3441 -0.6032  0.5656
   61MOL0     H 8226   3.847  10.177  11.230  0.1330 -2.2651  1.7016
   61MOL0     H 8227   3.980  10.016  11.358  1.8739 -0.8616  0.4135
   61MOL0     H 8228   4.080  10.136  11.297  0.2588 -1.4686  1.3722
   61MOL0     H 8229   4.118   9.963  11.094 -0.9364 -1.7398 -0.0650
   61MOL0     H 8230   4.043   9.851  11.204  0.7063 -0.7648 -0.0759
   61MOL0     H 8231   4.283  10.013  11.285  2.5464 -0.0621 -2.2811
   61MOL0     H 8232   4.303   9.860  11.186  0.7679 -1.1044  1.0099
   61MOL0     H 8233   4.247   9.699  11.575 -1.7137 -1.5942  0.2079
   61MOL0     H 8234   3.721  10.233  11.048  0.6628 -0.7572  1.2428
   61MOL0     H 8235   3.496  10.260  10.937  0.8022  1.0493  0.1617
   62MOL0     O 8236   3.878   5.485   7.907  0.1235 -0.2067 -0.6179
   62MOL0     C 8237   3.995   5.527   7.908 -0.8267  0.2929  0.3681
   62MOL0     O 8238   4.070   5.557   7.799  0.5564 -0.6797 -0.0940
   62MOL0     C 8239   4.013   5.562   7.673  0.4068  0.1310 -0.4080
   62MOL0     C 8240   3.894   5.630   7.650  0.0175 -0.3390 -0.1876
   62MOL0     C 8241   3.849   5.640   7.517 -0.2069  0.3728 -0.1061
   62MOL0     C 8242   3.921   5.592   7.410  0.0487 -0.1573  0.2793
   62MOL0     O 8243   3.863   5.610   7.288  0.1782 -0.6998 -0.3276
   62MOL0     C 8244   3.897   5.512   7.189 -0.3582  0.2585  0.5675
   62MOL0     C 8245   3.811   5.490   7.068 -0.2020 -1.4032 -0.1249
   62MOL0     C 8246   3.662   5.490   7.105  0.0058 -0.2939  0.2661
   62MOL0     C 8247   3.577   5.471   6.977  0.7028 -0.1339  0.4078
   62MOL0     C 8248   3.425   5.479   7.020  0.2539 -0.2820  0.5869
   62MOL0     C 8249   3.336   5.411   6.921 -0.3010  0.0300  0.1015
   62MOL0     C 8250   3.201   5.372   6.976 -0.0925 -0.0997 -1.3713
   62MOL0     C 8251   3.137   5.250   6.907 -0.0174  0.0351 -0.3739
   62MOL0     N 8252   2.993   5.240   6.936  0.4857 -0.5648  0.1518
   62MOL0     C 8253   2.917   5.122   6.946  0.1904  0.2489 -0.4211
   62MOL0     C 8254   2.795   5.161   6.979  0.7765  0.2456 -0.6501
   62MOL0     C 8255   2.666   5.079   6.993  0.0124  0.5074  0.5303
   62MOL0     C 8256   2.686   4.940   7.055 -0.3486  0.2014 -0.3381
   62MOL0     C 8257   2.751   4.950   7.194  0.6033  0.5263 -1.1117
   62MOL0     C 8258   2.669   5.043   7.285 -0.1853  0.0021 -0.9289
   62MOL0     O 8259   2.534   5.013   7.269 -0.5234 -0.3321 -0.4091
   62MOL0     C 8260   2.447   5.040   7.362  0.3317 -0.1508  0.5851
   62MOL0     C 8261   2.333   4.960   7.378 -0.5033 -0.0588  0.0674
   62MOL0     C 8262   2.242   4.974   7.487  0.6107 -0.2445 -0.3565
   62MOL0     C 8263   2.150   4.852   7.502  0.6061 -0.6425  0.5238
   62MOL0     C 8264   2.271   5.079   7.581  0.6379  0.2053  0.2430
   62MOL0     C 8265   2.183   5.096   7.702 -1.0062  0.3895  0.2939
   62MOL0     O 8266   2.162   4.983   7.771 -0.3507 -0.0514 -0.0274
   62MOL0     C 8267   2.057   4.975   7.856  0.7684  0.0408  1.2191
   62MOL0     C 8268   2.083   4.904   7.972 -0.8314  0.2748 -0.3715
   62MOL0     C 8269   1.974   4.881   8.062 -0.3720 -0.2507 -0.2893
   62MOL0     C 8270   1.850   4.943   8.039 -0.0128 -0.9230 -0.2626
   62MOL0     O 8271   1.724   4.916   8.102 -0.5960 -0.0312  0.1176
   62MOL0     C 8272   1.715   4.822   8.196  0.7815  0.4374 -0.3068
   62MOL0     C 8273   1.564   4.801   8.233  0.0250  0.1575  0.3218
   62MOL0     C 8274   1.501   4.915   8.315  0.0314 -0.2359  0.5240
   62MOL0     C 8275   1.352   4.914   8.303 -0.3208 -0.8928  0.1011
   62MOL0     C 8276   1.290   4.995   8.420  0.1075 -0.2665  0.4183
   62MOL0     C 8277   1.134   4.977   8.415  0.5221  0.6566  0.1069
   62MOL0     C 8278   1.056   5.041   8.530  0.3637 -0.3230 -0.9426
   62MOL0     C 8279   0.914   5.054   8.482  0.7801  0.1896 -0.0141
   62MOL0    Cl 8280   0.843   5.161   8.598 -0.3065 -0.2904 -0.1579
   62MOL0     C 8281   1.838   5.041   7.930  0.3055  0.5289 -0.8203
   62MOL0     C 8282   1.938   5.041   7.831  0.2613  0.0107  0.0230
   62MOL0     O 8283   2.152   5.212   7.725 -0.3328  0.1333 -0.0304
   62MOL0     C 8284   2.366   5.170   7.547  0.1256 -0.4006  0.4552
   62MOL0     C 8285   2.460   5.146   7.445  0.1470  0.3828  0.0428
   62MOL0     N 8286   2.794   5.299   6.994 -0.3573  0.1280  0.4875
   62MOL0     N 8287   2.910   5.341   6.964  0.5177  0.0965 -0.1584
   62MOL0     C 8288   4.045   5.532   7.433  0.1313  0.3081 -0.6270
   62MOL0     C 8289   4.089   5.519   7.565  0.0197  0.4880 -0.8132
   62MOL0     C 8290   4.069   5.514   8.038 -0.0192 -0.1441  0.0846
   62MOL0     C 8291   4.004   5.506   8.166 -0.6281 -0.4552 -0.4408
   62MOL0     C 8292   4.074   5.533   8.288 -0.3096 -0.9510  0.3330
   62MOL0     C 8293   4.212   5.546   8.282  0.8561  0.2956 -0.8214
   62MOL0     O 8294   4.287   5.555   8.400  0.2411 -0.1179  0.4432
   62MOL0     C 8295   4.413   5.470   8.398  0.4987 -0.2972  0.2809
   62MOL0     C 8296   4.534   5.542   8.456 -0.0423  0.2668 -0.5677
   62MOL0     C 8297   4.614   5.630   8.355  0.4281 -0.4265  0.4319
   62MOL0     C 8298   4.720   5.720   8.416  0.5780 -1.0268  0.4401
   62MOL0     C 8299   4.817   5.651   8.496 -0.7810 -0.1426  0.7014
   62MOL0     C 8300   4.916   5.595   8.543  0.8450  0.8317  0.4521
   62MOL0     C 8301   4.278   5.552   8.155  0.1215  0.3542  0.4048
   62MOL0     C 8302   4.209   5.545   8.039  0.6846  0.0313 -0.0719
   62MOL0     H 8303   3.844   5.687   7.727 -0.3390 -0.2939 -0.4501
   62MOL0     H 8304   3.752   5.681   7.495 -2.3544 -3.6881  0.8305
   62MOL0     H 8305   3.999   5.529   7.152 -1.5993  1.2067 -2.8472
   62MOL0     H 8306   3.888   5.416   7.240  1.3041  0.4479  1.2716
   62MOL0     H 8307   3.841   5.570   7.000  1.2090  0.1434  2.2170
   62MOL0     H 8308   3.835   5.401   7.009  1.8902 -1.2378  0.3830
   62MOL0     H 8309   3.646   5.412   7.180 -3.0899  0.7692  0.8407
   62MOL0     H 8310   3.638   5.586   7.152 -2.6237 -0.7804  0.0797
   62MOL0     H 8311   3.599   5.553   6.908 -0.9585  0.0593  0.0541
   62MOL0     H 8312   3.598   5.368   6.948  2.2369 -0.9003  3.8256
   62MOL0     H 8313   3.421   5.416   7.109  0.9673 -1.9453 -0.5120
   62MOL0     H 8314   3.410   5.586   7.038 -2.1290 -0.5097  0.2815
   62MOL0     H 8315   3.315   5.480   6.839 -0.9157  0.5554  0.6937
   62MOL0     H 8316   3.394   5.325   6.885  0.4251 -0.4131  2.2082
   62MOL0     H 8317   3.223   5.343   7.079  0.1308  0.2923 -1.3051
   62MOL0     H 8318   3.137   5.461   6.971 -0.4266 -0.2220  0.3545
   62MOL0     H 8319   3.186   5.157   6.937  2.6183  1.5295  0.1663
   62MOL0     H 8320   3.145   5.269   6.799  1.2049 -0.0158 -0.2997
   62MOL0     H 8321   2.951   5.019   6.934 -1.7638 -0.6223  0.9644
   62MOL0     H 8322   2.584   5.137   7.034  0.7451  3.0465 -1.3339
   62MOL0     H 8323   2.625   5.056   6.894 -0.5577 -1.8190  1.2534
   62MOL0     H 8324   2.749   4.879   6.989 -0.0950 -0.5643  0.5875
   62MOL0     H 8325   2.592   4.884   7.051 -1.1319  1.5284 -1.1297
   62MOL0     H 8326   2.850   4.997   7.198 -0.1987  2.1752  1.4241
   62MOL0     H 8327   2.762   4.853   7.243 -1.0095  1.0654  0.4213
   62MOL0     H 8328   2.696   5.142   7.248  1.2005 -0.0899 -0.2502
   62MOL0     H 8329   2.706   5.032   7.388 -1.5314 -2.0409 -0.6112
   62MOL0     H 8330   2.334   4.876   7.309  2.4691 -0.9325  1.0412
   62MOL0     H 8331   2.208   4.763   7.529  0.1514 -0.4989  2.0380
   62MOL0     H 8332   2.071   4.863   7.577 -0.0501 -0.9313 -0.1143
   62MOL0     H 8333   2.095   4.836   7.409  0.5905 -1.3847  0.6528
   62MOL0     H 8334   2.184   4.867   7.983  0.3407  3.4484  0.9204
   62MOL0     H 8335   1.989   4.815   8.147  1.5852  0.1645 -0.2576
   62MOL0     H 8336   1.760   4.728   8.162 -0.8627 -2.1002  3.8193
   62MOL0     H 8337   1.766   4.847   8.289  1.9126 -2.8158  0.0469
   62MOL0     H 8338   1.503   4.783   8.144 -1.3564  0.6927  1.1205
   62MOL0     H 8339   1.545   4.711   8.292  2.9395 -0.0005  1.1708
   62MOL0     H 8340   1.545   5.008   8.279 -1.7261  0.4544  0.0649
   62MOL0     H 8341   1.535   4.913   8.419 -1.4138 -1.0513  1.0094
   62MOL0     H 8342   1.331   4.952   8.203 -1.2684 -1.5610  0.0296
   62MOL0     H 8343   1.325   4.808   8.310 -1.8907 -0.6751 -1.8331
   62MOL0     H 8344   1.301   5.103   8.410 -0.2273 -0.3200 -0.6613
   62MOL0     H 8345   1.331   4.965   8.517  1.4534  1.7834  0.5566
   62MOL0     H 8346   1.103   5.013   8.316 -0.7361 -0.3316  0.1206
   62MOL0     H 8347   1.102   4.872   8.417 -2.0161  1.3998  0.9015
   62MOL0     H 8348   1.096   5.140   8.553  1.4229 -1.1390  1.0025
   62MOL0     H 8349   1.059   4.981   8.622  1.7454 -1.0067 -1.4073
   62MOL0     H 8350   0.859   4.961   8.468  0.5940  0.7953 -5.6328
   62MOL0     H 8351   0.917   5.115   8.391  3.4281  0.6966  0.3350
   62MOL0     H 8352   1.752   5.105   7.912 -0.6677 -0.6878 -0.6158
   62MOL0     H 8353   1.911   5.103   7.747  2.2553  1.9095  0.7093
   62MOL0     H 8354   2.376   5.256   7.611  0.2812  0.7995 -1.1214
   62MOL0     H 8355   2.534   5.223   7.425  0.1232  1.0294  2.1878
   62MOL0     H 8356   4.103   5.502   7.346 -1.1760  0.0617 -1.4456
   62MOL0     H 8357   4.190   5.481   7.573 -0.0634  0.4407  0.0563
   62MOL0     H 8358   3.896   5.496   8.170 -0.5360 -1.7291 -0.8813
   62MOL0     H 8359   4.030   5.525   8.387 -0.1580  0.1028  0.4906
   62MOL0     H 8360   4.392   5.382   8.460 -0.0847  0.9490  1.9455
   62MOL0     H 8361   4.433   5.425   8.301  0.3965 -1.6502  0.8606
   62MOL0     H 8362   4.606   5.470   8.496 -2.7652 -1.4785  1.4983
   62MOL0     H 8363   4.506   5.610   8.537 -1.3313 -0.5912 -0.2738
   62MOL0     H 8364   4.536   5.692   8.311 -2.5072 -1.4816  3.6965
   62MOL0     H 8365   4.658   5.568   8.276  0.5007  1.4566 -1.0706
   62MOL0     H 8366   4.663   5.793   8.475 -0.5322 -0.1646 -1.5813
   62MOL0     H 8367   4.776   5.777   8.340  2.0017 -1.4605  1.1372
   62MOL0     H 8368   4.996   5.537   8.583  2.4039  0.5315 -2.7632
   62MOL0     H 8369   4.385   5.566   8.149  0.0911  1.4076  1.7612
   62MOL0     H 8370   4.259   5.546   7.943  0.9629  1.0388  0.0679
   63MOL0     O 8371  10.966   4.441   8.425  0.0200 -0.0314  0.3062
   63MOL0     C 8372  11.012   4.326   8.423 -0.8806 -0.2299  0.9719
   63MOL0     O 8373  10.946   4.215   8.441 -0.0027 -0.0315  1.5792
   63MOL0     C 8374  10.808   4.214   8.458  0.9143  0.0567  0.2833
   63MOL0     C 8375  10.718   4.284   8.375 -0.4500  0.3172 -0.3409
   63MOL0     C 8376  10.579   4.272   8.395  0.6952 -0.4638 -0.1662
   63MOL0     C 8377  10.525   4.190   8.496  0.5902 -0.0768 -0.0873
   63MOL0     O 8378  10.388   4.172   8.512 -0.5973  1.0081 -0.3612
   63MOL0     C 8379  10.330   4.095   8.403  0.0574  0.2552  0.5180
   63MOL0     C 8380  10.202   4.018   8.436  0.4259  0.3150  0.5972
   63MOL0     C 8381  10.096   4.114   8.510 -0.6269 -0.3326 -0.0841
   63MOL0     C 8382   9.962   4.083   8.440  0.0100 -0.8283  0.0633
   63MOL0     C 8383   9.847   4.163   8.496  1.1374 -0.4264  0.4879
   63MOL0     C 8384   9.715   4.124   8.427 -0.6866  0.0697 -0.2078
   63MOL0     C 8385   9.596   4.221   8.466 -0.3238  0.6946 -0.9693
   63MOL0     C 8386   9.463   4.188   8.399  0.6707  0.1773  0.1058
   63MOL0     N 8387   9.357   4.282   8.417  0.0347  0.6479  0.4767
   63MOL0     C 8388   9.304   4.303   8.537  1.1187  0.2177 -0.2582
   63MOL0     C 8389   9.211   4.398   8.511  0.5065 -1.0628 -0.4083
   63MOL0     C 8390   9.128   4.490   8.606 -0.2764  0.3675  0.0956
   63MOL0     C 8391   8.979   4.496   8.567 -0.4148  0.3529  0.2663
   63MOL0     C 8392   8.894   4.565   8.677 -0.2768  0.7242 -0.4090
   63MOL0     C 8393   8.758   4.600   8.616  0.6758 -0.2645 -0.6048
   63MOL0     O 8394   8.664   4.493   8.642  0.0870  0.4100 -0.1117
   63MOL0     C 8395   8.531   4.501   8.627  0.1060 -0.1160 -0.2251
   63MOL0     C 8396   8.471   4.608   8.569 -0.1840  0.1372  0.6682
   63MOL0     C 8397   8.337   4.621   8.560 -0.4919  0.5084 -0.6840
   63MOL0     C 8398   8.285   4.760   8.515 -0.1354 -0.3349 -0.4090
   63MOL0     C 8399   8.259   4.502   8.599 -0.2968  0.3906  0.1178
   63MOL0     C 8400   8.107   4.500   8.579  0.5868  0.3520 -0.6901
   63MOL0     O 8401   8.038   4.390   8.629 -0.1823  0.6770  0.2238
   63MOL0     C 8402   7.916   4.366   8.578  0.6347  0.4221  0.0134
   63MOL0     C 8403   7.803   4.437   8.615 -0.1010  0.8086  0.8252
   63MOL0     C 8404   7.678   4.383   8.575 -0.3504 -0.0567 -0.0027
   63MOL0     C 8405   7.665   4.272   8.485 -1.1543  0.3473 -0.2184
   63MOL0     O 8406   7.548   4.213   8.439 -0.0579  0.5458 -0.5489
   63MOL0     C 8407   7.427   4.229   8.512  0.4978  0.1262 -0.3827
   63MOL0     C 8408   7.309   4.174   8.425 -0.7746  0.1727 -0.7730
   63MOL0     C 8409   7.182   4.157   8.507  0.3481  0.2203 -1.0163
   63MOL0     C 8410   7.088   4.051   8.445  0.5102 -0.6302 -0.0948
   63MOL0     C 8411   6.967   4.033   8.542 -1.0241  0.1173  0.3886
   63MOL0     C 8412   6.893   3.901   8.524  0.3858 -0.3841 -0.2607
   63MOL0     C 8413   6.787   3.875   8.630 -0.2313 -0.1838 -0.3861
   63MOL0     C 8414   6.703   3.745   8.620 -0.8466 -0.7246 -0.3895
   63MOL0    Cl 8415   6.594   3.749   8.489 -0.3004 -0.1273  0.7102
   63MOL0     C 8416   7.791   4.210   8.446  0.5927 -0.3769 -0.9155
   63MOL0     C 8417   7.914   4.250   8.492 -0.0584 -0.3121 -0.5183
   63MOL0     O 8418   8.051   4.598   8.536 -0.1059 -0.0987  0.3338
   63MOL0     C 8419   8.320   4.393   8.659 -0.2493 -0.9096  0.1328
   63MOL0     C 8420   8.455   4.391   8.677  0.4723  0.0189 -0.2634
   63MOL0     N 8421   9.214   4.418   8.376  0.4932  0.2058 -0.3937
   63MOL0     N 8422   9.308   4.366   8.323  0.3709  0.6083  0.6835
   63MOL0     C 8423  10.614   4.130   8.583  0.2282 -0.5973  0.1213
   63MOL0     C 8424  10.752   4.136   8.563 -0.1977  0.7632 -0.2479
   63MOL0     C 8425  11.163   4.306   8.390 -0.4478  1.1852 -0.1339
   63MOL0     C 8426  11.215   4.178   8.371  0.5375  0.5031 -0.1589
   63MOL0     C 8427  11.349   4.147   8.350  0.4766 -1.1556 -0.1406
   63MOL0     C 8428  11.441   4.253   8.331  0.8593  0.2704 -0.0839
   63MOL0     O 8429  11.578   4.240   8.323  0.5023 -0.1493 -0.3214
   63MOL0     C 8430  11.617   4.138   8.235 -0.6814 -1.2737 -0.0857
   63MOL0     C 8431  11.759   4.125   8.213  0.0262 -0.1919  0.5034
   63MOL0     C 8432  11.814   4.268   8.164 -0.0311  0.1681 -0.3232
   63MOL0     C 8433  11.963   4.277   8.176 -0.0677  0.0245 -0.0807
   63MOL0     C 8434  12.034   4.208   8.065  0.1786  0.0468  0.2580
   63MOL0     C 8435  12.088   4.139   7.980 -0.3196 -0.9599 -0.7836
   63MOL0     C 8436  11.394   4.385   8.332  0.0007  0.3664 -0.5895
   63MOL0     C 8437  11.253   4.408   8.358 -0.8828 -0.0911  1.2149
   63MOL0     H 8438  10.745   4.333   8.282  0.8214  0.3419  0.0235
   63MOL0     H 8439  10.519   4.313   8.314  1.4710 -1.5668 -1.3384
   63MOL0     H 8440  10.317   4.166   8.321 -0.2884  0.6975  0.9454
   63MOL0     H 8441  10.399   4.021   8.362 -0.4849  1.4396 -2.8426
   63MOL0     H 8442  10.166   3.989   8.337 -1.3636 -1.6518  1.7535
   63MOL0     H 8443  10.216   3.929   8.497  0.3544  0.5358  0.9367
   63MOL0     H 8444  10.102   4.088   8.616 -1.1718  0.5955  0.1880
   63MOL0     H 8445  10.123   4.219   8.499 -1.5700  0.0608  1.1211
   63MOL0     H 8446   9.970   4.108   8.334  1.9984  0.5315  0.4744
   63MOL0     H 8447   9.942   3.975   8.433 -0.0725 -0.7194 -1.5141
   63MOL0     H 8448   9.829   4.146   8.603 -0.3149 -0.5449  0.2360
   63MOL0     H 8449   9.855   4.272   8.487  1.3069 -0.0944  3.5624
   63MOL0     H 8450   9.722   4.119   8.318 -0.4669 -0.8590 -0.1623
   63MOL0     H 8451   9.694   4.020   8.456  0.3418 -0.1436 -0.1655
   63MOL0     H 8452   9.578   4.217   8.574 -0.3874  0.0386 -0.9990
   63MOL0     H 8453   9.621   4.323   8.437  2.2441 -0.2471 -2.4162
   63MOL0     H 8454   9.437   4.087   8.430  2.3779 -0.2646  0.1822
   63MOL0     H 8455   9.464   4.187   8.289 -0.3763 -1.0719  0.0875
   63MOL0     H 8456   9.332   4.258   8.631 -0.0484  0.2816  0.1391
   63MOL0     H 8457   9.147   4.463   8.710  3.5283  1.5058 -0.1550
   63MOL0     H 8458   9.169   4.591   8.601  3.7349 -1.0753  0.3906
   63MOL0     H 8459   8.957   4.389   8.560  2.7732 -0.3536 -1.0754
   63MOL0     H 8460   8.955   4.533   8.467 -0.8878 -4.2176 -1.5693
   63MOL0     H 8461   8.934   4.665   8.700 -0.0628  0.9300 -1.5790
   63MOL0     H 8462   8.894   4.508   8.770  3.8682 -3.5854 -2.6135
   63MOL0     H 8463   8.773   4.616   8.509 -0.8933  0.3762 -0.7616
   63MOL0     H 8464   8.718   4.690   8.665 -3.4855 -1.4768 -1.3978
   63MOL0     H 8465   8.532   4.691   8.534  2.2032 -1.7520  0.0359
   63MOL0     H 8466   8.204   4.757   8.441 -1.2705  3.5799  0.4363
   63MOL0     H 8467   8.251   4.819   8.601 -0.5410  1.6209 -1.8277
   63MOL0     H 8468   8.366   4.826   8.482 -0.0916  0.9994  2.0971
   63MOL0     H 8469   7.808   4.523   8.680 -1.2493  2.3890 -1.0577
   63MOL0     H 8470   7.590   4.440   8.603 -0.9309 -1.3861  1.0054
   63MOL0     H 8471   7.437   4.162   8.599  2.7652  1.9672  0.9111
   63MOL0     H 8472   7.416   4.331   8.548  2.2762 -0.3529  1.7284
   63MOL0     H 8473   7.285   4.250   8.350 -3.5498  1.8029  1.5545
   63MOL0     H 8474   7.348   4.081   8.383 -0.9941  0.3767 -1.4497
   63MOL0     H 8475   7.123   4.248   8.517  1.2924  0.6421  1.1286
   63MOL0     H 8476   7.212   4.122   8.606 -1.9742  1.9132  0.3722
   63MOL0     H 8477   7.058   4.084   8.346 -0.3915  1.9307  0.9575
   63MOL0     H 8478   7.140   3.955   8.437  0.3702 -1.0451  2.8596
   63MOL0     H 8479   6.900   4.114   8.515 -1.8406 -1.1631 -1.7009
   63MOL0     H 8480   6.982   4.044   8.650 -3.6261 -1.0537  0.9412
   63MOL0     H 8481   6.843   3.896   8.427 -1.0149 -1.0179  0.4728
   63MOL0     H 8482   6.968   3.821   8.520  0.6014 -0.3496  1.8682
   63MOL0     H 8483   6.720   3.960   8.642 -0.0997 -0.3384  1.8426
   63MOL0     H 8484   6.848   3.874   8.721  1.3697  0.9245 -1.3928
   63MOL0     H 8485   6.641   3.746   8.710 -0.3657  2.7918  0.0493
   63MOL0     H 8486   6.773   3.661   8.618  0.3955  0.2707 -0.0116
   63MOL0     H 8487   7.777   4.117   8.391 -1.2530 -1.8533  1.7996
   63MOL0     H 8488   7.998   4.185   8.472  1.6183  0.9206  2.0353
   63MOL0     H 8489   8.253   4.314   8.692 -0.5385 -2.0484 -2.8415
   63MOL0     H 8490   8.508   4.308   8.722  0.7825  0.8995  1.0704
   63MOL0     H 8491  10.572   4.058   8.653 -0.3617 -2.8683 -2.3773
   63MOL0     H 8492  10.826   4.087   8.625  0.6988 -1.3590 -2.7798
   63MOL0     H 8493  11.157   4.087   8.362  3.0806 -1.1745 -0.7061
   63MOL0     H 8494  11.397   4.050   8.342  0.7711 -0.8930 -1.8838
   63MOL0     H 8495  11.588   4.036   8.265  1.6401 -2.5921 -1.9538
   63MOL0     H 8496  11.576   4.151   8.135 -1.0983 -1.3362  0.0726
   63MOL0     H 8497  11.774   4.046   8.140 -0.9691 -0.3302  0.4339
   63MOL0     H 8498  11.810   4.084   8.301 -1.5289 -0.6158  1.2473
   63MOL0     H 8499  11.789   4.345   8.238  0.5441  2.1837 -2.1367
   63MOL0     H 8500  11.781   4.296   8.064 -2.7315  1.0293  0.7130
   63MOL0     H 8501  11.996   4.242   8.273  2.9872  1.6506 -0.4231
   63MOL0     H 8502  11.983   4.385   8.179  0.2828  0.0068 -1.2244
   63MOL0     H 8503  12.145   4.098   7.899  0.8778  0.4112 -0.6786
   63MOL0     H 8504  11.462   4.468   8.317  0.2826 -0.3327 -3.9929
   63MOL0     H 8505  11.218   4.511   8.358 -1.6182 -0.2928 -0.7230
   64MOL0     O 8506   0.780   6.320   7.141  0.1656 -0.5638 -0.2469
   64MOL0     C 8507   0.872   6.350   7.062  0.6212  0.1767  0.0443
   64MOL0     O 8508   0.903   6.292   6.947  0.0736  0.6992 -0.5660
   64MOL0     C 8509   0.824   6.195   6.898 -0.4946  0.1928  0.4669
   64MOL0     C 8510   0.686   6.181   6.922 -0.6664  0.0540  0.5420
   64MOL0     C 8511   0.612   6.088   6.850  0.9034 -0.6134  0.1948
   64MOL0     C 8512   0.664   6.008   6.754  0.4444  0.1952 -0.4761
   64MOL0     O 8513   0.578   5.914   6.702  0.6261 -0.3104  0.1481
   64MOL0     C 8514   0.591   5.890   6.563 -0.0830 -0.4029  0.9419
   64MOL0     C 8515   0.480   5.795   6.517 -0.4692  0.1656 -0.6192
   64MOL0     C 8516   0.346   5.876   6.512 -0.0304 -0.0818  0.8120
   64MOL0     C 8517   0.328   5.980   6.398  0.8894 -0.8871  0.7664
   64MOL0     C 8518   0.192   6.043   6.375 -0.2253  0.4300  0.1528
   64MOL0     C 8519   0.151   6.130   6.503 -0.6962  0.4234 -0.5179
   64MOL0     C 8520   0.023   6.209   6.473  0.7313  0.0687  0.5494
   64MOL0     C 8521   0.008   6.300   6.586  0.2433 -0.4335  0.2943
   64MOL0     N 8522  -0.121   6.372   6.584  0.8288  0.4285 -0.2028
   64MOL0     C 8523  -0.174   6.460   6.490  0.0561 -0.6570 -0.2934
   64MOL0     C 8524  -0.296   6.500   6.537 -0.4731 -0.0318 -0.2095
   64MOL0     C 8525  -0.386   6.613   6.484 -0.5408  0.4391  0.6024
   64MOL0     C 8526  -0.536   6.585   6.490 -0.7547  0.6409 -0.5310
   64MOL0     C 8527  -0.615   6.717   6.441 -0.5365 -0.0060  0.3669
   64MOL0     C 8528  -0.763   6.677   6.454  0.2904  0.0728 -0.4248
   64MOL0     O 8529  -0.851   6.794   6.433 -0.1263  0.5343  0.0854
   64MOL0     C 8530  -0.986   6.776   6.412  0.3357 -0.9306  0.5187
   64MOL0     C 8531  -1.057   6.898   6.373  0.0829  0.4190 -0.0345
   64MOL0     C 8532  -1.198   6.894   6.357  0.0544 -0.2137 -0.8351
   64MOL0     C 8533  -1.254   7.023   6.320 -0.5409 -0.4509  0.1111
   64MOL0     C 8534  -1.272   6.781   6.400 -0.6779  0.5150 -0.4259
   64MOL0     C 8535  -1.423   6.773   6.397 -0.0967 -0.5631  0.1123
   64MOL0     O 8536  -1.482   6.832   6.291  0.6205  0.3398  0.1330
   64MOL0     C 8537  -1.621   6.811   6.267  0.0140  0.1194 -0.0965
   64MOL0     C 8538  -1.707   6.701   6.302 -0.9402  0.2368  0.3036
   64MOL0     C 8539  -1.837   6.688   6.257  0.6702 -0.5099  0.0021
   64MOL0     C 8540  -1.899   6.791   6.185 -0.6542  0.7360  0.4956
   64MOL0     O 8541  -2.027   6.786   6.136 -0.0744  0.1666  0.1774
   64MOL0     C 8542  -2.109   6.669   6.158  0.3867  0.7865 -1.0461
   64MOL0     C 8543  -2.237   6.687   6.077 -0.7160 -0.1147 -0.6127
   64MOL0     C 8544  -2.351   6.584   6.109  0.3894 -0.9312  0.7298
   64MOL0     C 8545  -2.481   6.644   6.054 -0.4795 -0.3418  0.7794
   64MOL0     C 8546  -2.601   6.584   6.121 -0.2838 -0.6152  0.2072
   64MOL0     C 8547  -2.731   6.629   6.059 -0.2046 -0.7924  0.3466
   64MOL0     C 8548  -2.845   6.604   6.150  0.2896  0.3962 -0.6177
   64MOL0     C 8549  -2.917   6.480   6.091 -0.3321  0.3291 -0.2649
   64MOL0    Cl 8550  -3.037   6.439   6.216  0.1242 -0.3440  0.5755
   64MOL0     C 8551  -1.828   6.911   6.178  0.3230  0.2450  0.4086
   64MOL0     C 8552  -1.693   6.919   6.206 -0.0461 -0.0003 -0.3575
   64MOL0     O 8553  -1.478   6.714   6.488  0.4189  0.1010 -0.5831
   64MOL0     C 8554  -1.196   6.666   6.431 -0.2508 -0.2862 -0.8566
   64MOL0     C 8555  -1.054   6.660   6.426  0.1870 -0.1844  0.0900
   64MOL0     N 8556  -0.326   6.426   6.645 -0.5832  1.3084 -0.2845
   64MOL0     N 8557  -0.223   6.350   6.676  0.0913  0.3482  0.1512
   64MOL0     C 8558   0.807   6.021   6.738 -0.6800  0.0891 -0.7873
   64MOL0     C 8559   0.884   6.108   6.807 -0.7378  0.0820  0.1840
   64MOL0     C 8560   0.953   6.471   7.094 -0.9569  1.1066 -0.0663
   64MOL0     C 8561   1.056   6.508   7.002 -0.2605  0.0193 -0.3354
   64MOL0     C 8562   1.133   6.620   7.023  0.5604  0.2096  0.9184
   64MOL0     C 8563   1.122   6.700   7.132  0.3536  0.5213 -0.4854
   64MOL0     O 8564   1.211   6.805   7.127 -0.0572 -0.1013 -0.3334
   64MOL0     C 8565   1.228   6.878   7.243 -0.7314  0.1924 -0.1744
   64MOL0     C 8566   1.331   6.992   7.219  0.4914  0.0628 -0.2842
   64MOL0     C 8567   1.303   7.122   7.293 -0.1051 -0.6890  0.0828
   64MOL0     C 8568   1.266   7.121   7.445  0.8443  0.2636 -0.0022
   64MOL0     C 8569   1.274   7.260   7.498 -0.0950 -0.9250  0.3460
   64MOL0     C 8570   1.251   7.373   7.528 -0.3018 -0.7570  0.1283
   64MOL0     C 8571   1.025   6.664   7.224  0.4092 -0.3209  0.7052
   64MOL0     C 8572   0.951   6.545   7.210 -0.1840 -0.1142 -0.6977
   64MOL0     H 8573   0.626   6.253   6.977 -2.4380 -0.9350 -0.0479
   64MOL0     H 8574   0.507   6.078   6.878  0.3519  4.4324  0.8426
   64MOL0     H 8575   0.570   5.975   6.498 -1.0186 -0.6042  0.9726
   64MOL0     H 8576   0.692   5.860   6.536 -0.8536 -0.7863 -1.7569
   64MOL0     H 8577   0.504   5.746   6.422 -0.5201 -2.2623  0.5457
   64MOL0     H 8578   0.465   5.714   6.589  0.2522  0.7510  0.2076
   64MOL0     H 8579   0.260   5.813   6.487 -1.2607  2.0611 -0.7021
   64MOL0     H 8580   0.325   5.920   6.610  0.3468  0.2709  0.7385
   64MOL0     H 8581   0.398   6.062   6.416  1.3487 -0.5222 -2.2397
   64MOL0     H 8582   0.346   5.935   6.300 -0.0538  2.3142 -0.9905
   64MOL0     H 8583   0.202   6.110   6.289  2.7753 -0.5002 -0.3077
   64MOL0     H 8584   0.118   5.964   6.361  2.0264 -2.2155  2.1870
   64MOL0     H 8585   0.135   6.061   6.586 -0.4791  0.2845 -0.5914
   64MOL0     H 8586   0.232   6.200   6.526  1.5653 -1.7784 -1.3133
   64MOL0     H 8587   0.026   6.261   6.377  0.4610  0.7581  0.9090
   64MOL0     H 8588  -0.069   6.150   6.472  0.2056  0.7569  2.9665
   64MOL0     H 8589   0.096   6.364   6.577  1.4056 -2.2691 -2.6433
   64MOL0     H 8590   0.032   6.242   6.676  1.3453  0.7594  0.8023
   64MOL0     H 8591  -0.121   6.500   6.404 -0.1892 -0.0190 -0.1544
   64MOL0     H 8592  -0.359   6.708   6.532  0.9833 -0.1521  1.0114
   64MOL0     H 8593  -0.355   6.630   6.381 -0.3774  0.1918  0.6090
   64MOL0     H 8594  -0.563   6.561   6.594 -0.8809  1.0580 -0.4646
   64MOL0     H 8595  -0.563   6.507   6.419 -0.0328  0.6913 -0.8716
   64MOL0     H 8596  -0.596   6.743   6.336  1.9509  0.8885  0.9816
   64MOL0     H 8597  -0.591   6.803   6.504 -1.1262  0.5198 -0.1041
   64MOL0     H 8598  -0.769   6.631   6.553  0.0859  0.2836 -0.3374
   64MOL0     H 8599  -0.782   6.597   6.381  0.4066 -1.3619  1.0727
   64MOL0     H 8600  -1.002   6.991   6.362 -2.3892  2.2102  1.6846
   64MOL0     H 8601  -1.362   7.026   6.334 -0.7914 -1.2237 -1.3993
   64MOL0     H 8602  -1.205   7.101   6.379  0.9190 -1.2062 -0.0580
   64MOL0     H 8603  -1.237   7.032   6.212  1.5360 -2.4039  0.1952
   64MOL0     H 8604  -1.663   6.614   6.349  0.0303 -1.6180 -3.6146
   64MOL0     H 8605  -1.893   6.600   6.283 -1.6286 -0.2065 -3.2810
   64MOL0     H 8606  -2.056   6.580   6.121  0.2649  0.8642 -1.4166
   64MOL0     H 8607  -2.118   6.663   6.267  2.5222  0.6541 -0.8241
   64MOL0     H 8608  -2.272   6.787   6.101 -1.6954 -0.7464  0.7006
   64MOL0     H 8609  -2.215   6.680   5.970 -0.4417  2.3552 -0.7663
   64MOL0     H 8610  -2.354   6.581   6.219  1.6532  2.7608  0.9987
   64MOL0     H 8611  -2.333   6.483   6.071 -1.3039 -1.5153  1.3946
   64MOL0     H 8612  -2.482   6.753   6.065  2.8663  0.3505 -3.2600
   64MOL0     H 8613  -2.489   6.635   5.945  1.6372  0.4791  0.5078
   64MOL0     H 8614  -2.598   6.618   6.224 -0.0079  0.5680 -0.1789
   64MOL0     H 8615  -2.595   6.475   6.118 -0.6062 -0.6354 -2.2553
   64MOL0     H 8616  -2.720   6.737   6.048  0.3392 -0.9095 -0.3148
   64MOL0     H 8617  -2.752   6.601   5.955 -1.1684  0.6999  0.1188
   64MOL0     H 8618  -2.904   6.696   6.156 -0.4852 -0.1342  0.0953
   64MOL0     H 8619  -2.812   6.587   6.253 -0.2276 -0.7339 -0.6220
   64MOL0     H 8620  -2.846   6.398   6.085 -2.4343 -1.7723  1.6675
   64MOL0     H 8621  -2.961   6.501   5.993 -0.2075  2.0682  0.0196
   64MOL0     H 8622  -1.883   7.000   6.148  0.2197  0.6605  1.7374
   64MOL0     H 8623  -1.635   7.001   6.165 -0.2074  0.2338 -0.1223
   64MOL0     H 8624  -1.247   6.572   6.451  0.9414 -0.6429  0.8356
   64MOL0     H 8625  -1.006   6.565   6.449 -0.5912 -0.5719  0.1476
   64MOL0     H 8626   0.855   5.951   6.669 -0.8182  1.3673 -2.2477
   64MOL0     H 8627   0.991   6.122   6.800 -0.5901 -1.2830 -0.6794
   64MOL0     H 8628   1.067   6.464   6.904  1.1429 -0.7532  0.1462
   64MOL0     H 8629   1.208   6.648   6.950  0.3666  4.2747  2.0282
   64MOL0     H 8630   1.130   6.923   7.262  0.5403  2.7438  0.9271
   64MOL0     H 8631   1.257   6.805   7.319  0.1965 -2.8454 -3.1761
   64MOL0     H 8632   1.329   7.017   7.112  1.9124 -2.3572 -0.9575
   64MOL0     H 8633   1.432   6.953   7.236 -0.0925 -1.4268 -0.0835
   64MOL0     H 8634   1.221   7.170   7.239 -0.0723 -1.4462 -0.6625
   64MOL0     H 8635   1.387   7.190   7.276 -0.4601 -0.1790  0.3553
   64MOL0     H 8636   1.330   7.058   7.507 -0.1318 -0.7560 -0.0067
   64MOL0     H 8637   1.163   7.085   7.452  0.1795  2.0611  0.0930
   64MOL0     H 8638   1.244   7.474   7.565 -0.3707 -1.2464  1.5294
   64MOL0     H 8639   1.003   6.724   7.312  0.9307  2.9090 -1.2311
   64MOL0     H 8640   0.863   6.546   7.272  0.2614  0.0454 -0.0603
   65MOL0     O 8641   4.109   5.838   2.698 -0.2873 -0.1422  0.4235
   65MOL0     C 8642   4.192   5.905   2.635 -0.1095  0.0885 -0.4358
   65MOL0     O 8643   4.173   6.036   2.591 -0.3931 -0.5029 -0.5642
   65MOL0     C 8644   4.047   6.095   2.610 -0.7587  0.1272  0.3269
   65MOL0     C 8645   4.014   6.131   2.735  0.5022  0.9761  0.3566
   65MOL0     C 8646   3.889   6.185   2.757 -0.0491 -0.0684 -0.3858
   65MOL0     C 8647   3.814   6.222   2.646  0.1921  0.5373 -0.4534
   65MOL0     O 8648   3.695   6.287   2.670 -0.9116  0.2785  0.2085
   65MOL0     C 8649   3.599   6.181   2.704 -0.3930  1.0957  0.4508
   65MOL0     C 8650   3.454   6.226   2.691  0.3962  0.0532 -0.3791
   65MOL0     C 8651   3.412   6.268   2.555 -0.2704 -0.4106 -0.3721
   65MOL0     C 8652   3.319   6.166   2.494  0.1979  0.3983 -0.4329
   65MOL0     C 8653   3.260   6.216   2.359 -0.5582 -0.3104 -0.4132
   65MOL0     C 8654   3.204   6.090   2.290  0.4902  0.2682 -0.4114
   65MOL0     C 8655   3.120   6.136   2.168 -1.0532  0.3765 -0.5453
   65MOL0     C 8656   3.098   6.028   2.064 -0.2858  0.1914 -0.3461
   65MOL0     N 8657   3.026   6.067   1.945  0.4435 -0.1083 -0.9140
   65MOL0     C 8658   3.068   6.166   1.860 -0.0002 -0.5817 -0.0364
   65MOL0     C 8659   2.963   6.183   1.768  0.1149 -0.5665 -0.4072
   65MOL0     C 8660   2.975   6.273   1.646  1.0649 -0.0854  0.8809
   65MOL0     C 8661   3.057   6.405   1.662  0.3470 -0.1118 -0.3064
   65MOL0     C 8662   3.004   6.509   1.765  0.5065 -0.4828  0.0370
   65MOL0     C 8663   2.857   6.547   1.731  0.4526  1.2103  0.5716
   65MOL0     O 8664   2.845   6.600   1.599  0.7587 -0.7258  0.3360
   65MOL0     C 8665   2.717   6.613   1.540 -0.0133 -0.1741  0.0966
   65MOL0     C 8666   2.605   6.644   1.618  0.8544 -0.1913 -0.3055
   65MOL0     C 8667   2.485   6.679   1.554  0.6959  0.1698  0.1918
   65MOL0     C 8668   2.377   6.727   1.652  0.8781 -0.0674  0.3363
   65MOL0     C 8669   2.467   6.681   1.411  0.0868  0.2557 -0.0529
   65MOL0     C 8670   2.337   6.715   1.348 -0.0021 -0.6515  0.4829
   65MOL0     O 8671   2.230   6.679   1.414  0.7083  0.2674 -0.5747
   65MOL0     C 8672   2.121   6.645   1.342  0.4886 -1.0359  0.2021
   65MOL0     C 8673   1.998   6.713   1.336  0.8622  0.0386 -0.0393
   65MOL0     C 8674   1.894   6.675   1.249  0.1460  0.6302 -0.1186
   65MOL0     C 8675   1.911   6.551   1.177 -0.2848 -0.9166  0.3825
   65MOL0     O 8676   1.808   6.518   1.085 -0.1508 -0.3935 -0.4772
   65MOL0     C 8677   1.719   6.407   1.116  0.1972  0.7498 -0.2664
   65MOL0     C 8678   1.596   6.400   1.022  0.2247 -0.2948  0.3877
   65MOL0     C 8679   1.481   6.486   1.075  1.3166 -0.2279  0.7219
   65MOL0     C 8680   1.481   6.624   1.025 -0.0966 -0.7371 -0.4548
   65MOL0     C 8681   1.350   6.698   1.063 -0.1939  0.7286 -0.7325
   65MOL0     C 8682   1.321   6.807   0.966 -0.0091  0.3031  0.0615
   65MOL0     C 8683   1.214   6.911   1.011  0.0148  0.8834 -0.5288
   65MOL0     C 8684   1.197   7.030   0.919  0.4309  0.2912 -0.3686
   65MOL0    Cl 8685   1.151   7.002   0.753 -0.1827  0.3286 -0.2448
   65MOL0     C 8686   2.025   6.477   1.193 -0.8025  0.2793 -0.1558
   65MOL0     C 8687   2.128   6.524   1.273 -0.7842 -0.9754 -0.5531
   65MOL0     O 8688   2.333   6.770   1.236  0.0112 -0.8395  0.3671
   65MOL0     C 8689   2.584   6.655   1.336  0.1965 -0.4741 -0.2082
   65MOL0     C 8690   2.706   6.617   1.398 -0.5181 -0.3384  0.4584
   65MOL0     N 8691   2.860   6.111   1.815 -0.2186  0.6827  0.1179
   65MOL0     N 8692   2.899   6.031   1.913  0.3758 -0.2460  0.3621
   65MOL0     C 8693   3.850   6.191   2.516 -0.8997  0.0940  0.4626
   65MOL0     C 8694   3.969   6.121   2.498 -0.9847  0.0071 -0.0319
   65MOL0     C 8695   4.325   5.853   2.597 -0.3651 -0.0204 -0.1379
   65MOL0     C 8696   4.409   5.932   2.508 -0.0919 -0.3479 -0.2266
   65MOL0     C 8697   4.526   5.880   2.449  0.8342  0.4529  0.3641
   65MOL0     C 8698   4.562   5.751   2.482  0.6394  0.2253 -0.7140
   65MOL0     O 8699   4.681   5.702   2.424 -0.0894  0.0313  0.2958
   65MOL0     C 8700   4.705   5.565   2.428 -0.5687 -0.5125  1.0675
   65MOL0     C 8701   4.835   5.516   2.357 -0.5461  0.4393  0.0761
   65MOL0     C 8702   4.831   5.532   2.197 -0.1346 -0.6396 -0.3864
   65MOL0     C 8703   4.967   5.525   2.126 -0.2376  0.2419  1.2968
   65MOL0     C 8704   5.042   5.400   2.139  0.0381 -0.0940 -0.3067
   65MOL0     C 8705   5.105   5.301   2.154 -0.9281 -0.2959  0.0514
   65MOL0     C 8706   4.483   5.681   2.573 -0.0200 -0.4106 -0.3919
   65MOL0     C 8707   4.366   5.730   2.631  0.0448  0.3320 -0.8325
   65MOL0     H 8708   4.070   6.109   2.825 -0.1259  1.4598  0.8758
   65MOL0     H 8709   3.865   6.217   2.858  2.4860 -0.7097  0.4830
   65MOL0     H 8710   3.609   6.096   2.635 -1.2362  2.3162 -1.2318
   65MOL0     H 8711   3.612   6.148   2.808 -1.0646  1.1156  0.5452
   65MOL0     H 8712   3.374   6.164   2.733 -0.4914  1.3733 -0.0625
   65MOL0     H 8713   3.459   6.319   2.750  0.6688  0.7026 -1.4084
   65MOL0     H 8714   3.352   6.359   2.560 -0.0239 -0.2899  0.5384
   65MOL0     H 8715   3.504   6.283   2.496  2.8956 -3.9118  3.0489
   65MOL0     H 8716   3.367   6.071   2.468 -0.3985  0.4229 -1.6811
   65MOL0     H 8717   3.231   6.153   2.557 -0.7844 -0.1629 -1.8768
   65MOL0     H 8718   3.184   6.293   2.377 -0.4323 -0.2367 -0.1922
   65MOL0     H 8719   3.341   6.257   2.297 -0.1332 -0.0408  0.3101
   65MOL0     H 8720   3.290   6.039   2.246  1.7745  0.8970  1.2323
   65MOL0     H 8721   3.149   6.028   2.361  2.0023  2.2077  2.7004
   65MOL0     H 8722   3.029   6.184   2.205 -0.8665  1.2896 -1.2252
   65MOL0     H 8723   3.173   6.216   2.114 -0.2180  0.5978  0.5735
   65MOL0     H 8724   3.040   5.946   2.109  1.0584 -0.3816  0.4044
   65MOL0     H 8725   3.191   5.983   2.028 -1.2251 -0.8023 -1.6429
   65MOL0     H 8726   3.169   6.205   1.847 -0.5781  0.5198 -1.4674
   65MOL0     H 8727   3.032   6.214   1.574 -0.9052 -1.1009  0.0688
   65MOL0     H 8728   2.883   6.299   1.593  2.0451 -1.5450 -1.6603
   65MOL0     H 8729   3.061   6.446   1.561  2.3745 -1.4109 -0.8017
   65MOL0     H 8730   3.157   6.374   1.693  0.5150  0.0154 -0.7167
   65MOL0     H 8731   3.066   6.598   1.781 -2.1199  1.5542 -0.4874
   65MOL0     H 8732   2.995   6.457   1.861  0.0312 -1.2742 -0.4207
   65MOL0     H 8733   2.806   6.614   1.801  0.7120  0.5944  1.3503
   65MOL0     H 8734   2.798   6.456   1.745  1.0900  0.6075 -0.5621
   65MOL0     H 8735   2.610   6.647   1.727  1.5227 -2.3495 -0.2377
   65MOL0     H 8736   2.319   6.806   1.603  1.4453 -0.0661 -0.3524
   65MOL0     H 8737   2.309   6.645   1.678 -1.1366  2.0363  2.1049
   65MOL0     H 8738   2.411   6.768   1.747 -1.9246  0.2910  1.2951
   65MOL0     H 8739   1.992   6.811   1.383  1.7746  1.5343 -2.8554
   65MOL0     H 8740   1.803   6.729   1.225 -1.3725 -1.1777  1.2635
   65MOL0     H 8741   1.780   6.317   1.116  0.1097  0.6344  1.9848
   65MOL0     H 8742   1.685   6.418   1.220 -1.0566  1.2142 -0.6961
   65MOL0     H 8743   1.627   6.425   0.921 -0.3723 -0.1382  0.2403
   65MOL0     H 8744   1.543   6.304   1.018  0.1965 -0.3770  1.9336
   65MOL0     H 8745   1.468   6.478   1.183 -1.8433  1.4123  0.5525
   65MOL0     H 8746   1.389   6.441   1.038  1.2929  0.3447  0.0673
   65MOL0     H 8747   1.569   6.668   1.075  0.4802 -1.9972 -0.3127
   65MOL0     H 8748   1.489   6.638   0.917 -0.0913  1.6500 -0.2110
   65MOL0     H 8749   1.357   6.750   1.159 -0.7323  1.8284 -1.2654
   65MOL0     H 8750   1.266   6.628   1.063 -0.8631  1.4786 -2.0417
   65MOL0     H 8751   1.414   6.863   0.960  0.7627 -0.9967 -0.4552
   65MOL0     H 8752   1.294   6.763   0.869  1.3421  1.6690 -0.9790
   65MOL0     H 8753   1.243   6.947   1.110  1.5422  0.8899 -0.9593
   65MOL0     H 8754   1.116   6.862   1.014 -1.2469  3.2454  2.8438
   65MOL0     H 8755   1.292   7.085   0.919  1.0180 -0.6401  0.9124
   65MOL0     H 8756   1.121   7.098   0.959 -1.3604 -0.6109 -2.0868
   65MOL0     H 8757   2.056   6.391   1.134 -0.5807  0.1825  0.0997
   65MOL0     H 8758   2.218   6.464   1.277 -0.5849 -0.6732 -0.4825
   65MOL0     H 8759   2.580   6.665   1.228  0.8370 -2.6696 -0.4768
   65MOL0     H 8760   2.794   6.589   1.340 -0.5941  0.4815 -0.0584
   65MOL0     H 8761   3.787   6.220   2.433 -0.4581  3.5472  1.1826
   65MOL0     H 8762   4.009   6.086   2.403  3.5896 -1.8533  2.2774
   65MOL0     H 8763   4.381   6.035   2.489 -1.7131 -0.3039  2.0368
   65MOL0     H 8764   4.591   5.936   2.383  2.9788  0.3273  2.2245
   65MOL0     H 8765   4.718   5.542   2.534  1.2069  0.5439  1.1238
   65MOL0     H 8766   4.627   5.502   2.385  1.0728 -1.4014 -0.8415
   65MOL0     H 8767   4.852   5.409   2.369  0.1804  0.6569  1.1406
   65MOL0     H 8768   4.924   5.567   2.395  1.0070 -0.5319 -2.0527
   65MOL0     H 8769   4.794   5.631   2.169  1.3612 -0.6544 -2.6965
   65MOL0     H 8770   4.768   5.455   2.151  2.0070 -1.7760 -1.5754
   65MOL0     H 8771   5.035   5.602   2.162  2.8542 -2.0490  0.7434
   65MOL0     H 8772   4.958   5.538   2.018  2.7184 -0.4998  0.8686
   65MOL0     H 8773   5.160   5.211   2.166  0.4970  0.6301  0.6391
   65MOL0     H 8774   4.516   5.588   2.618  4.2127  1.0238 -0.0540
   65MOL0     H 8775   4.312   5.682   2.711  0.6144  2.7855  1.1624
   66MOL0     O 8776   8.282   6.181   2.396  0.8473 -0.5987 -0.3866
   66MOL0     C 8777   8.281   6.185   2.274  0.1542 -0.4243 -0.4994
   66MOL0     O 8778   8.171   6.170   2.191 -0.8986  0.5050 -0.0935
   66MOL0     C 8779   8.049   6.125   2.234  0.5418 -0.2179 -0.4375
   66MOL0     C 8780   7.931   6.200   2.215  0.4705  0.0033  0.0277
   66MOL0     C 8781   7.811   6.157   2.267  0.3737  0.5935 -0.6080
   66MOL0     C 8782   7.808   6.036   2.345  0.3556 -0.2870  0.1508
   66MOL0     O 8783   7.684   5.996   2.392 -0.2714 -0.1731 -0.3203
   66MOL0     C 8784   7.657   5.991   2.528 -0.1743 -0.1472 -0.2024
   66MOL0     C 8785   7.519   5.936   2.542 -0.9948  1.2752  0.8557
   66MOL0     C 8786   7.402   6.027   2.507  0.0831 -0.2586  0.7026
   66MOL0     C 8787   7.272   5.941   2.512 -0.5526 -0.0127  0.3905
   66MOL0     C 8788   7.143   6.012   2.481 -0.4179 -0.4751  0.1546
   66MOL0     C 8789   7.024   5.935   2.512  0.8300  0.1278 -0.5619
   66MOL0     C 8790   6.890   6.008   2.467  0.0100  0.9285  0.8257
   66MOL0     C 8791   6.768   5.912   2.476  0.1815 -0.4602 -0.4583
   66MOL0     N 8792   6.645   5.988   2.470  0.9082  0.8996  0.1973
   66MOL0     C 8793   6.574   6.031   2.580  0.2252  0.3144 -0.4304
   66MOL0     C 8794   6.478   6.120   2.538 -0.5615 -0.2432 -0.4034
   66MOL0     C 8795   6.384   6.202   2.622 -0.5377  0.1990  0.3997
   66MOL0     C 8796   6.257   6.104   2.651 -0.3063 -0.4029 -0.8009
   66MOL0     C 8797   6.140   6.172   2.716 -0.3550 -0.2172  0.6001
   66MOL0     C 8798   6.011   6.103   2.727 -0.1383 -0.1645 -0.6941
   66MOL0     O 8799   5.936   6.119   2.603 -0.2013  0.1114 -0.2069
   66MOL0     C 8800   5.796   6.082   2.601 -0.6011 -0.8947  0.8329
   66MOL0     C 8801   5.742   5.989   2.685 -0.1403  0.4339 -0.5680
   66MOL0     C 8802   5.612   5.942   2.663  1.0811  0.2254 -0.8330
   66MOL0     C 8803   5.562   5.831   2.760  0.3270  0.1923  0.0219
   66MOL0     C 8804   5.531   5.991   2.557 -0.6882  0.1350 -0.6244
   66MOL0     C 8805   5.393   5.943   2.537  0.7149 -0.3883 -0.1756
   66MOL0     O 8806   5.320   6.027   2.462 -0.7956 -0.8029  0.6970
   66MOL0     C 8807   5.220   5.984   2.394  0.3105 -0.6760 -0.1402
   66MOL0     C 8808   5.215   6.000   2.260 -0.2246  1.0552  0.6081
   66MOL0     C 8809   5.102   5.949   2.187 -0.2030  0.2686  0.1264
   66MOL0     C 8810   4.990   5.912   2.254  0.7641  0.5570 -0.2027
   66MOL0     O 8811   4.871   5.874   2.193  0.2748  0.0755 -0.0721
   66MOL0     C 8812   4.873   5.888   2.052 -0.0767 -0.5049  0.1805
   66MOL0     C 8813   4.731   5.879   1.994  0.4825 -0.3325  0.6609
   66MOL0     C 8814   4.611   5.945   2.071 -0.0046  0.3773 -0.1587
   66MOL0     C 8815   4.470   5.947   2.006  0.1779 -0.2958 -0.6942
   66MOL0     C 8816   4.362   6.005   2.105  0.8766  0.0243  0.0870
   66MOL0     C 8817   4.219   6.004   2.036 -0.5663 -0.0552  0.6167
   66MOL0     C 8818   4.115   6.012   2.139 -0.3052 -1.4095 -0.4355
   66MOL0     C 8819   3.975   5.991   2.082 -0.3516  0.1287 -1.0037
   66MOL0    Cl 8820   3.952   6.096   1.940  0.0092 -0.0549 -0.2650
   66MOL0     C 8821   4.994   5.906   2.395  0.1733 -0.5085  0.7160
   66MOL0     C 8822   5.105   5.943   2.467  0.5681  0.7433  0.7794
   66MOL0     O 8823   5.347   5.840   2.588 -0.1087  0.5554  0.1382
   66MOL0     C 8824   5.594   6.096   2.481  0.5499  0.1233  0.0225
   66MOL0     C 8825   5.724   6.132   2.503  0.1057  0.2293  0.4051
   66MOL0     N 8826   6.484   6.126   2.399  0.0472  0.4699  0.0432
   66MOL0     N 8827   6.587   6.052   2.362  0.3991 -0.1067  0.9538
   66MOL0     C 8828   7.920   5.953   2.359 -0.3000 -0.2025  0.0391
   66MOL0     C 8829   8.045   5.999   2.308 -0.1662  0.3469  0.4667
   66MOL0     C 8830   8.408   6.231   2.209 -0.4179 -0.5395  0.2022
   66MOL0     C 8831   8.525   6.236   2.282 -0.2414 -0.4377 -0.6334
   66MOL0     C 8832   8.644   6.255   2.221 -0.2328  0.4797  0.0886
   66MOL0     C 8833   8.655   6.285   2.085  0.4930 -0.0596  0.1951
   66MOL0     O 8834   8.775   6.306   2.017  0.2057 -0.2137  0.9332
   66MOL0     C 8835   8.875   6.206   2.043  0.4272 -0.0165 -0.1779
   66MOL0     C 8836   8.995   6.244   1.957 -0.2863 -0.4720  0.2596
   66MOL0     C 8837   9.065   6.376   1.991  0.6194 -0.2710  0.0647
   66MOL0     C 8838   9.182   6.406   1.902 -0.1395 -0.4772 -0.4631
   66MOL0     C 8839   9.262   6.511   1.967  0.0514 -0.6613  0.9239
   66MOL0     C 8840   9.340   6.579   2.026 -0.3697  0.5751 -0.4492
   66MOL0     C 8841   8.535   6.309   2.016 -0.1778 -1.0038  0.2374
   66MOL0     C 8842   8.417   6.276   2.072 -0.2221  0.3164 -1.0680
   66MOL0     H 8843   7.927   6.292   2.158 -2.5148 -0.8270 -1.2901
   66MOL0     H 8844   7.726   6.224   2.253 -0.4961  0.3747  2.7486
   66MOL0     H 8845   7.732   5.931   2.581  0.5516  0.5398 -0.4299
   66MOL0     H 8846   7.652   6.084   2.585 -1.5656  0.6797 -1.6010
   66MOL0     H 8847   7.523   5.843   2.485  3.6060  0.1395  2.5691
   66MOL0     H 8848   7.507   5.890   2.640  0.8639 -1.7803 -0.1930
   66MOL0     H 8849   7.402   6.111   2.576  0.8051 -0.0434  0.4532
   66MOL0     H 8850   7.416   6.073   2.409 -0.9624 -1.9546 -0.2812
   66MOL0     H 8851   7.269   5.868   2.430  0.9879  1.6544 -1.2561
   66MOL0     H 8852   7.256   5.896   2.610  0.2319 -1.1028  0.0398
   66MOL0     H 8853   7.145   6.093   2.554  0.8601 -1.5022  1.3228
   66MOL0     H 8854   7.146   6.051   2.379  0.7974  1.6361  0.9377
   66MOL0     H 8855   7.035   5.834   2.470  2.5104  0.6263 -1.4434
   66MOL0     H 8856   7.026   5.921   2.620 -1.4748  1.4684 -0.2789
   66MOL0     H 8857   6.866   6.098   2.525  1.1398  3.1462 -1.9072
   66MOL0     H 8858   6.896   6.042   2.363  0.2593 -0.5809  0.3227
   66MOL0     H 8859   6.769   5.853   2.568  1.4606  0.5612  0.2204
   66MOL0     H 8860   6.763   5.846   2.389  1.3465  2.4194 -2.8751
   66MOL0     H 8861   6.589   6.007   2.685 -2.2226  3.2086  0.7178
   66MOL0     H 8862   6.436   6.242   2.710 -1.5150  1.1940  0.5457
   66MOL0     H 8863   6.350   6.283   2.556 -0.4533  1.7219  2.1342
   66MOL0     H 8864   6.299   6.017   2.702  1.7473 -0.2476 -2.1278
   66MOL0     H 8865   6.236   6.079   2.547  1.2056  2.1960 -1.8186
   66MOL0     H 8866   6.109   6.266   2.669 -2.4684 -0.0262  2.1997
   66MOL0     H 8867   6.178   6.209   2.812 -2.4278  0.2863  1.2943
   66MOL0     H 8868   5.948   6.130   2.812  1.4477 -3.9145  1.9759
   66MOL0     H 8869   6.027   5.995   2.738  1.8763  0.0882 -0.8399
   66MOL0     H 8870   5.797   5.931   2.759 -1.8103  2.8917  2.8742
   66MOL0     H 8871   5.461   5.860   2.789  0.0418 -1.4923  0.8292
   66MOL0     H 8872   5.566   5.732   2.714 -1.9176 -0.7260  1.6147
   66MOL0     H 8873   5.626   5.832   2.849  0.2747  0.6651  0.0549
   66MOL0     H 8874   5.298   6.038   2.201 -0.1752  0.3382  0.2159
   66MOL0     H 8875   5.107   5.949   2.079 -1.8888 -0.7670  0.0162
   66MOL0     H 8876   4.907   5.987   2.019 -1.8458 -0.1323 -0.6640
   66MOL0     H 8877   4.939   5.815   2.004 -1.3981 -0.7097 -1.4259
   66MOL0     H 8878   4.724   5.936   1.902 -1.7915  1.1658  1.6599
   66MOL0     H 8879   4.712   5.779   1.955 -0.7920  0.8994 -2.1298
   66MOL0     H 8880   4.650   6.044   2.097 -0.7738  0.4337  0.8332
   66MOL0     H 8881   4.604   5.888   2.164  0.0092 -0.4915 -0.6857
   66MOL0     H 8882   4.482   6.006   1.915  0.5989 -1.0393 -1.1293
   66MOL0     H 8883   4.447   5.843   1.982 -3.4614  0.1886  0.1130
   66MOL0     H 8884   4.396   6.104   2.135  1.1001 -0.6642  2.3049
   66MOL0     H 8885   4.357   5.935   2.189  0.5479 -0.2456 -0.1521
   66MOL0     H 8886   4.222   6.089   1.967 -1.2918  1.2099  2.0874
   66MOL0     H 8887   4.209   5.922   1.964 -1.4374  0.6560 -0.0823
   66MOL0     H 8888   4.120   6.109   2.188 -0.0079 -0.9032 -1.4424
   66MOL0     H 8889   4.136   5.940   2.219  0.2003  1.0540  1.7782
   66MOL0     H 8890   3.899   5.997   2.160 -0.5131  3.1111 -1.2772
   66MOL0     H 8891   3.960   5.889   2.045 -0.6444  0.0397 -0.6402
   66MOL0     H 8892   4.911   5.862   2.450 -0.3832  1.0170  1.1701
   66MOL0     H 8893   5.112   5.925   2.573 -0.3537 -1.2318  0.5544
   66MOL0     H 8894   5.539   6.143   2.400 -0.3286 -0.5049  0.2325
   66MOL0     H 8895   5.768   6.198   2.429 -0.3629 -0.6433 -0.6838
   66MOL0     H 8896   7.913   5.862   2.418  0.6469  0.3268  0.9948
   66MOL0     H 8897   8.140   5.951   2.329 -0.6607 -0.1321  1.6878
   66MOL0     H 8898   8.524   6.220   2.390 -1.3892  1.9472 -0.2148
   66MOL0     H 8899   8.738   6.244   2.275  0.6439  1.6010 -1.1055
   66MOL0     H 8900   8.905   6.207   2.148  0.2392 -4.0950  0.0849
   66MOL0     H 8901   8.836   6.108   2.016  2.9153 -1.1026 -0.1066
   66MOL0     H 8902   8.966   6.240   1.851 -0.3722 -1.2463  0.3075
   66MOL0     H 8903   9.073   6.168   1.966  1.2543  1.2350  2.3101
   66MOL0     H 8904   9.103   6.365   2.093  0.2570 -3.6869 -0.0542
   66MOL0     H 8905   8.997   6.461   1.987  2.7685  1.7098  2.1822
   66MOL0     H 8906   9.153   6.458   1.811  2.1618 -1.3884 -1.7933
   66MOL0     H 8907   9.236   6.315   1.874 -0.0194 -0.6594  0.3436
   66MOL0     H 8908   9.410   6.636   2.083  0.5539 -1.9129  1.0378
   66MOL0     H 8909   8.541   6.351   1.916 -2.2221  1.4257  1.0488
   66MOL0     H 8910   8.325   6.282   2.014 -1.2543 -1.4853  0.2565
   67MOL0     O 8911  10.259   4.288   3.047  0.0841 -1.0165  0.3669
   67MOL0     C 8912  10.280   4.403   3.005 -0.1392 -0.2908 -0.3882
   67MOL0     O 8913  10.186   4.498   2.977  0.4355 -0.5675  0.2517
   67MOL0     C 8914  10.054   4.490   3.016 -0.8393  0.1428  0.1846
   67MOL0     C 8915   9.965   4.553   2.934  0.0990 -0.6579 -0.5374
   67MOL0     C 8916   9.824   4.552   2.964  0.6231  0.7065 -0.0345
   67MOL0     C 8917   9.777   4.501   3.087 -0.1245 -0.0410  0.1065
   67MOL0     O 8918   9.652   4.508   3.145 -0.6157 -0.3145 -0.0477
   67MOL0     C 8919   9.545   4.452   3.077 -0.3331  1.1565 -0.2709
   67MOL0     C 8920   9.411   4.526   3.094  0.1982  0.0321  0.3954
   67MOL0     C 8921   9.293   4.462   3.023 -0.8009 -0.0478 -1.1241
   67MOL0     C 8922   9.155   4.538   3.045 -0.3023 -0.4524  0.2678
   67MOL0     C 8923   9.100   4.514   3.178  0.5390 -0.5767 -0.2303
   67MOL0     C 8924   9.007   4.620   3.227 -0.5906 -0.1569  0.4202
   67MOL0     C 8925   8.980   4.624   3.380  0.1685 -0.5329 -0.9510
   67MOL0     C 8926   8.880   4.740   3.405 -0.4572 -0.4957 -0.5691
   67MOL0     N 8927   8.744   4.684   3.435  0.0869  0.4278 -0.3991
   67MOL0     C 8928   8.698   4.611   3.541 -0.4565  1.3285  0.5000
   67MOL0     C 8929   8.565   4.622   3.535  0.2359  0.3249  0.5428
   67MOL0     C 8930   8.462   4.552   3.624  0.1037  0.5251  0.1880
   67MOL0     C 8931   8.316   4.607   3.619 -0.6510 -0.3433 -0.5540
   67MOL0     C 8932   8.246   4.571   3.495 -0.9331 -0.5022  0.0453
   67MOL0     C 8933   8.109   4.639   3.498 -0.0159  0.1007 -0.1919
   67MOL0     O 8934   8.024   4.595   3.383 -0.1155  0.2590 -0.0515
   67MOL0     C 8935   7.890   4.625   3.393  0.1192  0.1171 -0.8895
   67MOL0     C 8936   7.798   4.543   3.333  0.5929  0.3397 -0.5492
   67MOL0     C 8937   7.656   4.564   3.336  0.3439 -1.9004 -0.9242
   67MOL0     C 8938   7.563   4.465   3.272 -0.3194 -0.9756 -0.3737
   67MOL0     C 8939   7.611   4.691   3.395 -0.1736 -0.1266  0.0820
   67MOL0     C 8940   7.468   4.725   3.396 -0.2527 -0.2241 -1.0112
   67MOL0     O 8941   7.365   4.642   3.365  0.2468 -0.3833  0.0966
   67MOL0     C 8942   7.230   4.647   3.396  0.1387 -0.1677 -0.2413
   67MOL0     C 8943   7.173   4.740   3.485  0.6689 -0.2875  0.9988
   67MOL0     C 8944   7.039   4.752   3.512  0.3377 -0.5611 -0.0182
   67MOL0     C 8945   6.944   4.656   3.463  0.3186  0.1089  0.0636
   67MOL0     O 8946   6.809   4.663   3.494  0.3853 -0.0198 -0.2351
   67MOL0     C 8947   6.721   4.604   3.406  0.4141  0.0664  0.1192
   67MOL0     C 8948   6.577   4.636   3.444 -0.2986 -0.2358  0.9746
   67MOL0     C 8949   6.463   4.572   3.350  0.4626  0.1254  0.9756
   67MOL0     C 8950   6.423   4.675   3.241 -0.8322 -0.4830  0.2117
   67MOL0     C 8951   6.314   4.608   3.149 -0.0082 -0.6700  0.6497
   67MOL0     C 8952   6.186   4.582   3.225 -0.1567 -0.3285 -0.0906
   67MOL0     C 8953   6.060   4.574   3.139 -0.0026  0.2046 -0.5400
   67MOL0     C 8954   5.934   4.601   3.222 -0.1415  0.3553  0.3973
   67MOL0    Cl 8955   5.925   4.509   3.389  0.1435 -0.3804 -0.1224
   67MOL0     C 8956   7.009   4.545   3.396 -0.1868  0.3755  0.1242
   67MOL0     C 8957   7.145   4.544   3.361 -0.2781  0.7731 -0.2343
   67MOL0     O 8958   7.445   4.839   3.434  0.6863  0.4223 -0.2135
   67MOL0     C 8959   7.706   4.778   3.452 -0.3915 -0.6253 -0.0154
   67MOL0     C 8960   7.846   4.744   3.443  0.5902 -0.4171  0.6266
   67MOL0     N 8961   8.534   4.708   3.432  0.5089  0.5451 -0.2335
   67MOL0     N 8962   8.636   4.724   3.360 -0.7800  0.1612  0.5965
   67MOL0     C 8963   9.874   4.434   3.164 -0.3868  0.4502 -0.4793
   67MOL0     C 8964  10.011   4.430   3.132  0.3100 -0.1135  0.3140
   67MOL0     C 8965  10.421   4.442   2.983  0.7142 -0.1844 -0.1853
   67MOL0     C 8966  10.465   4.572   2.981 -0.1488  0.2448  0.5472
   67MOL0     C 8967  10.591   4.606   2.940 -0.1949  0.3086 -0.1154
   67MOL0     C 8968  10.691   4.513   2.927  0.3357  0.1895  0.4774
   67MOL0     O 8969  10.822   4.566   2.905  0.0370  0.3109 -0.5007
   67MOL0     C 8970  10.918   4.472   2.848 -0.1560  0.7508  0.0064
   67MOL0     C 8971  11.017   4.407   2.948 -0.1703  0.1776  0.0479
   67MOL0     C 8972  11.087   4.521   3.031 -0.4063 -0.0950 -1.1954
   67MOL0     C 8973  11.185   4.465   3.140 -0.3943  0.4165  0.1854
   67MOL0     C 8974  11.135   4.465   3.276 -0.0076  0.9040  0.2789
   67MOL0     C 8975  11.088   4.448   3.389 -0.3132 -0.0646  0.2692
   67MOL0     C 8976  10.659   4.375   2.949 -0.2462  0.3662  0.3003
   67MOL0     C 8977  10.519   4.342   2.973 -0.6933  0.1484  0.2172
   67MOL0     H 8978  10.000   4.598   2.841 -0.7730 -1.1708 -1.1304
   67MOL0     H 8979   9.748   4.599   2.903  1.2639  1.8390  0.0002
   67MOL0     H 8980   9.572   4.433   2.973 -1.7960  0.1159 -0.5085
   67MOL0     H 8981   9.537   4.354   3.126  1.3043  1.9779  1.7860
   67MOL0     H 8982   9.387   4.543   3.200 -0.7354  1.9460 -0.0765
   67MOL0     H 8983   9.427   4.626   3.053  2.5234 -0.4760 -0.0915
   67MOL0     H 8984   9.310   4.481   2.917  2.1210  4.1417 -0.1987
   67MOL0     H 8985   9.276   4.355   3.038 -0.0481 -0.2725 -1.8391
   67MOL0     H 8986   9.191   4.640   3.031 -0.7737 -0.3395 -0.1822
   67MOL0     H 8987   9.082   4.517   2.966 -1.4131  3.4938  0.0089
   67MOL0     H 8988   9.052   4.416   3.183 -1.5901  0.4436  0.2596
   67MOL0     H 8989   9.177   4.499   3.255 -3.4334 -0.5982  4.1727
   67MOL0     H 8990   9.052   4.714   3.194 -0.3400  0.3244  2.0614
   67MOL0     H 8991   8.907   4.606   3.184 -0.1825  1.5419 -1.2359
   67MOL0     H 8992   8.941   4.528   3.415 -2.3890  0.2633 -1.4112
   67MOL0     H 8993   9.076   4.638   3.429  0.0393  0.8008 -1.0571
   67MOL0     H 8994   8.877   4.817   3.328 -0.8941  0.8251  0.7299
   67MOL0     H 8995   8.912   4.802   3.489 -2.2087  1.8905 -1.5641
   67MOL0     H 8996   8.751   4.548   3.612 -2.6245 -0.8411  0.3295
   67MOL0     H 8997   8.460   4.452   3.581  1.0210  0.2113  0.8515
   67MOL0     H 8998   8.506   4.548   3.724  2.3148 -1.5090 -0.7744
   67MOL0     H 8999   8.315   4.716   3.630  0.3507 -0.2709 -1.0371
   67MOL0     H 9000   8.260   4.565   3.703 -0.8669  4.8429  2.3187
   67MOL0     H 9001   8.234   4.462   3.496  0.2211 -0.7338 -2.2795
   67MOL0     H 9002   8.313   4.602   3.414  1.8922  0.6007  2.5931
   67MOL0     H 9003   8.135   4.741   3.468 -1.5310  1.0911  1.7073
   67MOL0     H 9004   8.059   4.620   3.593 -3.9942  2.0342 -1.6599
   67MOL0     H 9005   7.830   4.451   3.286 -2.8849 -1.8981  0.9661
   67MOL0     H 9006   7.487   4.433   3.345 -1.0006 -1.3026 -1.1999
   67MOL0     H 9007   7.510   4.523   3.196  1.0127 -0.2707 -0.7870
   67MOL0     H 9008   7.614   4.385   3.218  2.4082  0.7857 -0.5603
   67MOL0     H 9009   7.246   4.814   3.518  1.0322  0.4070 -1.1788
   67MOL0     H 9010   7.005   4.826   3.585  0.3977  0.5031 -1.0364
   67MOL0     H 9011   6.731   4.647   3.306 -0.8919  2.2571  0.8555
   67MOL0     H 9012   6.732   4.495   3.395  0.9293  0.0103  1.0784
   67MOL0     H 9013   6.566   4.589   3.542 -0.1995 -0.3102  0.9504
   67MOL0     H 9014   6.562   4.744   3.448  2.2677  0.2133  0.3544
   67MOL0     H 9015   6.377   4.556   3.415  0.1442  0.9485  0.7748
   67MOL0     H 9016   6.492   4.476   3.306  0.9479  0.7446 -0.1297
   67MOL0     H 9017   6.380   4.762   3.292  2.5251  0.4147  1.7508
   67MOL0     H 9018   6.505   4.715   3.182  0.0232 -1.8434  0.4373
   67MOL0     H 9019   6.363   4.520   3.107 -2.0435 -0.7438 -1.7819
   67MOL0     H 9020   6.284   4.669   3.063  0.1344  0.0187  1.0780
   67MOL0     H 9021   6.194   4.490   3.283  1.0040 -1.1432 -1.4810
   67MOL0     H 9022   6.171   4.656   3.304  0.7331 -2.0144  1.7571
   67MOL0     H 9023   6.055   4.477   3.091 -0.3811 -0.5536  0.9613
   67MOL0     H 9024   6.066   4.647   3.058  0.3710  0.5254 -0.2351
   67MOL0     H 9025   5.848   4.572   3.161  0.2499  1.0149 -0.4968
   67MOL0     H 9026   5.912   4.705   3.246  0.2115  0.3006  0.9724
   67MOL0     H 9027   6.949   4.455   3.386  0.0884  0.2352 -0.2666
   67MOL0     H 9028   7.180   4.449   3.320 -2.7863  0.1909 -1.1882
   67MOL0     H 9029   7.681   4.869   3.506  1.8645 -0.9749  1.7660
   67MOL0     H 9030   7.926   4.817   3.452  2.0437 -1.5778 -1.7982
   67MOL0     H 9031   9.835   4.398   3.258 -0.6582  3.0097  0.4708
   67MOL0     H 9032  10.078   4.377   3.199 -0.0105 -1.0292 -0.0756
   67MOL0     H 9033  10.386   4.646   2.991  0.3636  0.6225  2.0389
   67MOL0     H 9034  10.621   4.706   2.910 -2.0773  0.9434  0.0048
   67MOL0     H 9035  10.867   4.396   2.789 -0.9843  0.7123  0.7445
   67MOL0     H 9036  10.968   4.524   2.766 -1.4834 -0.9473 -1.9572
   67MOL0     H 9037  11.100   4.356   2.897 -1.0263  0.4024 -1.6206
   67MOL0     H 9038  10.957   4.343   3.014  0.6525 -2.5224 -1.6435
   67MOL0     H 9039  11.008   4.587   3.069  0.3038 -0.3988  0.9624
   67MOL0     H 9040  11.141   4.581   2.957 -1.2450  0.4284 -1.3993
   67MOL0     H 9041  11.278   4.523   3.140 -0.3643  0.3999 -1.0634
   67MOL0     H 9042  11.200   4.359   3.118 -0.7702  0.0352  1.6363
   67MOL0     H 9043  11.027   4.440   3.476 -4.1259  2.5511 -1.8966
   67MOL0     H 9044  10.733   4.298   2.969  2.0163  1.5257 -2.8331
   67MOL0     H 9045  10.484   4.241   2.960 -0.2133  0.1907 -1.5995
   68MOL0     O 9046   4.627   8.568  10.896  0.6439 -0.3565 -0.4972
   68MOL0     C 9047   4.722   8.646  10.894 -0.5306 -0.9921 -0.2026
   68MOL0     O 9048   4.722   8.787  10.920  0.0482  0.3067  0.1179
   68MOL0     C 9049   4.626   8.857  10.980  0.9902 -0.4903  0.4520
   68MOL0     C 9050   4.494   8.855  10.943  0.0683  0.8079 -0.8232
   68MOL0     C 9051   4.399   8.954  10.988 -0.5577  1.0371  0.1530
   68MOL0     C 9052   4.438   9.063  11.058 -0.2219  0.3007  0.3355
   68MOL0     O 9053   4.345   9.159  11.110  0.8642 -0.1221  0.4581
   68MOL0     C 9054   4.239   9.180  11.016  0.0955  0.2578 -0.1566
   68MOL0     C 9055   4.122   9.293  11.065 -1.2346 -0.0793  0.4266
   68MOL0     C 9056   4.008   9.231  11.152  0.3285  0.8612 -0.2522
   68MOL0     C 9057   3.872   9.310  11.137 -1.0002 -0.0295  0.1970
   68MOL0     C 9058   3.755   9.244  11.211 -0.6765  0.7690  0.7591
   68MOL0     C 9059   3.628   9.332  11.174  0.8474 -0.0843  0.0558
   68MOL0     C 9060   3.512   9.267  11.259 -0.4513  0.5580 -0.4924
   68MOL0     C 9061   3.388   9.360  11.264 -0.0477  0.5257  0.3267
   68MOL0     N 9062   3.353   9.399  11.136  0.4190 -0.0121 -0.4069
   68MOL0     C 9063   3.285   9.323  11.035 -0.5582  0.9978  1.0522
   68MOL0     C 9064   3.263   9.406  10.932  0.6806 -0.4525  0.7259
   68MOL0     C 9065   3.179   9.376  10.814  0.7912  0.3429  0.0895
   68MOL0     C 9066   3.030   9.387  10.845  0.1562  0.7737  0.2772
   68MOL0     C 9067   2.990   9.535  10.853 -0.4021  0.9670 -0.5950
   68MOL0     C 9068   2.839   9.533  10.853  0.9461 -0.3533  0.3586
   68MOL0     O 9069   2.793   9.663  10.851 -0.3523 -0.2025 -0.4642
   68MOL0     C 9070   2.656   9.686  10.867  0.5045  0.1160  0.8346
   68MOL0     C 9071   2.610   9.816  10.888  0.4075 -0.3611  0.2965
   68MOL0     C 9072   2.471   9.858  10.897 -0.5223 -0.2464 -0.2891
   68MOL0     C 9073   2.447  10.000  10.942  0.1762 -0.2803  0.3126
   68MOL0     C 9074   2.373   9.757  10.895 -0.1722 -0.5263 -0.1973
   68MOL0     C 9075   2.227   9.777  10.918 -0.1897  0.5763  0.0656
   68MOL0     O 9076   2.152   9.666  10.935 -0.2635 -0.6534  0.2315
   68MOL0     C 9077   2.018   9.684  10.969 -0.8990  0.5731  0.7955
   68MOL0     C 9078   1.920   9.623  10.894 -0.0751 -0.0497 -0.4517
   68MOL0     C 9079   1.787   9.632  10.943 -1.0064 -0.2586  1.1471
   68MOL0     C 9080   1.756   9.696  11.069 -0.0681 -1.1815  0.1416
   68MOL0     O 9081   1.627   9.714  11.122 -0.2194  0.7224 -0.0666
   68MOL0     C 9082   1.592   9.581  11.179 -0.0892  0.2410  0.0474
   68MOL0     C 9083   1.440   9.584  11.189 -0.1065 -0.4549  0.2206
   68MOL0     C 9084   1.395   9.466  11.277 -0.0747 -0.2425  0.0287
   68MOL0     C 9085   1.266   9.496  11.365 -0.0201  0.4399  0.0724
   68MOL0     C 9086   1.138   9.513  11.273  0.3383 -0.0752 -0.0433
   68MOL0     C 9087   1.005   9.504  11.364 -0.3380  0.7111 -0.1288
   68MOL0     C 9088   0.874   9.530  11.296 -0.5988  0.0982  1.3846
   68MOL0     C 9089   0.878   9.653  11.208 -0.2109  0.7341  0.3412
   68MOL0    Cl 9090   0.927   9.796  11.300 -0.0408 -0.0295  0.2495
   68MOL0     C 9091   1.861   9.757  11.139 -0.4370 -0.6518 -0.9020
   68MOL0     C 9092   1.988   9.746  11.098  0.6228  0.7378 -0.2632
   68MOL0     O 9093   2.181   9.891  10.926  0.2330  0.7749 -0.2594
   68MOL0     C 9094   2.417   9.624  10.876 -0.5635 -0.4802 -0.1328
   68MOL0     C 9095   2.555   9.586  10.866  0.1187 -0.3121  0.4648
   68MOL0     N 9096   3.324   9.526  10.961  0.4516 -0.2112  0.5176
   68MOL0     N 9097   3.372   9.525  11.086  0.8969 -0.0264 -0.3538
   68MOL0     C 9098   4.567   9.064  11.110  0.1950 -0.2477  0.5256
   68MOL0     C 9099   4.657   8.963  11.067 -0.3821  0.5983 -0.3426
   68MOL0     C 9100   4.840   8.589  10.839  0.3830  0.7951 -0.5075
   68MOL0     C 9101   4.938   8.671  10.790  0.1830  0.1199 -0.3609
   68MOL0     C 9102   5.065   8.619  10.778  0.2430  0.5234 -0.6465
   68MOL0     C 9103   5.088   8.483  10.769 -0.9335  0.7952  0.8288
   68MOL0     O 9104   5.217   8.435  10.734 -0.0493 -0.0303 -0.1422
   68MOL0     C 9105   5.257   8.306  10.750  0.5262 -0.0038 -0.3902
   68MOL0     C 9106   5.267   8.223  10.618  0.3633 -0.3558  0.0629
   68MOL0     C 9107   5.408   8.167  10.593 -0.4787 -1.1229  0.4506
   68MOL0     C 9108   5.501   8.272  10.526  0.9257  0.6923 -0.0392
   68MOL0     C 9109   5.640   8.251  10.541  0.2483 -0.2388  0.8008
   68MOL0     C 9110   5.756   8.225  10.552  0.4067  0.1261  0.2986
   68MOL0     C 9111   4.980   8.398  10.782 -0.7000 -0.6321  0.0952
   68MOL0     C 9112   4.854   8.450  10.822  0.1244  0.5174  0.1361
   68MOL0     H 9113   4.460   8.771  10.884 -2.0732  0.5725  0.6354
   68MOL0     H 9114   4.297   8.920  10.977  0.7567 -3.7143  0.3521
   68MOL0     H 9115   4.285   9.208  10.921 -2.2706  0.3165 -1.3558
   68MOL0     H 9116   4.179   9.091  10.993 -0.3863  0.3231  0.7965
   68MOL0     H 9117   4.159   9.384  11.112 -2.0417  0.1717  0.5910
   68MOL0     H 9118   4.073   9.333  10.976 -0.1240  2.1598  0.7567
   68MOL0     H 9119   4.001   9.125  11.129 -0.6189 -0.3826  4.7122
   68MOL0     H 9120   4.032   9.234  11.258  0.3155  0.5813 -0.2412
   68MOL0     H 9121   3.893   9.412  11.171 -0.5393 -0.5570  1.5156
   68MOL0     H 9122   3.853   9.308  11.029  1.0322 -2.2192 -0.2022
   68MOL0     H 9123   3.735   9.146  11.166 -1.5987  0.7699  1.1427
   68MOL0     H 9124   3.776   9.243  11.318 -0.2380 -0.8722  0.6883
   68MOL0     H 9125   3.649   9.432  11.213  0.5988 -0.7043  1.8998
   68MOL0     H 9126   3.608   9.338  11.067  1.8925 -0.1642 -0.1525
   68MOL0     H 9127   3.492   9.173  11.206  2.0159 -0.1533 -0.2538
   68MOL0     H 9128   3.541   9.250  11.363 -1.6206 -1.4149 -0.4283
   68MOL0     H 9129   3.401   9.451  11.324  2.5674 -0.1589  0.9330
   68MOL0     H 9130   3.308   9.297  11.303 -1.5649  0.1456 -3.0044
   68MOL0     H 9131   3.254   9.219  11.037  0.8383  0.4340 -1.9050
   68MOL0     H 9132   3.206   9.437  10.727  1.5073  1.8295  1.3085
   68MOL0     H 9133   3.206   9.274  10.786  3.9464  1.9674 -3.7986
   68MOL0     H 9134   3.011   9.335  10.940  1.9775 -0.3913  0.0698
   68MOL0     H 9135   2.982   9.336  10.762 -2.0769  0.7321  1.5259
   68MOL0     H 9136   3.029   9.582  10.762 -0.6717 -1.9291 -2.3522
   68MOL0     H 9137   3.032   9.577  10.945 -0.4193 -4.0515  2.0711
   68MOL0     H 9138   2.806   9.470  10.936 -1.5837 -1.4406 -1.3571
   68MOL0     H 9139   2.795   9.491  10.762  1.8657  0.7282 -0.6239
   68MOL0     H 9140   2.693   9.886  10.889  2.1054 -2.2744  2.3784
   68MOL0     H 9141   2.533  10.068  10.945 -0.5534  0.6829  0.0351
   68MOL0     H 9142   2.371  10.036  10.872  0.8360 -1.2598 -0.9422
   68MOL0     H 9143   2.408   9.988  11.044  2.8873 -3.9135  1.1267
   68MOL0     H 9144   1.945   9.559  10.810  3.1949 -0.3013  0.5968
   68MOL0     H 9145   1.706   9.602  10.877 -0.2755  1.3733 -0.5893
   68MOL0     H 9146   1.620   9.499  11.112  0.8620 -0.0281  0.7534
   68MOL0     H 9147   1.636   9.556  11.276  0.1811 -0.2673 -0.2018
   68MOL0     H 9148   1.414   9.683  11.229 -1.7939 -1.2416  1.1788
   68MOL0     H 9149   1.393   9.571  11.092  0.5645 -0.8628 -0.0588
   68MOL0     H 9150   1.479   9.440  11.342 -0.1067 -3.4872 -1.0708
   68MOL0     H 9151   1.376   9.381  11.211 -1.3642 -0.6263  0.8719
   68MOL0     H 9152   1.259   9.409  11.431 -0.2057  0.3353 -0.0850
   68MOL0     H 9153   1.268   9.587  11.426 -2.0885  1.3481 -1.1290
   68MOL0     H 9154   1.132   9.431  11.201 -0.4349  0.6013 -0.7668
   68MOL0     H 9155   1.148   9.614  11.232  1.2899 -0.5415 -0.9801
   68MOL0     H 9156   1.005   9.401  11.403  2.5459  0.7735  0.2948
   68MOL0     H 9157   1.007   9.573  11.449  1.2644 -0.7941  1.1619
   68MOL0     H 9158   0.795   9.529  11.372 -1.1371 -0.1939  0.8305
   68MOL0     H 9159   0.847   9.449  11.227  2.4646  0.2716 -0.2140
   68MOL0     H 9160   0.783   9.674  11.158  0.7988 -0.1553 -2.0984
   68MOL0     H 9161   0.956   9.633  11.134  1.8132  1.2295  2.2417
   68MOL0     H 9162   1.852   9.813  11.232  3.8054 -0.8270 -0.2106
   68MOL0     H 9163   2.068   9.771  11.167 -0.2179  3.5436 -0.1735
   68MOL0     H 9164   2.349   9.539  10.882  1.5000 -2.3713 -1.6238
   68MOL0     H 9165   2.594   9.486  10.852  2.1041  0.6002 -0.9577
   68MOL0     H 9166   4.601   9.146  11.173 -1.3568  1.2308 -0.4623
   68MOL0     H 9167   4.760   8.978  11.099 -0.8774  2.8647  0.3551
   68MOL0     H 9168   4.919   8.778  10.793  2.6865  0.6445 -0.8319
   68MOL0     H 9169   5.149   8.689  10.773  0.0140  0.9436  0.9327
   68MOL0     H 9170   5.361   8.311  10.784  0.3045  0.4883  0.2469
   68MOL0     H 9171   5.203   8.251  10.828 -0.4147  2.2602  0.6290
   68MOL0     H 9172   5.248   8.285  10.530  4.5868 -0.6898 -1.2736
   68MOL0     H 9173   5.197   8.139  10.615 -0.4739  0.3386 -0.3917
   68MOL0     H 9174   5.406   8.077  10.532 -0.0717  0.4228 -1.9781
   68MOL0     H 9175   5.457   8.139  10.687  0.2210 -0.2676  0.3564
   68MOL0     H 9176   5.475   8.370  10.567  2.5886  1.6993 -1.2860
   68MOL0     H 9177   5.469   8.278  10.422 -0.5547  0.2593  0.3648
   68MOL0     H 9178   5.862   8.214  10.554  0.2442 -2.2286 -0.9473
   68MOL0     H 9179   4.997   8.293  10.762  1.1098 -0.1272 -1.2490
   68MOL0     H 9180   4.774   8.384  10.856  0.3404 -0.4905 -1.2244
   69MOL0     O 9181   5.197   1.905   4.105  0.0955 -0.3437  0.4446
   69MOL0     C 9182   5.250   1.937   4.004  0.4902 -0.4650 -0.0236
   69MOL0     O 9183   5.186   1.924   3.886  0.0373  0.0875  0.2323
   69MOL0     C 9184   5.084   1.835   3.856 -0.1870  0.2551 -0.7435
   69MOL0     C 9185   4.963   1.865   3.785 -0.4242 -0.6145 -0.0302
   69MOL0     C 9186   4.874   1.768   3.748 -0.7758  1.0266  0.6876
   69MOL0     C 9187   4.878   1.639   3.806 -0.4527 -0.1212  0.0336
   69MOL0     O 9188   4.792   1.547   3.757  0.5914  0.5816  0.5875
   69MOL0     C 9189   4.743   1.447   3.838 -0.2049 -0.3807  0.1487
   69MOL0     C 9190   4.603   1.387   3.788 -0.0169 -0.0011 -0.0137
   69MOL0     C 9191   4.495   1.485   3.739  0.0581 -0.0475  0.1472
   69MOL0     C 9192   4.486   1.608   3.832 -0.0066  0.2154 -0.6045
   69MOL0     C 9193   4.369   1.698   3.794 -0.0870  0.1005  0.8254
   69MOL0     C 9194   4.360   1.745   3.644  0.5406 -0.2227  0.1122
   69MOL0     C 9195   4.495   1.794   3.589  0.5472  0.2653 -0.8649
   69MOL0     C 9196   4.489   1.831   3.441 -0.7019 -0.7950 -0.5823
   69MOL0     N 9197   4.619   1.890   3.412  0.2517 -0.6558 -0.1212
   69MOL0     C 9198   4.635   2.022   3.405 -0.1465 -0.7312 -0.6617
   69MOL0     C 9199   4.771   2.041   3.408  0.2414  0.2765  0.9568
   69MOL0     C 9200   4.843   2.169   3.387 -1.4896 -0.6277  0.0053
   69MOL0     C 9201   4.789   2.292   3.460  0.6521 -0.2620 -0.2574
   69MOL0     C 9202   4.852   2.416   3.382  0.6986 -0.0762  0.3805
   69MOL0     C 9203   4.809   2.546   3.451  0.0649 -0.1584 -0.5558
   69MOL0     O 9204   4.667   2.558   3.485  0.7853 -0.1707  0.2328
   69MOL0     C 9205   4.627   2.677   3.557 -0.4022  0.2933  0.2897
   69MOL0     C 9206   4.704   2.789   3.569 -0.1001 -0.1805  0.7966
   69MOL0     C 9207   4.653   2.892   3.649  0.3221 -0.8756 -0.2816
   69MOL0     C 9208   4.744   3.006   3.682 -0.2005 -0.2701 -0.3663
   69MOL0     C 9209   4.519   2.883   3.713  0.7176  0.2025  0.7263
   69MOL0     C 9210   4.457   2.991   3.787 -0.1659  0.6030 -0.0703
   69MOL0     O 9211   4.327   2.964   3.815  0.3816  0.3435 -0.0029
   69MOL0     C 9212   4.265   3.009   3.932  0.1173 -0.0302 -0.0179
   69MOL0     C 9213   4.126   2.982   3.933 -0.0266 -0.4189 -0.1223
   69MOL0     C 9214   4.048   3.014   4.043 -0.0096 -0.5567  0.4573
   69MOL0     C 9215   4.102   3.085   4.153 -0.6201 -0.4355 -0.0197
   69MOL0     O 9216   4.017   3.101   4.253  0.2802 -0.4001 -0.5835
   69MOL0     C 9217   4.050   3.189   4.362  0.3216  1.5908  0.7169
   69MOL0     C 9218   3.923   3.173   4.454  0.9581 -0.2755  0.0596
   69MOL0     C 9219   3.929   3.229   4.589  0.4751 -0.0621 -0.1525
   69MOL0     C 9220   3.989   3.368   4.598 -0.1083 -0.1258 -0.0260
   69MOL0     C 9221   3.981   3.430   4.738  0.1090  0.0287 -0.1451
   69MOL0     C 9222   4.045   3.566   4.753  0.1450  0.3341 -0.6844
   69MOL0     C 9223   4.196   3.556   4.759  0.4786 -0.4999  0.7787
   69MOL0     C 9224   4.254   3.701   4.769 -0.0359 -0.5196  0.7440
   69MOL0    Cl 9225   4.189   3.783   4.913  0.2105 -0.2593  0.7198
   69MOL0     C 9226   4.237   3.118   4.155 -0.3308 -0.1558 -0.5059
   69MOL0     C 9227   4.316   3.080   4.041  0.0446  0.2962  0.6330
   69MOL0     O 9228   4.518   3.097   3.820 -0.8524  0.1511 -0.3433
   69MOL0     C 9229   4.450   2.763   3.707 -0.1028 -0.1798  0.6426
   69MOL0     C 9230   4.505   2.668   3.625 -0.2625  1.1038 -0.5220
   69MOL0     N 9231   4.836   1.922   3.414 -0.0588  0.6096  0.0167
   69MOL0     N 9232   4.745   1.834   3.415  0.3642 -0.1928  0.0195
   69MOL0     C 9233   4.990   1.615   3.890  0.3351 -0.4814  0.3060
   69MOL0     C 9234   5.093   1.708   3.915  0.5140 -0.2729  0.3039
   69MOL0     C 9235   5.374   2.023   4.009  0.8907 -0.1521 -0.2527
   69MOL0     C 9236   5.439   2.059   4.127 -0.1521  0.5803 -0.0912
   69MOL0     C 9237   5.557   2.133   4.121 -0.6677  0.5519  0.3585
   69MOL0     C 9238   5.603   2.196   4.005  0.1738  0.4265  0.6476
   69MOL0     O 9239   5.715   2.279   4.003  0.1568  0.2669 -0.0254
   69MOL0     C 9240   5.715   2.393   4.104 -0.6431  0.2975  0.5187
   69MOL0     C 9241   5.855   2.458   4.083 -0.8251  0.2932 -0.2571
   69MOL0     C 9242   5.981   2.380   4.117 -0.4414  0.0845  0.9725
   69MOL0     C 9243   6.110   2.473   4.107  0.1878 -0.1278 -0.1515
   69MOL0     C 9244   6.200   2.450   4.220  0.3469 -0.4144  0.5686
   69MOL0     C 9245   6.266   2.418   4.317 -0.8261  0.0218  0.1922
   69MOL0     C 9246   5.544   2.159   3.885  0.6694  0.6334  0.0704
   69MOL0     C 9247   5.429   2.079   3.888  0.1413  0.6936  0.1109
   69MOL0     H 9248   4.948   1.959   3.733  2.6497  1.0080  1.6941
   69MOL0     H 9249   4.790   1.788   3.681  0.0113 -0.8642 -0.9384
   69MOL0     H 9250   4.811   1.362   3.834  0.3072  0.0643 -0.9194
   69MOL0     H 9251   4.734   1.489   3.939  0.1706 -0.9001  0.4010
   69MOL0     H 9252   4.622   1.323   3.701 -0.4891 -1.3875  0.8706
   69MOL0     H 9253   4.564   1.330   3.872 -1.4434  0.0071 -0.6394
   69MOL0     H 9254   4.510   1.513   3.635 -1.6212  3.0949  0.6446
   69MOL0     H 9255   4.403   1.426   3.728  0.8933 -1.3224 -0.3472
   69MOL0     H 9256   4.471   1.557   3.928  3.3964 -0.8973 -0.5227
   69MOL0     H 9257   4.579   1.663   3.846  0.5605 -0.5992 -1.1478
   69MOL0     H 9258   4.270   1.655   3.816  0.5592 -2.5564 -0.9388
   69MOL0     H 9259   4.373   1.791   3.851 -3.0781  1.8481 -1.5059
   69MOL0     H 9260   4.330   1.654   3.590  0.4679  0.1359 -0.4617
   69MOL0     H 9261   4.291   1.830   3.644  1.8022  0.9167 -2.3519
   69MOL0     H 9262   4.532   1.874   3.655  0.3397 -0.7127  0.4793
   69MOL0     H 9263   4.562   1.708   3.592 -3.3513 -3.0644 -0.5874
   69MOL0     H 9264   4.409   1.905   3.424 -0.6461 -0.4041  0.7476
   69MOL0     H 9265   4.450   1.738   3.399 -0.6099 -1.4965  0.8459
   69MOL0     H 9266   4.562   2.098   3.381  2.9644  3.2000  1.1359
   69MOL0     H 9267   4.947   2.160   3.420 -0.6250 -0.7812 -2.5265
   69MOL0     H 9268   4.849   2.183   3.279 -0.4100 -1.9808 -0.1301
   69MOL0     H 9269   4.812   2.297   3.567  0.8561 -0.7658 -0.2790
   69MOL0     H 9270   4.680   2.292   3.447  0.6207 -2.3634 -0.2782
   69MOL0     H 9271   4.816   2.410   3.279 -1.6729 -0.7639  1.1832
   69MOL0     H 9272   4.961   2.401   3.386  0.4211 -3.0738 -0.6220
   69MOL0     H 9273   4.845   2.628   3.388 -1.1484  1.5292  0.8249
   69MOL0     H 9274   4.866   2.553   3.544 -0.2558 -0.6545 -0.3203
   69MOL0     H 9275   4.803   2.808   3.531  0.4857  0.2628  2.4829
   69MOL0     H 9276   4.825   2.997   3.609  0.3348 -1.2631  0.3223
   69MOL0     H 9277   4.695   3.103   3.668 -2.4883 -0.9764  1.9559
   69MOL0     H 9278   4.792   3.001   3.781 -1.2732  1.0608  0.2563
   69MOL0     H 9279   4.076   2.931   3.851 -1.0067  1.6958 -0.9103
   69MOL0     H 9280   3.944   2.985   4.036 -0.0209 -1.1034  2.3373
   69MOL0     H 9281   4.138   3.149   4.413 -1.0364 -0.1315  1.8430
   69MOL0     H 9282   4.061   3.289   4.319  0.9599  2.2974  2.4348
   69MOL0     H 9283   3.834   3.227   4.421  1.6762  3.1622  3.1080
   69MOL0     H 9284   3.902   3.066   4.465 -3.2063 -0.0176 -2.8859
   69MOL0     H 9285   3.992   3.162   4.648  3.3026  0.8842 -1.8838
   69MOL0     H 9286   3.828   3.227   4.631  0.9741  0.8165  1.1462
   69MOL0     H 9287   4.093   3.373   4.566 -0.5248  3.1917 -1.2721
   69MOL0     H 9288   3.927   3.437   4.539  0.5431 -0.1124 -0.6997
   69MOL0     H 9289   4.016   3.361   4.815 -2.0912  1.6226  2.4598
   69MOL0     H 9290   3.875   3.448   4.760 -0.1841 -2.3260  0.6891
   69MOL0     H 9291   4.012   3.631   4.672 -2.2439  1.6082  1.1711
   69MOL0     H 9292   3.998   3.601   4.845 -0.2281  0.4912 -0.9315
   69MOL0     H 9293   4.215   3.498   4.669 -0.8391 -0.3884  0.4049
   69MOL0     H 9294   4.233   3.498   4.844 -1.0267 -2.3632  0.2233
   69MOL0     H 9295   4.239   3.758   4.677  0.3102 -0.6363  0.6143
   69MOL0     H 9296   4.363   3.698   4.768  0.1035  1.4616 -2.0796
   69MOL0     H 9297   4.285   3.172   4.236  2.3493 -2.3041 -0.5038
   69MOL0     H 9298   4.419   3.114   4.052  0.0801 -0.5039  3.5300
   69MOL0     H 9299   4.348   2.748   3.743  0.9732 -0.8509  3.7147
   69MOL0     H 9300   4.443   2.580   3.612  0.1882  0.7980 -0.6284
   69MOL0     H 9301   4.982   1.520   3.942 -0.9695 -0.9703 -0.7170
   69MOL0     H 9302   5.179   1.686   3.978  0.6395  0.0875  0.2632
   69MOL0     H 9303   5.393   2.009   4.212 -1.8638 -0.4638 -1.5655
   69MOL0     H 9304   5.618   2.145   4.209  0.5954  3.6713 -0.8226
   69MOL0     H 9305   5.632   2.463   4.093  0.1107  1.5529  2.2961
   69MOL0     H 9306   5.714   2.347   4.204  1.8278 -0.4624  0.2758
   69MOL0     H 9307   5.850   2.535   4.161  0.5144 -1.6703  1.9221
   69MOL0     H 9308   5.876   2.488   3.980  0.4012 -3.6409 -1.3437
   69MOL0     H 9309   5.989   2.297   4.046  0.0531  0.4193  0.6370
   69MOL0     H 9310   5.973   2.335   4.216  0.1344  1.3397  1.6128
   69MOL0     H 9311   6.080   2.576   4.128  0.3575  0.2189 -1.5353
   69MOL0     H 9312   6.164   2.465   4.012 -0.4473  0.6104 -0.5848
   69MOL0     H 9313   6.330   2.388   4.398  0.5869  1.8464 -0.1791
   69MOL0     H 9314   5.573   2.207   3.792 -0.4533  0.0953 -0.5716
   69MOL0     H 9315   5.370   2.057   3.800 -1.1897  1.2613  0.8197
   70MOL0     O 9316   8.971   4.207   2.427  0.4960  0.4934 -0.7789
   70MOL0     C 9317   8.988   4.087   2.426  0.0846 -0.4109 -0.6300
   70MOL0     O 9318   8.894   3.997   2.469 -0.2878  0.8098  0.1406
   70MOL0     C 9319   8.779   4.050   2.529 -0.2807  0.0515  0.7681
   70MOL0     C 9320   8.671   4.088   2.450  0.1084 -0.0515  0.4282
   70MOL0     C 9321   8.557   4.154   2.513  0.5325  1.6491  0.1134
   70MOL0     C 9322   8.549   4.173   2.650  0.7788 -0.6897 -0.5879
   70MOL0     O 9323   8.438   4.237   2.709 -0.5549  0.7096 -0.3785
   70MOL0     C 9324   8.312   4.240   2.639 -0.0270  1.0679 -0.0141
   70MOL0     C 9325   8.224   4.346   2.705  0.4902  0.9054 -0.4555
   70MOL0     C 9326   8.074   4.337   2.651 -1.1330  0.0664 -0.0856
   70MOL0     C 9327   8.073   4.389   2.507 -0.2350 -0.3859 -0.3509
   70MOL0     C 9328   7.926   4.421   2.457  0.7355  0.2453 -0.5979
   70MOL0     C 9329   7.860   4.560   2.506 -0.5117 -0.1565 -0.2769
   70MOL0     C 9330   7.722   4.579   2.443  0.4068  0.5464  0.3499
   70MOL0     C 9331   7.664   4.704   2.502 -0.3247 -0.5312 -0.5945
   70MOL0     N 9332   7.520   4.708   2.464 -0.9185 -0.5527 -0.8280
   70MOL0     C 9333   7.465   4.727   2.339 -0.5130 -1.1463 -0.5472
   70MOL0     C 9334   7.330   4.708   2.346  0.1666 -0.9918  0.0636
   70MOL0     C 9335   7.230   4.719   2.232 -0.6012 -0.3540  0.0263
   70MOL0     C 9336   7.154   4.850   2.227  0.1585  0.7290 -0.3721
   70MOL0     C 9337   7.242   4.968   2.179 -0.8478  0.1565 -0.0029
   70MOL0     C 9338   7.172   5.097   2.198  0.7443 -0.5378  0.4521
   70MOL0     O 9339   7.056   5.110   2.113  0.2534  0.7168 -0.2224
   70MOL0     C 9340   6.976   5.225   2.128 -0.2579  1.1959 -0.0303
   70MOL0     C 9341   6.862   5.230   2.050 -0.6242  0.7974 -0.0504
   70MOL0     C 9342   6.776   5.339   2.058  0.5327 -0.5635  0.0396
   70MOL0     C 9343   6.652   5.317   1.984  0.2636  0.8117 -0.3158
   70MOL0     C 9344   6.807   5.444   2.150 -0.4702  0.1681  0.7033
   70MOL0     C 9345   6.708   5.560   2.176 -0.4069 -0.6188  0.7294
   70MOL0     O 9346   6.603   5.580   2.091  0.0786 -0.3895 -0.2644
   70MOL0     C 9347   6.492   5.665   2.124 -0.4063  0.8189  0.2518
   70MOL0     C 9348   6.470   5.746   2.232  0.3864  0.8427 -0.7544
   70MOL0     C 9349   6.357   5.829   2.237  0.0607  0.5597 -0.2685
   70MOL0     C 9350   6.262   5.832   2.136  0.4038  0.3745 -0.7570
   70MOL0     O 9351   6.147   5.911   2.129 -0.0391  0.0762  0.1972
   70MOL0     C 9352   6.152   6.027   2.212 -0.0530  1.0219 -0.8233
   70MOL0     C 9353   6.049   6.127   2.161  0.3682 -0.9870  0.0468
   70MOL0     C 9354   6.085   6.276   2.189 -0.1272 -0.1073 -0.6747
   70MOL0     C 9355   6.114   6.303   2.335 -0.0737  0.9880 -0.0313
   70MOL0     C 9356   6.109   6.453   2.364  0.1916  0.7859  0.1014
   70MOL0     C 9357   6.188   6.542   2.269 -0.5607  0.2310 -0.1909
   70MOL0     C 9358   6.186   6.690   2.320 -0.2694  0.5725 -0.0012
   70MOL0     C 9359   6.227   6.797   2.217  0.4446 -0.4934 -0.0352
   70MOL0    Cl 9360   6.077   6.798   2.121  0.0770 -0.2328 -0.7386
   70MOL0     C 9361   6.284   5.758   2.022 -0.2639  0.5586 -0.2172
   70MOL0     C 9362   6.400   5.676   2.012  0.4999 -0.4305 -0.3036
   70MOL0     O 9363   6.730   5.632   2.275  0.1066  0.3648  0.0866
   70MOL0     C 9364   6.930   5.445   2.212 -0.2473 -0.2008 -0.2236
   70MOL0     C 9365   7.017   5.335   2.204 -0.4267 -0.4682  0.5255
   70MOL0     N 9366   7.302   4.693   2.482 -1.1257  0.3403  0.0337
   70MOL0     N 9367   7.417   4.694   2.548 -0.2626 -0.1560  0.4406
   70MOL0     C 9368   8.655   4.128   2.731 -0.2759 -0.0002 -0.1261
   70MOL0     C 9369   8.769   4.066   2.671 -0.7235  0.3142 -0.1204
   70MOL0     C 9370   9.107   4.031   2.361  0.1877  1.4369 -0.4087
   70MOL0     C 9371   9.119   3.893   2.325  0.4038 -0.0487  0.0421
   70MOL0     C 9372   9.226   3.842   2.256 -0.4569  0.3167 -0.0809
   70MOL0     C 9373   9.324   3.922   2.203 -0.3453  0.1796  0.1666
   70MOL0     O 9374   9.420   3.866   2.123 -0.7606 -0.2869 -0.3193
   70MOL0     C 9375   9.513   3.950   2.058 -0.6238  0.1856 -0.0831
   70MOL0     C 9376   9.433   4.017   1.940 -0.1633  0.9521  0.2535
   70MOL0     C 9377   9.531   4.104   1.853 -0.8969 -0.8272 -0.1802
   70MOL0     C 9378   9.618   4.011   1.768 -0.2894 -0.6350 -0.2379
   70MOL0     C 9379   9.713   4.092   1.700  0.2653 -0.4637  0.5387
   70MOL0     C 9380   9.795   4.152   1.631  0.5656  0.1103 -1.4795
   70MOL0     C 9381   9.316   4.060   2.247  0.6162  0.4739  0.9619
   70MOL0     C 9382   9.214   4.112   2.327 -0.0060 -0.0279 -0.2608
   70MOL0     H 9383   8.665   4.050   2.349 -1.4470  1.8393 -0.2360
   70MOL0     H 9384   8.483   4.194   2.445  1.7768  0.5622 -1.9696
   70MOL0     H 9385   8.310   4.280   2.537 -2.0205 -0.9237 -0.8513
   70MOL0     H 9386   8.273   4.138   2.631 -2.6206  2.0006 -0.0338
   70MOL0     H 9387   8.222   4.328   2.813 -0.2904  0.6333 -0.5037
   70MOL0     H 9388   8.265   4.445   2.683  1.9000  0.0787 -1.7142
   70MOL0     H 9389   8.023   4.241   2.663 -3.2760  1.1174 -0.0912
   70MOL0     H 9390   8.010   4.408   2.705 -1.4809  0.7097 -1.3029
   70MOL0     H 9391   8.140   4.475   2.491  0.4029 -1.0531 -1.3986
   70MOL0     H 9392   8.118   4.305   2.454  0.6573  1.0244 -1.9348
   70MOL0     H 9393   7.923   4.430   2.348 -1.9465  2.2563 -0.4481
   70MOL0     H 9394   7.875   4.330   2.492  1.8142  0.5689  2.0300
   70MOL0     H 9395   7.851   4.558   2.615  1.7833  1.5403  0.0138
   70MOL0     H 9396   7.934   4.631   2.469  0.4637 -1.3062 -0.5609
   70MOL0     H 9397   7.730   4.590   2.334  1.8982 -0.1661  0.3703
   70MOL0     H 9398   7.649   4.501   2.465  1.8939 -1.0896 -0.3044
   70MOL0     H 9399   7.704   4.788   2.445 -2.7420 -0.8094 -2.9075
   70MOL0     H 9400   7.677   4.713   2.610 -1.1605  2.2513 -0.6493
   70MOL0     H 9401   7.522   4.747   2.249  1.3477 -1.0191  0.5977
   70MOL0     H 9402   7.280   4.704   2.136  1.2885 -0.6642  1.0091
   70MOL0     H 9403   7.167   4.630   2.243  1.5970 -2.5443 -3.1516
   70MOL0     H 9404   7.108   4.864   2.325  2.0445 -0.5412  0.7805
   70MOL0     H 9405   7.071   4.836   2.158 -1.3297  1.4209  1.2181
   70MOL0     H 9406   7.260   4.949   2.073 -0.4251  0.3957  0.0237
   70MOL0     H 9407   7.335   4.968   2.237 -1.3786  0.6073  0.8844
   70MOL0     H 9408   7.235   5.183   2.175 -0.2354 -0.1380 -0.9145
   70MOL0     H 9409   7.137   5.104   2.301 -3.7113  0.7095 -0.9200
   70MOL0     H 9410   6.853   5.143   1.984 -0.2467  0.2391  0.6166
   70MOL0     H 9411   6.640   5.223   1.929 -0.4074 -0.5395  2.0305
   70MOL0     H 9412   6.577   5.314   2.064  0.8468  0.4049  0.2175
   70MOL0     H 9413   6.628   5.399   1.915  1.9417  0.9455 -0.7639
   70MOL0     H 9414   6.545   5.756   2.310 -0.1644  2.1778 -0.3708
   70MOL0     H 9415   6.348   5.895   2.323 -0.0003  0.5394 -0.2589
   70MOL0     H 9416   6.139   6.011   2.320 -1.1279  0.4230 -1.0222
   70MOL0     H 9417   6.249   6.076   2.211  0.7622 -0.3501  1.8868
   70MOL0     H 9418   6.044   6.119   2.052  1.0465  1.5784 -0.2460
   70MOL0     H 9419   5.956   6.101   2.213 -0.4881  2.8668  0.7540
   70MOL0     H 9420   6.002   6.343   2.163  1.7527  3.4305  1.5730
   70MOL0     H 9421   6.164   6.293   2.116 -0.9447 -0.8397 -1.7692
   70MOL0     H 9422   6.040   6.246   2.392 -0.5827  0.8967 -0.7765
   70MOL0     H 9423   6.211   6.261   2.362  1.6077  5.3131  1.4766
   70MOL0     H 9424   6.141   6.478   2.466 -0.7998  0.4721  0.5070
   70MOL0     H 9425   6.002   6.476   2.366 -0.0297  0.1754 -2.3249
   70MOL0     H 9426   6.286   6.493   2.266 -0.4818  0.4151 -0.7029
   70MOL0     H 9427   6.150   6.522   2.169  1.2470 -3.0457 -0.3632
   70MOL0     H 9428   6.264   6.685   2.396 -1.8507 -2.2996  1.5724
   70MOL0     H 9429   6.092   6.718   2.368  1.0465 -1.7536  4.5394
   70MOL0     H 9430   6.317   6.781   2.156  1.6700  2.5446  0.7687
   70MOL0     H 9431   6.238   6.894   2.267 -1.0913 -1.3473  2.0741
   70MOL0     H 9432   6.205   5.770   1.948 -2.3655 -1.8949  1.4512
   70MOL0     H 9433   6.423   5.625   1.919  2.3099  0.7271 -0.5404
   70MOL0     H 9434   6.956   5.535   2.267 -1.2185 -0.3544  0.5199
   70MOL0     H 9435   7.117   5.342   2.244  0.3473  2.8235 -1.5644
   70MOL0     H 9436   8.656   4.148   2.837  0.8230 -1.2617  0.1330
   70MOL0     H 9437   8.853   4.033   2.732  0.7160 -2.0211 -3.0960
   70MOL0     H 9438   9.042   3.824   2.356 -2.1155  1.8177 -1.6672
   70MOL0     H 9439   9.224   3.736   2.230 -1.7547  0.5429 -1.0113
   70MOL0     H 9440   9.560   4.015   2.132  0.4760 -0.4785 -0.1753
   70MOL0     H 9441   9.596   3.893   2.016 -1.8342 -1.0156 -0.9439
   70MOL0     H 9442   9.343   4.064   1.980  0.2198  2.1686 -0.2770
   70MOL0     H 9443   9.398   3.934   1.879  1.7974 -1.0096  1.6213
   70MOL0     H 9444   9.602   4.158   1.916  2.0381 -1.3740 -2.7783
   70MOL0     H 9445   9.468   4.174   1.797  0.2342  0.4312  0.0632
   70MOL0     H 9446   9.568   3.951   1.691  0.6645 -1.3920 -0.2839
   70MOL0     H 9447   9.678   3.944   1.830  3.5163  1.3634 -1.4980
   70MOL0     H 9448   9.879   4.198   1.584  0.8278 -0.0793 -1.1992
   70MOL0     H 9449   9.391   4.135   2.221  2.0703 -1.0346  0.6488
   70MOL0     H 9450   9.210   4.217   2.353 -1.3794 -0.1586  0.1078
   71MOL0     O 9451   1.860   0.540   7.635 -0.6507  0.1113  0.0236
   71MOL0     C 9452   1.891   0.620   7.721  0.5862  0.4455 -0.2802
   71MOL0     O 9453   1.797   0.674   7.808 -0.9494 -0.4875 -0.6062
   71MOL0     C 9454   1.661   0.667   7.765 -0.8613  0.0966 -0.8239
   71MOL0     C 9455   1.565   0.620   7.855  0.5704 -0.1908 -0.2833
   71MOL0     C 9456   1.422   0.620   7.818 -0.6588  0.9612 -0.0847
   71MOL0     C 9457   1.380   0.667   7.696  0.0997  0.0475  1.2222
   71MOL0     O 9458   1.246   0.673   7.672 -0.0505  0.5794  0.6069
   71MOL0     C 9459   1.218   0.732   7.547  0.2278 -0.1426  0.1914
   71MOL0     C 9460   1.060   0.731   7.529 -0.1872  0.2270 -0.1435
   71MOL0     C 9461   0.990   0.818   7.638 -0.7304  0.5548 -0.2414
   71MOL0     C 9462   0.840   0.839   7.600  0.0124 -0.0568 -0.3282
   71MOL0     C 9463   0.770   0.923   7.702  0.3738  0.3642  0.0615
   71MOL0     C 9464   0.618   0.945   7.683 -0.4268  0.1893  0.7897
   71MOL0     C 9465   0.533   0.821   7.724 -0.0443 -0.0260 -0.5593
   71MOL0     C 9466   0.388   0.864   7.717 -0.1526  0.2376 -0.0856
   71MOL0     N 9467   0.319   0.737   7.756  0.2870 -0.2799  0.6575
   71MOL0     C 9468   0.290   0.622   7.682  0.7756 -0.3059  0.4931
   71MOL0     C 9469   0.249   0.534   7.773  0.4347  0.0273  0.0720
   71MOL0     C 9470   0.194   0.395   7.746  0.7461  0.6221 -0.4636
   71MOL0     C 9471   0.046   0.390   7.788  0.3607  1.0127  0.7565
   71MOL0     C 9472  -0.011   0.243   7.798  0.9432 -0.3459  0.0161
   71MOL0     C 9473   0.036   0.165   7.925 -0.2885  0.0670 -0.2795
   71MOL0     O 9474  -0.044   0.053   7.950 -0.9386 -0.3624  0.5206
   71MOL0     C 9475  -0.180   0.062   7.966 -0.8854  0.4969 -0.8610
   71MOL0     C 9476  -0.242   0.168   8.020  0.0747 -0.5618 -0.0390
   71MOL0     C 9477  -0.384   0.172   8.037  0.6352 -0.1166  0.2565
   71MOL0     C 9478  -0.447   0.293   8.107 -0.0501  0.0762 -0.1728
   71MOL0     C 9479  -0.457   0.057   8.007  0.0125  0.2012  0.0776
   71MOL0     C 9480  -0.608   0.053   8.025 -0.2667 -0.1542  0.6191
   71MOL0     O 9481  -0.673  -0.051   7.969 -0.0341 -1.0504  0.5715
   71MOL0     C 9482  -0.809  -0.084   8.000 -1.5678 -0.3664  0.0686
   71MOL0     C 9483  -0.871  -0.169   7.905  0.0396  0.4908 -0.6302
   71MOL0     C 9484  -1.007  -0.205   7.919 -0.5009  0.1413 -0.3886
   71MOL0     C 9485  -1.077  -0.171   8.030  0.0008 -0.5584 -0.0037
   71MOL0     O 9486  -1.203  -0.228   8.032  0.0790 -0.4276  0.1042
   71MOL0     C 9487  -1.308  -0.155   8.104  0.0796  0.7583 -0.0846
   71MOL0     C 9488  -1.437  -0.205   8.050 -0.3396  0.3962  0.4043
   71MOL0     C 9489  -1.556  -0.155   8.123  0.3593 -0.7736  0.3752
   71MOL0     C 9490  -1.688  -0.223   8.076 -0.1795  0.4734 -0.3241
   71MOL0     C 9491  -1.807  -0.179   8.159  0.8935  0.0225  0.0194
   71MOL0     C 9492  -1.937  -0.215   8.078 -0.2936 -0.2834 -0.4706
   71MOL0     C 9493  -2.063  -0.214   8.173  0.5669 -0.1843  0.0588
   71MOL0     C 9494  -2.179  -0.282   8.111 -0.4825  0.6621 -0.5524
   71MOL0    Cl 9495  -2.312  -0.253   8.228 -0.3461 -0.1489  0.0356
   71MOL0     C 9496  -1.017  -0.091   8.128 -0.1841  0.2195  0.6559
   71MOL0     C 9497  -0.882  -0.059   8.117 -0.0538 -0.4835 -0.4986
   71MOL0     O 9498  -0.662   0.128   8.104 -0.0379  0.1348  0.6866
   71MOL0     C 9499  -0.395  -0.048   7.950 -0.4271 -0.4905  1.0158
   71MOL0     C 9500  -0.259  -0.048   7.930 -0.0089 -0.8769 -0.3950
   71MOL0     N 9501   0.266   0.589   7.900 -0.0407 -0.4169  0.3809
   71MOL0     N 9502   0.300   0.710   7.890 -0.2977 -0.6360  0.6740
   71MOL0     C 9503   1.483   0.714   7.604 -0.2312 -0.0158  0.2328
   71MOL0     C 9504   1.620   0.714   7.637  0.0810 -0.3720  0.6719
   71MOL0     C 9505   2.041   0.635   7.744  0.5611 -0.3089  0.3669
   71MOL0     C 9506   2.131   0.554   7.668 -0.1423  0.5612 -0.7338
   71MOL0     C 9507   2.265   0.555   7.702 -0.0666 -0.3601  0.2666
   71MOL0     C 9508   2.314   0.650   7.794 -0.4108  0.4073 -0.2323
   71MOL0     O 9509   2.448   0.672   7.822 -0.1406  0.3704 -0.0778
   71MOL0     C 9510   2.546   0.656   7.717 -0.2648 -0.0942 -0.1055
   71MOL0     C 9511   2.693   0.683   7.771 -0.0053 -1.1174 -0.3313
   71MOL0     C 9512   2.735   0.576   7.860 -0.3940  0.2834 -0.2787
   71MOL0     C 9513   2.879   0.593   7.917 -0.2986 -0.4102 -0.2153
   71MOL0     C 9514   2.993   0.607   7.826  0.1349  0.3710  0.1124
   71MOL0     C 9515   3.092   0.597   7.754 -0.2493 -0.6510 -0.7851
   71MOL0     C 9516   2.217   0.719   7.873 -0.6114  0.9962  0.6839
   71MOL0     C 9517   2.081   0.717   7.846  0.2461 -0.2078 -0.3717
   71MOL0     H 9518   1.587   0.580   7.954 -1.8134 -0.2452  0.2731
   71MOL0     H 9519   1.350   0.585   7.891  1.2126 -1.2102  0.8319
   71MOL0     H 9520   1.246   0.837   7.544  3.4448 -0.9041  0.2017
   71MOL0     H 9521   1.265   0.681   7.462  1.0878  0.5054  0.2753
   71MOL0     H 9522   1.043   0.787   7.437  1.7871  0.1435 -0.6044
   71MOL0     H 9523   1.017   0.632   7.512  0.0388  0.0207  0.4269
   71MOL0     H 9524   0.993   0.765   7.734  0.9410  2.8160  1.0435
   71MOL0     H 9525   1.032   0.918   7.650  0.5322 -0.1499  1.7611
   71MOL0     H 9526   0.825   0.885   7.502  0.4716 -1.4609 -1.0902
   71MOL0     H 9527   0.792   0.741   7.592  1.1437 -0.4776 -2.7935
   71MOL0     H 9528   0.786   0.875   7.799  0.4570 -0.6949 -0.4609
   71MOL0     H 9529   0.818   1.021   7.698  0.7444  0.1402 -1.4396
   71MOL0     H 9530   0.594   1.037   7.737  1.2029  1.9880 -1.3454
   71MOL0     H 9531   0.602   0.967   7.577  4.3995 -0.3760 -0.2672
   71MOL0     H 9532   0.554   0.733   7.663  0.7830 -0.0111 -0.3159
   71MOL0     H 9533   0.561   0.796   7.826 -1.9278  1.0524  0.2717
   71MOL0     H 9534   0.359   0.901   7.618  1.1898  2.3006  0.2272
   71MOL0     H 9535   0.361   0.941   7.790 -1.5002  1.2893 -1.6186
   71MOL0     H 9536   0.294   0.601   7.576 -0.6610  0.0590  0.3489
   71MOL0     H 9537   0.209   0.360   7.644  0.0958 -1.8289  0.2218
   71MOL0     H 9538   0.252   0.324   7.806  2.8503  1.4605 -1.3770
   71MOL0     H 9539  -0.009   0.440   7.707 -0.0146  0.5593  0.7247
   71MOL0     H 9540   0.025   0.446   7.880  2.3031  0.6350  1.4658
   71MOL0     H 9541   0.004   0.198   7.699  1.4862  1.3613 -0.7082
   71MOL0     H 9542  -0.119   0.262   7.799  1.2217  1.4543 -0.0434
   71MOL0     H 9543   0.021   0.221   8.017 -2.6245 -2.6920  1.1985
   71MOL0     H 9544   0.141   0.134   7.914 -0.2388  0.7455 -1.9158
   71MOL0     H 9545  -0.186   0.255   8.051 -0.4468  0.3887 -1.6492
   71MOL0     H 9546  -0.473   0.275   8.212 -0.4914  1.7754  0.0353
   71MOL0     H 9547  -0.382   0.381   8.114 -0.9707  0.6442  2.3890
   71MOL0     H 9548  -0.539   0.320   8.054 -1.8592 -2.1866  1.5992
   71MOL0     H 9549  -0.817  -0.195   7.814 -0.9099 -0.6328 -0.8978
   71MOL0     H 9550  -1.047  -0.263   7.836 -1.9216  0.4297  0.0790
   71MOL0     H 9551  -1.296  -0.187   8.208 -3.2056 -0.3934  0.0630
   71MOL0     H 9552  -1.299  -0.047   8.090 -1.4972  0.8028 -0.9458
   71MOL0     H 9553  -1.444  -0.166   7.949  2.5194  2.8709  1.0171
   71MOL0     H 9554  -1.429  -0.315   8.055  2.3135  0.2822 -2.8985
   71MOL0     H 9555  -1.572  -0.047   8.107  1.5622 -0.3926  1.5319
   71MOL0     H 9556  -1.542  -0.144   8.231  0.6941 -0.3208  0.2902
   71MOL0     H 9557  -1.699  -0.205   7.969  0.4279 -2.2530 -0.9259
   71MOL0     H 9558  -1.674  -0.331   8.074  1.8339  0.7108 -1.1899
   71MOL0     H 9559  -1.803  -0.076   8.194 -0.5348 -0.3418  1.3818
   71MOL0     H 9560  -1.803  -0.234   8.254  1.7986 -1.7865 -1.0066
   71MOL0     H 9561  -1.964  -0.146   7.998  0.8785  0.3988 -0.2891
   71MOL0     H 9562  -1.922  -0.311   8.026 -1.4565 -0.3762 -0.6678
   71MOL0     H 9563  -2.091  -0.109   8.177 -2.3209 -0.9078  1.2395
   71MOL0     H 9564  -2.039  -0.261   8.269  3.8805 -0.4695 -0.7722
   71MOL0     H 9565  -2.163  -0.389   8.094 -0.9976  0.3304  0.8905
   71MOL0     H 9566  -2.201  -0.230   8.017 -0.4619  1.5001 -0.1003
   71MOL0     H 9567  -1.064  -0.062   8.221 -0.0592 -0.8093  1.0514
   71MOL0     H 9568  -0.846  -0.002   8.202 -0.5838 -1.4307  0.3993
   71MOL0     H 9569  -0.454  -0.128   7.907  1.6448 -0.5246 -2.0613
   71MOL0     H 9570  -0.218  -0.135   7.879  1.1001 -1.5302  1.5350
   71MOL0     H 9571   1.451   0.760   7.511  0.0041  1.0281  0.6561
   71MOL0     H 9572   1.678   0.751   7.553 -2.5043 -0.5976 -1.3694
   71MOL0     H 9573   2.094   0.496   7.584  2.0378  0.0125 -1.3906
   71MOL0     H 9574   2.337   0.494   7.649 -0.9200 -2.1042  1.0345
   71MOL0     H 9575   2.536   0.556   7.673 -1.6827 -0.7702  1.6504
   71MOL0     H 9576   2.515   0.730   7.642 -0.1050  0.9395  0.8339
   71MOL0     H 9577   2.687   0.776   7.828 -0.6122 -0.4357 -1.4564
   71MOL0     H 9578   2.766   0.697   7.690  0.3122 -0.6250  0.0369
   71MOL0     H 9579   2.741   0.488   7.795  2.1635 -0.6270  1.0103
   71MOL0     H 9580   2.665   0.555   7.941 -0.4485 -1.7286 -0.7938
   71MOL0     H 9581   2.896   0.508   7.984  0.4533  0.6433  0.9719
   71MOL0     H 9582   2.875   0.683   7.979  3.1341 -1.4395  1.7587
   71MOL0     H 9583   3.185   0.592   7.701 -0.0800  2.3593 -0.9018
   71MOL0     H 9584   2.247   0.772   7.963  1.6560 -0.6280  0.9704
   71MOL0     H 9585   2.009   0.770   7.907 -0.2583  0.5008 -1.5355
   72MOL0     O 9586   3.085   9.192   5.429 -0.0478 -1.0037 -0.2636
   72MOL0     C 9587   3.210   9.202   5.437  0.0400 -0.0619  0.3675
   72MOL0     O 9588   3.283   9.316   5.422 -0.3933  0.1866  0.2755
   72MOL0     C 9589   3.212   9.421   5.372 -0.0016  0.5010  0.2943
   72MOL0     C 9590   3.261   9.470   5.252  0.3018  0.1086  0.4944
   72MOL0     C 9591   3.203   9.585   5.195 -0.0585 -0.0183  0.1036
   72MOL0     C 9592   3.089   9.642   5.254 -0.2222 -0.0729 -0.4386
   72MOL0     O 9593   3.038   9.764   5.205 -0.0278 -0.5585 -0.3653
   72MOL0     C 9594   2.895   9.768   5.204  0.7194  0.5308 -1.4536
   72MOL0     C 9595   2.860   9.891   5.129 -0.4432 -0.2297 -0.2165
   72MOL0     C 9596   2.710   9.892   5.099 -0.6767  0.2928 -0.9675
   72MOL0     C 9597   2.655  10.029   5.053  0.3683 -0.0925 -0.1689
   72MOL0     C 9598   2.510  10.033   5.034 -0.9729 -0.8238 -0.5428
   72MOL0     C 9599   2.432  10.014   5.168 -0.1467 -0.5927 -0.8150
   72MOL0     C 9600   2.276  10.041   5.152 -0.0045  1.0471 -0.8880
   72MOL0     C 9601   2.198   9.953   5.052  0.2865 -1.0952 -0.1250
   72MOL0     N 9602   2.057   9.953   5.071  0.4233  0.0643  0.2601
   72MOL0     C 9603   1.984   9.869   5.150  0.7818  0.6667 -0.4585
   72MOL0     C 9604   1.852   9.908   5.143  0.2287 -0.3380 -0.6568
   72MOL0     C 9605   1.733   9.841   5.216 -0.4928 -0.1978 -0.3149
   72MOL0     C 9606   1.683   9.713   5.145 -0.3983 -0.5421 -0.3605
   72MOL0     C 9607   1.595   9.772   5.024  0.4259  1.1409  0.5598
   72MOL0     C 9608   1.447   9.747   5.050  0.2353 -0.3972  0.0093
   72MOL0     O 9609   1.421   9.605   5.024  0.1533 -0.1369  0.0982
   72MOL0     C 9610   1.294   9.557   5.047 -0.5709 -0.0436  0.3229
   72MOL0     C 9611   1.262   9.434   4.991 -0.0046 -0.3180  0.8999
   72MOL0     C 9612   1.137   9.375   4.997  0.5074  0.0299 -0.3993
   72MOL0     C 9613   1.116   9.233   4.945 -0.2473  0.5636 -0.1019
   72MOL0     C 9614   1.036   9.446   5.066  0.2180 -0.0836 -0.7803
   72MOL0     C 9615   0.892   9.397   5.080 -0.1539 -0.3360 -0.2771
   72MOL0     O 9616   0.834   9.449   5.192  0.1632  0.4299  0.0634
   72MOL0     C 9617   0.696   9.435   5.209 -0.1777  0.6094 -0.3754
   72MOL0     C 9618   0.629   9.541   5.266  0.0738  0.0533 -0.6038
   72MOL0     C 9619   0.488   9.545   5.290 -0.9822 -0.9799 -0.4680
   72MOL0     C 9620   0.421   9.424   5.292  0.0062  1.1246  0.2751
   72MOL0     O 9621   0.299   9.427   5.350 -0.8773 -0.4506 -0.8149
   72MOL0     C 9622   0.218   9.315   5.326 -0.0901 -0.5702  0.8029
   72MOL0     C 9623   0.100   9.338   5.413  0.6478  0.1859 -0.4626
   72MOL0     C 9624  -0.018   9.248   5.371  0.4913 -0.0066 -0.4757
   72MOL0     C 9625  -0.110   9.235   5.496 -0.1180 -0.9860  0.3107
   72MOL0     C 9626  -0.233   9.143   5.462 -0.4368 -0.4149 -0.8778
   72MOL0     C 9627  -0.319   9.202   5.354  0.2881 -0.3734 -0.5523
   72MOL0     C 9628  -0.440   9.118   5.341  0.0341 -0.4974 -0.0850
   72MOL0     C 9629  -0.560   9.195   5.269 -0.4901  0.1689 -0.1320
   72MOL0    Cl 9630  -0.516   9.279   5.112 -0.4654 -0.0187 -0.0106
   72MOL0     C 9631   0.489   9.310   5.238  0.7619  0.1664  0.0104
   72MOL0     C 9632   0.624   9.311   5.203  0.8897 -0.4938  0.6697
   72MOL0     O 9633   0.840   9.311   5.011 -0.1328  0.5637  0.0049
   72MOL0     C 9634   1.063   9.577   5.114 -0.8229  0.1804 -0.8973
   72MOL0     C 9635   1.189   9.629   5.099 -0.2555  0.2948 -0.3249
   72MOL0     N 9636   1.847  10.022   5.065  0.7255 -0.7737 -0.1543
   72MOL0     N 9637   1.968  10.041   5.014  0.2923  0.4568  0.2754
   72MOL0     C 9638   3.048   9.595   5.379  0.1617 -0.3833  0.5009
   72MOL0     C 9639   3.108   9.488   5.435 -0.0266  0.0120 -0.1782
   72MOL0     C 9640   3.284   9.080   5.451 -0.3847 -0.6124 -0.9504
   72MOL0     C 9641   3.424   9.091   5.453 -0.1491  0.1584 -1.0883
   72MOL0     C 9642   3.501   8.971   5.459 -0.2968  0.0989 -0.0284
   72MOL0     C 9643   3.439   8.847   5.479 -0.9069  0.3726 -0.4134
   72MOL0     O 9644   3.501   8.728   5.501 -0.5334  0.1420 -0.5539
   72MOL0     C 9645   3.637   8.727   5.545 -0.0151  0.0040  0.2065
   72MOL0     C 9646   3.725   8.703   5.422 -0.0464  0.1034 -0.6978
   72MOL0     C 9647   3.700   8.574   5.348  0.6713  0.1944  0.0367
   72MOL0     C 9648   3.799   8.541   5.234  0.0185  0.5760 -0.5122
   72MOL0     C 9649   3.926   8.522   5.294 -0.4015  0.0779 -0.2314
   72MOL0     C 9650   4.038   8.514   5.339  0.2672 -0.3123  0.0959
   72MOL0     C 9651   3.302   8.838   5.476  0.1795 -0.2073  0.4226
   72MOL0     C 9652   3.225   8.956   5.472  0.3180 -0.1807  0.3490
   72MOL0     H 9653   3.343   9.430   5.194 -1.9031  0.7414 -3.4486
   72MOL0     H 9654   3.233   9.629   5.100 -0.0916 -0.3449 -0.0593
   72MOL0     H 9655   2.856   9.681   5.151 -0.0425 -0.4794  0.6488
   72MOL0     H 9656   2.856   9.775   5.306  2.1298  2.2946 -0.9834
   72MOL0     H 9657   2.894   9.979   5.184  3.0455 -2.3558  1.3293
   72MOL0     H 9658   2.898   9.889   5.026  1.4590  3.4152  0.2683
   72MOL0     H 9659   2.697   9.815   5.023 -0.1056 -0.7228 -0.0751
   72MOL0     H 9660   2.657   9.857   5.188 -1.7343 -0.9210 -2.0338
   72MOL0     H 9661   2.693  10.106   5.120 -0.3655  1.0322 -0.9994
   72MOL0     H 9662   2.713  10.044   4.961  2.7457 -0.3678  1.2207
   72MOL0     H 9663   2.477  10.132   5.001  0.8076 -0.1939 -0.5368
   72MOL0     H 9664   2.484   9.955   4.963  1.3775 -2.8800  0.6905
   72MOL0     H 9665   2.446   9.921   5.225  0.3486  0.6218  1.1553
   72MOL0     H 9666   2.469  10.100   5.225  0.8212 -0.9293 -0.9224
   72MOL0     H 9667   2.225  10.018   5.246 -0.1637  0.1592 -1.1800
   72MOL0     H 9668   2.261  10.149   5.141  2.4165  1.5680  0.1611
   72MOL0     H 9669   2.238   9.851   5.050  2.8822 -0.1289 -0.3937
   72MOL0     H 9670   2.210   9.998   4.954 -0.0183  1.1111  0.7920
   72MOL0     H 9671   2.020   9.791   5.217 -0.5785  0.9060  0.5957
   72MOL0     H 9672   1.788   9.814   5.307  2.3670 -0.5700 -2.0182
   72MOL0     H 9673   1.656   9.915   5.237  0.0147 -0.4215  2.8465
   72MOL0     H 9674   1.629   9.651   5.217 -0.3783  0.4570  0.5358
   72MOL0     H 9675   1.763   9.647   5.111  0.3664 -0.1889  0.6990
   72MOL0     H 9676   1.618   9.729   4.926 -0.7417  3.3307 -0.7574
   72MOL0     H 9677   1.618   9.878   5.007  0.3523  1.4917  2.4385
   72MOL0     H 9678   1.386   9.814   4.988 -0.9933 -1.7083 -0.2408
   72MOL0     H 9679   1.421   9.775   5.152  0.2790  1.8913 -0.5429
   72MOL0     H 9680   1.353   9.396   4.945  0.4392  2.0127 -0.2630
   72MOL0     H 9681   1.058   9.238   4.852 -1.3930 -1.0608  0.4719
   72MOL0     H 9682   1.210   9.185   4.917 -0.7217  1.1188 -3.0665
   72MOL0     H 9683   1.060   9.164   5.008  3.4812 -2.0010  0.6879
   72MOL0     H 9684   0.681   9.636   5.279 -0.7405  0.4782 -0.3741
   72MOL0     H 9685   0.448   9.644   5.310 -0.7169 -0.8063 -0.7825
   72MOL0     H 9686   0.195   9.311   5.219  1.5089 -0.8575  0.4290
   72MOL0     H 9687   0.260   9.220   5.360  2.0523 -0.0651 -0.2450
   72MOL0     H 9688   0.119   9.316   5.519 -0.9637 -1.1996 -0.4240
   72MOL0     H 9689   0.059   9.438   5.397 -1.4836 -0.3718  1.0025
   72MOL0     H 9690   0.000   9.149   5.330  0.1720 -0.6311  0.8309
   72MOL0     H 9691  -0.068   9.301   5.290  0.2277  1.8528  0.8171
   72MOL0     H 9692  -0.054   9.200   5.584  0.9329  2.6551  1.2681
   72MOL0     H 9693  -0.144   9.336   5.523 -0.1679 -0.8101 -0.4066
   72MOL0     H 9694  -0.289   9.140   5.556  1.8266  1.1626  0.6324
   72MOL0     H 9695  -0.194   9.046   5.431  1.7197  0.8892 -2.4979
   72MOL0     H 9696  -0.350   9.304   5.379  0.0732  0.1980 -2.8643
   72MOL0     H 9697  -0.270   9.199   5.256 -0.5564 -2.3445 -0.9472
   72MOL0     H 9698  -0.473   9.085   5.440  1.6620 -1.0650  0.2948
   72MOL0     H 9699  -0.424   9.036   5.271  0.0639  0.4079 -1.1807
   72MOL0     H 9700  -0.592   9.261   5.351  2.0252 -1.2672  2.1875
   72MOL0     H 9701  -0.640   9.123   5.250 -0.7718  0.2143  0.8229
   72MOL0     H 9702   0.436   9.218   5.217 -1.0925  1.9596 -4.6425
   72MOL0     H 9703   0.669   9.229   5.148 -0.2051 -0.7528  0.1504
   72MOL0     H 9704   0.987   9.635   5.165  1.0862 -0.5898  3.3097
   72MOL0     H 9705   1.210   9.728   5.138 -1.0578  0.6364 -0.7381
   72MOL0     H 9706   2.978   9.660   5.430  0.2560 -0.2384  0.4488
   72MOL0     H 9707   3.080   9.450   5.533 -1.3078 -1.8185 -1.1980
   72MOL0     H 9708   3.487   9.179   5.444 -0.5763  0.4571 -1.1832
   72MOL0     H 9709   3.607   8.972   5.479 -0.5641 -1.5973  1.7664
   72MOL0     H 9710   3.657   8.816   5.605 -0.0668 -2.0511  3.5961
   72MOL0     H 9711   3.645   8.634   5.603 -0.9840 -0.9095 -1.0508
   72MOL0     H 9712   3.827   8.711   5.461 -0.7554  0.4778  1.1786
   72MOL0     H 9713   3.703   8.775   5.342 -0.2898 -0.5540 -1.2341
   72MOL0     H 9714   3.598   8.575   5.310  1.1980 -1.5799 -1.6414
   72MOL0     H 9715   3.702   8.490   5.418  1.8602 -2.3651 -2.8093
   72MOL0     H 9716   3.813   8.623   5.163 -1.0457  2.7726  1.6698
   72MOL0     H 9717   3.771   8.451   5.178 -3.2236  0.6296  0.8547
   72MOL0     H 9718   4.130   8.480   5.382 -1.1187 -1.3631  2.4066
   72MOL0     H 9719   3.259   8.738   5.471  1.1391 -0.6906 -5.7270
   72MOL0     H 9720   3.119   8.952   5.450  0.7533  0.9940 -2.2378
   73MOL0     O 9721   3.201   8.770   3.245 -0.2015 -0.4968 -0.0338
   73MOL0     C 9722   3.221   8.842   3.343 -0.1248  0.5836  0.7693
   73MOL0     O 9723   3.125   8.900   3.422 -0.9872  0.4120  0.3528
   73MOL0     C 9724   2.991   8.879   3.402  0.5122  0.3651 -0.9010
   73MOL0     C 9725   2.917   8.804   3.494 -0.3515  0.7351 -0.4797
   73MOL0     C 9726   2.781   8.792   3.478  0.0197  0.3484 -0.2226
   73MOL0     C 9727   2.715   8.855   3.368 -0.5950  0.0591 -0.5494
   73MOL0     O 9728   2.581   8.852   3.346  0.5164  0.1951 -0.0818
   73MOL0     C 9729   2.491   8.814   3.454  0.3174 -0.6210  0.3777
   73MOL0     C 9730   2.330   8.833   3.425 -0.4416 -0.4300  0.9355
   73MOL0     C 9731   2.288   8.729   3.322 -0.1171  0.0917  0.0863
   73MOL0     C 9732   2.150   8.751   3.265  0.1884  0.4739 -0.0454
   73MOL0     C 9733   2.126   8.652   3.150  0.4941 -0.2474  0.2569
   73MOL0     C 9734   1.978   8.671   3.106 -0.3246 -0.2260 -0.8777
   73MOL0     C 9735   1.934   8.599   2.981 -0.0601 -0.3433 -0.6076
   73MOL0     C 9736   1.783   8.611   2.971  0.1459 -0.4055  0.1267
   73MOL0     N 9737   1.713   8.582   2.851 -0.0857 -1.4106  0.4751
   73MOL0     C 9738   1.758   8.486   2.761 -0.0738 -0.6752 -0.8332
   73MOL0     C 9739   1.645   8.449   2.701 -0.0043  0.6905 -0.9017
   73MOL0     C 9740   1.639   8.337   2.601 -1.0522  0.1015  0.4154
   73MOL0     C 9741   1.597   8.390   2.466 -0.2417 -1.0318 -0.1633
   73MOL0     C 9742   1.558   8.269   2.377 -1.0517 -0.1425  0.1284
   73MOL0     C 9743   1.540   8.316   2.240  0.5507  0.3056  0.0414
   73MOL0     O 9744   1.556   8.205   2.150 -0.4251 -0.2480 -0.7013
   73MOL0     C 9745   1.450   8.122   2.121 -0.0071 -0.5264  0.5833
   73MOL0     C 9746   1.473   8.022   2.021  0.8692 -0.6170 -0.2976
   73MOL0     C 9747   1.368   7.946   1.970  0.8564 -0.1076 -0.3118
   73MOL0     C 9748   1.409   7.845   1.864  0.1163  0.1450  1.0648
   73MOL0     C 9749   1.234   7.966   2.020 -0.0827 -0.4924  0.1979
   73MOL0     C 9750   1.116   7.896   1.958 -0.0143 -0.2390 -0.1743
   73MOL0     O 9751   1.001   7.963   1.975  0.0471 -0.5029  0.1231
   73MOL0     C 9752   0.886   7.913   1.932  0.0670  0.2936 -0.1743
   73MOL0     C 9753   0.792   7.904   2.034  0.6393  0.2202  0.2040
   73MOL0     C 9754   0.660   7.866   2.010 -0.3308  0.1065  0.3717
   73MOL0     C 9755   0.621   7.830   1.884  0.5465 -0.4295  1.0101
   73MOL0     O 9756   0.489   7.791   1.859 -0.4891  0.1043 -1.1794
   73MOL0     C 9757   0.422   7.868   1.757  0.0263  0.0018 -0.5644
   73MOL0     C 9758   0.277   7.825   1.772 -0.5153  0.3095 -0.0128
   73MOL0     C 9759   0.194   7.896   1.664  0.0113 -0.1761  0.7615
   73MOL0     C 9760   0.047   7.865   1.680 -0.7689  0.5534 -0.0249
   73MOL0     C 9761  -0.038   7.908   1.571 -0.3586  0.5138 -0.4013
   73MOL0     C 9762  -0.189   7.909   1.619 -0.5317 -0.0156 -0.1651
   73MOL0     C 9763  -0.275   7.929   1.503  0.4549  0.2877 -0.0847
   73MOL0     C 9764  -0.422   7.937   1.547 -0.5613  0.0094  0.4402
   73MOL0    Cl 9765  -0.468   8.104   1.606 -0.1415  0.3034 -0.1725
   73MOL0     C 9766   0.713   7.835   1.785 -0.6119  0.5344  0.0173
   73MOL0     C 9767   0.849   7.868   1.806 -1.0442 -0.0399  0.3993
   73MOL0     O 9768   1.130   7.778   1.916  0.2036 -0.5473  0.4854
   73MOL0     C 9769   1.216   8.066   2.116  0.2003  0.1688 -0.1731
   73MOL0     C 9770   1.316   8.148   2.161  0.3162 -0.5604  0.4392
   73MOL0     N 9771   1.536   8.517   2.756 -0.3680  0.4812  0.0646
   73MOL0     N 9772   1.579   8.600   2.842  0.3487 -0.0300 -0.7353
   73MOL0     C 9773   2.792   8.926   3.276  1.0937 -0.6108  0.5269
   73MOL0     C 9774   2.927   8.944   3.295  0.1388 -0.1417  0.1969
   73MOL0     C 9775   3.365   8.852   3.391 -0.7595  0.9269  0.3595
   73MOL0     C 9776   3.401   8.948   3.485  0.1668  0.0742  0.4813
   73MOL0     C 9777   3.542   8.972   3.515 -0.5916 -0.1834  1.2553
   73MOL0     C 9778   3.637   8.899   3.444 -0.7636  1.0254 -0.3474
   73MOL0     O 9779   3.768   8.946   3.457 -0.4059 -0.1933 -0.2441
   73MOL0     C 9780   3.809   9.071   3.399 -0.5093  0.0654 -0.0219
   73MOL0     C 9781   3.926   9.029   3.296 -0.0833 -0.2570 -0.0954
   73MOL0     C 9782   4.012   8.920   3.349 -1.0111 -0.2117  0.2273
   73MOL0     C 9783   4.156   8.929   3.280 -0.1395  0.2913  0.3198
   73MOL0     C 9784   4.238   8.830   3.348 -0.4993  0.1633 -0.6599
   73MOL0     C 9785   4.315   8.758   3.409  0.1057  0.1842  0.5418
   73MOL0     C 9786   3.605   8.804   3.350  0.2385 -1.0085 -0.0494
   73MOL0     C 9787   3.472   8.774   3.329  0.0689 -0.2342  0.1198
   73MOL0     H 9788   2.968   8.760   3.579  1.0858  2.9090 -0.1208
   73MOL0     H 9789   2.723   8.747   3.557  2.4293  0.3577  1.6887
   73MOL0     H 9790   2.521   8.714   3.485  0.7206 -0.7756 -0.4886
   73MOL0     H 9791   2.509   8.887   3.534 -0.7587  1.3077 -1.0539
   73MOL0     H 9792   2.266   8.823   3.514 -1.2558 -0.0535  0.4078
   73MOL0     H 9793   2.319   8.929   3.374 -1.9583 -0.5445  1.0078
   73MOL0     H 9794   2.368   8.738   3.248  1.2230 -1.7720  1.2323
   73MOL0     H 9795   2.304   8.627   3.357 -1.5313 -0.1387  0.1197
   73MOL0     H 9796   2.076   8.742   3.344 -0.4179 -1.4427 -0.7720
   73MOL0     H 9797   2.151   8.857   3.236 -0.4608  1.9513  4.5432
   73MOL0     H 9798   2.198   8.672   3.071  0.4152 -0.2878  0.1742
   73MOL0     H 9799   2.133   8.552   3.193 -1.8247 -0.0105  1.3285
   73MOL0     H 9800   1.920   8.642   3.194  4.7196 -0.7101  2.7555
   73MOL0     H 9801   1.962   8.776   3.081 -1.5412 -0.3737 -0.7555
   73MOL0     H 9802   1.982   8.649   2.896  0.7752 -0.0884  0.0030
   73MOL0     H 9803   1.969   8.495   2.979  2.7992  0.5362 -0.1256
   73MOL0     H 9804   1.757   8.716   2.986 -1.7412 -1.0231  1.6403
   73MOL0     H 9805   1.732   8.554   3.049  1.1046  0.0170  1.0813
   73MOL0     H 9806   1.851   8.433   2.744 -0.1938 -1.4054  0.6020
   73MOL0     H 9807   1.734   8.285   2.586 -1.5024 -0.2035 -1.6382
   73MOL0     H 9808   1.573   8.257   2.634 -1.0886 -1.2638 -2.6306
   73MOL0     H 9809   1.678   8.453   2.429  0.0819 -2.3386 -1.7612
   73MOL0     H 9810   1.514   8.461   2.479  1.9519  1.5538  0.6180
   73MOL0     H 9811   1.473   8.215   2.421 -2.0640  0.2614 -1.2644
   73MOL0     H 9812   1.643   8.199   2.380 -1.2122 -0.3679 -0.3749
   73MOL0     H 9813   1.612   8.395   2.213  0.4747  0.3533 -0.0244
   73MOL0     H 9814   1.446   8.368   2.221  0.3450 -0.8181 -2.3630
   73MOL0     H 9815   1.576   8.015   1.987 -0.2405 -2.7009 -3.6137
   73MOL0     H 9816   1.513   7.813   1.874 -0.2672 -1.1077  1.2523
   73MOL0     H 9817   1.354   7.751   1.878  2.3562 -1.3906  0.2167
   73MOL0     H 9818   1.393   7.885   1.764  0.7595 -0.9962  0.4857
   73MOL0     H 9819   0.814   7.911   2.140 -0.7653 -1.9377  0.6859
   73MOL0     H 9820   0.579   7.880   2.080 -2.7537 -0.6124 -2.0954
   73MOL0     H 9821   0.426   7.970   1.796 -0.3771 -0.7926  1.7174
   73MOL0     H 9822   0.468   7.855   1.659  1.3272  0.5687 -0.0504
   73MOL0     H 9823   0.274   7.717   1.756  0.1424  0.2346  0.3448
   73MOL0     H 9824   0.243   7.837   1.876 -0.1711 -3.6321  0.7191
   73MOL0     H 9825   0.222   7.852   1.568 -2.3525  0.9397 -0.5275
   73MOL0     H 9826   0.204   8.005   1.656  0.0424 -0.0722  1.9717
   73MOL0     H 9827   0.028   7.757   1.685 -2.4962  0.8276 -0.0486
   73MOL0     H 9828   0.015   7.905   1.777 -0.6071  1.5223 -0.3619
   73MOL0     H 9829  -0.020   7.844   1.485  0.9550  0.2305  0.0692
   73MOL0     H 9830  -0.010   8.009   1.541  1.7559  0.1511  0.2231
   73MOL0     H 9831  -0.210   7.813   1.668 -0.0909 -0.4888 -0.8758
   73MOL0     H 9832  -0.207   7.992   1.687  0.4438  0.0232  0.0644
   73MOL0     H 9833  -0.257   7.843   1.437  2.0872 -0.4164  1.2049
   73MOL0     H 9834  -0.251   8.017   1.443  0.8676  1.5616  1.8576
   73MOL0     H 9835  -0.453   7.857   1.614 -0.6247 -0.5221 -0.2152
   73MOL0     H 9836  -0.475   7.914   1.454 -1.6347 -1.4899  1.3833
   73MOL0     H 9837   0.686   7.808   1.684  0.1872 -1.4356  0.2869
   73MOL0     H 9838   0.929   7.865   1.732  1.3017  1.7369  2.6654
   73MOL0     H 9839   1.113   8.087   2.142  1.0315  2.1315  1.8523
   73MOL0     H 9840   1.288   8.228   2.228  2.2136  0.4932  0.0506
   73MOL0     H 9841   2.732   8.969   3.196  0.5301  0.6950  1.6118
   73MOL0     H 9842   2.985   9.008   3.230 -1.7983  1.2941 -0.2011
   73MOL0     H 9843   3.325   9.014   3.526  0.8791 -0.9182  3.6699
   73MOL0     H 9844   3.571   9.059   3.573  2.4511  1.6482 -2.5132
   73MOL0     H 9845   3.736   9.127   3.340  2.4910  1.5023 -2.6122
   73MOL0     H 9846   3.846   9.136   3.479  1.1216 -1.1636  0.2875
   73MOL0     H 9847   3.979   9.124   3.284  0.9583 -0.8990 -0.6213
   73MOL0     H 9848   3.887   8.997   3.199 -0.9062 -0.1980  0.2071
   73MOL0     H 9849   3.971   8.820   3.331 -0.3261 -0.5265  0.4139
   73MOL0     H 9850   4.020   8.935   3.457  0.1387  1.8696 -0.0865
   73MOL0     H 9851   4.198   9.027   3.304  1.4307 -0.3014  0.0579
   73MOL0     H 9852   4.158   8.903   3.173  2.8591  1.8980 -0.1318
   73MOL0     H 9853   4.391   8.693   3.447 -1.0377 -1.1184  0.6706
   73MOL0     H 9854   3.677   8.755   3.286 -2.0821 -5.3030  0.2432
   73MOL0     H 9855   3.464   8.705   3.246  0.3909  0.5357 -0.5646
   74MOL0     O 9856  10.542   0.325   0.397 -0.4890  0.3477  0.1474
   74MOL0     C 9857  10.553   0.204   0.404  0.3635  0.0518  0.1076
   74MOL0     O 9858  10.446   0.123   0.443 -1.0878 -0.0632  0.2418
   74MOL0     C 9859  10.332   0.177   0.497 -0.6294  0.8532 -0.9090
   74MOL0     C 9860  10.333   0.275   0.594 -0.1843 -0.2127  0.1621
   74MOL0     C 9861  10.219   0.319   0.658  0.4923  0.9612 -0.2763
   74MOL0     C 9862  10.095   0.266   0.623  0.2201 -0.5319  0.7733
   74MOL0     O 9863   9.979   0.324   0.675 -0.6474  0.5729  0.8993
   74MOL0     C 9864   9.869   0.361   0.585 -0.3650 -1.0092  0.1761
   74MOL0     C 9865   9.793   0.484   0.645 -0.2719 -0.2209 -1.2346
   74MOL0     C 9866   9.663   0.523   0.577  0.1842  0.2823  0.2335
   74MOL0     C 9867   9.560   0.570   0.681  0.3001  0.0587  0.5768
   74MOL0     C 9868   9.424   0.601   0.633 -0.9131 -0.1864  0.3046
   74MOL0     C 9869   9.323   0.626   0.748 -0.2462 -0.0525  0.0400
   74MOL0     C 9870   9.194   0.683   0.686 -0.9559 -0.0825 -0.7909
   74MOL0     C 9871   9.126   0.782   0.773 -0.2031  0.4847  0.4066
   74MOL0     N 9872   9.000   0.831   0.718  0.2071 -0.2065  0.1696
   74MOL0     C 9873   8.873   0.781   0.726 -0.1003 -0.7927 -0.2887
   74MOL0     C 9874   8.800   0.867   0.644  0.9018 -0.9459 -0.7093
   74MOL0     C 9875   8.655   0.857   0.623  1.1922 -0.7870 -1.2543
   74MOL0     C 9876   8.562   0.953   0.701 -0.6400 -0.2140  0.4281
   74MOL0     C 9877   8.576   1.112   0.675  0.5024  0.2840  0.8804
   74MOL0     C 9878   8.582   1.155   0.525 -0.5893 -0.7426  0.1833
   74MOL0     O 9879   8.622   1.301   0.532  0.2441 -0.4590  0.2189
   74MOL0     C 9880   8.530   1.397   0.573 -0.1738  0.1782 -0.5793
   74MOL0     C 9881   8.387   1.373   0.584  0.4627  0.2542 -0.0607
   74MOL0     C 9882   8.297   1.478   0.611  0.0031 -1.1343  0.3044
   74MOL0     C 9883   8.147   1.454   0.608 -0.0344 -0.6294 -0.0849
   74MOL0     C 9884   8.351   1.608   0.646 -0.4367 -0.5581 -0.3173
   74MOL0     C 9885   8.262   1.722   0.691 -0.2966  0.3911  0.8370
   74MOL0     O 9886   8.136   1.702   0.735  0.0774  0.0109  0.3966
   74MOL0     C 9887   8.034   1.791   0.719  0.7217  0.2179 -1.1293
   74MOL0     C 9888   8.040   1.879   0.605 -0.3938 -0.6607 -0.6582
   74MOL0     C 9889   7.922   1.945   0.569  0.1548 -0.8484 -0.1117
   74MOL0     C 9890   7.795   1.919   0.636  0.1397 -0.7297  0.1535
   74MOL0     O 9891   7.679   1.978   0.596  0.7657 -0.0905  0.7214
   74MOL0     C 9892   7.667   2.007   0.459  0.0251  0.0449  0.7490
   74MOL0     C 9893   7.535   2.072   0.433  0.2345 -0.7139 -0.4046
   74MOL0     C 9894   7.504   2.049   0.289 -0.5531 -0.0680  0.2771
   74MOL0     C 9895   7.368   2.098   0.256  0.2741 -0.0119  1.0731
   74MOL0     C 9896   7.256   1.996   0.291 -0.6709  0.2429  0.4511
   74MOL0     C 9897   7.121   2.049   0.245  0.4889 -0.7065  0.0448
   74MOL0     C 9898   7.004   1.954   0.289 -0.9295 -0.8139  0.4314
   74MOL0     C 9899   6.989   1.830   0.193  0.1734  0.0927  0.9816
   74MOL0    Cl 9900   6.851   1.729   0.239 -0.0229  0.0211 -0.2226
   74MOL0     C 9901   7.801   1.830   0.743 -0.3727 -0.1946 -0.2541
   74MOL0     C 9902   7.916   1.769   0.797 -0.7159 -0.7733 -0.0591
   74MOL0     O 9903   8.307   1.839   0.687 -0.0811  0.2670 -0.0243
   74MOL0     C 9904   8.491   1.624   0.644 -0.0353 -0.0080 -0.3902
   74MOL0     C 9905   8.573   1.523   0.600 -0.1481  0.2261 -0.0841
   74MOL0     N 9906   8.882   0.968   0.596 -0.5921 -0.5134 -0.4152
   74MOL0     N 9907   9.003   0.939   0.631  0.0552  1.3849  0.6094
   74MOL0     C 9908  10.090   0.178   0.510  0.5688  0.6463  0.0110
   74MOL0     C 9909  10.211   0.129   0.452  0.7610  0.0274 -0.0364
   74MOL0     C 9910  10.682   0.145   0.382 -0.4600 -0.4312  1.0968
   74MOL0     C 9911  10.705   0.003   0.372 -0.1673  0.0369  0.4976
   74MOL0     C 9912  10.835  -0.042   0.345 -0.0668 -1.0959 -0.4599
   74MOL0     C 9913  10.937   0.049   0.319 -0.0665  0.9244  0.1470
   74MOL0     O 9914  11.067  -0.005   0.300  0.2598 -0.5189 -0.0312
   74MOL0     C 9915  11.151   0.051   0.199 -0.0257 -0.2141 -0.0961
   74MOL0     C 9916  11.215  -0.063   0.125  0.3334 -0.6815  0.4186
   74MOL0     C 9917  11.109  -0.167   0.070  0.0485 -0.5263  0.0021
   74MOL0     C 9918  11.017  -0.091  -0.031 -0.5091  0.3011  0.3906
   74MOL0     C 9919  10.901  -0.175  -0.055  0.0380 -0.1710 -0.3090
   74MOL0     C 9920  10.795  -0.230  -0.083 -0.6770  0.2182  0.2313
   74MOL0     C 9921  10.916   0.183   0.326 -0.4070 -0.1208 -0.4952
   74MOL0     C 9922  10.789   0.235   0.359  0.0704  0.6970 -0.0746
   74MOL0     H 9923  10.423   0.324   0.628 -1.2028  1.4485  0.5760
   74MOL0     H 9924  10.227   0.405   0.724 -0.5313 -0.2415  1.5261
   74MOL0     H 9925   9.902   0.400   0.488  0.0867 -1.6834  0.0459
   74MOL0     H 9926   9.792   0.284   0.573 -2.5225  0.4148  3.3819
   74MOL0     H 9927   9.768   0.447   0.744 -0.4991  2.4004 -0.2426
   74MOL0     H 9928   9.859   0.569   0.662  0.9329 -1.3402 -0.0729
   74MOL0     H 9929   9.677   0.601   0.501 -2.8106  1.1780  0.4795
   74MOL0     H 9930   9.618   0.437   0.525 -0.1199 -0.1834  1.2546
   74MOL0     H 9931   9.555   0.484   0.748  0.1407 -0.1270  0.3318
   74MOL0     H 9932   9.603   0.649   0.742  1.6514 -2.1889  2.7044
   74MOL0     H 9933   9.417   0.665   0.545  1.1920 -2.5005 -1.7161
   74MOL0     H 9934   9.395   0.503   0.595 -1.6371 -1.0274  2.8082
   74MOL0     H 9935   9.301   0.535   0.804  1.3157  0.4216  1.5243
   74MOL0     H 9936   9.373   0.683   0.827  2.3076 -1.3778 -0.4976
   74MOL0     H 9937   9.227   0.723   0.590  2.9311 -3.4705 -1.1458
   74MOL0     H 9938   9.123   0.603   0.663 -1.4759 -0.8678  2.8384
   74MOL0     H 9939   9.196   0.859   0.806 -0.5964  1.1003 -0.1929
   74MOL0     H 9940   9.097   0.726   0.863 -2.8857  0.3185 -0.4645
   74MOL0     H 9941   8.832   0.702   0.787 -0.2046 -1.6507 -1.4252
   74MOL0     H 9942   8.651   0.876   0.515  0.5302  2.5438 -0.7411
   74MOL0     H 9943   8.621   0.758   0.654 -0.8179 -0.2188 -1.5398
   74MOL0     H 9944   8.579   0.950   0.809 -1.3947  1.3562  0.6236
   74MOL0     H 9945   8.460   0.930   0.671 -0.8485  1.1867 -0.0380
   74MOL0     H 9946   8.667   1.146   0.725  1.1364 -0.3479  0.1691
   74MOL0     H 9947   8.496   1.166   0.727 -0.4529 -1.0973  0.8764
   74MOL0     H 9948   8.490   1.140   0.468 -0.1386  2.4952 -1.6644
   74MOL0     H 9949   8.664   1.102   0.475 -0.5374 -2.2149  1.7293
   74MOL0     H 9950   8.336   1.280   0.558 -1.7033  1.3715  0.0016
   74MOL0     H 9951   8.123   1.366   0.548  1.3427 -3.0163  2.5998
   74MOL0     H 9952   8.092   1.436   0.700 -3.8328 -0.9180 -2.2210
   74MOL0     H 9953   8.097   1.542   0.567 -0.9200 -0.2344  1.7667
   74MOL0     H 9954   8.131   1.891   0.548  0.5098 -0.4576  0.7703
   74MOL0     H 9955   7.940   2.025   0.498  2.0847 -0.1095  1.1531
   74MOL0     H 9956   7.748   2.059   0.406 -0.1864 -0.1478  0.2201
   74MOL0     H 9957   7.668   1.914   0.401 -1.9473  0.9313 -0.8482
   74MOL0     H 9958   7.462   2.024   0.499  1.3942 -1.8499  0.0851
   74MOL0     H 9959   7.535   2.178   0.459 -0.7291 -0.5698 -0.9109
   74MOL0     H 9960   7.523   1.947   0.253 -1.3492  0.7760 -2.9061
   74MOL0     H 9961   7.575   2.107   0.230  1.1560  1.3344  3.5065
   74MOL0     H 9962   7.340   2.195   0.300 -0.1615  0.9894 -1.2704
   74MOL0     H 9963   7.365   2.128   0.151 -1.1165  0.7073  1.2870
   74MOL0     H 9964   7.253   1.978   0.399 -1.7916 -0.4680  0.3138
   74MOL0     H 9965   7.274   1.899   0.244  0.5899  0.1709  1.0307
   74MOL0     H 9966   7.091   2.148   0.282 -0.3100 -1.2639  0.9361
   74MOL0     H 9967   7.119   2.052   0.136 -1.6773  0.6430  0.0586
   74MOL0     H 9968   6.909   2.007   0.303 -1.4114 -0.7633 -2.4852
   74MOL0     H 9969   7.022   1.924   0.393 -0.0440  3.5843  1.7572
   74MOL0     H 9970   7.082   1.775   0.212  2.7487  3.6201 -0.1424
   74MOL0     H 9971   6.983   1.868   0.091 -2.2312  0.3504  1.1737
   74MOL0     H 9972   7.705   1.811   0.790  0.4794  2.2382  2.8263
   74MOL0     H 9973   7.910   1.706   0.884 -6.0031 -1.8708 -0.8732
   74MOL0     H 9974   8.540   1.712   0.684 -0.8039 -0.1184  0.8618
   74MOL0     H 9975   8.679   1.538   0.617 -0.4196  0.8544  1.2351
   74MOL0     H 9976   9.989   0.160   0.474  0.2560  2.2619  0.0407
   74MOL0     H 9977  10.202   0.058   0.370 -2.6412  0.3067 -0.0603
   74MOL0     H 9978  10.621  -0.063   0.387  1.1964 -2.0607 -0.5869
   74MOL0     H 9979  10.865  -0.146   0.354  2.4618 -0.5120 -1.3107
   74MOL0     H 9980  11.100   0.124   0.135 -2.4023 -1.0043  0.7832
   74MOL0     H 9981  11.237   0.103   0.241  2.1732 -1.7730 -2.3572
   74MOL0     H 9982  11.298  -0.098   0.187  0.8784  2.7298  1.8479
   74MOL0     H 9983  11.257  -0.023   0.032 -2.0772  0.1294 -0.4014
   74MOL0     H 9984  11.049  -0.205   0.154 -1.4724 -1.6424 -1.5228
   74MOL0     H 9985  11.167  -0.251   0.031 -2.4287 -1.5571 -1.6651
   74MOL0     H 9986  11.075  -0.073  -0.121 -1.0495 -0.3490 -0.0960
   74MOL0     H 9987  10.984   0.004   0.012 -1.2477 -0.3757  1.3810
   74MOL0     H 9988  10.710  -0.283  -0.119 -1.2012  0.9191  0.4086
   74MOL0     H 9989  11.013   0.232   0.318  0.1612 -1.0356  0.3960
   74MOL0     H 9990  10.769   0.341   0.358 -2.7187  0.2611 -0.0548
   75MOL0     O 9991   8.984   3.737   1.985 -0.2879 -0.1476  0.0657
   75MOL0     C 9992   8.964   3.617   2.010 -0.6540 -0.3161 -0.7437
   75MOL0     O 9993   8.850   3.568   2.072  0.1649  0.4727 -0.1477
   75MOL0     C 9994   8.763   3.668   2.107  0.8702 -1.2569 -0.7417
   75MOL0     C 9995   8.663   3.709   2.021  0.4910 -0.1035 -0.0976
   75MOL0     C 9996   8.566   3.803   2.057 -0.7489  0.1883 -1.0265
   75MOL0     C 9997   8.572   3.847   2.194  0.4574 -0.6749 -0.1978
   75MOL0     O 9998   8.480   3.937   2.245  0.4929 -0.1104 -0.0288
   75MOL0     C 9999   8.343   3.939   2.187 -0.8974  0.0873  0.1589
   75MOL0     C10000   8.249   4.045   2.250 -0.2085  0.6477 -0.1320
   75MOL0     C10001   8.126   4.039   2.156  0.2300  0.0433  0.2890
   75MOL0     C10002   8.013   4.130   2.196  0.2448 -0.2638  0.5052
   75MOL0     C10003   7.889   4.110   2.101  0.1260 -0.5633 -0.2605
   75MOL0     C10004   7.818   4.248   2.079  0.0537  0.1902 -0.0364
   75MOL0     C10005   7.684   4.229   2.019  0.3045  0.3376  0.2033
   75MOL0     C10006   7.618   4.365   2.008  0.3700 -0.4821  0.1761
   75MOL0     N10007   7.471   4.363   2.003 -0.5370  0.3520 -0.9654
   75MOL0     C10008   7.387   4.342   1.901 -0.2368 -0.0761  0.0600
   75MOL0     C10009   7.257   4.351   1.955 -0.0800 -0.5647  0.1512
   75MOL0     C10010   7.124   4.304   1.894  0.3270 -0.5747  0.1822
   75MOL0     C10011   7.039   4.433   1.887 -0.2087  0.5544 -0.8236
   75MOL0     C10012   6.934   4.415   1.779 -0.3381 -0.5940 -0.5139
   75MOL0     C10013   6.825   4.525   1.764  0.2798 -0.3293 -0.4337
   75MOL0     O10014   6.860   4.640   1.849 -0.0054  0.0718  0.0319
   75MOL0     C10015   6.756   4.724   1.885 -0.8817 -0.3730 -0.5654
   75MOL0     C10016   6.766   4.781   2.011  0.1962 -0.1780 -0.1167
   75MOL0     C10017   6.667   4.866   2.055 -0.4347 -0.0332  0.3304
   75MOL0     C10018   6.698   4.936   2.184 -0.3914 -0.8316 -0.3372
   75MOL0     C10019   6.547   4.887   1.986 -0.5283  0.5463  0.3368
   75MOL0     C10020   6.434   4.967   2.042 -0.1935  0.1150  0.2666
   75MOL0     O10021   6.354   5.048   1.953 -0.5394 -0.1614  0.0377
   75MOL0     C10022   6.246   5.112   2.016 -0.9792 -0.2030  0.1581
   75MOL0     C10023   6.236   5.247   2.039 -0.0827  0.2532 -0.3644
   75MOL0     C10024   6.117   5.301   2.093 -0.3537  0.0141 -0.1984
   75MOL0     C10025   6.008   5.215   2.131  0.2990  0.3779 -0.4658
   75MOL0     O10026   5.913   5.274   2.207  0.6340  0.0273 -0.3743
   75MOL0     C10027   5.773   5.243   2.179  0.4363  0.2125  0.4489
   75MOL0     C10028   5.738   5.280   2.039  0.5106 -0.4225  0.8902
   75MOL0     C10029   5.592   5.267   2.019  0.6417  0.1346 -0.0596
   75MOL0     C10030   5.560   5.338   1.886  0.3854  0.2323 -0.6024
   75MOL0     C10031   5.415   5.341   1.865  0.5278  0.1311  0.1297
   75MOL0     C10032   5.392   5.447   1.749 -0.5457  0.2268  0.4599
   75MOL0     C10033   5.252   5.435   1.700 -0.1220  0.2840 -0.6286
   75MOL0     C10034   5.154   5.517   1.788  0.7275 -0.7590 -0.2694
   75MOL0    Cl10035   5.197   5.694   1.808  0.2624 -0.3202  0.3247
   75MOL0     C10036   6.020   5.075   2.109  0.6064  0.4997 -0.1136
   75MOL0     C10037   6.144   5.032   2.050 -0.4601 -0.5739 -0.5272
   75MOL0     O10038   6.421   4.950   2.166  0.2557  0.0007  0.2518
   75MOL0     C10039   6.532   4.814   1.864  0.1731 -0.0269  0.7646
   75MOL0     C10040   6.645   4.748   1.806 -0.0959 -0.2792 -0.1144
   75MOL0     N10041   7.274   4.393   2.084  0.0515  0.2667 -0.0791
   75MOL0     N10042   7.399   4.397   2.111  0.0583  0.1501  0.2041
   75MOL0     C10043   8.671   3.797   2.279 -0.8911 -1.0053 -0.3990
   75MOL0     C10044   8.771   3.709   2.239 -0.1553 -0.4114 -0.3685
   75MOL0     C10045   9.068   3.517   1.977  0.3982 -0.2800  0.8444
   75MOL0     C10046   9.030   3.384   1.938 -0.2923 -0.5928 -0.2149
   75MOL0     C10047   9.126   3.290   1.892 -0.4887 -0.6712 -0.7869
   75MOL0     C10048   9.256   3.324   1.918  0.4831  0.1773  0.3299
   75MOL0     O10049   9.346   3.220   1.919 -0.2323  0.6883 -0.3221
   75MOL0     C10050   9.427   3.204   2.036  0.0574  0.2870 -0.0864
   75MOL0     C10051   9.396   3.060   2.100 -0.0785 -1.0531 -0.0987
   75MOL0     C10052   9.247   3.054   2.161  0.6058  0.1364  0.5001
   75MOL0     C10053   9.215   2.917   2.237  0.9188 -0.6210 -0.3495
   75MOL0     C10054   9.316   2.899   2.342 -0.7696  0.2500  0.3184
   75MOL0     C10055   9.419   2.864   2.408  0.6354  0.5685 -0.2769
   75MOL0     C10056   9.297   3.450   1.946  1.0798 -0.4714  1.0658
   75MOL0     C10057   9.204   3.549   1.972  0.1518  0.0946 -0.1543
   75MOL0     H10058   8.654   3.676   1.918  0.4661  0.6592 -0.3452
   75MOL0     H10059   8.478   3.814   1.994 -2.4665 -1.6540  0.8974
   75MOL0     H10060   8.347   3.951   2.078 -1.1647  3.3362  0.3994
   75MOL0     H10061   8.291   3.845   2.205 -0.8609  0.1181  0.4361
   75MOL0     H10062   8.230   4.030   2.357  3.3296  0.5833  0.6143
   75MOL0     H10063   8.297   4.142   2.235  0.4232  0.4220  0.3855
   75MOL0     H10064   8.151   4.074   2.056  0.6418 -0.4058  0.2308
   75MOL0     H10065   8.086   3.937   2.154 -3.1581  1.2148  0.7260
   75MOL0     H10066   7.993   4.109   2.302  2.8140 -1.1901  0.8749
   75MOL0     H10067   8.056   4.230   2.200 -0.8819  0.2176  1.0576
   75MOL0     H10068   7.926   4.069   2.006  1.2457 -0.9557  0.3278
   75MOL0     H10069   7.821   4.033   2.138  1.5970 -1.8538 -0.1517
   75MOL0     H10070   7.798   4.298   2.174  0.4330 -0.6066  0.4703
   75MOL0     H10071   7.872   4.317   2.014 -0.6215 -0.0285 -0.8562
   75MOL0     H10072   7.673   4.176   1.924 -1.3165 -1.6947  1.4280
   75MOL0     H10073   7.625   4.180   2.097 -1.7471  2.4623  0.0916
   75MOL0     H10074   7.658   4.418   1.922 -0.2495  2.0078  1.3427
   75MOL0     H10075   7.636   4.436   2.090 -1.5668 -0.4501  0.6153
   75MOL0     H10076   7.415   4.308   1.802 -1.5215 -0.6874 -0.1179
   75MOL0     H10077   7.142   4.263   1.794  2.1089 -1.0969  0.6811
   75MOL0     H10078   7.068   4.232   1.955  1.5353 -2.6826 -1.0967
   75MOL0     H10079   7.093   4.527   1.879  2.5304 -0.5285  2.6462
   75MOL0     H10080   6.983   4.433   1.981 -1.1795 -0.8187 -1.3615
   75MOL0     H10081   6.886   4.317   1.782 -0.6851 -0.4064  0.2085
   75MOL0     H10082   6.991   4.425   1.686 -1.7196 -0.2057 -1.3579
   75MOL0     H10083   6.722   4.495   1.784  1.3188 -2.1743  3.1902
   75MOL0     H10084   6.833   4.571   1.666  2.1491  3.5867  1.3069
   75MOL0     H10085   6.845   4.750   2.078 -0.7583 -2.1761  0.1740
   75MOL0     H10086   6.804   4.925   2.208 -0.3067 -1.4699 -0.9554
   75MOL0     H10087   6.671   5.042   2.187  0.2736 -0.6800  0.9109
   75MOL0     H10088   6.655   4.882   2.269  2.4222  0.3194  1.9861
   75MOL0     H10089   6.313   5.320   2.014 -1.3475  1.2489 -1.4748
   75MOL0     H10090   6.103   5.405   2.123  1.2326  0.4366 -0.8340
   75MOL0     H10091   5.750   5.138   2.196 -2.3384 -0.0463 -3.5858
   75MOL0     H10092   5.713   5.301   2.251  0.3705  0.1157  0.4713
   75MOL0     H10093   5.774   5.382   2.025  1.7736 -0.9727 -0.0836
   75MOL0     H10094   5.796   5.220   1.967  0.9997  1.1379 -0.0637
   75MOL0     H10095   5.531   5.323   2.092 -2.1759  1.7276 -3.3167
   75MOL0     H10096   5.559   5.163   2.025 -4.5102  1.5430  3.7091
   75MOL0     H10097   5.605   5.437   1.879 -0.2121  0.3870 -2.9647
   75MOL0     H10098   5.608   5.277   1.809 -2.0254 -0.6036 -1.5272
   75MOL0     H10099   5.363   5.372   1.956 -1.3686 -3.3873  0.4324
   75MOL0     H10100   5.374   5.241   1.846  2.3249 -0.8627  1.2404
   75MOL0     H10101   5.420   5.548   1.781  0.7705 -0.6657  2.2575
   75MOL0     H10102   5.455   5.417   1.665  0.6876  2.4491  0.5333
   75MOL0     H10103   5.227   5.328   1.698  0.6700  0.0852 -0.2656
   75MOL0     H10104   5.246   5.464   1.595  2.3559  1.2261 -0.5671
   75MOL0     H10105   5.150   5.471   1.888  1.0311 -0.7210 -0.2369
   75MOL0     H10106   5.055   5.510   1.744  0.5743  0.5241 -0.1579
   75MOL0     H10107   5.950   4.997   2.134  1.5831 -0.2943  0.2224
   75MOL0     H10108   6.136   4.925   2.030 -1.0683 -0.5074 -0.6518
   75MOL0     H10109   6.437   4.803   1.814 -1.5650  2.2169  3.3142
   75MOL0     H10110   6.623   4.692   1.715  2.2762 -0.4442 -0.6511
   75MOL0     H10111   8.666   3.831   2.382 -1.8026 -1.1492 -0.3931
   75MOL0     H10112   8.841   3.679   2.316  0.0387  2.1232  0.5309
   75MOL0     H10113   8.926   3.354   1.927 -1.7542  4.0045 -1.5413
   75MOL0     H10114   9.093   3.189   1.867  1.0521 -0.7972 -2.5302
   75MOL0     H10115   9.530   3.203   1.997 -0.0806  0.7885 -0.4766
   75MOL0     H10116   9.434   3.288   2.106 -0.1077  1.4584 -1.4299
   75MOL0     H10117   9.480   3.036   2.166  1.3109  2.1928 -0.5243
   75MOL0     H10118   9.397   2.987   2.017 -0.2965 -0.6052 -0.4975
   75MOL0     H10119   9.181   3.069   2.076  1.8308 -0.2907 -0.5615
   75MOL0     H10120   9.228   3.137   2.230 -1.2517  0.0802  0.0931
   75MOL0     H10121   9.203   2.831   2.171  0.5371  0.6619 -2.0379
   75MOL0     H10122   9.120   2.917   2.291 -0.7434 -2.1261 -3.0612
   75MOL0     H10123   9.505   2.842   2.468 -0.8697  0.1641  1.8690
   75MOL0     H10124   9.401   3.480   1.949  2.1952 -3.9752  2.7798
   75MOL0     H10125   9.250   3.644   1.994  0.0958 -0.2231  1.4561
   76MOL0     O10126   2.688  10.519   3.863  0.0054 -0.0090  0.2478
   76MOL0     C10127   2.732  10.543   3.979  0.7968  0.2577  0.6737
   76MOL0     O10128   2.661  10.586   4.087 -0.8322 -0.4644 -0.1681
   76MOL0     C10129   2.525  10.624   4.070 -0.3138 -0.2746  1.1595
   76MOL0     C10130   2.433  10.530   4.017 -0.3480  0.2915  0.0345
   76MOL0     C10131   2.298  10.565   4.020  0.3086  0.5170  0.4174
   76MOL0     C10132   2.252  10.691   4.072  0.0279  0.2200 -0.8373
   76MOL0     O10133   2.117  10.719   4.064  0.2504  0.0737 -0.0884
   76MOL0     C10134   2.080  10.855   4.030 -0.6291  0.6104 -0.3114
   76MOL0     C10135   1.937  10.855   3.973 -0.8087 -0.1944  0.3447
   76MOL0     C10136   1.899  10.999   3.963 -0.3922  0.6575 -0.1150
   76MOL0     C10137   1.740  11.026   3.949  0.1481  0.6810 -0.1123
   76MOL0     C10138   1.724  11.164   3.889 -0.4638  0.1475  0.4109
   76MOL0     C10139   1.575  11.211   3.904  0.2647 -0.4642  0.0657
   76MOL0     C10140   1.470  11.129   3.826 -0.5765  1.1489  0.7303
   76MOL0     C10141   1.450  11.168   3.678  0.1691  0.9702 -0.1325
   76MOL0     N10142   1.325  11.113   3.621  1.3694  0.2613  0.2510
   76MOL0     C10143   1.274  10.986   3.659 -0.0213  0.2401  0.1316
   76MOL0     C10144   1.146  10.979   3.610 -0.8806 -0.3972  0.6183
   76MOL0     C10145   1.047  10.861   3.625 -0.1725 -0.0050  0.1117
   76MOL0     C10146   0.902  10.897   3.668  0.4835 -0.7053 -0.5370
   76MOL0     C10147   0.803  10.778   3.674 -0.1776 -0.1827  0.1355
   76MOL0     C10148   0.663  10.819   3.713  0.3683 -0.0052 -0.7291
   76MOL0     O10149   0.586  10.700   3.738  0.2680  0.1545 -0.1846
   76MOL0     C10150   0.504  10.645   3.640 -0.1114 -0.1566  0.7239
   76MOL0     C10151   0.443  10.528   3.678 -0.9153  0.1181 -0.5189
   76MOL0     C10152   0.345  10.453   3.604  0.2581 -0.0002  0.4767
   76MOL0     C10153   0.305  10.312   3.658 -0.3930 -0.4070 -0.2118
   76MOL0     C10154   0.317  10.498   3.470  0.3719 -0.5593 -0.7935
   76MOL0     C10155   0.228  10.427   3.374  0.2520  0.2972  0.2795
   76MOL0     O10156   0.244  10.462   3.242  0.2362  0.5572  0.3515
   76MOL0     C10157   0.149  10.420   3.144  0.5976 -0.1572  0.3100
   76MOL0     C10158   0.121  10.280   3.125 -0.6817 -0.2040 -0.4345
   76MOL0     C10159   0.024  10.233   3.036  0.3322  0.4386 -0.1368
   76MOL0     C10160  -0.063  10.328   2.989  0.7581 -0.4756 -0.7054
   76MOL0     O10161  -0.175  10.294   2.917  0.2764  0.3861  0.3952
   76MOL0     C10162  -0.206  10.158   2.897  0.3754  0.3367  0.3957
   76MOL0     C10163  -0.346  10.150   2.833 -0.3224  0.4772  0.1976
   76MOL0     C10164  -0.451  10.195   2.929 -0.6305 -0.0861 -0.0172
   76MOL0     C10165  -0.581  10.224   2.854  0.0998 -0.1322  0.2331
   76MOL0     C10166  -0.695  10.267   2.944  0.1280 -0.8017 -0.0698
   76MOL0     C10167  -0.809  10.319   2.860  0.2253  0.6567  0.0190
   76MOL0     C10168  -0.949  10.349   2.931  0.6954  0.3771 -0.3209
   76MOL0     C10169  -1.052  10.377   2.834 -0.0573 -0.8436  0.2363
   76MOL0    Cl10170  -1.046  10.546   2.782 -0.5241 -0.0103  0.1717
   76MOL0     C10171  -0.044  10.464   3.006  0.3413  0.2601 -0.5758
   76MOL0     C10172   0.057  10.509   3.082  0.0725 -0.3332  0.8938
   76MOL0     O10173   0.144  10.344   3.409 -0.4620 -0.3297 -0.3232
   76MOL0     C10174   0.391  10.619   3.432  0.3800 -0.3245  0.2706
   76MOL0     C10175   0.474  10.694   3.518  0.6260  0.3456 -0.2282
   76MOL0     N10176   1.129  11.090   3.531  0.0647  0.4828 -0.3641
   76MOL0     N10177   1.222  11.169   3.550 -0.4574 -0.4605  0.7218
   76MOL0     C10178   2.344  10.779   4.113 -0.5464 -0.6581 -0.1221
   76MOL0     C10179   2.484  10.749   4.110  0.1157 -0.0459 -0.4517
   76MOL0     C10180   2.875  10.548   3.990 -0.4994  0.4361  0.6822
   76MOL0     C10181   2.934  10.537   4.120  0.3720  0.3204  0.3200
   76MOL0     C10182   3.078  10.532   4.124  0.6026 -0.6842 -1.0705
   76MOL0     C10183   3.158  10.529   4.018 -0.0737 -0.3145  0.3964
   76MOL0     O10184   3.291  10.523   4.041 -0.2548 -0.4456  0.1253
   76MOL0     C10185   3.384  10.529   3.923  0.6822  0.5189 -0.7345
   76MOL0     C10186   3.535  10.521   3.982 -0.0031 -0.3483  0.1651
   76MOL0     C10187   3.564  10.382   4.051  0.0047 -0.4741 -0.0327
   76MOL0     C10188   3.710  10.394   4.103  0.4666  1.0806  0.1457
   76MOL0     C10189   3.818  10.428   4.011  0.7310 -0.1935  0.2116
   76MOL0     C10190   3.910  10.455   3.942  0.9211  0.8408  0.1903
   76MOL0     C10191   3.101  10.522   3.889 -0.2937  0.2531  0.2750
   76MOL0     C10192   2.959  10.539   3.878 -0.0404 -0.4690  0.2892
   76MOL0     H10193   2.460  10.432   3.980  0.3470  0.2062  0.7387
   76MOL0     H10194   2.223  10.497   3.979 -0.0597  1.1721 -0.0016
   76MOL0     H10195   2.089  10.918   4.118  0.6508 -1.0699  0.8358
   76MOL0     H10196   2.150  10.894   3.956  0.2202  2.3785  1.3659
   76MOL0     H10197   1.935  10.818   3.870 -4.5854  1.3148 -0.3087
   76MOL0     H10198   1.859  10.801   4.027 -0.2717  0.5413  1.9216
   76MOL0     H10199   1.934  11.059   4.048 -1.2365 -1.0422  1.5028
   76MOL0     H10200   1.959  11.048   3.885  2.3742 -0.6510  1.0506
   76MOL0     H10201   1.697  10.945   3.889 -0.2425  0.4336  0.4990
   76MOL0     H10202   1.685  11.012   4.042  0.2425  4.1015  0.5845
   76MOL0     H10203   1.785  11.230   3.951 -0.7854 -2.0206  3.1932
   76MOL0     H10204   1.757  11.171   3.785 -0.0378 -0.0503  0.5332
   76MOL0     H10205   1.546  11.202   4.009  0.6663  0.8711  0.3041
   76MOL0     H10206   1.552  11.314   3.874 -2.1133 -0.4486  1.7029
   76MOL0     H10207   1.499  11.024   3.823  4.7334  2.3354  1.1746
   76MOL0     H10208   1.374  11.138   3.877 -0.5207 -2.4664  1.7828
   76MOL0     H10209   1.532  11.129   3.618 -0.8127  0.7659 -1.3742
   76MOL0     H10210   1.456  11.274   3.651  3.7208  0.6160 -1.2049
   76MOL0     H10211   1.326  10.920   3.728  2.6786  3.1610  1.1391
   76MOL0     H10212   1.055  10.807   3.530  2.5126 -0.5564  0.5600
   76MOL0     H10213   1.083  10.798   3.706 -0.1617 -0.5120 -0.2839
   76MOL0     H10214   0.864  10.970   3.596  0.2230  0.4292  0.7187
   76MOL0     H10215   0.907  10.944   3.766  0.3312 -0.2861 -0.7283
   76MOL0     H10216   0.835  10.697   3.741 -2.6959 -3.2513 -2.0865
   76MOL0     H10217   0.796  10.735   3.574 -2.8109  0.2465  0.0673
   76MOL0     H10218   0.613  10.881   3.638  0.2199  0.5832 -0.1519
   76MOL0     H10219   0.662  10.879   3.804  0.6991  0.0888 -0.7831
   76MOL0     H10220   0.464  10.481   3.774  2.6451 -2.5508 -2.3437
   76MOL0     H10221   0.198  10.289   3.662 -0.7080  0.2043 -2.9614
   76MOL0     H10222   0.349  10.237   3.592  2.9889  1.1033  0.1455
   76MOL0     H10223   0.345  10.292   3.757 -3.2780  0.0402  1.1489
   76MOL0     H10224   0.190  10.208   3.169  0.9955 -0.5216 -3.3179
   76MOL0     H10225   0.014  10.127   3.013  0.3134  0.0693  1.4356
   76MOL0     H10226  -0.127  10.108   2.840  0.2201  0.0394  0.4375
   76MOL0     H10227  -0.217  10.117   2.997 -0.1862 -1.4389 -0.3519
   76MOL0     H10228  -0.335  10.211   2.743 -0.0453 -0.5519 -0.4925
   76MOL0     H10229  -0.364  10.044   2.812 -1.5194  0.0433  3.0382
   76MOL0     H10230  -0.413  10.283   2.982  0.4773 -0.8579  0.5044
   76MOL0     H10231  -0.457  10.115   3.003 -0.3926  0.2963  0.4228
   76MOL0     H10232  -0.549  10.301   2.784  3.6090 -2.3019 -0.8673
   76MOL0     H10233  -0.617  10.140   2.793 -2.4660  0.5116  0.7790
   76MOL0     H10234  -0.670  10.344   3.017  0.4054  0.4654 -1.4479
   76MOL0     H10235  -0.735  10.183   3.002 -0.0912 -0.1334  0.7671
   76MOL0     H10236  -0.780  10.405   2.799  0.7502 -1.1950 -2.4525
   76MOL0     H10237  -0.828  10.240   2.788 -0.9691  0.2637  0.7468
   76MOL0     H10238  -0.950  10.423   3.012  3.5110 -0.1327  0.2862
   76MOL0     H10239  -0.983  10.253   2.973  1.8607 -1.2298 -2.8264
   76MOL0     H10240  -1.150  10.361   2.879 -1.2025 -0.1982 -1.8704
   76MOL0     H10241  -1.042  10.316   2.743  1.7934 -0.6881  0.2964
   76MOL0     H10242  -0.128  10.526   2.974 -0.4292 -1.1130 -1.3288
   76MOL0     H10243   0.061  10.616   3.101  0.7835  0.0045 -0.9975
   76MOL0     H10244   0.378  10.661   3.333  1.9032 -1.1153 -0.2951
   76MOL0     H10245   0.524  10.784   3.482 -0.3169  0.3817 -1.5146
   76MOL0     H10246   2.322  10.871   4.166  0.2573 -2.2905  3.3656
   76MOL0     H10247   2.562  10.814   4.149 -1.0323  2.1767 -1.6985
   76MOL0     H10248   2.870  10.534   4.208 -0.2313 -2.0444 -0.1230
   76MOL0     H10249   3.121  10.536   4.224 -0.4338  0.2180 -0.6394
   76MOL0     H10250   3.378  10.443   3.857  0.4579 -0.6508  0.7616
   76MOL0     H10251   3.370  10.615   3.856  1.2506  0.4468 -0.9524
   76MOL0     H10252   3.545  10.605   4.051 -1.1890 -0.8968  1.0507
   76MOL0     H10253   3.599  10.547   3.897  2.0147  1.0059  2.0117
   76MOL0     H10254   3.546  10.301   3.980 -1.0894 -0.1208 -0.1725
   76MOL0     H10255   3.492  10.368   4.133 -2.2684  1.8142 -1.4933
   76MOL0     H10256   3.738  10.295   4.140 -0.1516  0.4064 -1.0991
   76MOL0     H10257   3.706  10.472   4.179 -1.9880  2.8194 -1.5910
   76MOL0     H10258   3.981  10.485   3.868  0.3924  0.9790 -0.2670
   76MOL0     H10259   3.162  10.513   3.799  0.0906  0.4718  0.5080
   76MOL0     H10260   2.919  10.524   3.778  0.5109  3.3342 -0.6385
   77MOL0     O10261   8.948   7.524   6.404  0.2152 -0.1741  0.2969
   77MOL0     C10262   8.996   7.634   6.374 -0.3481 -0.7456  0.2413
   77MOL0     O10263   8.961   7.712   6.281  0.2418  0.5242  0.7527
   77MOL0     C10264   8.853   7.697   6.196  0.6925  0.4342  0.2624
   77MOL0     C10265   8.740   7.620   6.216 -0.8575  0.4472 -0.5096
   77MOL0     C10266   8.632   7.634   6.126 -0.1410  0.0805 -0.5103
   77MOL0     C10267   8.641   7.727   6.018  0.0742 -0.0061 -1.0850
   77MOL0     O10268   8.521   7.741   5.952  0.3268 -0.5229 -0.3715
   77MOL0     C10269   8.525   7.773   5.811 -0.8357  0.2344  0.1073
   77MOL0     C10270   8.471   7.915   5.788 -0.0051 -0.1472  0.2179
   77MOL0     C10271   8.317   7.906   5.757 -1.6647 -0.5917 -0.2687
   77MOL0     C10272   8.248   8.036   5.805 -0.1570  0.7976  0.6709
   77MOL0     C10273   8.103   8.037   5.753  0.4421 -1.0124 -0.2635
   77MOL0     C10274   8.023   8.171   5.799  0.6698  0.4135 -0.0396
   77MOL0     C10275   7.997   8.168   5.951  0.0699  0.2561  0.1158
   77MOL0     C10276   7.944   8.302   5.990 -0.5101 -0.0477 -0.5410
   77MOL0     N10277   7.805   8.315   5.951  1.0872  0.0744  0.0747
   77MOL0     C10278   7.756   8.406   5.861  0.3568  0.2627  0.8041
   77MOL0     C10279   7.621   8.388   5.862  0.0402  0.1899  0.6830
   77MOL0     C10280   7.521   8.463   5.786  0.6729 -0.1833  0.7523
   77MOL0     C10281   7.557   8.489   5.644  0.1209 -0.5328 -0.3239
   77MOL0     C10282   7.551   8.362   5.559  0.8512  0.1105 -0.0817
   77MOL0     C10283   7.424   8.276   5.579  0.8236  0.5661  0.7660
   77MOL0     O10284   7.417   8.184   5.468  0.0421  0.2900 -0.0364
   77MOL0     C10285   7.319   8.092   5.448 -0.2110 -0.9813 -0.4795
   77MOL0     C10286   7.289   8.041   5.321  0.5987  0.1461 -0.0967
   77MOL0     C10287   7.188   7.947   5.295 -0.4438 -0.9357 -0.6473
   77MOL0     C10288   7.153   7.919   5.153  0.1778  0.5819  0.6868
   77MOL0     C10289   7.124   7.895   5.407 -0.1487 -0.8661  0.2398
   77MOL0     C10290   7.041   7.768   5.387 -0.4280 -0.7017  0.0354
   77MOL0     O10291   6.987   7.720   5.504 -0.5979  0.2689  0.6995
   77MOL0     C10292   6.904   7.609   5.492  0.2649  0.7575  0.3819
   77MOL0     C10293   6.778   7.635   5.537  0.1811  0.5449  0.3432
   77MOL0     C10294   6.687   7.531   5.546  0.1678  0.1201 -0.2770
   77MOL0     C10295   6.718   7.398   5.500 -0.0527 -0.4487 -0.2339
   77MOL0     O10296   6.621   7.298   5.502  0.5012 -0.3438 -0.4245
   77MOL0     C10297   6.481   7.324   5.493  0.2779 -0.2951 -0.3965
   77MOL0     C10298   6.401   7.200   5.530  0.6030 -0.3034 -0.3189
   77MOL0     C10299   6.250   7.240   5.533 -0.3610  0.5316  0.2909
   77MOL0     C10300   6.160   7.123   5.555  0.0912 -0.0809 -0.6788
   77MOL0     C10301   6.010   7.149   5.556 -0.5127  0.4718  0.5059
   77MOL0     C10302   5.957   7.215   5.687 -0.4313  0.2425  0.6978
   77MOL0     C10303   5.810   7.178   5.685 -0.4304  0.5363  0.0217
   77MOL0     C10304   5.740   7.229   5.812 -0.4760  0.1254  0.3425
   77MOL0    Cl10305   5.570   7.204   5.783 -0.2130  0.0537  0.0755
   77MOL0     C10306   6.850   7.373   5.468 -0.3554 -0.7866 -0.8121
   77MOL0     C10307   6.948   7.475   5.468  0.7230  0.4522 -0.3322
   77MOL0     O10308   7.019   7.727   5.279 -0.4328 -0.5673  0.1487
   77MOL0     C10309   7.144   7.950   5.538  0.0194  0.0799  0.2895
   77MOL0     C10310   7.243   8.051   5.555  0.2392  0.2728 -0.0460
   77MOL0     N10311   7.593   8.290   5.952  0.9144 -1.1488 -0.3681
   77MOL0     N10312   7.700   8.255   6.013 -0.0349  0.6873 -0.0513
   77MOL0     C10313   8.760   7.803   5.993  0.8120  0.4580 -0.1741
   77MOL0     C10314   8.867   7.784   6.086  0.9251  0.2434 -0.0842
   77MOL0     C10315   9.106   7.681   6.454 -0.2713  0.0510  0.0858
   77MOL0     C10316   9.155   7.807   6.439 -0.6586 -0.1185 -0.2487
   77MOL0     C10317   9.257   7.860   6.520  0.1338  0.1460 -0.0581
   77MOL0     C10318   9.303   7.778   6.617  0.0292 -0.6034  0.1464
   77MOL0     O10319   9.397   7.841   6.700  0.7172  0.1789 -0.7583
   77MOL0     C10320   9.510   7.764   6.732 -0.4603 -0.1654  0.6379
   77MOL0     C10321   9.603   7.869   6.806  0.5642  0.1759 -0.1692
   77MOL0     C10322   9.749   7.825   6.813  0.1228 -0.8250 -0.7288
   77MOL0     C10323   9.801   7.779   6.669 -1.1253 -0.3582  0.2997
   77MOL0     C10324   9.950   7.791   6.679  0.2433  0.1952 -0.1837
   77MOL0     C10325  10.072   7.791   6.682  0.6634  0.2249  1.2329
   77MOL0     C10326   9.269   7.642   6.632 -0.2751 -0.2760 -0.6482
   77MOL0     C10327   9.167   7.597   6.556  0.2595 -0.8425  0.1321
   77MOL0     H10328   8.738   7.560   6.307 -0.7904  1.6142  0.2911
   77MOL0     H10329   8.532   7.599   6.150 -1.0170  2.4246 -0.4897
   77MOL0     H10330   8.621   7.774   5.760 -0.9471 -1.1583 -0.1564
   77MOL0     H10331   8.470   7.709   5.742  0.4234  0.9319 -1.6181
   77MOL0     H10332   8.483   7.979   5.876  0.3348  3.0009 -1.9243
   77MOL0     H10333   8.521   7.967   5.706  0.9454 -1.3521  0.0020
   77MOL0     H10334   8.314   7.899   5.647  2.2816 -1.4120 -0.4691
   77MOL0     H10335   8.274   7.819   5.807 -0.3805 -1.1442 -0.0866
   77MOL0     H10336   8.243   8.029   5.914 -1.5723 -2.9481  0.4987
   77MOL0     H10337   8.307   8.122   5.771  1.5240 -0.3355  0.5780
   77MOL0     H10338   8.105   8.019   5.645 -0.5442  2.2944 -0.9350
   77MOL0     H10339   8.056   7.949   5.799  0.1810 -1.2761 -1.0310
   77MOL0     H10340   8.070   8.263   5.763  2.3201 -1.1018 -1.9514
   77MOL0     H10341   7.923   8.167   5.753  0.9294 -4.8687 -0.7823
   77MOL0     H10342   7.929   8.085   5.975 -2.0564  1.8196 -0.2130
   77MOL0     H10343   8.090   8.160   6.009  0.2118 -2.3408 -0.3201
   77MOL0     H10344   8.002   8.384   5.946 -0.7628  0.0723 -0.6498
   77MOL0     H10345   7.950   8.311   6.098 -1.4098 -1.1395 -0.3831
   77MOL0     H10346   7.825   8.471   5.808  1.9301 -0.2170  2.1787
   77MOL0     H10347   7.424   8.413   5.795  1.1576 -2.4319 -3.5518
   77MOL0     H10348   7.502   8.556   5.841 -0.3712 -0.5387  1.0267
   77MOL0     H10349   7.656   8.535   5.632  0.0621  0.1443  1.4357
   77MOL0     H10350   7.491   8.572   5.619 -0.9746 -0.2085  3.0888
   77MOL0     H10351   7.635   8.302   5.595 -0.1234  0.3467  2.7692
   77MOL0     H10352   7.563   8.390   5.454  0.5251  1.0422  0.1253
   77MOL0     H10353   7.332   8.335   5.589 -0.0118 -0.0726 -2.1130
   77MOL0     H10354   7.440   8.224   5.674 -0.3657  1.4092  1.4577
   77MOL0     H10355   7.350   8.079   5.239  1.0370 -0.4007 -0.0315
   77MOL0     H10356   7.172   7.814   5.133 -2.2875 -0.2994  2.4896
   77MOL0     H10357   7.047   7.936   5.129  0.4116 -0.8655 -1.7072
   77MOL0     H10358   7.209   7.980   5.081 -1.2648  1.5655  0.3432
   77MOL0     H10359   6.753   7.734   5.573  1.7049  0.6163  1.2880
   77MOL0     H10360   6.590   7.565   5.582  0.3105 -0.1538  0.3656
   77MOL0     H10361   6.450   7.399   5.567 -1.3754 -1.8791  0.5908
   77MOL0     H10362   6.464   7.366   5.394  0.4563  0.8978  0.0538
   77MOL0     H10363   6.419   7.112   5.468  1.6646 -0.1321 -0.2637
   77MOL0     H10364   6.434   7.179   5.632  0.7003  0.4313 -0.1957
   77MOL0     H10365   6.229   7.293   5.440  0.1654  1.1177  0.4956
   77MOL0     H10366   6.221   7.306   5.616 -0.0658  0.9339  0.0796
   77MOL0     H10367   6.173   7.049   5.475 -3.3601 -1.2415 -0.3450
   77MOL0     H10368   6.189   7.058   5.638  0.3754 -0.4362 -1.0497
   77MOL0     H10369   5.958   7.053   5.545 -1.6792  1.1903 -0.5585
   77MOL0     H10370   5.978   7.202   5.466  3.3193 -3.6600 -3.8488
   77MOL0     H10371   6.006   7.162   5.770 -0.6373  0.5818  1.0445
   77MOL0     H10372   5.980   7.322   5.692  2.4895 -0.2982  0.4924
   77MOL0     H10373   5.794   7.070   5.683  1.4175  0.1525  2.2983
   77MOL0     H10374   5.750   7.221   5.603 -0.2166  1.7341  0.4666
   77MOL0     H10375   5.760   7.334   5.834 -1.9995  0.4295  0.3604
   77MOL0     H10376   5.779   7.155   5.882  1.7861 -0.0233 -0.9651
   77MOL0     H10377   6.883   7.280   5.423  0.1998 -1.3470  0.6833
   77MOL0     H10378   7.049   7.458   5.432  0.8605 -1.8079  0.9174
   77MOL0     H10379   7.095   7.905   5.623  1.2609  1.2611  1.6928
   77MOL0     H10380   7.267   8.077   5.657  1.4388 -1.3969  0.1279
   77MOL0     H10381   8.769   7.878   5.915  3.4016 -1.2663 -1.6914
   77MOL0     H10382   8.956   7.844   6.071 -0.2116  2.1985  0.5921
   77MOL0     H10383   9.109   7.887   6.381  2.6661  0.5891 -2.1893
   77MOL0     H10384   9.289   7.962   6.535  0.0744 -0.1059  2.1024
   77MOL0     H10385   9.489   7.682   6.801 -1.3497  0.2360  0.8557
   77MOL0     H10386   9.555   7.713   6.646  1.7761 -1.0803  2.2401
   77MOL0     H10387   9.571   7.888   6.909 -1.0715 -2.7117 -0.0619
   77MOL0     H10388   9.583   7.957   6.743  2.1262  0.4622 -0.3079
   77MOL0     H10389   9.749   7.749   6.892  1.9056 -1.2103 -1.0408
   77MOL0     H10390   9.795   7.915   6.854 -2.1987  1.6147 -3.0877
   77MOL0     H10391   9.764   7.848   6.592 -1.9742  1.4846  2.2649
   77MOL0     H10392   9.774   7.676   6.644  0.2886 -0.1134 -2.6816
   77MOL0     H10393  10.179   7.797   6.675  0.6478 -0.3927  0.3939
   77MOL0     H10394   9.309   7.583   6.713 -1.1192 -0.4819 -0.3653
   77MOL0     H10395   9.149   7.490   6.560  0.2374 -0.8185  3.0645
   78MOL0     O10396   9.467   8.354   2.251  0.2853  0.0288  0.2110
   78MOL0     C10397   9.532   8.292   2.171 -0.2659  0.5829 -0.2706
   78MOL0     O10398   9.496   8.246   2.051 -0.2549  0.2265 -0.4462
   78MOL0     C10399   9.381   8.281   1.978 -0.0904 -0.2943  0.7474
   78MOL0     C10400   9.256   8.314   2.041 -0.9152  0.1521  1.1580
   78MOL0     C10401   9.153   8.360   1.958  0.0798  0.5120 -0.4238
   78MOL0     C10402   9.160   8.347   1.818 -0.3601  0.0610 -0.2928
   78MOL0     O10403   9.059   8.381   1.728 -0.6857 -0.2619 -0.4483
   78MOL0     C10404   8.962   8.491   1.745 -0.1538 -0.4601  0.0221
   78MOL0     C10405   8.851   8.467   1.642  0.2965 -0.6001  1.0377
   78MOL0     C10406   8.760   8.589   1.619  0.7030 -0.6928 -0.4938
   78MOL0     C10407   8.645   8.564   1.530  0.6303  0.2746 -0.2361
   78MOL0     C10408   8.537   8.680   1.518 -0.1776  0.2255  0.1656
   78MOL0     C10409   8.408   8.625   1.450  0.8438  0.0938  0.6547
   78MOL0     C10410   8.300   8.722   1.413  0.6953  0.4122  0.6748
   78MOL0     C10411   8.230   8.775   1.537 -0.6833  0.8740  0.8811
   78MOL0     N10412   8.101   8.836   1.513 -0.5416 -0.3240 -0.6298
   78MOL0     C10413   8.071   8.943   1.433 -0.1870 -1.6200  0.2511
   78MOL0     C10414   7.938   8.939   1.408  0.1699 -0.1697 -0.2826
   78MOL0     C10415   7.858   9.020   1.299 -0.1363  0.0816 -1.1787
   78MOL0     C10416   7.709   9.014   1.331 -0.1942 -0.5851  0.4222
   78MOL0     C10417   7.622   9.113   1.260  0.1293 -0.1168  0.7882
   78MOL0     C10418   7.610   9.087   1.106  0.6300 -0.2461 -0.6330
   78MOL0     O10419   7.539   9.204   1.057  0.1104  0.0224 -0.1372
   78MOL0     C10420   7.400   9.215   1.058  0.6011 -0.3796 -1.0598
   78MOL0     C10421   7.335   9.333   1.075  0.1853  0.2132 -0.7487
   78MOL0     C10422   7.193   9.350   1.090 -0.2763 -0.3685 -1.2575
   78MOL0     C10423   7.135   9.481   1.129 -0.6483  0.5182  0.0815
   78MOL0     C10424   7.110   9.231   1.070  0.1883 -0.5250  0.3687
   78MOL0     C10425   6.963   9.225   1.073 -0.6071  0.0807 -0.1015
   78MOL0     O10426   6.902   9.104   1.110  0.0279  0.2188 -0.7511
   78MOL0     C10427   6.773   9.115   1.149 -0.0300  0.1256  0.5984
   78MOL0     C10428   6.717   9.213   1.234  0.1276 -0.2642 -0.2050
   78MOL0     C10429   6.593   9.210   1.293  0.1523  0.0096 -0.0373
   78MOL0     C10430   6.511   9.099   1.264  0.0990 -0.2567 -0.9734
   78MOL0     O10431   6.384   9.097   1.311 -0.8345 -0.5468  0.2185
   78MOL0     C10432   6.299   8.985   1.330  0.1633 -0.2296  0.2905
   78MOL0     C10433   6.189   9.029   1.434  0.5201 -0.6511 -0.1433
   78MOL0     C10434   6.115   9.164   1.407 -0.7048 -0.4707 -0.1202
   78MOL0     C10435   6.177   9.284   1.477  0.4602 -0.6144 -0.1033
   78MOL0     C10436   6.091   9.414   1.458 -0.4435 -0.1483  0.5801
   78MOL0     C10437   5.963   9.409   1.527  0.2019  0.8026 -0.1264
   78MOL0     C10438   5.912   9.545   1.553  0.3640 -0.2032 -0.1438
   78MOL0     C10439   5.847   9.541   1.684 -0.1498 -0.2194 -0.6513
   78MOL0    Cl10440   5.701   9.445   1.655  0.5221 -0.1127 -0.4389
   78MOL0     C10441   6.561   8.993   1.180 -0.2540 -0.3487  0.6384
   78MOL0     C10442   6.687   9.007   1.127 -0.3568 -0.0233  0.4799
   78MOL0     O10443   6.908   9.329   1.035  0.0342  0.1481 -0.1652
   78MOL0     C10444   7.173   9.110   1.046  0.8287  0.7057 -0.7969
   78MOL0     C10445   7.311   9.103   1.046  0.6919 -0.5571 -0.4155
   78MOL0     N10446   7.891   8.835   1.489 -0.0971 -0.9832  0.3564
   78MOL0     N10447   7.988   8.776   1.550 -0.8090  0.4018 -0.1402
   78MOL0     C10448   9.275   8.296   1.760  0.2346 -0.1710 -0.0422
   78MOL0     C10449   9.389   8.272   1.836  0.4017  0.4568 -0.3590
   78MOL0     C10450   9.672   8.248   2.213  0.5446 -0.0998 -0.6106
   78MOL0     C10451   9.742   8.148   2.145  0.4811  0.3790  0.8316
   78MOL0     C10452   9.868   8.104   2.184 -0.8416  0.2002 -0.1362
   78MOL0     C10453   9.922   8.155   2.300  0.6190  0.1304 -0.8409
   78MOL0     O10454  10.051   8.134   2.348 -0.2270  0.1709  0.2956
   78MOL0     C10455  10.132   8.053   2.261 -0.2755 -0.3512 -0.2110
   78MOL0     C10456  10.273   8.047   2.301  0.3990  0.1720  0.1451
   78MOL0     C10457  10.307   7.940   2.413 -0.0198  0.5695  0.8012
   78MOL0     C10458  10.455   7.944   2.452  0.0226  0.2124  0.0515
   78MOL0     C10459  10.488   7.867   2.584  0.4642  0.2676  0.4361
   78MOL0     C10460  10.514   7.797   2.674  0.0655  0.4805  0.9187
   78MOL0     C10461   9.859   8.252   2.365  0.1164  0.0564 -0.0708
   78MOL0     C10462   9.733   8.301   2.330  0.4874 -0.6451  0.7448
   78MOL0     H10463   9.256   8.311   2.149  1.3168 -0.8994  1.1774
   78MOL0     H10464   9.078   8.412   2.017  0.9142  1.7388 -0.3855
   78MOL0     H10465   8.924   8.489   1.847 -0.8202 -1.7699 -0.2341
   78MOL0     H10466   9.012   8.582   1.713 -0.1499 -0.6194 -0.4408
   78MOL0     H10467   8.900   8.440   1.548  1.8929 -2.5946  2.3409
   78MOL0     H10468   8.786   8.386   1.678 -0.1537  0.1824  2.0366
   78MOL0     H10469   8.727   8.617   1.719  0.6560 -0.3148 -0.6134
   78MOL0     H10470   8.810   8.678   1.580 -3.0188  3.0477  2.3795
   78MOL0     H10471   8.679   8.535   1.430  1.9587 -2.8193  0.9977
   78MOL0     H10472   8.594   8.474   1.563 -1.5279  1.0316 -1.3008
   78MOL0     H10473   8.517   8.730   1.613  2.0919 -0.0923  0.8638
   78MOL0     H10474   8.582   8.759   1.456  0.8445 -0.5448 -0.0906
   78MOL0     H10475   8.432   8.575   1.357 -0.2641  1.9719 -0.7214
   78MOL0     H10476   8.365   8.545   1.511  1.3783 -1.7780 -1.3247
   78MOL0     H10477   8.340   8.805   1.353 -1.4908  1.0194 -0.0191
   78MOL0     H10478   8.229   8.670   1.348  0.6915 -1.0698  1.8301
   78MOL0     H10479   8.297   8.840   1.594  0.7610 -0.5308  0.8844
   78MOL0     H10480   8.219   8.683   1.596  2.6070 -0.7922 -0.8254
   78MOL0     H10481   8.136   9.015   1.384  0.1892 -0.7343  1.9858
   78MOL0     H10482   7.899   9.121   1.299  0.4654 -0.1513 -1.6044
   78MOL0     H10483   7.882   8.964   1.208  1.0444 -1.3831 -0.0320
   78MOL0     H10484   7.694   9.040   1.436  0.3489 -0.4308  0.4661
   78MOL0     H10485   7.658   8.920   1.308 -3.8483  1.7035 -1.7783
   78MOL0     H10486   7.659   9.215   1.267 -1.2427  0.4131  0.6211
   78MOL0     H10487   7.522   9.101   1.303 -0.1520 -3.0579 -0.4470
   78MOL0     H10488   7.545   9.000   1.093 -0.6060  0.4398  0.6246
   78MOL0     H10489   7.711   9.071   1.066  1.9465  1.6300  1.6414
   78MOL0     H10490   7.405   9.415   1.068 -0.2440  0.5095 -1.7382
   78MOL0     H10491   7.207   9.556   1.164 -0.4301 -0.0557  0.8861
   78MOL0     H10492   7.084   9.519   1.040  0.6867 -1.6978 -1.7510
   78MOL0     H10493   7.069   9.469   1.215 -1.0450  2.7669  0.1634
   78MOL0     H10494   6.775   9.302   1.258 -0.6095  0.4827 -1.1173
   78MOL0     H10495   6.571   9.294   1.357 -1.1596 -2.7541  3.4935
   78MOL0     H10496   6.246   8.957   1.238 -0.1971  0.9902  0.1022
   78MOL0     H10497   6.350   8.898   1.372  0.1609  0.3803  1.6019
   78MOL0     H10498   6.113   8.951   1.430  0.9250 -1.0540 -0.1352
   78MOL0     H10499   6.236   9.013   1.532 -0.2843 -3.1344 -0.0844
   78MOL0     H10500   6.017   9.146   1.452 -0.3674 -1.7723  0.1417
   78MOL0     H10501   6.104   9.173   1.299  0.1754 -2.5295 -0.4323
   78MOL0     H10502   6.187   9.261   1.583 -1.8234  0.8026  0.4821
   78MOL0     H10503   6.281   9.308   1.450  0.7512 -0.7838  0.8319
   78MOL0     H10504   6.065   9.411   1.352  0.7916 -2.9849  0.2480
   78MOL0     H10505   6.160   9.493   1.488  0.4773 -0.5874 -0.3081
   78MOL0     H10506   5.883   9.357   1.473  0.0417 -1.9890  2.5391
   78MOL0     H10507   5.985   9.351   1.617  1.2702  1.3739 -0.0054
   78MOL0     H10508   5.846   9.577   1.471  2.9453  1.8737 -1.5932
   78MOL0     H10509   5.999   9.611   1.551  1.2767 -1.3853 -0.2953
   78MOL0     H10510   5.822   9.640   1.722 -0.6080 -0.6565  0.2219
   78MOL0     H10511   5.897   9.489   1.767  0.9985  1.8381  0.0250
   78MOL0     H10512   6.489   8.915   1.158  0.1125 -0.8828  1.2833
   78MOL0     H10513   6.727   8.932   1.059 -1.6769 -0.1781 -0.1592
   78MOL0     H10514   7.119   9.018   1.027 -0.6535  1.3571  0.1380
   78MOL0     H10515   7.353   9.005   1.025  1.2615 -0.4971  0.3839
   78MOL0     H10516   9.275   8.291   1.651  0.4350  1.4875 -0.1438
   78MOL0     H10517   9.480   8.237   1.788 -0.0447 -2.5314  0.7860
   78MOL0     H10518   9.709   8.101   2.053 -0.8693  2.0206  0.4297
   78MOL0     H10519   9.911   8.021   2.129 -3.3513 -0.7304 -0.8417
   78MOL0     H10520  10.093   7.951   2.252 -0.5789 -0.2283 -0.2904
   78MOL0     H10521  10.130   8.096   2.161 -1.1992 -1.1157 -0.5286
   78MOL0     H10522  10.308   8.146   2.332  0.3224  0.3237 -0.2530
   78MOL0     H10523  10.327   8.009   2.214  0.1231 -2.8458  1.1581
   78MOL0     H10524  10.275   7.840   2.381  0.8851 -0.1515  2.0352
   78MOL0     H10525  10.237   7.957   2.495 -0.7820  1.1632  0.0403
   78MOL0     H10526  10.486   8.042   2.489 -0.0946  0.2369  0.0822
   78MOL0     H10527  10.505   7.915   2.359  0.3365  1.7672 -0.2802
   78MOL0     H10528  10.548   7.752   2.765  1.7494 -1.1995 -0.4631
   78MOL0     H10529   9.906   8.277   2.460 -0.8681  0.6124  0.2864
   78MOL0     H10530   9.696   8.385   2.388 -0.2749  0.3883 -1.1293
   79MOL0     O10531   8.308   2.800   0.204  0.3344  0.1664 -0.3057
   79MOL0     C10532   8.292   2.704   0.281 -0.4642  0.1149 -0.1332
   79MOL0     O10533   8.172   2.634   0.287  0.2646  0.2470 -0.5393
   79MOL0     C10534   8.057   2.686   0.256  0.5857 -1.1702  1.0053
   79MOL0     C10535   8.010   2.805   0.306 -0.2383 -0.0334  0.3348
   79MOL0     C10536   7.883   2.855   0.272 -0.2374  0.3118 -0.5823
   79MOL0     C10537   7.815   2.807   0.162  0.5595 -0.3610 -0.5258
   79MOL0     O10538   7.710   2.869   0.110 -0.3361  0.3146 -0.3359
   79MOL0     C10539   7.620   2.925   0.208 -0.0111 -0.0411 -0.0526
   79MOL0     C10540   7.471   2.919   0.163  0.1901  0.6618  0.5448
   79MOL0     C10541   7.441   2.957   0.009  0.1735  0.1847 -1.4623
   79MOL0     C10542   7.289   2.959  -0.008 -0.5070 -0.0150 -0.6031
   79MOL0     C10543   7.240   3.019  -0.132  0.6140 -0.2999  0.0743
   79MOL0     C10544   7.082   3.020  -0.142 -0.1768  0.3692 -0.5217
   79MOL0     C10545   7.039   3.083  -0.275 -0.8164 -0.3703  0.0033
   79MOL0     C10546   7.047   2.975  -0.389 -0.6183 -0.0677  0.1813
   79MOL0     N10547   6.935   2.884  -0.389  0.4816 -0.1262  0.2278
   79MOL0     C10548   6.800   2.904  -0.419 -0.1333  0.4788 -0.7493
   79MOL0     C10549   6.739   2.783  -0.417  0.4453  0.4057  0.6050
   79MOL0     C10550   6.593   2.757  -0.475 -1.0294 -0.0731 -1.4259
   79MOL0     C10551   6.491   2.792  -0.372 -0.8692 -0.5500 -0.6632
   79MOL0     C10552   6.346   2.758  -0.407  1.1977 -0.3345 -0.2217
   79MOL0     C10553   6.250   2.879  -0.394  0.3918 -0.3730  0.4960
   79MOL0     O10554   6.215   2.902  -0.261  0.2476 -0.2272  0.1526
   79MOL0     C10555   6.115   2.830  -0.198  0.1894 -1.1429 -0.4358
   79MOL0     C10556   6.026   2.735  -0.248 -0.2578 -0.2135  0.0059
   79MOL0     C10557   5.916   2.687  -0.173 -0.3168 -0.6604  0.5665
   79MOL0     C10558   5.833   2.578  -0.242  0.6206  0.9631 -0.6225
   79MOL0     C10559   5.891   2.736  -0.039 -1.2316 -0.4978  0.3428
   79MOL0     C10560   5.771   2.704   0.044  0.1656  0.5255  0.0116
   79MOL0     O10561   5.659   2.659  -0.012 -0.0744  0.7230 -0.3317
   79MOL0     C10562   5.537   2.656   0.055  0.0177  0.6771 -0.1242
   79MOL0     C10563   5.494   2.743   0.154  0.0110  0.4378  0.7139
   79MOL0     C10564   5.364   2.741   0.203  0.8018  0.5439  0.4613
   79MOL0     C10565   5.265   2.641   0.167 -0.1081 -0.0933 -0.2207
   79MOL0     O10566   5.134   2.654   0.208 -0.1189 -0.1254  0.8790
   79MOL0     C10567   5.092   2.776   0.269  0.0080 -0.0062 -0.2746
   79MOL0     C10568   4.939   2.773   0.294  0.3109 -0.8545 -0.3088
   79MOL0     C10569   4.920   2.689   0.415  0.4997 -0.1227 -1.0716
   79MOL0     C10570   4.762   2.671   0.434  0.2913  0.9385  0.9722
   79MOL0     C10571   4.728   2.574   0.550 -0.3221 -0.1806  1.5906
   79MOL0     C10572   4.775   2.645   0.680  0.6420 -0.4979  0.4549
   79MOL0     C10573   4.766   2.565   0.810  0.6938 -0.3685 -0.2518
   79MOL0     C10574   4.827   2.433   0.804 -0.2778 -0.2031  0.2930
   79MOL0    Cl10575   4.818   2.342   0.955  0.5700 -0.0118 -0.1578
   79MOL0     C10576   5.306   2.550   0.064  0.0077 -0.3860  0.1133
   79MOL0     C10577   5.436   2.562   0.008 -0.3661  0.6327 -1.1241
   79MOL0     O10578   5.789   2.707   0.161 -0.5776 -0.0405  0.1955
   79MOL0     C10579   5.988   2.830   0.012 -0.0576  0.0458  0.9625
   79MOL0     C10580   6.096   2.870  -0.066  0.9858  0.4601 -0.2824
   79MOL0     N10581   6.838   2.698  -0.364  1.5431 -0.1519 -0.0343
   79MOL0     N10582   6.950   2.753  -0.362 -0.2543 -0.5691 -0.0521
   79MOL0     C10583   7.870   2.698   0.100  0.6377 -0.3758 -0.0515
   79MOL0     C10584   7.981   2.634   0.153 -0.2795  0.3375  0.1391
   79MOL0     C10585   8.415   2.661   0.352 -0.3279  0.5130  0.0310
   79MOL0     C10586   8.533   2.736   0.363 -0.4527 -0.2369 -0.2218
   79MOL0     C10587   8.645   2.684   0.426 -0.1825  0.1852 -0.4981
   79MOL0     C10588   8.640   2.558   0.486  1.1982  0.7150 -0.0561
   79MOL0     O10589   8.754   2.513   0.545  0.1172 -0.8631 -0.1464
   79MOL0     C10590   8.753   2.397   0.629  0.0641  0.5677 -0.0606
   79MOL0     C10591   8.868   2.417   0.732  0.7847  0.9967  0.9225
   79MOL0     C10592   9.008   2.434   0.685  0.0921 -0.5032  0.7290
   79MOL0     C10593   9.111   2.435   0.799 -0.2461  0.2432 -0.9559
   79MOL0     C10594   9.072   2.506   0.920 -0.3429 -0.7965  0.3064
   79MOL0     C10595   9.059   2.577   1.018 -0.1404  0.2562 -0.4286
   79MOL0     C10596   8.520   2.487   0.475  0.2562 -0.1892 -1.3854
   79MOL0     C10597   8.409   2.533   0.407  0.1893 -0.0543  0.0465
   79MOL0     H10598   8.067   2.854   0.385 -2.2820  0.0288  1.8474
   79MOL0     H10599   7.848   2.941   0.328  1.9421 -0.5600  2.4363
   79MOL0     H10600   7.630   2.886   0.309 -2.0542  1.5254  0.8270
   79MOL0     H10601   7.652   3.029   0.219  2.6402 -0.6145 -1.5252
   79MOL0     H10602   7.428   2.821   0.183  1.5464  0.0120  0.4000
   79MOL0     H10603   7.418   2.983   0.234  1.1883 -0.7522  2.6759
   79MOL0     H10604   7.473   3.060  -0.003 -0.9779  0.6605 -0.7086
   79MOL0     H10605   7.490   2.893  -0.064 -1.2063 -2.2163 -0.4106
   79MOL0     H10606   7.257   2.854   0.003 -1.3554  0.2720 -0.1863
   79MOL0     H10607   7.248   3.016   0.076  1.6838  0.4578  0.2073
   79MOL0     H10608   7.273   3.122  -0.147  1.6193 -0.8821 -2.2214
   79MOL0     H10609   7.291   2.966  -0.213  0.6102  1.5421 -1.1797
   79MOL0     H10610   7.047   2.919  -0.123  1.1426  0.1960  1.1976
   79MOL0     H10611   7.057   3.082  -0.056  2.7711 -0.5121  1.1151
   79MOL0     H10612   6.939   3.125  -0.282 -0.2732  0.8713 -0.7899
   79MOL0     H10613   7.105   3.169  -0.290 -1.0560 -0.4033 -1.4177
   79MOL0     H10614   7.143   2.923  -0.378 -0.3752  0.0613 -1.2465
   79MOL0     H10615   7.042   3.026  -0.485 -2.4856 -0.9085 -0.2042
   79MOL0     H10616   6.746   2.987  -0.463  0.3517  1.6655  0.7924
   79MOL0     H10617   6.574   2.826  -0.557 -0.8118  2.2961  0.3885
   79MOL0     H10618   6.592   2.650  -0.497 -0.0585 -0.3090 -0.4661
   79MOL0     H10619   6.503   2.898  -0.348  1.2838 -0.3692 -2.2178
   79MOL0     H10620   6.517   2.736  -0.282  1.8133  1.7146  0.0990
   79MOL0     H10621   6.317   2.675  -0.343  2.0534  0.2642  0.9684
   79MOL0     H10622   6.357   2.725  -0.511  0.8617 -1.0820 -0.0189
   79MOL0     H10623   6.157   2.868  -0.450  0.5318  0.5689  0.0522
   79MOL0     H10624   6.292   2.971  -0.436 -0.5105 -0.4808 -0.6675
   79MOL0     H10625   6.028   2.704  -0.352 -0.3076  0.1843 -0.1162
   79MOL0     H10626   5.758   2.633  -0.299 -0.7238 -1.2591 -1.0979
   79MOL0     H10627   5.895   2.516  -0.307  0.0718  1.2069 -1.3803
   79MOL0     H10628   5.789   2.506  -0.172  3.6405 -0.7121 -0.2822
   79MOL0     H10629   5.561   2.820   0.192 -0.5373  1.3680 -0.1684
   79MOL0     H10630   5.340   2.819   0.275  0.6049 -0.3658  1.3925
   79MOL0     H10631   5.141   2.803   0.363 -4.9683  5.2058  1.4079
   79MOL0     H10632   5.110   2.859   0.200  2.9239 -0.9027 -0.7311
   79MOL0     H10633   4.904   2.875   0.310  4.0021  0.3729  0.8104
   79MOL0     H10634   4.883   2.725   0.213  1.0893  0.2930 -1.5684
   79MOL0     H10635   4.970   2.725   0.506  0.8845 -0.7278 -1.0432
   79MOL0     H10636   4.969   2.594   0.397  3.3082  1.2832 -1.3970
   79MOL0     H10637   4.715   2.768   0.445 -0.0474  1.3148 -2.6711
   79MOL0     H10638   4.723   2.624   0.343  0.1873 -0.1895  1.5781
   79MOL0     H10639   4.771   2.475   0.531  0.6058  0.7806 -2.2045
   79MOL0     H10640   4.619   2.566   0.547 -0.4798  1.1258  3.0289
   79MOL0     H10641   4.882   2.667   0.669  0.2560  1.8861  0.9954
   79MOL0     H10642   4.733   2.746   0.690  0.2762 -0.6235  0.2145
   79MOL0     H10643   4.662   2.549   0.840  0.9975 -2.4218 -0.1333
   79MOL0     H10644   4.819   2.612   0.893 -0.1537  0.6432 -0.2677
   79MOL0     H10645   4.932   2.442   0.774 -0.5299 -0.1312 -0.6179
   79MOL0     H10646   4.781   2.368   0.729 -1.1650  2.5972 -1.7626
   79MOL0     H10647   5.220   2.496   0.025 -0.6570 -0.3100  1.4036
   79MOL0     H10648   5.466   2.488  -0.066 -0.0308 -2.2172  1.6225
   79MOL0     H10649   5.978   2.853   0.117  1.9729  0.6766  1.0592
   79MOL0     H10650   6.164   2.945  -0.027  2.3911 -0.2356 -1.3283
   79MOL0     H10651   7.823   2.656   0.012  0.9204 -0.4161 -0.1854
   79MOL0     H10652   8.014   2.539   0.113 -1.9014 -0.7829  1.2987
   79MOL0     H10653   8.536   2.838   0.325 -4.3319  1.1332  2.5186
   79MOL0     H10654   8.726   2.755   0.444 -0.2198 -0.3484  2.2819
   79MOL0     H10655   8.662   2.372   0.684 -0.0755 -1.0119 -0.9590
   79MOL0     H10656   8.782   2.310   0.571 -1.7822  0.5546 -1.0217
   79MOL0     H10657   8.865   2.335   0.804 -0.1674  1.5951  1.5733
   79MOL0     H10658   8.841   2.506   0.789  1.3077  2.6012 -1.2140
   79MOL0     H10659   9.016   2.532   0.637 -2.2712  0.1181  1.4698
   79MOL0     H10660   9.032   2.360   0.607 -2.5627 -2.0715  1.3099
   79MOL0     H10661   9.211   2.465   0.768 -0.0444  1.1832  0.4957
   79MOL0     H10662   9.128   2.332   0.833 -0.6948  0.7264  0.8451
   79MOL0     H10663   9.056   2.639   1.105  2.0186 -2.0189  1.4221
   79MOL0     H10664   8.515   2.385   0.513 -1.5970  0.3538 -0.0104
   79MOL0     H10665   8.324   2.466   0.412 -0.3489  0.5493 -0.8272
   80MOL0     O10666   1.345   3.346   7.524 -0.0967 -0.2049  0.5065
   80MOL0     C10667   1.345   3.243   7.455  0.1368 -0.4499 -0.5944
   80MOL0     O10668   1.231   3.169   7.439  0.3410  0.3658  0.0753
   80MOL0     C10669   1.104   3.209   7.488 -0.9776  0.0892  0.8465
   80MOL0     C10670   1.005   3.112   7.496  0.1996  0.2620 -0.1820
   80MOL0     C10671   0.870   3.136   7.514 -0.0144  1.0101 -0.4814
   80MOL0     C10672   0.825   3.269   7.541 -0.4812 -0.2296  0.0096
   80MOL0     O10673   0.685   3.290   7.553 -0.1101 -0.0431  0.8603
   80MOL0     C10674   0.649   3.407   7.630  0.3641  0.0692  0.8233
   80MOL0     C10675   0.538   3.369   7.718  0.7769 -0.0476  1.1032
   80MOL0     C10676   0.396   3.383   7.657 -0.9642  0.4575 -0.2501
   80MOL0     C10677   0.364   3.275   7.552 -0.8995 -0.1788  0.4568
   80MOL0     C10678   0.226   3.281   7.494  0.4017  0.2075  0.1621
   80MOL0     C10679   0.190   3.164   7.406 -0.2194 -0.3199  0.5171
   80MOL0     C10680   0.046   3.177   7.377  1.2385  0.6183  0.3892
   80MOL0     C10681   0.006   3.044   7.305 -0.5991  0.5796 -0.3672
   80MOL0     N10682  -0.133   3.046   7.275 -0.2257 -0.3700  0.3464
   80MOL0     C10683  -0.236   3.017   7.363 -0.9416 -0.9899 -0.1537
   80MOL0     C10684  -0.345   3.008   7.280  0.1077 -0.4880  0.0765
   80MOL0     C10685  -0.474   2.961   7.324  0.1728  0.4624 -0.4024
   80MOL0     C10686  -0.584   2.954   7.220 -0.0675 -0.1303  0.2159
   80MOL0     C10687  -0.697   2.881   7.274 -0.3022  0.2684 -0.2755
   80MOL0     C10688  -0.828   2.905   7.193  0.0015  0.8899 -0.1224
   80MOL0     O10689  -0.917   2.794   7.228  0.5923 -0.4585 -0.3939
   80MOL0     C10690  -1.018   2.807   7.325  1.2455  0.1162  0.4618
   80MOL0     C10691  -1.135   2.728   7.318  0.3028 -0.1331 -0.0845
   80MOL0     C10692  -1.247   2.743   7.407  0.3186 -0.8289  1.0314
   80MOL0     C10693  -1.365   2.658   7.388  0.1326 -0.4016 -0.8936
   80MOL0     C10694  -1.227   2.824   7.523  0.0302  0.3148 -0.6082
   80MOL0     C10695  -1.341   2.857   7.618 -0.7337 -0.9322  0.1794
   80MOL0     O10696  -1.469   2.865   7.580 -0.0025 -0.0165  0.6754
   80MOL0     C10697  -1.569   2.899   7.671 -0.2986  0.3744  0.3819
   80MOL0     C10698  -1.654   2.797   7.713  0.0572 -0.4629 -0.2017
   80MOL0     C10699  -1.748   2.827   7.812  0.1701  0.3160  0.6070
   80MOL0     C10700  -1.760   2.957   7.866 -0.6408  0.1825  0.2670
   80MOL0     O10701  -1.837   3.003   7.963 -0.2918 -0.8147 -0.0524
   80MOL0     C10702  -1.940   2.917   8.000  0.9286  1.0007 -0.3897
   80MOL0     C10703  -2.035   2.983   8.099  0.2261 -0.5110  0.2339
   80MOL0     C10704  -2.097   3.111   8.043  0.3287  0.4237 -0.1262
   80MOL0     C10705  -2.207   3.164   8.129 -0.6727 -0.3527 -0.8116
   80MOL0     C10706  -2.274   3.292   8.075  0.4165 -0.2762 -0.2973
   80MOL0     C10707  -2.391   3.347   8.175  0.8958  0.3374 -0.1908
   80MOL0     C10708  -2.440   3.485   8.131 -0.8391 -0.7559 -0.4317
   80MOL0     C10709  -2.554   3.540   8.218  0.0185 -0.3062  0.1366
   80MOL0    Cl10710  -2.539   3.511   8.400  0.0217 -0.2453 -0.1058
   80MOL0     C10711  -1.666   3.050   7.826  0.5320 -0.6213  0.8247
   80MOL0     C10712  -1.572   3.026   7.727  0.1178  0.7456  0.3003
   80MOL0     O10713  -1.307   2.883   7.734  0.3409 -0.2116 -0.3347
   80MOL0     C10714  -1.109   2.900   7.538 -0.2044  0.8140 -0.2798
   80MOL0     C10715  -1.015   2.902   7.433 -0.1235  0.4091  0.2730
   80MOL0     N10716  -0.304   3.030   7.149  0.2692  0.1351  0.0270
   80MOL0     N10717  -0.177   3.050   7.149 -0.3085 -0.9739  0.5004
   80MOL0     C10718   0.921   3.370   7.530 -0.3223 -0.1653  0.2948
   80MOL0     C10719   1.061   3.342   7.508 -0.0902  0.2065 -0.9958
   80MOL0     C10720   1.468   3.200   7.395  0.2149 -0.3544 -0.1335
   80MOL0     C10721   1.460   3.123   7.282 -1.0722  0.2426  0.0549
   80MOL0     C10722   1.572   3.075   7.207 -0.1257 -0.5742  0.6667
   80MOL0     C10723   1.693   3.127   7.236  0.1791  0.0837  0.6955
   80MOL0     O10724   1.791   3.100   7.146  0.4937 -0.1748 -0.5767
   80MOL0     C10725   1.918   3.090   7.212 -0.2187  0.3978  0.0799
   80MOL0     C10726   2.020   3.010   7.143  0.2071 -0.1420 -0.2477
   80MOL0     C10727   2.082   3.083   7.022  0.3305  0.1889 -1.2447
   80MOL0     C10728   2.007   3.040   6.888  0.2776 -0.2053 -1.1390
   80MOL0     C10729   2.084   3.099   6.781  1.0999  0.0836  0.0458
   80MOL0     C10730   2.138   3.132   6.680  0.6952 -0.4629  0.2286
   80MOL0     C10731   1.707   3.209   7.347  0.5147 -0.0910  0.1888
   80MOL0     C10732   1.593   3.257   7.418  0.2488 -0.2604 -0.3712
   80MOL0     H10733   1.041   3.011   7.482  1.1873  0.5774 -0.0417
   80MOL0     H10734   0.798   3.055   7.505  0.1434  0.9850 -1.6590
   80MOL0     H10735   0.733   3.438   7.693  0.6545 -0.6255  0.7756
   80MOL0     H10736   0.629   3.490   7.560  3.8518 -1.0000 -1.6707
   80MOL0     H10737   0.548   3.263   7.743 -0.2583 -0.7420 -1.1884
   80MOL0     H10738   0.536   3.424   7.813 -1.4973 -0.9188  1.6178
   80MOL0     H10739   0.318   3.369   7.732 -1.0388 -0.8040 -0.5493
   80MOL0     H10740   0.382   3.482   7.612  2.5653  1.9986  1.6236
   80MOL0     H10741   0.432   3.289   7.468 -1.3038 -1.8861 -0.1946
   80MOL0     H10742   0.390   3.180   7.601  3.2595 -0.3977 -1.6626
   80MOL0     H10743   0.155   3.275   7.577  1.0968 -0.8975  0.6827
   80MOL0     H10744   0.218   3.381   7.448 -0.5943  0.7969  1.5339
   80MOL0     H10745   0.245   3.170   7.311  0.4220  0.9068  0.9421
   80MOL0     H10746   0.223   3.073   7.457  2.1554  2.7990  5.3218
   80MOL0     H10747  -0.009   3.191   7.471 -0.0974 -0.0155 -0.2766
   80MOL0     H10748   0.018   3.259   7.310 -2.9171  2.0631  3.4804
   80MOL0     H10749   0.029   2.956   7.366  0.3813  1.0108 -0.0856
   80MOL0     H10750   0.068   3.043   7.215 -0.2997  2.4330 -0.2313
   80MOL0     H10751  -0.226   2.988   7.467 -1.4569  0.7109  0.3974
   80MOL0     H10752  -0.459   2.862   7.369  0.2576  0.3494 -0.6777
   80MOL0     H10753  -0.506   3.027   7.406 -0.3239 -0.5076  0.2109
   80MOL0     H10754  -0.554   2.899   7.131  0.6591  0.0155  0.3673
   80MOL0     H10755  -0.609   3.054   7.183  0.8288 -1.0039 -3.0866
   80MOL0     H10756  -0.711   2.899   7.381 -0.0279 -0.5989 -0.0910
   80MOL0     H10757  -0.661   2.778   7.272  1.1584  0.7404 -2.6537
   80MOL0     H10758  -0.814   2.904   7.084  1.6449  0.3940  0.0690
   80MOL0     H10759  -0.873   3.002   7.213 -0.9873  0.4456 -0.1262
   80MOL0     H10760  -1.140   2.653   7.239  0.0733  0.9380 -1.1168
   80MOL0     H10761  -1.339   2.569   7.331  0.5677 -2.6213  2.4884
   80MOL0     H10762  -1.390   2.615   7.485  2.8087  0.7261  0.3910
   80MOL0     H10763  -1.446   2.721   7.349  0.0459  1.9384  2.6351
   80MOL0     H10764  -1.653   2.700   7.663 -0.7087 -0.1147 -0.8975
   80MOL0     H10765  -1.826   2.760   7.847  1.3740 -1.9102 -0.7930
   80MOL0     H10766  -2.004   2.890   7.915  0.1705 -0.8133  0.7184
   80MOL0     H10767  -1.895   2.825   8.037  2.5701  1.0934 -1.9697
   80MOL0     H10768  -2.105   2.902   8.123  0.3311  0.1849  3.3730
   80MOL0     H10769  -1.981   3.018   8.188  3.0297 -1.7815 -0.8375
   80MOL0     H10770  -2.133   3.099   7.941  0.1703  2.2030 -0.3097
   80MOL0     H10771  -2.021   3.190   8.043 -0.0714  0.8602 -1.9799
   80MOL0     H10772  -2.276   3.080   8.140  1.1615 -1.5903  3.2330
   80MOL0     H10773  -2.163   3.193   8.225 -2.8937  1.7079 -0.3186
   80MOL0     H10774  -2.322   3.268   7.980 -0.3673  0.3125 -0.0559
   80MOL0     H10775  -2.199   3.367   8.049  0.6709 -0.5420 -0.3459
   80MOL0     H10776  -2.472   3.276   8.192  0.7352  0.6575  0.3984
   80MOL0     H10777  -2.345   3.354   8.274 -0.2464  0.5666  0.3340
   80MOL0     H10778  -2.477   3.483   8.028  0.3621 -0.8389 -0.8822
   80MOL0     H10779  -2.358   3.558   8.129 -0.8211 -0.7907 -1.0069
   80MOL0     H10780  -2.648   3.501   8.178  0.4320 -1.1510 -0.0270
   80MOL0     H10781  -2.570   3.648   8.206  0.0785 -0.3398 -0.2691
   80MOL0     H10782  -1.677   3.153   7.859 -2.3879 -0.3586 -0.6146
   80MOL0     H10783  -1.498   3.100   7.702  2.4647 -1.7670 -0.6681
   80MOL0     H10784  -1.097   2.954   7.631 -0.3314 -1.2527  0.9763
   80MOL0     H10785  -0.923   2.960   7.432  0.4577 -0.4866 -0.1198
   80MOL0     H10786   0.881   3.470   7.547 -0.6639  0.0145 -1.3979
   80MOL0     H10787   1.122   3.429   7.488  1.6264 -0.7945 -0.3716
   80MOL0     H10788   1.367   3.085   7.241 -1.0326 -1.4122  1.3753
   80MOL0     H10789   1.563   3.001   7.128 -1.2276  0.9872 -0.7186
   80MOL0     H10790   1.954   3.193   7.217 -0.3685  0.4818 -0.4917
   80MOL0     H10791   1.904   3.055   7.315 -0.3151  1.1411  0.3260
   80MOL0     H10792   1.970   2.922   7.102  0.6254  0.3182 -1.8390
   80MOL0     H10793   2.110   2.984   7.200  1.3175 -1.2706 -2.3590
   80MOL0     H10794   2.181   3.039   7.014  1.0449  1.2024  1.2094
   80MOL0     H10795   2.072   3.192   7.030  0.1380  0.1294 -0.6717
   80MOL0     H10796   1.902   3.072   6.886  0.4794  0.4501 -3.6330
   80MOL0     H10797   2.005   2.933   6.867 -2.5810 -1.2865  3.2089
   80MOL0     H10798   2.204   3.149   6.597  2.8208 -2.5012  1.4055
   80MOL0     H10799   1.798   3.262   7.375  1.3277 -2.6636  2.8683
   80MOL0     H10800   1.601   3.333   7.495  0.1258 -1.0246  0.4124
   81MOL0     O10801   7.527   5.960   5.255  0.0823  0.1382  0.3395
   81MOL0     C10802   7.506   5.992   5.371  0.4924  0.5873  0.0611
   81MOL0     O10803   7.382   6.033   5.411 -0.6518  0.0636 -0.0160
   81MOL0     C10804   7.302   6.101   5.328 -0.3496  0.8591  0.0309
   81MOL0     C10805   7.161   6.092   5.333  0.2924  0.4557  0.1698
   81MOL0     C10806   7.080   6.161   5.238  0.0444 -0.2915 -1.0919
   81MOL0     C10807   7.139   6.248   5.146  0.7075 -0.6239  0.3651
   81MOL0     O10808   7.070   6.316   5.042 -0.0677 -0.2315 -0.3853
   81MOL0     C10809   6.926   6.287   5.030 -0.2044 -0.4057 -0.4955
   81MOL0     C10810   6.857   6.401   5.105  0.2447 -0.6510  0.4067
   81MOL0     C10811   6.703   6.387   5.104 -0.3822 -0.5973 -0.2525
   81MOL0     C10812   6.634   6.512   5.155 -0.0430 -0.5597  0.7155
   81MOL0     C10813   6.484   6.492   5.159 -0.4693 -0.1803  0.2733
   81MOL0     C10814   6.417   6.629   5.188 -0.4776 -0.2123 -0.2818
   81MOL0     C10815   6.277   6.623   5.152 -0.2943 -0.2360  0.0615
   81MOL0     C10816   6.207   6.760   5.165 -0.2963 -0.4503  0.4697
   81MOL0     N10817   6.059   6.741   5.178 -0.4565  0.3079  0.1292
   81MOL0     C10818   5.983   6.655   5.106  0.0014 -0.2148 -0.3477
   81MOL0     C10819   5.860   6.667   5.163  0.0191  0.2171  0.0585
   81MOL0     C10820   5.730   6.605   5.115  0.7634  0.1785  0.3564
   81MOL0     C10821   5.653   6.697   5.021 -0.1096 -0.1105  0.1028
   81MOL0     C10822   5.595   6.828   5.082 -0.0953  0.2485  0.1201
   81MOL0     C10823   5.498   6.896   4.989 -0.1435  0.2264 -0.4556
   81MOL0     O10824   5.380   6.819   4.951  0.5513 -0.5126 -0.1279
   81MOL0     C10825   5.294   6.867   4.852 -0.7515 -0.5807 -0.0961
   81MOL0     C10826   5.205   6.776   4.805 -0.7284 -0.5295 -0.1211
   81MOL0     C10827   5.105   6.800   4.709  0.6883 -0.0417  0.1431
   81MOL0     C10828   4.997   6.699   4.670 -0.4541 -1.0095  0.2858
   81MOL0     C10829   5.094   6.939   4.670  0.4641 -0.5353 -0.0871
   81MOL0     C10830   4.978   6.985   4.583  0.0657  0.3509 -0.0367
   81MOL0     O10831   4.850   6.944   4.601 -0.3189  0.8475 -0.3330
   81MOL0     C10832   4.743   6.993   4.531 -0.1056 -0.1195  0.3504
   81MOL0     C10833   4.731   7.052   4.397 -0.8017  0.2694 -0.5156
   81MOL0     C10834   4.606   7.085   4.350  0.0814  0.2506  1.1641
   81MOL0     C10835   4.489   7.069   4.426  0.8630  0.5430 -0.7759
   81MOL0     O10836   4.370   7.122   4.371 -0.3108  0.2759  0.3393
   81MOL0     C10837   4.251   7.126   4.450  0.0721 -0.3820 -0.3090
   81MOL0     C10838   4.219   7.272   4.484  0.0774 -0.1112  0.0253
   81MOL0     C10839   4.304   7.339   4.590 -0.7784  0.5278 -0.1111
   81MOL0     C10840   4.449   7.379   4.551  0.0411 -0.0519  0.4285
   81MOL0     C10841   4.524   7.437   4.679  0.0255 -0.1590 -0.4300
   81MOL0     C10842   4.669   7.394   4.693  0.1526 -0.2951  0.3278
   81MOL0     C10843   4.752   7.445   4.581 -0.8445 -0.6746 -0.0262
   81MOL0     C10844   4.896   7.387   4.583  0.2732  0.0389  0.9186
   81MOL0    Cl10845   4.984   7.432   4.734 -0.5680 -0.2522 -0.0596
   81MOL0     C10846   4.501   7.003   4.551 -0.5054  0.1888  0.1880
   81MOL0     C10847   4.624   6.960   4.599 -0.5446 -0.4787 -0.1690
   81MOL0     O10848   5.011   7.064   4.497  1.0470 -0.2003  0.3621
   81MOL0     C10849   5.196   7.027   4.705 -0.1406  0.0397 -1.0838
   81MOL0     C10850   5.293   6.995   4.797  0.1825 -0.6447  0.2037
   81MOL0     N10851   5.868   6.760   5.259 -0.3662  0.0041 -0.1561
   81MOL0     N10852   5.994   6.799   5.276  0.0895 -0.2003 -0.6232
   81MOL0     C10853   7.274   6.259   5.133 -0.1254 -0.7307 -0.4618
   81MOL0     C10854   7.356   6.190   5.225 -0.2741 -0.4251 -0.6428
   81MOL0     C10855   7.586   5.943   5.486 -0.3074  0.6668  0.1588
   81MOL0     C10856   7.558   5.979   5.619 -0.3471  0.2193 -0.8036
   81MOL0     C10857   7.623   5.910   5.722 -0.2587 -0.4092  0.0281
   81MOL0     C10858   7.733   5.828   5.692 -0.2024 -0.1829 -0.2279
   81MOL0     O10859   7.808   5.793   5.801  0.1826  0.6958 -0.0625
   81MOL0     C10860   7.940   5.736   5.770  0.0606  0.1747  0.1401
   81MOL0     C10861   7.925   5.578   5.754  0.3048 -0.3660 -0.7198
   81MOL0     C10862   8.066   5.522   5.750 -0.3781  0.1894 -0.9304
   81MOL0     C10863   8.054   5.366   5.780  0.4537  0.3535  0.5472
   81MOL0     C10864   8.152   5.287   5.709 -0.7953 -0.2354 -0.3281
   81MOL0     C10865   8.248   5.230   5.658  0.5782 -0.2720  0.1447
   81MOL0     C10866   7.769   5.806   5.561  0.4456  0.1663  0.5981
   81MOL0     C10867   7.695   5.858   5.457  1.2597 -0.1870  0.2204
   81MOL0     H10868   7.117   6.028   5.409 -2.2445  2.2419  0.3194
   81MOL0     H10869   6.973   6.144   5.238  0.4057 -3.9087  1.8325
   81MOL0     H10870   6.905   6.292   4.923  1.1034  0.5908 -0.7334
   81MOL0     H10871   6.897   6.185   5.054 -0.9743 -0.2289 -0.6573
   81MOL0     H10872   6.897   6.407   5.207  0.9619  2.7753  0.0534
   81MOL0     H10873   6.882   6.500   5.066  1.5541  0.1455  3.0096
   81MOL0     H10874   6.677   6.354   5.003 -0.1207  0.5521 -0.7149
   81MOL0     H10875   6.675   6.302   5.167  1.4370 -0.4182  0.8720
   81MOL0     H10876   6.677   6.545   5.249  5.2106  0.2401 -1.6192
   81MOL0     H10877   6.656   6.590   5.081 -1.8334  0.1949  0.9182
   81MOL0     H10878   6.468   6.468   5.053  0.5824  4.6530 -1.2643
   81MOL0     H10879   6.451   6.405   5.215 -1.4502 -1.9346 -2.7606
   81MOL0     H10880   6.435   6.635   5.295  2.9510  2.4733 -0.8036
   81MOL0     H10881   6.461   6.712   5.131  2.2884 -2.1069 -1.0715
   81MOL0     H10882   6.260   6.584   5.051 -3.4278 -0.4484  0.5535
   81MOL0     H10883   6.224   6.557   5.221 -1.2041  0.7239  0.3150
   81MOL0     H10884   6.225   6.825   5.079 -2.2082  0.5094  0.7394
   81MOL0     H10885   6.245   6.814   5.253 -0.5482  1.9581 -0.8083
   81MOL0     H10886   6.011   6.579   5.034 -0.1774 -0.0718 -0.5689
   81MOL0     H10887   5.762   6.508   5.076 -0.2563  0.2803 -0.7871
   81MOL0     H10888   5.661   6.577   5.196  0.7342 -0.3771  0.1438
   81MOL0     H10889   5.566   6.634   4.997 -0.4538  0.1726  0.5901
   81MOL0     H10890   5.703   6.717   4.926 -0.6136 -1.4238 -0.4682
   81MOL0     H10891   5.675   6.899   5.105 -1.3853  1.4842  0.9227
   81MOL0     H10892   5.546   6.803   5.177  1.4651  0.3148  0.9690
   81MOL0     H10893   5.553   6.915   4.897  1.4381 -2.0571 -0.0829
   81MOL0     H10894   5.464   6.989   5.036 -3.3993 -0.0872 -1.8970
   81MOL0     H10895   5.220   6.678   4.850 -0.8005 -0.3049  0.3962
   81MOL0     H10896   4.898   6.710   4.714 -1.0910 -2.1802 -0.7538
   81MOL0     H10897   4.976   6.704   4.562 -0.1561  1.9086  0.3028
   81MOL0     H10898   5.034   6.601   4.702 -1.3344 -2.0940 -1.7693
   81MOL0     H10899   4.817   7.062   4.332 -0.2222 -0.2360  0.1517
   81MOL0     H10900   4.589   7.128   4.252 -1.8061 -1.4248  0.7012
   81MOL0     H10901   4.164   7.091   4.394 -0.8401 -0.8724  1.3599
   81MOL0     H10902   4.261   7.078   4.548  0.8386 -3.1092 -1.6247
   81MOL0     H10903   4.233   7.325   4.390  1.7303 -1.5138 -0.5982
   81MOL0     H10904   4.114   7.288   4.509  0.6203  2.9576  0.7174
   81MOL0     H10905   4.318   7.262   4.665 -0.8875  0.3585 -0.2641
   81MOL0     H10906   4.253   7.429   4.626  0.3529  1.2225 -0.2045
   81MOL0     H10907   4.502   7.285   4.529  2.2991  0.4657  3.0331
   81MOL0     H10908   4.448   7.441   4.462  0.6155  1.4730  1.4398
   81MOL0     H10909   4.474   7.404   4.771  0.4656  1.6859  0.5355
   81MOL0     H10910   4.514   7.546   4.675 -1.1170 -0.0670  2.5095
   81MOL0     H10911   4.715   7.445   4.778 -2.6136  1.0255  1.1475
   81MOL0     H10912   4.681   7.285   4.701 -1.6320 -0.5349  0.2347
   81MOL0     H10913   4.751   7.554   4.589  0.2585 -0.7352  1.6746
   81MOL0     H10914   4.700   7.424   4.487 -1.2924  0.7009 -0.1020
   81MOL0     H10915   4.947   7.426   4.494 -0.8315 -1.9537 -0.6430
   81MOL0     H10916   4.907   7.279   4.574  1.7134  0.0317  2.2180
   81MOL0     H10917   4.421   6.995   4.624  1.3409  0.2241  2.3504
   81MOL0     H10918   4.632   6.907   4.692  0.9585  0.8267  0.4835
   81MOL0     H10919   5.200   7.122   4.653  2.3111 -0.9392 -2.8851
   81MOL0     H10920   5.365   7.071   4.827 -0.3281 -0.8641  2.1242
   81MOL0     H10921   7.323   6.321   5.058  0.5042  0.9319  1.2340
   81MOL0     H10922   7.464   6.197   5.224 -0.3010  0.1817  0.0238
   81MOL0     H10923   7.481   6.052   5.643  1.4341  1.5853  1.1609
   81MOL0     H10924   7.598   5.935   5.825  1.4420  2.7835 -0.2268
   81MOL0     H10925   8.000   5.789   5.696  4.1143 -2.4643  1.1912
   81MOL0     H10926   8.014   5.745   5.850  1.4892 -0.5572 -1.0545
   81MOL0     H10927   7.874   5.561   5.659 -0.7293  1.2054 -0.4888
   81MOL0     H10928   7.856   5.538   5.828 -2.7793 -2.4632 -4.3571
   81MOL0     H10929   8.124   5.572   5.828 -1.2234  0.0308 -0.1905
   81MOL0     H10930   8.116   5.535   5.653 -0.1999  0.5724 -0.7884
   81MOL0     H10931   7.960   5.326   5.742 -0.0516  1.1149  0.9556
   81MOL0     H10932   8.036   5.352   5.887  0.9394 -0.2362  0.5528
   81MOL0     H10933   8.346   5.197   5.630  0.1303 -2.7531  1.2604
   81MOL0     H10934   7.856   5.745   5.538  1.3182  0.5085  2.7402
   81MOL0     H10935   7.719   5.827   5.356 -0.7347 -1.8956  0.1935
   82MOL0     O10936   7.086   1.309   6.691 -0.7772 -0.2062 -0.3848
   82MOL0     C10937   7.163   1.228   6.748 -0.6211 -0.0798  0.9074
   82MOL0     O10938   7.122   1.126   6.834  0.4336  0.0710  1.0861
   82MOL0     C10939   6.994   1.071   6.838  0.4375 -0.7039 -0.5451
   82MOL0     C10940   6.871   1.139   6.817 -0.7258 -0.0316  0.3410
   82MOL0     C10941   6.748   1.077   6.826 -0.0704  1.0820 -0.0449
   82MOL0     C10942   6.742   0.933   6.854 -0.0058 -0.3091 -0.3050
   82MOL0     O10943   6.627   0.867   6.863  0.1141  0.5938  0.7961
   82MOL0     C10944   6.534   0.876   6.753  0.3074 -0.2408 -0.3229
   82MOL0     C10945   6.402   0.913   6.813  0.1410 -0.4587 -0.2979
   82MOL0     C10946   6.375   1.061   6.850  0.2764 -0.6639  1.2286
   82MOL0     C10947   6.222   1.089   6.890  0.0590  0.3634  1.1649
   82MOL0     C10948   6.202   1.234   6.944 -0.5004  0.3164  0.1546
   82MOL0     C10949   6.232   1.340   6.827 -1.1758 -0.0164 -0.3948
   82MOL0     C10950   6.155   1.328   6.693 -0.4714 -0.0866 -0.0355
   82MOL0     C10951   6.010   1.327   6.701 -0.2523 -0.1238 -0.5856
   82MOL0     N10952   5.945   1.434   6.778  0.3172  0.6858 -0.4660
   82MOL0     C10953   5.932   1.568   6.752  0.0690  0.1809 -0.5221
   82MOL0     C10954   5.838   1.613   6.842 -0.5802 -0.7110  0.5980
   82MOL0     C10955   5.796   1.760   6.852  1.0881  0.4295 -0.3995
   82MOL0     C10956   5.672   1.798   6.769 -0.5485  0.2156 -0.7884
   82MOL0     C10957   5.544   1.755   6.845 -0.8331  1.0094  0.1834
   82MOL0     C10958   5.415   1.790   6.774 -0.4281  0.0254 -0.2198
   82MOL0     O10959   5.406   1.933   6.797  0.5929  0.1709 -0.1125
   82MOL0     C10960   5.277   1.976   6.825 -0.5802 -0.1687  0.3596
   82MOL0     C10961   5.256   2.042   6.940  0.3153  0.2823  0.5568
   82MOL0     C10962   5.126   2.099   6.973 -0.5250  1.5395 -0.8978
   82MOL0     C10963   5.102   2.146   7.115 -0.4464 -0.0964  0.3568
   82MOL0     C10964   5.032   2.097   6.869  0.2885  0.6235 -0.2339
   82MOL0     C10965   4.889   2.150   6.876  0.0245  0.6155 -0.4613
   82MOL0     O10966   4.803   2.102   6.782  0.0817  0.0066 -0.1040
   82MOL0     C10967   4.669   2.140   6.788  0.1673  0.3071  0.3318
   82MOL0     C10968   4.606   2.163   6.908 -0.3226  0.3661 -0.4686
   82MOL0     C10969   4.471   2.184   6.914  0.2662 -0.3516 -0.8575
   82MOL0     C10970   4.388   2.193   6.800 -0.3230  0.2517 -0.6269
   82MOL0     O10971   4.261   2.236   6.823 -0.1795  0.6090 -0.1521
   82MOL0     C10972   4.196   2.296   6.704  0.4582 -0.3419  0.0206
   82MOL0     C10973   4.072   2.389   6.733 -0.2769  0.2689 -0.3774
   82MOL0     C10974   3.946   2.309   6.783  0.1296 -0.9377  0.5584
   82MOL0     C10975   3.833   2.403   6.836 -1.0673  0.2305  0.3014
   82MOL0     C10976   3.746   2.458   6.721  0.5430  1.2662  0.4435
   82MOL0     C10977   3.632   2.349   6.694 -0.4925  0.1369  0.3869
   82MOL0     C10978   3.551   2.387   6.576  0.2939 -0.5130 -0.1159
   82MOL0     C10979   3.453   2.284   6.528 -0.7186 -0.0227  0.3778
   82MOL0    Cl10980   3.356   2.190   6.651 -0.1612 -0.1261 -0.0551
   82MOL0     C10981   4.458   2.179   6.673  0.5605  0.1312  0.4880
   82MOL0     C10982   4.602   2.156   6.670  0.2101  0.1603 -0.1734
   82MOL0     O10983   4.879   2.255   6.935 -0.0300 -0.9194 -0.6059
   82MOL0     C10984   5.063   2.031   6.749  0.6800 -0.5505  0.1826
   82MOL0     C10985   5.177   1.965   6.727 -0.3516 -0.0567  0.3581
   82MOL0     N10986   5.799   1.510   6.923 -0.7551  0.5836 -0.0884
   82MOL0     N10987   5.866   1.405   6.884  0.1503  0.0710  0.5117
   82MOL0     C10988   6.857   0.866   6.876 -1.1392  0.4967 -0.0361
   82MOL0     C10989   6.983   0.939   6.872  0.5543  1.0382  0.3901
   82MOL0     C10990   7.302   1.228   6.708  0.3935 -0.6527 -0.1369
   82MOL0     C10991   7.357   1.328   6.622  0.0916  0.6751 -0.6551
   82MOL0     C10992   7.495   1.328   6.588  0.3043 -0.3670 -0.8855
   82MOL0     C10993   7.581   1.238   6.651 -0.0273 -0.1437 -0.7435
   82MOL0     O10994   7.714   1.253   6.617 -0.0586  0.3470  0.2856
   82MOL0     C10995   7.815   1.153   6.650  0.3095  0.3048 -0.4600
   82MOL0     C10996   7.799   1.045   6.544  0.1140  0.5903  0.6108
   82MOL0     C10997   7.912   1.041   6.444  0.3235  0.9564  0.3557
   82MOL0     C10998   7.890   1.157   6.340 -0.3451 -0.6055  0.8756
   82MOL0     C10999   7.812   1.116   6.221  0.2871  0.0595 -0.2464
   82MOL0     C11000   7.758   1.065   6.128 -0.4646 -0.5668  0.4319
   82MOL0     C11001   7.525   1.140   6.739 -0.1886 -1.1465 -0.8503
   82MOL0     C11002   7.389   1.134   6.761 -0.0666  0.3897 -1.0104
   82MOL0     H11003   6.875   1.246   6.801  0.2651 -0.1566 -0.3228
   82MOL0     H11004   6.656   1.129   6.801 -0.9871  0.2235  1.3900
   82MOL0     H11005   6.567   0.949   6.678  0.1363  0.0372 -0.1293
   82MOL0     H11006   6.515   0.782   6.701 -2.6596  0.5443 -0.8787
   82MOL0     H11007   6.325   0.883   6.741 -0.3744  0.4057 -0.1295
   82MOL0     H11008   6.387   0.859   6.907 -0.1876  3.0225  1.8371
   82MOL0     H11009   6.434   1.089   6.938 -0.1337  3.2187  0.4597
   82MOL0     H11010   6.390   1.123   6.761 -2.2574 -1.4732  0.1509
   82MOL0     H11011   6.154   1.065   6.808  1.8852 -1.4173  0.0758
   82MOL0     H11012   6.192   1.023   6.972  0.3847  0.3583  1.2826
   82MOL0     H11013   6.103   1.246   6.989 -0.6529  0.2243 -0.1500
   82MOL0     H11014   6.279   1.243   7.021 -1.5863  0.2713  1.2756
   82MOL0     H11015   6.214   1.438   6.872  2.1085 -0.5490  2.4857
   82MOL0     H11016   6.339   1.335   6.803 -1.4122 -3.5456 -1.2387
   82MOL0     H11017   6.172   1.420   6.637 -1.0878  1.1832  1.7760
   82MOL0     H11018   6.202   1.249   6.634 -3.1635 -1.6948 -0.1990
   82MOL0     H11019   5.972   1.231   6.738  1.0494 -0.3383  0.2597
   82MOL0     H11020   5.966   1.345   6.602 -0.7315  5.3981  0.2812
   82MOL0     H11021   5.991   1.615   6.674  1.1269  0.7669  0.5963
   82MOL0     H11022   5.774   1.784   6.957  1.0063  0.1550 -0.3525
   82MOL0     H11023   5.878   1.827   6.826 -0.1289  3.0690  2.0267
   82MOL0     H11024   5.675   1.756   6.667  0.5708  0.2104 -0.7643
   82MOL0     H11025   5.666   1.907   6.769  0.3798  0.4306  3.3071
   82MOL0     H11026   5.535   1.790   6.948 -3.1688 -0.0563  0.3964
   82MOL0     H11027   5.557   1.648   6.864  1.2128  1.5497  2.4200
   82MOL0     H11028   5.340   1.736   6.833 -0.4033  2.0521  1.8212
   82MOL0     H11029   5.408   1.753   6.671 -0.4952 -2.9858  0.7702
   82MOL0     H11030   5.333   2.058   7.014  0.0268 -1.3323  1.2462
   82MOL0     H11031   5.006   2.110   7.152 -1.6887  1.6140 -1.0602
   82MOL0     H11032   5.180   2.111   7.183  0.0460  0.7952  0.2625
   82MOL0     H11033   5.094   2.255   7.125 -0.1339 -0.1825  1.7302
   82MOL0     H11034   4.666   2.163   6.998 -1.4734  0.2413  0.3145
   82MOL0     H11035   4.426   2.214   7.008  2.3378  1.4718 -0.3631
   82MOL0     H11036   4.272   2.365   6.664  0.1268 -0.1910 -0.3569
   82MOL0     H11037   4.168   2.219   6.632 -1.2394 -1.7713  2.0672
   82MOL0     H11038   4.104   2.464   6.806 -1.0559  0.8768 -0.6447
   82MOL0     H11039   4.040   2.436   6.640 -3.4612 -2.0610 -0.6550
   82MOL0     H11040   3.978   2.252   6.870 -0.1258 -0.7914  0.7518
   82MOL0     H11041   3.916   2.248   6.697 -0.5196  0.0111  0.0787
   82MOL0     H11042   3.775   2.358   6.917  0.1475  2.1176  2.3462
   82MOL0     H11043   3.886   2.482   6.890 -0.3301  0.5323 -0.8115
   82MOL0     H11044   3.802   2.487   6.632  0.3168 -0.0778 -0.1716
   82MOL0     H11045   3.692   2.546   6.757 -2.4514 -0.9164  1.7662
   82MOL0     H11046   3.674   2.249   6.681 -1.6444 -0.2595 -0.4823
   82MOL0     H11047   3.566   2.346   6.781 -0.1420 -0.4997  0.6314
   82MOL0     H11048   3.617   2.401   6.490  0.2265  2.5520  0.2205
   82MOL0     H11049   3.500   2.478   6.606 -0.0512 -0.7976  0.1731
   82MOL0     H11050   3.511   2.221   6.459 -0.6466  2.0173 -1.5361
   82MOL0     H11051   3.382   2.337   6.463 -0.6580  0.1618  0.4631
   82MOL0     H11052   4.401   2.194   6.582 -2.0309 -0.8623  1.8447
   82MOL0     H11053   4.648   2.146   6.573 -1.3121 -3.5482 -0.6920
   82MOL0     H11054   5.002   2.023   6.660  1.8821 -0.6704 -0.6507
   82MOL0     H11055   5.196   1.898   6.644 -0.9771 -0.1879  0.3201
   82MOL0     H11056   6.855   0.761   6.901  1.3744  0.6125  0.9997
   82MOL0     H11057   7.073   0.881   6.881 -0.6367 -0.9502  0.0743
   82MOL0     H11058   7.292   1.408   6.588 -0.9524  0.4478  0.7483
   82MOL0     H11059   7.526   1.407   6.521  2.3416 -1.2960 -1.1205
   82MOL0     H11060   7.907   1.210   6.635  3.0554 -3.1173  1.6853
   82MOL0     H11061   7.799   1.113   6.750  0.6625 -0.5408 -0.7330
   82MOL0     H11062   7.695   1.042   6.510 -0.8611  0.0609  3.3924
   82MOL0     H11063   7.814   0.948   6.592 -2.7031 -0.0851  0.2984
   82MOL0     H11064   7.908   0.945   6.391  2.6242  0.3766  1.1242
   82MOL0     H11065   8.008   1.055   6.495 -0.7404  4.0198  1.7485
   82MOL0     H11066   7.990   1.189   6.307 -0.3182 -1.3535  0.2018
   82MOL0     H11067   7.834   1.239   6.385  1.0545 -0.1400  1.8229
   82MOL0     H11068   7.712   1.039   6.036 -0.4185 -0.6119  0.4216
   82MOL0     H11069   7.582   1.068   6.796 -1.9665  0.2401  3.0529
   82MOL0     H11070   7.352   1.062   6.833  0.7417 -0.1170 -1.0955
   83MOL0     O11071  10.076   2.714   9.976 -0.8580 -0.1611  0.2807
   83MOL0     C11072  10.178   2.746   9.917 -0.8905 -0.9239  0.1451
   83MOL0     O11073  10.184   2.769   9.776  0.2202  0.3906  0.1749
   83MOL0     C11074  10.061   2.742   9.719  0.1746 -0.4780 -0.2572
   83MOL0     C11075   9.972   2.841   9.691 -0.8505  0.2223  0.1454
   83MOL0     C11076   9.854   2.813   9.633 -0.3550  0.3570  0.5759
   83MOL0     C11077   9.808   2.679   9.608  0.1613  0.0615  0.6539
   83MOL0     O11078   9.684   2.660   9.544 -0.4993  0.3655  0.9830
   83MOL0     C11079   9.649   2.531   9.505  0.4311 -0.1631 -0.0841
   83MOL0     C11080   9.499   2.525   9.486  0.3928  0.0175 -0.6470
   83MOL0     C11081   9.440   2.384   9.473 -0.6628 -0.0199 -0.4333
   83MOL0     C11082   9.292   2.395   9.464  0.2894  0.9709 -0.4388
   83MOL0     C11083   9.222   2.258   9.443  0.0322  0.2768  0.3361
   83MOL0     C11084   9.069   2.292   9.425  0.3970 -0.6571  0.0686
   83MOL0     C11085   8.982   2.174   9.390 -0.5665  0.8288  0.5575
   83MOL0     C11086   8.839   2.219   9.378  0.4487 -0.2156 -0.2011
   83MOL0     N11087   8.759   2.109   9.316 -0.1654  0.4164 -0.7753
   83MOL0     C11088   8.698   2.006   9.390 -0.2608 -0.1091  0.0832
   83MOL0     C11089   8.598   1.965   9.308  0.4613 -0.5449  0.9957
   83MOL0     C11090   8.495   1.848   9.333 -0.1112 -0.2879  0.1839
   83MOL0     C11091   8.426   1.801   9.207  0.4092  0.4369  0.1148
   83MOL0     C11092   8.323   1.692   9.229  0.7063  0.0176 -0.1335
   83MOL0     C11093   8.258   1.658   9.097 -0.5994 -1.2698 -0.4053
   83MOL0     O11094   8.129   1.611   9.126  0.1397 -0.1318  0.3591
   83MOL0     C11095   8.056   1.572   9.024 -0.2954  0.1782  0.2264
   83MOL0     C11096   8.096   1.565   8.891 -0.5118 -0.0520 -0.1540
   83MOL0     C11097   8.008   1.515   8.792 -0.4442  0.3747  0.7453
   83MOL0     C11098   8.063   1.521   8.653 -0.4819 -1.0091 -0.9362
   83MOL0     C11099   7.876   1.482   8.834  0.0322  0.2317  0.3253
   83MOL0     C11100   7.769   1.447   8.737 -0.6202 -0.8226 -1.1097
   83MOL0     O11101   7.674   1.372   8.798  0.1981  0.3883 -0.4438
   83MOL0     C11102   7.560   1.328   8.735 -0.0260 -0.2878 -0.2193
   83MOL0     C11103   7.438   1.372   8.782 -0.4833  0.3342  0.0323
   83MOL0     C11104   7.317   1.322   8.727 -0.0548  0.9335  0.1567
   83MOL0     C11105   7.318   1.233   8.619  0.4380  0.2385 -0.9142
   83MOL0     O11106   7.205   1.198   8.544  0.7203  0.1923  0.3552
   83MOL0     C11107   7.111   1.309   8.537 -0.1698  0.6535  0.4486
   83MOL0     C11108   7.158   1.438   8.470 -0.2106 -0.5817 -0.0099
   83MOL0     C11109   7.240   1.414   8.345  0.4459  0.3239  0.3304
   83MOL0     C11110   7.323   1.529   8.305 -0.0483 -0.5760  0.2822
   83MOL0     C11111   7.430   1.482   8.204  0.1409  0.1665 -0.5488
   83MOL0     C11112   7.555   1.433   8.269  0.2071  0.3310 -0.0201
   83MOL0     C11113   7.671   1.385   8.179 -0.1545 -0.2966  0.1496
   83MOL0     C11114   7.790   1.329   8.260 -0.3063  1.0591 -0.1257
   83MOL0    Cl11115   7.933   1.296   8.152  0.1051 -0.0819 -0.2356
   83MOL0     C11116   7.442   1.177   8.576  0.2280 -0.2978 -0.1975
   83MOL0     C11117   7.562   1.224   8.633  0.0161  0.2950 -0.8253
   83MOL0     O11118   7.766   1.480   8.618 -0.7179  0.8041  0.2391
   83MOL0     C11119   7.847   1.476   8.972  1.3568 -0.3531  0.9711
   83MOL0     C11120   7.931   1.520   9.066 -0.4888 -0.6533  0.6664
   83MOL0     N11121   8.593   2.043   9.198  0.0788  0.4196  0.7462
   83MOL0     N11122   8.691   2.118   9.200  0.3755 -0.6097 -0.1897
   83MOL0     C11123   9.900   2.576   9.621 -0.2802  0.3824 -0.4078
   83MOL0     C11124  10.029   2.608   9.672 -0.5275 -0.9387  0.3059
   83MOL0     C11125  10.291   2.779  10.002  0.1105 -0.0698 -0.0249
   83MOL0     C11126  10.383   2.872   9.951 -0.2389 -0.1720  0.5607
   83MOL0     C11127  10.479   2.929  10.044  1.0220  0.8095 -0.2153
   83MOL0     C11128  10.476   2.899  10.182 -0.6239 -0.1641  0.7570
   83MOL0     O11129  10.550   2.961  10.280  0.1326 -0.4557 -0.0288
   83MOL0     C11130  10.669   3.048  10.251 -0.2994  0.4574 -0.3290
   83MOL0     C11131  10.777   2.954  10.181  0.4254 -0.2737  0.9993
   83MOL0     C11132  10.919   3.018  10.182 -0.8255  0.5907 -0.2045
   83MOL0     C11133  11.005   2.973  10.059 -0.4068 -0.3076 -0.3199
   83MOL0     C11134  11.082   2.852  10.105  1.4087  0.3083  0.3852
   83MOL0     C11135  11.148   2.749  10.118 -0.1179  0.4931 -0.1850
   83MOL0     C11136  10.390   2.798  10.222  0.2015  0.3395 -0.7959
   83MOL0     C11137  10.292   2.741  10.136 -0.1879  0.1681  0.3377
   83MOL0     H11138  10.009   2.938   9.724 -2.3333  0.7501  0.3238
   83MOL0     H11139   9.786   2.897   9.618 -1.9884 -0.8666  0.8206
   83MOL0     H11140   9.699   2.509   9.410  0.4025  2.7350 -0.8729
   83MOL0     H11141   9.675   2.460   9.584  2.0981  0.2865 -0.1774
   83MOL0     H11142   9.462   2.566   9.580 -0.7539 -1.5081 -0.3948
   83MOL0     H11143   9.458   2.590   9.407 -0.8034  1.0536  0.7706
   83MOL0     H11144   9.475   2.326   9.388 -0.0303 -0.8058  0.3437
   83MOL0     H11145   9.462   2.327   9.564 -0.3861 -1.2592 -1.2634
   83MOL0     H11146   9.257   2.437   9.559  0.9957  1.7834 -0.5215
   83MOL0     H11147   9.276   2.468   9.383  2.2239  2.1726  0.1983
   83MOL0     H11148   9.243   2.211   9.346  0.5756  0.3839  0.4007
   83MOL0     H11149   9.247   2.189   9.524  2.1860 -0.3741 -0.7931
   83MOL0     H11150   9.037   2.327   9.523  2.0061  0.0443  0.3762
   83MOL0     H11151   9.063   2.376   9.354  0.7524  1.5165  2.4467
   83MOL0     H11152   9.015   2.139   9.292  0.2655  0.2241  1.0486
   83MOL0     H11153   9.007   2.093   9.459  2.4489  1.1560 -0.0129
   83MOL0     H11154   8.832   2.301   9.306 -1.5669 -0.2119 -0.0498
   83MOL0     H11155   8.789   2.262   9.466 -1.6792  0.7812 -1.7934
   83MOL0     H11156   8.720   1.974   9.491  0.3876  2.5743  0.8825
   83MOL0     H11157   8.540   1.760   9.380 -2.2179 -0.3559  2.2681
   83MOL0     H11158   8.416   1.880   9.401 -3.6827 -5.9424 -0.6958
   83MOL0     H11159   8.502   1.775   9.133 -1.0846  0.9495 -1.6802
   83MOL0     H11160   8.374   1.886   9.161 -1.7225  1.2891  3.7144
   83MOL0     H11161   8.255   1.721   9.310  1.3960  0.7491  0.1922
   83MOL0     H11162   8.376   1.601   9.260  0.1853  0.0000  0.7506
   83MOL0     H11163   8.320   1.582   9.048 -0.2459 -0.8830 -0.5661
   83MOL0     H11164   8.235   1.742   9.031 -2.2734 -2.3811 -1.3014
   83MOL0     H11165   8.195   1.598   8.862 -0.6167  0.3531 -0.0537
   83MOL0     H11166   8.018   1.454   8.579 -1.0914  0.8376 -2.3181
   83MOL0     H11167   8.050   1.622   8.612 -2.8713 -0.8081  0.1775
   83MOL0     H11168   8.171   1.503   8.649 -0.6645 -3.1804  1.5706
   83MOL0     H11169   7.434   1.447   8.861 -2.7339  1.2316 -0.8673
   83MOL0     H11170   7.221   1.365   8.753 -3.1020 -4.2162 -1.3592
   83MOL0     H11171   7.026   1.277   8.477 -0.0933  0.4791  0.4331
   83MOL0     H11172   7.067   1.334   8.634 -1.1725  2.0604 -0.3348
   83MOL0     H11173   7.078   1.504   8.434  1.0050 -0.0167 -1.8013
   83MOL0     H11174   7.208   1.494   8.549  0.5347 -1.6026  0.2579
   83MOL0     H11175   7.186   1.363   8.265 -0.6659 -0.6852  1.6798
   83MOL0     H11176   7.318   1.343   8.374  1.1226  1.0319  0.2744
   83MOL0     H11177   7.258   1.598   8.252 -0.7935 -2.6679 -1.7067
   83MOL0     H11178   7.368   1.565   8.399  0.8723 -0.3226 -0.2410
   83MOL0     H11179   7.451   1.572   8.146 -0.5546 -0.4909 -1.8833
   83MOL0     H11180   7.391   1.407   8.134 -0.7297 -0.1176  0.2268
   83MOL0     H11181   7.598   1.511   8.333 -0.9812 -0.1326  1.4075
   83MOL0     H11182   7.534   1.351   8.339  1.0446 -1.0975 -1.3788
   83MOL0     H11183   7.703   1.477   8.131  0.3261 -0.3761  0.3169
   83MOL0     H11184   7.643   1.305   8.110  2.2541  0.2886 -1.6199
   83MOL0     H11185   7.767   1.230   8.300  2.2816  0.1802 -0.6802
   83MOL0     H11186   7.808   1.397   8.343 -2.6297  0.2163  1.1528
   83MOL0     H11187   7.437   1.097   8.503 -0.0218 -1.2213  0.7857
   83MOL0     H11188   7.655   1.179   8.599  0.7786  1.6267 -0.5415
   83MOL0     H11189   7.749   1.438   8.999  0.7539  0.3213 -0.1792
   83MOL0     H11190   7.900   1.535   9.169 -2.8129  1.3767 -0.2202
   83MOL0     H11191   9.881   2.476   9.581 -6.2489  0.4825  1.1875
   83MOL0     H11192  10.105   2.532   9.685 -0.6780 -1.2073 -0.3087
   83MOL0     H11193  10.375   2.898   9.846 -3.9667 -1.4318  0.3763
   83MOL0     H11194  10.544   3.006  10.004  2.3541 -0.9353 -1.5554
   83MOL0     H11195  10.655   3.129  10.178 -0.0429 -1.3390 -2.4781
   83MOL0     H11196  10.710   3.094  10.341 -0.2823  2.8148 -1.4435
   83MOL0     H11197  10.755   2.931  10.077  1.0177  1.4605  0.4602
   83MOL0     H11198  10.778   2.855  10.227  0.8511 -1.6161 -1.7212
   83MOL0     H11199  10.970   2.990  10.275  0.8283  2.5138 -0.4592
   83MOL0     H11200  10.918   3.127  10.187 -0.4357  0.5614  0.8837
   83MOL0     H11201  11.076   3.051  10.032  1.1520 -1.9605 -1.1628
   83MOL0     H11202  10.942   2.955   9.971 -0.4834  1.5541 -0.6878
   83MOL0     H11203  11.204   2.657  10.117  1.7325  1.5758 -1.1603
   83MOL0     H11204  10.401   2.767  10.326 -0.3408  0.0219 -0.8304
   83MOL0     H11205  10.217   2.674  10.176 -0.4342 -0.3964 -1.0397
   84MOL0     O11206   6.439   1.248   9.861  0.0778 -0.1954  0.0326
   84MOL0     C11207   6.433   1.178   9.761  0.3323  0.6670 -0.7522
   84MOL0     O11208   6.321   1.146   9.696 -0.1674 -0.1148  0.2649
   84MOL0     C11209   6.191   1.169   9.727 -0.0187  0.2042 -0.0039
   84MOL0     C11210   6.145   1.201   9.850  0.2089 -0.0347  0.4769
   84MOL0     C11211   6.009   1.222   9.880 -0.0869  0.3102  0.5106
   84MOL0     C11212   5.922   1.232   9.769 -0.0657  0.4834  0.1455
   84MOL0     O11213   5.797   1.274   9.778  0.0381  0.2624 -0.0044
   84MOL0     C11214   5.739   1.288   9.908  0.5216 -0.4988  0.5235
   84MOL0     C11215   5.592   1.328   9.891 -0.3002 -0.1921  0.1104
   84MOL0     C11216   5.588   1.474   9.838  0.4376  0.4281 -0.6302
   84MOL0     C11217   5.439   1.521   9.847 -0.4455  0.3994  0.3145
   84MOL0     C11218   5.429   1.662   9.790 -0.2306 -0.8242  0.5164
   84MOL0     C11219   5.288   1.712   9.775  0.0184  0.3351  0.1377
   84MOL0     C11220   5.210   1.724   9.900  0.2865 -0.3114 -0.6694
   84MOL0     C11221   5.246   1.852   9.980  0.4938  0.3033 -0.2260
   84MOL0     N11222   5.135   1.891  10.072  0.6397 -0.2304 -0.3680
   84MOL0     C11223   5.011   1.930  10.038 -0.0527  0.0871 -0.0506
   84MOL0     C11224   4.942   1.939  10.150  0.0215 -1.0168 -0.4594
   84MOL0     C11225   4.810   2.019  10.174  1.0068 -0.8112 -0.7199
   84MOL0     C11226   4.695   1.941  10.239 -0.1599 -0.6526 -0.4114
   84MOL0     C11227   4.577   2.031  10.262 -0.2079  0.0145  0.0281
   84MOL0     C11228   4.465   1.946  10.337  0.1839 -0.6115 -0.0712
   84MOL0     O11229   4.345   2.027  10.360  1.0080 -0.3655  0.5899
   84MOL0     C11230   4.242   1.978  10.443  0.1415 -0.1918 -0.3932
   84MOL0     C11231   4.117   2.047  10.463 -0.7112 -0.4868  0.4499
   84MOL0     C11232   4.009   1.998  10.531  0.8238  0.2745 -0.1471
   84MOL0     C11233   3.892   2.090  10.539  0.3716  0.9398  0.1050
   84MOL0     C11234   4.018   1.872  10.596  0.3289  0.5949 -0.6834
   84MOL0     C11235   3.917   1.816  10.676  0.6386  0.4786 -0.4352
   84MOL0     O11236   3.903   1.680  10.673 -0.1750  0.0423  0.0132
   84MOL0     C11237   3.796   1.622  10.745 -0.7172 -0.0902 -0.5274
   84MOL0     C11238   3.659   1.643  10.714  0.0740  0.4374  1.0243
   84MOL0     C11239   3.561   1.592  10.799  0.3671  0.2451 -0.4783
   84MOL0     C11240   3.604   1.510  10.910  0.2892  0.3031  0.5864
   84MOL0     O11241   3.512   1.444  10.987 -0.2591 -0.1061  0.1637
   84MOL0     C11242   3.382   1.506  11.003 -0.1822  0.3236 -0.1048
   84MOL0     C11243   3.273   1.415  10.938 -0.4419  0.3461  0.5826
   84MOL0     C11244   3.273   1.278  11.001 -0.3193  0.2110  0.6357
   84MOL0     C11245   3.208   1.173  10.914 -0.0727  0.1878  0.2007
   84MOL0     C11246   3.053   1.200  10.882 -0.1348  0.0182  0.3273
   84MOL0     C11247   2.979   1.210  11.013 -0.2273 -0.4297 -0.1343
   84MOL0     C11248   2.830   1.211  10.977 -0.0632 -1.1196 -0.0239
   84MOL0     C11249   2.775   1.341  10.901  0.4411  0.0727 -0.1620
   84MOL0    Cl11250   2.612   1.347  10.841  0.0411  0.3073 -0.2092
   84MOL0     C11251   3.742   1.482  10.925 -0.4335  0.8695 -0.0610
   84MOL0     C11252   3.835   1.540  10.846  0.4712  0.4169 -0.2804
   84MOL0     O11253   3.849   1.889  10.752  0.1854 -0.1333  0.5002
   84MOL0     C11254   4.139   1.801  10.581 -0.2722  0.3156 -0.1265
   84MOL0     C11255   4.244   1.851  10.496  0.1045  0.4066 -0.4820
   84MOL0     N11256   5.012   1.885  10.253 -0.2617  0.1995  0.4700
   84MOL0     N11257   5.133   1.865  10.212  0.3481 -0.4883 -0.7400
   84MOL0     C11258   5.971   1.205   9.648  0.8668  0.3237  0.3004
   84MOL0     C11259   6.097   1.169   9.622  0.1366  0.5124  1.0534
   84MOL0     C11260   6.562   1.138   9.698  0.7636  0.2909 -0.1406
   84MOL0     C11261   6.683   1.138   9.776  0.7247  0.2188 -0.8074
   84MOL0     C11262   6.807   1.112   9.714  0.4033  0.7999 -0.1933
   84MOL0     C11263   6.817   1.077   9.579 -0.1665 -0.9873 -0.2386
   84MOL0     O11264   6.929   1.047   9.511  0.4724 -0.3742 -0.0575
   84MOL0     C11265   7.051   1.123   9.528 -0.9188  0.0781 -0.3301
   84MOL0     C11266   7.052   1.264   9.458  0.3481 -0.2449  0.2918
   84MOL0     C11267   7.186   1.342   9.449 -0.2163  0.4024  0.3117
   84MOL0     C11268   7.181   1.454   9.552  0.0969  0.0721 -0.9999
   84MOL0     C11269   7.314   1.516   9.576 -0.0967 -0.0158  0.6782
   84MOL0     C11270   7.430   1.570   9.578  1.0175  0.2942  0.5045
   84MOL0     C11271   6.692   1.059   9.508 -0.3319  0.0372  0.4052
   84MOL0     C11272   6.572   1.101   9.571 -0.4767  1.2219  0.0351
   84MOL0     H11273   6.212   1.204   9.936  1.5326 -1.4209 -0.4506
   84MOL0     H11274   5.986   1.250   9.982 -3.1062  1.3393 -0.3598
   84MOL0     H11275   5.750   1.191   9.957  3.6737 -0.0257  0.9061
   84MOL0     H11276   5.781   1.366   9.973 -2.3369  0.5689  1.2719
   84MOL0     H11277   5.550   1.257   9.819 -1.8547 -0.1466  0.9312
   84MOL0     H11278   5.543   1.331   9.989  0.3028  2.3520  0.4033
   84MOL0     H11279   5.653   1.543   9.892  1.0788 -0.6044 -0.0733
   84MOL0     H11280   5.626   1.468   9.735  3.9170 -0.5026  0.5759
   84MOL0     H11281   5.382   1.453   9.783  0.4067  0.4590 -0.5278
   84MOL0     H11282   5.388   1.507   9.943  0.9319  0.3391  1.0692
   84MOL0     H11283   5.489   1.738   9.841  1.1121 -0.4228 -1.5201
   84MOL0     H11284   5.478   1.654   9.692 -0.3707 -1.9169  0.5229
   84MOL0     H11285   5.288   1.814   9.735 -0.2055  0.1634 -0.3015
   84MOL0     H11286   5.242   1.633   9.715  1.6175 -0.9644  0.5602
   84MOL0     H11287   5.104   1.731   9.873 -0.3019 -0.7792  1.3895
   84MOL0     H11288   5.216   1.637   9.966  2.2218  0.0427 -0.3241
   84MOL0     H11289   5.274   1.938   9.918  0.9263  0.6923  0.4945
   84MOL0     H11290   5.332   1.836  10.047 -0.2281  0.5620  0.7925
   84MOL0     H11291   4.981   1.947   9.935  2.6544  1.5713 -0.6691
   84MOL0     H11292   4.831   2.094  10.252 -3.6058 -2.2392  2.3044
   84MOL0     H11293   4.774   2.055  10.078 -2.0329 -3.2184 -0.6520
   84MOL0     H11294   4.737   1.896  10.329 -3.5676 -2.0389  0.6601
   84MOL0     H11295   4.662   1.858  10.176 -1.9914 -0.0793 -0.2889
   84MOL0     H11296   4.543   2.072  10.167  1.0724  1.5971  0.2026
   84MOL0     H11297   4.622   2.109  10.325  3.4227 -0.7943 -1.2847
   84MOL0     H11298   4.496   1.932  10.440 -0.9892 -0.4569  0.3151
   84MOL0     H11299   4.446   1.847  10.293 -1.4359 -0.9050  1.1982
   84MOL0     H11300   4.121   2.142  10.412  0.0407 -1.2442 -0.9559
   84MOL0     H11301   3.802   2.029  10.545  0.3132  0.9473 -0.6324
   84MOL0     H11302   3.895   2.142  10.635 -2.3986 -1.2436  1.5286
   84MOL0     H11303   3.888   2.165  10.459  0.9354  0.2948 -0.5491
   84MOL0     H11304   3.624   1.690  10.622 -0.2443 -2.3753 -0.3884
   84MOL0     H11305   3.454   1.596  10.781  0.3083 -2.2222 -1.0300
   84MOL0     H11306   3.352   1.511  11.108 -0.4050 -0.6164 -0.1113
   84MOL0     H11307   3.374   1.607  10.963  0.0346  0.7527  0.9116
   84MOL0     H11308   3.169   1.451  10.939 -1.0412 -1.2653 -0.2090
   84MOL0     H11309   3.304   1.407  10.833  2.0070  1.5014  1.1518
   84MOL0     H11310   3.220   1.288  11.096  1.6722 -2.2125  2.1257
   84MOL0     H11311   3.372   1.240  11.027 -0.6852 -1.2627 -0.0174
   84MOL0     H11312   3.279   1.178  10.831  2.8159 -0.5266  2.4350
   84MOL0     H11313   3.218   1.075  10.962 -1.8877  0.3749  1.0534
   84MOL0     H11314   3.010   1.116  10.826 -0.0460  0.9458 -1.1920
   84MOL0     H11315   3.036   1.295  10.830 -1.4981 -0.9386 -1.0369
   84MOL0     H11316   2.990   1.123  11.079  0.7073 -0.3114 -0.1307
   84MOL0     H11317   3.016   1.294  11.072  0.0028  0.5260 -1.6080
   84MOL0     H11318   2.765   1.193  11.063  0.2253 -1.0293  0.2106
   84MOL0     H11319   2.805   1.130  10.906  2.3416 -1.6029 -0.3972
   84MOL0     H11320   2.833   1.378  10.815 -2.9372  2.4732 -1.6512
   84MOL0     H11321   2.790   1.422  10.972  0.5974  2.5087 -2.7942
   84MOL0     H11322   3.768   1.411  11.004 -2.1445  1.5526  1.1894
   84MOL0     H11323   3.939   1.513  10.865 -1.2568 -6.9174  1.9573
   84MOL0     H11324   4.167   1.703  10.619  1.5468  1.5870  2.0465
   84MOL0     H11325   4.322   1.778  10.475 -0.1429  0.6094 -2.2551
   84MOL0     H11326   5.890   1.212   9.575  1.0462  1.1421  0.1621
   84MOL0     H11327   6.121   1.141   9.520 -2.1119 -1.8052  1.0582
   84MOL0     H11328   6.660   1.142   9.882  1.3250 -1.6700 -0.5667
   84MOL0     H11329   6.899   1.119   9.771  0.2557 -0.2635  0.2069
   84MOL0     H11330   7.071   1.130   9.635 -1.3859  0.3246 -0.2516
   84MOL0     H11331   7.135   1.064   9.490 -2.6905 -2.5360 -0.4659
   84MOL0     H11332   6.963   1.322   9.486 -0.1935 -0.1711 -1.4441
   84MOL0     H11333   7.024   1.234   9.356  0.3458  0.7980 -0.0276
   84MOL0     H11334   7.203   1.395   9.355  0.7856 -1.1000 -0.4062
   84MOL0     H11335   7.268   1.272   9.468 -1.7048 -1.0660  1.5809
   84MOL0     H11336   7.128   1.432   9.644  0.5366 -0.1747 -0.8027
   84MOL0     H11337   7.113   1.529   9.510 -0.3043 -0.4626 -1.3183
   84MOL0     H11338   7.527   1.614   9.586  1.3942 -0.0421 -1.5976
   84MOL0     H11339   6.699   1.045   9.401  1.3730 -1.5864  0.6789
   84MOL0     H11340   6.491   1.101   9.499  0.9115 -0.0169 -1.5764
   85MOL0     O11341   1.723   2.224   0.884 -0.0879 -0.0059  0.1305
   85MOL0     C11342   1.765   2.186   0.995  0.1138  0.1087  0.8835
   85MOL0     O11343   1.695   2.160   1.108 -0.4096 -0.5993  0.1100
   85MOL0     C11344   1.566   2.179   1.094  0.1232 -0.1390 -0.6624
   85MOL0     C11345   1.506   2.299   1.133  0.3373 -1.0447  0.0634
   85MOL0     C11346   1.366   2.315   1.102  0.5288  1.5487 -0.2266
   85MOL0     C11347   1.296   2.220   1.028  0.3195 -1.0172  0.3771
   85MOL0     O11348   1.166   2.236   1.006  0.8428 -0.3264  0.7340
   85MOL0     C11349   1.079   2.201   1.117 -0.0087 -0.1174 -0.2232
   85MOL0     C11350   1.058   2.045   1.136 -0.0994 -1.0437 -0.0018
   85MOL0     C11351   0.953   2.013   1.242 -0.6266 -0.0497 -0.2767
   85MOL0     C11352   0.807   2.079   1.232 -0.0552  0.3080  0.6531
   85MOL0     C11353   0.706   1.997   1.310 -0.2890  0.5896 -0.0128
   85MOL0     C11354   0.564   2.041   1.304  0.2432  0.0701 -1.8537
   85MOL0     C11355   0.484   1.958   1.414  0.4216 -0.5361  0.1022
   85MOL0     C11356   0.342   2.024   1.440 -0.2089 -0.0648  0.3162
   85MOL0     N11357   0.261   1.926   1.517 -0.2817 -0.3073 -0.0411
   85MOL0     C11358   0.290   1.865   1.638  0.0141  0.5158  0.1226
   85MOL0     C11359   0.176   1.796   1.663 -0.8647  0.5747  0.5088
   85MOL0     C11360   0.161   1.702   1.783  0.0557 -0.0706  0.1411
   85MOL0     C11361   0.019   1.689   1.842  0.3140 -0.3895  0.3186
   85MOL0     C11362   0.012   1.622   1.977 -0.4838  0.4831  0.8442
   85MOL0     C11363  -0.134   1.621   2.036  1.1263 -0.1690  0.4769
   85MOL0     O11364  -0.212   1.529   1.962 -0.0802 -0.2659  0.5804
   85MOL0     C11365  -0.346   1.547   1.980  0.3985  1.5180 -0.0084
   85MOL0     C11366  -0.410   1.550   1.863 -0.6416 -0.0115  0.6105
   85MOL0     C11367  -0.547   1.583   1.859  0.4457  0.6962  0.2633
   85MOL0     C11368  -0.601   1.591   1.714  0.7487 -1.0011 -0.0099
   85MOL0     C11369  -0.617   1.606   1.978  0.5105  0.0944 -0.5499
   85MOL0     C11370  -0.769   1.609   1.983 -0.5366  0.3008  0.2467
   85MOL0     O11371  -0.830   1.648   1.874  1.1876  0.2342 -0.0208
   85MOL0     C11372  -0.967   1.673   1.871 -0.1290  1.3141 -0.0977
   85MOL0     C11373  -1.041   1.639   1.754 -0.0990 -0.6569 -0.2089
   85MOL0     C11374  -1.177   1.650   1.750  0.6833  0.2983  0.0826
   85MOL0     C11375  -1.253   1.699   1.857 -0.8298 -0.2275  0.5115
   85MOL0     O11376  -1.382   1.717   1.844  0.3963 -0.2438  0.1440
   85MOL0     C11377  -1.472   1.734   1.951  0.2913  0.3352 -0.0666
   85MOL0     C11378  -1.611   1.753   1.906 -0.5142 -0.4879  0.8063
   85MOL0     C11379  -1.673   1.618   1.855 -0.0529 -0.2419  0.2671
   85MOL0     C11380  -1.829   1.637   1.850 -0.6673  0.2624 -0.1179
   85MOL0     C11381  -1.877   1.621   1.699 -0.6375 -0.2927  0.6006
   85MOL0     C11382  -1.845   1.747   1.607  0.3822  0.2792  0.3119
   85MOL0     C11383  -1.929   1.735   1.485  0.0439 -0.7351  0.2794
   85MOL0     C11384  -1.897   1.835   1.371  0.1463 -0.5540  0.3080
   85MOL0    Cl11385  -1.914   2.014   1.422 -0.1873  0.1926  0.1237
   85MOL0     C11386  -1.177   1.753   1.963  0.0689 -0.4262 -0.0806
   85MOL0     C11387  -1.036   1.737   1.981  0.0858 -0.2623  0.0132
   85MOL0     O11388  -0.833   1.576   2.084  0.4111 -0.2236  0.0838
   85MOL0     C11389  -0.546   1.586   2.102  0.2909 -0.9699 -0.5822
   85MOL0     C11390  -0.412   1.558   2.108  0.2720 -0.1909  0.2755
   85MOL0     N11391   0.079   1.812   1.561 -0.0417 -0.1636  0.0246
   85MOL0     N11392   0.142   1.887   1.477  0.3281  0.0347 -0.1181
   85MOL0     C11393   1.356   2.107   0.982  0.2979  0.4260 -0.5846
   85MOL0     C11394   1.489   2.086   1.015  0.0983  0.2371 -0.2639
   85MOL0     C11395   1.904   2.145   0.992  0.3928 -0.0630 -0.1870
   85MOL0     C11396   1.969   2.088   1.101  0.7388  0.0277 -0.7596
   85MOL0     C11397   2.105   2.075   1.104 -0.3247  0.0344 -0.4167
   85MOL0     C11398   2.182   2.087   0.992  0.3340  0.0342  0.0279
   85MOL0     O11399   2.309   2.042   1.003 -0.6540  0.0473 -0.1173
   85MOL0     C11400   2.385   2.018   0.879  0.1475 -0.1934 -0.4223
   85MOL0     C11401   2.332   1.893   0.810 -0.8036  0.0643  0.8801
   85MOL0     C11402   2.354   1.773   0.897 -0.4433 -0.3180 -0.0483
   85MOL0     C11403   2.314   1.650   0.820  0.5952 -0.7839  0.0294
   85MOL0     C11404   2.348   1.530   0.903 -0.2359  0.3437  0.1425
   85MOL0     C11405   2.370   1.449   0.985 -0.4727 -0.6790  0.6116
   85MOL0     C11406   2.112   2.124   0.874  0.2387 -0.8066 -0.6619
   85MOL0     C11407   1.981   2.165   0.879  0.4426  0.2969  1.1620
   85MOL0     H11408   1.557   2.372   1.195  1.2849 -2.3943  0.9050
   85MOL0     H11409   1.309   2.405   1.119 -0.4405  0.8439  0.3928
   85MOL0     H11410   1.127   2.236   1.209 -0.0643  0.5111 -0.4257
   85MOL0     H11411   0.982   2.251   1.118  0.4799  1.2106  4.5344
   85MOL0     H11412   1.022   1.992   1.048  0.0582 -1.0305 -0.0746
   85MOL0     H11413   1.154   1.998   1.160 -0.9679 -0.9495  4.6258
   85MOL0     H11414   0.948   1.905   1.255  1.7104 -0.6997 -3.5637
   85MOL0     H11415   0.983   2.059   1.337 -2.7033 -2.7830  1.9037
   85MOL0     H11416   0.816   2.178   1.277  1.2338  0.0727  0.9542
   85MOL0     H11417   0.776   2.090   1.128  0.9336 -0.3461  0.2715
   85MOL0     H11418   0.711   1.893   1.275 -1.9480  0.1051  1.0826
   85MOL0     H11419   0.744   1.992   1.413 -4.7930 -3.6329  1.8517
   85MOL0     H11420   0.565   2.149   1.323  1.9663  0.0818 -1.8180
   85MOL0     H11421   0.521   2.027   1.205 -0.3463  0.2225 -1.6230
   85MOL0     H11422   0.475   1.855   1.378  0.7010  0.0024 -1.6041
   85MOL0     H11423   0.541   1.961   1.507 -1.1567  0.7477  1.0718
   85MOL0     H11424   0.283   2.047   1.350 -0.8947  0.7793  0.9562
   85MOL0     H11425   0.345   2.126   1.479  1.7564  1.4722 -3.3397
   85MOL0     H11426   0.386   1.852   1.687  0.9560 -1.9540 -2.1742
   85MOL0     H11427   0.188   1.601   1.750  0.0976 -0.2856  0.8256
   85MOL0     H11428   0.238   1.727   1.856  1.5165  0.0813 -1.3798
   85MOL0     H11429  -0.048   1.633   1.777 -1.4042 -1.7186  3.0761
   85MOL0     H11430  -0.015   1.793   1.843 -0.6281 -0.6737 -0.4057
   85MOL0     H11431   0.066   1.679   2.054 -2.8427  0.8730  2.3390
   85MOL0     H11432   0.062   1.525   1.967 -1.5044  0.0990 -0.8765
   85MOL0     H11433  -0.171   1.722   2.017 -0.8122 -0.9539 -0.1937
   85MOL0     H11434  -0.141   1.598   2.143 -2.0674  2.2597  0.9419
   85MOL0     H11435  -0.356   1.525   1.772  0.4179 -2.5896  1.8346
   85MOL0     H11436  -0.514   1.585   1.647 -0.0904 -0.5373 -1.1663
   85MOL0     H11437  -0.672   1.510   1.692 -3.2175  2.1070  0.2653
   85MOL0     H11438  -0.661   1.679   1.693 -0.5370 -2.0970 -1.1102
   85MOL0     H11439  -0.999   1.607   1.659  0.1709  0.6488 -0.5590
   85MOL0     H11440  -1.236   1.626   1.662  0.1513 -0.0693  0.5260
   85MOL0     H11441  -1.476   1.637   2.002 -0.3284 -0.0825 -0.8975
   85MOL0     H11442  -1.453   1.813   2.024  0.0906  0.6113 -0.3143
   85MOL0     H11443  -1.658   1.786   1.999  0.9678 -2.8660  2.4802
   85MOL0     H11444  -1.612   1.826   1.825 -1.9023  0.3218  1.5164
   85MOL0     H11445  -1.648   1.528   1.912  0.1372 -1.6608 -1.9288
   85MOL0     H11446  -1.631   1.596   1.757 -1.2009  0.1207 -0.3330
   85MOL0     H11447  -1.873   1.557   1.911  1.4676 -0.4061  0.6459
   85MOL0     H11448  -1.846   1.737   1.889 -0.0710  0.1266  0.5129
   85MOL0     H11449  -1.984   1.599   1.693 -0.4433 -1.8854  2.1146
   85MOL0     H11450  -1.828   1.535   1.653 -1.0714  0.0418 -0.5122
   85MOL0     H11451  -1.869   1.838   1.663  2.2367  0.6315  0.6033
   85MOL0     H11452  -1.737   1.754   1.588  0.0795  2.1581 -1.0084
   85MOL0     H11453  -2.028   1.762   1.523  0.0905  2.5503 -1.5461
   85MOL0     H11454  -1.918   1.634   1.447  0.6254 -1.5100  2.3489
   85MOL0     H11455  -1.973   1.823   1.294  0.0801  2.6002 -0.2528
   85MOL0     H11456  -1.794   1.829   1.333 -0.3368 -0.5366 -1.0327
   85MOL0     H11457  -1.228   1.815   2.037  1.2652  0.8499 -0.2820
   85MOL0     H11458  -0.973   1.774   2.061  4.3151  1.0241 -3.5153
   85MOL0     H11459  -0.606   1.603   2.191 -0.9612 -1.7278 -1.2685
   85MOL0     H11460  -0.358   1.532   2.198  0.9473  1.1081  0.2790
   85MOL0     H11461   1.314   2.044   0.905  3.6815 -1.9860 -0.6897
   85MOL0     H11462   1.538   1.991   0.998  3.1110  1.3430  1.3938
   85MOL0     H11463   1.913   2.068   1.191  0.0024  0.2139 -1.1680
   85MOL0     H11464   2.146   2.050   1.201 -0.1271  1.5406 -0.0734
   85MOL0     H11465   2.392   2.104   0.811 -3.9516  1.4160  0.8930
   85MOL0     H11466   2.488   1.994   0.908 -0.0692 -0.3817  0.2125
   85MOL0     H11467   2.394   1.890   0.720 -0.4508  1.5486  1.0399
   85MOL0     H11468   2.228   1.899   0.778 -0.5056  0.7650  0.0249
   85MOL0     H11469   2.293   1.780   0.988 -0.2488  0.6453  0.0244
   85MOL0     H11470   2.457   1.770   0.934 -1.5087 -0.7109  3.2159
   85MOL0     H11471   2.362   1.657   0.722 -0.0097 -0.1936 -0.2268
   85MOL0     H11472   2.206   1.650   0.808  0.7998 -3.3088 -3.2042
   85MOL0     H11473   2.394   1.376   1.059  2.6767 -0.1673  0.2426
   85MOL0     H11474   2.168   2.140   0.782 -2.1765 -1.1881 -2.2717
   85MOL0     H11475   1.936   2.216   0.794  2.6464 -1.3186 -1.1241
   86MOL0     O11476   8.937  10.225   7.838 -0.4927 -0.5040  0.9097
   86MOL0     C11477   8.992  10.234   7.944 -0.6694  0.7270 -0.1144
   86MOL0     O11478   8.921  10.244   8.071  0.2389  0.0384  0.3196
   86MOL0     C11479   8.783  10.261   8.065  0.0984 -0.1109  0.1396
   86MOL0     C11480   8.692  10.150   8.031 -0.0446 -1.6273  0.4397
   86MOL0     C11481   8.557  10.175   8.017 -0.1216 -0.0352  0.4437
   86MOL0     C11482   8.501  10.298   8.038  0.7842  0.5401 -0.2270
   86MOL0     O11483   8.363  10.320   8.017  0.0224  0.3559  0.6429
   86MOL0     C11484   8.276  10.211   8.004  0.2350 -0.4386 -0.4809
   86MOL0     C11485   8.133  10.272   8.013 -0.3820  0.2239  0.6684
   86MOL0     C11486   8.029  10.161   8.037  0.2259 -0.3813  0.4121
   86MOL0     C11487   8.033  10.102   8.181 -0.0962 -0.3204  0.0773
   86MOL0     C11488   7.913  10.010   8.220  0.3055  1.2157 -0.4567
   86MOL0     C11489   7.789  10.097   8.211 -0.2341  0.6107 -0.1383
   86MOL0     C11490   7.690  10.069   8.326 -0.2362 -0.2895  0.0315
   86MOL0     C11491   7.569  10.164   8.316 -0.3752  1.0367  0.7153
   86MOL0     N11492   7.492  10.114   8.201  0.3411 -0.6835 -0.1617
   86MOL0     C11493   7.444  10.194   8.101 -0.7352 -0.2289  0.9623
   86MOL0     C11494   7.356  10.115   8.041 -0.5723 -0.9309  0.4207
   86MOL0     C11495   7.276  10.161   7.926 -0.5251  0.1121 -0.4116
   86MOL0     C11496   7.120  10.194   7.959 -0.4773 -0.2554  0.0051
   86MOL0     C11497   7.037  10.231   7.836 -0.3362 -0.7565 -0.1048
   86MOL0     C11498   6.900  10.294   7.872 -0.4632  1.0458  0.3397
   86MOL0     O11499   6.829  10.245   7.982 -0.6515 -0.8075 -0.1205
   86MOL0     C11500   6.696  10.269   7.993 -0.3783  0.0579 -0.0040
   86MOL0     C11501   6.643  10.227   8.108 -0.4211  0.2177 -0.0590
   86MOL0     C11502   6.512  10.224   8.144  0.7777  0.2160  0.5820
   86MOL0     C11503   6.466  10.148   8.263  0.3256  0.1964  0.0873
   86MOL0     C11504   6.420  10.287   8.049 -0.3273 -0.3542  0.5856
   86MOL0     C11505   6.268  10.287   8.063 -0.7319  0.2765 -0.2992
   86MOL0     O11506   6.194  10.287   7.950  0.1148  0.1969 -0.0037
   86MOL0     C11507   6.058  10.288   7.956 -0.1853  0.1991 -0.6644
   86MOL0     C11508   5.973  10.378   7.869  0.7521 -0.2908 -0.3734
   86MOL0     C11509   5.838  10.368   7.896 -0.0359  0.6459  0.8886
   86MOL0     C11510   5.781  10.262   7.977 -0.5554 -0.7127 -0.2181
   86MOL0     O11511   5.644  10.239   7.995  0.1796  0.1118 -0.5193
   86MOL0     C11512   5.549  10.349   7.998  0.3015 -0.2095  0.0382
   86MOL0     C11513   5.502  10.393   7.864 -0.3977  0.4448  0.6403
   86MOL0     C11514   5.448  10.277   7.774  0.6198 -0.1143  0.1549
   86MOL0     C11515   5.315  10.210   7.814 -0.1412  0.0855 -0.0306
   86MOL0     C11516   5.268  10.096   7.717 -0.2898  0.3420  0.5767
   86MOL0     C11517   5.373   9.989   7.677  0.1681 -0.5946  0.5396
   86MOL0     C11518   5.320   9.869   7.598 -0.4350  0.0545 -0.4030
   86MOL0     C11519   5.312   9.899   7.455  0.3892  0.2421 -0.0067
   86MOL0    Cl11520   5.175   9.790   7.385 -0.0259 -0.2739  0.1045
   86MOL0     C11521   5.855  10.165   8.028 -1.3405 -0.4433 -0.5561
   86MOL0     C11522   5.996  10.186   8.033  0.5650 -0.7919 -0.1795
   86MOL0     O11523   6.224  10.313   8.180  0.1411 -0.5714 -0.2782
   86MOL0     C11524   6.477  10.348   7.932  0.3434  0.3142 -0.0515
   86MOL0     C11525   6.613  10.323   7.902  0.0088 -0.8295 -0.1070
   86MOL0     N11526   7.353   9.991   8.101  0.3773 -0.0655  0.6261
   86MOL0     N11527   7.437   9.991   8.200  0.0550 -0.2158  0.2914
   86MOL0     C11528   8.590  10.404   8.073  0.6798  0.2407 -0.2560
   86MOL0     C11529   8.728  10.390   8.086 -0.4107  0.4083  0.0944
   86MOL0     C11530   9.139  10.246   7.946  0.7861 -1.2402  0.0224
   86MOL0     C11531   9.212  10.249   7.831  0.7564  0.7571  0.4547
   86MOL0     C11532   9.351  10.234   7.838  0.5492 -0.0900 -0.4235
   86MOL0     C11533   9.415  10.202   7.960 -0.7704 -0.5704  0.0964
   86MOL0     O11534   9.550  10.177   7.966 -0.3092  0.3084 -0.1557
   86MOL0     C11535   9.621  10.148   7.850 -0.1936 -0.0790  0.2332
   86MOL0     C11536   9.770  10.118   7.889 -0.0233 -0.2516  0.0956
   86MOL0     C11537   9.824  10.237   7.970 -0.2126 -0.6107  0.4005
   86MOL0     C11538   9.974  10.240   7.942 -0.2284 -0.0342  0.1559
   86MOL0     C11539  10.054  10.339   8.026  0.3505 -0.4578  0.1176
   86MOL0     C11540  10.123  10.419   8.082 -0.3899 -0.6157 -0.0786
   86MOL0     C11541   9.340  10.198   8.078  0.2948 -0.9501  0.9203
   86MOL0     C11542   9.203  10.215   8.065 -0.6157 -0.2304 -0.0895
   86MOL0     H11543   8.726  10.053   7.995  0.0445 -1.2649 -0.4739
   86MOL0     H11544   8.508  10.085   7.980 -0.2433 -0.5733  1.8681
   86MOL0     H11545   8.285  10.154   7.911  3.5960  0.2071 -0.6948
   86MOL0     H11546   8.293  10.138   8.083 -0.4121 -0.9432 -0.7948
   86MOL0     H11547   8.130  10.351   8.088  1.5227  1.8636 -0.8436
   86MOL0     H11548   8.107  10.301   7.910  2.0133 -1.1451 -0.4255
   86MOL0     H11549   7.929  10.200   8.017  0.2246 -0.5412  0.0906
   86MOL0     H11550   8.040  10.077   7.967  1.4037 -0.4863  0.7059
   86MOL0     H11551   8.120  10.036   8.194 -1.5043 -2.6830 -1.6586
   86MOL0     H11552   8.041  10.188   8.249 -0.0249  1.1036 -1.6635
   86MOL0     H11553   7.911   9.919   8.159  2.8475  0.1050  1.0011
   86MOL0     H11554   7.936   9.981   8.323 -2.7334  1.7750  0.4731
   86MOL0     H11555   7.819  10.202   8.211 -2.2100  1.2134 -0.3513
   86MOL0     H11556   7.742  10.082   8.114  0.4083  0.2454 -0.3957
   86MOL0     H11557   7.667   9.962   8.318  1.3873 -0.7633  1.2102
   86MOL0     H11558   7.743  10.078   8.421 -0.6691 -0.1141  0.2603
   86MOL0     H11559   7.620  10.259   8.297  1.3298 -0.1864 -1.2033
   86MOL0     H11560   7.501  10.168   8.402 -2.2664 -1.6332 -0.4960
   86MOL0     H11561   7.479  10.293   8.074  2.6925 -1.1371  1.6600
   86MOL0     H11562   7.328  10.250   7.889  1.5656 -0.6702  0.4787
   86MOL0     H11563   7.276  10.085   7.847  0.2220 -2.4346  1.8675
   86MOL0     H11564   7.115  10.275   8.032 -1.5773 -0.6330  0.3705
   86MOL0     H11565   7.077  10.114   8.019  2.1367 -0.8726  1.2092
   86MOL0     H11566   7.024  10.142   7.773  1.7488 -2.6088  1.9033
   86MOL0     H11567   7.092  10.301   7.772 -0.4370 -2.2780 -1.9742
   86MOL0     H11568   6.835  10.281   7.785 -0.3383 -0.7757  0.4838
   86MOL0     H11569   6.918  10.402   7.878  1.7301  0.8416 -1.2633
   86MOL0     H11570   6.712  10.171   8.170  1.8652 -0.2871 -2.8725
   86MOL0     H11571   6.390  10.078   8.228  2.0907 -0.5939 -2.5224
   86MOL0     H11572   6.546  10.082   8.299 -1.8846 -2.0014  1.2665
   86MOL0     H11573   6.431  10.205   8.349  0.7903  0.7998 -0.1160
   86MOL0     H11574   6.026  10.448   7.805  2.0826 -1.7841 -0.9648
   86MOL0     H11575   5.782  10.452   7.857  1.4395  0.5165 -1.7053
   86MOL0     H11576   5.457  10.325   8.052 -0.5571 -0.6984 -1.5710
   86MOL0     H11577   5.584  10.433   8.059  2.0071 -0.8034 -0.0611
   86MOL0     H11578   5.414  10.455   7.883 -0.8234 -0.3424  1.2996
   86MOL0     H11579   5.576  10.448   7.805 -1.5116 -0.0660 -1.3188
   86MOL0     H11580   5.523  10.197   7.777 -0.7842 -1.5459 -1.0206
   86MOL0     H11581   5.435  10.308   7.670 -2.1082 -0.4501  0.3282
   86MOL0     H11582   5.317  10.164   7.913 -0.6076 -0.9597 -0.4958
   86MOL0     H11583   5.242  10.291   7.809 -1.7319 -1.2572  0.4763
   86MOL0     H11584   5.225  10.147   7.630 -0.2065  3.0804  2.0134
   86MOL0     H11585   5.185  10.054   7.774 -1.5409 -0.0795 -1.4729
   86MOL0     H11586   5.454  10.035   7.619 -1.0470 -1.0990 -1.6594
   86MOL0     H11587   5.413   9.955   7.773  1.2338 -1.4804 -0.1898
   86MOL0     H11588   5.219   9.840   7.630 -0.9181  0.9871 -1.0463
   86MOL0     H11589   5.390   9.786   7.613  1.2909  1.9623  3.2572
   86MOL0     H11590   5.407   9.884   7.402  0.4136 -4.3342  0.8754
   86MOL0     H11591   5.283  10.001   7.429 -1.3984 -0.8225 -2.5868
   86MOL0     H11592   5.818  10.077   8.079  0.8083 -0.8775  0.3823
   86MOL0     H11593   6.054  10.109   8.082  0.2736 -0.0226  1.4135
   86MOL0     H11594   6.422  10.403   7.856  0.1577 -1.9213 -1.6138
   86MOL0     H11595   6.651  10.372   7.812  1.0399 -0.6877  0.3927
   86MOL0     H11596   8.540  10.499   8.086 -0.1198 -0.3630  1.3832
   86MOL0     H11597   8.792  10.476   8.106  0.4725  0.0875 -1.1783
   86MOL0     H11598   9.158  10.252   7.737 -0.4396  0.4716  1.1081
   86MOL0     H11599   9.404  10.231   7.744  1.9910  1.2834  0.3033
   86MOL0     H11600   9.567  10.071   7.795 -0.0457 -0.5188  0.6966
   86MOL0     H11601   9.622  10.239   7.789  0.1715  0.9247  1.6763
   86MOL0     H11602   9.826  10.107   7.796 -3.8785 -1.7837 -2.3217
   86MOL0     H11603   9.773  10.025   7.947  0.9138  0.5175  1.3173
   86MOL0     H11604   9.804  10.220   8.076 -3.3001 -1.4914 -0.2343
   86MOL0     H11605   9.779  10.335   7.951  1.5435  0.3419  0.8726
   86MOL0     H11606   9.995  10.256   7.835 -0.5247 -2.1875 -0.2838
   86MOL0     H11607  10.012  10.139   7.961  0.8906  0.0046 -1.5955
   86MOL0     H11608  10.199  10.483   8.122 -0.1523 -0.7629 -0.2876
   86MOL0     H11609   9.396  10.181   8.170  1.9996  0.3599  0.1719
   86MOL0     H11610   9.141  10.208   8.154  0.5870 -2.6895  0.6523
   87MOL0     O11611   7.725   9.438   7.149  0.5986 -0.0519  0.3103
   87MOL0     C11612   7.773   9.342   7.097  0.0010 -0.3674  0.7558
   87MOL0     O11613   7.712   9.215   7.088  0.2850 -0.3306 -0.4677
   87MOL0     C11614   7.571   9.203   7.109 -0.1328  0.6945 -0.6769
   87MOL0     C11615   7.473   9.303   7.090 -1.4395 -1.2099  0.4708
   87MOL0     C11616   7.332   9.275   7.086 -0.7222 -0.6441 -0.0601
   87MOL0     C11617   7.302   9.134   7.124  0.2507 -0.1751 -0.1059
   87MOL0     O11618   7.178   9.073   7.145 -0.3740 -0.3889  0.4935
   87MOL0     C11619   7.060   9.145   7.099  0.0900  0.1827 -0.1086
   87MOL0     C11620   6.946   9.051   7.133  0.4949 -0.0355 -0.0862
   87MOL0     C11621   6.807   9.107   7.109  0.2264 -0.2422  0.1077
   87MOL0     C11622   6.749   9.194   7.218 -0.0153  0.8592  0.2170
   87MOL0     C11623   6.604   9.226   7.201 -0.2996  0.5899  0.2687
   87MOL0     C11624   6.498   9.111   7.226  0.1593 -0.0768  0.2860
   87MOL0     C11625   6.358   9.163   7.237 -0.9759 -0.2626 -1.0033
   87MOL0     C11626   6.299   9.173   7.104 -0.2552  0.4987  0.2053
   87MOL0     N11627   6.160   9.208   7.126 -0.6322  0.0297 -1.0996
   87MOL0     C11628   6.056   9.126   7.169 -0.1729  1.2585  0.2199
   87MOL0     C11629   5.947   9.205   7.164 -0.2281 -0.7779 -0.2554
   87MOL0     C11630   5.808   9.157   7.200 -0.1688  0.4644 -0.1668
   87MOL0     C11631   5.687   9.238   7.153  0.3960 -0.0485 -0.1732
   87MOL0     C11632   5.680   9.235   6.994  0.0272  0.0258  0.3430
   87MOL0     C11633   5.562   9.301   6.946  0.6791 -0.2727 -0.0923
   87MOL0     O11634   5.568   9.442   6.997 -0.1771  0.7288  1.4634
   87MOL0     C11635   5.458   9.518   6.976  0.5202 -0.5247 -0.3849
   87MOL0     C11636   5.383   9.512   6.858 -0.0221  0.8341 -0.3804
   87MOL0     C11637   5.267   9.593   6.845 -0.0266  0.0373  0.2998
   87MOL0     C11638   5.207   9.578   6.706 -0.8398 -0.4997  0.4469
   87MOL0     C11639   5.229   9.686   6.943 -0.1296  0.0750  0.0749
   87MOL0     C11640   5.116   9.782   6.926  0.8141 -0.1063  0.4633
   87MOL0     O11641   5.085   9.816   6.798 -0.1379  0.5602  0.7847
   87MOL0     C11642   4.986   9.902   6.765 -0.2344  0.8078  0.0029
   87MOL0     C11643   4.989  10.041   6.788 -0.2782  0.5535 -1.2368
   87MOL0     C11644   4.879  10.121   6.760  0.6999  0.6689  0.2783
   87MOL0     C11645   4.763  10.068   6.700 -0.0956 -0.0797  0.7004
   87MOL0     O11646   4.657  10.137   6.654  0.0353  0.2264 -0.0689
   87MOL0     C11647   4.640  10.273   6.687 -0.7695 -0.5033  0.0059
   87MOL0     C11648   4.493  10.302   6.678 -0.0378 -0.2395  0.2553
   87MOL0     C11649   4.486  10.450   6.670 -0.1803 -0.7375 -0.1407
   87MOL0     C11650   4.343  10.487   6.656  0.2556  0.1016 -0.0826
   87MOL0     C11651   4.326  10.633   6.621  1.0791 -0.4273 -0.6665
   87MOL0     C11652   4.181  10.681   6.625 -0.0662 -0.2582  0.2035
   87MOL0     C11653   4.085  10.638   6.524  0.5275  0.1927  0.5198
   87MOL0     C11654   3.931  10.675   6.545 -0.4577 -0.2749 -0.6656
   87MOL0    Cl11655   3.912  10.853   6.536  0.2422  0.3499 -0.2962
   87MOL0     C11656   4.775   9.935   6.663  0.3910 -0.0127  0.4611
   87MOL0     C11657   4.879   9.847   6.700  0.0308 -0.1407  0.0553
   87MOL0     O11658   5.068   9.831   7.028 -0.1098  0.2980  0.4794
   87MOL0     C11659   5.305   9.696   7.059 -0.1089 -0.6352  0.8647
   87MOL0     C11660   5.415   9.607   7.077 -0.3102  0.6437  0.5507
   87MOL0     N11661   5.990   9.339   7.128  0.6435  0.2253  0.1303
   87MOL0     N11662   6.109   9.334   7.099  0.4894 -0.4297 -0.1368
   87MOL0     C11663   7.401   9.038   7.153 -0.6381 -0.6100 -0.3067
   87MOL0     C11664   7.537   9.067   7.140 -0.0358 -0.9032 -0.2728
   87MOL0     C11665   7.904   9.367   7.036 -0.0639 -0.3415 -0.6580
   87MOL0     C11666   7.996   9.448   7.099 -0.5004  0.9520  0.2852
   87MOL0     C11667   8.110   9.476   7.035 -0.4786 -0.9379 -0.4151
   87MOL0     C11668   8.136   9.430   6.910 -0.1765  0.5972  0.5361
   87MOL0     O11669   8.251   9.476   6.844 -0.7433 -0.0667  0.0782
   87MOL0     C11670   8.361   9.388   6.855 -0.4019 -0.1431 -0.3515
   87MOL0     C11671   8.473   9.455   6.766 -0.2295  0.4810 -1.0694
   87MOL0     C11672   8.610   9.389   6.790 -0.4253  0.6163 -0.3337
   87MOL0     C11673   8.731   9.421   6.700 -0.8354  0.0726  1.0747
   87MOL0     C11674   8.827   9.510   6.763 -0.1935 -0.4849  0.1188
   87MOL0     C11675   8.906   9.578   6.818  0.7896  0.1686 -0.5617
   87MOL0     C11676   8.050   9.336   6.846 -0.9942 -0.1102  0.3382
   87MOL0     C11677   7.929   9.301   6.912 -0.1689 -0.0775  0.6102
   87MOL0     H11678   7.510   9.403   7.069 -1.0372 -1.1439  1.4676
   87MOL0     H11679   7.259   9.355   7.081  1.0284  1.3130  2.7926
   87MOL0     H11680   7.061   9.238   7.157  1.4766  0.7417 -0.9936
   87MOL0     H11681   7.063   9.179   6.996  0.2431  0.1261 -0.1235
   87MOL0     H11682   6.956   8.961   7.072  2.6083 -1.5566  2.2816
   87MOL0     H11683   6.951   9.018   7.237 -1.0369 -2.0626 -0.6051
   87MOL0     H11684   6.807   9.164   7.016  0.3343  0.8302  0.7373
   87MOL0     H11685   6.748   9.016   7.098  0.3062 -0.4429  1.2050
   87MOL0     H11686   6.761   9.147   7.316  0.1458 -1.4210 -0.8572
   87MOL0     H11687   6.800   9.291   7.223 -0.6043  1.1309  2.6790
   87MOL0     H11688   6.582   9.313   7.263  1.4974  2.4045 -1.4660
   87MOL0     H11689   6.591   9.261   7.098 -1.1158 -2.7782 -0.9208
   87MOL0     H11690   6.509   9.032   7.151 -1.4356  0.1513 -0.2068
   87MOL0     H11691   6.528   9.069   7.323  2.7781  2.3230  0.6526
   87MOL0     H11692   6.296   9.093   7.294 -1.7759  2.8063  2.3014
   87MOL0     H11693   6.359   9.250   7.303  4.2865 -1.7939  1.5996
   87MOL0     H11694   6.285   9.075   7.058  0.4720 -0.7255  2.4098
   87MOL0     H11695   6.354   9.235   7.032  1.5988 -1.8352 -0.5349
   87MOL0     H11696   6.048   9.019   7.182  2.0384  1.1535  1.1241
   87MOL0     H11697   5.790   9.053   7.169 -3.9275  0.8507  0.2151
   87MOL0     H11698   5.804   9.148   7.309  2.6808 -1.0676 -0.0872
   87MOL0     H11699   5.691   9.343   7.183  0.9056 -0.7301  2.3178
   87MOL0     H11700   5.596   9.197   7.198 -0.3505 -1.0823 -2.4286
   87MOL0     H11701   5.672   9.129   6.968 -0.8248  0.4598 -1.3000
   87MOL0     H11702   5.771   9.267   6.944  0.3718 -2.2402 -0.5753
   87MOL0     H11703   5.472   9.245   6.974  0.0513  0.5818 -0.3465
   87MOL0     H11704   5.561   9.292   6.837 -2.6142 -0.4437 -0.1747
   87MOL0     H11705   5.405   9.444   6.777 -2.4281  0.0213 -0.4391
   87MOL0     H11706   5.101   9.556   6.721 -1.0655 -0.1622 -0.5657
   87MOL0     H11707   5.217   9.673   6.653 -2.8858  1.2161  2.9246
   87MOL0     H11708   5.254   9.500   6.646  1.0508  0.9435 -0.0620
   87MOL0     H11709   5.073  10.089   6.838  0.9157 -2.4472 -0.1644
   87MOL0     H11710   4.895  10.226   6.782  0.3325  1.3022 -2.1184
   87MOL0     H11711   4.672  10.295   6.790 -0.6528 -0.3898 -0.0539
   87MOL0     H11712   4.701  10.332   6.617 -0.3968  0.8117  1.3734
   87MOL0     H11713   4.453  10.270   6.581  1.9954 -0.9202 -0.4004
   87MOL0     H11714   4.436  10.268   6.765 -0.0348 -1.7030 -0.2903
   87MOL0     H11715   4.542  10.493   6.586 -1.7026  1.3415 -0.1752
   87MOL0     H11716   4.529  10.495   6.760 -0.8172 -1.9935  0.8098
   87MOL0     H11717   4.299  10.424   6.578  2.8871  1.7818 -3.1631
   87MOL0     H11718   4.295  10.470   6.753 -0.6392  1.7537 -0.1926
   87MOL0     H11719   4.369  10.644   6.521  3.3119  0.0479  0.2760
   87MOL0     H11720   4.380  10.690   6.697  0.3597 -2.4581  1.4810
   87MOL0     H11721   4.140  10.654   6.723  1.5987  0.6323  1.1948
   87MOL0     H11722   4.189  10.790   6.620  0.2838 -0.3574 -2.6444
   87MOL0     H11723   4.102  10.530   6.523  0.2136  0.1447 -0.1376
   87MOL0     H11724   4.117  10.673   6.425 -0.2971  0.4529  0.3362
   87MOL0     H11725   3.901  10.641   6.644 -0.3401 -3.2384 -1.5317
   87MOL0     H11726   3.868  10.629   6.468 -1.0790 -0.5423 -0.0065
   87MOL0     H11727   4.684   9.891   6.623 -1.3903  2.9356  1.0073
   87MOL0     H11728   4.870   9.742   6.675 -0.2836  0.4645 -2.6613
   87MOL0     H11729   5.273   9.776   7.125 -1.7928 -0.1285 -0.4798
   87MOL0     H11730   5.465   9.621   7.172  0.8499 -0.8827  0.2107
   87MOL0     H11731   7.367   8.945   7.196 -1.7607  1.0059  2.5747
   87MOL0     H11732   7.614   8.991   7.148 -0.0372 -1.0937 -1.8178
   87MOL0     H11733   7.968   9.485   7.197 -1.5716 -1.3687  0.9366
   87MOL0     H11734   8.199   9.529   7.067  0.6919 -3.1580  0.1862
   87MOL0     H11735   8.394   9.367   6.957  1.8019 -0.2874 -1.0365
   87MOL0     H11736   8.331   9.295   6.806 -1.3724  0.0080 -0.0772
   87MOL0     H11737   8.472   9.563   6.785  0.8695  0.4389 -0.7128
   87MOL0     H11738   8.431   9.435   6.667 -0.2252  0.4121 -1.0577
   87MOL0     H11739   8.591   9.281   6.784  0.1868  0.4810 -0.0286
   87MOL0     H11740   8.643   9.423   6.889  0.2843  2.5725 -1.1998
   87MOL0     H11741   8.695   9.464   6.606  1.0366 -0.2644  0.1692
   87MOL0     H11742   8.780   9.329   6.667 -0.4510  0.7389 -0.2746
   87MOL0     H11743   8.957   9.656   6.870 -0.9970  0.4377  0.9036
   87MOL0     H11744   8.079   9.306   6.746 -1.3090 -0.9425  0.4930
   87MOL0     H11745   7.860   9.230   6.867 -0.2043 -0.8378  1.8411
   88MOL0     O11746   3.807  10.834   9.188 -0.3849 -0.7228  0.0569
   88MOL0     C11747   3.876  10.909   9.125 -0.9576  0.1137 -0.2884
   88MOL0     O11748   3.833  11.001   9.033  0.0713  0.1047 -0.2583
   88MOL0     C11749   3.709  11.054   9.017 -0.2868  0.4255 -0.7539
   88MOL0     C11750   3.594  10.986   9.060 -0.1626 -0.3068 -0.1806
   88MOL0     C11751   3.472  11.053   9.037  0.0574 -0.6735 -0.2701
   88MOL0     C11752   3.455  11.176   8.983  0.2551 -0.3122 -0.3738
   88MOL0     O11753   3.324  11.227   8.964  0.1453  0.3410  0.4226
   88MOL0     C11754   3.298  11.365   8.979  0.2620  1.2847  0.0503
   88MOL0     C11755   3.244  11.413   8.841 -0.2887  0.4113 -0.5203
   88MOL0     C11756   3.099  11.372   8.826 -0.0476  0.4768  0.0683
   88MOL0     C11757   3.047  11.435   8.699 -0.1632  0.1267  0.1379
   88MOL0     C11758   2.898  11.414   8.685  0.1545 -0.2772 -0.8122
   88MOL0     C11759   2.835  11.444   8.555 -0.2761  0.4454  0.1008
   88MOL0     C11760   2.693  11.392   8.545 -0.1838  0.0582  0.1351
   88MOL0     C11761   2.597  11.462   8.649  0.6821 -0.1671  0.0576
   88MOL0     N11762   2.451  11.450   8.605  0.2548  0.4513  0.1428
   88MOL0     C11763   2.357  11.384   8.672 -0.6152 -0.3454 -0.0910
   88MOL0     C11764   2.246  11.396   8.593  0.0966 -0.9995 -0.4464
   88MOL0     C11765   2.106  11.334   8.611 -0.1547 -0.4812  0.1522
   88MOL0     C11766   2.104  11.183   8.645  0.0648 -0.2547  0.3649
   88MOL0     C11767   2.174  11.101   8.533 -0.6184  0.1734  0.7177
   88MOL0     C11768   2.102  11.101   8.404  1.1525  0.2319 -0.8100
   88MOL0     O11769   1.958  11.135   8.412  0.1977 -0.0328 -0.2591
   88MOL0     C11770   1.869  11.093   8.318 -0.0362  0.4520 -0.2760
   88MOL0     C11771   1.909  11.054   8.189 -0.9282  0.2330  0.0541
   88MOL0     C11772   1.806  11.012   8.103 -0.4293 -0.4090  0.0221
   88MOL0     C11773   1.857  11.002   7.966  0.4317 -0.0386 -0.0199
   88MOL0     C11774   1.671  10.995   8.149 -0.2341 -0.3764  0.1424
   88MOL0     C11775   1.565  10.952   8.061 -0.2064  1.5078 -0.2122
   88MOL0     O11776   1.509  10.834   8.081 -0.3796  0.1096  0.1349
   88MOL0     C11777   1.398  10.809   8.005  0.3734 -0.0669 -0.0735
   88MOL0     C11778   1.392  10.749   7.873  1.1329  0.2490  0.1263
   88MOL0     C11779   1.268  10.697   7.820 -0.5664 -0.6133 -0.6075
   88MOL0     C11780   1.151  10.724   7.885 -0.1783  0.1385 -0.3847
   88MOL0     O11781   1.030  10.680   7.826  0.4548 -1.0619  1.1133
   88MOL0     C11782   1.035  10.580   7.720  0.1246 -0.0735  0.4920
   88MOL0     C11783   0.890  10.536   7.684  0.1505  0.3343 -0.3916
   88MOL0     C11784   0.822  10.487   7.810  0.4569 -0.1961  1.0065
   88MOL0     C11785   0.679  10.448   7.774 -0.3208 -1.2420  0.3831
   88MOL0     C11786   0.624  10.404   7.909 -0.0656  0.4038  0.2115
   88MOL0     C11787   0.484  10.344   7.902  0.2651  0.5742  0.9350
   88MOL0     C11788   0.371  10.421   7.830 -0.0041 -0.4018 -0.0768
   88MOL0     C11789   0.311  10.539   7.908  0.2180 -0.2027  0.1246
   88MOL0    Cl11790   0.432  10.678   7.928 -0.7882 -0.2126  0.5527
   88MOL0     C11791   1.150  10.792   8.012 -0.3240 -0.1396 -0.3065
   88MOL0     C11792   1.274  10.826   8.066 -0.5501  0.9004 -0.1256
   88MOL0     O11793   1.542  11.026   7.970 -0.5480 -0.6942  0.2327
   88MOL0     C11794   1.641  11.020   8.284 -0.3945 -0.1339  0.1953
   88MOL0     C11795   1.742  11.068   8.370  0.6965  0.6257  0.6991
   88MOL0     N11796   2.273  11.456   8.478 -0.3541 -1.0033  0.4740
   88MOL0     N11797   2.400  11.492   8.483  0.3841  0.0703  0.0127
   88MOL0     C11798   3.568  11.237   8.929 -0.0157 -0.1501  0.8171
   88MOL0     C11799   3.695  11.175   8.956  0.9091  0.3408  0.3111
   88MOL0     C11800   4.018  10.922   9.167  0.7093 -0.1662  0.2086
   88MOL0     C11801   4.105  11.029   9.119  0.1171  0.1353  0.5380
   88MOL0     C11802   4.238  11.032   9.157  0.3262  0.0031 -0.2100
   88MOL0     C11803   4.287  10.939   9.248 -0.3941 -0.1800 -0.0379
   88MOL0     O11804   4.413  10.958   9.297  0.6594 -1.0871 -0.3916
   88MOL0     C11805   4.459  10.874   9.400 -0.0910 -0.1016 -0.2500
   88MOL0     C11806   4.605  10.888   9.437 -0.0193  0.7894 -0.4562
   88MOL0     C11807   4.623  10.804   9.563 -0.1125 -0.4817  0.2756
   88MOL0     C11808   4.774  10.793   9.598  0.3535  0.3785  0.5620
   88MOL0     C11809   4.832  10.682   9.524 -0.5906 -0.6934 -0.0791
   88MOL0     C11810   4.862  10.599   9.439  0.5718  0.6233 -0.7792
   88MOL0     C11811   4.199  10.847   9.310  0.0484  0.1595  0.7182
   88MOL0     C11812   4.066  10.828   9.262 -1.0464 -0.2701 -0.2997
   88MOL0     H11813   3.593  10.895   9.120 -1.0293 -1.3019 -1.6336
   88MOL0     H11814   3.378  11.015   9.077  0.1504  0.7006  1.3616
   88MOL0     H11815   3.214  11.378   9.047 -2.3214 -0.7597 -2.5033
   88MOL0     H11816   3.390  11.411   9.016  1.8197 -1.2630 -0.4092
   88MOL0     H11817   3.249  11.522   8.838 -1.1761  0.4672 -0.4328
   88MOL0     H11818   3.298  11.384   8.751 -0.7428 -0.6016 -0.4811
   88MOL0     H11819   3.089  11.264   8.821 -0.7375  0.5156  0.4889
   88MOL0     H11820   3.047  11.411   8.914 -1.2412 -0.0445 -0.3867
   88MOL0     H11821   3.064  11.543   8.703 -2.7400  0.6908 -1.4357
   88MOL0     H11822   3.101  11.393   8.614 -0.9554 -0.3747 -0.1340
   88MOL0     H11823   2.873  11.311   8.713 -1.5447  0.4964  0.6879
   88MOL0     H11824   2.853  11.483   8.757  1.2342  0.5383 -0.8896
   88MOL0     H11825   2.834  11.552   8.540 -0.5927  0.4940  0.4508
   88MOL0     H11826   2.887  11.410   8.465  1.2128  1.2903  0.6107
   88MOL0     H11827   2.662  11.399   8.440  0.6690 -0.4395 -0.1554
   88MOL0     H11828   2.695  11.284   8.563 -1.0238 -0.6401 -3.2535
   88MOL0     H11829   2.612  11.570   8.661 -1.9442  0.2352  0.2657
   88MOL0     H11830   2.617  11.415   8.746  0.0300  3.6892  2.2436
   88MOL0     H11831   2.370  11.324   8.761  1.2974  0.7899  0.4432
   88MOL0     H11832   2.068  11.384   8.700 -0.3732 -0.7405  0.2073
   88MOL0     H11833   2.037  11.350   8.528  1.1508 -2.6282 -1.4741
   88MOL0     H11834   2.007  11.142   8.675 -0.6714  2.3592  1.8860
   88MOL0     H11835   2.166  11.166   8.733 -1.0327 -1.2953  0.9699
   88MOL0     H11836   2.178  11.000   8.575 -2.0192 -0.4692 -0.5864
   88MOL0     H11837   2.275  11.132   8.505 -1.4502  0.9083 -1.7030
   88MOL0     H11838   2.129  11.012   8.347 -0.3646 -1.4410  0.8923
   88MOL0     H11839   2.143  11.180   8.341 -1.8321  1.6815 -1.1317
   88MOL0     H11840   2.009  11.072   8.152 -1.8539  2.8042 -1.5076
   88MOL0     H11841   1.816  11.083   7.905 -0.4164  0.8448  1.6547
   88MOL0     H11842   1.965  10.993   7.956  0.4145 -0.2497 -0.0288
   88MOL0     H11843   1.823  10.902   7.938  0.5962 -0.6771  1.9201
   88MOL0     H11844   1.473  10.745   7.801  0.5406  1.0147 -0.6131
   88MOL0     H11845   1.268  10.647   7.724 -0.0448  0.3803 -1.1432
   88MOL0     H11846   1.084  10.614   7.628 -2.6537  0.5986 -0.8554
   88MOL0     H11847   1.090  10.493   7.757  1.0477 -0.3083 -1.3390
   88MOL0     H11848   0.840  10.626   7.645 -2.3146 -1.2109 -1.0278
   88MOL0     H11849   0.899  10.459   7.607  0.1286 -0.2461  0.1860
   88MOL0     H11850   0.823  10.569   7.882  1.3447 -1.7694  2.9051
   88MOL0     H11851   0.881  10.406   7.854  0.9156 -0.7097 -0.4935
   88MOL0     H11852   0.622  10.537   7.747  0.3050 -0.5373  1.3354
   88MOL0     H11853   0.678  10.368   7.700  1.1708 -0.1181 -0.8999
   88MOL0     H11854   0.633  10.496   7.967 -0.4767  0.6432 -0.1034
   88MOL0     H11855   0.683  10.323   7.953  0.0127 -0.3962 -1.2751
   88MOL0     H11856   0.500  10.242   7.864  1.5724  0.7570  0.9432
   88MOL0     H11857   0.456  10.333   8.007  0.7085  0.7868  1.0742
   88MOL0     H11858   0.291  10.351   7.805  1.0762 -2.1843  1.2445
   88MOL0     H11859   0.421  10.467   7.744  0.3021  0.4468  0.5403
   88MOL0     H11860   0.275  10.491   8.000 -3.6659 -0.0142 -1.1391
   88MOL0     H11861   0.228  10.586   7.855  1.8000 -0.0442 -2.3391
   88MOL0     H11862   1.054  10.823   8.052 -0.3255 -0.7425  0.1727
   88MOL0     H11863   1.264  10.884   8.157  2.3934  0.6569  0.4720
   88MOL0     H11864   1.544  11.011   8.331  0.3842  0.9956  2.1381
   88MOL0     H11865   1.724  11.093   8.474 -1.6415 -0.2038  0.5313
   88MOL0     H11866   3.557  11.322   8.862 -0.5437  0.6244  1.8713
   88MOL0     H11867   3.790  11.223   8.938  0.0218  1.5963 -1.2208
   88MOL0     H11868   4.068  11.104   9.050 -1.1676  0.4101  1.4887
   88MOL0     H11869   4.305  11.113   9.130  0.5637  0.3514  1.3520
   88MOL0     H11870   4.397  10.885   9.490 -0.4535 -2.1223 -0.1991
   88MOL0     H11871   4.447  10.772   9.364 -1.5434 -0.4824  1.1630
   88MOL0     H11872   4.633  10.993   9.444  1.8673  0.3027 -0.2339
   88MOL0     H11873   4.655  10.830   9.359 -0.0306 -1.2646  0.9791
   88MOL0     H11874   4.589  10.700   9.556  1.5046 -1.0173 -0.0520
   88MOL0     H11875   4.567  10.858   9.640  1.1645  0.6700  0.4207
   88MOL0     H11876   4.777  10.778   9.707  2.2617  1.3529  0.6885
   88MOL0     H11877   4.820  10.888   9.570 -2.2165  2.3694  2.5019
   88MOL0     H11878   4.888  10.515   9.377  1.1108 -1.2570  1.8073
   88MOL0     H11879   4.216  10.790   9.401 -0.2450 -1.6864 -0.3238
   88MOL0     H11880   3.997  10.759   9.310  1.6392 -1.8811  1.4461
   89MOL0     O11881   3.823   2.803   3.275  0.5512 -0.0811 -0.6782
   89MOL0     C11882   3.832   2.904   3.207  0.2928 -0.3309  0.4421
   89MOL0     O11883   3.733   2.994   3.185  0.1501  0.0189  0.8482
   89MOL0     C11884   3.600   2.952   3.196 -0.1630  0.3416 -0.6648
   89MOL0     C11885   3.545   2.834   3.141  0.0808  0.6344 -0.4446
   89MOL0     C11886   3.412   2.799   3.165  0.0314  0.1919 -0.2389
   89MOL0     C11887   3.327   2.879   3.244 -1.0473 -0.3593 -0.3113
   89MOL0     O11888   3.201   2.842   3.270  0.2781  0.0818  0.1178
   89MOL0     C11889   3.175   2.701   3.301 -1.0051 -0.0869  0.6001
   89MOL0     C11890   3.018   2.672   3.286 -0.9536 -0.3044  0.0589
   89MOL0     C11891   2.936   2.751   3.376 -0.8785  0.7285 -0.3118
   89MOL0     C11892   2.784   2.739   3.350  1.3779  0.2200 -0.1737
   89MOL0     C11893   2.702   2.762   3.480 -0.7566 -0.3357  0.6482
   89MOL0     C11894   2.699   2.912   3.524 -0.3648  0.3021  0.0608
   89MOL0     C11895   2.649   2.913   3.669 -0.0312 -0.3625 -0.4209
   89MOL0     C11896   2.507   2.856   3.686 -0.4552 -0.0082 -0.0723
   89MOL0     N11897   2.407   2.923   3.598  0.3869  0.6075 -0.2645
   89MOL0     C11898   2.394   3.059   3.587 -0.1180  0.1826 -0.0866
   89MOL0     C11899   2.269   3.076   3.538  0.7860 -0.6584 -0.1433
   89MOL0     C11900   2.207   3.209   3.538  0.5873  0.7820 -0.1801
   89MOL0     C11901   2.052   3.199   3.543 -0.1993  0.6781  0.4209
   89MOL0     C11902   1.994   3.340   3.540  0.7828  0.6210 -0.3812
   89MOL0     C11903   1.833   3.334   3.523  0.2191 -1.0148 -0.3479
   89MOL0     O11904   1.795   3.453   3.454 -0.2117  0.0319 -0.0903
   89MOL0     C11905   1.675   3.506   3.469 -0.6858  1.1787 -0.1589
   89MOL0     C11906   1.635   3.624   3.412 -0.1446 -0.6281 -0.5746
   89MOL0     C11907   1.511   3.690   3.444 -0.0097 -0.3864  0.6211
   89MOL0     C11908   1.480   3.828   3.385 -0.2762 -0.1831 -0.0516
   89MOL0     C11909   1.430   3.629   3.547  0.7775 -0.3462  0.0117
   89MOL0     C11910   1.302   3.683   3.605 -0.1236 -0.4743 -0.4332
   89MOL0     O11911   1.269   3.636   3.720  1.0955  0.1600  0.1862
   89MOL0     C11912   1.147   3.661   3.779 -0.3561 -0.1612  0.0533
   89MOL0     C11913   1.034   3.572   3.761  0.7499 -0.1435  0.1334
   89MOL0     C11914   0.910   3.605   3.828 -0.6958  0.4275  0.3853
   89MOL0     C11915   0.912   3.692   3.937 -0.0774 -0.0630 -0.5050
   89MOL0     O11916   0.805   3.711   4.017  0.1670  0.2958 -0.5728
   89MOL0     C11917   0.680   3.663   3.968  0.2396 -0.4081 -0.5973
   89MOL0     C11918   0.567   3.748   4.029 -0.2979  0.0254 -0.4507
   89MOL0     C11919   0.496   3.659   4.122  0.0953  0.3970  0.1872
   89MOL0     C11920   0.357   3.713   4.146  0.6307  0.1174 -0.6328
   89MOL0     C11921   0.273   3.640   4.256 -0.1530  0.1549  0.4571
   89MOL0     C11922   0.327   3.650   4.404 -0.0691 -0.5799  0.0052
   89MOL0     C11923   0.375   3.785   4.443 -0.5530  0.1282 -0.4468
   89MOL0     C11924   0.416   3.784   4.593  0.9106 -0.6585 -0.4532
   89MOL0    Cl11925   0.543   3.662   4.630  0.4584  0.1293  0.0677
   89MOL0     C11926   1.025   3.770   3.957 -0.4840  0.4096 -0.5257
   89MOL0     C11927   1.134   3.758   3.872 -0.4656  0.3424 -0.2060
   89MOL0     O11928   1.237   3.757   3.536 -0.1382  0.8102 -0.0370
   89MOL0     C11929   1.473   3.509   3.599  0.3826  0.8284  0.4942
   89MOL0     C11930   1.585   3.448   3.557 -0.0237 -0.9322  0.5509
   89MOL0     N11931   2.205   2.952   3.512 -1.0024 -0.8733  0.4902
   89MOL0     N11932   2.294   2.864   3.541 -1.0115 -0.9828  0.2715
   89MOL0     C11933   3.372   3.004   3.296  0.3700  0.9026 -0.5278
   89MOL0     C11934   3.513   3.027   3.280  0.4373 -0.3783 -0.2126
   89MOL0     C11935   3.961   2.935   3.141  0.7387 -0.2988 -0.3564
   89MOL0     C11936   4.076   2.866   3.175  0.7080 -0.1789  0.7447
   89MOL0     C11937   4.204   2.900   3.113  0.4537 -0.0253  0.0602
   89MOL0     C11938   4.215   2.998   3.012  0.0012  0.2346  0.8739
   89MOL0     O11939   4.324   3.030   2.938  0.4208 -0.6035 -0.0154
   89MOL0     C11940   4.429   2.929   2.924  0.0136  0.4567  0.1342
   89MOL0     C11941   4.405   2.844   2.796  0.1289 -0.5748 -0.4292
   89MOL0     C11942   4.467   2.704   2.807 -0.6386 -0.1110  0.5006
   89MOL0     C11943   4.367   2.613   2.885 -0.1576  0.5147  0.9599
   89MOL0     C11944   4.398   2.599   3.025 -0.0096 -0.2859  0.0044
   89MOL0     C11945   4.457   2.582   3.127 -0.4691 -0.2174 -0.5288
   89MOL0     C11946   4.098   3.072   2.981 -0.0974 -0.1904 -0.3496
   89MOL0     C11947   3.973   3.039   3.048 -0.3111 -0.3800 -0.1266
   89MOL0     H11948   3.604   2.788   3.063 -0.1767 -0.4433 -0.0133
   89MOL0     H11949   3.375   2.712   3.112  0.1071  0.8422 -1.3992
   89MOL0     H11950   3.222   2.631   3.231 -2.1658  0.2491 -0.5600
   89MOL0     H11951   3.212   2.683   3.402  1.7964  1.0988 -0.1063
   89MOL0     H11952   3.002   2.700   3.182  1.7315  1.6169  0.0430
   89MOL0     H11953   2.995   2.567   3.306  0.5253 -0.6196  0.2795
   89MOL0     H11954   2.961   2.722   3.478 -0.5571 -1.5652 -1.0001
   89MOL0     H11955   2.965   2.855   3.355 -1.3864  1.0545  0.5559
   89MOL0     H11956   2.758   2.818   3.279 -0.7103  0.7644  1.1282
   89MOL0     H11957   2.764   2.642   3.304  2.6339 -0.0688 -0.1577
   89MOL0     H11958   2.602   2.731   3.450 -0.5933 -0.4791  0.2306
   89MOL0     H11959   2.748   2.697   3.555  1.7119 -0.9490 -1.2354
   89MOL0     H11960   2.794   2.965   3.514 -1.4833  2.5183  0.6528
   89MOL0     H11961   2.632   2.965   3.456  0.0238 -0.0501 -0.6215
   89MOL0     H11962   2.724   2.861   3.730  0.5421  0.5208 -0.3598
   89MOL0     H11963   2.654   3.012   3.716  0.2732 -0.6051  0.0688
   89MOL0     H11964   2.473   2.860   3.790  2.3848 -3.4300  1.1900
   89MOL0     H11965   2.505   2.748   3.667 -2.5660 -0.2975  1.3992
   89MOL0     H11966   2.459   3.140   3.619 -0.8693 -0.3803  3.2821
   89MOL0     H11967   2.237   3.271   3.623 -1.5251  0.4615  0.8794
   89MOL0     H11968   2.240   3.263   3.449  1.3650 -0.4286 -0.6424
   89MOL0     H11969   2.009   3.143   3.626 -2.5243 -0.3179 -1.3380
   89MOL0     H11970   2.012   3.148   3.455 -1.3504  0.6084  0.9645
   89MOL0     H11971   2.018   3.407   3.457 -1.0315 -0.2326 -1.6523
   89MOL0     H11972   2.017   3.407   3.623  3.7508 -0.7506  0.0234
   89MOL0     H11973   1.786   3.327   3.621 -0.9609 -3.9203 -1.0426
   89MOL0     H11974   1.800   3.246   3.468  1.1635 -0.9263 -1.0878
   89MOL0     H11975   1.708   3.664   3.342  0.2799 -0.4916 -0.0570
   89MOL0     H11976   1.383   3.819   3.336  0.7488 -1.8959 -1.9113
   89MOL0     H11977   1.471   3.903   3.464 -2.2580  3.0189 -3.0520
   89MOL0     H11978   1.561   3.854   3.315 -2.5329  1.5946 -2.1885
   89MOL0     H11979   1.033   3.496   3.684  0.6110  1.8795 -2.0002
   89MOL0     H11980   0.827   3.538   3.813  1.6225 -2.8256  0.9792
   89MOL0     H11981   0.661   3.674   3.861 -0.7564  1.2799 -0.2772
   89MOL0     H11982   0.669   3.557   3.994  0.4310 -0.1012  0.8156
   89MOL0     H11983   0.606   3.838   4.078  3.3703 -1.1894 -0.8496
   89MOL0     H11984   0.500   3.784   3.950  0.5968  1.7436 -0.4768
   89MOL0     H11985   0.552   3.648   4.215  1.3261  1.5890 -0.3812
   89MOL0     H11986   0.483   3.556   4.088 -0.0466  0.1316  1.0072
   89MOL0     H11987   0.357   3.819   4.174 -1.0877  0.2089 -0.8640
   89MOL0     H11988   0.305   3.703   4.050  0.3611 -1.4982 -0.3431
   89MOL0     H11989   0.269   3.532   4.239  0.9276  0.3420 -1.2006
   89MOL0     H11990   0.170   3.676   4.257 -0.4952 -0.7982  1.0682
   89MOL0     H11991   0.251   3.623   4.477  0.6181 -1.0056  0.5751
   89MOL0     H11992   0.413   3.583   4.414  0.1382 -0.4905 -1.0075
   89MOL0     H11993   0.296   3.861   4.445 -1.1514 -0.5053  0.7691
   89MOL0     H11994   0.453   3.821   4.376  0.1128 -2.5889 -1.2648
   89MOL0     H11995   0.338   3.782   4.670  0.3974 -0.8356 -0.9731
   89MOL0     H11996   0.460   3.882   4.614  1.3448 -0.7472 -0.9113
   89MOL0     H11997   1.034   3.853   4.025 -1.4506 -3.6008  5.1869
   89MOL0     H11998   1.226   3.816   3.877 -0.0444 -0.1981 -1.4402
   89MOL0     H11999   1.428   3.455   3.682 -0.0846 -1.1169 -0.9419
   89MOL0     H12000   1.603   3.360   3.617  0.5980  0.4486  2.4782
   89MOL0     H12001   3.306   3.066   3.356 -0.8071 -0.0921 -0.7573
   89MOL0     H12002   3.549   3.120   3.322  1.1317 -1.3061  1.3611
   89MOL0     H12003   4.070   2.785   3.246 -4.0805 -2.6155 -1.9446
   89MOL0     H12004   4.290   2.839   3.139  0.8464  0.4826 -0.0422
   89MOL0     H12005   4.528   2.974   2.913 -0.0994  0.0477 -4.6761
   89MOL0     H12006   4.431   2.867   3.014 -1.3859  2.1573  1.4047
   89MOL0     H12007   4.450   2.896   2.711 -2.8619 -1.3611 -2.6626
   89MOL0     H12008   4.299   2.832   2.773  0.1932 -2.0054 -0.0575
   89MOL0     H12009   4.564   2.713   2.857 -1.5316  3.2092  1.9337
   89MOL0     H12010   4.488   2.674   2.704  0.7214 -0.4491  0.8528
   89MOL0     H12011   4.368   2.515   2.837  1.2989  0.6961  0.5599
   89MOL0     H12012   4.264   2.644   2.869  0.0452  0.1461 -1.4427
   89MOL0     H12013   4.517   2.594   3.214 -0.2164  2.6128 -0.9971
   89MOL0     H12014   4.109   3.151   2.908  2.0164 -0.5752 -0.4947
   89MOL0     H12015   3.886   3.100   3.024 -0.0105 -0.4166 -1.4260
   90MOL0     O12016  11.101  10.177   9.981 -0.2519  0.4341 -0.3262
   90MOL0     C12017  11.157  10.076  10.022  0.0192  0.2691  0.4016
   90MOL0     O12018  11.099   9.955  10.025 -0.2627  0.0446 -0.2162
   90MOL0     C12019  10.962   9.928  10.027 -0.2079 -0.5752  1.2815
   90MOL0     C12020  10.862  10.021  10.056 -0.3409 -0.3310  0.1613
   90MOL0     C12021  10.726   9.978  10.048  0.7642  0.0871 -0.8311
   90MOL0     C12022  10.686   9.852  10.010  0.2214 -1.1720  0.5515
   90MOL0     O12023  10.559   9.807  10.013  0.3564 -0.0378  0.1033
   90MOL0     C12024  10.453   9.901  10.007  0.1552 -0.9593 -0.5074
   90MOL0     C12025  10.380   9.921  10.142 -0.1994  0.1888 -0.5270
   90MOL0     C12026  10.324   9.787  10.184 -0.1687 -0.5371 -0.3121
   90MOL0     C12027  10.213   9.794  10.286 -0.0724 -0.2484  0.1164
   90MOL0     C12028  10.178   9.659  10.345  0.4749 -0.5484 -0.1500
   90MOL0     C12029  10.042   9.664  10.413  0.3961 -0.1176  1.0416
   90MOL0     C12030  10.024   9.529  10.480 -0.7610  0.8997 -0.4486
   90MOL0     C12031   9.878   9.493  10.503 -0.4525 -0.6203  0.3839
   90MOL0     N12032   9.806   9.582  10.601  0.4152 -0.9663 -0.1484
   90MOL0     C12033   9.736   9.704  10.573 -0.3137  0.0910  0.1185
   90MOL0     C12034   9.677   9.739  10.690  0.3718  0.5665  0.1162
   90MOL0     C12035   9.588   9.854  10.712 -0.5833  0.3716 -0.1944
   90MOL0     C12036   9.663   9.960  10.795  0.6304 -0.1068 -0.9175
   90MOL0     C12037   9.597  10.097  10.797  0.0197 -0.0220 -0.7533
   90MOL0     C12038   9.470  10.119  10.883 -0.4076 -0.2831 -0.4615
   90MOL0     O12039   9.356  10.046  10.825 -0.1815 -0.5865  0.0253
   90MOL0     C12040   9.236  10.079  10.878 -0.3679  0.4326  0.5926
   90MOL0     C12041   9.205  10.156  10.992 -0.5081 -0.6596  0.1840
   90MOL0     C12042   9.078  10.171  11.046  0.3380 -0.4092 -0.1908
   90MOL0     C12043   9.072  10.259  11.170 -0.1736  0.2258 -0.5284
   90MOL0     C12044   8.967  10.114  10.976 -0.3440 -0.3303 -0.7830
   90MOL0     C12045   8.817  10.128  11.011  0.7404  1.0618  0.4144
   90MOL0     O12046   8.788  10.151  11.145  0.3320  0.1256  0.1118
   90MOL0     C12047   8.651  10.142  11.176 -1.7690  0.1140  0.7065
   90MOL0     C12048   8.602  10.016  11.216 -0.1393  0.0849 -0.0334
   90MOL0     C12049   8.475  10.009  11.262  0.8237  0.5263 -0.1939
   90MOL0     C12050   8.392  10.118  11.273 -1.1238  0.1699  0.0061
   90MOL0     O12051   8.271  10.115  11.330 -0.1352 -0.3207  0.1384
   90MOL0     C12052   8.192  10.003  11.290 -0.1441  0.8448 -0.7867
   90MOL0     C12053   8.047  10.037  11.269 -0.4763 -0.4146  0.2468
   90MOL0     C12054   7.997  10.113  11.391  0.5434  0.4014 -0.0599
   90MOL0     C12055   7.841  10.119  11.399 -0.2055  0.0696  0.3617
   90MOL0     C12056   7.786   9.991  11.459  0.8378  0.3468  0.8191
   90MOL0     C12057   7.637   9.998  11.447 -0.5011 -0.1702  0.3426
   90MOL0     C12058   7.578   9.875  11.523  0.1074  0.1107  0.0631
   90MOL0     C12059   7.429   9.880  11.538  0.0885 -0.0893  0.9616
   90MOL0    Cl12060   7.356   9.894  11.376 -0.3226 -0.2066 -0.3693
   90MOL0     C12061   8.439  10.242  11.237  0.5210 -0.9703 -0.3735
   90MOL0     C12062   8.567  10.251  11.181 -0.4102 -0.5279 -0.6298
   90MOL0     O12063   8.731  10.106  10.926  0.3719 -0.1558  0.5253
   90MOL0     C12064   8.998  10.044  10.855  0.6641  0.2579 -0.1051
   90MOL0     C12065   9.129  10.024  10.814 -0.3800 -0.0920  0.2656
   90MOL0     N12066   9.712   9.640  10.788  0.2999 -0.2335 -0.1434
   90MOL0     N12067   9.783   9.553  10.732 -0.1185 -0.0365 -0.5265
   90MOL0     C12068  10.788   9.765   9.974  0.1996 -0.0104  0.2187
   90MOL0     C12069  10.922   9.801   9.978 -0.4405 -0.2328 -0.1403
   90MOL0     C12070  11.297  10.093  10.066 -0.0290  0.0864 -0.3624
   90MOL0     C12071  11.362   9.976  10.126 -0.3242 -0.0817  0.1661
   90MOL0     C12072  11.489   9.980  10.175 -0.1378 -1.1508 -0.8701
   90MOL0     C12073  11.557  10.101  10.163 -1.1954 -0.5301  0.2758
   90MOL0     O12074  11.678  10.095  10.215  0.3544 -0.3300 -0.3590
   90MOL0     C12075  11.754  10.220  10.220 -0.9210 -0.3617 -0.5643
   90MOL0     C12076  11.880  10.200  10.300 -0.6339  0.3634  0.1790
   90MOL0     C12077  11.962  10.084  10.249 -0.3846 -0.3591 -0.6835
   90MOL0     C12078  12.097  10.070  10.318 -0.4763  0.0578 -0.3749
   90MOL0     C12079  12.202  10.156  10.255  0.5897  0.2376  0.2579
   90MOL0     C12080  12.287  10.236  10.213  0.7172  0.4031 -0.0165
   90MOL0     C12081  11.509  10.219  10.100 -0.4895  0.6125 -0.3053
   90MOL0     C12082  11.375  10.208  10.049 -0.0591  0.6198 -0.5851
   90MOL0     H12083  10.886  10.122  10.086 -0.5573 -0.4353  0.7054
   90MOL0     H12084  10.653  10.041  10.098  1.5421 -0.6024  1.2933
   90MOL0     H12085  10.492   9.999   9.977 -2.2080  0.5323  0.9029
   90MOL0     H12086  10.373   9.869   9.940 -2.6080  1.1217  1.5002
   90MOL0     H12087  10.441   9.961  10.224  0.6674  0.3312 -1.2216
   90MOL0     H12088  10.303   9.998  10.133 -1.5585 -1.0008  0.4516
   90MOL0     H12089  10.287   9.736  10.095  1.6090 -0.0830 -1.3540
   90MOL0     H12090  10.406   9.731  10.229 -0.3467 -0.1305  0.5298
   90MOL0     H12091  10.260   9.851  10.367  0.5777 -0.5443 -0.0466
   90MOL0     H12092  10.131   9.859  10.253  0.3173 -0.2696 -0.9206
   90MOL0     H12093  10.178   9.579  10.270 -1.2907 -1.6108  0.9111
   90MOL0     H12094  10.255   9.624  10.415  1.1772  0.6075 -0.3294
   90MOL0     H12095  10.025   9.751  10.477 -2.0127  0.2871 -0.0520
   90MOL0     H12096   9.969   9.671  10.332  1.4886  1.8918  0.1531
   90MOL0     H12097  10.078   9.469  10.406 -3.2619  1.7921 -3.1812
   90MOL0     H12098  10.076   9.520  10.576 -1.3156 -1.3949 -0.3168
   90MOL0     H12099   9.864   9.386  10.522  0.7457 -0.7161  0.8010
   90MOL0     H12100   9.835   9.512  10.404  0.3836  2.9118  0.5654
   90MOL0     H12101   9.729   9.747  10.473  2.8241  1.4131  0.3453
   90MOL0     H12102   9.561   9.893  10.614 -2.5208 -0.3507  0.0229
   90MOL0     H12103   9.493   9.821  10.755 -1.0817  0.2116 -1.3865
   90MOL0     H12104   9.767   9.972  10.761  1.1736  0.9696  0.9710
   90MOL0     H12105   9.677   9.928  10.899  2.8495  0.8908 -0.8409
   90MOL0     H12106   9.575  10.120  10.692  1.3212  0.1602 -1.0076
   90MOL0     H12107   9.681  10.158  10.830 -1.9344  1.2136  2.3860
   90MOL0     H12108   9.448  10.225  10.896 -2.1175 -0.7580  0.9525
   90MOL0     H12109   9.489  10.089  10.986 -2.6647  3.3306  1.2104
   90MOL0     H12110   9.287  10.200  11.049 -1.4521 -0.3560  1.3430
   90MOL0     H12111   9.127  10.212  11.252  1.2790 -0.3849 -1.8030
   90MOL0     H12112   9.122  10.353  11.147  3.3088 -1.6428 -1.2910
   90MOL0     H12113   8.972  10.284  11.207  0.9770  3.3942  0.7326
   90MOL0     H12114   8.679   9.941  11.232  0.2806  0.6074  0.4000
   90MOL0     H12115   8.442   9.909  11.287  1.4811  0.9073  2.5399
   90MOL0     H12116   8.223   9.953  11.198 -0.9893 -1.3189  0.0394
   90MOL0     H12117   8.186   9.936  11.377  0.7711 -0.6364 -1.8174
   90MOL0     H12118   8.040  10.098  11.178 -0.9059 -0.9128 -0.0601
   90MOL0     H12119   7.994   9.943  11.255  0.2009 -0.9822  1.3316
   90MOL0     H12120   8.041  10.212  11.378  0.4250  0.3434 -0.9297
   90MOL0     H12121   8.038  10.073  11.485 -0.1973 -1.3391 -0.4470
   90MOL0     H12122   7.805  10.205  11.456 -1.8220  1.0394 -1.9609
   90MOL0     H12123   7.811  10.146  11.297 -0.3699 -0.0111  0.3882
   90MOL0     H12124   7.805   9.992  11.567  2.4692 -0.8774  0.5870
   90MOL0     H12125   7.841   9.906  11.415 -2.5563 -2.3819  1.4236
   90MOL0     H12126   7.600  10.090  11.494  1.1419  0.2964  0.7691
   90MOL0     H12127   7.612   9.989  11.341 -1.4319 -3.1516  0.7165
   90MOL0     H12128   7.619   9.859  11.623 -1.0095 -0.6546  0.4207
   90MOL0     H12129   7.605   9.786  11.465 -3.9458  0.5405 -2.9537
   90MOL0     H12130   7.404   9.965  11.602  0.8735 -0.4604  1.7783
   90MOL0     H12131   7.389   9.793  11.592 -0.8524 -0.1529  0.1892
   90MOL0     H12132   8.383  10.334  11.247  1.8269 -0.2127  0.2937
   90MOL0     H12133   8.601  10.350  11.152 -1.3460 -0.5309 -1.8311
   90MOL0     H12134   8.919  10.002  10.793  0.4539  2.5143 -1.4826
   90MOL0     H12135   9.148   9.966  10.724 -1.3362 -1.7169  1.0613
   90MOL0     H12136  10.765   9.659   9.966  0.7595 -0.1561  0.5424
   90MOL0     H12137  10.995   9.729   9.943 -1.6084 -0.8109 -1.4765
   90MOL0     H12138  11.299   9.892  10.151  1.7212 -1.5420  0.6551
   90MOL0     H12139  11.536   9.894  10.223 -1.1745 -1.8833 -1.1314
   90MOL0     H12140  11.780  10.246  10.117  2.2131 -2.1179 -0.3552
   90MOL0     H12141  11.709  10.307  10.270  3.2402  1.1378  1.0787
   90MOL0     H12142  11.860  10.170  10.403 -0.1681  0.2961  0.2527
   90MOL0     H12143  11.941  10.291  10.305  1.5420 -0.9530 -0.8411
   90MOL0     H12144  11.965  10.084  10.140  2.6067  1.2263 -0.6825
   90MOL0     H12145  11.915   9.992  10.288  0.4925 -1.4024 -1.9966
   90MOL0     H12146  12.111   9.963  10.307 -2.2171 -0.3493  0.9348
   90MOL0     H12147  12.085  10.088  10.425 -0.8416  0.4488 -0.4753
   90MOL0     H12148  12.364  10.293  10.165  1.7991 -0.6811  0.3928
   90MOL0     H12149  11.557  10.315  10.090  0.0246  0.3536 -0.3413
   90MOL0     H12150  11.335  10.302  10.012  1.9061  1.2223 -1.3397
   91MOL0     O12151   8.162   6.962   1.792  0.4425  0.3319  0.2652
   91MOL0     C12152   8.075   6.967   1.880  0.2747 -0.0578  0.2149
   91MOL0     O12153   8.075   7.054   1.982 -0.0686  0.2295 -0.4856
   91MOL0     C12154   8.180   7.139   1.992  0.2864  0.4097 -0.4406
   91MOL0     C12155   8.161   7.273   1.956  0.2911 -0.0717  0.7124
   91MOL0     C12156   8.269   7.361   1.973 -1.0667 -0.0528 -0.6274
   91MOL0     C12157   8.391   7.312   2.018  0.7813  0.0491 -0.2840
   91MOL0     O12158   8.488   7.409   2.030 -0.2287 -0.4002  0.0575
   91MOL0     C12159   8.622   7.376   2.078 -0.5108  0.4349  0.4546
   91MOL0     C12160   8.687   7.514   2.103 -0.4504 -0.5492 -0.0617
   91MOL0     C12161   8.738   7.570   1.968  0.4741  0.3969 -0.2132
   91MOL0     C12162   8.677   7.717   1.944  0.2147  0.3858  0.5161
   91MOL0     C12163   8.556   7.730   1.860  0.8248 -0.1020  0.5252
   91MOL0     C12164   8.541   7.880   1.812 -0.6935 -0.2237  0.0779
   91MOL0     C12165   8.405   7.909   1.746  0.4877 -1.2243  0.0424
   91MOL0     C12166   8.278   7.872   1.822 -0.1213  0.5648  0.3941
   91MOL0     N12167   8.157   7.920   1.749 -0.1585  0.0174 -0.4718
   91MOL0     C12168   8.064   7.850   1.680 -0.0218  0.5233 -0.2011
   91MOL0     C12169   7.981   7.946   1.624 -0.3435 -0.0394  0.2772
   91MOL0     C12170   7.871   7.930   1.530  0.2586 -0.7614 -0.3351
   91MOL0     C12171   7.747   8.020   1.565  0.4556 -0.2532  0.4384
   91MOL0     C12172   7.736   8.158   1.498  0.4724  0.8908 -0.0682
   91MOL0     C12173   7.627   8.245   1.558 -0.6791 -0.7865  0.0077
   91MOL0     O12174   7.652   8.385   1.543  0.1800 -0.3966  0.5981
   91MOL0     C12175   7.551   8.477   1.592  0.2961 -0.1522  0.4802
   91MOL0     C12176   7.573   8.616   1.577  0.5419 -0.4848  0.3609
   91MOL0     C12177   7.490   8.712   1.617 -0.3326 -0.3889 -0.2041
   91MOL0     C12178   7.548   8.856   1.607  0.4067 -0.1124 -0.5119
   91MOL0     C12179   7.362   8.674   1.674  0.2843 -0.3013 -0.1841
   91MOL0     C12180   7.259   8.774   1.717 -0.0719 -0.1551 -0.0631
   91MOL0     O12181   7.133   8.721   1.756 -0.2669 -0.1013 -0.1591
   91MOL0     C12182   7.016   8.810   1.771  0.0213  1.1908 -0.8728
   91MOL0     C12183   6.927   8.789   1.876 -1.1470 -0.0454  0.0051
   91MOL0     C12184   6.814   8.867   1.892 -0.0529  0.7290  0.0959
   91MOL0     C12185   6.774   8.962   1.797 -0.0787  0.0503  0.2117
   91MOL0     O12186   6.648   9.010   1.804  0.3811  0.4685 -0.6150
   91MOL0     C12187   6.617   9.123   1.723  0.3267  0.2780  0.7431
   91MOL0     C12188   6.477   9.169   1.752  0.5213  0.8445  0.3972
   91MOL0     C12189   6.473   9.207   1.909 -0.3913  0.1375 -0.5217
   91MOL0     C12190   6.330   9.198   1.968 -0.6638 -0.2794  0.4234
   91MOL0     C12191   6.235   9.303   1.908  0.1377  1.0523  0.0145
   91MOL0     C12192   6.301   9.435   1.862 -0.3852 -0.9178 -0.4095
   91MOL0     C12193   6.196   9.547   1.825 -0.3280 -0.4152 -0.4135
   91MOL0     C12194   6.233   9.696   1.845 -0.4646  0.0681 -0.5127
   91MOL0    Cl12195   6.388   9.737   1.750 -0.1870 -0.0809 -0.0835
   91MOL0     C12196   6.867   8.989   1.694  0.1373  0.8410  0.1409
   91MOL0     C12197   6.985   8.910   1.678  0.5619 -0.9570 -0.1527
   91MOL0     O12198   7.277   8.893   1.701 -0.7357  0.1513  0.0163
   91MOL0     C12199   7.343   8.539   1.691  0.6577  0.2895 -0.0325
   91MOL0     C12200   7.436   8.438   1.660  0.0772  0.9262  0.4680
   91MOL0     N12201   8.013   8.070   1.686  0.5120  0.2997  0.6541
   91MOL0     N12202   8.120   8.049   1.755 -0.0802  0.2271  0.5289
   91MOL0     C12203   8.406   7.178   2.057  0.4928  0.6213 -0.3225
   91MOL0     C12204   8.300   7.089   2.041  0.5256  0.7883  0.2590
   91MOL0     C12205   7.962   6.873   1.879 -0.3113  0.4274  0.7304
   91MOL0     C12206   7.926   6.797   1.762  0.4593 -0.9505 -0.2615
   91MOL0     C12207   7.815   6.712   1.765  0.4480 -0.3920 -0.4711
   91MOL0     C12208   7.754   6.685   1.895 -0.1159  0.3057 -0.0672
   91MOL0     O12209   7.670   6.572   1.894 -0.0548 -0.3563  0.0231
   91MOL0     C12210   7.566   6.561   1.997  0.5958 -0.3019 -0.0818
   91MOL0     C12211   7.461   6.464   1.927 -0.4262  0.7344 -0.3337
   91MOL0     C12212   7.525   6.327   1.890 -0.5169 -0.2096  1.1160
   91MOL0     C12213   7.580   6.241   2.006  0.4471 -0.7324  0.3881
   91MOL0     C12214   7.466   6.177   2.065 -0.6526  0.3635  0.2240
   91MOL0     C12215   7.366   6.118   2.106  0.3627 -0.4367  0.0470
   91MOL0     C12216   7.788   6.757   2.007 -0.0479 -0.3140  0.3668
   91MOL0     C12217   7.894   6.847   1.998  0.9591 -0.4044  0.3234
   91MOL0     H12218   8.068   7.318   1.922  1.0451  1.2574  0.3674
   91MOL0     H12219   8.259   7.467   1.951 -2.6112 -0.2081 -0.7875
   91MOL0     H12220   8.613   7.327   2.176  1.5671 -1.5426 -0.2753
   91MOL0     H12221   8.678   7.308   2.014 -0.6204  1.3199 -0.6131
   91MOL0     H12222   8.626   7.588   2.155 -1.6813 -0.9060 -0.9439
   91MOL0     H12223   8.757   7.502   2.187 -2.4166  0.3915  1.7891
   91MOL0     H12224   8.847   7.576   1.974  0.5196  1.3013 -1.5635
   91MOL0     H12225   8.721   7.509   1.879  2.0496  1.6767 -1.4607
   91MOL0     H12226   8.669   7.782   2.032 -0.1899  0.6506  0.2854
   91MOL0     H12227   8.756   7.759   1.880 -0.2751 -0.7947 -0.9188
   91MOL0     H12228   8.566   7.669   1.771 -1.5406 -1.5390  1.1667
   91MOL0     H12229   8.472   7.689   1.917  0.3860  0.9393  0.6683
   91MOL0     H12230   8.542   7.948   1.898 -0.1903 -2.1274  1.6515
   91MOL0     H12231   8.627   7.910   1.752  0.5627  0.2944  2.0273
   91MOL0     H12232   8.402   8.017   1.727 -2.0828 -1.6828 -2.9057
   91MOL0     H12233   8.400   7.854   1.652 -2.4420 -0.0683 -0.5868
   91MOL0     H12234   8.295   7.923   1.917 -0.1648  0.2720  0.5592
   91MOL0     H12235   8.268   7.763   1.827  2.9943  0.1943  0.3336
   91MOL0     H12236   8.065   7.744   1.657  2.5723  0.5045 -0.3173
   91MOL0     H12237   7.901   7.949   1.427 -0.8162  1.4384 -0.2906
   91MOL0     H12238   7.847   7.823   1.519 -0.6315 -0.5769 -0.2554
   91MOL0     H12239   7.759   8.048   1.670  2.9862  1.3186 -0.1829
   91MOL0     H12240   7.656   7.963   1.547  0.3305  0.3862 -1.0912
   91MOL0     H12241   7.707   8.131   1.396  1.9906 -0.1415 -0.2664
   91MOL0     H12242   7.830   8.215   1.499  0.5471  0.7918 -0.8186
   91MOL0     H12243   7.634   8.219   1.664  2.0536  0.5057  0.2377
   91MOL0     H12244   7.526   8.227   1.520 -0.1503 -0.6593 -1.5309
   91MOL0     H12245   7.670   8.642   1.535 -0.2697  0.2258 -1.1452
   91MOL0     H12246   7.496   8.910   1.527 -0.1515  3.5836  2.0911
   91MOL0     H12247   7.549   8.913   1.700  1.0977 -0.7901 -0.0956
   91MOL0     H12248   7.650   8.852   1.567  0.0054  0.3394 -1.6360
   91MOL0     H12249   6.959   8.720   1.953  1.5072 -0.1887 -1.1495
   91MOL0     H12250   6.742   8.841   1.969 -0.1073 -4.2938 -1.3040
   91MOL0     H12251   6.693   9.200   1.742  0.6567 -0.0828  0.8839
   91MOL0     H12252   6.609   9.098   1.617 -2.2082  1.6304  0.5338
   91MOL0     H12253   6.458   9.258   1.691  0.7554  0.2031 -0.6334
   91MOL0     H12254   6.408   9.090   1.724  1.8125  0.3430 -1.6122
   91MOL0     H12255   6.519   9.305   1.922 -1.0906  0.4287 -0.2008
   91MOL0     H12256   6.531   9.134   1.967  1.8931  0.0214 -2.7632
   91MOL0     H12257   6.276   9.107   1.941 -2.9276  0.9758  0.4990
   91MOL0     H12258   6.340   9.197   2.077  2.4793  2.7264  0.3578
   91MOL0     H12259   6.148   9.327   1.970 -3.2965  0.2007 -4.0031
   91MOL0     H12260   6.190   9.259   1.819  3.0026 -0.2024 -0.9549
   91MOL0     H12261   6.366   9.479   1.938  0.4739 -0.4185 -1.4075
   91MOL0     H12262   6.370   9.430   1.777  1.2582 -0.1168  0.8183
   91MOL0     H12263   6.107   9.534   1.888  0.9267 -0.5195  1.4184
   91MOL0     H12264   6.170   9.529   1.721  3.2133  2.0560 -1.9026
   91MOL0     H12265   6.260   9.707   1.951  0.2448 -1.9635 -0.4376
   91MOL0     H12266   6.151   9.765   1.824 -1.0687 -0.2721  0.6094
   91MOL0     H12267   6.833   9.048   1.610 -1.8030  1.2688  1.1507
   91MOL0     H12268   7.053   8.921   1.594  1.1549  3.7254  0.6522
   91MOL0     H12269   7.251   8.505   1.738  0.2225  0.8772 -0.4497
   91MOL0     H12270   7.415   8.332   1.670 -2.8867  1.1879 -1.3521
   91MOL0     H12271   8.503   7.141   2.086  0.5084  0.3194 -0.7470
   91MOL0     H12272   8.301   6.982   2.060  0.0764  0.9848  1.4963
   91MOL0     H12273   7.985   6.815   1.673 -1.1110  4.1251 -0.6042
   91MOL0     H12274   7.773   6.668   1.676  1.2288  0.6756 -1.3862
   91MOL0     H12275   7.604   6.526   2.093 -0.6262  0.4747  0.7141
   91MOL0     H12276   7.526   6.662   2.013  2.0483  0.4515 -0.9780
   91MOL0     H12277   7.414   6.511   1.840 -0.7379 -0.3518 -0.7711
   91MOL0     H12278   7.384   6.438   2.000 -0.1200 -1.2741 -0.6770
   91MOL0     H12279   7.604   6.345   1.817  0.7931  0.9860  2.7566
   91MOL0     H12280   7.449   6.270   1.835  3.4342 -4.1543 -0.8997
   91MOL0     H12281   7.642   6.300   2.074 -2.4627 -0.4357  3.0087
   91MOL0     H12282   7.643   6.159   1.970 -0.1066 -0.4031 -1.4040
   91MOL0     H12283   7.277   6.069   2.139 -0.4313  1.7437  1.3005
   91MOL0     H12284   7.741   6.729   2.101 -2.5885 -0.4804 -0.8575
   91MOL0     H12285   7.923   6.895   2.091 -0.1837 -0.1965  0.5949
   92MOL0     O12286   7.951   3.059   7.067 -0.3542  0.3078  0.0204
   92MOL0     C12287   7.856   3.009   7.002 -0.3784  0.4154  0.1353
   92MOL0     O12288   7.874   2.926   6.899  0.0534  0.2548 -0.0240
   92MOL0     C12289   8.002   2.881   6.859  0.7348 -0.4693  0.0629
   92MOL0     C12290   8.105   2.968   6.815 -0.5626  0.5386  0.1576
   92MOL0     C12291   8.226   2.917   6.760  0.0641  0.2933  0.5161
   92MOL0     C12292   8.246   2.777   6.745 -0.7835 -0.5222 -0.6091
   92MOL0     O12293   8.366   2.713   6.702  0.1817  0.6843 -0.2284
   92MOL0     C12294   8.491   2.761   6.756  0.5318 -0.2865 -0.1251
   92MOL0     C12295   8.609   2.670   6.722 -0.1886  0.8040 -0.1629
   92MOL0     C12296   8.596   2.530   6.787  0.2514 -0.9686  0.3725
   92MOL0     C12297   8.671   2.537   6.928 -0.7509 -0.0825 -0.2034
   92MOL0     C12298   8.826   2.543   6.921  0.2897  0.5589 -0.4865
   92MOL0     C12299   8.896   2.500   7.051  0.0309  0.1027 -0.0349
   92MOL0     C12300   8.848   2.585   7.164  0.6226 -0.6265  1.0081
   92MOL0     C12301   8.933   2.562   7.286 -0.2090  0.0991 -0.1155
   92MOL0     N12302   8.874   2.626   7.406 -0.6677 -0.0461 -0.2868
   92MOL0     C12303   8.832   2.759   7.413  0.1700  0.0516 -0.4232
   92MOL0     C12304   8.745   2.771   7.518 -0.4982 -0.4835  0.1657
   92MOL0     C12305   8.668   2.893   7.546 -0.3341  0.0445 -0.2466
   92MOL0     C12306   8.557   2.869   7.641 -0.3523  0.2889  0.6461
   92MOL0     C12307   8.483   2.999   7.681  0.0380  1.0474 -0.1936
   92MOL0     C12308   8.342   2.959   7.748 -0.4625 -0.2150  0.7471
   92MOL0     O12309   8.266   2.884   7.650  0.1317 -0.1512  0.2401
   92MOL0     C12310   8.162   2.804   7.692 -0.4589  0.0940 -0.2905
   92MOL0     C12311   8.060   2.858   7.778  0.1693 -0.1198  0.2937
   92MOL0     C12312   7.952   2.775   7.808  0.0088 -0.3124  0.8370
   92MOL0     C12313   7.845   2.829   7.905 -0.3118  0.7110  0.2637
   92MOL0     C12314   7.939   2.648   7.743 -0.2243  0.3012 -0.0272
   92MOL0     C12315   7.832   2.554   7.780 -0.2892  0.8620  0.3112
   92MOL0     O12316   7.782   2.480   7.679 -0.4695  0.1905 -0.3068
   92MOL0     C12317   7.669   2.407   7.707  0.6156 -0.5592 -0.3897
   92MOL0     C12318   7.663   2.266   7.693 -0.3610 -0.1190  0.0232
   92MOL0     C12319   7.547   2.200   7.709 -0.3647 -0.1419 -1.0794
   92MOL0     C12320   7.428   2.264   7.747 -0.4262 -0.6495  0.5899
   92MOL0     O12321   7.320   2.185   7.769 -0.4278  0.0970  0.3732
   92MOL0     C12322   7.202   2.241   7.837  0.0418 -0.2262  0.5499
   92MOL0     C12323   7.078   2.156   7.839 -0.0819  0.1845 -0.3400
   92MOL0     C12324   7.107   2.003   7.861  0.2906  0.1569  0.3004
   92MOL0     C12325   6.968   1.935   7.883 -0.8255  0.3274 -0.7539
   92MOL0     C12326   6.984   1.817   7.984  0.2380  0.6698 -0.1377
   92MOL0     C12327   6.853   1.735   7.988 -0.0924  0.3338 -0.0998
   92MOL0     C12328   6.871   1.596   8.055  0.8596 -0.4892 -0.4052
   92MOL0     C12329   6.966   1.506   7.978  0.8741 -0.6540 -0.3663
   92MOL0    Cl12330   6.976   1.351   8.074  0.3882  0.1835  0.5302
   92MOL0     C12331   7.424   2.407   7.750  0.4709  0.5549  0.8513
   92MOL0     C12332   7.543   2.470   7.736 -0.6225 -0.1483 -0.0814
   92MOL0     O12333   7.808   2.537   7.898 -0.0857 -0.1917 -0.0744
   92MOL0     C12334   8.043   2.595   7.672  0.1960 -0.4130  0.0324
   92MOL0     C12335   8.151   2.677   7.640  0.0420 -0.1229  0.0575
   92MOL0     N12336   8.742   2.645   7.579  0.7645  0.2742  0.8675
   92MOL0     N12337   8.828   2.558   7.513  0.9532 -0.0012  0.6346
   92MOL0     C12338   8.134   2.700   6.786 -0.0048  0.5537  0.6879
   92MOL0     C12339   8.017   2.748   6.844 -0.6110  0.3129  0.3492
   92MOL0     C12340   7.720   3.056   7.021  1.1811  0.2600 -0.0224
   92MOL0     C12341   7.608   3.001   6.953  0.2813  0.1822 -0.4749
   92MOL0     C12342   7.478   3.060   6.974 -0.0618 -0.8570  0.6679
   92MOL0     C12343   7.457   3.166   7.060  0.7001  0.2660  0.1859
   92MOL0     O12344   7.342   3.242   7.073  0.3291 -0.2400 -0.2255
   92MOL0     C12345   7.218   3.201   7.013 -0.9091 -0.1938  0.3320
   92MOL0     C12346   7.096   3.292   7.059  0.1903  0.0135  0.0212
   92MOL0     C12347   7.034   3.241   7.199 -0.0291 -0.0711 -0.1948
   92MOL0     C12348   6.915   3.150   7.183 -0.8664 -0.0835 -0.4704
   92MOL0     C12349   6.888   3.088   7.314 -0.1999 -0.1580 -0.4488
   92MOL0     C12350   6.846   3.023   7.408  0.1022 -0.1222  0.1379
   92MOL0     C12351   7.569   3.209   7.133 -0.5292 -0.2588  0.5367
   92MOL0     C12352   7.693   3.152   7.116  0.1266  0.2026  0.1426
   92MOL0     H12353   8.099   3.075   6.833 -0.0391  0.9211 -1.7361
   92MOL0     H12354   8.316   2.975   6.742  1.1076 -0.5968  2.4737
   92MOL0     H12355   8.502   2.866   6.727  3.2108 -0.3209  0.5308
   92MOL0     H12356   8.495   2.756   6.865  0.5193 -1.5478 -0.1686
   92MOL0     H12357   8.624   2.650   6.615 -0.3091 -0.2853  0.0065
   92MOL0     H12358   8.706   2.711   6.751  0.7209 -0.6727 -0.9961
   92MOL0     H12359   8.489   2.522   6.808  0.4006  2.2686  3.3308
   92MOL0     H12360   8.626   2.450   6.719  0.6917  0.3408 -1.0508
   92MOL0     H12361   8.627   2.613   6.993 -0.2904 -0.2704  0.3322
   92MOL0     H12362   8.640   2.446   6.981  0.0626  1.5270  3.3146
   92MOL0     H12363   8.853   2.483   6.834 -1.4381  0.0675 -0.7328
   92MOL0     H12364   8.865   2.644   6.908  1.3026  0.0520 -1.5257
   92MOL0     H12365   8.869   2.394   7.059 -2.5142  0.4715 -2.2073
   92MOL0     H12366   9.004   2.511   7.043  0.0064 -0.9029 -5.1123
   92MOL0     H12367   8.869   2.690   7.140  0.1862 -1.2652 -2.7984
   92MOL0     H12368   8.740   2.589   7.180  0.6453 -2.0226  1.6734
   92MOL0     H12369   9.031   2.605   7.263  0.0930 -0.6215 -0.2314
   92MOL0     H12370   8.951   2.454   7.290 -0.5579  0.0530  0.2627
   92MOL0     H12371   8.859   2.837   7.342 -0.3157  3.7338  3.0739
   92MOL0     H12372   8.741   2.962   7.588  1.0020 -1.3460 -0.1860
   92MOL0     H12373   8.631   2.938   7.453  3.5511  4.7724  0.0534
   92MOL0     H12374   8.600   2.818   7.728 -0.1083  0.2807  0.5213
   92MOL0     H12375   8.492   2.797   7.593  4.0143 -2.5594 -1.6740
   92MOL0     H12376   8.471   3.066   7.595  0.0557  0.0299 -1.0089
   92MOL0     H12377   8.549   3.039   7.758  1.7765  0.2423 -1.2204
   92MOL0     H12378   8.289   3.053   7.768  1.9390  1.8584 -1.8841
   92MOL0     H12379   8.350   2.905   7.843 -0.7682 -3.1176 -0.7543
   92MOL0     H12380   8.069   2.959   7.817 -2.6685  0.4770 -0.3848
   92MOL0     H12381   7.853   2.778   8.001 -1.9336 -0.8961 -0.3969
   92MOL0     H12382   7.856   2.938   7.910 -1.2182  0.9898 -2.3138
   92MOL0     H12383   7.745   2.800   7.871 -1.1875  0.7091  2.6796
   92MOL0     H12384   7.754   2.214   7.665 -0.1573 -0.2519  0.9237
   92MOL0     H12385   7.548   2.091   7.710 -0.9282 -0.1483 -0.4213
   92MOL0     H12386   7.230   2.257   7.941 -0.1192 -2.9421  1.0645
   92MOL0     H12387   7.170   2.329   7.780  1.1414  0.2184  0.5902
   92MOL0     H12388   7.023   2.204   7.921 -0.5010  0.0364 -0.5314
   92MOL0     H12389   7.022   2.164   7.745 -0.2151 -4.0961 -0.8429
   92MOL0     H12390   7.158   1.996   7.957  1.2801 -0.0578 -0.2343
   92MOL0     H12391   7.156   1.972   7.769  0.8024 -1.3416  1.0526
   92MOL0     H12392   6.902   2.013   7.923  0.2803  1.2409 -0.6591
   92MOL0     H12393   6.928   1.901   7.787 -0.2405 -1.3367 -0.4412
   92MOL0     H12394   7.008   1.867   8.078 -1.0710  3.5676 -1.2135
   92MOL0     H12395   7.065   1.756   7.941 -0.9303 -2.0419  1.2698
   92MOL0     H12396   6.774   1.785   8.045 -0.3305  0.2870 -0.3871
   92MOL0     H12397   6.818   1.717   7.886  0.2344 -0.3687 -0.0940
   92MOL0     H12398   6.776   1.543   8.054  0.4347  0.2154 -2.4940
   92MOL0     H12399   6.896   1.610   8.161  3.4353  0.4256 -1.0546
   92MOL0     H12400   7.064   1.553   7.981  0.2426  0.8617 -1.8046
   92MOL0     H12401   6.927   1.503   7.876  1.9049  0.7904 -0.8302
   92MOL0     H12402   7.326   2.452   7.758  0.2715  0.0274  1.4872
   92MOL0     H12403   7.556   2.577   7.742 -0.3059 -0.2541  1.5770
   92MOL0     H12404   8.047   2.490   7.645 -0.1690 -0.0463 -1.5773
   92MOL0     H12405   8.237   2.636   7.588  0.5401 -1.2396  1.6769
   92MOL0     H12406   8.133   2.592   6.775  1.5548  0.6580 -1.1081
   92MOL0     H12407   7.951   2.670   6.879  0.4234 -1.8379 -2.1289
   92MOL0     H12408   7.616   2.920   6.882 -1.7908 -0.4404 -0.0728
   92MOL0     H12409   7.400   3.025   6.908 -1.0503  2.1727  0.0565
   92MOL0     H12410   7.226   3.214   6.905  1.2465 -1.0581  0.3426
   92MOL0     H12411   7.199   3.097   7.038  1.5605 -0.4334  1.5648
   92MOL0     H12412   7.016   3.264   6.990  1.7467 -2.6611 -0.8424
   92MOL0     H12413   7.119   3.399   7.066 -0.8543  0.1855  1.2583
   92MOL0     H12414   7.006   3.321   7.267  1.3553 -1.6221  2.3867
   92MOL0     H12415   7.107   3.178   7.251 -1.5739 -0.3086  1.8030
   92MOL0     H12416   6.936   3.076   7.105 -2.4234  0.0878 -1.0809
   92MOL0     H12417   6.827   3.204   7.149 -0.9304 -0.9874 -1.7839
   92MOL0     H12418   6.794   2.968   7.484 -1.2457 -2.2929 -2.2279
   92MOL0     H12419   7.547   3.284   7.208  2.1667  2.4639 -1.1864
   92MOL0     H12420   7.781   3.183   7.172  1.5801  0.7752 -2.3026
   93MOL0     O12421   0.819   0.324   8.827 -0.1780  1.5373  0.0752
   93MOL0     C12422   0.930   0.374   8.869 -0.2595  0.5252 -0.9749
   93MOL0     O12423   0.949   0.430   8.995  0.5153 -0.4990 -0.2005
   93MOL0     C12424   0.859   0.412   9.098 -0.0510 -0.1716 -0.5261
   93MOL0     C12425   0.848   0.507   9.196 -0.5550 -0.0469  0.3062
   93MOL0     C12426   0.761   0.481   9.306 -0.3878 -0.5284  0.0117
   93MOL0     C12427   0.681   0.369   9.318  0.1034  0.0866  0.3824
   93MOL0     O12428   0.601   0.341   9.426 -0.0634 -0.3524  0.5523
   93MOL0     C12429   0.471   0.274   9.407 -1.0905 -0.3658  0.5818
   93MOL0     C12430   0.401   0.256   9.542 -0.1657  0.0449 -0.3060
   93MOL0     C12431   0.310   0.136   9.556 -0.0685  0.6967 -0.4708
   93MOL0     C12432   0.251   0.106   9.695 -0.1507  0.5904 -0.1759
   93MOL0     C12433   0.337   0.016   9.772 -0.4807  0.8593 -0.2204
   93MOL0     C12434   0.283  -0.022   9.911 -0.7335  0.8249  0.1311
   93MOL0     C12435   0.371  -0.134   9.968  0.7252 -0.1161 -0.0798
   93MOL0     C12436   0.355  -0.165  10.121 -0.0137  0.2740  0.3640
   93MOL0     N12437   0.211  -0.183  10.167 -0.1985  0.1444  0.1874
   93MOL0     C12438   0.125  -0.289  10.136  0.2254 -0.2385  0.1569
   93MOL0     C12439   0.021  -0.266  10.198  0.5152 -0.5787 -0.7510
   93MOL0     C12440  -0.092  -0.374  10.207 -0.3412 -0.2636  0.1410
   93MOL0     C12441  -0.205  -0.338  10.108  0.3975  0.7541  0.6763
   93MOL0     C12442  -0.290  -0.215  10.158 -0.8039  0.0687 -0.1942
   93MOL0     C12443  -0.389  -0.174  10.051 -0.3181  0.4550  0.1279
   93MOL0     O12444  -0.493  -0.279  10.019  0.1196  0.3541  0.1394
   93MOL0     C12445  -0.592  -0.234   9.934  0.0663 -0.1949  1.1211
   93MOL0     C12446  -0.616  -0.109   9.870  0.0249 -0.0182  0.4437
   93MOL0     C12447  -0.720  -0.080   9.782 -0.5619 -0.6869  0.4950
   93MOL0     C12448  -0.728   0.067   9.738  0.6372  0.0891  0.0199
   93MOL0     C12449  -0.817  -0.185   9.754  0.2300 -0.6848 -0.3064
   93MOL0     C12450  -0.937  -0.162   9.677  0.1640 -0.2844  0.0126
   93MOL0     O12451  -1.018  -0.275   9.665 -0.0201  0.6034  0.2827
   93MOL0     C12452  -1.141  -0.258   9.619 -0.5734 -0.3695 -0.2311
   93MOL0     C12453  -1.173  -0.228   9.488  0.6426  0.2962  0.0468
   93MOL0     C12454  -1.305  -0.228   9.443  0.3069 -0.2265 -0.6427
   93MOL0     C12455  -1.405  -0.267   9.541  0.1040  0.0254 -0.2561
   93MOL0     O12456  -1.538  -0.291   9.518 -0.4294 -0.0612  0.5133
   93MOL0     C12457  -1.596  -0.269   9.388  0.1411  0.1265 -0.2223
   93MOL0     C12458  -1.751  -0.277   9.398  0.3284  0.7001  0.5037
   93MOL0     C12459  -1.830  -0.241   9.270  1.0879  0.0315  0.3433
   93MOL0     C12460  -1.981  -0.261   9.291  0.5827  0.0427 -0.0982
   93MOL0     C12461  -2.046  -0.259   9.153 -0.4005  0.6175  0.1608
   93MOL0     C12462  -2.200  -0.263   9.169 -0.4342  1.2105  0.1152
   93MOL0     C12463  -2.271  -0.257   9.031  0.0779 -0.2458 -0.1402
   93MOL0     C12464  -2.422  -0.278   9.059  0.1530 -0.8243  0.1783
   93MOL0    Cl12465  -2.452  -0.447   9.115  0.1348  0.4048 -0.0045
   93MOL0     C12466  -1.379  -0.282   9.673 -0.1431  0.4145 -0.6738
   93MOL0     C12467  -1.246  -0.279   9.712  0.0836  0.3367  0.3995
   93MOL0     O12468  -0.964  -0.050   9.623 -0.1984  0.2238  0.4187
   93MOL0     C12469  -0.791  -0.311   9.808 -0.5979 -0.5802  0.6314
   93MOL0     C12470  -0.681  -0.332   9.895  0.5241  0.8729  1.5659
   93MOL0     N12471   0.029  -0.143  10.272 -0.0094  0.6022 -0.0219
   93MOL0     N12472   0.140  -0.092  10.237  0.1161 -0.9203  0.2654
   93MOL0     C12473   0.689   0.280   9.214 -1.0387 -0.2262  0.0045
   93MOL0     C12474   0.788   0.290   9.112  0.0847  0.4038  0.8338
   93MOL0     C12475   1.049   0.389   8.776  0.3251 -0.4622 -0.5929
   93MOL0     C12476   1.163   0.460   8.826  0.2434 -0.4162 -0.3303
   93MOL0     C12477   1.278   0.480   8.743  0.5430 -0.4093  0.3757
   93MOL0     C12478   1.274   0.436   8.610  0.0079 -0.8788  0.0821
   93MOL0     O12479   1.396   0.452   8.538  0.2584  0.0456  0.4873
   93MOL0     C12480   1.420   0.385   8.411 -0.6065 -0.0701 -0.6914
   93MOL0     C12481   1.473   0.242   8.428  0.0154 -0.0407 -0.5454
   93MOL0     C12482   1.613   0.229   8.506 -0.9102 -0.2215 -0.4674
   93MOL0     C12483   1.668   0.085   8.520 -0.9395  0.1774  0.1484
   93MOL0     C12484   1.587   0.002   8.603 -0.1992  0.0507  0.1867
   93MOL0     C12485   1.506  -0.057   8.673 -0.6944  0.6829  0.2458
   93MOL0     C12486   1.164   0.358   8.563  0.4388 -0.1875 -0.7209
   93MOL0     C12487   1.050   0.338   8.642  0.7225 -0.3924 -0.6073
   93MOL0     H12488   0.904   0.600   9.197 -0.8782  0.1534 -0.0166
   93MOL0     H12489   0.751   0.555   9.384  1.6655 -2.1465  1.9291
   93MOL0     H12490   0.405   0.330   9.340 -1.8569 -0.8811  0.8885
   93MOL0     H12491   0.483   0.177   9.357 -0.5470 -0.7876  1.5048
   93MOL0     H12492   0.475   0.232   9.619 -2.5127  1.7020  2.6998
   93MOL0     H12493   0.365   0.353   9.575  0.9821 -0.3893  2.4983
   93MOL0     H12494   0.232   0.141   9.479  1.1687  0.6308 -1.7586
   93MOL0     H12495   0.364   0.050   9.516 -1.5359 -0.1897 -0.6408
   93MOL0     H12496   0.240   0.196   9.756  0.2645  0.5945 -0.0985
   93MOL0     H12497   0.154   0.058   9.688  0.0501  0.1650 -0.0710
   93MOL0     H12498   0.367  -0.072   9.714  4.2290  1.7244  0.5051
   93MOL0     H12499   0.437   0.060   9.771 -0.5922  1.1317  0.2398
   93MOL0     H12500   0.292   0.069   9.972 -0.7184  0.6262  0.4288
   93MOL0     H12501   0.178  -0.050   9.899 -1.1669  3.0826 -2.2499
   93MOL0     H12502   0.359  -0.227   9.911  1.0962  0.6079 -1.3668
   93MOL0     H12503   0.473  -0.094   9.963  0.7043 -0.2550 -2.9330
   93MOL0     H12504   0.400  -0.080  10.173 -0.8139 -0.1820  1.8910
   93MOL0     H12505   0.414  -0.249  10.161  0.9446  1.0679  0.6531
   93MOL0     H12506   0.137  -0.376  10.071  0.2298  2.3275 -3.5799
   93MOL0     H12507  -0.057  -0.475  10.183  0.0358  0.4378 -2.5635
   93MOL0     H12508  -0.128  -0.377  10.310 -0.7717 -0.0689  0.0024
   93MOL0     H12509  -0.273  -0.423  10.098 -1.1228  2.1852 -2.5555
   93MOL0     H12510  -0.168  -0.314  10.008  0.3708  5.3536  1.5290
   93MOL0     H12511  -0.225  -0.128  10.163  1.0426 -0.9894 -3.1980
   93MOL0     H12512  -0.324  -0.239  10.260 -1.6656 -1.0293 -0.7229
   93MOL0     H12513  -0.333  -0.138   9.965  1.1258  1.2901  1.3704
   93MOL0     H12514  -0.447  -0.087  10.085 -0.0310  0.0607  1.7044
   93MOL0     H12515  -0.539  -0.036   9.890  1.1396 -0.7010 -1.1981
   93MOL0     H12516  -0.823   0.105   9.777  1.3129  2.5777 -0.5823
   93MOL0     H12517  -0.645   0.120   9.786  0.8786 -0.4021  0.1583
   93MOL0     H12518  -0.717   0.077   9.630  3.0923 -0.8902  0.1099
   93MOL0     H12519  -1.097  -0.208   9.413 -0.1369  2.3505 -0.2490
   93MOL0     H12520  -1.348  -0.201   9.347  1.7664  1.0221 -1.0003
   93MOL0     H12521  -1.562  -0.170   9.353  0.3141  0.2342  0.2462
   93MOL0     H12522  -1.566  -0.338   9.309  0.7181  1.9652 -1.6988
   93MOL0     H12523  -1.784  -0.375   9.435 -2.6378  0.4270 -2.4589
   93MOL0     H12524  -1.777  -0.208   9.478  0.9800 -0.6935  1.9820
   93MOL0     H12525  -1.802  -0.308   9.188 -1.2230 -1.5344  0.7411
   93MOL0     H12526  -1.797  -0.138   9.254  0.1842  0.1833 -0.6264
   93MOL0     H12527  -2.002  -0.346   9.357 -2.6492  0.8597  0.0701
   93MOL0     H12528  -2.013  -0.170   9.343 -1.1499 -0.9498  0.6514
   93MOL0     H12529  -2.003  -0.347   9.104 -2.5174 -1.1413  1.2801
   93MOL0     H12530  -2.017  -0.172   9.094  1.5132 -0.1955 -0.1699
   93MOL0     H12531  -2.220  -0.360   9.215  0.3883 -0.1427 -2.2002
   93MOL0     H12532  -2.236  -0.191   9.243  1.6236  2.6010 -0.1412
   93MOL0     H12533  -2.227  -0.327   8.960 -0.8424 -1.0915  0.1067
   93MOL0     H12534  -2.272  -0.158   8.984  0.0641 -0.0769  0.2136
   93MOL0     H12535  -2.481  -0.266   8.967 -0.4983  0.7996  0.7752
   93MOL0     H12536  -2.452  -0.194   9.122 -2.5784 -1.2611 -0.3920
   93MOL0     H12537  -1.457  -0.304   9.746  2.0995 -1.1457  1.4172
   93MOL0     H12538  -1.218  -0.291   9.816  1.8574 -0.6530 -0.1527
   93MOL0     H12539  -0.852  -0.399   9.794  1.3340 -1.5701 -2.4611
   93MOL0     H12540  -0.663  -0.434   9.925 -2.6715  0.1572  1.4488
   93MOL0     H12541   0.629   0.190   9.220  1.6028 -2.0761  0.4185
   93MOL0     H12542   0.808   0.202   9.052  3.3228  0.5677  1.5027
   93MOL0     H12543   1.163   0.497   8.928  2.2073 -2.4803  0.4979
   93MOL0     H12544   1.371   0.528   8.771 -0.7437  2.7854 -0.4698
   93MOL0     H12545   1.344   0.401   8.335 -3.4101  0.5796  2.0366
   93MOL0     H12546   1.511   0.435   8.375 -0.1626 -0.8219 -0.6446
   93MOL0     H12547   1.496   0.196   8.331  2.0770 -0.2976  0.0025
   93MOL0     H12548   1.396   0.184   8.480 -1.0541  1.3930 -0.4747
   93MOL0     H12549   1.600   0.269   8.607  0.5280  0.5488 -0.5526
   93MOL0     H12550   1.695   0.276   8.450  0.3083  0.6550  1.8998
   93MOL0     H12551   1.771   0.095   8.557 -0.3428  0.9522 -1.5971
   93MOL0     H12552   1.670   0.046   8.418 -3.5754 -0.3524  0.2489
   93MOL0     H12553   1.445  -0.123   8.732  0.3656 -0.0934  0.5065
   93MOL0     H12554   1.164   0.331   8.457  1.0921 -1.7750 -0.3421
   93MOL0     H12555   0.963   0.280   8.612  0.1973 -0.6909  1.3791
   94MOL0     O12556   2.260   6.122   6.144  0.0978  0.5381  0.0932
   94MOL0     C12557   2.344   6.122   6.057 -0.9193 -0.0847  0.4700
   94MOL0     O12558   2.320   6.140   5.925  0.3040 -0.1189 -0.5211
   94MOL0     C12559   2.197   6.162   5.877 -0.2791 -0.0710  0.1255
   94MOL0     C12560   2.130   6.285   5.875 -0.1180  0.8377  0.2173
   94MOL0     C12561   1.993   6.295   5.831 -0.1040  0.5593  0.0218
   94MOL0     C12562   1.924   6.176   5.792 -0.8398 -0.5885  0.1029
   94MOL0     O12563   1.796   6.184   5.749  0.4280  0.5866  0.2630
   94MOL0     C12564   1.708   6.070   5.784  0.1389  0.1113 -0.6772
   94MOL0     C12565   1.557   6.110   5.748  0.1414  0.0684  0.1170
   94MOL0     C12566   1.446   6.034   5.823 -0.2825 -0.8661  0.4282
   94MOL0     C12567   1.448   5.876   5.817 -0.3710  0.2412  0.3888
   94MOL0     C12568   1.321   5.810   5.856  0.9467  0.2390 -0.2401
   94MOL0     C12569   1.356   5.656   5.872  0.7757  0.0549  0.3426
   94MOL0     C12570   1.232   5.575   5.898  0.2110  0.0388  0.4436
   94MOL0     C12571   1.262   5.444   5.963  0.7496  0.4570  0.3106
   94MOL0     N12572   1.138   5.369   5.974 -0.3247  0.5494  0.4702
   94MOL0     C12573   1.042   5.392   6.067  0.5969  0.5507 -0.3770
   94MOL0     C12574   0.952   5.294   6.047  0.4385  0.0401 -0.3468
   94MOL0     C12575   0.823   5.285   6.118 -0.2804 -0.2341 -0.3974
   94MOL0     C12576   0.721   5.372   6.042  0.2711  0.0197 -0.3193
   94MOL0     C12577   0.757   5.520   6.041  0.0884 -0.5922  0.1390
   94MOL0     C12578   0.640   5.610   6.007 -0.6197 -0.0273  0.0911
   94MOL0     O12579   0.530   5.598   6.097 -0.1464  0.1390  0.0427
   94MOL0     C12580   0.416   5.679   6.069  0.2150  0.4636 -0.5316
   94MOL0     C12581   0.411   5.787   5.974  0.4942  0.5838 -0.1252
   94MOL0     C12582   0.295   5.872   5.952 -0.2389  0.2460 -0.6087
   94MOL0     C12583   0.307   5.991   5.857  0.4403  1.5416  0.6271
   94MOL0     C12584   0.175   5.840   6.026  0.2238  0.4311 -0.0919
   94MOL0     C12585   0.040   5.908   6.007  0.4717 -0.5716 -0.4120
   94MOL0     O12586  -0.056   5.876   6.093  0.1142 -0.3732 -0.6436
   94MOL0     C12587  -0.173   5.950   6.109  0.2929  0.3388 -0.0758
   94MOL0     C12588  -0.200   6.008   6.230 -0.5774  0.4531  0.0047
   94MOL0     C12589  -0.318   6.086   6.250 -1.2217 -0.2012 -1.4332
   94MOL0     C12590  -0.407   6.105   6.144 -0.6919  0.6727 -0.4675
   94MOL0     O12591  -0.515   6.177   6.166  0.0416 -0.5123  1.1177
   94MOL0     C12592  -0.598   6.230   6.058 -0.0496  0.4125  0.4184
   94MOL0     C12593  -0.711   6.308   6.133 -0.3404  0.6284  0.4993
   94MOL0     C12594  -0.823   6.337   6.034 -0.3296 -0.5255  0.0100
   94MOL0     C12595  -0.935   6.418   6.097  0.1999  0.2390  0.1660
   94MOL0     C12596  -1.053   6.450   6.010  0.0379  0.6159 -0.4170
   94MOL0     C12597  -1.156   6.541   6.088 -0.1604  0.5633 -0.1889
   94MOL0     C12598  -1.291   6.538   6.017  0.1152 -0.0213 -0.3786
   94MOL0     C12599  -1.380   6.620   6.102 -0.3978 -0.4545  0.4410
   94MOL0    Cl12600  -1.537   6.636   6.017  0.5166  0.2157  0.1262
   94MOL0     C12601  -0.384   6.031   6.023 -0.2533  0.5481 -0.2998
   94MOL0     C12602  -0.266   5.961   6.003  0.3287 -0.2678 -0.1638
   94MOL0     O12603   0.025   5.978   5.907 -0.0523 -0.1740  0.0037
   94MOL0     C12604   0.182   5.722   6.106  0.2352 -0.6148 -0.3946
   94MOL0     C12605   0.300   5.651   6.135 -0.2025 -0.1196 -0.4009
   94MOL0     N12606   0.985   5.220   5.930 -0.1558  0.4320  0.4411
   94MOL0     N12607   1.098   5.267   5.887 -0.0568 -0.5108 -0.5982
   94MOL0     C12608   1.991   6.051   5.798  0.5277  0.1305  0.3248
   94MOL0     C12609   2.129   6.049   5.826  1.0850 -0.2377 -0.5331
   94MOL0     C12610   2.482   6.112   6.100  0.2234 -1.1681 -0.4743
   94MOL0     C12611   2.519   6.155   6.231 -0.1385 -0.9075 -0.2970
   94MOL0     C12612   2.648   6.145   6.274  0.6857 -0.5054 -0.5895
   94MOL0     C12613   2.751   6.093   6.199 -0.0644 -0.2981  0.5751
   94MOL0     O12614   2.871   6.099   6.274  0.4763  0.6308  0.4442
   94MOL0     C12615   2.985   6.076   6.195  0.0112  0.4768  0.1459
   94MOL0     C12616   3.106   6.087   6.284 -0.6638  0.3413 -0.3662
   94MOL0     C12617   3.095   5.994   6.404  0.6077  0.1680 -0.6318
   94MOL0     C12618   3.234   5.989   6.467 -0.1227  0.2615 -0.1959
   94MOL0     C12619   3.324   5.899   6.396 -0.4224  0.4656  0.1646
   94MOL0     C12620   3.395   5.811   6.363  0.0045 -0.3514 -0.0607
   94MOL0     C12621   2.721   6.059   6.070  0.1738 -0.7366 -0.4123
   94MOL0     C12622   2.593   6.083   6.014  0.1821  0.1005 -0.7860
   94MOL0     H12623   2.172   6.367   5.932 -1.6217  1.6694  0.1822
   94MOL0     H12624   1.938   6.389   5.830 -0.1248  0.5875  1.4575
   94MOL0     H12625   1.734   5.986   5.720  1.0361  0.4883 -0.8310
   94MOL0     H12626   1.710   6.037   5.889 -0.4121 -0.7399 -0.9247
   94MOL0     H12627   1.533   6.214   5.772 -0.2396 -0.2756  1.2747
   94MOL0     H12628   1.549   6.107   5.639 -0.1418 -0.9257  0.1616
   94MOL0     H12629   1.446   6.061   5.929  2.6583 -0.5891  0.4261
   94MOL0     H12630   1.355   6.071   5.775 -0.5894 -0.4346  1.3176
   94MOL0     H12631   1.471   5.853   5.713 -1.2493 -3.9210  0.9621
   94MOL0     H12632   1.536   5.843   5.873  0.3552 -1.9156 -1.8581
   94MOL0     H12633   1.279   5.837   5.953 -0.6968  0.5233 -0.9879
   94MOL0     H12634   1.240   5.828   5.784 -1.0784  2.5383  2.3671
   94MOL0     H12635   1.388   5.613   5.777  0.1697  1.4455 -0.5290
   94MOL0     H12636   1.430   5.648   5.953 -0.3023  4.5231  2.0926
   94MOL0     H12637   1.155   5.630   5.954 -1.3450  0.1359 -1.6674
   94MOL0     H12638   1.175   5.561   5.806 -1.8160 -1.1508  1.7819
   94MOL0     H12639   1.300   5.453   6.065 -0.8036 -0.5492  1.0141
   94MOL0     H12640   1.343   5.390   5.913  2.0742  1.0988  1.6907
   94MOL0     H12641   1.038   5.459   6.152 -2.5545 -1.3541  1.1859
   94MOL0     H12642   0.795   5.180   6.124  1.7535 -0.7289  1.7058
   94MOL0     H12643   0.823   5.331   6.217 -1.1073 -3.6443  1.3092
   94MOL0     H12644   0.618   5.361   6.079 -0.0113  2.0336 -0.3837
   94MOL0     H12645   0.727   5.329   5.942  0.9407 -0.7042  0.0198
   94MOL0     H12646   0.837   5.535   5.969  2.6733 -1.1743  2.7017
   94MOL0     H12647   0.791   5.545   6.142  0.0301  3.5500 -0.7180
   94MOL0     H12648   0.598   5.584   5.909 -4.4936 -1.0483  1.8169
   94MOL0     H12649   0.672   5.714   6.001  1.8380 -0.7233 -0.2377
   94MOL0     H12650   0.504   5.813   5.924  0.9968  1.0325  0.9941
   94MOL0     H12651   0.409   6.018   5.828  1.1221 -1.3356  0.0545
   94MOL0     H12652   0.256   5.963   5.764  0.1719  0.9705  0.9396
   94MOL0     H12653   0.255   6.082   5.888 -0.9676  1.0410 -0.1941
   94MOL0     H12654  -0.127   5.993   6.308 -1.0319  0.2441  0.3934
   94MOL0     H12655  -0.328   6.145   6.340  1.1454  0.0167 -1.2468
   94MOL0     H12656  -0.539   6.291   5.989  1.8561 -2.7289 -0.8943
   94MOL0     H12657  -0.638   6.154   5.992  3.0155  0.2930 -1.4978
   94MOL0     H12658  -0.754   6.253   6.217  1.4772  2.1973  2.5780
   94MOL0     H12659  -0.663   6.397   6.175  1.1468 -1.1570  2.7948
   94MOL0     H12660  -0.879   6.248   6.007 -0.4226 -0.9088  1.4054
   94MOL0     H12661  -0.777   6.391   5.950 -0.2408  0.3001  0.5763
   94MOL0     H12662  -0.969   6.365   6.186  1.3415 -0.1609  0.3861
   94MOL0     H12663  -0.890   6.510   6.136  0.2203 -0.3634  1.6061
   94MOL0     H12664  -1.101   6.353   5.992 -0.0576  0.9575 -2.1506
   94MOL0     H12665  -1.025   6.489   5.912  1.4694 -4.6072 -2.4283
   94MOL0     H12666  -1.165   6.502   6.190 -3.0126  0.7342 -0.2939
   94MOL0     H12667  -1.130   6.645   6.105  2.1940  0.1622 -0.9913
   94MOL0     H12668  -1.334   6.438   6.025 -1.0630  0.5268  0.3649
   94MOL0     H12669  -1.288   6.578   5.916 -1.1159 -2.2863 -1.3740
   94MOL0     H12670  -1.346   6.724   6.098  0.7816 -0.8392  0.0992
   94MOL0     H12671  -1.390   6.580   6.203 -1.0789  1.3962  1.1472
   94MOL0     H12672  -0.447   6.031   5.935 -1.6543 -0.5878  0.6498
   94MOL0     H12673  -0.246   5.922   5.903  0.9803  0.3580 -0.2850
   94MOL0     H12674   0.086   5.698   6.152  0.6034  1.0447  1.3177
   94MOL0     H12675   0.302   5.568   6.206  0.4553  1.5506  1.6422
   94MOL0     H12676   1.944   5.955   5.785  0.3556  0.4288 -1.4614
   94MOL0     H12677   2.186   5.957   5.822  0.8266 -0.3854 -0.9611
   94MOL0     H12678   2.446   6.197   6.300 -1.3972  0.9785 -2.5979
   94MOL0     H12679   2.672   6.179   6.374  2.8121  0.1391 -1.2680
   94MOL0     H12680   2.991   5.975   6.153  0.8014  0.6870 -0.2548
   94MOL0     H12681   3.002   6.148   6.115  1.9585 -1.5335 -1.3624
   94MOL0     H12682   3.119   6.190   6.318 -0.0436 -0.6852  2.9185
   94MOL0     H12683   3.191   6.053   6.225  0.0913  1.8035 -0.1424
   94MOL0     H12684   3.068   5.896   6.363 -3.1984  0.3127  1.0643
   94MOL0     H12685   3.020   6.027   6.476  0.0112  0.1347 -1.2250
   94MOL0     H12686   3.223   5.959   6.572 -0.9030 -0.8495 -0.5772
   94MOL0     H12687   3.284   6.086   6.479  1.9561 -1.0356  2.7868
   94MOL0     H12688   3.462   5.732   6.336 -0.9458 -1.6250  1.1559
   94MOL0     H12689   2.802   6.017   6.011  1.5459 -0.3381  1.1063
   94MOL0     H12690   2.574   6.077   5.907 -1.0680  0.8911 -0.6336
   95MOL0     O12691   1.906   1.251   3.708  0.3813  0.3291 -0.3198
   95MOL0     C12692   1.996   1.313   3.667 -0.7941  0.3225  0.6876
   95MOL0     O12693   1.988   1.424   3.589  0.1041 -0.5988  0.3470
   95MOL0     C12694   1.877   1.506   3.580 -0.5965  0.2086 -0.9986
   95MOL0     C12695   1.780   1.507   3.685 -0.1727 -0.5934 -0.0604
   95MOL0     C12696   1.668   1.588   3.664  0.6125  0.7772 -0.5461
   95MOL0     C12697   1.641   1.657   3.549 -0.2530 -0.2052  0.4561
   95MOL0     O12698   1.515   1.715   3.527 -0.2840 -0.4544  0.1241
   95MOL0     C12699   1.479   1.738   3.383 -0.5658 -0.2811 -0.6777
   95MOL0     C12700   1.325   1.734   3.383  0.1454  0.7993 -0.4084
   95MOL0     C12701   1.265   1.584   3.382 -0.3917 -0.6192 -0.2913
   95MOL0     C12702   1.119   1.561   3.349 -0.3475 -0.0186  0.3798
   95MOL0     C12703   1.045   1.446   3.420 -0.3720 -0.5533  0.1027
   95MOL0     C12704   0.910   1.410   3.346 -0.1127 -0.1503  0.0605
   95MOL0     C12705   0.830   1.312   3.430  0.1239 -0.3947 -0.1224
   95MOL0     C12706   0.685   1.312   3.391 -0.6345  0.0425  0.5628
   95MOL0     N12707   0.614   1.199   3.463  0.3387 -0.4960  0.1949
   95MOL0     C12708   0.498   1.213   3.537 -0.6790  0.6291 -0.4439
   95MOL0     C12709   0.483   1.088   3.588  0.5591 -0.1411 -0.1556
   95MOL0     C12710   0.374   1.040   3.677  0.3093 -0.5798 -0.2238
   95MOL0     C12711   0.237   1.068   3.615  0.2289 -0.2737 -1.0267
   95MOL0     C12712   0.109   1.015   3.691 -0.3476 -0.1819 -0.4800
   95MOL0     C12713   0.059   1.099   3.812 -0.3858 -0.0251 -0.1509
   95MOL0     O12714  -0.074   1.059   3.862  0.3554  0.6183 -0.1647
   95MOL0     C12715  -0.132   1.147   3.953 -0.2204  0.0764  0.3068
   95MOL0     C12716  -0.267   1.141   3.975 -0.0357  0.4702  0.2629
   95MOL0     C12717  -0.333   1.220   4.077 -0.9625  0.6414 -0.0579
   95MOL0     C12718  -0.472   1.175   4.101 -0.7042  0.1141 -0.2653
   95MOL0     C12719  -0.259   1.315   4.150 -0.3255  0.3238 -0.8956
   95MOL0     C12720  -0.314   1.400   4.270  0.2015  0.7139  0.1485
   95MOL0     O12721  -0.405   1.356   4.366 -0.3359 -0.0491 -0.8119
   95MOL0     C12722  -0.474   1.447   4.440 -0.1027  0.3296  0.5052
   95MOL0     C12723  -0.614   1.434   4.427  0.0959  0.4595  0.7962
   95MOL0     C12724  -0.698   1.509   4.515 -0.3459 -0.0254  0.7856
   95MOL0     C12725  -0.638   1.594   4.613 -0.4759  0.5973 -0.0355
   95MOL0     O12726  -0.724   1.670   4.687 -0.1406 -0.3204 -0.3846
   95MOL0     C12727  -0.686   1.802   4.720 -0.0707 -0.4073  0.2483
   95MOL0     C12728  -0.792   1.886   4.779 -0.3600 -0.1092 -0.9830
   95MOL0     C12729  -0.745   2.028   4.826 -0.2346  0.5694 -0.0205
   95MOL0     C12730  -0.652   2.087   4.720  0.4848  0.3462  0.5538
   95MOL0     C12731  -0.617   2.231   4.765  0.1581 -0.3526 -0.8055
   95MOL0     C12732  -0.532   2.245   4.887  0.2022  0.3190 -0.1182
   95MOL0     C12733  -0.520   2.395   4.915 -0.1249  0.3957  0.4206
   95MOL0     C12734  -0.416   2.423   5.024 -0.5884  0.0997  0.1212
   95MOL0    Cl12735  -0.297   2.557   4.996  0.2696  0.1876  0.8116
   95MOL0     C12736  -0.500   1.598   4.623 -0.4106 -0.7014 -0.1429
   95MOL0     C12737  -0.415   1.531   4.535 -0.1643 -1.0772  0.5769
   95MOL0     O12738  -0.269   1.516   4.260  0.3553 -0.1015 -0.2487
   95MOL0     C12739  -0.120   1.323   4.121 -0.1545 -0.5500 -0.6599
   95MOL0     C12740  -0.059   1.238   4.030  0.0033  0.1758 -0.0408
   95MOL0     N12741   0.584   1.008   3.539 -0.0646 -0.3910  0.0154
   95MOL0     N12742   0.658   1.072   3.454  0.7802  0.2229 -0.1910
   95MOL0     C12743   1.746   1.661   3.450  0.2254 -0.1582  0.4119
   95MOL0     C12744   1.856   1.583   3.462 -0.2702  1.0050 -0.0315
   95MOL0     C12745   2.128   1.243   3.666  0.0581  0.1106 -0.3288
   95MOL0     C12746   2.164   1.146   3.762 -0.3931 -0.6282 -0.5932
   95MOL0     C12747   2.289   1.085   3.768  0.2501  0.6006 -0.0059
   95MOL0     C12748   2.381   1.117   3.677  0.3610 -0.0085  0.5522
   95MOL0     O12749   2.501   1.062   3.696  0.5907 -0.0759 -0.6585
   95MOL0     C12750   2.593   1.059   3.587  0.2123 -0.0704  0.4862
   95MOL0     C12751   2.679   1.189   3.571 -0.0570  0.3437 -0.4420
   95MOL0     C12752   2.744   1.238   3.699  0.0399  0.9341 -0.2085
   95MOL0     C12753   2.834   1.351   3.664  0.7024 -0.3026  0.6510
   95MOL0     C12754   2.896   1.402   3.788 -1.5544 -0.1805 -0.2217
   95MOL0     C12755   2.942   1.443   3.896 -0.4387  0.2567 -0.1394
   95MOL0     C12756   2.343   1.199   3.572  0.5744 -0.6658 -0.4060
   95MOL0     C12757   2.214   1.258   3.561  0.3289  0.3186  0.8333
   95MOL0     H12758   1.793   1.458   3.781 -1.8171 -1.7542 -0.4023
   95MOL0     H12759   1.598   1.612   3.743 -0.5168  0.6916 -1.4979
   95MOL0     H12760   1.516   1.834   3.346 -2.4690 -0.3085 -2.8375
   95MOL0     H12761   1.523   1.661   3.319 -2.9336 -0.5353 -2.1142
   95MOL0     H12762   1.279   1.785   3.468 -0.2523 -0.1289 -0.0585
   95MOL0     H12763   1.307   1.783   3.286  0.2147  1.0186 -0.3108
   95MOL0     H12764   1.331   1.535   3.309 -0.5791  1.1428 -1.7232
   95MOL0     H12765   1.286   1.536   3.477 -2.3885 -0.0507  0.4782
   95MOL0     H12766   1.068   1.652   3.384 -1.5756 -0.8996  0.9308
   95MOL0     H12767   1.111   1.560   3.239  0.1426 -2.2393  0.3360
   95MOL0     H12768   1.103   1.354   3.411 -0.9697 -0.9696  0.4440
   95MOL0     H12769   1.037   1.465   3.528 -0.9439  0.6989 -0.1451
   95MOL0     H12770   0.855   1.502   3.327  0.0069 -0.0116  0.3621
   95MOL0     H12771   0.932   1.362   3.251  0.6556  1.3480 -0.5562
   95MOL0     H12772   0.891   1.222   3.423  2.1805  0.7645  1.5141
   95MOL0     H12773   0.831   1.331   3.538 -2.8674 -0.2585 -0.0339
   95MOL0     H12774   0.674   1.293   3.284  1.0101 -1.7862  0.6744
   95MOL0     H12775   0.646   1.412   3.416  1.6322  1.3973 -1.0133
   95MOL0     H12776   0.437   1.302   3.547 -0.5807  0.6506 -0.0035
   95MOL0     H12777   0.385   0.936   3.708  0.2632  0.2141  2.7786
   95MOL0     H12778   0.385   1.097   3.769  3.1690  1.1001 -1.4775
   95MOL0     H12779   0.235   1.021   3.516  1.8781 -1.8735 -0.3480
   95MOL0     H12780   0.232   1.177   3.608  2.9286  0.1413  1.5982
   95MOL0     H12781   0.129   0.914   3.727  0.2040  0.7420  2.0187
   95MOL0     H12782   0.030   1.019   3.615  0.0178  1.6359 -0.8106
   95MOL0     H12783   0.053   1.204   3.781  0.0262  0.7669  2.2823
   95MOL0     H12784   0.131   1.101   3.894 -2.4773 -0.7058  1.7973
   95MOL0     H12785  -0.318   1.071   3.910  0.9162  1.1862 -1.3317
   95MOL0     H12786  -0.535   1.263   4.115  0.0705  0.5374  0.7149
   95MOL0     H12787  -0.509   1.120   4.014 -2.0828  0.1604  0.2763
   95MOL0     H12788  -0.469   1.108   4.187 -2.0012 -1.4036 -1.3463
   95MOL0     H12789  -0.666   1.373   4.354  0.1429 -2.2334  2.8686
   95MOL0     H12790  -0.806   1.511   4.504 -0.3029  2.1783  0.3890
   95MOL0     H12791  -0.594   1.788   4.779 -0.2321 -6.3014 -0.2905
   95MOL0     H12792  -0.658   1.847   4.625  2.0017  0.3946  1.1659
   95MOL0     H12793  -0.870   1.901   4.703 -0.8911  0.9627 -0.2538
   95MOL0     H12794  -0.834   1.840   4.868  2.6028 -1.2673 -0.0813
   95MOL0     H12795  -0.691   2.015   4.920 -2.9545  1.2892  1.7488
   95MOL0     H12796  -0.830   2.096   4.835 -0.2783  0.7246 -1.3610
   95MOL0     H12797  -0.558   2.031   4.719  1.3972  1.6003  3.3383
   95MOL0     H12798  -0.708   2.082   4.627 -1.8692  0.1271  1.9085
   95MOL0     H12799  -0.709   2.284   4.794  0.4845 -0.2449  0.0720
   95MOL0     H12800  -0.577   2.280   4.676 -0.4973  0.9982 -0.3813
   95MOL0     H12801  -0.577   2.184   4.966  0.1743 -0.2566 -0.5790
   95MOL0     H12802  -0.432   2.213   4.857  1.0937  3.1723 -0.4923
   95MOL0     H12803  -0.618   2.429   4.948 -0.0270  0.1339  0.9838
   95MOL0     H12804  -0.491   2.446   4.823  0.2515 -1.4018 -0.5035
   95MOL0     H12805  -0.355   2.335   5.047  2.6763  2.2509  0.2937
   95MOL0     H12806  -0.462   2.431   5.123 -0.4681 -3.1842  0.5742
   95MOL0     H12807  -0.450   1.668   4.690 -0.0885  2.2001 -3.1683
   95MOL0     H12808  -0.308   1.547   4.538 -0.1861 -0.9271  0.5775
   95MOL0     H12809  -0.053   1.382   4.185 -3.0627  0.1219  2.0200
   95MOL0     H12810   0.049   1.249   4.029  0.1597  0.4278  3.8631
   95MOL0     H12811   1.735   1.716   3.357  1.7579  0.0374  0.3047
   95MOL0     H12812   1.913   1.582   3.370 -2.2806  0.4291 -1.3533
   95MOL0     H12813   2.096   1.113   3.840  1.9762 -2.4253  0.8516
   95MOL0     H12814   2.305   1.019   3.853 -1.6362  1.5725  1.1855
   95MOL0     H12815   2.661   0.974   3.593 -0.4301 -0.6410 -0.0565
   95MOL0     H12816   2.545   1.046   3.489  1.0990  0.6889 -0.0587
   95MOL0     H12817   2.625   1.280   3.544 -0.4957  1.0940  2.6049
   95MOL0     H12818   2.750   1.162   3.492 -2.5556 -0.6908 -2.4821
   95MOL0     H12819   2.789   1.153   3.751 -1.7083 -1.4976 -2.3852
   95MOL0     H12820   2.663   1.280   3.758 -0.8273  0.8486 -1.2918
   95MOL0     H12821   2.769   1.433   3.632  0.8920  0.7212  2.7196
   95MOL0     H12822   2.909   1.314   3.594  1.2018 -3.9700  2.8799
   95MOL0     H12823   2.978   1.465   3.994 -2.0760  0.0797  0.5320
   95MOL0     H12824   2.410   1.226   3.491 -1.1208 -0.5504 -1.8272
   95MOL0     H12825   2.195   1.335   3.487  1.8827 -0.2443 -0.2101
   96MOL0     O12826   5.236  11.247  11.028  0.4805  0.0899  0.2374
   96MOL0     C12827   5.322  11.258  10.937  0.6274 -0.5386  0.1882
   96MOL0     O12828   5.303  11.218  10.807 -0.1309  0.5283  0.5673
   96MOL0     C12829   5.185  11.152  10.763 -0.4436  0.4414 -0.0194
   96MOL0     C12830   5.195  11.020  10.703  0.4746 -0.0062 -0.5230
   96MOL0     C12831   5.081  10.948  10.660 -0.0648 -0.2115 -0.7698
   96MOL0     C12832   4.952  11.014  10.663 -0.2762  0.3153 -0.1889
   96MOL0     O12833   4.843  10.944  10.617  0.2518  0.0001  0.8988
   96MOL0     C12834   4.729  11.030  10.592  0.5917  0.5722 -0.0860
   96MOL0     C12835   4.650  10.963  10.475 -0.4017  0.1432 -0.8893
   96MOL0     C12836   4.517  11.029  10.445  0.2856 -0.9216 -0.1677
   96MOL0     C12837   4.424  10.941  10.358 -0.4425  0.7612  0.2727
   96MOL0     C12838   4.311  11.024  10.291  0.4150 -0.1456 -0.5097
   96MOL0     C12839   4.185  10.943  10.260  0.3567  0.5403 -1.2455
   96MOL0     C12840   4.192  10.839  10.154  0.3584 -0.1271 -1.0674
   96MOL0     C12841   4.065  10.758  10.144 -0.0801  0.7396 -0.0860
   96MOL0     N12842   3.944  10.827  10.122  0.0631  0.0067  0.5835
   96MOL0     C12843   3.909  10.873   9.992  0.8796 -0.6565 -0.0649
   96MOL0     C12844   3.785  10.942  10.017  0.4142  0.3743  0.7393
   96MOL0     C12845   3.685  11.019   9.924 -0.3439  0.0265  0.1126
   96MOL0     C12846   3.543  11.013   9.973  0.8279  0.4194 -1.0186
   96MOL0     C12847   3.455  11.091   9.870 -1.3256  0.8580 -0.2681
   96MOL0     C12848   3.311  11.090   9.912  0.4872  0.7239  0.3797
   96MOL0     O12849   3.228  11.138   9.804 -0.3063 -0.5325  0.2812
   96MOL0     C12850   3.091  11.152   9.811  0.5081 -0.4313  0.6735
   96MOL0     C12851   3.039  11.231   9.709 -0.0643  0.4850  0.0483
   96MOL0     C12852   2.896  11.253   9.701 -0.2501 -0.3401 -0.5795
   96MOL0     C12853   2.851  11.328   9.582  0.2085 -0.4408 -0.6145
   96MOL0     C12854   2.816  11.198   9.800  0.1468 -0.6179 -0.3890
   96MOL0     C12855   2.669  11.238   9.818 -0.8486 -0.7826 -0.4143
   96MOL0     O12856   2.625  11.363   9.780 -0.1177  0.4154  0.8282
   96MOL0     C12857   2.501  11.392   9.812  0.1432  0.1693  1.2789
   96MOL0     C12858   2.416  11.432   9.703 -0.0907 -0.2201  1.1059
   96MOL0     C12859   2.274  11.461   9.720  0.0658 -0.5919  0.3128
   96MOL0     C12860   2.226  11.452   9.847  0.0944 -0.4490 -0.0989
   96MOL0     O12861   2.087  11.477   9.870 -0.0651  0.0170 -0.3614
   96MOL0     C12862   2.028  11.378   9.958  0.1195  0.0569  0.2452
   96MOL0     C12863   1.889  11.358   9.893  0.8116 -0.7602 -0.3225
   96MOL0     C12864   1.806  11.254   9.966  0.0282  0.0512  0.0819
   96MOL0     C12865   1.685  11.202   9.888 -0.8414 -0.1431  0.9210
   96MOL0     C12866   1.610  11.087   9.951  0.7969 -0.2943  0.3499
   96MOL0     C12867   1.696  10.959   9.946 -0.8803  0.6876  0.1883
   96MOL0     C12868   1.618  10.848  10.017 -1.1077  0.8913  0.0714
   96MOL0     C12869   1.703  10.721  10.009  0.4260  0.1427  0.8558
   96MOL0    Cl12870   1.716  10.670   9.840  0.5677  0.2791  0.2609
   96MOL0     C12871   2.310  11.396   9.953 -0.2314 -0.5398 -0.2283
   96MOL0     C12872   2.444  11.372   9.932 -0.1935 -0.7509 -0.5492
   96MOL0     O12873   2.600  11.145   9.859  0.2498 -0.8929  0.8017
   96MOL0     C12874   2.875  11.108   9.890  0.1435 -0.1616  0.1233
   96MOL0     C12875   3.006  11.087   9.895  0.6342  0.3816 -0.6107
   96MOL0     N12876   3.743  10.918  10.147  0.6813 -0.1335  0.7973
   96MOL0     N12877   3.831  10.844  10.205  0.5771  0.1206 -0.6960
   96MOL0     C12878   4.951  11.140  10.727 -0.2023  0.2172 -0.6023
   96MOL0     C12879   5.058  11.211  10.779 -0.5698  0.8730  0.5417
   96MOL0     C12880   5.453  11.295  10.986  0.2216 -0.9183  0.0809
   96MOL0     C12881   5.479  11.339  11.119 -0.3942  0.2627 -0.9452
   96MOL0     C12882   5.603  11.381  11.159  0.0175 -0.0735  0.4139
   96MOL0     C12883   5.708  11.394  11.072  0.7446 -0.7200  0.3028
   96MOL0     O12884   5.821  11.457  11.121  0.4787  0.3049  0.0204
   96MOL0     C12885   5.912  11.520  11.026  0.5327  0.6669 -0.1945
   96MOL0     C12886   5.832  11.634  10.961  0.7204 -0.5988 -0.9419
   96MOL0     C12887   5.787  11.737  11.068 -0.0636 -0.1759  0.2194
   96MOL0     C12888   5.715  11.861  11.014 -0.9718  0.2793  0.1443
   96MOL0     C12889   5.581  11.829  10.977  0.6063  0.4472 -0.8368
   96MOL0     C12890   5.459  11.809  10.961 -0.7552  0.4831  0.7056
   96MOL0     C12891   5.686  11.352  10.942 -0.1726  0.0351  0.7951
   96MOL0     C12892   5.560  11.302  10.899 -0.8034  0.0604 -0.9005
   96MOL0     H12893   5.291  10.970  10.698 -0.1968 -1.3112 -0.7947
   96MOL0     H12894   5.081  10.843  10.633 -1.8129 -0.6840  0.8352
   96MOL0     H12895   4.664  11.048  10.678  0.5974  0.0700  0.0311
   96MOL0     H12896   4.765  11.126  10.555  3.1319  0.5185  1.9667
   96MOL0     H12897   4.714  10.977  10.387 -1.3677  2.7396 -1.2728
   96MOL0     H12898   4.643  10.858  10.504 -0.9659  0.1251 -1.0782
   96MOL0     H12899   4.465  11.068  10.533  0.9239  1.3201 -0.6983
   96MOL0     H12900   4.526  11.125  10.393 -5.2200 -0.9868 -1.8651
   96MOL0     H12901   4.472  10.884  10.278 -0.8295 -0.1947  0.7065
   96MOL0     H12902   4.374  10.873  10.428 -0.9989  0.5693 -0.3072
   96MOL0     H12903   4.281  11.092  10.371 -1.0355  1.9631 -2.6773
   96MOL0     H12904   4.346  11.083  10.206  2.7589  0.7442  0.9755
   96MOL0     H12905   4.162  10.893  10.354 -0.7088  1.9602 -0.7227
   96MOL0     H12906   4.101  11.009  10.234 -2.3137 -3.1260 -2.8664
   96MOL0     H12907   4.217  10.887  10.059  0.8030  0.9632 -0.4100
   96MOL0     H12908   4.278  10.775  10.171  2.4701  2.6282 -0.7824
   96MOL0     H12909   4.053  10.691  10.229  0.6178 -2.0506 -2.0344
   96MOL0     H12910   4.081  10.691  10.059  1.8545  0.2531  0.6239
   96MOL0     H12911   3.962  10.875   9.897  0.2448 -1.8961 -0.4695
   96MOL0     H12912   3.716  11.124   9.919  2.0739 -0.5548  1.2870
   96MOL0     H12913   3.679  10.992   9.818 -2.0516 -2.7347  0.8140
   96MOL0     H12914   3.532  11.057  10.073 -3.1224 -1.1878 -0.5595
   96MOL0     H12915   3.516  10.908   9.989  4.8618 -0.7424 -0.8909
   96MOL0     H12916   3.477  11.052   9.771 -2.1683 -0.7535  0.1593
   96MOL0     H12917   3.493  11.194   9.877  1.9945 -0.3065  0.9262
   96MOL0     H12918   3.306  11.151  10.002 -0.2603  2.1022 -0.5524
   96MOL0     H12919   3.277  10.988   9.934  1.8954  0.1103 -0.1755
   96MOL0     H12920   3.108  11.285   9.645  2.1446 -2.6397 -0.4592
   96MOL0     H12921   2.760  11.283   9.543  0.4735 -1.2580 -0.3137
   96MOL0     H12922   2.831  11.434   9.601  1.8110  0.3144 -2.7892
   96MOL0     H12923   2.923  11.331   9.500  3.5750 -1.8517  2.0039
   96MOL0     H12924   2.453  11.444   9.602  0.7893 -0.2999  1.4148
   96MOL0     H12925   2.203  11.492   9.644  0.3483 -0.7748 -0.0318
   96MOL0     H12926   2.069  11.278   9.947 -3.0949 -1.4639  0.8963
   96MOL0     H12927   2.020  11.407  10.063 -0.8376 -1.9165  0.7635
   96MOL0     H12928   1.840  11.456   9.890  2.1115 -0.0877 -3.5987
   96MOL0     H12929   1.906  11.329   9.789  0.8863  0.4926 -0.6745
   96MOL0     H12930   1.772  11.302  10.058 -0.8207  1.7142 -1.0371
   96MOL0     H12931   1.873  11.175   9.999  1.7204  1.2178 -0.4215
   96MOL0     H12932   1.609  11.281   9.882 -2.2741 -1.1756  3.5413
   96MOL0     H12933   1.727  11.172   9.791 -4.6837  0.0128 -0.9890
   96MOL0     H12934   1.518  11.067   9.897  0.8538 -0.4800  0.3191
   96MOL0     H12935   1.598  11.110  10.057  0.3230  0.4616  0.1375
   96MOL0     H12936   1.707  10.940   9.839 -0.9589 -3.2344  0.7096
   96MOL0     H12937   1.797  10.958   9.986 -0.2337 -2.9797 -1.1132
   96MOL0     H12938   1.521  10.841   9.968 -2.0184  2.4709  1.5085
   96MOL0     H12939   1.602  10.875  10.122  3.1449 -0.3182  1.2145
   96MOL0     H12940   1.647  10.649  10.068  0.7532 -0.7378  0.1165
   96MOL0     H12941   1.805  10.738  10.045  0.2530  0.4284  1.2190
   96MOL0     H12942   2.269  11.382  10.053  1.5870  0.4357  0.7094
   96MOL0     H12943   2.503  11.366  10.024  1.0957  3.2101 -0.9074
   96MOL0     H12944   2.809  11.057   9.959  1.5977 -0.4274  1.3875
   96MOL0     H12945   3.044  11.011   9.962 -2.1456 -0.5079  0.1257
   96MOL0     H12946   4.856  11.188  10.746 -0.0896  0.7555 -1.3600
   96MOL0     H12947   5.049  11.305  10.832  2.5041  0.4420  2.0551
   96MOL0     H12948   5.390  11.351  11.180  1.5232  1.0543  1.8924
   96MOL0     H12949   5.628  11.414  11.260  2.9859 -2.7488  0.7501
   96MOL0     H12950   6.002  11.568  11.065  1.9406 -0.7569 -1.5985
   96MOL0     H12951   5.947  11.445  10.956  1.3221 -2.5723  3.3337
   96MOL0     H12952   5.749  11.592  10.904 -0.9952 -0.1795  1.1197
   96MOL0     H12953   5.897  11.678  10.885  0.3041  1.4233 -0.1924
   96MOL0     H12954   5.877  11.782  11.112  0.5513 -0.2913 -0.8657
   96MOL0     H12955   5.728  11.692  11.149 -0.9449  2.5716  1.2031
   96MOL0     H12956   5.770  11.905  10.931  1.5268 -0.8259  1.1041
   96MOL0     H12957   5.699  11.944  11.084 -0.8685 -0.9375  1.6546
   96MOL0     H12958   5.354  11.796  10.946 -0.6132  0.4135 -0.2790
   96MOL0     H12959   5.768  11.348  10.871 -0.5364 -0.3269  0.3859
   96MOL0     H12960   5.550  11.278  10.794  1.2343 -2.3763 -0.6362
   97MOL0     O12961   8.428   3.010   3.748 -0.3429 -0.2651  0.1931
   97MOL0     C12962   8.465   3.018   3.861 -0.6488 -0.5236  0.2601
   97MOL0     O12963   8.389   3.061   3.962  0.1437  0.0135 -0.6171
   97MOL0     C12964   8.256   3.104   3.959 -0.2604 -0.5490  0.5944
   97MOL0     C12965   8.202   3.169   3.847 -0.0456  0.8909 -0.5128
   97MOL0     C12966   8.072   3.222   3.846 -0.1959  0.3332 -0.1431
   97MOL0     C12967   7.998   3.213   3.966  0.5323 -0.0353 -0.2028
   97MOL0     O12968   7.865   3.259   3.993 -0.0198 -0.1347 -0.2827
   97MOL0     C12969   7.775   3.272   3.875 -0.3645  0.2444 -0.2298
   97MOL0     C12970   7.641   3.231   3.902 -0.1754 -0.2601  0.5613
   97MOL0     C12971   7.637   3.080   3.947 -0.4750 -0.1913 -0.3449
   97MOL0     C12972   7.488   3.040   3.989 -1.1138 -0.2204 -0.0287
   97MOL0     C12973   7.393   3.007   3.875 -0.3592 -0.3316  0.3130
   97MOL0     C12974   7.251   2.990   3.921  0.3382 -0.8560  0.0699
   97MOL0     C12975   7.156   2.948   3.806  0.9236  0.7257 -0.2151
   97MOL0     C12976   7.008   2.995   3.805 -0.5316  0.0610 -0.9657
   97MOL0     N12977   6.944   2.917   3.702 -0.1531 -0.3309 -0.2105
   97MOL0     C12978   6.812   2.935   3.671 -0.0962 -0.8486 -0.1668
   97MOL0     C12979   6.783   2.865   3.563  1.0063  0.6650 -0.4022
   97MOL0     C12980   6.647   2.854   3.508  0.5127  0.3525  0.7153
   97MOL0     C12981   6.602   2.708   3.485 -1.1768 -0.5724 -0.1627
   97MOL0     C12982   6.470   2.701   3.419 -0.9699 -0.2603  0.4426
   97MOL0     C12983   6.456   2.558   3.373  0.2272  0.6208  0.4148
   97MOL0     O12984   6.372   2.563   3.256 -0.8712  0.4862  0.1999
   97MOL0     C12985   6.237   2.569   3.268  0.1144  0.0390  0.1263
   97MOL0     C12986   6.169   2.585   3.147 -0.1677 -0.1999 -0.5920
   97MOL0     C12987   6.026   2.588   3.142  0.1067 -0.2190 -0.9528
   97MOL0     C12988   5.960   2.588   3.006 -0.1241  0.6231 -0.1078
   97MOL0     C12989   5.954   2.583   3.276  0.2096 -0.4184  0.0744
   97MOL0     C12990   5.805   2.570   3.285  0.0264 -0.1771  0.7475
   97MOL0     O12991   5.746   2.614   3.399 -0.2336  0.5183  0.1672
   97MOL0     C12992   5.629   2.552   3.433  0.0311 -0.1118 -0.3297
   97MOL0     C12993   5.514   2.638   3.448 -0.6560 -0.1029  0.7883
   97MOL0     C12994   5.390   2.578   3.474  0.0923 -0.0717 -0.0416
   97MOL0     C12995   5.378   2.443   3.505 -0.4775  0.4150  0.4269
   97MOL0     O12996   5.257   2.386   3.540 -0.1269  0.1815 -0.7867
   97MOL0     C12997   5.262   2.280   3.625  0.1599 -0.0496 -0.1252
   97MOL0     C12998   5.132   2.258   3.699 -0.1417 -0.4336  0.7100
   97MOL0     C12999   5.092   2.384   3.774 -0.8851  0.1070 -0.1009
   97MOL0     C13000   4.974   2.365   3.868 -0.1046  0.4094  0.3356
   97MOL0     C13001   4.987   2.254   3.969  0.4480 -0.1085  0.7499
   97MOL0     C13002   5.125   2.260   4.050 -0.4776  0.1045  0.2044
   97MOL0     C13003   5.141   2.381   4.145  0.5437 -0.3695 -0.1437
   97MOL0     C13004   5.289   2.386   4.192 -0.3500 -0.0896  0.4370
   97MOL0    Cl13005   5.323   2.537   4.280 -0.0594 -0.1666  0.1377
   97MOL0     C13006   5.490   2.360   3.504  0.0962  0.2812 -0.3246
   97MOL0     C13007   5.618   2.410   3.471  0.5947  0.1084 -0.4056
   97MOL0     O13008   5.733   2.532   3.184 -0.1979  0.2965  0.3166
   97MOL0     C13009   6.029   2.580   3.394 -0.2990  0.2658 -0.0414
   97MOL0     C13010   6.164   2.569   3.384  0.0051  1.1579  0.2565
   97MOL0     N13011   6.904   2.805   3.528 -0.3269  0.4688  0.2262
   97MOL0     N13012   7.004   2.854   3.601 -0.2902  0.2598  0.0288
   97MOL0     C13013   8.051   3.153   4.078  0.0450 -0.4220  0.1266
   97MOL0     C13014   8.179   3.100   4.075  0.4220 -0.3360  0.1840
   97MOL0     C13015   8.602   3.003   3.885  0.4467 -0.1388 -0.3705
   97MOL0     C13016   8.661   3.022   4.010 -0.0478  0.2015  0.0389
   97MOL0     C13017   8.804   3.026   4.031 -0.8460  0.2656 -0.4803
   97MOL0     C13018   8.890   2.997   3.924  0.3124  0.4535 -0.7079
   97MOL0     O13019   9.030   2.996   3.926  0.3869  0.2980 -0.4716
   97MOL0     C13020   9.089   2.998   4.053 -0.7533 -0.2775  0.1391
   97MOL0     C13021   9.244   3.016   4.047 -0.0288  1.0286 -0.0778
   97MOL0     C13022   9.325   2.908   3.972  0.3979  0.0350  0.1700
   97MOL0     C13023   9.472   2.952   3.954 -0.8695 -0.3101 -0.2274
   97MOL0     C13024   9.544   2.851   3.878 -0.7616  0.1411  0.4887
   97MOL0     C13025   9.613   2.762   3.824  0.1175  0.4831 -0.2390
   97MOL0     C13026   8.834   2.964   3.801  0.4458 -0.0622  0.3108
   97MOL0     C13027   8.694   2.972   3.779  0.2171 -0.0176 -0.2625
   97MOL0     H13028   8.246   3.159   3.748  0.6326 -0.6109 -0.0862
   97MOL0     H13029   8.032   3.258   3.752  2.1115 -1.3475 -1.8338
   97MOL0     H13030   7.759   3.378   3.855 -1.0589  0.7051  2.3581
   97MOL0     H13031   7.812   3.215   3.789  1.2744 -1.3950  1.4663
   97MOL0     H13032   7.610   3.292   3.987 -0.5988  1.3969 -0.7327
   97MOL0     H13033   7.582   3.243   3.811  1.4438 -0.5354 -0.5648
   97MOL0     H13034   7.665   3.011   3.866 -4.8065 -0.0811 -2.1960
   97MOL0     H13035   7.703   3.063   4.033 -1.0478 -0.7404 -0.0094
   97MOL0     H13036   7.481   2.958   4.061  0.2325 -0.1072  0.2586
   97MOL0     H13037   7.460   3.136   4.034 -0.3272 -0.5299  1.1557
   97MOL0     H13038   7.415   3.084   3.800  0.4014 -0.6998  0.1424
   97MOL0     H13039   7.429   2.912   3.833  1.3251 -0.0574  1.0512
   97MOL0     H13040   7.258   2.909   3.995  2.0635  0.8765  1.9207
   97MOL0     H13041   7.199   3.071   3.973 -0.6960 -1.1856 -0.4068
   97MOL0     H13042   7.208   2.975   3.714 -1.3006  0.2244 -1.6809
   97MOL0     H13043   7.150   2.838   3.809  0.6901  0.7346 -0.3255
   97MOL0     H13044   6.996   3.104   3.795  2.0103  0.4028 -1.0705
   97MOL0     H13045   6.957   2.967   3.897  0.3961 -2.7018 -1.2174
   97MOL0     H13046   6.750   3.008   3.723  2.5409  0.3447  1.5387
   97MOL0     H13047   6.580   2.905   3.577 -1.3174 -0.3607 -0.4512
   97MOL0     H13048   6.648   2.913   3.416  2.8185  0.9061  1.0306
   97MOL0     H13049   6.603   2.649   3.577 -1.0753 -3.3747 -1.8481
   97MOL0     H13050   6.679   2.666   3.418 -0.7619  0.5538 -0.4101
   97MOL0     H13051   6.467   2.777   3.340  1.0185  3.5788  3.7036
   97MOL0     H13052   6.398   2.718   3.500  1.1329  0.0281  2.3206
   97MOL0     H13053   6.425   2.490   3.452  0.7221 -1.4074 -1.0506
   97MOL0     H13054   6.551   2.515   3.339 -0.5200 -0.0968 -0.8299
   97MOL0     H13055   6.230   2.582   3.057  2.2162 -1.1007  0.9835
   97MOL0     H13056   5.948   2.483   2.980  2.0346  0.5952 -1.2707
   97MOL0     H13057   5.865   2.640   2.995  0.0763  1.1380  0.5188
   97MOL0     H13058   6.024   2.638   2.932  1.5385  0.9031  1.4487
   97MOL0     H13059   5.515   2.746   3.435  0.3234  0.1569  2.6248
   97MOL0     H13060   5.308   2.649   3.484  1.0044  1.2810 -1.7087
   97MOL0     H13061   5.279   2.184   3.575  0.3515 -0.0424 -0.0710
   97MOL0     H13062   5.329   2.302   3.709 -0.0712  1.2451 -0.2582
   97MOL0     H13063   5.058   2.228   3.623 -0.8600 -0.3100  1.3437
   97MOL0     H13064   5.144   2.170   3.764 -1.9896 -0.1802  1.4533
   97MOL0     H13065   5.081   2.470   3.707  4.8475  0.2585 -1.3605
   97MOL0     H13066   5.184   2.413   3.826 -1.4719  4.2406 -0.9905
   97MOL0     H13067   4.969   2.462   3.918  0.6297  1.1989 -1.0775
   97MOL0     H13068   4.881   2.363   3.810  0.4365  1.4312 -0.6062
   97MOL0     H13069   4.985   2.159   3.915  0.2992 -0.2496  1.0002
   97MOL0     H13070   4.903   2.251   4.040  0.0632 -0.0836  0.3029
   97MOL0     H13071   5.148   2.169   4.106 -0.3973  0.7654  1.2564
   97MOL0     H13072   5.204   2.259   3.974 -1.9150  0.3036 -1.3522
   97MOL0     H13073   5.070   2.365   4.227  0.1953  0.6872 -0.2272
   97MOL0     H13074   5.123   2.475   4.092  1.5593 -0.9906 -1.6358
   97MOL0     H13075   5.352   2.376   4.104 -1.7887 -1.6379 -0.4732
   97MOL0     H13076   5.311   2.305   4.263  0.0293  0.1956  0.6471
   97MOL0     H13077   5.485   2.253   3.521  3.6848 -0.1297 -1.1411
   97MOL0     H13078   5.708   2.351   3.463  0.2309 -0.8523  1.9382
   97MOL0     H13079   5.983   2.575   3.492  0.2124 -0.7626  0.1617
   97MOL0     H13080   6.223   2.551   3.474  1.4796 -0.5213 -0.9629
   97MOL0     H13081   7.996   3.154   4.171  2.5667  1.6215  1.7247
   97MOL0     H13082   8.221   3.057   4.165  1.5668  2.4799  1.1196
   97MOL0     H13083   8.598   3.059   4.091  0.0256  0.1566  0.1169
   97MOL0     H13084   8.830   3.035   4.136 -2.8163 -1.3822  0.2120
   97MOL0     H13085   9.046   3.077   4.115  0.4276  0.1963  0.3985
   97MOL0     H13086   9.067   2.905   4.106  0.4181 -0.9376 -0.4783
   97MOL0     H13087   9.287   3.013   4.147  3.1650 -3.4639 -1.2890
   97MOL0     H13088   9.254   3.116   4.003 -1.8671  0.3526 -2.2144
   97MOL0     H13089   9.276   2.896   3.875 -2.7563  0.3502  1.5928
   97MOL0     H13090   9.315   2.812   4.023 -1.3641  0.5062  0.7875
   97MOL0     H13091   9.519   2.963   4.052  0.0729 -1.3766 -0.5389
   97MOL0     H13092   9.476   3.042   3.891 -0.2658 -0.0890  0.1206
   97MOL0     H13093   9.676   2.690   3.776 -1.3036  0.0750 -1.5736
   97MOL0     H13094   8.897   2.925   3.722 -2.1217 -0.4313 -1.7006
   97MOL0     H13095   8.668   2.952   3.676 -0.7420 -1.9190  0.2940
   98MOL0     O13096   6.890   3.007   5.506  0.6221  0.8357  1.0645
   98MOL0     C13097   6.943   3.074   5.597 -0.4955  0.2817  0.0398
   98MOL0     O13098   6.884   3.174   5.674 -0.8052  1.0974 -0.8134
   98MOL0     C13099   6.775   3.241   5.624 -0.1971 -0.9827  0.6689
   98MOL0     C13100   6.653   3.183   5.609  0.3872  0.7877 -0.1418
   98MOL0     C13101   6.545   3.254   5.560 -0.4544  0.5374 -1.0053
   98MOL0     C13102   6.563   3.395   5.518 -0.4892 -0.5530  0.5059
   98MOL0     O13103   6.461   3.481   5.482 -0.0498  0.0154  0.0184
   98MOL0     C13104   6.326   3.426   5.475 -0.1233 -0.2445 -1.0291
   98MOL0     C13105   6.305   3.346   5.350  0.1358 -0.6418 -0.3299
   98MOL0     C13106   6.155   3.293   5.340 -0.4339 -0.7287 -0.3772
   98MOL0     C13107   6.145   3.153   5.402  0.8279  0.3592  0.2818
   98MOL0     C13108   6.011   3.107   5.472  0.0428  0.2400 -0.4321
   98MOL0     C13109   5.892   3.090   5.376  0.0694 -0.4676  0.0846
   98MOL0     C13110   5.765   3.076   5.444  0.2146  0.3367 -0.7454
   98MOL0     C13111   5.638   3.079   5.362 -0.0895  0.1498  0.2627
   98MOL0     N13112   5.601   2.941   5.305 -0.5989 -0.3109 -0.0900
   98MOL0     C13113   5.505   2.862   5.367 -0.4077 -0.1076  0.6860
   98MOL0     C13114   5.481   2.773   5.264  0.8479 -0.3955 -0.1257
   98MOL0     C13115   5.377   2.658   5.252 -0.8464  0.7939  0.9610
   98MOL0     C13116   5.278   2.701   5.142  0.0341 -0.6143  0.1951
   98MOL0     C13117   5.329   2.668   5.006  0.5456  0.1433 -0.0644
   98MOL0     C13118   5.227   2.685   4.891  0.1855  0.5562  0.4277
   98MOL0     O13119   5.123   2.593   4.917 -0.1888 -0.2877  0.4653
   98MOL0     C13120   5.022   2.591   4.824  0.2227 -1.4290  1.0602
   98MOL0     C13121   5.041   2.544   4.693  0.0117 -0.6555 -0.3574
   98MOL0     C13122   4.926   2.547   4.605  0.1187 -0.0884 -0.0309
   98MOL0     C13123   4.945   2.513   4.456  0.0118 -0.1773  0.0181
   98MOL0     C13124   4.801   2.593   4.657  0.9609 -0.3772  0.2228
   98MOL0     C13125   4.678   2.610   4.573  0.1301  0.1351 -0.3110
   98MOL0     O13126   4.590   2.712   4.606 -0.4691  0.3917 -0.2872
   98MOL0     C13127   4.470   2.714   4.536 -0.1164  0.4258 -0.7949
   98MOL0     C13128   4.458   2.772   4.408  0.7201 -0.3170 -0.2120
   98MOL0     C13129   4.334   2.775   4.349  0.2678  0.2707 -0.5728
   98MOL0     C13130   4.217   2.718   4.403 -0.4964  0.0012  0.4567
   98MOL0     O13131   4.102   2.734   4.328 -0.1789 -0.1087  0.0793
   98MOL0     C13132   3.983   2.670   4.379  0.1203  0.0247  0.0614
   98MOL0     C13133   3.866   2.716   4.295 -1.1859 -0.3362  0.3059
   98MOL0     C13134   3.733   2.646   4.337 -0.4203  0.7264  0.5745
   98MOL0     C13135   3.640   2.633   4.216  0.0894 -0.0925 -0.3825
   98MOL0     C13136   3.490   2.603   4.254 -0.0339 -0.1084 -0.5923
   98MOL0     C13137   3.392   2.638   4.144 -0.5407  0.4960  0.3143
   98MOL0     C13138   3.251   2.600   4.171  0.1136 -0.5194 -0.4963
   98MOL0     C13139   3.164   2.713   4.216  0.0084  0.6923 -0.3986
   98MOL0    Cl13140   2.996   2.653   4.229 -0.3953 -0.1161  0.0016
   98MOL0     C13141   4.229   2.659   4.527  0.8383 -1.0912  0.0922
   98MOL0     C13142   4.357   2.664   4.594 -0.3006  0.4510 -0.1992
   98MOL0     O13143   4.658   2.523   4.482 -0.3724 -1.0580  0.2494
   98MOL0     C13144   4.786   2.635   4.788  0.6114  0.9377  0.3719
   98MOL0     C13145   4.896   2.630   4.874  1.3082  0.5598  0.3611
   98MOL0     N13146   5.556   2.798   5.152  0.1992 -0.0657 -0.4639
   98MOL0     N13147   5.626   2.910   5.174 -0.2797  0.5786 -0.6431
   98MOL0     C13148   6.689   3.447   5.531 -0.0383 -1.1105 -1.0104
   98MOL0     C13149   6.790   3.379   5.596  0.2464 -0.3447  0.3569
   98MOL0     C13150   7.086   3.061   5.625 -0.0499  0.6288 -0.0474
   98MOL0     C13151   7.155   3.167   5.676  0.0705 -0.1833 -0.2707
   98MOL0     C13152   7.283   3.155   5.718  0.4888  0.1536  0.2690
   98MOL0     C13153   7.348   3.031   5.703 -0.7302 -0.5735  0.4769
   98MOL0     O13154   7.476   3.032   5.747  0.0426 -0.0255  0.3040
   98MOL0     C13155   7.561   2.919   5.720  0.0868 -0.2722  0.7324
   98MOL0     C13156   7.708   2.928   5.759 -0.6123  0.7507 -0.2219
   98MOL0     C13157   7.767   3.071   5.745 -0.7313  0.1147  0.2395
   98MOL0     C13158   7.915   3.082   5.782  0.2171 -0.2938 -0.1832
   98MOL0     C13159   7.990   3.200   5.724 -0.6959  0.3787 -0.8927
   98MOL0     C13160   8.068   3.277   5.682 -0.4866  0.2707  0.2690
   98MOL0     C13161   7.281   2.923   5.655  0.0979  0.3222 -0.4766
   98MOL0     C13162   7.146   2.936   5.617 -0.0801  0.4922 -0.2125
   98MOL0     H13163   6.635   3.079   5.635  2.5377  0.7993  1.6967
   98MOL0     H13164   6.446   3.213   5.578 -0.0767  0.4120  1.0497
   98MOL0     H13165   6.306   3.362   5.562 -0.3688 -2.0246 -2.3557
   98MOL0     H13166   6.250   3.504   5.482 -0.5100 -0.7668  2.0277
   98MOL0     H13167   6.312   3.415   5.266 -1.4594  2.4404  1.8981
   98MOL0     H13168   6.376   3.266   5.329 -2.0989 -2.3993 -1.7756
   98MOL0     H13169   6.088   3.352   5.403 -0.2212 -3.3360  2.4740
   98MOL0     H13170   6.116   3.302   5.238 -1.0532  0.1539 -0.0830
   98MOL0     H13171   6.160   3.083   5.319 -1.6485  1.4186 -1.1524
   98MOL0     H13172   6.230   3.143   5.471  0.2366  1.3310  1.1774
   98MOL0     H13173   6.025   3.015   5.529 -0.7476  0.1854 -0.3186
   98MOL0     H13174   5.990   3.184   5.546  1.9672 -0.5945  1.0727
   98MOL0     H13175   5.893   3.183   5.318  2.2049 -0.1077  0.6218
   98MOL0     H13176   5.918   3.010   5.306  4.6294  1.8819 -1.3188
   98MOL0     H13177   5.765   2.986   5.507 -2.3754 -0.1060 -1.2526
   98MOL0     H13178   5.758   3.151   5.524 -2.1790 -0.5827  0.0195
   98MOL0     H13179   5.670   3.145   5.281  2.7095 -2.0200 -0.5461
   98MOL0     H13180   5.555   3.124   5.418 -0.9424  2.0200 -2.2581
   98MOL0     H13181   5.454   2.871   5.462 -0.6682 -0.5712  0.5911
   98MOL0     H13182   5.433   2.570   5.217 -1.0505  0.3141  1.8200
   98MOL0     H13183   5.338   2.620   5.346  1.2861  0.6676  1.8625
   98MOL0     H13184   5.246   2.806   5.143 -0.6596 -0.8243  0.5668
   98MOL0     H13185   5.193   2.634   5.156  0.4902 -0.9498  1.4667
   98MOL0     H13186   5.362   2.563   5.009 -2.3243 -0.9829 -2.4340
   98MOL0     H13187   5.408   2.742   4.992 -0.8701  2.3453  2.7054
   98MOL0     H13188   5.276   2.656   4.798  0.1569 -0.2841  0.6703
   98MOL0     H13189   5.184   2.785   4.876  2.5016  1.4545 -0.6685
   98MOL0     H13190   5.136   2.505   4.659  0.7552  0.1396  0.7634
   98MOL0     H13191   4.919   2.409   4.438 -1.6921  0.1462  0.4019
   98MOL0     H13192   4.886   2.566   4.380 -0.3094 -4.0354 -2.7153
   98MOL0     H13193   5.048   2.540   4.429 -0.7069  0.2496 -2.6224
   98MOL0     H13194   4.548   2.816   4.367  1.8863 -1.1342  1.3854
   98MOL0     H13195   4.335   2.829   4.255 -1.2989  1.8905  0.2942
   98MOL0     H13196   4.003   2.563   4.373 -1.8090 -0.3570 -0.2190
   98MOL0     H13197   3.970   2.693   4.486 -2.2317 -1.4198  0.1685
   98MOL0     H13198   3.851   2.822   4.316  0.6531  0.1300 -0.5514
   98MOL0     H13199   3.893   2.714   4.189  0.8661 -0.2610  0.7819
   98MOL0     H13200   3.684   2.703   4.417 -2.2803 -0.6653  0.4927
   98MOL0     H13201   3.755   2.545   4.373  1.0960  0.8851  0.1356
   98MOL0     H13202   3.631   2.733   4.174  1.3979  1.0330  1.8316
   98MOL0     H13203   3.687   2.570   4.140  3.7238 -0.3208  1.8249
   98MOL0     H13204   3.466   2.667   4.339  0.5500  0.1557 -0.6253
   98MOL0     H13205   3.486   2.501   4.292  1.5859 -0.6847 -1.8520
   98MOL0     H13206   3.412   2.746   4.138  0.6669  0.2118 -1.8616
   98MOL0     H13207   3.433   2.600   4.050 -0.9863  1.6752 -0.3850
   98MOL0     H13208   3.249   2.532   4.257  0.3217  1.2588  0.9687
   98MOL0     H13209   3.205   2.550   4.085 -0.7399 -3.1736  1.3590
   98MOL0     H13210   3.163   2.789   4.137 -2.1013  0.5588 -0.5564
   98MOL0     H13211   3.194   2.736   4.318  1.1034 -3.3141  0.3592
   98MOL0     H13212   4.147   2.608   4.575  2.2134 -3.3969  0.1451
   98MOL0     H13213   4.384   2.612   4.685  2.4386  1.2973 -0.4347
   98MOL0     H13214   4.685   2.652   4.825 -0.8332 -1.0590 -2.3600
   98MOL0     H13215   4.880   2.646   4.980 -0.3179  1.5969 -0.0072
   98MOL0     H13216   6.714   3.551   5.513 -2.1313  0.0109  1.8999
   98MOL0     H13217   6.885   3.430   5.606  0.1869 -0.1741  0.0740
   98MOL0     H13218   7.109   3.265   5.687  0.3209 -0.2558  1.7303
   98MOL0     H13219   7.339   3.238   5.760 -2.2936  2.5704 -0.5213
   98MOL0     H13220   7.515   2.826   5.754 -0.7835 -0.2227 -0.2561
   98MOL0     H13221   7.555   2.916   5.611 -1.8851  0.9330  0.7721
   98MOL0     H13222   7.762   2.856   5.696  1.4933  0.3361  1.9516
   98MOL0     H13223   7.724   2.888   5.859  0.8864  0.6710 -0.4652
   98MOL0     H13224   7.721   3.141   5.815  1.8814  0.3566  1.8563
   98MOL0     H13225   7.741   3.103   5.644 -1.1205 -3.5945 -0.9987
   98MOL0     H13226   7.958   2.988   5.745 -0.1867 -0.0522 -1.2809
   98MOL0     H13227   7.930   3.076   5.890 -0.8838 -0.7899 -0.0500
   98MOL0     H13228   8.148   3.339   5.646 -0.6177  0.5739  0.4897
   98MOL0     H13229   7.325   2.825   5.647 -0.6966 -0.0955  0.1349
   98MOL0     H13230   7.092   2.853   5.573  1.1508  0.4084 -1.6213
   99MOL0     O13231   9.550   8.012   1.644 -0.2924 -0.8071 -0.4919
   99MOL0     C13232   9.630   8.061   1.568 -0.0633  0.1039  0.8187
   99MOL0     O13233   9.602   8.106   1.445 -0.1516  0.1034  0.4465
   99MOL0     C13234   9.501   8.032   1.385  0.2937  0.4723 -0.3920
   99MOL0     C13235   9.362   8.041   1.428 -0.1305 -0.8467 -0.1022
   99MOL0     C13236   9.262   7.969   1.357  0.1919 -0.0579  0.6382
   99MOL0     C13237   9.298   7.883   1.257  0.7394 -0.0869  1.2816
   99MOL0     O13238   9.202   7.805   1.183  0.8751  0.0734 -0.0885
   99MOL0     C13239   9.091   7.869   1.136 -1.0142  0.5580  0.2582
   99MOL0     C13240   9.120   7.953   1.011 -0.1945  0.6720 -1.0218
   99MOL0     C13241   9.156   7.872   0.882 -0.8635 -0.1969 -0.0209
   99MOL0     C13242   9.206   7.959   0.772 -0.3650 -0.3428  0.2837
   99MOL0     C13243   9.083   8.013   0.677  0.1490 -0.3259 -0.7818
   99MOL0     C13244   8.985   7.911   0.635 -0.2653 -0.6958  0.4563
   99MOL0     C13245   8.882   7.975   0.537  0.7765  0.4258  0.6433
   99MOL0     C13246   8.778   8.059   0.614  0.6327 -0.4207 -0.4697
   99MOL0     N13247   8.684   8.119   0.523 -0.0339 -0.6002  1.0323
   99MOL0     C13248   8.616   8.042   0.427  0.0247  0.5708 -0.7405
   99MOL0     C13249   8.543   8.125   0.360  0.1469 -0.3254  0.0576
   99MOL0     C13250   8.466   8.089   0.231  0.0076  0.4108 -0.6014
   99MOL0     C13251   8.342   8.179   0.212 -0.2419  0.3503  0.4692
   99MOL0     C13252   8.233   8.092   0.147 -0.1945  0.8551 -0.1212
   99MOL0     C13253   8.112   8.173   0.106 -0.0418 -0.0863  0.4787
   99MOL0     O13254   8.016   8.090   0.033 -0.2350 -0.0099 -0.4294
   99MOL0     C13255   7.897   8.136   0.012 -0.2569 -0.1312 -1.2068
   99MOL0     C13256   7.852   8.271   0.051  0.3207  0.7769 -0.1816
   99MOL0     C13257   7.725   8.325   0.015 -0.4837  0.7479 -0.7670
   99MOL0     C13258   7.686   8.449   0.085  0.5713 -0.7882  0.3750
   99MOL0     C13259   7.642   8.250  -0.075  0.2770 -0.4652 -0.1878
   99MOL0     C13260   7.504   8.290  -0.110  0.5784 -0.1609  0.5945
   99MOL0     O13261   7.413   8.184  -0.141  0.2126 -0.7790  0.2939
   99MOL0     C13262   7.277   8.205  -0.155 -0.2580  0.2882 -0.1072
   99MOL0     C13263   7.209   8.093  -0.192  1.1177  0.7273 -0.0125
   99MOL0     C13264   7.073   8.085  -0.194  0.3843  0.0211  0.1922
   99MOL0     C13265   6.998   8.196  -0.162  0.2625 -0.3315 -0.2254
   99MOL0     O13266   6.861   8.203  -0.163 -0.2998 -0.1762 -0.6759
   99MOL0     C13267   6.789   8.089  -0.217 -0.1224 -0.4622 -0.3439
   99MOL0     C13268   6.639   8.095  -0.220  0.0905 -0.2315 -0.8243
   99MOL0     C13269   6.580   8.211  -0.299 -0.1482 -0.2793 -0.9382
   99MOL0     C13270   6.429   8.207  -0.306  0.2885  0.0036 -0.2536
   99MOL0     C13271   6.360   8.256  -0.178 -0.3160  0.7222 -0.5896
   99MOL0     C13272   6.207   8.283  -0.210 -0.5954  0.0996 -0.3849
   99MOL0     C13273   6.125   8.325  -0.086  0.4325  0.1441  0.5149
   99MOL0     C13274   5.994   8.394  -0.118 -0.1828  0.5983  0.5174
   99MOL0    Cl13275   5.888   8.269  -0.176 -0.4200 -0.5141 -0.0125
   99MOL0     C13276   7.065   8.315  -0.138 -0.0708 -0.1694 -0.6655
   99MOL0     C13277   7.205   8.321  -0.131 -1.3820 -0.1403 -0.5299
   99MOL0     O13278   7.484   8.411  -0.128 -0.2859 -0.1286 -0.5422
   99MOL0     C13279   7.685   8.116  -0.105  0.1645  0.2649  0.1620
   99MOL0     C13280   7.810   8.055  -0.066  0.4680 -0.1166  0.6196
   99MOL0     N13281   8.559   8.246   0.418 -0.0825  0.0400  0.2204
   99MOL0     N13282   8.638   8.240   0.525  0.7053  1.1337  0.2984
   99MOL0     C13283   9.431   7.873   1.224 -0.0006  0.5375 -0.0162
   99MOL0     C13284   9.536   7.952   1.277  0.4985  0.3632  0.0060
   99MOL0     C13285   9.764   8.077   1.628 -0.2681  0.5072  0.5439
   99MOL0     C13286   9.814   8.013   1.744 -0.1089 -0.6441  0.0497
   99MOL0     C13287   9.942   8.039   1.796 -0.0732  0.1333 -0.0397
   99MOL0     C13288  10.027   8.129   1.722 -0.2262  0.1021 -0.4223
   99MOL0     O13289  10.163   8.159   1.751 -0.4705 -1.3189 -0.4545
   99MOL0     C13290  10.232   8.076   1.840  0.0186 -0.5730 -0.4366
   99MOL0     C13291  10.381   8.111   1.834 -0.4743  0.1246 -0.2199
   99MOL0     C13292  10.407   8.257   1.864  0.5461  0.1320  0.2481
   99MOL0     C13293  10.555   8.284   1.882 -0.5966  0.6644 -0.2743
   99MOL0     C13294  10.588   8.214   2.010  0.1930 -0.3013 -0.8310
   99MOL0     C13295  10.624   8.151   2.111 -0.0465  0.1992 -0.0904
   99MOL0     C13296   9.975   8.192   1.609  0.0479 -0.6028  0.0851
   99MOL0     C13297   9.852   8.168   1.562  0.9796  0.1104  0.2009
   99MOL0     H13298   9.340   8.111   1.508  1.7497 -0.1709 -0.1311
   99MOL0     H13299   9.159   7.977   1.391 -0.5957 -0.1659 -1.5276
   99MOL0     H13300   9.012   7.796   1.116  0.5501 -1.3798  0.9252
   99MOL0     H13301   9.058   7.944   1.208 -1.3350  2.5322 -1.7974
   99MOL0     H13302   9.037   8.023   0.996  2.0607  3.1928 -2.8071
   99MOL0     H13303   9.196   8.029   1.030  0.7349 -0.9371  2.4981
   99MOL0     H13304   9.240   7.807   0.909  0.4918  0.6743 -1.9036
   99MOL0     H13305   9.071   7.811   0.850 -0.5327  0.0772 -1.4913
   99MOL0     H13306   9.268   8.044   0.802  0.9823 -0.2976 -2.3104
   99MOL0     H13307   9.269   7.896   0.709 -1.1899  0.1585 -1.1049
   99MOL0     H13308   9.027   8.088   0.734  0.1522 -0.3421 -0.7585
   99MOL0     H13309   9.132   8.073   0.600 -0.4040 -0.7039 -1.4413
   99MOL0     H13310   9.033   7.837   0.570 -0.6267  1.4305 -2.4096
   99MOL0     H13311   8.923   7.860   0.710  0.2412  0.0081  1.3652
   99MOL0     H13312   8.945   8.039   0.474  1.2041 -1.2916 -0.7311
   99MOL0     H13313   8.839   7.898   0.473 -0.2942  2.4997 -1.2556
   99MOL0     H13314   8.837   8.128   0.675  0.3166  0.4927 -1.1860
   99MOL0     H13315   8.719   7.988   0.674 -2.6559 -0.4117 -3.3712
   99MOL0     H13316   8.620   7.935   0.410 -1.4614  0.4192 -0.3317
   99MOL0     H13317   8.538   8.084   0.148  1.0672  1.1353  0.2354
   99MOL0     H13318   8.446   7.982   0.245  3.9639 -0.2227  1.9830
   99MOL0     H13319   8.356   8.270   0.152 -1.9626 -0.1178 -0.7050
   99MOL0     H13320   8.295   8.219   0.302 -2.1290  0.3448 -0.4536
   99MOL0     H13321   8.200   8.014   0.216  1.6387 -0.2819 -0.4746
   99MOL0     H13322   8.263   8.041   0.055 -0.7224  0.1917  0.0694
   99MOL0     H13323   8.151   8.253   0.042  2.9955 -1.9806 -0.2320
   99MOL0     H13324   8.073   8.200   0.205  3.8669 -1.7508  2.7178
   99MOL0     H13325   7.918   8.341   0.100  0.3346 -0.2036  1.2653
   99MOL0     H13326   7.767   8.493   0.144  2.0657  0.6314 -2.5568
   99MOL0     H13327   7.655   8.525   0.012  1.8772 -1.7048 -1.1870
   99MOL0     H13328   7.605   8.427   0.155  1.5106  2.0180  2.5707
   99MOL0     H13329   7.266   8.004  -0.217 -1.0129 -0.0739 -2.3875
   99MOL0     H13330   7.024   7.991  -0.217 -0.2096  0.4838 -0.4467
   99MOL0     H13331   6.813   8.073  -0.323  0.2818 -2.2787  0.0010
   99MOL0     H13332   6.820   8.002  -0.159  2.8244  1.3776  1.0740
   99MOL0     H13333   6.605   8.000  -0.261  2.6717 -1.4377 -0.3359
   99MOL0     H13334   6.604   8.107  -0.117 -2.0982 -0.5245 -1.4875
   99MOL0     H13335   6.623   8.217  -0.399  0.1271  3.3775 -0.7538
   99MOL0     H13336   6.607   8.301  -0.244 -0.3901 -1.1820  0.7135
   99MOL0     H13337   6.399   8.271  -0.389 -2.1536 -2.3202 -1.3316
   99MOL0     H13338   6.409   8.103  -0.335  3.5866 -0.3365 -1.7257
   99MOL0     H13339   6.408   8.348  -0.143 -0.1866 -0.0417  1.3255
   99MOL0     H13340   6.367   8.172  -0.109 -2.9306 -0.0227 -1.1262
   99MOL0     H13341   6.191   8.360  -0.287 -0.4869 -0.3001 -0.8067
   99MOL0     H13342   6.166   8.187  -0.242  2.3658 -0.4339 -3.0303
   99MOL0     H13343   6.184   8.401  -0.035  0.1256  1.2232 -0.6885
   99MOL0     H13344   6.114   8.231  -0.031  1.0384 -2.2571 -3.0731
   99MOL0     H13345   5.992   8.484  -0.180  2.0397  0.3098 -0.0549
   99MOL0     H13346   5.956   8.427  -0.021 -1.2143  1.0011 -0.0099
   99MOL0     H13347   7.005   8.400  -0.109 -1.1833 -1.6053  1.5548
   99MOL0     H13348   7.245   8.416  -0.097  0.9651 -1.9740  2.3226
   99MOL0     H13349   7.630   8.053  -0.175 -2.8438  0.7043  1.9660
   99MOL0     H13350   7.848   7.965  -0.113  1.5449 -1.4084  3.6984
   99MOL0     H13351   9.458   7.802   1.146 -0.1859  0.6949 -0.2267
   99MOL0     H13352   9.635   7.956   1.232  0.9706  1.0565  1.0589
   99MOL0     H13353   9.748   7.939   1.789 -1.2041 -0.6546 -1.4836
   99MOL0     H13354   9.983   7.988   1.883 -0.9478  1.4358  1.1866
   99MOL0     H13355  10.193   8.101   1.940 -0.2248  2.8848 -1.2582
   99MOL0     H13356  10.217   7.972   1.812 -0.0367 -1.1507  1.5291
   99MOL0     H13357  10.415   8.087   1.732  0.5405  1.4006 -0.2019
   99MOL0     H13358  10.441   8.041   1.893  0.9532  0.3811 -1.2994
   99MOL0     H13359  10.348   8.284   1.951 -2.0530 -0.7555 -1.1412
   99MOL0     H13360  10.382   8.315   1.774 -0.0935  0.2691  0.5081
   99MOL0     H13361  10.579   8.390   1.884 -0.3964  0.6185  1.5305
   99MOL0     H13362  10.614   8.240   1.801  0.4496  0.1408  0.7380
   99MOL0     H13363  10.665   8.097   2.194  2.2935  1.8380 -0.0958
   99MOL0     H13364  10.036   8.275   1.576 -1.1359  0.5783  0.7852
   99MOL0     H13365   9.807   8.227   1.483  0.1041 -1.3938 -0.4892
  100MOL0     O13366   2.686   4.264  10.943  0.0948 -0.0867  0.7246
  100MOL0     C13367   2.653   4.248  10.825 -0.9925 -0.1016 -0.9886
  100MOL0     O13368   2.548   4.181  10.772 -0.6460  0.8103  0.2298
  100MOL0     C13369   2.445   4.135  10.855  0.6801 -0.6331  0.4688
  100MOL0     C13370   2.456   4.069  10.985  0.1922 -0.2338 -0.1550
  100MOL0     C13371   2.342   4.037  11.060 -0.1333 -0.2581  0.7907
  100MOL0     C13372   2.214   4.078  11.019  0.4959 -0.0612  0.4325
  100MOL0     O13373   2.111   4.024  11.098  0.3943 -0.5376 -0.6273
  100MOL0     C13374   1.976   4.023  11.050 -0.1239 -0.0084  0.9372
  100MOL0     C13375   1.912   4.161  11.077  0.5504 -0.5722 -0.3886
  100MOL0     C13376   1.763   4.172  11.016  0.4192  0.0306 -0.3154
  100MOL0     C13377   1.683   4.039  11.023  0.1975  0.5520 -0.0469
  100MOL0     C13378   1.537   4.059  10.981  0.1163  0.3089  0.0961
  100MOL0     C13379   1.445   3.930  10.979 -0.3263  0.5538 -0.6675
  100MOL0     C13380   1.299   3.959  10.964 -0.0800 -0.0953  0.0249
  100MOL0     C13381   1.277   3.992  10.819  0.1422 -0.0310  0.2951
  100MOL0     N13382   1.156   4.071  10.806 -0.2586 -1.2818  0.4289
  100MOL0     C13383   1.049   4.075  10.892  0.5796 -1.0362 -0.0097
  100MOL0     C13384   0.973   4.180  10.843  0.8146  0.7070  0.4036
  100MOL0     C13385   0.840   4.228  10.895  0.4894 -0.7185 -0.7436
  100MOL0     C13386   0.723   4.154  10.829  0.2492 -0.6425 -0.0344
  100MOL0     C13387   0.602   4.256  10.821 -0.6123  0.5376  0.9855
  100MOL0     C13388   0.536   4.294  10.947  0.0519 -0.0615  0.3097
  100MOL0     O13389   0.418   4.221  10.970  0.0778  0.6878  0.5044
  100MOL0     C13390   0.327   4.275  11.064 -0.6496 -0.4934  0.6963
  100MOL0     C13391   0.356   4.357  11.167 -0.7825  0.0101  0.4688
  100MOL0     C13392   0.252   4.408  11.249 -0.6717  0.4940  0.5901
  100MOL0     C13393   0.268   4.495  11.371 -0.8198  0.3466 -0.6589
  100MOL0     C13394   0.126   4.355  11.232  0.5341 -0.1300  0.7448
  100MOL0     C13395   0.013   4.427  11.290 -0.1782 -0.0248 -0.1210
  100MOL0     O13396  -0.008   4.557  11.258 -0.0970 -0.0303  0.0980
  100MOL0     C13397  -0.126   4.615  11.299  0.7290 -0.2379  0.8554
  100MOL0     C13398  -0.230   4.637  11.206  1.0701  0.3077 -0.6852
  100MOL0     C13399  -0.341   4.720  11.243 -0.6477 -0.6600 -0.7776
  100MOL0     C13400  -0.345   4.766  11.377  0.6374  0.4266  0.6236
  100MOL0     O13401  -0.447   4.849  11.423  0.0292  0.2643 -0.3233
  100MOL0     C13402  -0.572   4.801  11.463 -0.0768 -0.3222 -0.0670
  100MOL0     C13403  -0.647   4.894  11.552  0.3000 -0.0457  0.6952
  100MOL0     C13404  -0.570   4.935  11.681  0.3666  0.2647  0.3378
  100MOL0     C13405  -0.517   4.804  11.752 -0.2078  0.0345  0.1493
  100MOL0     C13406  -0.458   4.844  11.888 -0.0781 -0.0594 -0.3917
  100MOL0     C13407  -0.408   4.724  11.966  0.3880 -0.2314 -0.7723
  100MOL0     C13408  -0.290   4.746  12.055 -1.1004  0.7050 -0.0972
  100MOL0     C13409  -0.155   4.698  11.994 -0.0520 -0.3670  0.1503
  100MOL0    Cl13410  -0.007   4.768  12.068  0.0968 -0.4377  0.3890
  100MOL0     C13411  -0.249   4.734  11.469 -0.1646  0.6813  0.8919
  100MOL0     C13412  -0.142   4.655  11.432 -0.4996  0.2374 -0.3954
  100MOL0     O13413  -0.068   4.356  11.358 -0.8590 -0.4910  0.0277
  100MOL0     C13414   0.092   4.263  11.141 -0.6673  0.8114  0.5610
  100MOL0     C13415   0.199   4.220  11.054 -0.1208  0.5827  0.2768
  100MOL0     N13416   1.036   4.226  10.730 -0.9384 -0.4140 -0.2798
  100MOL0     N13417   1.151   4.169  10.708  0.0852  0.4588 -0.2302
  100MOL0     C13418   2.197   4.140  10.892 -0.2203 -0.6055 -0.4658
  100MOL0     C13419   2.309   4.161  10.809 -0.4714  0.0055  0.0715
  100MOL0     C13420   2.750   4.314  10.726 -0.0210  0.7520  0.0116
  100MOL0     C13421   2.722   4.302  10.586  0.7358 -0.2264  0.1549
  100MOL0     C13422   2.807   4.367  10.498 -0.0380  0.4133 -0.4807
  100MOL0     C13423   2.931   4.434  10.538  0.0846 -0.3286  0.1261
  100MOL0     O13424   3.019   4.496  10.458 -0.1177  0.3466 -0.0921
  100MOL0     C13425   3.059   4.419  10.339  0.0381 -0.7527  0.3562
  100MOL0     C13426   3.156   4.500  10.254  0.4821 -1.1145 -0.5620
  100MOL0     C13427   3.285   4.552  10.322  0.5113 -0.3004  0.7285
  100MOL0     C13428   3.385   4.582  10.208 -0.4284 -0.0266  0.4375
  100MOL0     C13429   3.351   4.712  10.148 -0.1975 -0.0557  0.0215
  100MOL0     C13430   3.320   4.818  10.094  0.1567 -0.2352  0.2387
  100MOL0     C13431   2.960   4.432  10.672 -0.0986  0.5765  0.0594
  100MOL0     C13432   2.869   4.384  10.768  0.4905  0.3545  0.0646
  100MOL0     H13433   2.551   4.041  11.030  0.3478  1.4601  0.6585
  100MOL0     H13434   2.350   3.985  11.155 -1.8552 -0.4135  0.8779
  100MOL0     H13435   1.978   3.993  10.945 -0.6287 -0.3834  1.0333
  100MOL0     H13436   1.916   3.951  11.106  0.8254 -0.9555  0.7735
  100MOL0     H13437   1.903   4.170  11.186 -1.5235  1.0050 -0.6002
  100MOL0     H13438   1.968   4.246  11.036  2.8883 -2.0582 -0.4422
  100MOL0     H13439   1.707   4.255  11.061  3.8394  2.1967  0.3175
  100MOL0     H13440   1.773   4.211  10.915 -1.1936 -1.5108 -1.1154
  100MOL0     H13441   1.730   3.970  10.952  0.9052  0.3365  0.6219
  100MOL0     H13442   1.693   3.993  11.121  1.3193 -1.9803 -1.2518
  100MOL0     H13443   1.493   4.136  11.044 -0.1031  0.0924  0.2102
  100MOL0     H13444   1.542   4.111  10.885 -3.5546  2.3912  0.8417
  100MOL0     H13445   1.473   3.854  10.905 -0.7140 -0.7451  0.4742
  100MOL0     H13446   1.463   3.881  11.075 -0.4587  0.1996 -0.8208
  100MOL0     H13447   1.228   3.884  11.001 -0.3218  0.7283  1.3098
  100MOL0     H13448   1.274   4.048  11.023 -0.3777  2.2520 -3.3396
  100MOL0     H13449   1.256   3.900  10.763 -2.6917  0.9784 -0.4813
  100MOL0     H13450   1.365   4.035  10.770 -0.2737 -0.5023 -0.9281
  100MOL0     H13451   1.034   4.012  10.980  1.7803 -0.7295  0.4438
  100MOL0     H13452   0.833   4.216  11.004 -2.5535 -0.4119 -0.8235
  100MOL0     H13453   0.819   4.332  10.868  1.2013 -1.2829 -3.7734
  100MOL0     H13454   0.695   4.063  10.882 -1.7699  0.5685  1.0964
  100MOL0     H13455   0.755   4.136  10.726  3.7232 -0.9269  0.9621
  100MOL0     H13456   0.532   4.199  10.759  3.9176 -1.6751 -2.7224
  100MOL0     H13457   0.632   4.346  10.767  0.3772 -0.4666 -0.2087
  100MOL0     H13458   0.500   4.396  10.933 -1.1250 -0.7838 -2.6054
  100MOL0     H13459   0.602   4.309  11.033 -1.7425  3.6989  1.2151
  100MOL0     H13460   0.459   4.384  11.189 -0.6618  3.6913 -3.4019
  100MOL0     H13461   0.199   4.486  11.455 -1.6271  3.1969 -0.9192
  100MOL0     H13462   0.367   4.473  11.412 -1.1688  2.0861  1.3332
  100MOL0     H13463   0.257   4.601  11.348  1.3354  1.1869  1.6880
  100MOL0     H13464  -0.237   4.591  11.108  3.9934 -0.1528 -0.7482
  100MOL0     H13465  -0.406   4.748  11.161  0.3079 -0.4268 -1.4713
  100MOL0     H13466  -0.629   4.788  11.371 -2.0092 -0.1197  1.0576
  100MOL0     H13467  -0.558   4.700  11.505  1.4123 -0.1791 -0.1560
  100MOL0     H13468  -0.669   4.980  11.489  2.6629  0.8728  1.0222
  100MOL0     H13469  -0.736   4.838  11.584  1.5922 -2.4844  0.3154
  100MOL0     H13470  -0.634   4.983  11.756 -1.6642 -0.5678 -0.7928
  100MOL0     H13471  -0.486   4.998  11.649 -0.4191 -0.1189 -2.7329
  100MOL0     H13472  -0.597   4.735  11.782  2.8995 -2.6706  3.0069
  100MOL0     H13473  -0.447   4.754  11.685 -0.9678  0.8401 -1.2917
  100MOL0     H13474  -0.523   4.905  11.951 -1.3569 -1.1363 -0.6059
  100MOL0     H13475  -0.365   4.898  11.869  0.4969 -0.6000  0.7244
  100MOL0     H13476  -0.486   4.684  12.031 -0.6166 -0.7168 -2.2285
  100MOL0     H13477  -0.394   4.644  11.893  0.2652  0.4012 -1.5055
  100MOL0     H13478  -0.311   4.694  12.149 -1.1809  1.8398  0.5183
  100MOL0     H13479  -0.286   4.855  12.064 -0.1664  0.5125  3.5518
  100MOL0     H13480  -0.144   4.726  11.888 -1.6329  4.0164  0.9109
  100MOL0     H13481  -0.150   4.589  11.999 -0.6891 -0.4285 -0.3875
  100MOL0     H13482  -0.269   4.775  11.567 -2.2726  3.9692 -0.7425
  100MOL0     H13483  -0.061   4.630  11.500 -0.0235  2.1129 -0.2188
  100MOL0     H13484  -0.009   4.224  11.137 -0.6374  0.2653  3.0319
  100MOL0     H13485   0.187   4.149  10.973  1.3044  0.9316 -0.2604
  100MOL0     H13486   2.103   4.179  10.855  0.0617 -1.1333 -1.8149
  100MOL0     H13487   2.295   4.217  10.717 -0.1499  1.0875  0.6614
  100MOL0     H13488   2.625   4.264  10.554  0.3899 -0.5664  1.5584
  100MOL0     H13489   2.767   4.368  10.397 -0.8665 -0.9240 -0.1996
  100MOL0     H13490   3.084   4.320  10.376  1.6063 -0.5665 -0.1317
  100MOL0     H13491   2.971   4.412  10.274 -0.1153 -1.3292  0.6213
  100MOL0     H13492   3.101   4.585  10.212 -0.2015 -1.7913 -1.0749
  100MOL0     H13493   3.188   4.435  10.172  2.1623  1.3641 -2.0026
  100MOL0     H13494   3.331   4.469  10.377 -1.0109 -1.7906 -0.1349
  100MOL0     H13495   3.272   4.637  10.389  1.3572  0.5117 -0.1173
  100MOL0     H13496   3.379   4.500  10.136  0.2405 -2.3163  2.8429
  100MOL0     H13497   3.489   4.583  10.243 -0.3953 -1.7109  0.4487
  100MOL0     H13498   3.329   4.913  10.045  2.2321 -0.3998  0.1896
  100MOL0     H13499   3.057   4.476  10.693  0.8243 -1.2872 -0.1167
  100MOL0     H13500   2.884   4.390  10.875 -0.2784 -1.3970  0.3082
  101MOL0     O13501   7.241   3.488  10.186  0.6458  0.6013  0.8498
  101MOL0     C13502   7.261   3.489  10.059 -0.5917  0.3696 -0.3207
  101MOL0     O13503   7.166   3.463   9.964 -0.4095  0.6506 -0.0624
  101MOL0     C13504   7.049   3.401  10.000  0.5255 -0.5915 -0.2601
  101MOL0     C13505   7.020   3.312  10.109 -0.2013  0.0100  0.5376
  101MOL0     C13506   6.893   3.266  10.132 -0.8189  0.2283  0.5208
  101MOL0     C13507   6.787   3.308  10.053 -0.0917  0.1511  1.4183
  101MOL0     O13508   6.648   3.281  10.062 -0.5170 -0.2328 -0.2805
  101MOL0     C13509   6.600   3.241  10.198  0.2781 -0.1683 -0.2822
  101MOL0     C13510   6.450   3.245  10.195 -0.9393  0.7280 -0.4251
  101MOL0     C13511   6.388   3.124  10.121 -0.3207 -0.2219 -0.2284
  101MOL0     C13512   6.234   3.122  10.148  1.2187  0.1475  0.0106
  101MOL0     C13513   6.156   3.007  10.079 -0.6972 -0.5690 -1.5483
  101MOL0     C13514   6.115   3.037   9.940  0.7671  0.2826  0.6072
  101MOL0     C13515   6.074   2.906   9.873 -0.9372 -0.5853  0.1417
  101MOL0     C13516   6.091   2.915   9.718 -0.1435  0.0732  0.7067
  101MOL0     N13517   5.978   2.993   9.658  0.5313 -0.8546 -0.5899
  101MOL0     C13518   5.842   2.977   9.672 -0.2942 -0.6795 -0.7910
  101MOL0     C13519   5.786   3.081   9.601  0.6836 -0.4286 -0.4782
  101MOL0     C13520   5.638   3.126   9.583 -0.5024 -0.5722 -0.2735
  101MOL0     C13521   5.531   3.107   9.697  0.1208 -0.0686  0.2675
  101MOL0     C13522   5.549   3.202   9.810 -0.5621 -1.1039  0.8818
  101MOL0     C13523   5.460   3.203   9.931  0.5112  0.1321  0.9129
  101MOL0     O13524   5.323   3.220   9.886 -0.5628 -0.6730 -0.2304
  101MOL0     C13525   5.225   3.208   9.984  0.2148  0.1246  0.5707
  101MOL0     C13526   5.244   3.212  10.122  0.4511 -0.2860  0.1032
  101MOL0     C13527   5.128   3.217  10.204  0.0676  0.0659  0.7483
  101MOL0     C13528   5.161   3.244  10.345 -0.4043  0.1098 -0.1821
  101MOL0     C13529   4.993   3.196  10.150  0.1148 -0.1055 -0.1836
  101MOL0     C13530   4.857   3.175  10.221  0.0400 -0.1887  0.0466
  101MOL0     O13531   4.743   3.197  10.154  0.0895  0.4608  0.4530
  101MOL0     C13532   4.622   3.168  10.214  0.3308  0.6445  0.1747
  101MOL0     C13533   4.587   3.085  10.326 -0.6350 -0.3561 -0.4883
  101MOL0     C13534   4.462   3.068  10.369 -0.2750  0.0591 -0.0572
  101MOL0     C13535   4.356   3.134  10.303 -0.5692 -1.0031 -0.1378
  101MOL0     O13536   4.228   3.127  10.341 -0.2229  0.5668  0.1699
  101MOL0     C13537   4.193   3.118  10.479 -0.2294 -0.4367 -0.3292
  101MOL0     C13538   4.044   3.169  10.495  0.3438  0.3360 -0.4279
  101MOL0     C13539   3.941   3.087  10.416 -0.1147  0.0224 -0.4189
  101MOL0     C13540   3.809   3.160  10.443  0.0534  1.0579  0.8521
  101MOL0     C13541   3.690   3.084  10.385  0.3975  0.3400 -0.1964
  101MOL0     C13542   3.552   3.148  10.394 -0.0590  0.2629  0.2605
  101MOL0     C13543   3.442   3.061  10.333 -0.2142  0.5651 -0.4494
  101MOL0     C13544   3.309   3.124  10.346  0.8691  0.0248  0.4455
  101MOL0    Cl13545   3.248   3.109  10.518  0.4500 -0.0182  0.4085
  101MOL0     C13546   4.385   3.206  10.189  0.2887  0.1341 -0.2893
  101MOL0     C13547   4.513   3.233  10.149 -0.6768  0.7075  0.1820
  101MOL0     O13548   4.872   3.152  10.337 -0.8354  0.1286  0.0426
  101MOL0     C13549   4.981   3.177  10.014 -1.2379 -0.1602  0.5488
  101MOL0     C13550   5.094   3.193   9.932 -0.0142 -0.4784  0.4533
  101MOL0     N13551   5.889   3.153   9.545  0.8343 -0.5621  0.2817
  101MOL0     N13552   6.005   3.102   9.582  0.3556  0.7907  0.4596
  101MOL0     C13553   6.812   3.387   9.937 -0.2864  0.5434 -0.0572
  101MOL0     C13554   6.946   3.428   9.911  1.0073  0.9971  0.6510
  101MOL0     C13555   7.401   3.527  10.020  1.0116  0.0846  0.0858
  101MOL0     C13556   7.461   3.480   9.899  1.1890 -0.7760  0.1419
  101MOL0     C13557   7.590   3.510   9.865 -0.2777 -0.4025 -0.8800
  101MOL0     C13558   7.665   3.597   9.947  0.1476  0.3062 -0.0780
  101MOL0     O13559   7.793   3.645   9.916 -0.4758  0.5974  0.3549
  101MOL0     C13560   7.862   3.580   9.800  0.7284  0.4432  0.0881
  101MOL0     C13561   7.906   3.433   9.837 -0.6684  0.4721  0.1706
  101MOL0     C13562   7.938   3.363   9.704 -0.4617 -0.1061 -0.3388
  101MOL0     C13563   8.048   3.437   9.621  0.1286 -0.2365 -0.1060
  101MOL0     C13564   8.176   3.474   9.697  0.0894  0.8061 -0.1460
  101MOL0     C13565   8.282   3.474   9.757 -0.4581  0.0146  0.2444
  101MOL0     C13566   7.608   3.642  10.070  0.0410 -0.6212  0.0176
  101MOL0     C13567   7.477   3.613  10.103 -0.0849  0.3334 -0.1214
  101MOL0     H13568   7.102   3.282  10.173 -1.3967  2.3349  3.4025
  101MOL0     H13569   6.868   3.212  10.223 -3.0548 -2.3620 -1.4646
  101MOL0     H13570   6.630   3.137  10.216 -0.7501 -0.5578 -0.6956
  101MOL0     H13571   6.622   3.315  10.275  1.0033  0.5578 -1.1752
  101MOL0     H13572   6.420   3.240  10.300  0.4859 -1.2267 -0.0556
  101MOL0     H13573   6.418   3.338  10.148  0.5864  1.0522 -0.8928
  101MOL0     H13574   6.404   3.128  10.013 -1.5221 -0.3465 -0.4262
  101MOL0     H13575   6.423   3.029  10.163  0.9767  0.9653  1.4960
  101MOL0     H13576   6.216   3.101  10.253  1.0818 -0.1683 -0.0758
  101MOL0     H13577   6.200   3.222  10.118  0.3540 -1.0393 -3.5903
  101MOL0     H13578   6.230   2.927  10.078  1.4110  1.2570 -0.8250
  101MOL0     H13579   6.074   2.971  10.142  1.0953  0.6547  1.7245
  101MOL0     H13580   6.035   3.112   9.947 -0.6774 -1.2287  0.9283
  101MOL0     H13581   6.200   3.090   9.896 -0.4213 -1.6681 -4.8151
  101MOL0     H13582   6.140   2.828   9.912  1.3947  1.7634  1.1977
  101MOL0     H13583   5.972   2.880   9.902 -2.2134  1.6779 -2.0201
  101MOL0     H13584   6.059   2.817   9.680 -2.3742  1.3199 -0.8536
  101MOL0     H13585   6.188   2.950   9.680 -0.3208  3.0000  2.6648
  101MOL0     H13586   5.794   2.896   9.726  2.2376 -0.3863  2.1261
  101MOL0     H13587   5.631   3.231   9.554 -1.0370  0.0503  1.9527
  101MOL0     H13588   5.608   3.077   9.490  2.0205 -1.2226 -0.8209
  101MOL0     H13589   5.553   3.005   9.731  0.8548  0.1381  0.4247
  101MOL0     H13590   5.431   3.119   9.655  0.6396  1.8202 -0.5416
  101MOL0     H13591   5.548   3.301   9.764  0.5712 -0.1948  2.6660
  101MOL0     H13592   5.650   3.183   9.848 -0.2328 -0.2420  0.4808
  101MOL0     H13593   5.483   3.291   9.992 -0.9820  0.5131  0.9667
  101MOL0     H13594   5.474   3.109   9.985 -0.8187 -2.0569 -2.2828
  101MOL0     H13595   5.340   3.230  10.167  0.7272 -0.8940 -0.2292
  101MOL0     H13596   5.123   3.165  10.410  0.1224  0.7147  0.8796
  101MOL0     H13597   5.268   3.257  10.359 -0.3894 -0.8010  0.6063
  101MOL0     H13598   5.109   3.336  10.372  1.5630  1.7418 -1.6708
  101MOL0     H13599   4.663   3.035  10.385 -1.7507 -1.0613  0.4014
  101MOL0     H13600   4.447   3.015  10.463  0.5151  0.6426  0.4157
  101MOL0     H13601   4.196   3.017  10.522 -0.2176 -0.4817 -0.4339
  101MOL0     H13602   4.262   3.177  10.541  0.3142 -2.4331  1.0933
  101MOL0     H13603   4.021   3.186  10.601  0.3959  0.6535 -0.4681
  101MOL0     H13604   4.046   3.270  10.454  0.6989 -0.1258 -1.6073
  101MOL0     H13605   3.937   2.987  10.459  2.3437  0.3536  0.7937
  101MOL0     H13606   3.966   3.097  10.309 -0.7626  2.7764 -0.3949
  101MOL0     H13607   3.788   3.169  10.550 -0.0273 -1.0678  1.0510
  101MOL0     H13608   3.805   3.259  10.397  1.1976  0.4664 -0.6246
  101MOL0     H13609   3.685   2.986  10.434 -2.4106  0.9814  0.9847
  101MOL0     H13610   3.705   3.058  10.280  0.7412  0.0097 -0.0663
  101MOL0     H13611   3.532   3.149  10.501  0.6809 -1.7465  0.4487
  101MOL0     H13612   3.544   3.250  10.355 -2.3199 -0.9265 -2.8053
  101MOL0     H13613   3.443   2.967  10.390 -1.4118  1.3894  1.0128
  101MOL0     H13614   3.462   3.040  10.228  1.1236 -1.3318  0.1162
  101MOL0     H13615   3.228   3.074  10.292 -0.9475  1.7500  1.4448
  101MOL0     H13616   3.302   3.228  10.313 -2.7093 -0.7852 -1.9319
  101MOL0     H13617   4.303   3.242  10.128 -2.0920 -2.0197  1.4176
  101MOL0     H13618   4.548   3.296  10.068  0.9653  0.8417  0.9554
  101MOL0     H13619   4.886   3.164   9.964 -1.4571  1.5809  0.4400
  101MOL0     H13620   5.099   3.199   9.824  1.4212  1.2859  0.5714
  101MOL0     H13621   6.731   3.430   9.878 -2.9692 -0.3560  2.6795
  101MOL0     H13622   6.959   3.483   9.819 -0.0519  0.8370  0.3864
  101MOL0     H13623   7.393   3.429   9.832  3.2415 -1.1452 -1.7630
  101MOL0     H13624   7.622   3.464   9.773 -0.7860 -1.6480 -0.4553
  101MOL0     H13625   7.798   3.582   9.711  2.3960 -1.9665 -1.2749
  101MOL0     H13626   7.954   3.635   9.783  1.3925  0.0500  2.1139
  101MOL0     H13627   7.826   3.374   9.882 -0.9537  3.1110  3.5426
  101MOL0     H13628   7.988   3.428   9.910 -0.1100 -1.2225 -0.5288
  101MOL0     H13629   7.849   3.355   9.642  0.0110 -2.4030 -0.7990
  101MOL0     H13630   7.979   3.264   9.727  0.5252  0.7524  1.9616
  101MOL0     H13631   8.008   3.527   9.573 -0.8096  0.6879  2.2688
  101MOL0     H13632   8.065   3.360   9.545  1.2828 -0.8378  0.7267
  101MOL0     H13633   8.378   3.455   9.801  0.3553  0.3534 -1.3321
  101MOL0     H13634   7.673   3.690  10.141  1.4498 -2.4334  0.0436
  101MOL0     H13635   7.432   3.640  10.198 -2.6853 -1.0982 -0.8520
  102MOL0     O13636   5.196   7.448   5.626 -0.0435  0.3035  0.2002
  102MOL0     C13637   5.181   7.569   5.631 -0.0249 -1.1409 -0.5630
  102MOL0     O13638   5.268   7.658   5.573  0.5952 -0.6310  0.1481
  102MOL0     C13639   5.390   7.607   5.518  0.4038  0.6010  0.3697
  102MOL0     C13640   5.420   7.663   5.390 -0.6230 -0.6684 -0.8741
  102MOL0     C13641   5.536   7.617   5.321 -0.5120 -0.2211 -0.9481
  102MOL0     C13642   5.621   7.525   5.381  0.0802  1.0946  0.3814
  102MOL0     O13643   5.741   7.505   5.319 -0.1330  0.3923 -0.5924
  102MOL0     C13644   5.835   7.411   5.375  0.4694 -0.9571  0.4483
  102MOL0     C13645   5.973   7.455   5.333 -0.4319 -0.5834  0.0016
  102MOL0     C13646   6.016   7.596   5.381  0.3970 -0.4829  0.2187
  102MOL0     C13647   6.165   7.599   5.431 -0.0684  0.4878  0.1933
  102MOL0     C13648   6.277   7.561   5.334  0.0019  0.1422 -0.0296
  102MOL0     C13649   6.295   7.659   5.212  0.0351 -0.1403  0.4614
  102MOL0     C13650   6.417   7.602   5.127  0.1759 -0.6811 -0.4702
  102MOL0     C13651   6.436   7.689   4.997  0.4671  0.5074 -0.2177
  102MOL0     N13652   6.323   7.671   4.909 -0.0134  0.0204  1.1866
  102MOL0     C13653   6.253   7.779   4.851  0.5045  0.5400 -1.2315
  102MOL0     C13654   6.161   7.728   4.771  0.3363  0.2689  0.4743
  102MOL0     C13655   6.035   7.788   4.715  0.2409 -0.4423  0.3010
  102MOL0     C13656   5.927   7.826   4.815  0.0123 -0.1039 -0.0422
  102MOL0     C13657   5.872   7.709   4.897 -0.5242 -1.1503  0.1433
  102MOL0     C13658   5.752   7.753   4.992  0.4528 -0.5365  0.0945
  102MOL0     O13659   5.641   7.801   4.917 -0.0329 -0.0452  0.2730
  102MOL0     C13660   5.531   7.823   4.987 -0.2241  0.0190 -0.4681
  102MOL0     C13661   5.524   7.938   5.073 -0.4000  0.6259 -0.2131
  102MOL0     C13662   5.412   7.972   5.145 -0.1898  0.4698  0.4361
  102MOL0     C13663   5.398   8.096   5.226  0.2619  0.4184 -0.0647
  102MOL0     C13664   5.295   7.889   5.126  0.8752  0.0062  0.0867
  102MOL0     C13665   5.157   7.922   5.176 -0.1073  0.1968  0.2923
  102MOL0     O13666   5.050   7.849   5.131  0.3088  0.0473 -0.1605
  102MOL0     C13667   4.933   7.884   5.182  0.6575 -0.0160 -0.4142
  102MOL0     C13668   4.853   7.986   5.116  0.3889 -0.1423 -0.6722
  102MOL0     C13669   4.742   8.032   5.183  0.2268 -0.5406  1.3377
  102MOL0     C13670   4.705   7.981   5.303  0.0673 -1.0002 -0.3865
  102MOL0     O13671   4.588   8.029   5.358 -0.5133 -0.5267  0.5421
  102MOL0     C13672   4.556   8.005   5.495 -0.0937  0.5130  0.0538
  102MOL0     C13673   4.437   8.091   5.531 -0.0563  0.2414 -0.0163
  102MOL0     C13674   4.430   8.101   5.684  0.4784  0.3645 -0.1482
  102MOL0     C13675   4.287   8.149   5.734 -0.2851 -0.6385 -0.4683
  102MOL0     C13676   4.282   8.300   5.718 -0.0245  0.0762 -0.5498
  102MOL0     C13677   4.137   8.348   5.738 -0.0743  0.5708  0.0434
  102MOL0     C13678   4.134   8.501   5.723  0.1767  0.0739  0.3782
  102MOL0     C13679   3.998   8.551   5.772  0.4490 -0.7057  0.6555
  102MOL0    Cl13680   3.860   8.503   5.678 -0.1732 -0.1282  0.8998
  102MOL0     C13681   4.775   7.873   5.361  1.1566 -0.6247  0.2682
  102MOL0     C13682   4.885   7.832   5.305  0.0336  0.1975  0.1499
  102MOL0     O13683   5.148   8.003   5.270 -0.1423 -0.4246 -0.2266
  102MOL0     C13684   5.298   7.781   5.040 -0.3229 -0.7007 -0.5743
  102MOL0     C13685   5.411   7.751   4.955 -0.5319 -0.7658 -0.3142
  102MOL0     N13686   6.179   7.594   4.767 -0.5911 -0.2625  0.0470
  102MOL0     N13687   6.277   7.560   4.843  1.2057 -0.5068 -0.7142
  102MOL0     C13688   5.580   7.460   5.503 -1.0604  0.5095  0.1423
  102MOL0     C13689   5.466   7.507   5.576 -0.3258 -0.6786  0.9935
  102MOL0     C13690   5.062   7.616   5.695  0.6445 -0.1663  0.1128
  102MOL0     C13691   4.980   7.525   5.761 -0.4325 -0.6859  0.6849
  102MOL0     C13692   4.871   7.572   5.816  0.3631 -0.3486 -0.6228
  102MOL0     C13693   4.818   7.705   5.803 -1.1626 -0.2355  0.3242
  102MOL0     O13694   4.702   7.747   5.870 -0.1693  0.1272 -0.1035
  102MOL0     C13695   4.609   7.645   5.912  0.6308 -0.0802  0.3764
  102MOL0     C13696   4.475   7.705   5.939 -0.0563  0.9343  0.2780
  102MOL0     C13697   4.474   7.809   6.046 -0.4002 -0.5183  0.1116
  102MOL0     C13698   4.342   7.890   6.057  1.1958  0.2829 -0.1842
  102MOL0     C13699   4.249   7.844   6.156 -0.3542 -0.2863 -0.1562
  102MOL0     C13700   4.167   7.801   6.237 -0.1601 -0.8403 -0.6220
  102MOL0     C13701   4.901   7.795   5.735 -0.4829  0.9956  0.0664
  102MOL0     C13702   5.021   7.750   5.671 -0.5563  0.4586 -0.3054
  102MOL0     H13703   5.351   7.736   5.349 -0.6470 -0.4578 -0.4613
  102MOL0     H13704   5.565   7.667   5.229  0.9194 -2.9730 -2.0955
  102MOL0     H13705   5.835   7.390   5.482 -0.4009 -1.6535  0.3277
  102MOL0     H13706   5.814   7.314   5.330  0.3222 -0.3242 -0.9020
  102MOL0     H13707   6.051   7.389   5.372 -0.5698 -0.1285  1.0904
  102MOL0     H13708   5.979   7.447   5.225 -0.6333 -0.2859 -0.0340
  102MOL0     H13709   5.999   7.666   5.299 -1.4134  1.0475  1.7973
  102MOL0     H13710   5.950   7.620   5.465 -2.3778 -1.0216 -1.6526
  102MOL0     H13711   6.186   7.700   5.469  2.3152 -0.6216  2.0809
  102MOL0     H13712   6.177   7.537   5.520 -0.9377 -1.2261 -0.8307
  102MOL0     H13713   6.371   7.565   5.390  2.0311  0.5464 -3.2441
  102MOL0     H13714   6.269   7.459   5.298 -1.0345 -0.8613  2.7090
  102MOL0     H13715   6.200   7.648   5.159 -0.3057  0.3658  0.9541
  102MOL0     H13716   6.318   7.758   5.252  3.5735 -0.4708 -0.4054
  102MOL0     H13717   6.499   7.614   5.198 -0.3269 -1.2984  0.2450
  102MOL0     H13718   6.416   7.496   5.100 -0.0500 -1.1787  1.3772
  102MOL0     H13719   6.524   7.656   4.940 -1.0722  0.5370 -2.7736
  102MOL0     H13720   6.438   7.793   5.029 -2.8456  0.1523  1.5698
  102MOL0     H13721   6.270   7.877   4.894 -0.2531  0.1828 -0.0519
  102MOL0     H13722   6.058   7.882   4.664 -0.3079  0.2863  1.3753
  102MOL0     H13723   5.986   7.728   4.638 -1.5948  0.0944  1.0088
  102MOL0     H13724   5.842   7.869   4.762  1.3933  0.2729 -2.0738
  102MOL0     H13725   5.966   7.903   4.883  1.6328 -1.5920  0.8017
  102MOL0     H13726   5.946   7.666   4.966  0.0462  0.4202  0.5471
  102MOL0     H13727   5.841   7.626   4.832 -0.0278 -2.4036  1.4272
  102MOL0     H13728   5.781   7.833   5.061 -0.8611 -0.7104  0.8861
  102MOL0     H13729   5.717   7.676   5.061 -2.9985  1.0083  0.2813
  102MOL0     H13730   5.605   8.010   5.071 -0.8065  1.1432 -3.7506
  102MOL0     H13731   5.482   8.166   5.216 -0.4763  1.3548  0.1512
  102MOL0     H13732   5.315   8.163   5.206 -0.7914 -0.7566  0.2559
  102MOL0     H13733   5.388   8.059   5.329 -1.4941 -0.9314 -0.6787
  102MOL0     H13734   4.895   8.012   5.019 -0.2675 -0.8555 -1.1477
  102MOL0     H13735   4.678   8.105   5.136  0.8879 -1.8705 -1.8458
  102MOL0     H13736   4.518   7.902   5.501 -0.5883  0.5410 -2.0255
  102MOL0     H13737   4.644   8.015   5.559  0.2508 -2.1685  0.1168
  102MOL0     H13738   4.444   8.190   5.485 -2.2436 -0.3921 -1.9193
  102MOL0     H13739   4.342   8.044   5.502  0.1288 -1.4282  1.8694
  102MOL0     H13740   4.506   8.171   5.722  1.1531  0.2319 -1.2215
  102MOL0     H13741   4.447   8.005   5.732 -1.0362  0.7305  1.2046
  102MOL0     H13742   4.202   8.109   5.678 -2.3874  2.3894  0.2916
  102MOL0     H13743   4.264   8.125   5.838 -3.0941  0.0885 -0.8251
  102MOL0     H13744   4.313   8.325   5.617  1.3361  0.1431 -0.1318
  102MOL0     H13745   4.343   8.358   5.788  1.0293 -2.3605  0.6710
  102MOL0     H13746   4.068   8.306   5.665 -1.4207 -0.7337  1.9730
  102MOL0     H13747   4.099   8.322   5.838  2.1369 -1.0717  0.5129
  102MOL0     H13748   4.146   8.532   5.619  0.5416 -4.9364 -1.3437
  102MOL0     H13749   4.206   8.538   5.796  0.1288 -0.4243  0.6834
  102MOL0     H13750   3.997   8.660   5.760 -2.1210 -0.7413 -0.1443
  102MOL0     H13751   3.986   8.529   5.879  2.6013  2.0923  1.6170
  102MOL0     H13752   4.731   7.836   5.453 -1.4912  0.2555 -0.5532
  102MOL0     H13753   4.944   7.753   5.350  0.4504  0.3624 -0.0941
  102MOL0     H13754   5.207   7.721   5.038 -1.8028  1.3779  0.2961
  102MOL0     H13755   5.413   7.679   4.874 -1.1102 -1.3393  0.1772
  102MOL0     H13756   5.636   7.380   5.550 -0.0904 -0.8911 -3.0854
  102MOL0     H13757   5.431   7.446   5.658 -2.4673 -2.5749 -1.1540
  102MOL0     H13758   5.006   7.421   5.775 -1.2439 -0.5579  3.7281
  102MOL0     H13759   4.812   7.491   5.859 -2.3860  1.3971 -0.8413
  102MOL0     H13760   4.582   7.571   5.836 -2.2850  0.2861  0.9571
  102MOL0     H13761   4.643   7.583   5.995  1.3645  0.6151  0.6013
  102MOL0     H13762   4.408   7.620   5.956  2.1697 -1.5536 -2.3650
  102MOL0     H13763   4.449   7.753   5.845 -2.0128  2.6662  1.5961
  102MOL0     H13764   4.552   7.885   6.029  0.1765 -1.1960 -0.3267
  102MOL0     H13765   4.497   7.765   6.143 -1.8209 -2.4884 -0.3898
  102MOL0     H13766   4.293   7.894   5.959  2.0133 -0.4851 -0.6456
  102MOL0     H13767   4.371   7.994   6.072  1.5755  0.0793  0.5345
  102MOL0     H13768   4.099   7.771   6.315  1.6734  0.5108  1.6392
  102MOL0     H13769   4.887   7.902   5.735  1.8163  1.3575  0.9412
  102MOL0     H13770   5.083   7.826   5.625  0.6418 -0.0432  0.4392
  103MOL0     O13771   2.794   7.303   7.326 -0.4064 -0.3655 -0.1347
  103MOL0     C13772   2.839   7.326   7.213  0.2780 -0.2578  1.0179
  103MOL0     O13773   2.774   7.281   7.100 -0.1159 -0.0006  0.0320
  103MOL0     C13774   2.657   7.215   7.111 -0.3394  0.0023  0.4923
  103MOL0     C13775   2.540   7.282   7.147 -0.0939 -0.0036  0.3509
  103MOL0     C13776   2.422   7.212   7.183  0.9670 -0.4841 -0.5066
  103MOL0     C13777   2.405   7.077   7.151  0.0761  0.5622 -0.0828
  103MOL0     O13778   2.287   7.016   7.184  0.9502  0.1016  0.2997
  103MOL0     C13779   2.284   6.872   7.186 -0.9388 -0.5543 -0.9360
  103MOL0     C13780   2.231   6.800   7.061 -0.8047  0.4786  0.5794
  103MOL0     C13781   2.162   6.661   7.096  0.6253 -1.0194 -0.0841
  103MOL0     C13782   2.012   6.676   7.139  0.0924 -0.1358 -0.6120
  103MOL0     C13783   1.920   6.672   7.024  0.2108  0.1695  0.3083
  103MOL0     C13784   1.771   6.675   7.057  0.1778  0.0562  0.2064
  103MOL0     C13785   1.686   6.714   6.924  0.2700  0.0102  0.2014
  103MOL0     C13786   1.541   6.693   6.941  1.2280 -0.4785  0.2544
  103MOL0     N13787   1.478   6.763   6.833  0.4716 -0.5905 -0.2068
  103MOL0     C13788   1.401   6.874   6.842  0.2832 -0.1373 -0.2657
  103MOL0     C13789   1.343   6.888   6.719  0.6723  0.0407 -0.1236
  103MOL0     C13790   1.253   6.999   6.671 -0.3842 -0.2359 -0.1383
  103MOL0     C13791   1.110   6.947   6.630 -0.3450  0.1628  0.1852
  103MOL0     C13792   1.033   6.896   6.752 -0.3415  0.5586 -0.0993
  103MOL0     C13793   0.894   6.844   6.709 -0.0301 -0.8133  0.5583
  103MOL0     O13794   0.839   6.770   6.818 -0.4330 -0.8269  0.2328
  103MOL0     C13795   0.702   6.735   6.809 -0.1748  0.0876  0.9926
  103MOL0     C13796   0.646   6.655   6.909 -0.1391  0.6969 -0.5886
  103MOL0     C13797   0.508   6.624   6.925 -0.0749 -0.1182 -0.6172
  103MOL0     C13798   0.476   6.535   7.047  0.4370  0.0969 -0.5169
  103MOL0     C13799   0.410   6.676   6.828 -0.5159  0.3568 -0.2995
  103MOL0     C13800   0.265   6.654   6.830  0.0845  0.5218  0.0004
  103MOL0     O13801   0.191   6.730   6.747 -0.5946  0.0709  0.3140
  103MOL0     C13802   0.063   6.767   6.784 -0.8733 -0.5387  1.0476
  103MOL0     C13803   0.049   6.895   6.841  0.1514 -0.4106  0.3405
  103MOL0     C13804  -0.082   6.941   6.870 -0.5860  0.1789  0.7429
  103MOL0     C13805  -0.193   6.861   6.848  0.4553 -0.6763  0.0096
  103MOL0     O13806  -0.321   6.909   6.873  0.2424  0.5699 -0.5318
  103MOL0     C13807  -0.354   7.025   6.797  1.1482 -0.1788 -0.1531
  103MOL0     C13808  -0.506   7.030   6.776 -0.3734 -0.1644 -0.1930
  103MOL0     C13809  -0.548   7.124   6.666 -0.0810  0.3243  0.4096
  103MOL0     C13810  -0.691   7.095   6.626 -0.3336  0.0877 -0.0685
  103MOL0     C13811  -0.724   7.162   6.493  0.1801 -0.0079 -0.5384
  103MOL0     C13812  -0.757   7.315   6.507  0.4082  0.9402  0.4956
  103MOL0     C13813  -0.890   7.331   6.562 -0.7204  0.0189 -0.4993
  103MOL0     C13814  -0.949   7.473   6.550 -0.3248 -0.1387 -0.0657
  103MOL0    Cl13815  -0.863   7.604   6.632 -0.1115  0.2557 -0.1201
  103MOL0     C13816  -0.180   6.739   6.786  0.6900  1.3484 -0.2780
  103MOL0     C13817  -0.049   6.694   6.755  0.0724  0.3052  0.4097
  103MOL0     O13818   0.224   6.561   6.898  0.1271  0.2677 -0.2578
  103MOL0     C13819   0.466   6.752   6.724  0.1747  0.2654 -0.7435
  103MOL0     C13820   0.608   6.780   6.711 -0.2362 -0.1120  0.6321
  103MOL0     N13821   1.399   6.785   6.638 -0.4225 -0.1924  0.0659
  103MOL0     N13822   1.465   6.702   6.709  0.4882 -0.0652  0.2199
  103MOL0     C13823   2.511   7.014   7.090  0.1840  0.5321 -0.7246
  103MOL0     C13824   2.642   7.082   7.079 -0.0470  0.2896 -0.7576
  103MOL0     C13825   2.948   7.428   7.200 -0.3916 -0.0431  0.0732
  103MOL0     C13826   3.040   7.412   7.092 -0.7196 -0.3204 -0.2452
  103MOL0     C13827   3.160   7.484   7.087  0.6019 -0.4724 -0.1128
  103MOL0     C13828   3.171   7.588   7.185 -0.2753 -0.7306  0.7097
  103MOL0     O13829   3.299   7.659   7.188  0.4449  0.4899  0.5314
  103MOL0     C13830   3.305   7.791   7.243 -0.2214 -0.2463 -0.1509
  103MOL0     C13831   3.389   7.870   7.148  0.1487  0.4263  0.4647
  103MOL0     C13832   3.413   8.023   7.204  0.0497  0.3133  0.9506
  103MOL0     C13833   3.505   8.084   7.096 -0.0816 -0.1630 -0.1796
  103MOL0     C13834   3.636   8.023   7.099 -0.2077  0.3165  0.1598
  103MOL0     C13835   3.747   7.984   7.115  0.3582  0.0762  0.4188
  103MOL0     C13836   3.068   7.618   7.272 -0.5039  0.6980  0.5871
  103MOL0     C13837   2.967   7.525   7.292 -0.3098 -0.4771 -0.3031
  103MOL0     H13838   2.547   7.390   7.158 -0.5165  0.0600  0.0152
  103MOL0     H13839   2.333   7.261   7.222  1.2810 -1.4644  1.5739
  103MOL0     H13840   2.376   6.835   7.233 -1.6979  1.0634  2.1330
  103MOL0     H13841   2.209   6.849   7.263 -0.2085 -3.5515 -0.9945
  103MOL0     H13842   2.165   6.869   7.008 -1.9485  1.0655  2.6544
  103MOL0     H13843   2.314   6.785   6.991 -3.2475  0.7310 -2.6312
  103MOL0     H13844   2.172   6.586   7.017 -3.1960 -2.6253  0.7303
  103MOL0     H13845   2.212   6.621   7.185 -1.0050 -1.8062  0.5259
  103MOL0     H13846   1.994   6.589   7.204 -0.3799  0.4731  0.0942
  103MOL0     H13847   1.985   6.758   7.206  2.2386  1.2126 -1.2983
  103MOL0     H13848   1.948   6.753   6.956  1.2181 -0.5754 -0.1995
  103MOL0     H13849   1.941   6.583   6.962  0.1877 -0.0604  0.6279
  103MOL0     H13850   1.735   6.579   7.096  1.8701 -1.4788 -1.7691
  103MOL0     H13851   1.758   6.744   7.141 -0.0360  1.3145 -0.8240
  103MOL0     H13852   1.689   6.823   6.910 -3.3911  0.1429 -0.3315
  103MOL0     H13853   1.722   6.660   6.835 -1.8171 -2.9356  1.0332
  103MOL0     H13854   1.520   6.731   7.042  0.0490 -1.0403  0.2293
  103MOL0     H13855   1.505   6.591   6.933 -0.4459  0.1886 -1.3159
  103MOL0     H13856   1.410   6.936   6.931  1.6548 -0.6635 -0.0083
  103MOL0     H13857   1.248   7.079   6.746 -0.0394 -0.7891  0.4918
  103MOL0     H13858   1.289   7.044   6.579 -0.6013  3.3991  1.4044
  103MOL0     H13859   1.125   6.874   6.550  0.7221 -1.5958  1.8945
  103MOL0     H13860   1.057   7.034   6.589  1.4990 -0.3027 -3.6045
  103MOL0     H13861   1.034   6.982   6.819 -0.8861  1.2272 -0.9406
  103MOL0     H13862   1.091   6.815   6.798  1.0073  2.0552  0.9421
  103MOL0     H13863   0.909   6.781   6.621 -1.7307  2.6205 -2.4539
  103MOL0     H13864   0.823   6.922   6.682 -2.5153 -2.6719  1.2696
  103MOL0     H13865   0.705   6.617   6.992 -1.5417 -0.8459 -0.2299
  103MOL0     H13866   0.441   6.435   7.020  2.0055 -0.1409 -1.9015
  103MOL0     H13867   0.566   6.518   7.107 -0.5480 -0.7086  0.7759
  103MOL0     H13868   0.404   6.588   7.109 -0.3662 -0.1113 -1.2429
  103MOL0     H13869   0.138   6.955   6.856 -1.6815  2.7733 -0.6137
  103MOL0     H13870  -0.091   7.032   6.928 -0.6945  0.5195  0.1964
  103MOL0     H13871  -0.327   7.112   6.859  0.9675 -0.7759  0.7789
  103MOL0     H13872  -0.307   7.018   6.699 -1.9684 -0.2270 -1.7509
  103MOL0     H13873  -0.540   6.929   6.753  3.5685 -1.1324 -2.5929
  103MOL0     H13874  -0.550   7.058   6.872  0.2051  0.0746  0.0059
  103MOL0     H13875  -0.478   7.107   6.584  1.7505 -1.1700  2.1669
  103MOL0     H13876  -0.545   7.226   6.705 -0.7576  0.5496 -0.1135
  103MOL0     H13877  -0.700   6.986   6.619  1.5385 -0.0853 -0.4796
  103MOL0     H13878  -0.757   7.125   6.708  2.7212  1.8044  2.0071
  103MOL0     H13879  -0.808   7.101   6.459 -0.6852  1.0690 -0.3893
  103MOL0     H13880  -0.653   7.150   6.410  1.4900 -3.4585  0.9076
  103MOL0     H13881  -0.690   7.362   6.579 -0.3548  0.9797  1.1848
  103MOL0     H13882  -0.755   7.380   6.419 -1.2906  1.9848  1.1814
  103MOL0     H13883  -0.883   7.293   6.664 -1.7616 -2.1446 -1.1715
  103MOL0     H13884  -0.964   7.263   6.517  0.6153 -2.0530  0.3054
  103MOL0     H13885  -1.048   7.474   6.598  0.3657  0.0557  1.4203
  103MOL0     H13886  -0.955   7.492   6.443  0.8474  0.4816 -0.0307
  103MOL0     H13887  -0.265   6.676   6.762  0.6180  0.7845  1.3431
  103MOL0     H13888  -0.043   6.593   6.715 -1.8447  0.9766 -1.8378
  103MOL0     H13889   0.393   6.792   6.654 -0.7511 -1.9506 -1.1635
  103MOL0     H13890   0.631   6.841   6.624 -2.1975 -1.5318 -0.9973
  103MOL0     H13891   2.504   6.918   7.040 -3.4116  1.7212 -2.8873
  103MOL0     H13892   2.725   7.025   7.039 -0.7455 -1.4196  0.1167
  103MOL0     H13893   3.022   7.325   7.029 -0.5216 -1.0528  0.6894
  103MOL0     H13894   3.229   7.462   7.007  1.4923  0.2274  0.4438
  103MOL0     H13895   3.207   7.839   7.254 -1.0576 -2.2166  1.6294
  103MOL0     H13896   3.337   7.783   7.347  1.5714  1.5162 -0.5130
  103MOL0     H13897   3.338   7.870   7.051  0.7148 -0.3946  0.1625
  103MOL0     H13898   3.487   7.825   7.131  1.3295  2.9030  0.2133
  103MOL0     H13899   3.452   8.008   7.305 -0.2968 -1.0449  0.8951
  103MOL0     H13900   3.327   8.090   7.216  0.7971  1.1652  1.7968
  103MOL0     H13901   3.515   8.191   7.117 -2.2512 -0.0873  0.7704
  103MOL0     H13902   3.459   8.063   6.999 -0.3976  0.9192 -0.2701
  103MOL0     H13903   3.846   7.948   7.133  2.2413  3.7498 -1.4478
  103MOL0     H13904   3.073   7.701   7.341  0.3357  1.8244 -0.7740
  103MOL0     H13905   2.910   7.547   7.382  0.5465 -0.5703  0.2843
  104MOL0     O13906   4.196   2.280   7.591 -0.0672  0.0220  0.2150
  104MOL0     C13907   4.187   2.308   7.708 -1.0265 -0.0537 -0.8257
  104MOL0     O13908   4.081   2.353   7.775 -0.3746  0.0434 -0.4155
  104MOL0     C13909   3.952   2.355   7.722  0.6037  0.3208  0.0368
  104MOL0     C13910   3.892   2.241   7.650  0.1408  0.4456  0.7778
  104MOL0     C13911   3.764   2.256   7.597 -0.6013  0.0183  0.0771
  104MOL0     C13912   3.698   2.380   7.608 -0.1327 -0.4255  0.6703
  104MOL0     O13913   3.575   2.433   7.558 -0.5525 -0.3362 -0.1114
  104MOL0     C13914   3.460   2.349   7.522  0.5360  0.2593 -0.7893
  104MOL0     C13915   3.330   2.428   7.525 -0.2555 -0.6711 -0.6263
  104MOL0     C13916   3.300   2.507   7.401 -0.2102  0.3028  0.2226
  104MOL0     C13917   3.188   2.611   7.434  0.0936 -0.8086  1.1023
  104MOL0     C13918   3.158   2.694   7.302 -0.4209  0.0330  0.0169
  104MOL0     C13919   3.014   2.747   7.294  0.0087  0.0233 -0.0345
  104MOL0     C13920   3.000   2.877   7.379  0.4883  0.1476  0.6627
  104MOL0     C13921   2.872   2.954   7.357 -0.7451 -0.5819 -0.9224
  104MOL0     N13922   2.771   2.927   7.460  0.9142 -0.2389  0.3217
  104MOL0     C13923   2.657   2.851   7.434 -0.1507 -0.3123  0.9585
  104MOL0     C13924   2.620   2.806   7.556 -0.0630 -0.3826 -0.5976
  104MOL0     C13925   2.513   2.701   7.566 -0.2025 -0.5827 -0.5571
  104MOL0     C13926   2.530   2.623   7.699 -0.3263 -0.2916  0.2995
  104MOL0     C13927   2.404   2.529   7.714 -0.0203  0.3483  0.5117
  104MOL0     C13928   2.391   2.480   7.855 -0.0498 -0.1164  0.4143
  104MOL0     O13929   2.306   2.372   7.850 -0.0520 -0.2378  0.0642
  104MOL0     C13930   2.169   2.393   7.883 -0.6651  0.3701 -0.2112
  104MOL0     C13931   2.086   2.284   7.908  0.4624  0.1451  0.0778
  104MOL0     C13932   1.955   2.280   7.951  0.5783  0.4550  0.0065
  104MOL0     C13933   1.882   2.151   7.964 -0.3227 -0.0432 -0.1959
  104MOL0     C13934   1.885   2.403   7.956 -0.0971  0.1315 -0.2280
  104MOL0     C13935   1.743   2.424   7.993  0.2430  0.7207 -0.2412
  104MOL0     O13936   1.652   2.330   7.963  0.2204 -0.0726 -0.3281
  104MOL0     C13937   1.531   2.331   8.030 -0.1963  0.1943 -0.0072
  104MOL0     C13938   1.411   2.396   7.984 -0.4950 -0.5640 -0.5090
  104MOL0     C13939   1.298   2.385   8.053 -0.2041  0.1849 -0.3483
  104MOL0     C13940   1.294   2.323   8.175 -0.3798  0.1380 -0.3515
  104MOL0     O13941   1.179   2.325   8.245  1.4690 -0.4720 -0.5435
  104MOL0     C13942   1.133   2.208   8.306  0.3128  0.3022 -0.6113
  104MOL0     C13943   0.977   2.192   8.321  0.0798  0.8692  0.6113
  104MOL0     C13944   0.915   2.197   8.180  0.0705  0.7534  0.5844
  104MOL0     C13945   0.781   2.122   8.165 -0.2647  0.7020 -0.9844
  104MOL0     C13946   0.798   1.982   8.096 -0.5130  0.9315  0.0922
  104MOL0     C13947   0.669   1.900   8.094  0.0681 -0.6975  0.1591
  104MOL0     C13948   0.577   1.947   7.978  0.2643 -0.2625 -0.8159
  104MOL0     C13949   0.468   1.845   7.964 -0.3856 -0.6950 -0.7225
  104MOL0    Cl13950   0.343   1.900   7.844  0.0807 -0.1063  0.3875
  104MOL0     C13951   1.412   2.269   8.232  0.2774  0.3163  0.1426
  104MOL0     C13952   1.529   2.270   8.154 -0.0356  1.3211 -0.2956
  104MOL0     O13953   1.723   2.530   8.052  0.7899 -0.2964 -0.1347
  104MOL0     C13954   1.963   2.518   7.923  0.3906  0.1963  0.2136
  104MOL0     C13955   2.098   2.509   7.892 -0.6299 -0.1996  1.1221
  104MOL0     N13956   2.697   2.869   7.657  0.7088 -0.1948  0.0916
  104MOL0     N13957   2.781   2.944   7.596 -0.2192 -0.5907  0.6880
  104MOL0     C13958   3.756   2.476   7.691 -0.1301  0.3208  0.5321
  104MOL0     C13959   3.880   2.466   7.741 -0.6422 -0.3970 -0.2258
  104MOL0     C13960   4.313   2.290   7.785 -0.2009  0.4115  0.2620
  104MOL0     C13961   4.326   2.327   7.920  0.6288  0.3190  0.4495
  104MOL0     C13962   4.445   2.308   7.996 -0.3627  0.2038  0.3848
  104MOL0     C13963   4.557   2.230   7.938 -1.3153 -0.9470 -0.4825
  104MOL0     O13964   4.677   2.205   7.997 -0.1394  0.3088  0.0002
  104MOL0     C13965   4.706   2.226   8.138 -0.3879  0.6288  0.4369
  104MOL0     C13966   4.641   2.113   8.204  0.2858  0.3004  0.2129
  104MOL0     C13967   4.686   1.968   8.166 -0.1689  0.8757  0.0225
  104MOL0     C13968   4.662   1.879   8.281  0.6051 -0.2491  0.2841
  104MOL0     C13969   4.521   1.877   8.315  0.0782  0.4145  0.8596
  104MOL0     C13970   4.402   1.853   8.328 -0.1299  0.5811  0.3146
  104MOL0     C13971   4.545   2.207   7.806  0.7935 -0.2136  0.3103
  104MOL0     C13972   4.429   2.238   7.724 -0.7504  0.1759  0.3952
  104MOL0     H13973   3.950   2.156   7.616 -0.7701  0.5937 -1.2534
  104MOL0     H13974   3.724   2.178   7.533  0.1247 -0.5438  0.2880
  104MOL0     H13975   3.471   2.319   7.418  1.6043  0.0183 -0.6189
  104MOL0     H13976   3.456   2.266   7.594  0.0957  2.0175  1.3416
  104MOL0     H13977   3.239   2.374   7.551 -0.2599  0.4117  2.0040
  104MOL0     H13978   3.340   2.498   7.609 -1.6010 -1.6218  0.3631
  104MOL0     H13979   3.391   2.547   7.355 -0.0438 -1.0989 -0.7242
  104MOL0     H13980   3.274   2.427   7.331  2.1861 -0.7053  0.3671
  104MOL0     H13981   3.095   2.561   7.464  1.2666 -3.3912  0.7114
  104MOL0     H13982   3.226   2.678   7.511  1.8310  0.1330 -0.4936
  104MOL0     H13983   3.232   2.775   7.298 -0.3436  0.3099  3.8113
  104MOL0     H13984   3.172   2.629   7.215  1.0705 -1.3639  1.2545
  104MOL0     H13985   2.998   2.780   7.191 -0.7181  3.0469  0.9529
  104MOL0     H13986   2.937   2.671   7.309 -0.2236  0.5200  1.4454
  104MOL0     H13987   3.005   2.851   7.485 -0.7187 -0.7470  0.5233
  104MOL0     H13988   3.079   2.950   7.362 -0.3878  1.0138  0.1951
  104MOL0     H13989   2.829   2.935   7.258  0.3253  1.6675 -1.8727
  104MOL0     H13990   2.897   3.060   7.358  0.3080 -0.7765  1.8032
  104MOL0     H13991   2.621   2.820   7.336  2.5168 -0.0102 -0.1924
  104MOL0     H13992   2.413   2.745   7.563  0.1486  1.1953  4.0914
  104MOL0     H13993   2.527   2.622   7.492 -0.0281  1.2010 -2.5206
  104MOL0     H13994   2.532   2.684   7.790  0.9957  1.6646 -0.9788
  104MOL0     H13995   2.620   2.562   7.702 -1.2100 -1.6225  1.2311
  104MOL0     H13996   2.413   2.444   7.647 -1.4054  0.9860 -0.5439
  104MOL0     H13997   2.304   2.571   7.694 -1.4461 -3.7123 -2.0624
  104MOL0     H13998   2.358   2.559   7.924  1.2077 -0.3143  1.2776
  104MOL0     H13999   2.489   2.449   7.891 -0.1097  0.3953  1.0396
  104MOL0     H14000   2.151   2.198   7.894  1.5608  0.9057  0.3752
  104MOL0     H14001   1.959   2.073   7.960  1.4044  1.6609 -2.5222
  104MOL0     H14002   1.833   2.148   8.062  1.3780 -3.0799  0.6987
  104MOL0     H14003   1.808   2.140   7.885 -1.6493  1.9612  0.6800
  104MOL0     H14004   1.404   2.438   7.885 -0.3811 -2.5993 -1.4450
  104MOL0     H14005   1.207   2.431   8.014  0.3123  0.1389 -1.6921
  104MOL0     H14006   1.181   2.120   8.260  0.3430  0.4650 -0.8942
  104MOL0     H14007   1.174   2.207   8.407  3.1235 -3.2276 -1.5446
  104MOL0     H14008   0.949   2.097   8.366 -1.9982 -0.6111 -3.3014
  104MOL0     H14009   0.935   2.270   8.386 -2.1966  0.2613 -0.0337
  104MOL0     H14010   0.991   2.169   8.108  0.3186 -1.7721  1.7341
  104MOL0     H14011   0.893   2.304   8.167 -0.9243  0.5332  0.3871
  104MOL0     H14012   0.736   2.125   8.265  0.0918  0.6438 -0.8226
  104MOL0     H14013   0.721   2.188   8.102 -0.6731 -0.3066 -1.6805
  104MOL0     H14014   0.879   1.930   8.147 -0.0019  2.4146  0.8677
  104MOL0     H14015   0.825   2.004   7.993 -0.3805  0.1402 -0.0444
  104MOL0     H14016   0.689   1.793   8.081 -1.4804 -0.9804 -0.0177
  104MOL0     H14017   0.621   1.922   8.190 -3.5010  0.5024 -1.7341
  104MOL0     H14018   0.630   1.961   7.884 -0.8988  0.2385 -1.4134
  104MOL0     H14019   0.530   2.042   8.005  3.2231  0.9546  0.4509
  104MOL0     H14020   0.423   1.846   8.064  2.2944  0.7569  0.5864
  104MOL0     H14021   0.503   1.743   7.946 -2.7879 -2.2211  2.1938
  104MOL0     H14022   1.401   2.218   8.327 -0.1920  2.5046  1.3359
  104MOL0     H14023   1.619   2.232   8.201 -0.9754  0.1889  0.6733
  104MOL0     H14024   1.923   2.618   7.910  2.7308  0.9097 -2.6961
  104MOL0     H14025   2.149   2.605   7.882  0.6983 -0.9778  0.2534
  104MOL0     H14026   3.695   2.566   7.694 -1.3314 -0.2069 -3.1652
  104MOL0     H14027   3.911   2.557   7.792 -2.0186 -0.0397 -0.0008
  104MOL0     H14028   4.245   2.376   7.973  1.7344 -0.1600  2.7232
  104MOL0     H14029   4.439   2.346   8.098 -1.1593  0.3824  0.2797
  104MOL0     H14030   4.814   2.208   8.139 -0.3804  0.1882 -2.2098
  104MOL0     H14031   4.671   2.321   8.180 -0.9321 -0.1218  1.7286
  104MOL0     H14032   4.532   2.126   8.196  0.2960  0.5549  0.4481
  104MOL0     H14033   4.657   2.134   8.311  0.0391 -0.8092  0.4803
  104MOL0     H14034   4.786   1.941   8.130 -0.8836 -0.7070 -0.8979
  104MOL0     H14035   4.620   1.934   8.085  1.2730 -1.3716 -0.2865
  104MOL0     H14036   4.713   1.922   8.368 -1.5364  2.1683  0.4715
  104MOL0     H14037   4.708   1.780   8.280 -1.8864 -1.5075  1.5136
  104MOL0     H14038   4.296   1.838   8.328  0.2464 -2.9916 -0.9532
  104MOL0     H14039   4.631   2.167   7.753  0.9809  1.2135 -0.5297
  104MOL0     H14040   4.432   2.214   7.618 -1.3424 -1.6279  0.7550
  105MOL0     O14041   4.272   2.384  10.204 -0.0881  0.2485  0.8076
  105MOL0     C14042   4.303   2.361  10.085 -0.5552 -0.4342 -0.8822
  105MOL0     O14043   4.219   2.353   9.978  0.2333 -0.0083 -0.0654
  105MOL0     C14044   4.085   2.327  10.008 -0.0288 -0.2832  0.2489
  105MOL0     C14045   3.980   2.406   9.960  0.3783 -0.4384  0.0928
  105MOL0     C14046   3.849   2.361   9.985  0.8245  0.2695  0.0630
  105MOL0     C14047   3.818   2.250  10.067 -0.0778 -0.5048  0.0624
  105MOL0     O14048   3.685   2.224  10.101 -0.3176 -0.5316 -0.7323
  105MOL0     C14049   3.649   2.160  10.224 -0.3354 -0.7003 -0.9080
  105MOL0     C14050   3.492   2.147  10.216 -1.1334  0.0002  0.4896
  105MOL0     C14051   3.446   2.046  10.116 -0.4638 -0.0314  0.6432
  105MOL0     C14052   3.458   2.101   9.966 -0.7556 -0.7234 -0.3086
  105MOL0     C14053   3.346   2.036   9.889 -0.6104  0.6403 -0.1440
  105MOL0     C14054   3.381   2.061   9.737 -0.4932  0.4111  0.3660
  105MOL0     C14055   3.276   1.985   9.649 -0.1735  0.3614 -0.6773
  105MOL0     C14056   3.281   2.029   9.494 -0.1170  0.3830 -0.1971
  105MOL0     N14057   3.271   2.168   9.465  0.3808 -0.3469 -0.0811
  105MOL0     C14058   3.162   2.248   9.494  0.4390 -0.2400 -1.2754
  105MOL0     C14059   3.182   2.363   9.447  0.2397 -0.8512  0.7574
  105MOL0     C14060   3.094   2.490   9.440  0.0896  0.6471 -0.3488
  105MOL0     C14061   2.963   2.470   9.519 -0.3713 -0.2377  0.1344
  105MOL0     C14062   2.867   2.593   9.508 -0.2833  0.6922  0.2404
  105MOL0     C14063   2.895   2.708   9.613 -0.8022 -0.2085  0.0347
  105MOL0     O14064   2.802   2.819   9.609  0.3995 -0.2293  0.4629
  105MOL0     C14065   2.685   2.816   9.685  0.7793 -0.4896 -0.3649
  105MOL0     C14066   2.615   2.935   9.681  0.3993 -0.2432  0.6645
  105MOL0     C14067   2.497   2.951   9.750  0.4634 -0.3552 -0.8138
  105MOL0     C14068   2.430   3.087   9.723 -0.6366 -0.1210 -0.0360
  105MOL0     C14069   2.434   2.838   9.818  0.0808  0.2792  0.5808
  105MOL0     C14070   2.305   2.835   9.889  0.1528 -0.7349 -0.1038
  105MOL0     O14071   2.271   2.717   9.949  0.8783 -0.4225  0.3154
  105MOL0     C14072   2.147   2.688  10.010 -0.4123 -0.3356  0.8747
  105MOL0     C14073   2.029   2.727   9.945 -0.0066 -0.0066  0.8868
  105MOL0     C14074   1.910   2.721  10.002  0.1014 -0.2032 -0.3978
  105MOL0     C14075   1.895   2.680  10.139 -0.5274  0.6646 -0.2070
  105MOL0     O14076   1.771   2.692  10.185  0.6355 -0.1188  0.3651
  105MOL0     C14077   1.728   2.617  10.301 -0.1803  0.2585  0.8891
  105MOL0     C14078   1.663   2.483  10.264  0.4083  0.1064  0.1711
  105MOL0     C14079   1.531   2.509  10.178 -0.1131 -0.0948  0.4452
  105MOL0     C14080   1.443   2.378  10.156 -0.4918 -0.1103 -0.9722
  105MOL0     C14081   1.297   2.402  10.136  0.3996 -0.1845 -0.6333
  105MOL0     C14082   1.262   2.451   9.995  0.3124 -0.2187  0.2741
  105MOL0     C14083   1.111   2.483   9.974 -0.5377  0.5870 -0.7003
  105MOL0     C14084   1.021   2.358   9.972 -0.4906  0.4658  0.1530
  105MOL0    Cl14085   0.860   2.431   9.962  0.0858  0.0110 -0.0135
  105MOL0     C14086   2.016   2.640  10.208  0.2253 -0.3224 -0.3899
  105MOL0     C14087   2.134   2.645  10.141 -0.5689 -0.2723 -0.2127
  105MOL0     O14088   2.240   2.938   9.892 -0.3202 -0.0088  0.4115
  105MOL0     C14089   2.510   2.710   9.817 -0.0851 -0.1051 -0.1215
  105MOL0     C14090   2.634   2.704   9.748  0.2605  0.7511  0.0728
  105MOL0     N14091   3.297   2.357   9.370 -0.6799 -0.0701 -0.8820
  105MOL0     N14092   3.358   2.244   9.389  0.3389  0.8224 -0.2791
  105MOL0     C14093   3.920   2.170  10.106  0.5721 -0.5608 -0.7740
  105MOL0     C14094   4.056   2.208  10.087  0.6654 -0.6688 -0.3465
  105MOL0     C14095   4.450   2.355  10.058  0.2603  0.3174 -0.2739
  105MOL0     C14096   4.547   2.369  10.158 -0.3443  0.1421 -0.3269
  105MOL0     C14097   4.682   2.362  10.137 -0.1152  0.7694  0.0887
  105MOL0     C14098   4.724   2.335  10.014  0.2046  0.2134 -0.2077
  105MOL0     O14099   4.854   2.316   9.969 -0.4267  0.2306  0.1950
  105MOL0     C14100   4.957   2.391  10.040  0.0233  0.0996  0.6613
  105MOL0     C14101   5.038   2.313  10.140 -0.5592  0.6050  0.1108
  105MOL0     C14102   5.186   2.360  10.139  0.3381  0.0377 -0.0670
  105MOL0     C14103   5.245   2.312  10.275 -0.9611  0.3296  0.3851
  105MOL0     C14104   5.374   2.374  10.288 -0.1162 -0.6826  0.1214
  105MOL0     C14105   5.471   2.444  10.298 -1.0918 -0.0797 -0.4464
  105MOL0     C14106   4.629   2.317   9.914  0.6900 -0.0142  0.1102
  105MOL0     C14107   4.495   2.333   9.932  0.0878  0.5802  0.0706
  105MOL0     H14108   4.003   2.496   9.904  3.0741  0.5580  2.5057
  105MOL0     H14109   3.761   2.419   9.958  0.5214 -0.8726 -1.5754
  105MOL0     H14110   3.687   2.058  10.238 -3.9048 -1.7492  3.5627
  105MOL0     H14111   3.672   2.214  10.316  0.5513 -0.8706 -1.0168
  105MOL0     H14112   3.464   2.115  10.317 -3.4382  1.8233  0.5233
  105MOL0     H14113   3.442   2.243  10.201  1.8487  1.4356 -1.3596
  105MOL0     H14114   3.502   1.952  10.123 -1.6567 -0.8713 -0.5739
  105MOL0     H14115   3.346   2.008  10.138 -0.0126 -0.5716  1.8188
  105MOL0     H14116   3.443   2.209   9.977 -1.1356 -0.7733 -0.3158
  105MOL0     H14117   3.557   2.082   9.924  1.1530  2.4985  2.1965
  105MOL0     H14118   3.353   1.929   9.913 -1.2378  0.4946 -0.5851
  105MOL0     H14119   3.245   2.065   9.918 -1.4896 -1.0175 -1.3419
  105MOL0     H14120   3.374   2.168   9.712 -0.0410  0.6629  1.2725
  105MOL0     H14121   3.481   2.026   9.711  0.2961  2.4708  0.3838
  105MOL0     H14122   3.296   1.878   9.658 -1.1072  0.0920 -1.5282
  105MOL0     H14123   3.172   1.993   9.682 -0.1586 -1.5188 -0.1067
  105MOL0     H14124   3.204   1.973   9.441 -1.7844 -1.4408  3.7070
  105MOL0     H14125   3.374   1.997   9.447  0.1316  0.4577  0.2393
  105MOL0     H14126   3.081   2.218   9.559 -0.1049 -0.5228 -2.0743
  105MOL0     H14127   3.144   2.575   9.487 -0.2514 -0.4200  2.0746
  105MOL0     H14128   3.071   2.507   9.334 -1.5485  0.8612  0.0132
  105MOL0     H14129   2.979   2.446   9.624 -1.8611 -2.0631 -0.0071
  105MOL0     H14130   2.917   2.381   9.475  0.6884 -1.1516  0.8276
  105MOL0     H14131   2.772   2.553   9.544  0.7411 -2.7829 -0.5411
  105MOL0     H14132   2.861   2.628   9.405  5.4053 -1.9942 -1.3810
  105MOL0     H14133   2.994   2.750   9.594 -1.5833  1.0152 -1.6962
  105MOL0     H14134   2.895   2.667   9.714 -6.8443  1.7609  1.2097
  105MOL0     H14135   2.654   3.013   9.616  1.8406 -0.6085  1.0564
  105MOL0     H14136   2.509   3.161   9.712 -0.2945 -0.2526  1.3684
  105MOL0     H14137   2.375   3.080   9.628 -1.1877 -1.4108  0.3486
  105MOL0     H14138   2.365   3.103   9.810  1.3403 -2.8235  2.1371
  105MOL0     H14139   2.027   2.750   9.839 -2.3594 -3.0709  0.1058
  105MOL0     H14140   1.830   2.754   9.937 -1.5765  3.3964  3.0658
  105MOL0     H14141   1.809   2.602  10.374  0.0852 -0.9464  0.3776
  105MOL0     H14142   1.651   2.677  10.350 -0.6570 -2.1417  3.3390
  105MOL0     H14143   1.734   2.428  10.202 -0.1034  0.6638 -0.9325
  105MOL0     H14144   1.634   2.436  10.358 -2.9983  1.5659  0.0007
  105MOL0     H14145   1.560   2.547  10.080  0.3752  1.6881  1.2348
  105MOL0     H14146   1.467   2.580  10.231 -0.6611  1.2045 -1.8204
  105MOL0     H14147   1.480   2.325  10.067  1.9823  0.7763 -0.5622
  105MOL0     H14148   1.463   2.305  10.235  0.3209 -0.4836 -1.4995
  105MOL0     H14149   1.266   2.472  10.214  1.9806 -1.8571  1.6466
  105MOL0     H14150   1.250   2.303  10.143  2.1034 -1.0191 -0.2763
  105MOL0     H14151   1.321   2.539   9.967  0.3195 -0.9271 -2.1800
  105MOL0     H14152   1.300   2.381   9.920  0.8127  1.6611 -1.3339
  105MOL0     H14153   1.100   2.546   9.886 -0.4167  0.7994 -0.5652
  105MOL0     H14154   1.080   2.544  10.060 -0.5595 -1.5898  0.9493
  105MOL0     H14155   1.024   2.300  10.065  2.1800 -0.2244 -0.2844
  105MOL0     H14156   1.040   2.291   9.888 -0.4746 -0.6355  1.0097
  105MOL0     H14157   1.999   2.595  10.306 -2.5015 -0.9198 -1.0625
  105MOL0     H14158   2.220   2.607  10.195 -0.1078 -1.8430 -1.9379
  105MOL0     H14159   2.471   2.616   9.856  2.1615 -1.1009 -0.1198
  105MOL0     H14160   2.682   2.607   9.736 -1.1177 -0.2517  2.1168
  105MOL0     H14161   3.895   2.093  10.178 -2.1630  2.4175  1.7956
  105MOL0     H14162   4.136   2.156  10.137 -0.8600 -1.8953  0.9074
  105MOL0     H14163   4.523   2.381  10.263 -0.2118 -1.8206 -0.0312
  105MOL0     H14164   4.751   2.365  10.221  0.9742 -1.0727 -0.6700
  105MOL0     H14165   5.024   2.427   9.961 -0.6611  0.9370  0.4511
  105MOL0     H14166   4.916   2.479  10.090  1.3518  0.0512  1.9094
  105MOL0     H14167   5.039   2.208  10.108 -1.0114  0.5112  0.3904
  105MOL0     H14168   5.000   2.311  10.242  1.5385  3.6727  1.0809
  105MOL0     H14169   5.183   2.470  10.140 -0.2999  0.0184  0.5806
  105MOL0     H14170   5.236   2.320  10.051  2.3766 -2.3474  2.0199
  105MOL0     H14171   5.260   2.204  10.273  2.8639  0.7040  1.2048
  105MOL0     H14172   5.188   2.342  10.364  0.2249  2.7801  0.4111
  105MOL0     H14173   5.567   2.493  10.300  0.1976 -2.4792 -0.0663
  105MOL0     H14174   4.685   2.305   9.821  1.4867  1.0463  0.4256
  105MOL0     H14175   4.428   2.337   9.846  1.8972  0.5945 -1.4135
  106MOL0     O14176   1.683   9.229  11.221  0.1961 -0.8211  0.3567
  106MOL0     C14177   1.753   9.218  11.117 -0.5501  0.3817  0.0007
  106MOL0     O14178   1.717   9.181  10.994  0.4845  0.2640  0.2224
  106MOL0     C14179   1.585   9.143  10.983  0.3550 -1.2321  0.2766
  106MOL0     C14180   1.493   9.241  10.978  0.6710  0.1792 -0.4449
  106MOL0     C14181   1.359   9.218  10.986 -0.9029 -0.2249 -0.5345
  106MOL0     C14182   1.306   9.090  10.988 -0.5097  0.3044  0.1235
  106MOL0     O14183   1.168   9.076  10.990 -0.1495 -0.7004  0.6634
  106MOL0     C14184   1.114   8.952  10.952 -0.0591  0.0089  1.0749
  106MOL0     C14185   0.964   8.962  10.952  0.3777 -0.2918 -0.2812
  106MOL0     C14186   0.904   9.030  10.821  0.2603  0.4773  0.2355
  106MOL0     C14187   0.753   9.036  10.839 -0.1168  0.2282 -0.4266
  106MOL0     C14188   0.697   9.068  10.699 -0.2119  0.7841 -0.3641
  106MOL0     C14189   0.562   9.135  10.709  0.5573  0.3506 -0.1776
  106MOL0     C14190   0.448   9.054  10.787  0.2608  0.1661 -0.0647
  106MOL0     C14191   0.434   8.916  10.726 -1.0852  0.0265 -0.7894
  106MOL0     N14192   0.304   8.860  10.740 -1.0156 -0.7984  0.7200
  106MOL0     C14193   0.275   8.762  10.837  0.6193 -0.4965 -0.1095
  106MOL0     C14194   0.137   8.741  10.828  0.5110 -0.2660  0.1825
  106MOL0     C14195   0.052   8.651  10.923 -0.0296 -0.7442  0.1364
  106MOL0     C14196  -0.098   8.635  10.880 -0.2865 -1.0725 -0.2664
  106MOL0     C14197  -0.182   8.761  10.862 -0.0753  0.5016  0.7061
  106MOL0     C14198  -0.318   8.730  10.802 -0.7382 -0.5255  0.3953
  106MOL0     O14199  -0.401   8.674  10.893  0.4915  0.3529 -0.5863
  106MOL0     C14200  -0.522   8.629  10.850  0.2040 -0.0271 -0.3098
  106MOL0     C14201  -0.609   8.562  10.941 -0.0338 -0.2012 -0.4037
  106MOL0     C14202  -0.742   8.514  10.903  0.1968  0.3076  0.3984
  106MOL0     C14203  -0.812   8.449  11.012 -0.0425  0.5081  0.2501
  106MOL0     C14204  -0.782   8.529  10.760  0.2922  0.0457  0.2500
  106MOL0     C14205  -0.906   8.479  10.704  0.5362  0.1955  0.2915
  106MOL0     O14206  -0.970   8.376  10.772  0.1533 -0.0636  0.0571
  106MOL0     C14207  -1.091   8.337  10.721  0.3190 -0.5360  0.2773
  106MOL0     C14208  -1.103   8.239  10.616 -0.2850  0.2806 -1.0827
  106MOL0     C14209  -1.224   8.214  10.555 -0.0402 -0.4894 -0.2133
  106MOL0     C14210  -1.340   8.290  10.580 -0.3834  0.3063  0.1650
  106MOL0     O14211  -1.459   8.273  10.513  0.5761 -0.3890  0.5500
  106MOL0     C14212  -1.466   8.313  10.372 -0.1146 -0.4713  0.9544
  106MOL0     C14213  -1.593   8.261  10.300 -0.1075 -0.4381 -0.1824
  106MOL0     C14214  -1.615   8.103  10.305  0.0229 -0.0343 -0.4439
  106MOL0     C14215  -1.529   8.037  10.200  0.0976  0.2307  0.8360
  106MOL0     C14216  -1.514   7.881  10.212  0.3393 -0.6970  0.4345
  106MOL0     C14217  -1.641   7.809  10.191  0.9309  0.0754 -0.4764
  106MOL0     C14218  -1.633   7.660  10.199  0.3758  1.4123  0.0165
  106MOL0     C14219  -1.769   7.583  10.196 -0.6585 -0.5080 -0.1542
  106MOL0    Cl14220  -1.872   7.629  10.333 -0.0043  0.0288  0.2101
  106MOL0     C14221  -1.328   8.393  10.679 -0.2751  0.2290 -0.2955
  106MOL0     C14222  -1.209   8.412  10.750 -0.0857  0.4083  0.2731
  106MOL0     O14223  -0.944   8.535  10.601  0.4791  0.3161 -0.7594
  106MOL0     C14224  -0.700   8.606  10.680 -0.4840 -0.3759 -0.5655
  106MOL0     C14225  -0.574   8.658  10.725 -0.4842  1.0517 -0.7528
  106MOL0     N14226   0.090   8.821  10.729  0.1105  0.0784  0.0911
  106MOL0     N14227   0.187   8.889  10.674  1.2359 -0.7099 -0.5835
  106MOL0     C14228   1.399   8.990  10.996 -0.2939 -0.1430  0.3048
  106MOL0     C14229   1.535   9.014  11.001  0.7431  0.4179  0.3691
  106MOL0     C14230   1.894   9.261  11.136 -0.5880  0.3401 -0.0074
  106MOL0     C14231   1.998   9.203  11.056 -0.3124 -0.0999  0.0007
  106MOL0     C14232   2.126   9.261  11.059 -0.1469  0.2446 -0.2293
  106MOL0     C14233   2.160   9.367  11.148  1.1840 -0.3169  0.8060
  106MOL0     O14234   2.287   9.414  11.165 -0.1195 -0.3606 -0.4313
  106MOL0     C14235   2.397   9.324  11.173 -0.0378  0.2973  0.5017
  106MOL0     C14236   2.520   9.401  11.236 -0.3688  0.5142 -0.1289
  106MOL0     C14237   2.663   9.359  11.201  0.3942 -0.5736  0.1139
  106MOL0     C14238   2.765   9.452  11.256 -0.5907 -1.0494 -0.2513
  106MOL0     C14239   2.892   9.384  11.252 -0.6565 -0.1657  0.9307
  106MOL0     C14240   3.001   9.333  11.251 -0.7892  0.4126  0.1033
  106MOL0     C14241   2.053   9.427  11.220  0.5355  0.3789 -0.4885
  106MOL0     C14242   1.922   9.370  11.217 -1.0251 -0.6377  0.9863
  106MOL0     H14243   1.527   9.344  10.970 -1.4421  0.8475 -1.3615
  106MOL0     H14244   1.290   9.301  10.998  0.5657  1.5704 -3.4835
  106MOL0     H14245   1.152   8.924  10.853  2.4010  0.8234  1.7179
  106MOL0     H14246   1.145   8.880  11.029 -1.1481 -1.5088  0.1691
  106MOL0     H14247   0.926   8.860  10.960  1.4250 -0.7638 -1.0245
  106MOL0     H14248   0.938   9.021  11.040 -0.7963  0.2622 -0.9807
  106MOL0     H14249   0.945   9.129  10.799  1.1390  1.0575  3.8160
  106MOL0     H14250   0.919   8.952  10.745 -1.7079 -0.0074  0.2750
  106MOL0     H14251   0.722   8.941  10.884  1.9330 -0.5314 -0.5385
  106MOL0     H14252   0.732   9.119  10.907  0.1840 -0.1385  0.1162
  106MOL0     H14253   0.765   9.126  10.635  2.4047 -0.9843  0.6158
  106MOL0     H14254   0.687   8.977  10.638  1.0083  0.5245 -0.2034
  106MOL0     H14255   0.573   9.240  10.738 -1.3601  1.7842 -3.8783
  106MOL0     H14256   0.529   9.156  10.607 -0.0127  0.8635  0.1031
  106MOL0     H14257   0.480   9.045  10.891  0.8620 -1.8450 -0.3640
  106MOL0     H14258   0.350   9.101  10.781  0.8423  1.4747  0.5527
  106MOL0     H14259   0.501   8.843  10.774 -1.2386  0.8988  0.8097
  106MOL0     H14260   0.465   8.930  10.622  1.8985  0.9911  0.1197
  106MOL0     H14261   0.341   8.710  10.904 -1.8268 -1.5140  1.6318
  106MOL0     H14262   0.089   8.548  10.926  1.9099 -0.1150 -0.8043
  106MOL0     H14263   0.057   8.688  11.026  3.2750  0.7676 -0.4579
  106MOL0     H14264  -0.145   8.583  10.964 -0.9906 -0.1951 -0.0985
  106MOL0     H14265  -0.119   8.574  10.791 -1.9250 -0.1076 -0.5804
  106MOL0     H14266  -0.147   8.834  10.788 -3.9809  1.4374 -0.4965
  106MOL0     H14267  -0.198   8.819  10.953 -1.9408  2.7081 -0.9038
  106MOL0     H14268  -0.306   8.675  10.709  2.4069 -0.4947  0.6890
  106MOL0     H14269  -0.353   8.830  10.774  2.6580  0.9584  1.0102
  106MOL0     H14270  -0.576   8.557  11.045 -2.9390  3.8075  0.9561
  106MOL0     H14271  -0.791   8.514  11.098 -2.2401  0.0504  1.2032
  106MOL0     H14272  -0.920   8.449  10.991 -0.0570 -0.0786  0.3125
  106MOL0     H14273  -0.781   8.349  11.041  0.6899  0.9553  1.0530
  106MOL0     H14274  -1.014   8.179  10.603  0.8825  1.3404  1.2638
  106MOL0     H14275  -1.226   8.139  10.476  0.6135  2.6878 -3.4938
  106MOL0     H14276  -1.467   8.422  10.373 -1.6291 -0.4536  0.2339
  106MOL0     H14277  -1.386   8.264  10.315 -1.1203 -0.3339 -0.6314
  106MOL0     H14278  -1.678   8.303  10.355 -0.7090 -2.5011  0.5674
  106MOL0     H14279  -1.594   8.304  10.200  0.7825  0.9204  0.3605
  106MOL0     H14280  -1.720   8.083  10.282  0.1329 -0.2900 -0.7281
  106MOL0     H14281  -1.591   8.061  10.403 -0.8724  0.1809 -0.1236
  106MOL0     H14282  -1.569   8.078  10.107 -1.1752 -0.9247  0.8508
  106MOL0     H14283  -1.423   8.065  10.209 -0.1925  1.1359  1.5192
  106MOL0     H14284  -1.468   7.859  10.309  1.4459  2.0584  0.6456
  106MOL0     H14285  -1.449   7.857  10.127  1.1597  2.8050 -0.1184
  106MOL0     H14286  -1.690   7.837  10.285  2.1918  0.0569  0.2082
  106MOL0     H14287  -1.700   7.845  10.106  0.5649  0.3078 -0.1275
  106MOL0     H14288  -1.575   7.619  10.281 -0.9387 -0.9635 -0.1551
  106MOL0     H14289  -1.571   7.630  10.114 -0.8774 -0.1337 -0.4012
  106MOL0     H14290  -1.752   7.475  10.184  1.4266  0.0185 -2.5832
  106MOL0     H14291  -1.814   7.606  10.099 -0.9902 -1.5444 -0.2676
  106MOL0     H14292  -1.416   8.447  10.711 -0.5478 -1.7785  2.7301
  106MOL0     H14293  -1.199   8.491  10.824  2.8708  0.1173  0.2887
  106MOL0     H14294  -0.713   8.637  10.577  0.8580  0.4545 -0.5127
  106MOL0     H14295  -0.530   8.730  10.657  0.1250  3.5032  2.0479
  106MOL0     H14296   1.372   8.887  11.017 -2.9990  0.4804  0.2318
  106MOL0     H14297   1.607   8.932  11.005 -0.5492 -0.7388  1.0516
  106MOL0     H14298   1.977   9.121  10.988  0.8090  0.1138 -0.6221
  106MOL0     H14299   2.208   9.218  11.003 -1.8206 -0.7011 -2.0556
  106MOL0     H14300   2.383   9.234  11.235  2.1489  0.8357  1.8573
  106MOL0     H14301   2.420   9.286  11.073 -1.9551 -1.1834  0.5463
  106MOL0     H14302   2.520   9.383  11.344  2.7448 -2.1298 -0.4318
  106MOL0     H14303   2.509   9.508  11.219  2.3955  0.5513 -2.4196
  106MOL0     H14304   2.679   9.357  11.093  1.0467 -2.4464  0.2097
  106MOL0     H14305   2.683   9.261  11.246  0.7060 -0.1760  0.8570
  106MOL0     H14306   2.748   9.489  11.357  0.0665  4.4092 -1.8489
  106MOL0     H14307   2.781   9.539  11.191 -1.0859 -0.2194  0.7194
  106MOL0     H14308   3.092   9.277  11.247 -1.9970 -1.6448  0.1090
  106MOL0     H14309   2.063   9.512  11.286  0.4201  0.7494 -0.9465
  106MOL0     H14310   1.849   9.425  11.275 -0.4743  0.7341  0.4145
  107MOL0     O14311   1.675   8.213   6.704  0.4272  0.3826  0.7243
  107MOL0     C14312   1.672   8.326   6.759 -0.0133  0.5424 -0.2947
  107MOL0     O14313   1.564   8.375   6.831  0.7312  0.9038  0.2315
  107MOL0     C14314   1.447   8.304   6.831 -0.6855  1.2828  0.2289
  107MOL0     C14315   1.353   8.316   6.725 -0.1296 -0.0731  1.3168
  107MOL0     C14316   1.224   8.253   6.737 -0.2922 -0.5866  1.1144
  107MOL0     C14317   1.187   8.189   6.854 -0.2538 -0.0485  0.2784
  107MOL0     O14318   1.063   8.140   6.876  0.6080  0.2939 -0.3394
  107MOL0     C14319   0.949   8.179   6.798  0.3559  0.5331  0.5854
  107MOL0     C14320   0.833   8.168   6.901  0.4167 -0.8295  0.8607
  107MOL0     C14321   0.696   8.225   6.852  0.8033 -0.5274 -0.3860
  107MOL0     C14322   0.577   8.199   6.947 -0.4585  0.3167  0.1034
  107MOL0     C14323   0.454   8.279   6.909  0.3538 -0.1688 -0.2069
  107MOL0     C14324   0.325   8.246   6.984 -0.3308  0.1411 -0.4219
  107MOL0     C14325   0.351   8.241   7.136  0.3747 -0.2348  0.0453
  107MOL0     C14326   0.220   8.208   7.214  0.0334 -0.3641 -0.4915
  107MOL0     N14327   0.226   8.211   7.359  0.4673 -0.1002  0.1574
  107MOL0     C14328   0.271   8.120   7.444 -0.1574 -0.6047 -0.3765
  107MOL0     C14329   0.253   8.172   7.568  0.0224 -0.2117 -0.4178
  107MOL0     C14330   0.289   8.102   7.700  0.0826 -0.0008  0.7092
  107MOL0     C14331   0.152   8.045   7.744 -0.1358  0.3284 -0.9357
  107MOL0     C14332   0.157   7.956   7.866 -0.7664 -0.0391 -0.9015
  107MOL0     C14333   0.014   7.912   7.907  0.0054 -0.0239 -0.4809
  107MOL0     O14334   0.018   7.884   8.051 -0.3595 -0.1449  0.1838
  107MOL0     C14335  -0.093   7.844   8.121  0.7058 -0.4700 -0.7889
  107MOL0     C14336  -0.230   7.868   8.068 -0.5407 -0.3622  0.2266
  107MOL0     C14337  -0.334   7.838   8.142  0.4608 -0.8043 -1.0388
  107MOL0     C14338  -0.470   7.836   8.078 -0.3437  0.0287  0.7276
  107MOL0     C14339  -0.330   7.806   8.285 -0.7542 -0.3982 -0.6752
  107MOL0     C14340  -0.441   7.780   8.380 -0.6351  0.7796  0.3996
  107MOL0     O14341  -0.419   7.684   8.476 -0.9035  0.1250  0.3435
  107MOL0     C14342  -0.529   7.642   8.549  0.5836 -1.0605 -0.6854
  107MOL0     C14343  -0.656   7.607   8.490 -0.1404  0.4301  0.4410
  107MOL0     C14344  -0.761   7.547   8.564 -0.2378 -0.5123  0.6306
  107MOL0     C14345  -0.735   7.523   8.703  0.1111 -0.5227  0.3329
  107MOL0     O14346  -0.833   7.459   8.781 -0.1751 -0.3883  0.3377
  107MOL0     C14347  -0.960   7.414   8.722 -0.2208 -1.0569 -0.5629
  107MOL0     C14348  -1.066   7.518   8.741  0.4568  0.1219  0.6149
  107MOL0     C14349  -1.209   7.484   8.703  0.3194 -0.7920 -1.1790
  107MOL0     C14350  -1.301   7.577   8.775  0.2263 -0.0512  0.9568
  107MOL0     C14351  -1.446   7.563   8.736  0.7227 -0.2734 -0.0332
  107MOL0     C14352  -1.510   7.430   8.764  0.3236  0.9538  0.3045
  107MOL0     C14353  -1.646   7.421   8.693  0.4291 -0.4516  0.1420
  107MOL0     C14354  -1.704   7.283   8.726  0.3174 -0.1800 -0.0114
  107MOL0    Cl14355  -1.762   7.251   8.886 -0.0603 -0.1434 -0.3366
  107MOL0     C14356  -0.616   7.563   8.762 -0.1527  0.2999 -0.4030
  107MOL0     C14357  -0.510   7.621   8.686 -0.0992 -0.1677  0.4292
  107MOL0     O14358  -0.550   7.840   8.355 -0.0979  0.3568  0.0349
  107MOL0     C14359  -0.203   7.798   8.338  0.4572 -0.0403 -0.5992
  107MOL0     C14360  -0.085   7.807   8.255  0.8434  0.1085  0.8733
  107MOL0     N14361   0.185   8.291   7.555 -0.2177 -0.9304  0.1275
  107MOL0     N14362   0.178   8.316   7.433  0.0614  0.0552 -0.0213
  107MOL0     C14363   1.287   8.176   6.958  0.5039 -0.6296  1.1284
  107MOL0     C14364   1.419   8.218   6.934  0.2059  0.2203 -0.3756
  107MOL0     C14365   1.797   8.409   6.738  0.2036 -0.6086 -0.4131
  107MOL0     C14366   1.880   8.384   6.630  0.0933 -0.4192 -1.0299
  107MOL0     C14367   1.995   8.459   6.606 -0.5815  0.7302  0.0339
  107MOL0     C14368   2.031   8.560   6.693  0.0162  0.1006  0.0430
  107MOL0     O14369   2.128   8.657   6.678 -0.1746  0.4735 -0.7374
  107MOL0     C14370   2.229   8.642   6.583  0.5276  0.2060  0.6525
  107MOL0     C14371   2.328   8.527   6.612  0.1943  0.5827  0.1859
  107MOL0     C14372   2.412   8.568   6.744 -0.9251  0.2241  0.3793
  107MOL0     C14373   2.537   8.664   6.716  0.6095 -0.8338 -0.5871
  107MOL0     C14374   2.623   8.679   6.836 -0.1051  1.0053 -0.1338
  107MOL0     C14375   2.704   8.702   6.920  0.3610 -0.1536  0.5849
  107MOL0     C14376   1.948   8.583   6.803  0.4869  1.2408 -0.3377
  107MOL0     C14377   1.825   8.511   6.832 -0.3393  0.3794  0.4225
  107MOL0     H14378   1.385   8.367   6.634 -0.2080  0.8630  1.7952
  107MOL0     H14379   1.165   8.256   6.646 -1.0730 -1.1766  1.5887
  107MOL0     H14380   0.964   8.276   6.751 -2.9977  1.1982  0.6312
  107MOL0     H14381   0.927   8.112   6.715 -0.2785  0.8731  0.4699
  107MOL0     H14382   0.813   8.066   6.934 -1.5444 -0.3702  1.2374
  107MOL0     H14383   0.857   8.226   6.990 -0.0141  2.2087 -0.8668
  107MOL0     H14384   0.706   8.332   6.830 -0.3809 -0.3792 -0.2523
  107MOL0     H14385   0.671   8.192   6.751 -3.4174  4.3103 -1.3801
  107MOL0     H14386   0.549   8.093   6.946  0.5350 -0.0009 -2.3387
  107MOL0     H14387   0.616   8.225   7.045  2.5210 -1.0265 -0.6444
  107MOL0     H14388   0.490   8.379   6.932  0.9800 -0.2757 -0.6960
  107MOL0     H14389   0.431   8.274   6.802 -2.1027  2.6783  0.0615
  107MOL0     H14390   0.250   8.324   6.970 -0.7537 -0.0024  0.9071
  107MOL0     H14391   0.283   8.151   6.948 -0.4881 -0.1276  0.4518
  107MOL0     H14392   0.413   8.154   7.161  0.0389 -1.0820 -1.9039
  107MOL0     H14393   0.395   8.331   7.180 -1.8255  0.5284  0.8292
  107MOL0     H14394   0.176   8.111   7.187  2.0569 -1.2814 -0.7073
  107MOL0     H14395   0.147   8.283   7.182  1.4560  0.3718 -2.1981
  107MOL0     H14396   0.323   8.027   7.422  1.0523 -0.1855  0.5394
  107MOL0     H14397   0.351   8.018   7.669 -2.8950 -1.4232 -2.1015
  107MOL0     H14398   0.328   8.179   7.767 -1.1575 -1.0797  2.7632
  107MOL0     H14399   0.107   7.996   7.657 -0.2932  0.1830 -0.7725
  107MOL0     H14400   0.082   8.125   7.768 -3.4786 -2.1566 -1.6032
  107MOL0     H14401   0.199   8.009   7.951  0.4167 -0.3693 -1.2651
  107MOL0     H14402   0.229   7.874   7.861  1.3925  1.6504  0.9145
  107MOL0     H14403  -0.014   7.828   7.843  1.1734  1.2368 -2.7936
  107MOL0     H14404  -0.065   7.987   7.893  0.0209  0.3303  1.1595
  107MOL0     H14405  -0.237   7.904   7.966  0.4888 -1.2871 -0.1969
  107MOL0     H14406  -0.519   7.927   8.112  2.0563  0.8418  2.3221
  107MOL0     H14407  -0.459   7.846   7.970  2.5925 -0.2451  0.9132
  107MOL0     H14408  -0.538   7.751   8.091 -0.0144 -0.7321 -1.8938
  107MOL0     H14409  -0.686   7.619   8.387 -0.2199  0.7097  0.4988
  107MOL0     H14410  -0.850   7.531   8.505  2.1122  0.7615 -3.7158
  107MOL0     H14411  -0.951   7.384   8.617  1.0062 -1.6857 -0.2944
  107MOL0     H14412  -0.995   7.327   8.778  0.6185  0.0330  1.7733
  107MOL0     H14413  -1.063   7.543   8.847 -0.1547 -2.0560  1.2023
  107MOL0     H14414  -1.039   7.609   8.686  0.5648  0.4363  1.1732
  107MOL0     H14415  -1.230   7.380   8.728 -0.3354 -0.6565 -1.1567
  107MOL0     H14416  -1.227   7.498   8.596 -1.6602  3.0756 -0.5094
  107MOL0     H14417  -1.298   7.571   8.885 -0.1577  2.4413  1.1640
  107MOL0     H14418  -1.277   7.679   8.744 -2.6336  0.1523 -1.0354
  107MOL0     H14419  -1.455   7.583   8.629 -1.3806 -1.5028 -0.1363
  107MOL0     H14420  -1.513   7.636   8.783  1.0286 -0.3640  0.5558
  107MOL0     H14421  -1.445   7.346   8.736 -0.7211  0.2756 -0.1321
  107MOL0     H14422  -1.526   7.424   8.872  0.6191 -0.3196  0.2932
  107MOL0     H14423  -1.626   7.425   8.585 -0.5095 -0.5720 -0.0383
  107MOL0     H14424  -1.707   7.507   8.723  1.9785  1.1434 -1.0637
  107MOL0     H14425  -1.625   7.211   8.705  1.6953  0.4712  2.4693
  107MOL0     H14426  -1.783   7.268   8.652  2.6503  1.5342 -3.0486
  107MOL0     H14427  -0.614   7.562   8.870  0.2589 -1.0755 -0.4091
  107MOL0     H14428  -0.417   7.647   8.736 -1.7803  3.4711  2.0569
  107MOL0     H14429  -0.192   7.763   8.440 -0.8345 -1.1844 -0.8304
  107MOL0     H14430   0.014   7.809   8.301  0.3032 -0.2434  2.0995
  107MOL0     H14431   1.259   8.114   7.043 -1.3767  0.1209  1.1202
  107MOL0     H14432   1.492   8.194   7.010  0.3793  1.6922 -0.0385
  107MOL0     H14433   1.869   8.309   6.553 -1.2333 -0.3431 -0.9426
  107MOL0     H14434   2.050   8.449   6.513 -0.8283  3.1138 -0.4217
  107MOL0     H14435   2.175   8.623   6.490  1.1423 -0.1813  0.3742
  107MOL0     H14436   2.268   8.744   6.585  0.4726  0.3015 -1.3256
  107MOL0     H14437   2.405   8.508   6.536 -0.1612  0.8816 -0.2535
  107MOL0     H14438   2.281   8.431   6.630  1.8950 -0.3868 -0.3337
  107MOL0     H14439   2.456   8.478   6.787 -1.2995 -0.6580 -1.0435
  107MOL0     H14440   2.344   8.617   6.814 -0.6907 -0.4536  1.0962
  107MOL0     H14441   2.510   8.767   6.692  0.1884 -0.0079  2.8712
  107MOL0     H14442   2.601   8.620   6.639  3.0875 -3.1140  2.4719
  107MOL0     H14443   2.784   8.715   6.991 -0.8626  1.3442  1.7684
  107MOL0     H14444   1.975   8.660   6.875 -1.6026  2.3654 -0.6836
  107MOL0     H14445   1.766   8.523   6.923  1.6547  1.1268  1.6802
  108MOL0     O14446   1.525   8.432   9.421 -0.2807 -0.0566 -0.0089
  108MOL0     C14447   1.549   8.436   9.301  0.6411 -0.0581  0.7077
  108MOL0     O14448   1.459   8.418   9.200 -0.5162  0.1234  0.4671
  108MOL0     C14449   1.345   8.350   9.218  0.2200 -0.9017 -0.0681
  108MOL0     C14450   1.342   8.213   9.210  0.1619 -0.2518  0.2556
  108MOL0     C14451   1.216   8.150   9.238 -0.0645  0.9931  0.3897
  108MOL0     C14452   1.111   8.225   9.284 -0.1994  0.7589 -0.6503
  108MOL0     O14453   0.991   8.165   9.308  0.0559 -0.4532 -0.1953
  108MOL0     C14454   0.914   8.175   9.182 -0.9009 -0.2856 -0.5611
  108MOL0     C14455   0.768   8.193   9.222 -0.0310  0.1701  0.0287
  108MOL0     C14456   0.736   8.321   9.311  0.7112 -0.1279  0.4500
  108MOL0     C14457   0.587   8.309   9.337 -0.4336 -0.6089  0.0596
  108MOL0     C14458   0.507   8.425   9.394  0.0750 -0.0487  0.0295
  108MOL0     C14459   0.380   8.370   9.458  0.1049 -0.2657 -0.7818
  108MOL0     C14460   0.278   8.326   9.348 -0.7134  0.7149  0.3378
  108MOL0     C14461   0.156   8.265   9.416  0.6747 -0.0660  0.7479
  108MOL0     N14462   0.086   8.177   9.321 -0.4269 -0.7686 -0.0125
  108MOL0     C14463  -0.043   8.193   9.266 -0.4802 -0.4315 -0.4738
  108MOL0     C14464  -0.059   8.088   9.180 -0.0816 -0.4419  0.4390
  108MOL0     C14465  -0.175   8.074   9.089 -0.3996 -0.1147 -0.5317
  108MOL0     C14466  -0.218   7.926   9.078 -0.0534  0.0583 -0.1406
  108MOL0     C14467  -0.314   7.910   8.963 -0.5551  0.1473 -0.6352
  108MOL0     C14468  -0.454   7.975   8.976 -0.0809 -0.1884  0.4590
  108MOL0     O14469  -0.560   7.906   8.910  0.4453  0.2504  0.7122
  108MOL0     C14470  -0.686   7.959   8.913  0.3099 -0.2338  0.2641
  108MOL0     C14471  -0.765   7.928   8.796 -0.7383  0.3571 -0.1189
  108MOL0     C14472  -0.899   7.943   8.788  0.1395 -0.0856  0.3512
  108MOL0     C14473  -0.958   7.924   8.648  0.4552  0.1672  0.9831
  108MOL0     C14474  -0.971   7.992   8.903  0.2342  0.0306 -0.4363
  108MOL0     C14475  -1.119   8.019   8.907 -0.4973  0.2927  0.0947
  108MOL0     O14476  -1.198   7.945   8.826  0.2335  0.0113  1.1905
  108MOL0     C14477  -1.336   7.971   8.820 -0.5967  0.1851 -0.3432
  108MOL0     C14478  -1.389   7.960   8.692 -0.4064  0.5711 -0.3190
  108MOL0     C14479  -1.526   7.962   8.671 -0.1196  0.9160  0.1801
  108MOL0     C14480  -1.616   7.983   8.782  0.1241 -0.1846  0.2367
  108MOL0     O14481  -1.755   7.991   8.764  0.3463 -0.1170 -0.1888
  108MOL0     C14482  -1.823   7.881   8.706 -0.1658  0.5002 -0.3237
  108MOL0     C14483  -1.814   7.749   8.792  0.0445 -0.4666  0.4309
  108MOL0     C14484  -1.892   7.758   8.921  0.7548  0.0324  0.4754
  108MOL0     C14485  -1.895   7.623   8.995 -0.2018 -0.0231 -0.7360
  108MOL0     C14486  -1.942   7.629   9.141  0.2819 -0.1514  0.5173
  108MOL0     C14487  -1.942   7.481   9.197  0.3412  0.0688 -0.7514
  108MOL0     C14488  -1.969   7.471   9.347 -1.2378 -0.0282  0.4444
  108MOL0     C14489  -1.983   7.332   9.408  0.7129  0.2684  0.0677
  108MOL0    Cl14490  -1.865   7.228   9.335  0.0794  0.0645  0.0465
  108MOL0     C14491  -1.564   7.981   8.906  0.4596  0.1123 -0.3630
  108MOL0     C14492  -1.428   7.976   8.931 -0.5287  0.2387  0.0487
  108MOL0     O14493  -1.155   8.115   8.972 -0.0166 -0.2966 -0.1309
  108MOL0     C14494  -0.899   8.016   9.020 -0.6660  0.8854 -0.8663
  108MOL0     C14495  -0.760   8.003   9.026 -0.5329  0.8040 -0.0498
  108MOL0     N14496   0.053   8.010   9.193 -0.6019  0.5317  0.4085
  108MOL0     N14497   0.134   8.057   9.282  0.0274  0.7533 -0.5024
  108MOL0     C14498   1.119   8.360   9.313  0.2889  0.2753  0.6906
  108MOL0     C14499   1.239   8.428   9.271  0.0799  0.0742  0.2917
  108MOL0     C14500   1.686   8.480   9.256  0.7284 -0.1059  0.8368
  108MOL0     C14501   1.798   8.470   9.330 -0.0564 -0.3167  0.0634
  108MOL0     C14502   1.916   8.520   9.283  0.0363 -0.0959  0.2362
  108MOL0     C14503   1.923   8.584   9.158  0.1326 -0.0866 -0.1284
  108MOL0     O14504   2.046   8.638   9.131 -0.2228  0.1486  0.3588
  108MOL0     C14505   2.076   8.683   9.003  0.4612  0.3581 -0.1502
  108MOL0     C14506   2.228   8.710   8.993  0.5190 -0.3493 -0.7212
  108MOL0     C14507   2.250   8.766   8.856  0.3488 -0.3987  0.1411
  108MOL0     C14508   2.392   8.817   8.846  0.4835 -0.1562  0.2370
  108MOL0     C14509   2.422   8.822   8.699 -0.2908 -0.4363 -0.3609
  108MOL0     C14510   2.464   8.803   8.587  0.3599 -0.1134  0.4903
  108MOL0     C14511   1.810   8.593   9.073  0.7774  0.8517  0.4391
  108MOL0     C14512   1.694   8.532   9.128 -0.5824 -0.4112  0.8130
  108MOL0     H14513   1.431   8.159   9.179  0.5239 -0.9552  2.3975
  108MOL0     H14514   1.198   8.043   9.234 -0.2220  1.0251  0.2404
  108MOL0     H14515   0.949   8.263   9.127  2.5719 -0.9763  0.2872
  108MOL0     H14516   0.933   8.088   9.119 -0.4935  1.6868 -3.3737
  108MOL0     H14517   0.703   8.191   9.134 -0.6713  0.3156  0.4901
  108MOL0     H14518   0.755   8.103   9.282  0.3124  0.3233  0.3368
  108MOL0     H14519   0.783   8.318   9.409 -1.7640 -1.1796  1.6976
  108MOL0     H14520   0.767   8.414   9.262  2.5708 -1.5566 -1.2620
  108MOL0     H14521   0.534   8.288   9.243  0.6195  1.5191 -1.0806
  108MOL0     H14522   0.584   8.226   9.408 -0.5026 -0.0337  0.7445
  108MOL0     H14523   0.546   8.481   9.479  0.8452  1.7547 -1.4305
  108MOL0     H14524   0.488   8.496   9.313  0.0371 -1.6856 -1.4595
  108MOL0     H14525   0.403   8.289   9.528  1.1282  1.1408  0.5899
  108MOL0     H14526   0.335   8.447   9.521  0.0800  0.3942 -1.5928
  108MOL0     H14527   0.252   8.414   9.288 -1.5843  0.9178  0.9895
  108MOL0     H14528   0.322   8.254   9.278 -2.2348  1.6429 -1.6964
  108MOL0     H14529   0.092   8.347   9.452 -2.4491 -1.3737 -1.3488
  108MOL0     H14530   0.184   8.207   9.503  2.3277 -2.0927 -1.0150
  108MOL0     H14531  -0.111   8.275   9.284  0.5769  0.1018  1.3950
  108MOL0     H14532  -0.256   8.118   9.147  1.2681 -0.4144  2.1518
  108MOL0     H14533  -0.167   8.130   8.995  0.1541 -0.4741 -0.7060
  108MOL0     H14534  -0.252   7.887   9.174  1.1847 -0.0165  0.2780
  108MOL0     H14535  -0.132   7.865   9.049  0.1251  0.4604 -0.4645
  108MOL0     H14536  -0.339   7.806   8.944 -3.1739  0.6316 -0.2443
  108MOL0     H14537  -0.263   7.947   8.874 -0.6745  2.2499  0.1104
  108MOL0     H14538  -0.452   8.071   8.922 -4.5003 -0.9908 -1.5397
  108MOL0     H14539  -0.482   8.010   9.075 -1.9999 -2.5324  0.8086
  108MOL0     H14540  -0.723   7.889   8.703  0.2999  0.1495  0.4269
  108MOL0     H14541  -0.878   7.936   8.574 -0.3374 -1.8400 -0.2911
  108MOL0     H14542  -0.995   7.821   8.638  1.0211  0.1643 -1.8758
  108MOL0     H14543  -1.043   7.991   8.632 -0.9433 -1.8383 -0.4808
  108MOL0     H14544  -1.334   7.968   8.599 -1.6283  0.6862 -1.0503
  108MOL0     H14545  -1.547   7.954   8.565  2.0686  1.1319 -0.3315
  108MOL0     H14546  -1.925   7.909   8.679  0.4665  2.1357 -1.1552
  108MOL0     H14547  -1.783   7.854   8.607  0.6205  0.1364  0.0820
  108MOL0     H14548  -1.864   7.671   8.734  0.3507 -0.3012 -0.0554
  108MOL0     H14549  -1.713   7.710   8.809 -0.0054 -1.0279 -0.4903
  108MOL0     H14550  -1.995   7.789   8.900  1.0916  1.2776  0.6135
  108MOL0     H14551  -1.847   7.826   8.993  1.4943 -2.2595  2.3169
  108MOL0     H14552  -1.964   7.559   8.939  0.6076 -2.3144  0.7320
  108MOL0     H14553  -1.798   7.572   8.993 -0.6873 -0.9421 -1.1875
  108MOL0     H14554  -2.041   7.674   9.147  0.9778  1.3418  1.3678
  108MOL0     H14555  -1.876   7.699   9.193 -1.8836  0.9530  1.9344
  108MOL0     H14556  -2.027   7.432   9.149  0.3046  0.3824 -1.0183
  108MOL0     H14557  -1.847   7.433   9.172  1.2627  0.1559  2.1993
  108MOL0     H14558  -2.063   7.528   9.354 -1.0072  1.2685 -4.0232
  108MOL0     H14559  -1.883   7.525   9.388 -2.0621  0.9543  0.9327
  108MOL0     H14560  -2.081   7.286   9.392  0.7247 -0.3957  1.6772
  108MOL0     H14561  -1.975   7.327   9.517  0.7624 -0.4040  0.0430
  108MOL0     H14562  -1.631   7.977   8.992  4.6634  2.7488  3.4816
  108MOL0     H14563  -1.386   7.968   9.030  2.6483  0.4755 -1.1670
  108MOL0     H14564  -0.954   8.042   9.110  0.0062  2.3595 -0.8447
  108MOL0     H14565  -0.707   8.015   9.120 -0.9052 -1.3521  0.4927
  108MOL0     H14566   1.032   8.415   9.345 -1.1353 -0.4317 -1.7138
  108MOL0     H14567   1.239   8.535   9.291 -2.0536  0.0245  0.7308
  108MOL0     H14568   1.791   8.442   9.435 -1.3990  1.3249  0.4474
  108MOL0     H14569   2.009   8.529   9.339  0.2345  0.4293 -0.1705
  108MOL0     H14570   2.047   8.602   8.936  1.1415  0.4057 -0.4996
  108MOL0     H14571   2.017   8.774   8.983  0.3299  0.7998  1.9507
  108MOL0     H14572   2.279   8.614   9.007  2.4146  0.7497  0.2364
  108MOL0     H14573   2.247   8.780   9.074  0.2041 -2.3472  1.1848
  108MOL0     H14574   2.171   8.838   8.830  0.2542  0.3875  2.4020
  108MOL0     H14575   2.241   8.691   8.777 -1.9788  0.1011 -0.1402
  108MOL0     H14576   2.452   8.740   8.895 -0.0367 -1.6926 -1.4322
  108MOL0     H14577   2.396   8.914   8.896 -2.2978  0.6783 -0.9575
  108MOL0     H14578   2.484   8.784   8.484 -1.0381  1.2094 -0.0683
  108MOL0     H14579   1.803   8.630   8.971 -2.6683  1.5694  0.8097
  108MOL0     H14580   1.607   8.534   9.063  0.5119 -0.7352 -0.7114
  109MOL0     O14581   6.411   1.135   0.041  1.2889 -0.2234  0.1420
  109MOL0     C14582   6.381   1.056  -0.043  0.1782 -0.6336  0.1262
  109MOL0     O14583   6.469   0.972  -0.102 -0.0818  0.0550 -0.4305
  109MOL0     C14584   6.566   0.920  -0.020 -0.5296 -0.2551  0.3239
  109MOL0     C14585   6.547   0.802   0.055 -0.2197  0.0505  0.7483
  109MOL0     C14586   6.649   0.739   0.126  0.4242 -0.4194  0.1311
  109MOL0     C14587   6.773   0.807   0.135 -0.0027 -1.2204  0.2398
  109MOL0     O14588   6.871   0.752   0.223  0.0342  0.0455 -0.3381
  109MOL0     C14589   6.987   0.826   0.250  0.0218  0.2488  0.2382
  109MOL0     C14590   7.031   0.770   0.386 -0.9179  0.2277 -0.2853
  109MOL0     C14591   7.060   0.618   0.382 -0.4063 -0.2635  0.4821
  109MOL0     C14592   7.094   0.562   0.521  0.1240 -0.8037 -0.0857
  109MOL0     C14593   6.957   0.528   0.584 -0.7908  0.3363  0.8642
  109MOL0     C14594   6.973   0.487   0.729  0.3535  0.1564 -0.1090
  109MOL0     C14595   6.838   0.441   0.780 -0.2858  0.4732 -0.5900
  109MOL0     C14596   6.845   0.357   0.913  0.9178  0.2362  0.0799
  109MOL0     N14597   6.720   0.294   0.924 -0.0865  0.5179 -0.2704
  109MOL0     C14598   6.693   0.168   0.885 -0.3651  0.1327 -0.7322
  109MOL0     C14599   6.558   0.153   0.887 -0.3735  0.1694  0.3224
  109MOL0     C14600   6.489   0.012   0.853 -0.0153 -0.8704 -0.0401
  109MOL0     C14601   6.363   0.017   0.767 -0.5658 -0.3101 -0.2368
  109MOL0     C14602   6.386   0.096   0.642  0.2673  1.0234 -0.2205
  109MOL0     C14603   6.242   0.101   0.566 -0.2050 -0.5367 -0.5974
  109MOL0     O14604   6.140   0.172   0.641  0.5907  0.8995 -0.8334
  109MOL0     C14605   6.011   0.177   0.586  0.8506  0.4067  0.8892
  109MOL0     C14606   5.974   0.116   0.462 -0.2538 -0.4304  0.0707
  109MOL0     C14607   5.843   0.144   0.404 -0.2301  0.6349  0.0370
  109MOL0     C14608   5.816   0.077   0.276  0.9457  0.1968  0.8776
  109MOL0     C14609   5.759   0.233   0.463  0.8243 -0.0096  0.0675
  109MOL0     C14610   5.628   0.274   0.402  0.7081  0.5527 -0.4124
  109MOL0     O14611   5.617   0.294   0.271  0.1596  0.0899  0.3073
  109MOL0     C14612   5.498   0.295   0.196  0.4497 -0.2098 -0.9422
  109MOL0     C14613   5.471   0.406   0.110  0.4971 -0.6546  0.1786
  109MOL0     C14614   5.351   0.384   0.039  0.2848  0.0770 -0.9824
  109MOL0     C14615   5.263   0.279   0.063  0.1107 -0.3312 -0.0627
  109MOL0     O14616   5.139   0.282  -0.001 -0.2679  0.5479  0.4072
  109MOL0     C14617   5.046   0.180   0.038  0.8908  0.7539  0.3059
  109MOL0     C14618   4.905   0.215  -0.001 -0.2599  0.8736  0.2744
  109MOL0     C14619   4.864   0.365   0.030  0.3081  0.4470 -0.1772
  109MOL0     C14620   4.733   0.392  -0.037  0.7141 -0.2287  0.6562
  109MOL0     C14621   4.617   0.313   0.029 -0.8714 -0.5182  1.4491
  109MOL0     C14622   4.490   0.348  -0.048 -0.0569 -0.0260 -0.2472
  109MOL0     C14623   4.373   0.249  -0.015 -0.0485  0.4655 -1.1751
  109MOL0     C14624   4.233   0.311  -0.028 -0.1556 -0.2360 -0.5060
  109MOL0    Cl14625   4.195   0.335  -0.199  0.2044 -0.0821  0.3014
  109MOL0     C14626   5.305   0.170   0.140  0.0224 -0.0117  0.5470
  109MOL0     C14627   5.420   0.185   0.204 -0.3158 -0.1532 -0.8981
  109MOL0     O14628   5.535   0.296   0.484  0.1445 -0.5709  0.3791
  109MOL0     C14629   5.801   0.295   0.583  0.1658 -0.1704  0.1941
  109MOL0     C14630   5.923   0.267   0.639 -0.0186 -0.0590  0.0117
  109MOL0     N14631   6.502   0.272   0.913  0.8630 -0.3212  0.7892
  109MOL0     N14632   6.595   0.355   0.934  0.8158 -0.7445 -0.9462
  109MOL0     C14633   6.795   0.926   0.062  0.1920 -0.8408  0.0480
  109MOL0     C14634   6.690   0.983  -0.016  0.0486  0.6291  0.1573
  109MOL0     C14635   6.237   1.052  -0.089  0.3920  0.6968 -0.3116
  109MOL0     C14636   6.144   1.128  -0.018  0.3471  0.4643  0.5025
  109MOL0     C14637   6.008   1.121  -0.056  0.2504  0.4141 -0.6966
  109MOL0     C14638   5.956   1.037  -0.161  0.2945  0.4531 -0.3202
  109MOL0     O14639   5.822   1.040  -0.185 -0.1284 -0.6676  0.0699
  109MOL0     C14640   5.768   0.964  -0.285 -0.4797  0.5980 -0.6589
  109MOL0     C14641   5.620   0.995  -0.274 -0.2679 -0.0369  0.3171
  109MOL0     C14642   5.542   0.905  -0.369 -0.1538  0.4417 -0.2108
  109MOL0     C14643   5.396   0.884  -0.330 -0.2565 -0.5639 -0.0209
  109MOL0     C14644   5.325   0.823  -0.436  0.5405 -1.1903  0.5787
  109MOL0     C14645   5.262   0.775  -0.528  0.3064  0.2860  0.4993
  109MOL0     C14646   6.051   0.953  -0.223 -0.0165  0.3644  0.3202
  109MOL0     C14647   6.189   0.965  -0.190  0.1014 -0.2219  0.2873
  109MOL0     H14648   6.451   0.754   0.070  0.0162  0.0268  2.4682
  109MOL0     H14649   6.649   0.653   0.192  0.0678 -1.7039 -1.4688
  109MOL0     H14650   7.050   0.809   0.163 -1.8527  2.8492 -1.7672
  109MOL0     H14651   6.963   0.932   0.266 -0.6624  0.0457  0.6217
  109MOL0     H14652   7.124   0.822   0.414  0.0871 -1.6084 -0.0815
  109MOL0     H14653   6.958   0.781   0.467  0.0245 -3.1300  1.1788
  109MOL0     H14654   6.984   0.562   0.328 -0.0777 -0.7014  0.4687
  109MOL0     H14655   7.156   0.598   0.333 -0.1044  1.0460  0.5140
  109MOL0     H14656   7.153   0.470   0.519  1.7488  0.2036 -2.0136
  109MOL0     H14657   7.151   0.633   0.581 -1.3046  0.2013  0.1173
  109MOL0     H14658   6.885   0.610   0.572 -1.9328 -0.5395  1.4397
  109MOL0     H14659   6.917   0.440   0.532 -2.4551  0.8567  1.2018
  109MOL0     H14660   7.048   0.408   0.740  0.0607 -0.1539 -0.3215
  109MOL0     H14661   7.013   0.576   0.779 -0.9384  2.1916 -2.4696
  109MOL0     H14662   6.776   0.528   0.801 -0.7415 -0.3082  1.5076
  109MOL0     H14663   6.792   0.380   0.701  0.6342 -1.2343  0.1353
  109MOL0     H14664   6.848   0.425   0.999 -4.2447  1.7433 -0.6107
  109MOL0     H14665   6.921   0.278   0.909  0.8876  0.2725 -2.0859
  109MOL0     H14666   6.774   0.102   0.857  1.1714  1.7500 -0.2768
  109MOL0     H14667   6.563  -0.054   0.808  0.7803  1.5099 -2.5402
  109MOL0     H14668   6.451  -0.014   0.952 -1.6667  2.2806  0.2851
  109MOL0     H14669   6.284   0.067   0.823 -1.2585 -2.2588  0.6430
  109MOL0     H14670   6.327  -0.084   0.742 -2.6230  0.1714  0.6185
  109MOL0     H14671   6.464   0.037   0.594  0.6759  2.0193 -0.8237
  109MOL0     H14672   6.436   0.192   0.658 -0.3181  0.9633  2.4993
  109MOL0     H14673   6.227  -0.003   0.538  0.7245 -0.2790 -2.1371
  109MOL0     H14674   6.259   0.152   0.471 -2.6756 -0.0202 -0.8286
  109MOL0     H14675   6.029   0.050   0.396 -0.0213  1.7019 -2.0073
  109MOL0     H14676   5.873  -0.015   0.268  2.2465  1.1558 -1.8330
  109MOL0     H14677   5.710   0.048   0.269  0.7029  1.0787  0.7714
  109MOL0     H14678   5.837   0.143   0.192  0.0173  1.9495  1.9464
  109MOL0     H14679   5.521   0.502   0.100 -1.2055  0.4663  1.7633
  109MOL0     H14680   5.311   0.468  -0.018 -1.9549  2.7461  3.8723
  109MOL0     H14681   5.064   0.082  -0.008  0.2942  0.9514 -0.3556
  109MOL0     H14682   5.040   0.164   0.146 -1.4482  0.0031  0.1236
  109MOL0     H14683   4.896   0.190  -0.107  0.4921  1.0783  0.1619
  109MOL0     H14684   4.835   0.146   0.048  0.8986  0.0256  0.7656
  109MOL0     H14685   4.938   0.431  -0.016  1.5181 -1.7556 -1.5753
  109MOL0     H14686   4.857   0.382   0.138 -0.2844  2.4134 -0.4937
  109MOL0     H14687   4.703   0.497  -0.045  1.9141  0.0224 -1.1147
  109MOL0     H14688   4.739   0.354  -0.139  2.0481 -3.2249  1.7289
  109MOL0     H14689   4.606   0.328   0.136 -1.4864  3.7211  0.9868
  109MOL0     H14690   4.647   0.210   0.009 -0.5980 -0.0684 -0.7972
  109MOL0     H14691   4.459   0.450  -0.025 -1.9198 -0.5982 -0.0203
  109MOL0     H14692   4.515   0.337  -0.154  0.8553 -2.6633  0.1620
  109MOL0     H14693   4.387   0.214   0.088 -1.8290  0.7039 -0.8263
  109MOL0     H14694   4.364   0.163  -0.081 -1.9211  1.2458 -1.9829
  109MOL0     H14695   4.218   0.404   0.027 -1.2256  0.5841 -2.1101
  109MOL0     H14696   4.163   0.239   0.016 -0.5234  1.2174  1.3838
  109MOL0     H14697   5.246   0.082   0.165 -3.9587  1.6765 -1.7813
  109MOL0     H14698   5.444   0.114   0.283 -0.1168  1.0488  0.1563
  109MOL0     H14699   5.739   0.373   0.626 -1.3787 -1.2740  0.0574
  109MOL0     H14700   5.956   0.328   0.722  1.2081 -1.9644  0.9943
  109MOL0     H14701   6.893   0.971   0.056  1.1859 -3.0715 -3.1648
  109MOL0     H14702   6.713   1.078  -0.063 -1.9972  0.6049 -0.9835
  109MOL0     H14703   6.173   1.188   0.068  0.1193  0.6128  0.4762
  109MOL0     H14704   5.938   1.175   0.007 -0.8235 -1.1676 -0.4758
  109MOL0     H14705   5.815   0.991  -0.379 -2.1137 -0.1981 -1.7655
  109MOL0     H14706   5.787   0.857  -0.267 -0.3500  0.6514 -0.4787
  109MOL0     H14707   5.602   1.094  -0.315 -0.7057 -0.4309 -0.4763
  109MOL0     H14708   5.584   0.994  -0.170 -0.1336  2.4376  0.4282
  109MOL0     H14709   5.591   0.808  -0.383 -0.5932 -0.7846  4.7897
  109MOL0     H14710   5.534   0.956  -0.466 -2.1538 -0.2498 -0.4560
  109MOL0     H14711   5.342   0.978  -0.317  1.1803  0.1945  0.6962
  109MOL0     H14712   5.396   0.816  -0.244 -3.2374 -2.4254 -1.3222
  109MOL0     H14713   5.196   0.744  -0.607  0.0889  2.0767 -0.0582
  109MOL0     H14714   6.025   0.885  -0.304 -1.6553  0.9355  0.3254
  109MOL0     H14715   6.264   0.902  -0.236  1.7625  0.5295  1.7899
  110MOL0     O14716   6.289   9.236   8.287 -0.1167  0.0833  0.0034
  110MOL0     C14717   6.369   9.329   8.267  0.0735 -0.4020 -0.5602
  110MOL0     O14718   6.347   9.463   8.279  0.2154  0.5920  0.3104
  110MOL0     C14719   6.226   9.519   8.296 -0.1118 -0.3479 -0.1755
  110MOL0     C14720   6.229   9.654   8.341 -0.2727  1.1169 -0.1419
  110MOL0     C14721   6.111   9.715   8.357  0.9013 -0.6095  0.0092
  110MOL0     C14722   5.986   9.650   8.339  0.2701 -0.7039 -0.4922
  110MOL0     O14723   5.866   9.729   8.356 -0.1766  0.3803 -0.3865
  110MOL0     C14724   5.741   9.658   8.401  0.9515  0.5365  0.0393
  110MOL0     C14725   5.627   9.765   8.430 -0.5745  0.5737  0.2970
  110MOL0     C14726   5.575   9.807   8.287 -0.4588 -1.0415 -0.6398
  110MOL0     C14727   5.469   9.918   8.309 -0.4810 -0.1302  0.4626
  110MOL0     C14728   5.411   9.970   8.175  0.0641 -0.9038  0.0419
  110MOL0     C14729   5.302  10.071   8.217  0.5667  0.6041  0.2135
  110MOL0     C14730   5.181   9.996   8.275  0.6084  0.2458  0.0846
  110MOL0     C14731   5.058  10.093   8.275  0.2783 -0.1646 -0.1445
  110MOL0     N14732   5.020  10.132   8.145  0.0104 -0.0169 -0.3584
  110MOL0     C14733   4.968  10.040   8.057 -0.5500 -0.3616  0.6070
  110MOL0     C14734   4.961  10.098   7.938  0.0819 -0.4120  0.1265
  110MOL0     C14735   4.924  10.032   7.811 -0.0024  0.2778 -0.4950
  110MOL0     C14736   4.773  10.019   7.833  0.0928 -0.3798 -0.4492
  110MOL0     C14737   4.692  10.152   7.863 -0.2409 -0.0865 -0.0716
  110MOL0     C14738   4.702  10.275   7.764  0.4482  0.6181  0.0850
  110MOL0     O14739   4.639  10.247   7.633 -0.2426 -0.4821 -0.3105
  110MOL0     C14740   4.503  10.246   7.619 -0.5590 -0.3024 -0.0430
  110MOL0     C14741   4.456  10.202   7.502 -0.2671  0.0284 -0.3307
  110MOL0     C14742   4.325  10.170   7.481  0.1825  1.1962  0.6023
  110MOL0     C14743   4.273  10.113   7.350 -0.3820 -0.1161 -0.3586
  110MOL0     C14744   4.231  10.200   7.581 -0.1262  0.4270  0.6214
  110MOL0     C14745   4.089  10.190   7.566  0.2598  0.1056  0.1100
  110MOL0     O14746   4.028  10.214   7.447 -0.1370 -0.0521 -0.2777
  110MOL0     C14747   3.889  10.192   7.443  1.2727  0.0941 -0.1081
  110MOL0     C14748   3.830  10.074   7.392 -0.3295  0.1502 -0.4615
  110MOL0     C14749   3.690  10.054   7.387  0.2855  0.3887  0.1290
  110MOL0     C14750   3.602  10.135   7.454  0.3613 -0.5392  0.4974
  110MOL0     O14751   3.469  10.097   7.443  0.2944 -0.1203 -0.1975
  110MOL0     C14752   3.364  10.181   7.492 -0.2870  0.0113 -0.0988
  110MOL0     C14753   3.247  10.095   7.490  0.6346 -0.1435  0.3183
  110MOL0     C14754   3.127  10.161   7.554 -0.7660  0.5668 -0.8322
  110MOL0     C14755   3.020  10.049   7.573  0.2724  1.0672  0.4848
  110MOL0     C14756   2.879  10.091   7.626 -0.7829  0.8076 -0.3626
  110MOL0     C14757   2.784   9.973   7.611 -1.1040  0.5669  0.4369
  110MOL0     C14758   2.645  10.008   7.667 -0.5154 -0.0926 -0.0438
  110MOL0     C14759   2.542   9.907   7.627 -0.8841  0.0648  0.3760
  110MOL0    Cl14760   2.569   9.753   7.710 -0.3259 -0.0511 -0.6180
  110MOL0     C14761   3.659  10.246   7.515  0.7100  0.8648 -1.1362
  110MOL0     C14762   3.792  10.286   7.496  0.0718  0.0726  0.5512
  110MOL0     O14763   4.028  10.149   7.668 -0.0515  0.2543  0.0784
  110MOL0     C14764   4.284  10.253   7.705  0.2987  0.1762  0.0543
  110MOL0     C14765   4.416  10.279   7.728 -0.4937 -0.6373  0.5058
  110MOL0     N14766   5.013  10.229   7.950  0.0562  0.3261 -0.1347
  110MOL0     N14767   5.045  10.244   8.075 -0.1996  0.2883  0.1384
  110MOL0     C14768   5.984   9.514   8.303  0.1903  0.3612  0.0437
  110MOL0     C14769   6.102   9.450   8.278  0.1961 -0.2359  0.1582
  110MOL0     C14770   6.515   9.295   8.245  0.0184 -0.7911  0.4314
  110MOL0     C14771   6.596   9.398   8.186 -0.3375  1.1289 -0.1558
  110MOL0     C14772   6.729   9.372   8.157 -0.5616  0.1981  0.1309
  110MOL0     C14773   6.785   9.248   8.189 -0.4265 -0.3451 -0.6053
  110MOL0     O14774   6.919   9.239   8.175 -0.1139  0.2978 -0.2890
  110MOL0     C14775   6.989   9.129   8.216 -0.4867 -0.7628 -0.3632
  110MOL0     C14776   7.141   9.166   8.245  0.7990 -0.8910 -0.0665
  110MOL0     C14777   7.223   9.164   8.119  0.3798 -0.5001 -0.3966
  110MOL0     C14778   7.336   9.262   8.113  0.5835  0.6312 -0.4030
  110MOL0     C14779   7.431   9.232   8.223 -0.7431 -1.0442 -0.2063
  110MOL0     C14780   7.511   9.217   8.311 -0.0145 -0.4972 -0.2006
  110MOL0     C14781   6.705   9.150   8.251  0.6860 -0.3505 -0.6782
  110MOL0     C14782   6.567   9.170   8.265  0.0116 -0.0292 -0.1805
  110MOL0     H14783   6.328   9.698   8.349 -0.7177  1.9963  0.8361
  110MOL0     H14784   6.115   9.822   8.378  2.1988 -0.9342  1.6526
  110MOL0     H14785   5.702   9.589   8.326  2.4033  0.8367 -1.0280
  110MOL0     H14786   5.754   9.608   8.497 -1.3497 -1.4853 -0.6190
  110MOL0     H14787   5.548   9.710   8.483  0.6686 -1.9040 -0.2644
  110MOL0     H14788   5.665   9.852   8.484  2.8452 -2.7092  3.8171
  110MOL0     H14789   5.657   9.846   8.225 -0.7818  1.3146  0.2993
  110MOL0     H14790   5.531   9.722   8.235 -1.6792 -0.3561 -0.7639
  110MOL0     H14791   5.395   9.884   8.381 -1.3614  3.3282  1.3957
  110MOL0     H14792   5.518  10.004   8.356 -1.3325 -0.7525  2.5724
  110MOL0     H14793   5.495  10.009   8.117 -0.0090 -3.0925 -1.6577
  110MOL0     H14794   5.367   9.884   8.125  2.3552 -2.3583  0.3645
  110MOL0     H14795   5.340  10.141   8.292 -4.4724  1.2803  2.5092
  110MOL0     H14796   5.267  10.139   8.139 -1.0249 -0.0862  0.2925
  110MOL0     H14797   5.160   9.906   8.217  0.1106  1.7776 -2.2218
  110MOL0     H14798   5.211   9.958   8.373  1.7542 -0.8528 -0.6585
  110MOL0     H14799   5.089  10.177   8.338  0.2716 -1.0336  1.0327
  110MOL0     H14800   4.968  10.047   8.317  1.4522 -1.3504  1.1815
  110MOL0     H14801   4.953   9.935   8.080  0.3604 -0.4740  0.7274
  110MOL0     H14802   4.947  10.085   7.718 -2.2490  0.9496 -0.7326
  110MOL0     H14803   4.963   9.930   7.805 -0.8737 -0.1199  0.2702
  110MOL0     H14804   4.748   9.939   7.902  1.6132 -1.0690 -0.6483
  110MOL0     H14805   4.732   9.991   7.736 -3.7634  0.5194  0.7632
  110MOL0     H14806   4.715  10.197   7.960 -0.1358  1.1731 -0.6551
  110MOL0     H14807   4.585  10.131   7.867 -0.0996 -0.7589  0.2515
  110MOL0     H14808   4.810  10.284   7.748  0.8031 -2.0835  0.5682
  110MOL0     H14809   4.660  10.368   7.804  1.4723  0.9521  0.4281
  110MOL0     H14810   4.529  10.182   7.424  1.9500  1.5581  1.2139
  110MOL0     H14811   4.348  10.050   7.301 -0.8145  0.4382 -1.8006
  110MOL0     H14812   4.194  10.043   7.382  1.5040 -1.8361  0.7510
  110MOL0     H14813   4.232  10.185   7.278  0.1805  1.6624  1.0273
  110MOL0     H14814   3.913  10.013   7.357  0.4879 -0.8976  2.9542
  110MOL0     H14815   3.653   9.960   7.346 -0.8783 -0.2333  2.4266
  110MOL0     H14816   3.380  10.238   7.583 -1.9409  0.1801  0.1272
  110MOL0     H14817   3.351  10.248   7.407 -2.9340 -2.9889 -2.3146
  110MOL0     H14818   3.220  10.077   7.386 -1.2924  1.3113  0.5094
  110MOL0     H14819   3.270  10.004   7.546 -0.4917  0.7543  2.3671
  110MOL0     H14820   3.094  10.247   7.495 -2.0359 -1.0014 -2.4694
  110MOL0     H14821   3.153  10.197   7.655  1.1550 -0.6602 -0.8482
  110MOL0     H14822   3.007  10.001   7.476 -0.1107  0.7190  0.7039
  110MOL0     H14823   3.062   9.964   7.629 -0.0380 -0.0180 -0.8847
  110MOL0     H14824   2.847  10.180   7.570  0.9878  1.3726 -0.5309
  110MOL0     H14825   2.880  10.121   7.731  0.8981  0.9376 -0.3968
  110MOL0     H14826   2.784   9.946   7.505 -0.9609 -0.2593  0.6365
  110MOL0     H14827   2.820   9.884   7.664  1.2577 -0.4450 -2.5966
  110MOL0     H14828   2.607  10.105   7.633 -0.7830 -0.1655  0.0395
  110MOL0     H14829   2.653  10.003   7.776 -1.3037  0.4499  0.0509
  110MOL0     H14830   2.523   9.896   7.520  1.3600  0.9448 -0.1771
  110MOL0     H14831   2.449   9.950   7.666 -1.5745 -1.0196 -0.0374
  110MOL0     H14832   3.592  10.316   7.565 -0.6898  0.1202 -1.8933
  110MOL0     H14833   3.819  10.385   7.532 -1.6559  1.1658 -1.0372
  110MOL0     H14834   4.216  10.264   7.789  0.4216 -0.0674  0.1863
  110MOL0     H14835   4.457  10.306   7.825  1.7871  2.7860 -1.2383
  110MOL0     H14836   5.893   9.460   8.278  0.9944 -1.3493  0.7315
  110MOL0     H14837   6.096   9.346   8.247 -2.0366  0.4649 -2.1606
  110MOL0     H14838   6.547   9.493   8.168 -0.7370  1.2115  1.2188
  110MOL0     H14839   6.796   9.447   8.116  1.2256 -0.2361  2.1099
  110MOL0     H14840   6.958   9.098   8.317  0.7170 -0.8865 -0.0106
  110MOL0     H14841   6.982   9.039   8.155 -0.6414 -0.8913 -0.1589
  110MOL0     H14842   7.168   9.089   8.319 -1.5634 -3.2822 -1.4965
  110MOL0     H14843   7.139   9.268   8.284  1.8193 -0.7771 -0.2856
  110MOL0     H14844   7.156   9.181   8.034  2.4760  1.0008 -1.8757
  110MOL0     H14845   7.264   9.066   8.093  0.1920 -0.1979 -1.9281
  110MOL0     H14846   7.297   9.363   8.129  1.2728  0.9406 -0.6243
  110MOL0     H14847   7.405   9.263   8.028  4.3172 -0.6601  2.3413
  110MOL0     H14848   7.589   9.198   8.381 -0.5123  0.0894  0.5239
  110MOL0     H14849   6.746   9.054   8.283  0.9108 -0.3311 -0.9014
  110MOL0     H14850   6.510   9.087   8.304  0.8945 -1.3602 -1.6044
  111MOL0     O14851   8.848   1.601   0.375  0.2781 -0.1532 -0.1170
  111MOL0     C14852   8.872   1.670   0.275  0.3212  0.3804 -0.0137
  111MOL0     O14853   8.776   1.725   0.188  0.1857 -0.0138  0.5834
  111MOL0     C14854   8.646   1.690   0.195  0.0523 -0.8178 -0.2264
  111MOL0     C14855   8.553   1.784   0.141  0.4352 -0.9281  0.9552
  111MOL0     C14856   8.416   1.760   0.139  0.1487  1.1023 -0.1710
  111MOL0     C14857   8.363   1.637   0.198  0.3646 -0.4130  0.0446
  111MOL0     O14858   8.228   1.600   0.202 -0.0408 -0.6816 -0.1458
  111MOL0     C14859   8.127   1.702   0.184 -0.4223  0.3039  0.0822
  111MOL0     C14860   7.992   1.642   0.216  0.5545  0.1274  0.5905
  111MOL0     C14861   7.862   1.729   0.196 -1.2559 -0.3083  1.0270
  111MOL0     C14862   7.854   1.776   0.051 -0.2443 -0.1860  0.4735
  111MOL0     C14863   7.709   1.814   0.005 -0.1331 -0.7177 -0.2044
  111MOL0     C14864   7.607   1.700  -0.002 -0.6138  0.6954 -0.2607
  111MOL0     C14865   7.476   1.726  -0.083 -0.5241  0.2424  0.2931
  111MOL0     C14866   7.377   1.804  -0.012 -0.1012 -1.0350 -0.0421
  111MOL0     N14867   7.253   1.829  -0.088 -0.4913 -0.0688  0.0229
  111MOL0     C14868   7.159   1.734  -0.123  0.5990  0.3803 -0.0590
  111MOL0     C14869   7.077   1.807  -0.199  0.6086 -0.2740 -0.5099
  111MOL0     C14870   6.973   1.751  -0.282 -0.0574 -0.0368 -0.6422
  111MOL0     C14871   6.868   1.688  -0.194  0.7603  0.5664  0.1948
  111MOL0     C14872   6.741   1.654  -0.282 -1.1909  0.1101  0.1943
  111MOL0     C14873   6.634   1.592  -0.191  0.8080  0.2067  0.3673
  111MOL0     O14874   6.544   1.525  -0.286  0.0973  0.5961  0.0876
  111MOL0     C14875   6.411   1.547  -0.252  0.9510  0.4076  0.3245
  111MOL0     C14876   6.347   1.666  -0.267 -0.0203 -0.1668 -0.2081
  111MOL0     C14877   6.211   1.680  -0.237 -0.3071  0.8633 -0.4035
  111MOL0     C14878   6.146   1.806  -0.248  0.2650  1.1392  0.1631
  111MOL0     C14879   6.140   1.564  -0.193  0.2614 -0.1569 -0.0116
  111MOL0     C14880   6.000   1.559  -0.144 -0.2064  0.1317  0.1467
  111MOL0     O14881   5.966   1.451  -0.069  0.1089 -0.2918  0.5356
  111MOL0     C14882   5.833   1.437  -0.022 -0.5878  0.5270 -0.7077
  111MOL0     C14883   5.793   1.517   0.087 -0.3695  1.4292 -0.1000
  111MOL0     C14884   5.658   1.529   0.115  0.0115 -0.2516  0.0169
  111MOL0     C14885   5.561   1.455   0.045 -0.1803  0.0944  0.3654
  111MOL0     O14886   5.435   1.460   0.080 -0.1832  0.2756  0.1014
  111MOL0     C14887   5.368   1.334   0.097  0.1429  0.1353 -0.1497
  111MOL0     C14888   5.239   1.358   0.177  0.8722  0.2751 -0.7288
  111MOL0     C14889   5.140   1.241   0.197  0.3554  0.3945  0.5329
  111MOL0     C14890   5.008   1.270   0.282 -0.7515 -0.2469  0.3558
  111MOL0     C14891   4.882   1.195   0.257  0.0149  0.3592  0.2713
  111MOL0     C14892   4.767   1.265   0.341 -0.4269  0.0899  0.1930
  111MOL0     C14893   4.652   1.159   0.369 -0.0159  0.1519  0.7977
  111MOL0     C14894   4.559   1.211   0.485 -0.0528 -0.0596  0.3654
  111MOL0    Cl14895   4.434   1.093   0.543  0.5987  0.2966  0.0639
  111MOL0     C14896   5.603   1.371  -0.060  0.1980  0.1926 -0.7911
  111MOL0     C14897   5.739   1.363  -0.086 -0.9417 -0.0234 -0.0809
  111MOL0     O14898   5.923   1.642  -0.183 -0.2681  0.2123 -0.1048
  111MOL0     C14899   6.201   1.439  -0.179 -0.1672 -0.2659  0.6931
  111MOL0     C14900   6.335   1.430  -0.221 -0.4434 -0.3515 -0.6492
  111MOL0     N14901   7.105   1.940  -0.194  0.4890 -0.2799 -0.2459
  111MOL0     N14902   7.216   1.951  -0.135 -1.4197  0.6017 -0.1390
  111MOL0     C14903   8.458   1.545   0.239 -0.3770  0.0895 -0.3239
  111MOL0     C14904   8.593   1.566   0.240  0.1422  0.4710  1.2143
  111MOL0     C14905   9.018   1.710   0.252 -0.1535  0.2052 -0.0309
  111MOL0     C14906   9.047   1.814   0.162  1.0253  0.5143  0.8603
  111MOL0     C14907   9.173   1.848   0.120 -0.6020 -0.0541  0.3114
  111MOL0     C14908   9.287   1.792   0.183  0.7898  0.6807 -0.0300
  111MOL0     O14909   9.421   1.823   0.164  0.4265 -0.3143 -0.3178
  111MOL0     C14910   9.465   1.940   0.091 -0.3258 -0.3728  0.2454
  111MOL0     C14911   9.613   1.962   0.101 -0.3130  0.2827  0.5315
  111MOL0     C14912   9.702   1.864   0.022  0.4069  0.6497 -0.0895
  111MOL0     C14913   9.848   1.891   0.053 -0.9481 -0.0428  0.2441
  111MOL0     C14914   9.928   1.814  -0.049 -0.1608  0.1238  0.5750
  111MOL0     C14915   9.978   1.732  -0.127 -0.7270  0.1616  0.0957
  111MOL0     C14916   9.257   1.696   0.285 -0.1837  0.0755  0.2635
  111MOL0     C14917   9.126   1.657   0.325  0.3788  0.0243 -0.2039
  111MOL0     H14918   8.579   1.882   0.104  0.0569  0.0581  3.1747
  111MOL0     H14919   8.365   1.846   0.097  2.4877  2.7461  0.1105
  111MOL0     H14920   8.139   1.776   0.263  0.3850 -0.2230  0.4652
  111MOL0     H14921   8.123   1.753   0.087 -1.7799  1.6028  0.7752
  111MOL0     H14922   7.982   1.547   0.165  1.5972  0.8192 -0.9680
  111MOL0     H14923   7.986   1.608   0.320  1.2195 -0.2769  0.5010
  111MOL0     H14924   7.779   1.660   0.216 -1.0689 -1.0467 -0.5816
  111MOL0     H14925   7.861   1.817   0.262  1.3458 -0.2323  1.0477
  111MOL0     H14926   7.926   1.858   0.042  0.2508 -0.7538 -1.1676
  111MOL0     H14927   7.896   1.712  -0.027 -0.5673 -0.9327  0.9015
  111MOL0     H14928   7.671   1.886   0.078  0.0064 -0.6592 -0.1907
  111MOL0     H14929   7.707   1.861  -0.094 -0.8754  0.5055  0.3643
  111MOL0     H14930   7.659   1.613  -0.043  2.2019  2.6942 -1.1927
  111MOL0     H14931   7.570   1.682   0.099  1.0948 -0.2455  0.2195
  111MOL0     H14932   7.502   1.777  -0.176  0.2296  3.1183  1.9494
  111MOL0     H14933   7.431   1.627  -0.096 -0.0351 -0.0627  0.8575
  111MOL0     H14934   7.434   1.893   0.016  1.8029 -0.9255 -3.5816
  111MOL0     H14935   7.340   1.751   0.076  0.8018  0.1871  1.0967
  111MOL0     H14936   7.166   1.626  -0.128  1.9616  0.2855  2.3279
  111MOL0     H14937   6.933   1.834  -0.342 -0.2959 -0.0882 -0.5552
  111MOL0     H14938   7.027   1.676  -0.340 -1.9958 -1.1026 -1.1455
  111MOL0     H14939   6.838   1.746  -0.107  0.7803  1.1705 -0.1974
  111MOL0     H14940   6.910   1.596  -0.151  1.1888  0.2314 -0.9129
  111MOL0     H14941   6.777   1.594  -0.366  0.2040  1.1327  0.0210
  111MOL0     H14942   6.694   1.744  -0.323 -5.0970 -0.7991  2.1782
  111MOL0     H14943   6.577   1.671  -0.141 -1.8723 -1.9463  0.9404
  111MOL0     H14944   6.673   1.521  -0.119 -0.5132  0.1486  1.0591
  111MOL0     H14945   6.395   1.751  -0.313 -1.4678  1.5141  1.2472
  111MOL0     H14946   6.103   1.824  -0.149  1.7751  2.8544  0.5626
  111MOL0     H14947   6.212   1.890  -0.274  0.8527  0.3399 -1.0184
  111MOL0     H14948   6.067   1.798  -0.323  1.2821  0.0475 -0.8176
  111MOL0     H14949   5.871   1.571   0.140  1.5141 -1.8822  0.8470
  111MOL0     H14950   5.641   1.605   0.191 -0.3571  0.1052 -0.4197
  111MOL0     H14951   5.347   1.298  -0.004  1.6402  0.1600 -0.5002
  111MOL0     H14952   5.435   1.264   0.148 -1.2172 -0.1638  1.3090
  111MOL0     H14953   5.244   1.394   0.280 -0.8690  0.0222 -0.5271
  111MOL0     H14954   5.184   1.439   0.127  1.4829 -0.5040 -2.7334
  111MOL0     H14955   5.192   1.156   0.244 -1.7303 -0.6456  1.0971
  111MOL0     H14956   5.101   1.222   0.097 -0.2069  2.3641  0.3315
  111MOL0     H14957   5.026   1.265   0.390 -2.9070  1.6271  0.8896
  111MOL0     H14958   4.984   1.376   0.264  0.4182  0.2405  1.4453
  111MOL0     H14959   4.891   1.095   0.301 -0.5581  0.3118  0.2911
  111MOL0     H14960   4.866   1.196   0.148  0.5851 -0.0040  0.1806
  111MOL0     H14961   4.804   1.297   0.439 -1.4230 -0.3712  0.7374
  111MOL0     H14962   4.730   1.351   0.285 -2.2703 -1.8172 -1.6994
  111MOL0     H14963   4.706   1.065   0.388 -0.2171 -1.4527 -4.7265
  111MOL0     H14964   4.590   1.138   0.281  0.6140  0.3753  0.2831
  111MOL0     H14965   4.511   1.304   0.455  0.7058 -0.8146 -3.8567
  111MOL0     H14966   4.607   1.232   0.581 -0.7169 -1.3366  1.0122
  111MOL0     H14967   5.531   1.315  -0.117  0.1475 -0.8574  0.2614
  111MOL0     H14968   5.779   1.303  -0.167  0.5288  1.2808 -0.3736
  111MOL0     H14969   6.160   1.343  -0.148  2.7262 -2.5267 -1.7703
  111MOL0     H14970   6.369   1.327  -0.217 -1.7443 -0.7993  4.4583
  111MOL0     H14971   8.431   1.459   0.298 -2.3883 -0.8112 -2.4187
  111MOL0     H14972   8.662   1.489   0.276  1.8004  0.0399 -2.4567
  111MOL0     H14973   8.968   1.869   0.113  3.3520  1.9844 -1.5325
  111MOL0     H14974   9.193   1.921   0.042  0.0168  0.1416  0.6449
  111MOL0     H14975   9.433   1.933  -0.013  3.0068  1.0148 -1.0238
  111MOL0     H14976   9.428   2.029   0.143  1.6059 -0.3585  1.7069
  111MOL0     H14977   9.632   1.952   0.208  3.1434  0.4452  0.0191
  111MOL0     H14978   9.636   2.064   0.070  0.8991  0.0531  0.6372
  111MOL0     H14979   9.677   1.883  -0.083  0.3773 -2.0753 -0.6480
  111MOL0     H14980   9.668   1.768   0.062  0.9127  1.6016  2.9002
  111MOL0     H14981   9.887   1.865   0.152 -0.3865  3.6930  1.1406
  111MOL0     H14982   9.874   1.996   0.043  3.0472 -0.8892  0.0157
  111MOL0     H14983  10.019   1.662  -0.198  0.3307  0.8191  0.0563
  111MOL0     H14984   9.339   1.644   0.334  0.4871  0.5282 -0.3523
  111MOL0     H14985   9.115   1.584   0.405  0.7244  0.2073  0.0093
  112MOL0     O14986   4.826   4.451   4.391  0.1992 -1.1121  0.5251
  112MOL0     C14987   4.732   4.464   4.463  0.1529 -0.7171  0.1144
  112MOL0     O14988   4.623   4.539   4.443  0.8005  0.7857 -0.3082
  112MOL0     C14989   4.622   4.632   4.342 -0.6013  0.3228 -0.1944
  112MOL0     C14990   4.520   4.640   4.247  0.3287 -0.3095  0.4255
  112MOL0     C14991   4.517   4.750   4.159  0.4363 -0.6770 -0.1655
  112MOL0     C14992   4.625   4.845   4.156 -0.4197  0.4143  0.3634
  112MOL0     O14993   4.639   4.959   4.072  0.4699  0.1312  0.8107
  112MOL0     C14994   4.546   4.959   3.955  0.9722  0.6026 -0.0408
  112MOL0     C14995   4.412   5.033   3.995  0.6186 -0.2309 -0.2351
  112MOL0     C14996   4.307   4.995   3.890  0.0422 -0.2251 -0.5838
  112MOL0     C14997   4.170   5.075   3.923  0.0543  0.0366  0.4564
  112MOL0     C14998   4.061   5.051   3.813  0.3526 -0.2589  0.0287
  112MOL0     C14999   3.980   4.925   3.829  0.5784 -0.3171  0.5434
  112MOL0     C15000   3.877   4.895   3.718  0.3853  0.1760 -0.6271
  112MOL0     C15001   3.775   4.783   3.760 -0.4572 -0.1963  0.1513
  112MOL0     N15002   3.695   4.731   3.654 -0.2165  0.0107 -0.2628
  112MOL0     C15003   3.587   4.781   3.599  1.2379 -0.1409 -0.2359
  112MOL0     C15004   3.548   4.684   3.509 -0.0225  0.1630 -0.3028
  112MOL0     C15005   3.431   4.693   3.419 -0.0859  0.2232 -0.4119
  112MOL0     C15006   3.325   4.812   3.439  0.3722  0.7987 -0.4260
  112MOL0     C15007   3.231   4.809   3.316  1.6570  0.8416 -0.0974
  112MOL0     C15008   3.103   4.896   3.333  0.2533  0.1286  0.3272
  112MOL0     O15009   3.038   4.860   3.457  0.2990  0.5260  0.4875
  112MOL0     C15010   2.906   4.899   3.477 -0.0457 -0.1561  0.8316
  112MOL0     C15011   2.828   4.954   3.381 -0.1764 -0.2952  0.0769
  112MOL0     C15012   2.689   4.989   3.405  0.1261  0.3117  0.1517
  112MOL0     C15013   2.603   5.034   3.286 -0.1908 -0.0802  0.3562
  112MOL0     C15014   2.640   4.960   3.535 -0.7035  0.6872 -0.0287
  112MOL0     C15015   2.501   4.980   3.588  0.6289 -1.6729  0.2271
  112MOL0     O15016   2.421   5.063   3.511  1.0532 -0.5206 -0.3506
  112MOL0     C15017   2.285   5.037   3.535 -0.7591 -0.1079  0.1728
  112MOL0     C15018   2.219   5.091   3.644  0.1218 -0.1390  0.5683
  112MOL0     C15019   2.088   5.053   3.669  0.5130  0.3374  0.4130
  112MOL0     C15020   2.026   4.955   3.594 -0.0796  0.3749  0.0882
  112MOL0     O15021   1.896   4.922   3.631  0.3399  0.2125 -0.6311
  112MOL0     C15022   1.821   4.841   3.532  0.4488 -0.3554 -0.6930
  112MOL0     C15023   1.711   4.793   3.630  1.2525  0.3314  1.2376
  112MOL0     C15024   1.592   4.740   3.551 -0.1279  0.5806  0.7218
  112MOL0     C15025   1.497   4.683   3.660 -0.4283  0.6069  0.2963
  112MOL0     C15026   1.385   4.632   3.591  1.2724  0.7023  1.1261
  112MOL0     C15027   1.285   4.550   3.691  0.5840  0.4470  0.4184
  112MOL0     C15028   1.237   4.634   3.804  0.3441 -0.2817 -0.0147
  112MOL0     C15029   1.152   4.555   3.899  0.9076  0.7907  0.6587
  112MOL0    Cl15030   0.997   4.503   3.809  0.3474  0.0206 -0.0989
  112MOL0     C15031   2.082   4.909   3.480 -0.5126 -1.0973 -0.1556
  112MOL0     C15032   2.217   4.942   3.452  0.1690  0.8366 -0.1987
  112MOL0     O15033   2.460   4.909   3.679 -0.1211  0.9410 -0.2750
  112MOL0     C15034   2.725   4.897   3.630  1.5730 -0.3128  0.2434
  112MOL0     C15035   2.857   4.877   3.599  0.1170 -0.6012  0.5131
  112MOL0     N15036   3.648   4.584   3.508  0.3815  0.2593 -0.1024
  112MOL0     N15037   3.736   4.614   3.591  0.6859  0.0843 -0.5514
  112MOL0     C15038   4.730   4.825   4.246  0.4127  0.6205  0.1359
  112MOL0     C15039   4.723   4.728   4.345 -0.9357  0.2657 -0.1111
  112MOL0     C15040   4.713   4.360   4.568  0.9337 -0.1490  0.1754
  112MOL0     C15041   4.587   4.326   4.625 -0.3446  0.2761 -0.7910
  112MOL0     C15042   4.586   4.236   4.737 -0.0733  0.1411  0.5768
  112MOL0     C15043   4.702   4.194   4.800 -1.0685 -0.7900 -0.9789
  112MOL0     O15044   4.698   4.122   4.913 -0.2968  0.1349 -0.1221
  112MOL0     C15045   4.585   4.143   5.000 -0.0528 -0.3085 -0.0569
  112MOL0     C15046   4.609   4.083   5.135  0.7695  0.3574 -0.7514
  112MOL0     C15047   4.607   3.922   5.136 -0.1789 -0.5122 -0.9587
  112MOL0     C15048   4.565   3.858   5.275 -0.1256  0.3819 -0.6070
  112MOL0     C15049   4.433   3.888   5.325 -0.1513 -0.5942  0.2960
  112MOL0     C15050   4.328   3.934   5.367  0.5861  0.9977 -0.3084
  112MOL0     C15051   4.828   4.233   4.743  0.6509 -0.3913  0.6183
  112MOL0     C15052   4.834   4.320   4.629  0.7425  0.3255 -0.5795
  112MOL0     H15053   4.440   4.566   4.248 -0.0478  0.0468 -0.9267
  112MOL0     H15054   4.429   4.765   4.098  0.4968  2.2607  0.3275
  112MOL0     H15055   4.592   5.013   3.872 -0.1855  0.0890 -1.0500
  112MOL0     H15056   4.521   4.858   3.921  2.0941 -0.4032  1.9241
  112MOL0     H15057   4.383   5.006   4.097  1.2175  1.2507  0.3490
  112MOL0     H15058   4.422   5.142   3.996  0.6824 -0.1809 -2.1856
  112MOL0     H15059   4.344   5.023   3.791 -0.1382  2.3508  0.0041
  112MOL0     H15060   4.293   4.887   3.894  1.1276 -0.3571  1.1299
  112MOL0     H15061   4.136   5.035   4.019  1.1298 -0.2486  0.7341
  112MOL0     H15062   4.195   5.181   3.932  1.0101 -0.1972  0.7509
  112MOL0     H15063   3.990   5.131   3.835  0.3197 -0.2944  0.0517
  112MOL0     H15064   4.104   5.053   3.713 -0.0889 -2.3230 -0.2455
  112MOL0     H15065   4.052   4.843   3.820 -1.3419 -1.8897 -1.2919
  112MOL0     H15066   3.933   4.918   3.927  0.8265 -1.9808  0.5720
  112MOL0     H15067   3.824   4.989   3.700 -0.1397  0.0325  0.1246
  112MOL0     H15068   3.926   4.870   3.624  1.7529  3.3334 -0.8782
  112MOL0     H15069   3.712   4.821   3.841  0.8969  0.9872  0.6955
  112MOL0     H15070   3.833   4.698   3.797 -0.6649 -0.5802 -0.3952
  112MOL0     H15071   3.538   4.875   3.625 -0.7675 -0.0161 -3.8365
  112MOL0     H15072   3.460   4.707   3.314 -0.8018  0.2443 -0.6183
  112MOL0     H15073   3.386   4.594   3.412 -0.3671  0.3934 -1.1029
  112MOL0     H15074   3.378   4.907   3.450 -3.2915  2.9139  0.4978
  112MOL0     H15075   3.265   4.799   3.529 -3.3220  0.1949 -2.7589
  112MOL0     H15076   3.194   4.707   3.302 -2.8218  2.0217  1.5966
  112MOL0     H15077   3.290   4.839   3.229  0.9990  1.0782 -0.4659
  112MOL0     H15078   3.049   4.881   3.239  1.8286  0.5630 -0.6885
  112MOL0     H15079   3.127   5.002   3.338  1.1680 -0.0978  1.1374
  112MOL0     H15080   2.868   4.981   3.284 -3.8575  1.2193 -1.1969
  112MOL0     H15081   2.673   5.071   3.211 -0.6345  1.1387  0.5261
  112MOL0     H15082   2.554   4.947   3.241 -0.2092 -0.3042  0.8069
  112MOL0     H15083   2.522   5.102   3.314  0.8588  0.2225  2.9493
  112MOL0     H15084   2.271   5.160   3.709 -0.4158 -0.2649  1.1456
  112MOL0     H15085   2.037   5.094   3.756  0.7995 -0.2774  0.8795
  112MOL0     H15086   1.780   4.914   3.462  1.7370  0.0608 -1.0540
  112MOL0     H15087   1.872   4.758   3.482 -0.5372 -1.3513 -0.0829
  112MOL0     H15088   1.745   4.721   3.704 -0.3368 -0.3841  1.3041
  112MOL0     H15089   1.664   4.876   3.684 -0.7326  0.8185 -1.0328
  112MOL0     H15090   1.612   4.656   3.483  0.6510  1.7447 -0.5362
  112MOL0     H15091   1.549   4.822   3.494  1.5767  1.0365  0.0195
  112MOL0     H15092   1.544   4.599   3.712 -2.0742 -0.2528  0.4487
  112MOL0     H15093   1.456   4.755   3.732 -1.7933 -0.2654  0.4125
  112MOL0     H15094   1.414   4.564   3.510 -2.2551  1.6164 -1.1338
  112MOL0     H15095   1.336   4.717   3.543  0.6897 -0.2783 -0.0731
  112MOL0     H15096   1.199   4.504   3.643  1.7408 -0.3003 -0.9969
  112MOL0     H15097   1.342   4.462   3.725  0.0871 -0.5204 -1.1651
  112MOL0     H15098   1.188   4.723   3.764 -0.4127 -0.5957  0.1760
  112MOL0     H15099   1.327   4.652   3.863  0.4758 -1.0772  0.0425
  112MOL0     H15100   1.120   4.621   3.980  1.4655  0.0728  1.4765
  112MOL0     H15101   1.206   4.464   3.927 -0.5764 -1.0560 -2.0075
  112MOL0     H15102   2.037   4.846   3.404 -0.9314 -3.4866  1.9280
  112MOL0     H15103   2.267   4.894   3.369 -1.9589 -1.8683 -0.0765
  112MOL0     H15104   2.685   4.866   3.727 -3.5907  3.1543 -0.3437
  112MOL0     H15105   2.911   4.812   3.667  1.2167 -2.1475 -1.7053
  112MOL0     H15106   4.809   4.898   4.234  2.4573 -1.5104 -0.1798
  112MOL0     H15107   4.785   4.725   4.434 -2.8666 -0.8936  1.2878
  112MOL0     H15108   4.492   4.350   4.577 -1.8709 -2.0503  0.8586
  112MOL0     H15109   4.489   4.206   4.777 -0.1902 -0.7121 -0.2963
  112MOL0     H15110   4.564   4.250   5.011  1.1505 -0.1703  1.1537
  112MOL0     H15111   4.495   4.107   4.950  0.7528 -0.5013 -1.4455
  112MOL0     H15112   4.536   4.116   5.208  0.8325  0.6052 -0.8011
  112MOL0     H15113   4.711   4.114   5.162 -0.2719  1.0715  2.9171
  112MOL0     H15114   4.703   3.880   5.105  1.1888  0.1997  1.9709
  112MOL0     H15115   4.535   3.885   5.063 -1.1109  0.7998 -0.7317
  112MOL0     H15116   4.635   3.902   5.347 -1.5800 -0.4035  1.3934
  112MOL0     H15117   4.589   3.751   5.278  1.6847  0.7635 -0.5864
  112MOL0     H15118   4.243   3.980   5.413  0.6683 -0.3163  1.2805
  112MOL0     H15119   4.925   4.213   4.786  0.4724  0.4088  1.4241
  112MOL0     H15120   4.924   4.356   4.580  1.5294 -1.0340 -0.1920
  113MOL0     O15121   8.812   1.155   5.780  0.0518 -0.2351  0.7643
  113MOL0     C15122   8.773   1.145   5.893  0.6737  0.4825 -0.3984
  113MOL0     O15123   8.644   1.100   5.931  0.0315  0.0839  0.5004
  113MOL0     C15124   8.558   1.080   5.829  0.1873  0.0566  0.1113
  113MOL0     C15125   8.451   1.168   5.803  0.3744 -0.2166 -0.6225
  113MOL0     C15126   8.357   1.134   5.704  0.1883 -0.1139  0.5223
  113MOL0     C15127   8.374   1.022   5.628  0.0859 -0.2273  0.5200
  113MOL0     O15128   8.285   0.990   5.523 -0.5011 -0.1075  1.0013
  113MOL0     C15129   8.330   1.028   5.390 -0.8322  0.2022  0.3577
  113MOL0     C15130   8.261   1.155   5.342 -0.8973  0.4176 -0.0263
  113MOL0     C15131   8.117   1.119   5.321  0.7685  0.2778 -0.2588
  113MOL0     C15132   8.031   1.224   5.245 -0.4474 -0.0671  0.2469
  113MOL0     C15133   7.886   1.204   5.232  1.1410 -0.6409  0.0395
  113MOL0     C15134   7.815   1.236   5.362 -0.3754 -0.2646  0.3336
  113MOL0     C15135   7.663   1.232   5.358 -0.2138  0.1611  0.4256
  113MOL0     C15136   7.601   1.091   5.369  0.1060  0.3266  1.2454
  113MOL0     N15137   7.475   1.095   5.290 -0.2594 -0.4555 -0.3449
  113MOL0     C15138   7.468   1.101   5.154  0.7565  0.4792  0.0321
  113MOL0     C15139   7.329   1.108   5.137 -0.1229 -0.0941 -0.5580
  113MOL0     C15140   7.256   1.139   5.013  0.2724  0.5607  0.4018
  113MOL0     C15141   7.129   1.065   5.006  0.0202 -0.5742 -0.1108
  113MOL0     C15142   7.074   1.093   4.870 -0.7683 -0.0709  0.5521
  113MOL0     C15143   6.928   1.032   4.854 -0.0216 -0.2774 -1.0042
  113MOL0     O15144   6.835   1.117   4.919 -0.6727 -0.1241  0.1666
  113MOL0     C15145   6.706   1.092   4.899  0.5788 -0.4223  0.1799
  113MOL0     C15146   6.646   0.979   4.829 -0.6628 -0.4152 -0.4903
  113MOL0     C15147   6.507   0.965   4.824 -0.0629 -0.2883 -0.0254
  113MOL0     C15148   6.453   0.834   4.766 -0.1222 -0.5455  0.6955
  113MOL0     C15149   6.425   1.058   4.891  0.3858  0.0642  0.1755
  113MOL0     C15150   6.283   1.047   4.864  0.0887  0.2998  0.2071
  113MOL0     O15151   6.203   1.112   4.958  0.6989  0.4961 -0.3644
  113MOL0     C15152   6.078   1.071   5.004  0.1917 -0.5775  0.9295
  113MOL0     C15153   6.031   0.942   4.975 -0.9164 -0.2629 -0.0583
  113MOL0     C15154   5.906   0.903   5.000  0.5252 -0.1594 -0.2344
  113MOL0     C15155   5.824   0.979   5.086 -0.4295 -0.7237  0.7527
  113MOL0     O15156   5.703   0.931   5.126  0.1075  0.7074  0.4781
  113MOL0     C15157   5.614   1.001   5.220 -0.0439 -0.4893  0.4258
  113MOL0     C15158   5.490   0.924   5.253  0.1015 -0.9775  0.6956
  113MOL0     C15159   5.425   0.859   5.132  0.3808  0.2266  0.0965
  113MOL0     C15160   5.298   0.762   5.154 -0.6669 -0.2250  0.4742
  113MOL0     C15161   5.162   0.847   5.125 -0.2530 -0.8493  0.4897
  113MOL0     C15162   5.036   0.762   5.128  0.2322  0.0888 -0.3123
  113MOL0     C15163   5.001   0.694   5.270 -0.3283  0.0165  0.3584
  113MOL0     C15164   4.854   0.641   5.268  0.6129 -0.0715 -0.8820
  113MOL0    Cl15165   4.846   0.530   5.422 -0.4511  0.2425  0.0269
  113MOL0     C15166   5.874   1.102   5.123  0.5307  0.1527  0.2695
  113MOL0     C15167   5.997   1.151   5.085  0.2491  0.5665  0.8672
  113MOL0     O15168   6.239   1.017   4.752 -0.7361 -0.0912  1.0879
  113MOL0     C15169   6.481   1.160   4.963 -0.8463 -0.9835 -0.4184
  113MOL0     C15170   6.623   1.176   4.965  0.1608 -0.8157  0.4403
  113MOL0     N15171   7.265   1.102   5.254  0.4204  0.2379  0.6270
  113MOL0     N15172   7.354   1.092   5.350 -0.1276 -0.0165 -0.3932
  113MOL0     C15173   8.479   0.938   5.647  0.1613  0.3948 -0.7705
  113MOL0     C15174   8.566   0.964   5.751  0.0008 -0.7054  0.0535
  113MOL0     C15175   8.869   1.156   6.000 -0.5628 -0.3219 -0.4234
  113MOL0     C15176   8.822   1.199   6.131 -0.1205  1.2659  0.3103
  113MOL0     C15177   8.916   1.212   6.236  0.9286 -0.3023  0.1502
  113MOL0     C15178   9.054   1.198   6.218 -0.3006 -0.2125  0.9524
  113MOL0     O15179   9.131   1.223   6.331 -0.0542  0.0726 -0.4821
  113MOL0     C15180   9.246   1.133   6.352 -0.3435 -0.0304  0.1556
  113MOL0     C15181   9.276   1.135   6.494  0.6586  0.0392 -0.4765
  113MOL0     C15182   9.374   1.030   6.523 -0.2091 -0.1067  0.0504
  113MOL0     C15183   9.417   1.042   6.666 -0.1913  0.0250 -0.6844
  113MOL0     C15184   9.517   0.937   6.699 -0.6336 -0.7660  0.4674
  113MOL0     C15185   9.597   0.850   6.733 -0.3872 -0.1712  0.3556
  113MOL0     C15186   9.094   1.162   6.084 -1.0880 -0.7190 -0.1193
  113MOL0     C15187   9.003   1.143   5.976 -0.7051 -0.2346 -0.2541
  113MOL0     H15188   8.423   1.246   5.874 -0.3557 -0.6843 -0.3805
  113MOL0     H15189   8.261   1.184   5.698 -0.6019 -1.3450  2.0179
  113MOL0     H15190   8.437   1.053   5.392 -0.8668  1.0919 -3.1904
  113MOL0     H15191   8.308   0.951   5.316  0.1630  1.1075 -0.9233
  113MOL0     H15192   8.270   1.222   5.428 -0.2600 -2.6388  2.4414
  113MOL0     H15193   8.319   1.186   5.255  1.9961 -2.8728  0.5166
  113MOL0     H15194   8.107   1.026   5.264  0.3331 -0.9640  1.7379
  113MOL0     H15195   8.078   1.108   5.423  2.6099  2.1736  0.7139
  113MOL0     H15196   8.057   1.317   5.296  2.8078 -1.3495  1.1340
  113MOL0     H15197   8.061   1.225   5.140  2.0065 -1.3165  0.8612
  113MOL0     H15198   7.847   1.276   5.160  0.4982 -1.7400 -0.7358
  113MOL0     H15199   7.865   1.105   5.191 -0.3626 -0.8653  1.2213
  113MOL0     H15200   7.848   1.157   5.430 -2.1117 -1.7737 -0.5044
  113MOL0     H15201   7.853   1.330   5.403  3.8785 -2.2547  1.5349
  113MOL0     H15202   7.630   1.289   5.445 -0.7773  1.4168 -0.5858
  113MOL0     H15203   7.635   1.276   5.262  3.6815 -0.5486 -1.2147
  113MOL0     H15204   7.593   1.075   5.476  1.9542  0.6618  1.4656
  113MOL0     H15205   7.668   1.012   5.333 -0.8309 -0.1683  0.5360
  113MOL0     H15206   7.547   1.094   5.080  0.3012 -1.0910 -0.3415
  113MOL0     H15207   7.249   1.248   5.007  1.7029  0.8048  2.2855
  113MOL0     H15208   7.312   1.105   4.926 -0.2636  1.5050 -0.3265
  113MOL0     H15209   7.060   1.102   5.083 -2.2775 -3.0834 -0.8065
  113MOL0     H15210   7.135   0.958   5.026 -0.8421 -0.5439  0.3925
  113MOL0     H15211   7.137   1.045   4.795  0.4462  0.1116  1.4341
  113MOL0     H15212   7.070   1.202   4.864 -2.6907  0.1294  3.3337
  113MOL0     H15213   6.921   0.932   4.898  0.9466 -0.1679 -0.5790
  113MOL0     H15214   6.898   1.014   4.751  1.4530 -1.7053 -1.2200
  113MOL0     H15215   6.708   0.903   4.783  2.1554  0.5429  1.4230
  113MOL0     H15216   6.524   0.756   4.737 -2.8555 -2.7836 -0.4761
  113MOL0     H15217   6.378   0.789   4.832 -0.0124  0.1790  1.3253
  113MOL0     H15218   6.396   0.855   4.675 -0.5709 -0.1404  1.0674
  113MOL0     H15219   6.086   0.869   4.917  0.5914  0.2528  0.6407
  113MOL0     H15220   5.869   0.806   4.969  0.0664  0.2426 -0.9654
  113MOL0     H15221   5.665   1.024   5.314 -0.9131  3.4299  0.1229
  113MOL0     H15222   5.591   1.097   5.173 -0.3978 -0.9552 -0.3740
  113MOL0     H15223   5.531   0.842   5.313  1.0127  0.0412  1.5152
  113MOL0     H15224   5.417   0.983   5.308  0.7098  0.9861 -0.5211
  113MOL0     H15225   5.498   0.785   5.096 -0.7588 -0.9655  0.1435
  113MOL0     H15226   5.412   0.928   5.048  0.3096 -0.5127 -0.5136
  113MOL0     H15227   5.290   0.679   5.083 -0.6633 -1.3199  1.7138
  113MOL0     H15228   5.302   0.720   5.254 -1.5519  1.0604  1.0731
  113MOL0     H15229   5.173   0.886   5.023 -1.4226 -1.7966 -0.0233
  113MOL0     H15230   5.169   0.934   5.192  2.4705  0.0749 -0.8241
  113MOL0     H15231   4.954   0.830   5.102  0.0596 -0.1949 -0.5087
  113MOL0     H15232   5.038   0.675   5.062 -0.2889 -1.0952  1.1563
  113MOL0     H15233   5.007   0.766   5.352  0.2471 -0.4756  0.7618
  113MOL0     H15234   5.079   0.618   5.282  0.5675  0.6094 -1.3127
  113MOL0     H15235   4.838   0.577   5.181  1.2163 -0.4060 -0.7566
  113MOL0     H15236   4.777   0.718   5.267  1.6104  0.9549 -1.0573
  113MOL0     H15237   5.821   1.166   5.193 -0.2696 -1.7950  1.4941
  113MOL0     H15238   6.028   1.250   5.115  4.8210 -1.2475  3.1386
  113MOL0     H15239   6.413   1.239   4.992 -0.1985  0.0824 -1.6818
  113MOL0     H15240   6.668   1.261   5.016 -0.9953 -1.1439  2.0773
  113MOL0     H15241   8.489   0.853   5.581  0.0442  1.7575 -2.6066
  113MOL0     H15242   8.645   0.894   5.778  2.4507  1.2471 -1.5945
  113MOL0     H15243   8.720   1.216   6.162 -0.2718  0.8896  0.0150
  113MOL0     H15244   8.869   1.230   6.332 -0.5609 -0.0255 -0.5976
  113MOL0     H15245   9.217   1.031   6.324  2.8876 -0.6137 -1.6551
  113MOL0     H15246   9.330   1.148   6.283 -0.6466 -0.8548 -0.4151
  113MOL0     H15247   9.184   1.130   6.553 -1.4156  0.9094 -3.3684
  113MOL0     H15248   9.326   1.230   6.514  0.2896 -0.0189  0.8011
  113MOL0     H15249   9.461   1.038   6.457  0.3797  1.9307  0.9972
  113MOL0     H15250   9.322   0.934   6.511  1.2753 -0.7928 -1.2408
  113MOL0     H15251   9.333   1.036   6.736 -0.4073 -2.8822 -1.0733
  113MOL0     H15252   9.473   1.135   6.680  0.3813 -0.7327  3.1264
  113MOL0     H15253   9.653   0.760   6.751  1.2972  0.4089 -1.5992
  113MOL0     H15254   9.201   1.156   6.066 -1.0589 -0.0993 -0.1597
  113MOL0     H15255   9.040   1.123   5.876  2.3591 -1.1856  0.9370
  114MOL0     O15256   7.015   6.346   4.285  0.6099 -0.1126  0.1835
  114MOL0     C15257   7.017   6.233   4.332 -0.0190 -0.4668  0.3476
  114MOL0     O15258   7.079   6.210   4.456 -0.0985  0.4141  0.2200
  114MOL0     C15259   7.156   6.301   4.527 -0.3475  0.0197  0.3345
  114MOL0     C15260   7.239   6.390   4.463  0.0841  0.3296  0.1210
  114MOL0     C15261   7.333   6.463   4.534  1.0993 -0.3961 -0.3328
  114MOL0     C15262   7.324   6.470   4.677 -1.0301 -0.5845 -1.5095
  114MOL0     O15263   7.401   6.561   4.752  0.0663 -0.1995 -0.6688
  114MOL0     C15264   7.331   6.635   4.861 -0.4582 -1.3103  0.2746
  114MOL0     C15265   7.427   6.752   4.907 -0.2414  0.2557 -0.9991
  114MOL0     C15266   7.535   6.688   4.998 -0.1794  0.0060 -0.1285
  114MOL0     C15267   7.661   6.751   4.975  0.0206 -0.0736  0.4266
  114MOL0     C15268   7.740   6.740   5.110  0.2273  0.0311 -0.4005
  114MOL0     C15269   7.873   6.810   5.082  0.2535  0.1452 -0.1200
  114MOL0     C15270   7.951   6.783   5.206 -0.4517 -0.1899  0.1534
  114MOL0     C15271   8.094   6.839   5.197  0.0829  0.1146 -0.1771
  114MOL0     N15272   8.092   6.985   5.182 -0.3965 -0.0837 -0.1328
  114MOL0     C15273   8.103   7.065   5.293  0.1755  0.4377 -0.7218
  114MOL0     C15274   8.104   7.187   5.246 -0.5641  0.3843 -0.8976
  114MOL0     C15275   8.127   7.312   5.328  0.4836  0.6120  0.2406
  114MOL0     C15276   8.266   7.355   5.349  0.0345 -0.5067 -0.2624
  114MOL0     C15277   8.282   7.455   5.464 -0.6658 -0.5321  0.3852
  114MOL0     C15278   8.213   7.591   5.434  1.3285  0.1673  0.2910
  114MOL0     O15279   8.073   7.585   5.446 -0.6474  0.1491  0.4837
  114MOL0     C15280   8.014   7.553   5.562 -1.2325  0.0861 -0.1943
  114MOL0     C15281   8.064   7.583   5.685  0.4366 -0.1184 -0.3589
  114MOL0     C15282   7.988   7.551   5.803  0.1882 -0.7858  0.2232
  114MOL0     C15283   8.040   7.619   5.931 -0.1355 -0.1231  0.4478
  114MOL0     C15284   7.873   7.474   5.795  0.5498  0.9864  0.6502
  114MOL0     C15285   7.794   7.426   5.910  0.1673  0.4393  0.2364
  114MOL0     O15286   7.661   7.418   5.889  0.0032 -0.0681  0.3836
  114MOL0     C15287   7.597   7.339   5.975  1.4896  0.0760 -0.5397
  114MOL0     C15288   7.465   7.377   6.014 -0.0626  0.3870  0.5250
  114MOL0     C15289   7.378   7.291   6.073 -0.5587 -0.2079  0.3452
  114MOL0     C15290   7.423   7.168   6.120  0.2172 -0.7030 -0.2561
  114MOL0     O15291   7.338   7.078   6.181 -1.0634 -0.1711 -0.0988
  114MOL0     C15292   7.386   6.962   6.246 -1.1105  0.8929  0.2078
  114MOL0     C15293   7.269   6.865   6.272  0.3801  0.4969 -0.2965
  114MOL0     C15294   7.184   6.915   6.391 -0.9298 -0.7641  0.1514
  114MOL0     C15295   7.089   6.809   6.445  0.2757 -0.3293 -0.0656
  114MOL0     C15296   7.028   6.871   6.558 -0.6510  0.3795 -0.4673
  114MOL0     C15297   6.958   6.761   6.636 -0.4959 -0.1451  0.2101
  114MOL0     C15298   6.906   6.816   6.768 -0.6655  0.5702 -0.3747
  114MOL0     C15299   6.872   6.703   6.870  0.0596 -0.0737  0.1097
  114MOL0    Cl15300   6.751   6.579   6.808 -0.3276  0.0252 -0.1721
  114MOL0     C15301   7.555   7.122   6.086  0.2742 -0.4513  0.0366
  114MOL0     C15302   7.637   7.204   6.003 -0.1798 -0.3637  0.2734
  114MOL0     O15303   7.853   7.412   6.015 -0.2556 -0.1718  0.3445
  114MOL0     C15304   7.829   7.440   5.660  0.6138  0.1034 -0.6705
  114MOL0     C15305   7.896   7.483   5.553  0.3347 -1.3341  0.3045
  114MOL0     N15306   8.084   7.185   5.107 -0.2980 -0.0817 -0.2906
  114MOL0     N15307   8.078   7.058   5.069 -0.0154  0.0514 -0.0275
  114MOL0     C15308   7.246   6.374   4.742 -0.6984 -0.5802 -0.6418
  114MOL0     C15309   7.169   6.281   4.667 -0.4908 -0.5622 -0.1325
  114MOL0     C15310   6.957   6.127   4.256 -0.2259 -0.6439  0.7871
  114MOL0     C15311   6.968   5.995   4.313 -0.7242 -0.0086 -0.2662
  114MOL0     C15312   6.887   5.895   4.252 -0.0092  0.1056 -0.6462
  114MOL0     C15313   6.808   5.914   4.140  0.2192  0.4465  0.5685
  114MOL0     O15314   6.731   5.813   4.094 -0.0925  0.1049 -0.4097
  114MOL0     C15315   6.626   5.834   4.000  0.5901  0.3656  0.5291
  114MOL0     C15316   6.508   5.917   4.035 -0.2186 -0.2863 -0.8528
  114MOL0     C15317   6.433   5.859   4.158 -0.4672  0.3428 -1.0859
  114MOL0     C15318   6.382   5.716   4.154  0.2959 -0.1400 -0.2998
  114MOL0     C15319   6.292   5.698   4.040 -0.0703  0.4194 -0.0052
  114MOL0     C15320   6.204   5.699   3.957 -0.6450  1.1203  0.7136
  114MOL0     C15321   6.818   6.036   4.075  0.6023 -0.4028 -1.0352
  114MOL0     C15322   6.883   6.139   4.131 -0.8443  0.4035 -0.1442
  114MOL0     H15323   7.240   6.403   4.355 -0.0132  1.3029  0.2247
  114MOL0     H15324   7.401   6.533   4.487  0.8566  0.2368  0.2530
  114MOL0     H15325   7.238   6.684   4.832 -1.4445 -0.7510  3.8721
  114MOL0     H15326   7.296   6.573   4.944 -0.3490 -2.3220 -0.4173
  114MOL0     H15327   7.476   6.808   4.826  1.9530 -2.9369 -2.0549
  114MOL0     H15328   7.364   6.825   4.959 -1.5406  0.5420 -2.8585
  114MOL0     H15329   7.501   6.690   5.102 -1.3472 -0.8296 -0.4689
  114MOL0     H15330   7.551   6.580   4.991  2.6705  0.3426  0.3065
  114MOL0     H15331   7.714   6.696   4.897  0.5363 -1.1764  1.5091
  114MOL0     H15332   7.651   6.854   4.940  3.5089 -0.1126 -1.1188
  114MOL0     H15333   7.690   6.793   5.191  0.5288  1.3701 -1.0510
  114MOL0     H15334   7.760   6.634   5.124 -0.8089 -0.2150 -0.7073
  114MOL0     H15335   7.919   6.767   4.992 -1.0394  2.3756 -1.9527
  114MOL0     H15336   7.867   6.919   5.073 -2.1922  0.0903  0.0448
  114MOL0     H15337   7.898   6.842   5.281 -2.6395 -3.1637  1.1710
  114MOL0     H15338   7.951   6.676   5.231 -2.2242 -0.2635 -0.0596
  114MOL0     H15339   8.146   6.803   5.108 -1.5241 -1.5780 -0.4995
  114MOL0     H15340   8.159   6.814   5.281  2.1728  1.0150 -1.4365
  114MOL0     H15341   8.114   7.044   5.399  0.3023  1.0957 -0.5998
  114MOL0     H15342   8.079   7.386   5.264 -0.8394 -0.0372  0.4445
  114MOL0     H15343   8.077   7.304   5.425  2.5483  1.0161  1.4172
  114MOL0     H15344   8.313   7.389   5.256 -2.5990 -2.2690 -2.4024
  114MOL0     H15345   8.314   7.266   5.391  0.5402  1.1513  2.9882
  114MOL0     H15346   8.390   7.466   5.476  0.0013 -5.1457  0.4409
  114MOL0     H15347   8.248   7.403   5.554 -0.9418 -2.2363 -0.6506
  114MOL0     H15348   8.227   7.626   5.331 -2.0592 -1.4741 -0.8944
  114MOL0     H15349   8.266   7.663   5.496  0.9437 -0.6835  1.6565
  114MOL0     H15350   8.144   7.656   5.698 -0.5414  1.0991 -1.0274
  114MOL0     H15351   8.057   7.545   6.011 -1.9997  0.5609  1.5423
  114MOL0     H15352   8.129   7.677   5.908  0.0792 -0.5058  0.2943
  114MOL0     H15353   7.970   7.695   5.966 -0.7762  0.7928 -2.5793
  114MOL0     H15354   7.427   7.472   5.976 -0.8088  0.3814  1.2247
  114MOL0     H15355   7.281   7.337   6.084 -0.0247  1.5573 -1.7604
  114MOL0     H15356   7.447   6.906   6.174 -1.8650 -0.0106  0.2487
  114MOL0     H15357   7.449   6.980   6.333  2.5127 -1.2796 -1.7282
  114MOL0     H15358   7.207   6.856   6.182 -0.5856  1.0910  0.2835
  114MOL0     H15359   7.312   6.766   6.290 -0.6006 -0.2234 -1.6411
  114MOL0     H15360   7.111   6.992   6.366  2.2245  2.7359  0.9874
  114MOL0     H15361   7.249   6.955   6.470 -1.4755  1.4443 -0.4548
  114MOL0     H15362   7.006   6.785   6.379 -2.1472  1.3576  2.1783
  114MOL0     H15363   7.143   6.718   6.472  1.1964  0.4712  0.9392
  114MOL0     H15364   6.951   6.940   6.523 -1.1941  1.3030  2.2558
  114MOL0     H15365   7.102   6.924   6.620 -1.8675  1.1351  0.3942
  114MOL0     H15366   6.876   6.721   6.576 -0.5732  1.1413 -0.5913
  114MOL0     H15367   7.031   6.683   6.658 -0.8980 -1.0644 -1.5383
  114MOL0     H15368   6.813   6.869   6.745 -1.8374 -0.2933  2.0391
  114MOL0     H15369   6.973   6.888   6.817 -0.6534  0.6406 -0.4933
  114MOL0     H15370   6.833   6.747   6.963 -2.4676 -0.0118 -0.8816
  114MOL0     H15371   6.966   6.653   6.893 -0.0791 -0.7927 -0.8262
  114MOL0     H15372   7.597   7.032   6.129 -1.9150 -1.6199 -0.1388
  114MOL0     H15373   7.727   7.162   5.959 -1.4623  1.2954 -4.5762
  114MOL0     H15374   7.742   7.377   5.645  1.7140 -2.0149  1.1570
  114MOL0     H15375   7.851   7.461   5.457  0.2398  0.9422 -0.2366
  114MOL0     H15376   7.238   6.369   4.851  1.9345 -0.9253 -0.4045
  114MOL0     H15377   7.114   6.205   4.721 -2.2909 -0.8277 -2.1683
  114MOL0     H15378   7.025   5.965   4.400 -0.7680 -1.1557 -0.6228
  114MOL0     H15379   6.888   5.797   4.298 -2.0288  0.8110  1.0441
  114MOL0     H15380   6.672   5.871   3.908  1.2896 -0.3073  0.5999
  114MOL0     H15381   6.583   5.737   3.974  1.2699  0.4909 -1.1736
  114MOL0     H15382   6.436   5.938   3.956 -1.5736 -0.0886  0.3867
  114MOL0     H15383   6.546   6.007   4.084 -4.0322 -0.4468  3.0283
  114MOL0     H15384   6.352   5.929   4.183 -0.3667  0.0998 -0.0330
  114MOL0     H15385   6.499   5.864   4.245 -2.9442 -0.4364  0.9840
  114MOL0     H15386   6.320   5.703   4.243 -0.0170  1.2806 -0.2804
  114MOL0     H15387   6.466   5.646   4.161  1.5748  1.5262  2.8847
  114MOL0     H15388   6.140   5.713   3.872  1.2465  1.0217 -0.8098
  114MOL0     H15389   6.771   6.049   3.978 -0.6383  1.1442 -0.2821
  114MOL0     H15390   6.894   6.228   4.070  0.6447  0.8753  0.7740
  115MOL0     O15391   0.480   7.081   4.805  0.0928 -0.8900 -0.0270
  115MOL0     C15392   0.538   7.136   4.715 -0.0118  0.0961 -0.4984
  115MOL0     O15393   0.488   7.171   4.598 -0.2549  0.4437  0.1856
  115MOL0     C15394   0.361   7.141   4.554 -0.0983 -0.9805  0.5490
  115MOL0     C15395   0.244   7.182   4.617  0.1889 -0.4376 -0.9233
  115MOL0     C15396   0.118   7.153   4.568 -0.3737  0.5204  0.0802
  115MOL0     C15397   0.108   7.089   4.442 -0.3024 -0.2450  0.1087
  115MOL0     O15398  -0.007   7.058   4.377 -0.8111 -0.5765 -0.8015
  115MOL0     C15399  -0.127   7.054   4.449  0.1897  0.2493  0.1887
  115MOL0     C15400  -0.237   6.996   4.352 -0.2947 -0.7292 -0.1364
  115MOL0     C15401  -0.238   7.076   4.214 -0.5993 -0.3222 -0.4415
  115MOL0     C15402  -0.350   7.022   4.132 -0.0591  0.1538 -0.3501
  115MOL0     C15403  -0.354   7.086   3.990 -0.5925 -0.1519 -0.4644
  115MOL0     C15404  -0.475   7.049   3.918 -0.1268  0.4593  0.1220
  115MOL0     C15405  -0.452   7.082   3.769 -0.1028  0.4918  0.3463
  115MOL0     C15406  -0.564   7.023   3.675  0.0636 -0.7619  0.0602
  115MOL0     N15407  -0.580   6.877   3.668  0.9566  1.0540  0.0355
  115MOL0     C15408  -0.637   6.787   3.765  0.0307  0.3071  0.5957
  115MOL0     C15409  -0.622   6.666   3.705  0.2846 -0.8554  0.2365
  115MOL0     C15410  -0.682   6.547   3.771  0.2408  0.7498 -0.3801
  115MOL0     C15411  -0.782   6.471   3.678 -0.2696 -0.7183 -1.0206
  115MOL0     C15412  -0.915   6.538   3.639  0.3554  0.0692 -0.0374
  115MOL0     C15413  -1.036   6.451   3.577 -0.2974 -0.2970  0.3523
  115MOL0     O15414  -1.134   6.551   3.551  0.0352  0.1850 -0.3137
  115MOL0     C15415  -1.264   6.509   3.534 -0.0341 -1.0653  1.1497
  115MOL0     C15416  -1.308   6.376   3.549  0.7341  0.4183 -0.2585
  115MOL0     C15417  -1.448   6.347   3.547  0.0650  0.0531  0.3257
  115MOL0     C15418  -1.479   6.193   3.558  0.2024 -0.4763 -0.4208
  115MOL0     C15419  -1.544   6.451   3.528  0.4444  0.7207 -0.9868
  115MOL0     C15420  -1.694   6.432   3.529 -0.2209 -0.0586  0.1132
  115MOL0     O15421  -1.774   6.547   3.516 -0.6389 -0.1152  0.7376
  115MOL0     C15422  -1.908   6.543   3.500 -0.1438 -0.0691  0.2886
  115MOL0     C15423  -1.986   6.443   3.442 -0.1904  0.6339  0.9265
  115MOL0     C15424  -2.126   6.437   3.442 -0.2335  0.4833  0.0945
  115MOL0     C15425  -2.188   6.531   3.517  0.6700  0.8213  0.4982
  115MOL0     O15426  -2.326   6.549   3.536  0.0720  0.6343 -0.1544
  115MOL0     C15427  -2.419   6.474   3.461 -0.2158 -0.2845  0.5373
  115MOL0     C15428  -2.444   6.332   3.517 -0.9284 -0.6514  0.2707
  115MOL0     C15429  -2.467   6.324   3.672  0.7084  1.0662 -0.2255
  115MOL0     C15430  -2.452   6.173   3.714  0.1237  0.2765  0.4874
  115MOL0     C15431  -2.305   6.115   3.723  0.1615  0.0559  0.6729
  115MOL0     C15432  -2.307   5.967   3.745  0.1623 -0.5322  0.1410
  115MOL0     C15433  -2.404   5.923   3.851  0.1229 -0.5012  0.5536
  115MOL0     C15434  -2.384   5.779   3.887  0.0452 -0.0114  0.2478
  115MOL0    Cl15435  -2.509   5.716   4.010 -0.3430 -0.2545  0.0082
  115MOL0     C15436  -2.111   6.628   3.589  0.3711  0.5844 -0.1636
  115MOL0     C15437  -1.977   6.636   3.576 -0.3893  0.1356  0.0312
  115MOL0     O15438  -1.734   6.318   3.534  0.7945 -0.3343  0.3781
  115MOL0     C15439  -1.498   6.582   3.497 -0.2292 -0.4578 -0.0111
  115MOL0     C15440  -1.363   6.610   3.512  0.4700  0.6543 -0.1281
  115MOL0     N15441  -0.569   6.682   3.578  0.0341  0.6361  0.5327
  115MOL0     N15442  -0.539   6.803   3.568 -0.3344  0.0306  0.1983
  115MOL0     C15443   0.225   7.046   4.379 -0.3843 -0.4208  0.4050
  115MOL0     C15444   0.352   7.074   4.431 -0.0050  0.2463 -0.1408
  115MOL0     C15445   0.675   7.181   4.742  0.0313 -0.2878 -0.5331
  115MOL0     C15446   0.749   7.128   4.852  0.5676  0.1144  0.2602
  115MOL0     C15447   0.881   7.174   4.876 -0.4421  0.0847 -0.4830
  115MOL0     C15448   0.943   7.253   4.786  0.0919  0.2006  0.4361
  115MOL0     O15449   1.074   7.274   4.803  0.0187 -0.1887 -0.3885
  115MOL0     C15450   1.113   7.411   4.819 -1.0444  0.1545  0.2835
  115MOL0     C15451   1.065   7.464   4.956  0.1528  0.2633 -0.8717
  115MOL0     C15452   1.128   7.399   5.074  0.0798 -0.9866 -0.2868
  115MOL0     C15453   1.252   7.479   5.110 -0.3731  0.5510  1.5637
  115MOL0     C15454   1.320   7.441   5.234  0.0999 -0.8972 -0.4803
  115MOL0     C15455   1.363   7.399   5.340 -0.6685  0.4443 -0.4026
  115MOL0     C15456   0.877   7.301   4.677  0.4771 -0.2727  0.7673
  115MOL0     C15457   0.745   7.266   4.653 -0.0560  0.4221 -0.9318
  115MOL0     H15458   0.250   7.236   4.711 -2.4631  0.5203 -1.2130
  115MOL0     H15459   0.028   7.186   4.619 -1.6067 -0.7121 -1.2096
  115MOL0     H15460  -0.124   6.989   4.537 -1.0393 -1.5369 -1.0450
  115MOL0     H15461  -0.166   7.154   4.471 -0.5050 -0.2616  1.3822
  115MOL0     H15462  -0.231   6.887   4.343 -0.1747 -0.7460  0.1412
  115MOL0     H15463  -0.337   6.999   4.395 -1.3926 -1.5421 -2.4392
  115MOL0     H15464  -0.246   7.184   4.232 -0.6231  0.1744 -2.9830
  115MOL0     H15465  -0.146   7.063   4.156 -0.9166  1.6077 -1.4731
  115MOL0     H15466  -0.341   6.913   4.125 -2.2504 -0.3294  2.5730
  115MOL0     H15467  -0.445   7.039   4.184  0.1717  1.4156 -0.3069
  115MOL0     H15468  -0.351   7.195   3.995  0.1850 -0.2235  0.9782
  115MOL0     H15469  -0.261   7.055   3.942  0.1754 -0.3710  1.1387
  115MOL0     H15470  -0.482   6.940   3.927 -1.2915  0.2979 -2.1451
  115MOL0     H15471  -0.564   7.098   3.958 -0.9758  0.0011 -1.1571
  115MOL0     H15472  -0.433   7.189   3.758 -0.6371  0.7867  2.0168
  115MOL0     H15473  -0.357   7.038   3.736 -0.1431 -1.1032  2.1592
  115MOL0     H15474  -0.552   7.062   3.573 -0.5628  0.3140  0.3859
  115MOL0     H15475  -0.659   7.065   3.708 -0.0992  0.3223 -1.6321
  115MOL0     H15476  -0.690   6.807   3.858 -2.4542 -1.2778 -0.3668
  115MOL0     H15477  -0.604   6.475   3.795 -0.9250 -0.0970  1.0179
  115MOL0     H15478  -0.732   6.573   3.864 -0.4682  2.6441 -1.2295
  115MOL0     H15479  -0.795   6.381   3.738  0.3396  0.0619  0.3300
  115MOL0     H15480  -0.728   6.439   3.588  1.4397  2.9905 -1.5340
  115MOL0     H15481  -0.900   6.621   3.569 -0.1700 -0.7943 -1.2123
  115MOL0     H15482  -0.955   6.581   3.731 -1.1336  2.6523 -1.7611
  115MOL0     H15483  -1.075   6.379   3.650 -1.9224 -0.0855 -0.2642
  115MOL0     H15484  -1.009   6.396   3.487 -0.3626  1.1625 -0.5897
  115MOL0     H15485  -1.242   6.292   3.566  0.8328  0.5356 -0.0632
  115MOL0     H15486  -1.558   6.173   3.631 -0.3608  2.5057 -0.0929
  115MOL0     H15487  -1.501   6.166   3.455 -0.4070  2.7164 -1.2397
  115MOL0     H15488  -1.391   6.137   3.593 -0.1682  0.3334  2.0116
  115MOL0     H15489  -1.926   6.369   3.390 -1.2073  0.0631  0.5469
  115MOL0     H15490  -2.172   6.364   3.376 -1.7440  0.7195  0.8346
  115MOL0     H15491  -2.516   6.524   3.470 -0.6735 -1.0977  0.1739
  115MOL0     H15492  -2.386   6.477   3.356 -1.1666  0.4974  0.2470
  115MOL0     H15493  -2.533   6.291   3.469 -1.6344 -0.1367  1.1162
  115MOL0     H15494  -2.368   6.257   3.493 -2.3771 -1.5641 -1.7724
  115MOL0     H15495  -2.567   6.360   3.696  0.4503 -0.5018  1.2604
  115MOL0     H15496  -2.386   6.373   3.727  1.4094 -1.7422  1.4895
  115MOL0     H15497  -2.489   6.174   3.817 -1.2968  1.2405 -0.0168
  115MOL0     H15498  -2.510   6.105   3.652 -1.6148  1.2669  0.9718
  115MOL0     H15499  -2.258   6.169   3.806 -2.5035 -0.7813  2.8643
  115MOL0     H15500  -2.251   6.145   3.632  0.6730 -2.1179  0.1929
  115MOL0     H15501  -2.328   5.916   3.651  1.7437  0.3733 -0.7419
  115MOL0     H15502  -2.205   5.937   3.770  0.3721 -1.0081 -1.2058
  115MOL0     H15503  -2.505   5.933   3.808  0.6360  1.4500 -0.3254
  115MOL0     H15504  -2.407   5.988   3.939  0.3718  1.0503 -0.5339
  115MOL0     H15505  -2.282   5.765   3.922 -0.9316 -0.7414  3.0285
  115MOL0     H15506  -2.393   5.720   3.795  2.0177 -1.2511  0.7900
  115MOL0     H15507  -2.163   6.697   3.655  0.0083 -1.1882  1.5184
  115MOL0     H15508  -1.921   6.709   3.634  3.1187 -1.0074 -1.6658
  115MOL0     H15509  -1.566   6.664   3.478 -0.0194  0.3175  2.2798
  115MOL0     H15510  -1.337   6.714   3.498  2.5233 -0.1025 -2.6088
  115MOL0     H15511   0.224   6.994   4.283  3.1749 -0.9725  0.5219
  115MOL0     H15512   0.436   7.049   4.368 -0.9816 -1.5296 -0.7841
  115MOL0     H15513   0.696   7.062   4.920 -3.1523  0.3838 -2.0951
  115MOL0     H15514   0.933   7.137   4.964 -2.3599 -0.0056  0.6687
  115MOL0     H15515   1.222   7.415   4.812 -1.1630  2.2765 -4.3328
  115MOL0     H15516   1.085   7.469   4.731  1.7630 -2.5662 -2.6870
  115MOL0     H15517   0.957   7.443   4.959 -0.4872  3.3197  0.7294
  115MOL0     H15518   1.071   7.572   4.964 -3.3151  0.4624  1.1258
  115MOL0     H15519   1.150   7.293   5.055  0.0255 -0.9631 -0.4871
  115MOL0     H15520   1.055   7.407   5.155  0.3099 -1.9267  0.0298
  115MOL0     H15521   1.233   7.587   5.111  3.2194  1.3516  0.2333
  115MOL0     H15522   1.326   7.461   5.031 -2.4809  0.4912 -0.4956
  115MOL0     H15523   1.411   7.363   5.428 -2.1018 -2.8180 -0.7962
  115MOL0     H15524   0.928   7.366   4.607 -0.2698 -1.6944 -1.1979
  115MOL0     H15525   0.694   7.316   4.571 -1.9842  1.9768  1.0827
  116MOL0     O15526   0.506   8.166   1.266  0.6808  0.3888 -0.0853
  116MOL0     C15527   0.537   8.129   1.381 -0.0126 -0.1698  0.4536
  116MOL0     O15528   0.450   8.110   1.489 -0.8574  0.0515 -0.3616
  116MOL0     C15529   0.318   8.170   1.477  0.6060 -0.6605 -0.5532
  116MOL0     C15530   0.273   8.273   1.562  0.6932  0.0256 -0.7202
  116MOL0     C15531   0.141   8.327   1.544  0.0799 -0.3299  0.6663
  116MOL0     C15532   0.061   8.279   1.437 -0.0261  0.2957 -0.4029
  116MOL0     O15533  -0.061   8.339   1.413 -0.1715  0.5369 -0.3100
  116MOL0     C15534  -0.149   8.294   1.308 -0.1764  0.3191  0.6484
  116MOL0     C15535  -0.287   8.345   1.335  0.4428  0.2096  0.4681
  116MOL0     C15536  -0.303   8.500   1.318 -0.2079  0.2911 -0.1329
  116MOL0     C15537  -0.448   8.527   1.305  0.2831 -1.1918 -0.5585
  116MOL0     C15538  -0.472   8.675   1.305  0.4481 -0.2775  0.2167
  116MOL0     C15539  -0.457   8.733   1.445  0.1313 -0.7502 -0.4412
  116MOL0     C15540  -0.519   8.872   1.461 -0.5910 -0.7530  0.3082
  116MOL0     C15541  -0.670   8.865   1.491 -0.1722 -0.0431  0.6900
  116MOL0     N15542  -0.702   8.840   1.630 -0.6984  0.0130  0.2032
  116MOL0     C15543  -0.746   8.944   1.717  0.3891  0.1588  0.2651
  116MOL0     C15544  -0.769   8.882   1.841  0.7177 -0.0292  0.3201
  116MOL0     C15545  -0.822   8.953   1.962 -1.1487 -0.3474  0.5044
  116MOL0     C15546  -0.972   8.960   1.960 -0.5863 -0.1204 -0.0062
  116MOL0     C15547  -1.022   9.035   2.085  0.3065  0.4857 -0.4288
  116MOL0     C15548  -1.169   9.070   2.065 -0.0459  0.3669  0.7245
  116MOL0     O15549  -1.249   8.952   2.054 -0.8238 -0.1537 -0.2025
  116MOL0     C15550  -1.378   8.959   2.097 -0.5348 -0.0117 -0.7686
  116MOL0     C15551  -1.419   8.852   2.171 -0.1461 -0.1352  0.4617
  116MOL0     C15552  -1.554   8.835   2.214 -0.1660  0.2951 -0.8915
  116MOL0     C15553  -1.588   8.692   2.266 -0.5233 -0.0242 -0.2126
  116MOL0     C15554  -1.642   8.949   2.201  0.8157  0.0618  0.2669
  116MOL0     C15555  -1.788   8.949   2.247 -0.0984  0.5601  0.3737
  116MOL0     O15556  -1.875   9.030   2.171 -0.2221 -0.2789 -0.0892
  116MOL0     C15557  -2.003   9.070   2.204 -0.0832  0.8135  0.5516
  116MOL0     C15558  -2.050   9.095   2.335 -0.2609  0.1889 -0.5990
  116MOL0     C15559  -2.178   9.136   2.359  0.3315 -1.3925 -0.5178
  116MOL0     C15560  -2.272   9.140   2.255 -0.6448 -0.0800 -0.3747
  116MOL0     O15561  -2.406   9.165   2.286 -0.2555  0.0097  0.5821
  116MOL0     C15562  -2.501   9.084   2.215 -0.0870  0.0859 -0.4784
  116MOL0     C15563  -2.643   9.106   2.279  0.4454 -0.3497  0.3470
  116MOL0     C15564  -2.660   9.074   2.422  0.8100 -0.3978 -0.2637
  116MOL0     C15565  -2.808   9.096   2.474 -0.4611  0.4910  0.4470
  116MOL0     C15566  -2.897   8.978   2.434  0.0378  0.0686 -0.2962
  116MOL0     C15567  -3.034   8.995   2.492  0.2847  0.0226  0.3629
  116MOL0     C15568  -3.112   9.113   2.417  0.1636 -0.2340 -0.4469
  116MOL0     C15569  -3.236   9.158   2.499  0.1813 -0.1748  0.2905
  116MOL0    Cl15570  -3.329   9.270   2.412 -0.6196 -0.2074  0.0787
  116MOL0     C15571  -2.232   9.111   2.121 -0.3542 -0.7458  0.7067
  116MOL0     C15572  -2.097   9.085   2.094  0.7474  1.2747  0.9078
  116MOL0     O15573  -1.825   8.859   2.324  0.1928 -0.0152  0.4164
  116MOL0     C15574  -1.596   9.058   2.119  0.1477 -0.6956 -0.1599
  116MOL0     C15575  -1.463   9.068   2.069 -1.0670 -0.1718 -0.2246
  116MOL0     N15576  -0.733   8.748   1.826 -0.2523 -0.7408 -0.2691
  116MOL0     N15577  -0.692   8.722   1.703 -0.2732  0.5737 -0.0540
  116MOL0     C15578   0.113   8.172   1.355 -0.0140  0.2606 -0.2445
  116MOL0     C15579   0.229   8.112   1.387 -0.0135  0.0190  0.4446
  116MOL0     C15580   0.676   8.103   1.418  1.8931 -1.3348  0.5032
  116MOL0     C15581   0.722   8.147   1.539  0.2525 -0.2903 -0.1780
  116MOL0     C15582   0.852   8.131   1.558 -0.1494 -1.0465  0.1827
  116MOL0     C15583   0.941   8.080   1.472  0.1689 -0.3590  0.0514
  116MOL0     O15584   1.062   8.040   1.507  0.1105  0.0307  0.5529
  116MOL0     C15585   1.137   8.130   1.597 -0.0051  0.0761 -0.4767
  116MOL0     C15586   1.282   8.093   1.587  0.0252 -0.2994 -0.3394
  116MOL0     C15587   1.365   8.170   1.682  0.5425  0.0035 -0.4442
  116MOL0     C15588   1.514   8.187   1.644 -0.7859 -0.4466  0.1145
  116MOL0     C15589   1.587   8.059   1.638  0.8494  1.5039 -0.7044
  116MOL0     C15590   1.639   7.952   1.632 -0.4838  0.3848  0.4388
  116MOL0     C15591   0.896   8.054   1.346  0.4395 -0.4488  0.1522
  116MOL0     C15592   0.764   8.071   1.316 -0.1075 -0.5934 -0.3802
  116MOL0     H15593   0.327   8.308   1.649  0.6539 -1.6538  0.0074
  116MOL0     H15594   0.095   8.399   1.610 -3.2042 -1.1374 -0.5906
  116MOL0     H15595  -0.118   8.331   1.210  1.3707 -1.0555  0.5657
  116MOL0     H15596  -0.147   8.185   1.304 -1.0584  0.3172  0.1087
  116MOL0     H15597  -0.358   8.297   1.268  1.8569 -1.0097 -0.2237
  116MOL0     H15598  -0.316   8.307   1.434 -2.4322 -0.9383 -0.7031
  116MOL0     H15599  -0.251   8.540   1.405 -0.9663 -1.9809  1.4755
  116MOL0     H15600  -0.256   8.539   1.227  0.4328  0.4904  0.2728
  116MOL0     H15601  -0.479   8.497   1.205 -0.0515  3.0393 -1.9388
  116MOL0     H15602  -0.499   8.466   1.380 -2.3026 -2.1038 -2.9100
  116MOL0     H15603  -0.414   8.731   1.231  1.4355 -3.5152 -1.6420
  116MOL0     H15604  -0.578   8.679   1.281  0.9404  1.1006 -2.0896
  116MOL0     H15605  -0.503   8.667   1.519 -1.5467  2.0324  1.1136
  116MOL0     H15606  -0.351   8.737   1.470  0.1007  1.6907 -0.5513
  116MOL0     H15607  -0.484   8.927   1.548 -3.3960 -1.7091  2.1754
  116MOL0     H15608  -0.500   8.931   1.371 -2.6584 -1.5970 -0.7596
  116MOL0     H15609  -0.713   8.788   1.425 -2.1405 -0.2517  2.1394
  116MOL0     H15610  -0.713   8.961   1.462 -1.6173 -0.4043  1.5419
  116MOL0     H15611  -0.767   9.045   1.686  0.4576  0.1647  0.2379
  116MOL0     H15612  -0.774   8.921   2.056 -0.3356  1.1459  0.6249
  116MOL0     H15613  -0.793   9.057   1.950 -2.5612  0.0343  0.2547
  116MOL0     H15614  -1.017   8.861   1.960 -1.5352  0.2597  2.0808
  116MOL0     H15615  -1.000   9.013   1.868  0.2955 -0.8859 -0.7388
  116MOL0     H15616  -0.964   9.121   2.119 -0.4076  1.1445 -0.8316
  116MOL0     H15617  -1.003   8.959   2.162  0.9360 -0.6013 -1.6244
  116MOL0     H15618  -1.176   9.131   1.975 -3.2202 -1.5972 -0.5184
  116MOL0     H15619  -1.210   9.132   2.146 -2.6987 -0.9938  0.5495
  116MOL0     H15620  -1.346   8.772   2.183 -0.0426 -0.0571  0.3532
  116MOL0     H15621  -1.687   8.657   2.235 -1.2112 -0.7341  2.4897
  116MOL0     H15622  -1.517   8.619   2.227  0.4891  1.4763 -1.2933
  116MOL0     H15623  -1.591   8.702   2.375  1.1535  2.1748 -0.3116
  116MOL0     H15624  -1.984   9.058   2.413 -3.7663 -1.6768  1.7356
  116MOL0     H15625  -2.207   9.165   2.460  1.9307 -1.8433  0.0984
  116MOL0     H15626  -2.504   9.111   2.109  0.8514 -0.8223 -0.7561
  116MOL0     H15627  -2.475   8.977   2.214 -0.0420  0.0827  0.1509
  116MOL0     H15628  -2.666   9.213   2.268 -1.6533 -0.8298 -0.4157
  116MOL0     H15629  -2.720   9.053   2.222 -1.8394  3.7140 -0.7549
  116MOL0     H15630  -2.593   9.130   2.488 -0.6968 -2.5489  3.3979
  116MOL0     H15631  -2.630   8.969   2.431  0.9263 -0.4258 -0.9032
  116MOL0     H15632  -2.795   9.091   2.582 -1.7067  3.0563  0.7816
  116MOL0     H15633  -2.838   9.196   2.440  1.3103  1.3628  1.3200
  116MOL0     H15634  -2.850   8.889   2.477  1.2301  2.0834  2.9243
  116MOL0     H15635  -2.907   8.973   2.325  0.1148  0.6928 -0.3334
  116MOL0     H15636  -3.092   8.903   2.499 -0.0051  0.2468  0.9370
  116MOL0     H15637  -3.025   9.035   2.594  0.2615  1.7367 -0.2646
  116MOL0     H15638  -3.148   9.065   2.326 -0.9227 -3.2958  1.4212
  116MOL0     H15639  -3.051   9.203   2.408  1.5958 -0.7924  2.3960
  116MOL0     H15640  -3.213   9.204   2.595  1.3541 -1.2437  0.5494
  116MOL0     H15641  -3.306   9.075   2.517 -0.1134  0.1318  0.5707
  116MOL0     H15642  -2.302   9.120   2.038  0.7657  2.4039 -0.0428
  116MOL0     H15643  -2.055   9.048   2.002  1.0326 -0.3896  1.6662
  116MOL0     H15644  -1.656   9.144   2.093 -0.1522 -0.6255  0.7608
  116MOL0     H15645  -1.435   9.149   2.003 -0.8848  1.1444  1.4162
  116MOL0     H15646   0.051   8.122   1.280  1.3848 -1.6762 -0.1784
  116MOL0     H15647   0.255   8.023   1.330 -0.4871  0.6369 -0.7756
  116MOL0     H15648   0.658   8.190   1.616  1.9659 -0.7278  1.5597
  116MOL0     H15649   0.874   8.171   1.657 -1.9142  1.0023 -0.1779
  116MOL0     H15650   1.132   8.239   1.585 -1.1339 -0.0348 -1.1695
  116MOL0     H15651   1.098   8.113   1.698 -1.0810 -0.4323 -0.9658
  116MOL0     H15652   1.303   8.103   1.480 -0.2778 -0.4723 -0.4141
  116MOL0     H15653   1.291   7.986   1.607 -1.0280 -0.4728 -0.7574
  116MOL0     H15654   1.359   8.130   1.783 -0.7015 -2.4663 -1.4024
  116MOL0     H15655   1.321   8.270   1.690  1.1806  0.3068 -0.6450
  116MOL0     H15656   1.557   8.252   1.720 -0.3184 -0.2522 -0.3059
  116MOL0     H15657   1.520   8.237   1.547  0.8405  2.7995  1.7067
  116MOL0     H15658   1.703   7.866   1.634  1.6142  1.8570  0.4114
  116MOL0     H15659   0.962   8.013   1.269  0.6685 -1.8110  1.0289
  116MOL0     H15660   0.726   8.062   1.214  1.7106  3.1727 -1.5804
  117MOL0     O15661   6.678   9.700   3.995  0.2891 -0.0597 -0.4322
  117MOL0     C15662   6.663   9.805   4.052  0.2947 -0.9768  0.2153
  117MOL0     O15663   6.763   9.883   4.112  0.5586 -0.2254  0.4327
  117MOL0     C15664   6.897   9.869   4.094  0.1067 -0.1518 -0.3166
  117MOL0     C15665   6.974   9.949   4.179 -0.7819  0.4265 -0.7092
  117MOL0     C15666   7.113   9.956   4.187  0.1818  0.5131  0.8337
  117MOL0     C15667   7.186   9.882   4.094  0.2849  0.5310 -0.4046
  117MOL0     O15668   7.323   9.895   4.083 -0.0573 -0.1728 -0.1420
  117MOL0     C15669   7.394   9.821   3.974 -0.3728  0.7930  0.5269
  117MOL0     C15670   7.544   9.833   3.987  0.1435 -0.1714 -0.8453
  117MOL0     C15671   7.593   9.717   4.085  0.8226 -0.0584  0.7134
  117MOL0     C15672   7.737   9.699   4.070 -0.7647 -0.1993 -0.0806
  117MOL0     C15673   7.792   9.578   4.153 -0.5749  0.1074  1.0553
  117MOL0     C15674   7.798   9.613   4.308  0.2812 -0.3209  0.2890
  117MOL0     C15675   7.882   9.516   4.399 -0.7631  0.3155  0.7616
  117MOL0     C15676   7.931   9.577   4.534  0.1112  0.1160 -0.9237
  117MOL0     N15677   8.060   9.644   4.545  0.5189 -0.1986  0.0026
  117MOL0     C15678   8.170   9.571   4.531  0.0124 -0.2016 -0.1729
  117MOL0     C15679   8.275   9.660   4.547  0.3393  0.4738  1.1324
  117MOL0     C15680   8.423   9.634   4.545  0.5778  0.4586  0.4878
  117MOL0     C15681   8.463   9.555   4.661  0.1570 -0.0609  0.1767
  117MOL0     C15682   8.471   9.405   4.628 -0.8354  0.0055 -0.1585
  117MOL0     C15683   8.517   9.310   4.745 -0.2186  1.1442 -1.1847
  117MOL0     O15684   8.638   9.345   4.809 -0.9194  0.1165 -0.0094
  117MOL0     C15685   8.675   9.266   4.918 -0.0290  0.2143  0.1239
  117MOL0     C15686   8.810   9.279   4.961  0.6017 -0.2979 -0.0541
  117MOL0     C15687   8.863   9.195   5.062 -0.5243  0.0893 -0.6077
  117MOL0     C15688   9.009   9.218   5.098 -0.3468 -0.1284 -0.0738
  117MOL0     C15689   8.784   9.099   5.124 -0.6499  0.0660  0.7505
  117MOL0     C15690   8.826   9.026   5.250  0.4006  0.4897  0.9762
  117MOL0     O15691   8.724   8.955   5.315  0.1621 -0.5235  0.2364
  117MOL0     C15692   8.731   8.847   5.396 -0.1881 -0.2126 -0.2300
  117MOL0     C15693   8.625   8.811   5.482 -0.2556  0.0384  0.1287
  117MOL0     C15694   8.639   8.710   5.575  0.0742 -0.4277  0.2388
  117MOL0     C15695   8.752   8.649   5.597 -0.3146  0.6169  0.7272
  117MOL0     O15696   8.750   8.542   5.686  0.2213 -0.7832 -0.2222
  117MOL0     C15697   8.866   8.536   5.771  0.1988 -0.5539 -0.6167
  117MOL0     C15698   8.866   8.668   5.855 -0.7450 -0.1870  0.3860
  117MOL0     C15699   8.738   8.695   5.944 -0.0484 -0.0450 -1.0720
  117MOL0     C15700   8.728   8.577   6.037  0.7897  0.1751 -1.0829
  117MOL0     C15701   8.614   8.613   6.141  0.4740 -0.2095  0.7673
  117MOL0     C15702   8.615   8.544   6.277 -0.9494 -0.6631  0.9009
  117MOL0     C15703   8.539   8.616   6.386 -0.2134 -0.4719  0.2271
  117MOL0     C15704   8.391   8.584   6.369 -0.0288 -0.1844 -0.0786
  117MOL0    Cl15705   8.300   8.620   6.517 -0.0491  0.3750 -0.0910
  117MOL0     C15706   8.859   8.677   5.507 -0.2799  0.8427 -0.4093
  117MOL0     C15707   8.855   8.777   5.419 -0.1218 -0.6757  0.7153
  117MOL0     O15708   8.946   9.009   5.267  0.5199  0.1553  0.0117
  117MOL0     C15709   8.661   9.085   5.069 -0.1331 -0.6384  0.4455
  117MOL0     C15710   8.609   9.155   4.967  1.3331  0.0795 -0.4495
  117MOL0     N15711   8.218   9.785   4.559 -0.1438 -0.4940 -0.5443
  117MOL0     N15712   8.092   9.778   4.565  0.3264 -0.4816 -0.2307
  117MOL0     C15713   7.107   9.794   4.007  0.0349  0.2809  0.5050
  117MOL0     C15714   6.974   9.784   4.012  0.5642  0.7368 -0.5164
  117MOL0     C15715   6.527   9.874   4.048  0.0289 -0.1519  0.1325
  117MOL0     C15716   6.509  10.000   4.111 -0.2955 -0.4234 -1.2305
  117MOL0     C15717   6.385  10.071   4.105  0.0834  0.0622 -0.8861
  117MOL0     C15718   6.278  10.009   4.032 -0.3391  0.3971  0.0546
  117MOL0     O15719   6.150  10.058   4.021 -0.3981 -0.8196  0.6127
  117MOL0     C15720   6.125  10.182   4.096 -0.5171 -0.2124 -1.4967
  117MOL0     C15721   5.982  10.181   4.158 -0.2124 -0.8589  0.0538
  117MOL0     C15722   5.865  10.211   4.057 -0.4367  1.1203 -0.7572
  117MOL0     C15723   5.732  10.176   4.124  1.2981 -0.1739  0.0233
  117MOL0     C15724   5.628  10.157   4.018 -0.2082 -0.0049 -0.4188
  117MOL0     C15725   5.548  10.122   3.941  0.3573 -1.0380  0.2216
  117MOL0     C15726   6.303   9.887   3.966  0.1125 -0.5885  0.0106
  117MOL0     C15727   6.424   9.822   3.969 -0.5058 -0.7623  0.4522
  117MOL0     H15728   6.927  10.016   4.250  3.2585  1.0769  1.6586
  117MOL0     H15729   7.161  10.024   4.257  0.2758 -0.8574  2.1415
  117MOL0     H15730   7.359   9.717   3.976 -1.5135  1.1078 -1.0977
  117MOL0     H15731   7.371   9.863   3.876  3.9284  1.1893 -0.5043
  117MOL0     H15732   7.594   9.823   3.891 -0.1350 -0.8802 -0.9213
  117MOL0     H15733   7.562   9.934   4.026 -2.2825 -0.0889  0.2262
  117MOL0     H15734   7.579   9.754   4.187  3.8492  0.8252  0.8973
  117MOL0     H15735   7.534   9.626   4.071 -0.4563  1.0101 -1.3207
  117MOL0     H15736   7.763   9.677   3.966 -1.4703  3.2490 -1.0987
  117MOL0     H15737   7.794   9.789   4.097 -0.9656  0.5152 -1.9187
  117MOL0     H15738   7.723   9.495   4.134  0.7024 -0.3312 -2.2764
  117MOL0     H15739   7.887   9.547   4.109 -2.5827 -1.8225 -2.3736
  117MOL0     H15740   7.848   9.710   4.316 -0.0853  0.0193 -1.3362
  117MOL0     H15741   7.695   9.628   4.342 -0.2696  5.8054 -2.7799
  117MOL0     H15742   7.818   9.428   4.404 -1.7593  1.0168  0.6747
  117MOL0     H15743   7.970   9.476   4.349  0.0253  1.8344  0.8663
  117MOL0     H15744   7.923   9.497   4.608 -2.0870 -0.1094 -1.3302
  117MOL0     H15745   7.855   9.655   4.547 -0.3563 -0.1676 -1.8779
  117MOL0     H15746   8.171   9.463   4.535 -4.6968 -0.6254 -2.5868
  117MOL0     H15747   8.449   9.591   4.448 -2.5138  0.8885 -0.6568
  117MOL0     H15748   8.482   9.727   4.549  3.7587 -1.3873 -0.0735
  117MOL0     H15749   8.399   9.584   4.744  1.6594  0.2944  1.2437
  117MOL0     H15750   8.565   9.588   4.680 -0.0219  0.8207 -0.3198
  117MOL0     H15751   8.542   9.401   4.545  3.9148  1.8194  3.3370
  117MOL0     H15752   8.371   9.366   4.610 -0.9316  0.6312 -0.9999
  117MOL0     H15753   8.529   9.213   4.696 -0.5728  0.0699  0.7658
  117MOL0     H15754   8.444   9.310   4.827  1.6921  1.4097  0.6020
  117MOL0     H15755   8.871   9.358   4.916  1.6917 -1.5721 -0.8964
  117MOL0     H15756   9.067   9.126   5.082  1.3731  0.5314  1.9590
  117MOL0     H15757   9.057   9.295   5.037  0.4212 -0.3123  0.2940
  117MOL0     H15758   9.030   9.244   5.202  1.3426  1.0868 -0.6677
  117MOL0     H15759   8.536   8.873   5.489 -1.0299 -1.0207 -0.0759
  117MOL0     H15760   8.560   8.700   5.648  1.7754  2.1115  2.6297
  117MOL0     H15761   8.854   8.455   5.843  1.6927  0.3767  0.7651
  117MOL0     H15762   8.957   8.517   5.714 -0.2688 -0.3193 -1.4476
  117MOL0     H15763   8.947   8.660   5.927 -0.4349  1.2108  0.2256
  117MOL0     H15764   8.894   8.752   5.790  3.0634 -2.3826 -1.1189
  117MOL0     H15765   8.645   8.694   5.886 -0.5851 -0.2485 -0.2320
  117MOL0     H15766   8.753   8.790   5.997 -0.5644 -0.1947 -0.6459
  117MOL0     H15767   8.697   8.490   5.979  0.2270  2.4461 -4.4235
  117MOL0     H15768   8.812   8.559   6.105 -0.3534 -1.2624  0.0281
  117MOL0     H15769   8.513   8.590   6.105 -0.3672  2.0135  1.5366
  117MOL0     H15770   8.612   8.722   6.150 -2.1681  0.1558 -2.2156
  117MOL0     H15771   8.592   8.437   6.267  1.5264 -1.1189 -0.8871
  117MOL0     H15772   8.717   8.554   6.314 -0.8482 -0.4198  0.5542
  117MOL0     H15773   8.555   8.725   6.384 -0.8084 -0.3556  1.0116
  117MOL0     H15774   8.571   8.576   6.483  1.1482  1.1859  0.5090
  117MOL0     H15775   8.374   8.481   6.337 -1.0890 -0.3545  0.9412
  117MOL0     H15776   8.345   8.647   6.292  0.8237 -0.1715 -0.5955
  117MOL0     H15777   8.954   8.627   5.521 -1.6517 -1.5774  1.1005
  117MOL0     H15778   8.950   8.790   5.367 -0.9733 -1.0696 -1.0260
  117MOL0     H15779   8.597   9.004   5.102  0.3789 -1.8792 -1.4341
  117MOL0     H15780   8.508   9.119   4.955  0.2216  1.6136  2.9123
  117MOL0     H15781   7.156   9.721   3.942  0.7814 -1.1690  2.5798
  117MOL0     H15782   6.919   9.711   3.953  0.7231 -0.9460  1.2990
  117MOL0     H15783   6.589  10.055   4.160 -2.4708  0.4067  1.5818
  117MOL0     H15784   6.383  10.166   4.157  1.2066 -0.3133 -0.1083
  117MOL0     H15785   6.190  10.187   4.184 -1.6801  0.3179 -0.6466
  117MOL0     H15786   6.143  10.266   4.028  3.4520 -1.3894 -2.2028
  117MOL0     H15787   5.980  10.259   4.234  2.3802  0.3804 -1.0450
  117MOL0     H15788   5.957  10.091   4.215  0.3147 -0.5850  0.7252
  117MOL0     H15789   5.887  10.152   3.968  0.9308 -2.2750  1.6248
  117MOL0     H15790   5.870  10.318   4.033  2.0862  0.9323 -1.3246
  117MOL0     H15791   5.694  10.255   4.189  0.7611 -0.9293  0.6364
  117MOL0     H15792   5.735  10.088   4.189 -2.7682  0.2074  0.9928
  117MOL0     H15793   5.487  10.094   3.858 -3.4886 -0.3082  2.5716
  117MOL0     H15794   6.214   9.845   3.920 -0.6280  1.4290 -0.5282
  117MOL0     H15795   6.436   9.731   3.911 -1.5014 -1.7005  1.6550
  118MOL0     O15796   8.002  11.075   6.399 -0.0593 -0.1130 -0.7786
  118MOL0     C15797   8.036  11.122   6.509 -0.1353  0.1489  0.2306
  118MOL0     O15798   7.955  11.195   6.590 -0.5277  0.3107  0.0724
  118MOL0     C15799   7.823  11.207   6.560  0.8806 -0.5918 -0.8375
  118MOL0     C15800   7.770  11.298   6.465  0.1116 -0.8880 -0.9750
  118MOL0     C15801   7.634  11.329   6.459  0.8668  0.7447 -0.5834
  118MOL0     C15802   7.541  11.273   6.546 -0.2288  0.3421 -0.0454
  118MOL0     O15803   7.411  11.318   6.539 -0.3956 -1.1173  0.0560
  118MOL0     C15804   7.330  11.290   6.657  0.2050  0.2529  0.0027
  118MOL0     C15805   7.192  11.360   6.635  0.1881  0.9398 -0.7549
  118MOL0     C15806   7.104  11.300   6.530 -0.0346  0.3070 -0.3173
  118MOL0     C15807   6.985  11.386   6.492 -0.4159 -0.1179  0.3630
  118MOL0     C15808   6.894  11.297   6.398 -0.4887  0.7328 -0.4639
  118MOL0     C15809   6.795  11.223   6.481  0.0739  0.9898  0.3998
  118MOL0     C15810   6.699  11.142   6.404  0.3977 -0.0994 -0.6568
  118MOL0     C15811   6.627  11.058   6.505  0.3968 -0.7317 -0.1436
  118MOL0     N15812   6.530  11.138   6.586 -0.9608 -0.1816 -0.5673
  118MOL0     C15813   6.420  11.194   6.535  0.5756 -0.1313  0.6226
  118MOL0     C15814   6.354  11.249   6.648 -0.1848  0.1455 -0.0837
  118MOL0     C15815   6.210  11.314   6.652  0.1128  0.3920 -0.3191
  118MOL0     C15816   6.164  11.383   6.780  0.4725  0.0912  0.6497
  118MOL0     C15817   6.115  11.285   6.881 -0.9395 -0.1950 -0.1734
  118MOL0     C15818   5.963  11.258   6.857 -0.6224 -0.7806  0.1938
  118MOL0     O15819   5.889  11.345   6.945  0.2077 -0.5682 -0.2273
  118MOL0     C15820   5.759  11.304   6.979 -0.0687 -0.1403 -0.4398
  118MOL0     C15821   5.717  11.357   7.098 -0.6333  0.4765 -1.1906
  118MOL0     C15822   5.589  11.331   7.143 -0.1480  0.2320  0.2530
  118MOL0     C15823   5.548  11.418   7.259 -0.2644  0.3338 -0.4770
  118MOL0     C15824   5.492  11.246   7.076  0.4326 -0.4774 -0.1153
  118MOL0     C15825   5.353  11.218   7.129  1.2570  0.1432  0.0244
  118MOL0     O15826   5.265  11.193   7.025 -0.4784  0.2606  0.2056
  118MOL0     C15827   5.138  11.140   7.036  0.7011 -0.2608  0.1240
  118MOL0     C15828   5.057  11.164   6.927 -1.1561 -0.2791  0.0891
  118MOL0     C15829   4.938  11.111   6.915 -0.1474 -0.2087  0.1747
  118MOL0     C15830   4.881  11.035   7.013  0.4330  0.2733 -0.3249
  118MOL0     O15831   4.751  10.988   6.990 -0.2690  0.4537  0.2266
  118MOL0     C15832   4.721  10.851   7.027  0.1560 -0.0644  0.3973
  118MOL0     C15833   4.584  10.812   6.976  1.0861 -0.6380 -0.5274
  118MOL0     C15834   4.476  10.905   7.023 -0.4958 -0.3170 -0.3601
  118MOL0     C15835   4.336  10.847   6.979  0.3923 -0.4862 -0.4573
  118MOL0     C15836   4.233  10.961   6.970 -0.1569  0.0808  1.4242
  118MOL0     C15837   4.092  10.917   6.927  0.0112  0.0702  0.8784
  118MOL0     C15838   4.003  11.020   6.868  0.6872 -0.6648 -0.2107
  118MOL0     C15839   3.857  10.982   6.867  0.2213 -1.0154 -0.5173
  118MOL0    Cl15840   3.793  11.017   7.029  0.8946  0.1658  0.1610
  118MOL0     C15841   4.959  11.005   7.133 -0.4656 -0.4437  0.5645
  118MOL0     C15842   5.094  11.051   7.133 -0.5869  0.2991  0.5804
  118MOL0     O15843   5.316  11.223   7.246  0.6491  0.3385 -0.2589
  118MOL0     C15844   5.547  11.180   6.967 -0.3311 -0.0323 -0.5347
  118MOL0     C15845   5.678  11.209   6.914  0.2289  0.4156 -0.7898
  118MOL0     N15846   6.432  11.225   6.761 -0.2497 -0.2779  0.1454
  118MOL0     N15847   6.538  11.153   6.725  0.2475  0.2348  0.3346
  118MOL0     C15848   7.588  11.170   6.641 -0.7407 -0.0250  0.9657
  118MOL0     C15849   7.727  11.140   6.643 -1.0545  0.8445 -0.3036
  118MOL0     C15850   8.180  11.114   6.552 -0.2308 -0.0444  0.3417
  118MOL0     C15851   8.213  11.164   6.672 -0.2838 -0.6261 -0.1670
  118MOL0     C15852   8.339  11.143   6.723  0.1248 -0.4881  0.2109
  118MOL0     C15853   8.438  11.081   6.641  0.5996  0.2159 -0.6541
  118MOL0     O15854   8.559  11.064   6.694 -0.3233  0.5064  0.1979
  118MOL0     C15855   8.673  11.025   6.615  0.9060  0.2555 -0.2601
  118MOL0     C15856   8.787  11.044   6.715 -0.4005 -0.2272 -0.2313
  118MOL0     C15857   8.922  11.061   6.645 -0.1887 -0.5893 -0.8333
  118MOL0     C15858   9.038  11.037   6.741 -0.2685 -0.4173 -0.2265
  118MOL0     C15859   9.054  10.902   6.803  0.0357 -0.5570 -0.2954
  118MOL0     C15860   9.087  10.795   6.856 -0.1809 -0.7033 -0.2314
  118MOL0     C15861   8.402  11.040   6.516  0.0757 -0.2015  0.1190
  118MOL0     C15862   8.272  11.044   6.475 -0.1430 -0.8448  0.3671
  118MOL0     H15863   7.840  11.352   6.401  0.3114 -0.2887 -0.2612
  118MOL0     H15864   7.599  11.401   6.386  2.3197 -0.2801 -2.4203
  118MOL0     H15865   7.303  11.185   6.672 -1.7380  0.8310  0.8826
  118MOL0     H15866   7.377  11.325   6.749  0.2992  1.2537 -0.4189
  118MOL0     H15867   7.137  11.361   6.730 -0.6014 -0.8682 -1.1766
  118MOL0     H15868   7.215  11.464   6.608  2.4562  0.6403 -0.1960
  118MOL0     H15869   7.169  11.281   6.445 -0.2783 -0.6106 -0.3168
  118MOL0     H15870   7.074  11.204   6.574  2.6043 -2.1525 -3.4126
  118MOL0     H15871   6.939  11.437   6.578  0.5433  2.0014 -0.3184
  118MOL0     H15872   7.032  11.467   6.435  0.9851 -2.2995 -1.7808
  118MOL0     H15873   6.845  11.360   6.324  0.6765 -1.3434 -3.1762
  118MOL0     H15874   6.963  11.228   6.348 -1.9403 -0.6032 -0.6882
  118MOL0     H15875   6.846  11.167   6.560 -0.8128  0.0769  0.3431
  118MOL0     H15876   6.729  11.300   6.522  0.2989  0.4446  1.8689
  118MOL0     H15877   6.628  11.204   6.350  1.1356  2.5660  1.2215
  118MOL0     H15878   6.756  11.072   6.341  1.4201  0.1703 -0.0561
  118MOL0     H15879   6.691  10.999   6.571 -0.9353 -0.4053  1.5299
  118MOL0     H15880   6.571  10.995   6.436  0.2902  2.2785 -3.0696
  118MOL0     H15881   6.381  11.198   6.434  1.2686  1.2986  0.3925
  118MOL0     H15882   6.206  11.388   6.571 -1.4507 -0.3848 -0.9758
  118MOL0     H15883   6.138  11.239   6.620  1.2116 -0.3915 -1.0311
  118MOL0     H15884   6.089  11.458   6.753  1.7827  2.1647  2.4677
  118MOL0     H15885   6.245  11.442   6.826  1.7671 -0.2534 -1.0876
  118MOL0     H15886   6.121  11.326   6.982 -0.6666 -2.5265  0.8324
  118MOL0     H15887   6.166  11.188   6.880 -0.8243 -0.1608  1.1777
  118MOL0     H15888   5.936  11.152   6.866 -3.8456 -0.4093 -2.7390
  118MOL0     H15889   5.926  11.280   6.756 -2.4419 -0.5827  0.8601
  118MOL0     H15890   5.778  11.432   7.148 -0.8473  0.2555 -0.5784
  118MOL0     H15891   5.579  11.377   7.356  0.7321 -1.3295 -1.4574
  118MOL0     H15892   5.589  11.518   7.246 -0.8118  0.6143 -0.0958
  118MOL0     H15893   5.440  11.429   7.247 -0.1761  1.7042 -0.1605
  118MOL0     H15894   5.103  11.219   6.846  1.0065 -0.0114  1.4327
  118MOL0     H15895   4.897  11.116   6.815  0.6027  1.1829 -0.0882
  118MOL0     H15896   4.792  10.784   6.976 -1.2517  0.5086 -2.5857
  118MOL0     H15897   4.728  10.842   7.135  3.7880 -1.0262  0.1943
  118MOL0     H15898   4.581  10.821   6.867  0.2480 -0.9122 -0.5332
  118MOL0     H15899   4.557  10.711   7.009 -2.0416  0.6647  1.4031
  118MOL0     H15900   4.500  11.002   6.979  0.9661 -1.2150 -1.6478
  118MOL0     H15901   4.465  10.920   7.131 -0.9966  1.8270 -0.6690
  118MOL0     H15902   4.346  10.811   6.876 -0.2989  0.8350 -1.0166
  118MOL0     H15903   4.313  10.761   7.042 -2.7805  0.2986 -0.4122
  118MOL0     H15904   4.266  11.044   6.907 -0.0694  0.6335  2.1814
  118MOL0     H15905   4.224  10.999   7.073 -0.6363  1.1225  1.0084
  118MOL0     H15906   4.102  10.837   6.853 -0.8317 -2.1680  3.0439
  118MOL0     H15907   4.047  10.868   7.014  0.2890  1.5826  1.9218
  118MOL0     H15908   4.037  11.037   6.765  1.0277  3.9784  0.4680
  118MOL0     H15909   4.009  11.116   6.920 -1.5536  0.1073 -1.2471
  118MOL0     H15910   3.840  10.876   6.845  1.4319 -1.2548 -0.3997
  118MOL0     H15911   3.803  11.050   6.801  1.7402 -0.3108 -1.0687
  118MOL0     H15912   4.921  10.936   7.207 -0.3303  1.1190  2.1741
  118MOL0     H15913   5.164  11.015   7.207  0.5336 -0.4979 -0.8043
  118MOL0     H15914   5.491  11.103   6.915 -0.2777 -0.5837  0.2145
  118MOL0     H15915   5.715  11.170   6.820  0.0529 -0.7689 -0.3816
  118MOL0     H15916   7.522  11.129   6.717  0.6846 -0.3456  2.0746
  118MOL0     H15917   7.750  11.063   6.716 -0.4658  1.7988  0.5431
  118MOL0     H15918   8.149  11.218   6.742  0.9981 -0.4985  0.9599
  118MOL0     H15919   8.370  11.169   6.824  0.6742 -0.8246  0.1346
  118MOL0     H15920   8.680  10.923   6.576 -1.9920  0.6681 -2.1951
  118MOL0     H15921   8.681  11.097   6.533  2.5424 -1.2542 -1.4987
  118MOL0     H15922   8.791  10.954   6.777  0.2227 -0.7789 -1.0451
  118MOL0     H15923   8.761  11.125   6.784 -1.1249 -1.2204  0.6786
  118MOL0     H15924   8.933  11.151   6.583 -1.9072  0.1952 -0.0622
  118MOL0     H15925   8.925  10.981   6.571 -1.4845 -1.6723  0.2423
  118MOL0     H15926   9.051  11.114   6.818  0.9372 -1.9433  1.1973
  118MOL0     H15927   9.127  11.045   6.679 -0.2863 -1.2427 -0.3672
  118MOL0     H15928   9.109  10.692   6.877 -0.2848 -0.9047 -1.0717
  118MOL0     H15929   8.465  10.996   6.440  0.7441  0.5168  0.2454
  118MOL0     H15930   8.246  10.983   6.389  3.5701  1.5913 -2.8101
  119MOL0     O15931   8.484   5.021   1.931 -0.4159  0.3846  0.0031
  119MOL0     C15932   8.485   4.993   2.052 -0.4603 -0.0249  0.0345
  119MOL0     O15933   8.385   5.003   2.132 -0.2678 -0.2269 -0.4570
  119MOL0     C15934   8.260   5.053   2.081 -0.1093 -0.3882  0.3325
  119MOL0     C15935   8.237   5.186   2.088  0.8017 -0.8749  0.6775
  119MOL0     C15936   8.115   5.233   2.033 -1.1405  0.1318 -0.5117
  119MOL0     C15937   8.020   5.141   1.979 -0.8968  0.5661  0.1821
  119MOL0     O15938   7.904   5.178   1.925  0.9327 -0.4429  0.1761
  119MOL0     C15939   7.896   5.312   1.867  0.8123  1.0224 -0.1497
  119MOL0     C15940   7.760   5.317   1.785 -0.2997 -0.9262 -0.3882
  119MOL0     C15941   7.710   5.463   1.764  0.2695 -0.1746  0.3964
  119MOL0     C15942   7.594   5.450   1.663  0.9321 -0.3609 -0.2200
  119MOL0     C15943   7.478   5.373   1.717  0.0317  1.3032 -0.2817
  119MOL0     C15944   7.408   5.447   1.830 -0.2503 -0.2542 -0.0582
  119MOL0     C15945   7.291   5.374   1.888  0.1413 -0.1303 -0.0495
  119MOL0     C15946   7.168   5.345   1.805 -0.6676  0.4295 -0.2564
  119MOL0     N15947   7.117   5.459   1.739 -0.1579 -0.8990 -0.7255
  119MOL0     C15948   7.027   5.551   1.783  0.4038  1.1447  0.1185
  119MOL0     C15949   7.006   5.637   1.680 -0.2299  0.1892  0.1228
  119MOL0     C15950   6.915   5.753   1.665 -0.2631 -1.4121  0.7935
  119MOL0     C15951   6.774   5.703   1.656  0.7898 -0.0188  0.2666
  119MOL0     C15952   6.687   5.804   1.586 -0.2343  0.0419  0.0572
  119MOL0     C15953   6.551   5.754   1.557  0.0546 -0.1641  0.6382
  119MOL0     O15954   6.487   5.847   1.470  0.3541  0.4753 -0.2552
  119MOL0     C15955   6.371   5.905   1.502  0.4078 -0.3535  0.9414
  119MOL0     C15956   6.330   5.939   1.629  0.5645 -0.1959  0.5152
  119MOL0     C15957   6.198   5.992   1.659 -0.6375 -0.2497  0.3025
  119MOL0     C15958   6.173   6.036   1.804  0.0354 -0.0702 -0.3854
  119MOL0     C15959   6.115   6.018   1.553  0.1159  0.1552  0.6403
  119MOL0     C15960   5.980   6.082   1.563  1.0607  0.0970 -0.0522
  119MOL0     O15961   5.915   6.126   1.448  0.3583 -0.6551  0.1556
  119MOL0     C15962   5.785   6.179   1.461  0.9273  0.2842 -0.3618
  119MOL0     C15963   5.730   6.262   1.563  0.5913  0.2626  0.5970
  119MOL0     C15964   5.595   6.300   1.554  0.7440  0.8526 -0.8452
  119MOL0     C15965   5.518   6.265   1.443  0.0294  0.4493 -0.5951
  119MOL0     O15966   5.386   6.295   1.422 -0.7886 -0.4769  0.0411
  119MOL0     C15967   5.309   6.353   1.524  0.0036  0.1819  0.0317
  119MOL0     C15968   5.175   6.400   1.480 -0.4887  0.2525  0.1131
  119MOL0     C15969   5.096   6.274   1.431 -1.0069 -0.0514  0.4970
  119MOL0     C15970   4.947   6.297   1.426  0.1182  0.4873  0.0949
  119MOL0     C15971   4.862   6.183   1.373  0.2078 -0.0677 -0.0001
  119MOL0     C15972   4.719   6.195   1.405  0.2692  0.6942  0.3651
  119MOL0     C15973   4.636   6.065   1.384 -1.6938 -0.9688  0.4760
  119MOL0     C15974   4.679   5.938   1.457  0.6761 -0.0394 -0.8538
  119MOL0    Cl15975   4.694   5.965   1.635  0.2508  0.1142  0.3328
  119MOL0     C15976   5.567   6.188   1.347 -0.0383  0.1841  0.4268
  119MOL0     C15977   5.702   6.147   1.351  0.3158  0.8218 -0.6816
  119MOL0     O15978   5.930   6.074   1.673  0.0316 -0.2444 -0.6730
  119MOL0     C15979   6.154   5.985   1.421 -0.0887  0.8603 -0.1043
  119MOL0     C15980   6.276   5.922   1.395  0.3888  0.7773 -0.3110
  119MOL0     N15981   7.081   5.598   1.574  0.0781 -0.1742 -0.3329
  119MOL0     N15982   7.137   5.486   1.604 -0.4255 -0.3443  0.2786
  119MOL0     C15983   8.049   5.002   1.974  0.0779 -0.7672  0.2616
  119MOL0     C15984   8.173   4.960   2.018 -0.2415 -0.2104 -0.0948
  119MOL0     C15985   8.611   4.926   2.103  0.6286 -0.0681  0.3753
  119MOL0     C15986   8.627   4.892   2.240  0.1710  0.3485 -0.4289
  119MOL0     C15987   8.747   4.828   2.283 -0.4881 -0.0756  0.4885
  119MOL0     C15988   8.853   4.795   2.197 -0.4393 -0.0762  0.3396
  119MOL0     O15989   8.973   4.734   2.243 -0.2967 -0.8180  0.1135
  119MOL0     C15990   9.070   4.711   2.142  0.5739 -0.5093 -0.4213
  119MOL0     C15991   9.191   4.666   2.224  0.9329 -1.0708  0.4763
  119MOL0     C15992   9.175   4.530   2.303  0.5470 -0.5340 -0.7138
  119MOL0     C15993   9.290   4.500   2.401 -0.3090 -0.0802  0.2143
  119MOL0     C15994   9.417   4.501   2.324 -0.6389 -0.0464  0.5552
  119MOL0     C15995   9.520   4.490   2.254  0.3578 -0.2407 -1.4013
  119MOL0     C15996   8.825   4.814   2.061  0.0004 -0.1707 -0.3820
  119MOL0     C15997   8.714   4.884   2.013 -0.1362 -0.7572 -0.2526
  119MOL0     H15998   8.302   5.262   2.129  0.7610  1.5954 -3.2639
  119MOL0     H15999   8.088   5.337   2.048 -1.2155  0.2437 -1.3311
  119MOL0     H16000   7.893   5.389   1.944 -2.8369  0.3566  0.5599
  119MOL0     H16001   7.978   5.316   1.795  0.5452 -0.8526 -0.6019
  119MOL0     H16002   7.780   5.268   1.690 -2.1817 -2.3513 -0.1103
  119MOL0     H16003   7.680   5.263   1.836 -1.4437  1.4493  0.5010
  119MOL0     H16004   7.685   5.512   1.859  0.6790  1.2151 -0.1937
  119MOL0     H16005   7.788   5.530   1.729  1.1917 -2.0698 -1.3791
  119MOL0     H16006   7.566   5.552   1.636  1.3456  0.0928  0.9994
  119MOL0     H16007   7.625   5.398   1.572 -2.2540 -1.4949 -0.7750
  119MOL0     H16008   7.408   5.377   1.633  0.0874 -0.7804 -0.4915
  119MOL0     H16009   7.492   5.268   1.746 -0.6519  1.7392  1.7734
  119MOL0     H16010   7.469   5.453   1.920  0.7713  1.0642 -0.7990
  119MOL0     H16011   7.378   5.546   1.794 -2.2243 -1.4539 -2.0243
  119MOL0     H16012   7.325   5.277   1.927  0.4585  0.2872  0.7291
  119MOL0     H16013   7.253   5.427   1.976  0.4911 -0.6421  0.4172
  119MOL0     H16014   7.104   5.283   1.868  1.3472  0.8222  2.3537
  119MOL0     H16015   7.199   5.278   1.724 -2.1131 -1.2268  0.4812
  119MOL0     H16016   6.988   5.546   1.884  0.1296  0.1332 -0.0256
  119MOL0     H16017   6.920   5.817   1.754  0.2381  1.0732 -0.9471
  119MOL0     H16018   6.943   5.807   1.575 -2.2596 -0.0450  0.9235
  119MOL0     H16019   6.739   5.681   1.757  1.5683  0.0966  0.5698
  119MOL0     H16020   6.769   5.612   1.595  0.0793  1.5415 -2.1490
  119MOL0     H16021   6.742   5.827   1.494  0.3573 -0.3041  0.3216
  119MOL0     H16022   6.676   5.898   1.641  0.0504 -0.2472  0.6079
  119MOL0     H16023   6.487   5.732   1.643  0.3821  0.7680  1.1441
  119MOL0     H16024   6.563   5.669   1.490 -1.4229  0.4826 -0.5042
  119MOL0     H16025   6.397   5.917   1.712  0.5498 -1.9531  0.0991
  119MOL0     H16026   6.179   6.144   1.819  2.1130  0.1166 -2.0597
  119MOL0     H16027   6.079   5.995   1.843  1.4734 -0.5038  2.9548
  119MOL0     H16028   6.251   5.988   1.864 -1.0181  0.9088  1.9116
  119MOL0     H16029   5.797   6.281   1.646  1.2485 -0.2517  0.1922
  119MOL0     H16030   5.555   6.369   1.628  1.9333  2.4034 -1.5839
  119MOL0     H16031   5.294   6.280   1.605  0.0411  0.1063 -0.0298
  119MOL0     H16032   5.362   6.444   1.553  1.9299 -0.2912 -1.7503
  119MOL0     H16033   5.126   6.441   1.569 -0.6804  0.8490 -0.2575
  119MOL0     H16034   5.182   6.477   1.403 -1.7230 -0.1030 -0.3774
  119MOL0     H16035   5.128   6.188   1.490 -1.0258  0.5072  1.3370
  119MOL0     H16036   5.130   6.269   1.327 -0.2288 -0.4909  0.7676
  119MOL0     H16037   4.928   6.313   1.532  1.2836 -2.5849  0.8827
  119MOL0     H16038   4.918   6.386   1.369  0.4389  1.7534  1.8211
  119MOL0     H16039   4.907   6.091   1.411  0.8913 -0.5975 -1.9528
  119MOL0     H16040   4.878   6.185   1.265 -2.7588 -1.4900 -0.5715
  119MOL0     H16041   4.707   6.222   1.511  1.3153  1.3928  0.3148
  119MOL0     H16042   4.671   6.266   1.337 -0.0426  1.0536  0.9514
  119MOL0     H16043   4.639   6.047   1.276  0.1661  0.8799  0.1538
  119MOL0     H16044   4.531   6.097   1.393 -0.9577  2.3895 -0.9898
  119MOL0     H16045   4.775   5.907   1.415  0.2730 -0.7197 -1.2848
  119MOL0     H16046   4.607   5.859   1.437 -0.7996  1.0392  0.0052
  119MOL0     H16047   5.505   6.148   1.267  0.9534 -3.3495  1.2535
  119MOL0     H16048   5.739   6.074   1.281 -1.9617 -0.8637 -0.2507
  119MOL0     H16049   6.090   5.991   1.333  1.1570  0.3888 -1.0771
  119MOL0     H16050   6.295   5.876   1.298 -0.3620 -0.5162  0.1193
  119MOL0     H16051   7.991   4.931   1.916  2.0344 -0.5818 -2.0914
  119MOL0     H16052   8.200   4.856   2.009 -0.1810 -0.0061 -2.8952
  119MOL0     H16053   8.551   4.907   2.315 -0.1683  0.7171 -0.8393
  119MOL0     H16054   8.765   4.812   2.389 -0.4243  1.0985  0.6685
  119MOL0     H16055   9.039   4.639   2.066 -4.7189  1.2190 -0.3083
  119MOL0     H16056   9.089   4.803   2.085 -4.4498  0.2513 -1.4142
  119MOL0     H16057   9.206   4.748   2.294 -2.4334  2.5857 -2.6504
  119MOL0     H16058   9.279   4.661   2.158 -1.0217  0.4688 -2.4576
  119MOL0     H16059   9.163   4.448   2.231 -1.5508 -0.7236 -0.2135
  119MOL0     H16060   9.085   4.535   2.366  1.9328  0.3542  1.2868
  119MOL0     H16061   9.270   4.400   2.442  1.7188 -1.0899 -1.0890
  119MOL0     H16062   9.287   4.571   2.484 -1.2134  0.1371  0.0090
  119MOL0     H16063   9.610   4.467   2.201  0.7972 -3.2916  0.4244
  119MOL0     H16064   8.900   4.786   1.987 -0.4468 -1.8925 -0.2261
  119MOL0     H16065   8.700   4.896   1.906 -3.7161 -1.3331  0.0198
  120MOL0     O16066  10.483  10.969  10.967 -0.4373 -0.4250 -0.0911
  120MOL0     C16067  10.425  10.862  10.961 -0.4027 -0.2137 -0.5057
  120MOL0     O16068  10.295  10.841  11.007 -0.0757 -0.7205 -0.3146
  120MOL0     C16069  10.190  10.942  11.017 -0.5728 -0.6027  0.8097
  120MOL0     C16070  10.060  10.906  11.055  0.4328  0.0066  0.4995
  120MOL0     C16071   9.955  11.000  11.064  0.0168 -0.3920  0.4120
  120MOL0     C16072   9.975  11.137  11.046  0.3368  0.7513 -0.2588
  120MOL0     O16073   9.879  11.234  11.064 -0.4788 -0.0570 -0.0398
  120MOL0     C16074   9.741  11.194  11.089 -0.0149  0.2281  0.2717
  120MOL0     C16075   9.658  11.322  11.111 -0.6347 -0.4238  0.4288
  120MOL0     C16076   9.516  11.297  11.138 -0.5942 -0.1540 -0.9576
  120MOL0     C16077   9.445  11.430  11.156  0.1291  0.4355  0.8980
  120MOL0     C16078   9.301  11.407  11.219 -0.2674 -0.7043  0.8296
  120MOL0     C16079   9.222  11.531  11.219  0.5034  0.1334  0.1117
  120MOL0     C16080   9.075  11.512  11.271  0.2448  0.3031  1.0846
  120MOL0     C16081   9.009  11.640  11.310  0.3582  0.4355 -0.0567
  120MOL0     N16082   8.869  11.618  11.336 -0.1439 -0.6443  0.4041
  120MOL0     C16083   8.823  11.560  11.450 -0.8637  0.2094 -0.0887
  120MOL0     C16084   8.691  11.575  11.442 -0.5562 -0.0340  0.4883
  120MOL0     C16085   8.605  11.529  11.560  0.1403  0.1184 -0.3034
  120MOL0     C16086   8.459  11.523  11.515  0.1794 -0.5664  0.2644
  120MOL0     C16087   8.372  11.431  11.594 -0.0810 -0.2966 -0.5857
  120MOL0     C16088   8.225  11.445  11.566  0.8397 -0.1732 -0.7164
  120MOL0     O16089   8.179  11.566  11.635  0.4239  0.3205  0.3909
  120MOL0     C16090   8.071  11.626  11.573  0.1089  0.5997 -0.8094
  120MOL0     C16091   7.982  11.551  11.486 -0.6910 -0.0046 -0.2113
  120MOL0     C16092   7.873  11.614  11.420  0.1181  1.3781  0.3763
  120MOL0     C16093   7.796  11.538  11.315 -0.2578 -0.2361  0.0375
  120MOL0     C16094   7.837  11.749  11.459 -0.0282 -0.4597  0.7250
  120MOL0     C16095   7.718  11.824  11.409  0.1349 -0.7094 -0.0502
  120MOL0     O16096   7.616  11.759  11.337  0.5276  0.1348  0.3990
  120MOL0     C16097   7.505  11.836  11.312  0.4482 -0.6707  0.3867
  120MOL0     C16098   7.404  11.854  11.408  0.3473 -0.2990  0.0324
  120MOL0     C16099   7.299  11.936  11.382 -0.2984 -0.3669  0.0601
  120MOL0     C16100   7.276  11.997  11.264  0.0320 -0.7699  0.0641
  120MOL0     O16101   7.170  12.082  11.248 -0.6426 -0.1647 -0.3973
  120MOL0     C16102   7.081  12.055  11.143 -0.0257 -0.2514  0.0234
  120MOL0     C16103   7.003  11.934  11.171 -0.1486  0.4724 -0.3385
  120MOL0     C16104   6.911  11.891  11.053 -0.1012 -0.0752  0.6178
  120MOL0     C16105   6.782  11.969  11.044 -0.2060  0.2340  0.0604
  120MOL0     C16106   6.687  11.912  10.938  0.0410  0.3469 -0.1805
  120MOL0     C16107   6.653  11.764  10.961 -0.3867 -0.4635  0.1475
  120MOL0     C16108   6.580  11.728  11.095 -0.2486 -0.5138 -0.7248
  120MOL0     C16109   6.462  11.823  11.146 -0.0261 -0.6126 -0.5053
  120MOL0    Cl16110   6.320  11.790  11.046  0.5914 -0.7023 -0.1813
  120MOL0     C16111   7.368  11.971  11.154  1.1000  0.3422 -0.4536
  120MOL0     C16112   7.478  11.893  11.183  0.0251 -0.1051  0.1150
  120MOL0     O16113   7.712  11.941  11.447  0.5244  0.1668  0.8357
  120MOL0     C16114   7.926  11.820  11.546 -0.1317 -0.1788 -0.1650
  120MOL0     C16115   8.034  11.758  11.607 -0.0544  0.0826 -0.3691
  120MOL0     N16116   8.660  11.629  11.315 -0.1269  0.1008 -0.0743
  120MOL0     N16117   8.768  11.653  11.248 -0.0148  0.1764  0.1394
  120MOL0     C16118  10.111  11.170  11.024  0.0941 -0.4040 -0.6494
  120MOL0     C16119  10.214  11.079  11.015 -0.0686  1.0396  0.1513
  120MOL0     C16120  10.495  10.740  10.918 -0.4511 -0.7902 -0.3810
  120MOL0     C16121  10.638  10.739  10.914  0.0892  0.7609  0.1406
  120MOL0     C16122  10.706  10.619  10.871  1.3763 -0.2345 -0.3003
  120MOL0     C16123  10.633  10.509  10.830 -0.1113  0.4011  0.5135
  120MOL0     O16124  10.710  10.405  10.791  0.1764  0.2147 -0.2367
  120MOL0     C16125  10.656  10.312  10.698  0.4216 -0.2325 -0.1338
  120MOL0     C16126  10.630  10.362  10.558  0.2091 -0.0302 -0.3440
  120MOL0     C16127  10.758  10.445  10.497  0.8986  0.0990  0.5638
  120MOL0     C16128  10.735  10.421  10.349 -0.4549 -0.0757  0.4344
  120MOL0     C16129  10.817  10.511  10.276 -0.9742 -0.2031 -0.2427
  120MOL0     C16130  10.869  10.603  10.227 -0.1186 -0.7914 -0.2232
  120MOL0     C16131  10.491  10.515  10.825  0.7083  0.3562  0.2123
  120MOL0     C16132  10.427  10.630  10.873 -0.1500  0.8679 -0.4734
  120MOL0     H16133  10.023  10.805  11.070 -1.4273  0.4289 -0.9420
  120MOL0     H16134   9.858  10.959  11.089 -0.0054 -1.0010 -0.5839
  120MOL0     H16135   9.688  11.133  11.016 -0.6683 -1.9778  2.4671
  120MOL0     H16136   9.743  11.137  11.182 -0.8551 -1.6939 -0.8477
  120MOL0     H16137   9.710  11.373  11.192  0.2862  0.2964 -0.5871
  120MOL0     H16138   9.664  11.386  11.022 -0.0750 -0.9338  0.0929
  120MOL0     H16139   9.473  11.245  11.052 -1.2605  0.4666 -1.0087
  120MOL0     H16140   9.503  11.239  11.230 -1.3212  0.9126 -0.3690
  120MOL0     H16141   9.508  11.496  11.216  1.0386 -0.9768  1.5446
  120MOL0     H16142   9.430  11.477  11.059 -2.2820 -0.2272  0.8984
  120MOL0     H16143   9.249  11.327  11.165 -0.8823 -2.0040  3.2116
  120MOL0     H16144   9.310  11.369  11.321 -1.5031 -0.1158  1.1727
  120MOL0     H16145   9.277  11.604  11.279  0.4788  0.0751  0.2060
  120MOL0     H16146   9.224  11.567  11.116  1.8258 -2.2220 -0.7692
  120MOL0     H16147   9.021  11.461  11.191  0.2113 -1.4388  2.1606
  120MOL0     H16148   9.076  11.436  11.349  1.3644 -1.2546 -0.3642
  120MOL0     H16149   9.029  11.711  11.229  2.8995 -1.1611 -0.9392
  120MOL0     H16150   9.057  11.690  11.394  3.3280 -1.2875 -0.5977
  120MOL0     H16151   8.882  11.517  11.530  0.2096  0.2036 -0.8677
  120MOL0     H16152   8.643  11.434  11.600  2.5087  1.1755  0.1266
  120MOL0     H16153   8.631  11.599  11.640  2.6757  1.4999 -2.1828
  120MOL0     H16154   8.448  11.499  11.409  0.1147  1.3359 -0.2004
  120MOL0     H16155   8.432  11.629  11.517  2.1548 -0.0315  0.5842
  120MOL0     H16156   8.395  11.440  11.701  0.8786  1.5569 -0.9057
  120MOL0     H16157   8.398  11.330  11.563  0.6428  0.4054 -2.4022
  120MOL0     H16158   8.176  11.357  11.609  1.9216  1.2635  4.1672
  120MOL0     H16159   8.206  11.453  11.459 -0.6463  2.8827 -0.3393
  120MOL0     H16160   7.999  11.444  11.473  0.9691  0.2823 -0.6435
  120MOL0     H16161   7.792  11.609  11.232  0.0722  0.3786  0.5440
  120MOL0     H16162   7.840  11.443  11.284 -0.3781 -0.2794 -0.0055
  120MOL0     H16163   7.696  11.515  11.354 -0.6792  1.5575  0.1162
  120MOL0     H16164   7.404  11.825  11.512 -1.2812  2.6058  0.9519
  120MOL0     H16165   7.224  11.943  11.461 -0.7356 -0.1129 -0.3708
  120MOL0     H16166   7.019  12.144  11.126  0.6818  0.2121 -0.1891
  120MOL0     H16167   7.141  12.046  11.052 -2.0160  0.9676 -1.4875
  120MOL0     H16168   7.070  11.848  11.182  2.4041  2.1636 -1.6934
  120MOL0     H16169   6.950  11.946  11.266  1.2786  1.8108  0.3265
  120MOL0     H16170   6.891  11.784  11.065 -2.0512 -0.0398 -1.5662
  120MOL0     H16171   6.968  11.912  10.962  0.6847  2.7127  1.6470
  120MOL0     H16172   6.749  11.955  11.148  2.0500 -0.9813  0.6845
  120MOL0     H16173   6.799  12.077  11.038  0.8494  0.2755  2.4619
  120MOL0     H16174   6.734  11.920  10.839  0.6541 -0.9704 -0.0093
  120MOL0     H16175   6.601  11.980  10.941 -0.5720 -0.4103 -0.2414
  120MOL0     H16176   6.595  11.730  10.875  0.4974 -2.4720  0.2945
  120MOL0     H16177   6.744  11.704  10.957  1.5195  2.1977  0.6086
  120MOL0     H16178   6.645  11.733  11.182 -2.9832  1.1338  1.4081
  120MOL0     H16179   6.545  11.625  11.096  0.5263 -0.7800  0.3854
  120MOL0     H16180   6.484  11.929  11.133 -1.4512 -0.3414 -0.8756
  120MOL0     H16181   6.453  11.792  11.250 -0.4407  0.1762 -0.3049
  120MOL0     H16182   7.352  12.025  11.061  0.5037  2.0450  0.5884
  120MOL0     H16183   7.547  11.868  11.103 -1.6331 -1.2625 -1.0111
  120MOL0     H16184   7.902  11.919  11.582  1.9101  0.7033 -1.0919
  120MOL0     H16185   8.102  11.818  11.667  0.5298  1.3520 -2.2055
  120MOL0     H16186  10.127  11.277  11.032  0.6350 -0.6210  3.1047
  120MOL0     H16187  10.313  11.118  10.991  0.4596  1.3035  2.5627
  120MOL0     H16188  10.691  10.834  10.923 -3.4069  2.7490  1.6097
  120MOL0     H16189  10.814  10.626  10.868  1.4362  0.4125  1.6142
  120MOL0     H16190  10.721  10.225  10.692  0.2838 -0.2409 -2.3646
  120MOL0     H16191  10.567  10.275  10.750  0.9911  1.3356  2.1143
  120MOL0     H16192  10.541  10.425  10.568  1.2124  1.1135  2.3523
  120MOL0     H16193  10.610  10.272  10.500 -3.6465 -0.8614  1.9259
  120MOL0     H16194  10.852  10.399  10.526  1.6385  0.9854 -0.3858
  120MOL0     H16195  10.753  10.549  10.531 -0.2491  0.1646  0.2461
  120MOL0     H16196  10.633  10.436  10.312  0.1092 -1.9635 -2.0792
  120MOL0     H16197  10.763  10.317  10.330  1.7256  0.9310 -2.5829
  120MOL0     H16198  10.931  10.682  10.191  1.5548 -0.1883  3.4655
  120MOL0     H16199  10.433  10.430  10.791  0.3674  0.4964  0.4407
  120MOL0     H16200  10.318  10.635  10.868 -0.2258  4.2618  1.6913
  121MOL0     O16201   4.127   1.711   9.451 -0.1297 -0.3877 -0.5545
  121MOL0     C16202   4.219   1.785   9.486  0.2810  0.4451  0.0379
  121MOL0     O16203   4.209   1.911   9.536 -0.3077  0.1140 -0.1126
  121MOL0     C16204   4.083   1.977   9.550  0.4536  0.7585 -0.7526
  121MOL0     C16205   3.976   1.979   9.456  0.6995  0.4546  0.4191
  121MOL0     C16206   3.855   2.049   9.476 -0.0647  0.0729  0.2789
  121MOL0     C16207   3.835   2.126   9.591 -1.0719  0.1006  0.1711
  121MOL0     O16208   3.721   2.196   9.604  0.9459  0.0469  0.3539
  121MOL0     C16209   3.727   2.331   9.545  0.0773 -0.3095  0.4439
  121MOL0     C16210   3.695   2.440   9.650  0.6778 -0.3630  0.2175
  121MOL0     C16211   3.541   2.456   9.651 -0.0050 -0.0229  0.3092
  121MOL0     C16212   3.489   2.482   9.796  0.0861  0.4212 -0.0557
  121MOL0     C16213   3.333   2.486   9.793 -0.3738 -0.3528  0.2333
  121MOL0     C16214   3.272   2.513   9.934 -0.7789 -0.1065  0.7539
  121MOL0     C16215   3.124   2.519   9.934  0.2191 -0.1217 -0.1867
  121MOL0     C16216   3.061   2.381   9.919  1.3778  0.7194 -0.4872
  121MOL0     N16217   2.913   2.386   9.952  0.1298 -0.0741  0.2064
  121MOL0     C16218   2.859   2.352  10.078 -0.7607  0.2615  0.9675
  121MOL0     C16219   2.729   2.402  10.075 -0.3733  0.4060 -0.2965
  121MOL0     C16220   2.641   2.411  10.194 -0.7988 -0.2971 -0.2610
  121MOL0     C16221   2.531   2.309  10.209  0.1377  0.3460  1.2940
  121MOL0     C16222   2.550   2.156  10.179  0.2980  0.0113  0.1861
  121MOL0     C16223   2.429   2.068  10.169  0.1120  0.7168  0.6100
  121MOL0     O16224   2.430   1.939  10.092 -0.5285  0.6540 -1.0362
  121MOL0     C16225   2.318   1.905  10.022  0.4105 -0.5306  0.4963
  121MOL0     C16226   2.335   1.891   9.882  0.0196 -0.3973 -0.1718
  121MOL0     C16227   2.227   1.867   9.800  0.3034  0.3798 -0.1577
  121MOL0     C16228   2.261   1.895   9.657 -0.2307  0.4682  0.6665
  121MOL0     C16229   2.104   1.847   9.858  0.2395 -0.1817 -0.0716
  121MOL0     C16230   1.985   1.819   9.777 -0.1225 -0.7452 -0.3680
  121MOL0     O16231   1.868   1.815   9.851  0.0543 -0.2260 -0.5230
  121MOL0     C16232   1.755   1.771   9.783  0.5506  0.8738 -0.4234
  121MOL0     C16233   1.692   1.857   9.698 -0.2111  0.6135 -0.2713
  121MOL0     C16234   1.571   1.824   9.635 -0.6591 -0.6165  0.3153
  121MOL0     C16235   1.517   1.695   9.645  0.5582 -0.6072  0.3822
  121MOL0     O16236   1.402   1.662   9.580  0.1064  0.3044  0.2479
  121MOL0     C16237   1.315   1.764   9.529 -0.0034 -0.6360 -1.4120
  121MOL0     C16238   1.177   1.709   9.486  0.0371  0.3563 -0.4949
  121MOL0     C16239   1.105   1.655   9.618 -0.1726  0.8293  0.3775
  121MOL0     C16240   1.109   1.503   9.610  0.1699  0.2937  0.1339
  121MOL0     C16241   1.046   1.440   9.729 -0.2252  1.0995 -0.1472
  121MOL0     C16242   1.038   1.287   9.714 -0.3651  0.5227 -0.1383
  121MOL0     C16243   1.153   1.219   9.799 -0.1038 -0.3262 -0.0545
  121MOL0     C16244   1.157   1.067   9.764  0.5890  0.1790  0.5302
  121MOL0    Cl16245   1.266   1.035   9.631  0.1372 -0.0909 -0.0773
  121MOL0     C16246   1.590   1.600   9.720  0.2036  0.0304  0.0732
  121MOL0     C16247   1.705   1.638   9.788 -0.8328  0.1638 -0.0120
  121MOL0     O16248   2.000   1.806   9.656 -0.2928  0.1248  0.0207
  121MOL0     C16249   2.091   1.848  10.000  0.2309 -0.1851  0.0476
  121MOL0     C16250   2.196   1.889  10.083  0.5403 -0.5512  0.6438
  121MOL0     N16251   2.718   2.463   9.950  0.3197  0.5600  0.4432
  121MOL0     N16252   2.826   2.446   9.877  0.0954 -0.7063  0.3486
  121MOL0     C16253   3.941   2.135   9.684  0.1560  0.4638  0.1747
  121MOL0     C16254   4.066   2.064   9.659  0.0928  0.3463 -0.2631
  121MOL0     C16255   4.356   1.733   9.452  0.1720 -0.5989  0.2656
  121MOL0     C16256   4.460   1.826   9.443 -0.8724 -0.2575  0.1185
  121MOL0     C16257   4.598   1.782   9.447 -0.3157 -0.1565 -0.5807
  121MOL0     C16258   4.628   1.641   9.439  0.4782 -0.4370  0.9617
  121MOL0     O16259   4.761   1.607   9.435  0.0962  0.3935 -0.0457
  121MOL0     C16260   4.794   1.468   9.448  0.1359 -1.0731 -0.3799
  121MOL0     C16261   4.946   1.445   9.417  0.5457 -0.4471 -0.3780
  121MOL0     C16262   4.981   1.295   9.449  0.1241 -0.4730 -0.7610
  121MOL0     C16263   5.139   1.289   9.432  0.3902 -0.0495 -1.2511
  121MOL0     C16264   5.187   1.155   9.413 -0.5896 -0.0830  0.4715
  121MOL0     C16265   5.208   1.041   9.378 -0.2404 -0.5918 -0.7478
  121MOL0     C16266   4.526   1.555   9.422  0.7637 -0.3955 -0.3415
  121MOL0     C16267   4.390   1.595   9.429  0.0921  0.7546  0.3267
  121MOL0     H16268   3.982   1.931   9.359 -0.8458 -1.2821  1.1197
  121MOL0     H16269   3.769   2.052   9.410 -0.6467  2.5854  1.0599
  121MOL0     H16270   3.829   2.354   9.513 -0.5085  0.1910 -1.1299
  121MOL0     H16271   3.653   2.330   9.465  0.8108  0.0728 -0.2480
  121MOL0     H16272   3.735   2.398   9.743  1.4102 -3.5611 -1.3869
  121MOL0     H16273   3.738   2.534   9.615  0.0732 -1.0203 -2.4858
  121MOL0     H16274   3.512   2.545   9.594  0.0480  0.5226  1.1108
  121MOL0     H16275   3.477   2.382   9.602 -2.5640  1.7285  0.7984
  121MOL0     H16276   3.533   2.397   9.849  0.5009  0.4030 -0.4180
  121MOL0     H16277   3.535   2.566   9.848 -0.3959 -0.5784  2.0650
  121MOL0     H16278   3.299   2.571   9.734 -3.3252 -0.6739  1.2964
  121MOL0     H16279   3.301   2.393   9.745 -0.9660 -0.9701  1.7594
  121MOL0     H16280   3.312   2.446  10.011 -3.1456  0.6669  2.7938
  121MOL0     H16281   3.301   2.613   9.965 -3.8362  0.6955  1.3098
  121MOL0     H16282   3.086   2.558  10.028  0.2464  0.1976 -0.3063
  121MOL0     H16283   3.083   2.590   9.861 -0.7706 -1.0351 -0.5323
  121MOL0     H16284   3.122   2.312   9.978 -0.8302 -0.4565  0.5299
  121MOL0     H16285   3.066   2.346   9.816 -0.7750  0.4111 -0.5332
  121MOL0     H16286   2.905   2.309  10.167  1.6166 -0.5229 -0.5424
  121MOL0     H16287   2.700   2.410  10.286 -1.4342 -0.4973  0.1496
  121MOL0     H16288   2.597   2.511  10.191 -0.4267 -0.0610 -4.7715
  121MOL0     H16289   2.451   2.345  10.143  0.2295 -0.0044  0.9824
  121MOL0     H16290   2.488   2.321  10.308  0.4548  1.5036  1.3032
  121MOL0     H16291   2.611   2.114  10.259 -1.5301  1.6524  2.5907
  121MOL0     H16292   2.610   2.148  10.088  1.5220 -0.6315  1.0346
  121MOL0     H16293   2.347   2.122  10.122 -0.1696 -0.8526 -0.8050
  121MOL0     H16294   2.392   2.049  10.270  0.1887  0.7695  0.6483
  121MOL0     H16295   2.424   1.927   9.831 -0.2939  1.8315  0.7377
  121MOL0     H16296   2.368   1.899   9.638  0.4612 -1.1079  3.5857
  121MOL0     H16297   2.217   1.818   9.593  1.7261  2.0322 -2.8004
  121MOL0     H16298   2.216   1.987   9.620  1.8156  1.1474 -0.2510
  121MOL0     H16299   1.720   1.962   9.694 -0.8943  1.0540  3.3208
  121MOL0     H16300   1.528   1.902   9.572  1.3916 -1.5401 -2.4525
  121MOL0     H16301   1.306   1.837   9.609  3.2047 -0.7542 -0.7798
  121MOL0     H16302   1.361   1.810   9.440 -0.3841  0.0872 -1.2428
  121MOL0     H16303   1.125   1.797   9.447 -0.9491  0.7603  1.5820
  121MOL0     H16304   1.184   1.632   9.409  0.4862 -1.2787  1.1119
  121MOL0     H16305   1.000   1.683   9.604 -0.0814  0.2137 -1.8752
  121MOL0     H16306   1.140   1.702   9.710  0.5296  1.8314 -0.3796
  121MOL0     H16307   1.061   1.462   9.520  0.6357 -4.2087  1.6825
  121MOL0     H16308   1.213   1.471   9.607  0.3059  0.7965 -1.0282
  121MOL0     H16309   0.946   1.480   9.750 -0.2963 -0.2001  2.4221
  121MOL0     H16310   1.105   1.459   9.820 -0.2681 -0.5701  0.2535
  121MOL0     H16311   0.946   1.239   9.749  0.7397 -2.1751 -0.6450
  121MOL0     H16312   1.048   1.262   9.608  0.7127 -1.5173  0.3952
  121MOL0     H16313   1.147   1.235   9.907 -1.0525  1.0198 -0.2895
  121MOL0     H16314   1.247   1.265   9.767 -0.0047  1.2691  2.2747
  121MOL0     H16315   1.054   1.038   9.742 -0.5769  4.4855 -0.6732
  121MOL0     H16316   1.199   1.006   9.845 -1.4193 -1.2350  0.5819
  121MOL0     H16317   1.544   1.503   9.708 -0.6433  0.7565 -4.1358
  121MOL0     H16318   1.769   1.572   9.847  0.5070  2.6797  1.5701
  121MOL0     H16319   2.002   1.823  10.059  1.1798  0.6784  1.9439
  121MOL0     H16320   2.190   1.907  10.190  0.7343  3.7224  0.1404
  121MOL0     H16321   3.930   2.196   9.773  2.5427 -0.3281  1.0732
  121MOL0     H16322   4.138   2.081   9.738  0.0303 -0.0619 -0.1178
  121MOL0     H16323   4.442   1.933   9.447 -0.4604  0.0938 -3.6613
  121MOL0     H16324   4.677   1.856   9.450  0.6773 -1.1673 -0.8866
  121MOL0     H16325   4.768   1.421   9.543  1.4681 -0.9005  0.0898
  121MOL0     H16326   4.739   1.416   9.369 -1.9703  1.3309 -0.6445
  121MOL0     H16327   4.999   1.512   9.485 -1.6522  1.4781 -0.4369
  121MOL0     H16328   4.973   1.475   9.315  1.3553  1.4201  0.3361
  121MOL0     H16329   4.936   1.229   9.375  2.3306 -1.2998 -1.4472
  121MOL0     H16330   4.948   1.266   9.550 -0.9735  0.0883 -0.9425
  121MOL0     H16331   5.199   1.322   9.518 -1.2383 -2.0356  0.7798
  121MOL0     H16332   5.171   1.349   9.347 -0.5928  2.0270 -0.2352
  121MOL0     H16333   5.218   0.943   9.338  0.8935 -0.0418 -1.8886
  121MOL0     H16334   4.522   1.449   9.399 -1.1561 -0.6112  0.7982
  121MOL0     H16335   4.313   1.518   9.424  1.3436 -0.4864 -0.3564
  122MOL0     O16336   9.141  10.268   2.191  0.1205 -0.3629 -0.7825
  122MOL0     C16337   9.193  10.162   2.216 -0.6148 -0.0519 -0.8369
  122MOL0     O16338   9.136  10.041   2.198 -0.4133  0.7082  0.9031
  122MOL0     C16339   9.011  10.009   2.152  0.0351  0.0483  0.7228
  122MOL0     C16340   8.901  10.095   2.141 -0.0086  0.0838  0.3708
  122MOL0     C16341   8.778  10.053   2.087 -0.4299  0.3111 -1.5026
  122MOL0     C16342   8.759   9.929   2.037 -0.5507  0.2578  0.5028
  122MOL0     O16343   8.649   9.891   1.980  0.3092 -1.1570  0.7205
  122MOL0     C16344   8.582   9.763   1.995 -0.0447  0.5952  0.6851
  122MOL0     C16345   8.456   9.769   1.914 -0.5551  0.8481  1.1087
  122MOL0     C16346   8.368   9.893   1.946  0.6163  0.4298 -0.2933
  122MOL0     C16347   8.262   9.890   1.828  0.9016 -0.0573 -0.0918
  122MOL0     C16348   8.126   9.968   1.874 -0.3102 -0.1762 -0.3134
  122MOL0     C16349   8.021   9.897   1.964 -0.7040  0.0741 -0.0808
  122MOL0     C16350   7.926  10.007   2.021 -0.5958  0.2535  0.2625
  122MOL0     C16351   7.819  10.054   1.922 -0.1421 -0.6464 -0.5473
  122MOL0     N16352   7.718  10.147   1.988  0.1767 -0.0535 -0.3342
  122MOL0     C16353   7.635  10.105   2.084 -0.5145  0.1162 -0.2845
  122MOL0     C16354   7.574  10.217   2.119 -0.3893 -0.8636  0.3095
  122MOL0     C16355   7.463  10.242   2.223 -0.1746  0.4307 -0.2955
  122MOL0     C16356   7.364  10.345   2.175  0.2127 -0.6965  1.0301
  122MOL0     C16357   7.289  10.296   2.048  0.2343  0.1309 -0.5610
  122MOL0     C16358   7.239  10.411   1.962 -0.1001 -0.7770  0.6986
  122MOL0     O16359   7.161  10.497   2.039 -0.1471 -1.0318 -0.1365
  122MOL0     C16360   7.022  10.515   2.012  0.4641 -0.7133  0.5145
  122MOL0     C16361   6.962  10.516   1.879  0.6591  0.0804 -0.1029
  122MOL0     C16362   6.819  10.517   1.861 -0.9033  0.3723  0.8888
  122MOL0     C16363   6.769  10.525   1.718 -0.1204  0.1253  0.3586
  122MOL0     C16364   6.736  10.519   1.974 -0.6794  0.3056  0.8442
  122MOL0     C16365   6.590  10.517   1.961 -0.0712 -0.3281  0.1017
  122MOL0     O16366   6.529  10.591   2.056  0.9631  0.3723 -0.0563
  122MOL0     C16367   6.390  10.569   2.060 -0.4217 -0.5328 -0.7018
  122MOL0     C16368   6.303  10.608   1.956 -0.3962  0.0571 -0.5418
  122MOL0     C16369   6.164  10.603   1.968 -0.2136 -0.4516  0.5817
  122MOL0     C16370   6.108  10.548   2.084 -0.2035 -0.1752  0.0591
  122MOL0     O16371   5.976  10.551   2.108 -0.1270  0.0256 -0.4931
  122MOL0     C16372   5.905  10.471   2.016  0.3515  0.7474 -0.6249
  122MOL0     C16373   5.755  10.476   2.019  1.0628 -0.3602 -0.5000
  122MOL0     C16374   5.690  10.370   1.929 -0.0244 -0.1483 -0.1905
  122MOL0     C16375   5.545  10.352   1.960  0.4157  0.2503  0.1950
  122MOL0     C16376   5.451  10.457   1.898 -0.3445 -0.2079 -0.3109
  122MOL0     C16377   5.310  10.419   1.944  0.2853 -0.3636  0.3947
  122MOL0     C16378   5.235  10.525   1.865 -1.0472 -0.0556 -1.0764
  122MOL0     C16379   5.089  10.544   1.925  0.5128 -0.3450  0.3614
  122MOL0    Cl16380   5.101  10.607   2.087  0.4434  0.4433 -0.1524
  122MOL0     C16381   6.197  10.505   2.188  0.2945  0.6003 -0.6161
  122MOL0     C16382   6.333  10.521   2.181  0.1003 -0.6984  1.1073
  122MOL0     O16383   6.534  10.437   1.887 -0.3533  0.0701  0.2224
  122MOL0     C16384   6.790  10.515   2.101 -0.1954 -0.3974 -0.3613
  122MOL0     C16385   6.931  10.523   2.123 -0.4315  0.2552 -0.2048
  122MOL0     N16386   7.633  10.325   2.052 -0.1142 -0.3458 -1.1044
  122MOL0     N16387   7.708  10.277   1.959  0.0375  0.1757  0.0483
  122MOL0     C16388   8.861   9.830   2.061 -0.0470  0.5905 -0.9220
  122MOL0     C16389   8.987   9.876   2.110  0.1398  0.8060  0.4457
  122MOL0     C16390   9.336  10.159   2.250  1.0171  0.3621 -0.2357
  122MOL0     C16391   9.405  10.278   2.268  0.7212 -0.1616 -1.1402
  122MOL0     C16392   9.543  10.279   2.264  0.3883  0.1062  0.1253
  122MOL0     C16393   9.619  10.159   2.250  0.2448  0.6192  1.0042
  122MOL0     O16394   9.753  10.153   2.219  0.5759 -0.4351  0.9350
  122MOL0     C16395   9.851  10.260   2.208  0.1045 -0.3757 -0.2218
  122MOL0     C16396   9.943  10.271   2.321  0.6698  0.3858  0.9942
  122MOL0     C16397  10.008  10.410   2.343  0.2366 -0.0762  0.6423
  122MOL0     C16398  10.093  10.416   2.476  1.1930  0.1071  0.4329
  122MOL0     C16399  10.213  10.335   2.455 -0.7915  0.7635 -0.0146
  122MOL0     C16400  10.306  10.258   2.441 -0.5740  1.0998 -0.7277
  122MOL0     C16401   9.554  10.037   2.227 -0.6181 -0.3867 -0.1073
  122MOL0     C16402   9.409  10.038   2.243  0.9412  0.1280  1.0487
  122MOL0     H16403   8.910  10.198   2.172  1.4260  0.5632 -1.4751
  122MOL0     H16404   8.698  10.125   2.073 -0.0433  1.0538 -0.0547
  122MOL0     H16405   8.650   9.687   1.954 -0.8093  1.7144 -3.0141
  122MOL0     H16406   8.557   9.750   2.100  2.0273  1.7959  1.3813
  122MOL0     H16407   8.478   9.770   1.807 -1.9571 -2.1201  0.6950
  122MOL0     H16408   8.403   9.673   1.919 -2.5892  1.5363 -2.8266
  122MOL0     H16409   8.320   9.874   2.042 -1.2553  1.9358 -0.8778
  122MOL0     H16410   8.423   9.988   1.950 -2.1454  2.1198 -0.1175
  122MOL0     H16411   8.307   9.947   1.746 -0.0118 -0.7787 -1.1145
  122MOL0     H16412   8.234   9.788   1.803  1.2304  0.2864 -2.0315
  122MOL0     H16413   8.153  10.057   1.932  1.3043 -0.2279 -0.9172
  122MOL0     H16414   8.076  10.008   1.785  0.0192  0.9338 -0.0107
  122MOL0     H16415   7.969   9.818   1.909  3.5631 -2.9245 -0.2678
  122MOL0     H16416   8.068   9.851   2.051 -3.8504 -2.7755  0.3216
  122MOL0     H16417   7.885   9.947   2.103  0.0640 -2.8296 -1.4700
  122MOL0     H16418   7.988  10.085   2.066  1.3499 -0.8378 -0.3879
  122MOL0     H16419   7.763   9.964   1.894  0.8264 -1.9243  1.4417
  122MOL0     H16420   7.856  10.098   1.829  3.5774 -3.7166 -0.7433
  122MOL0     H16421   7.610  10.006   2.120 -1.1491  0.5797  0.5574
  122MOL0     H16422   7.411  10.149   2.250  0.2806 -0.3179 -1.8872
  122MOL0     H16423   7.508  10.283   2.314 -1.0940  2.3878 -0.6714
  122MOL0     H16424   7.408  10.444   2.157 -0.5640 -0.5586 -0.1973
  122MOL0     H16425   7.301  10.373   2.259  2.0628  3.2406  1.3191
  122MOL0     H16426   7.204  10.245   2.095  2.5527 -1.3801  2.3147
  122MOL0     H16427   7.344  10.217   1.996 -1.8409 -1.5716 -0.3324
  122MOL0     H16428   7.184  10.370   1.877  1.4656  1.9345 -1.8205
  122MOL0     H16429   7.329  10.457   1.920 -1.4462  0.5971 -0.8731
  122MOL0     H16430   7.024  10.528   1.791 -0.3363  0.0954 -0.8249
  122MOL0     H16431   6.725  10.625   1.709  0.7104  0.5905  1.3111
  122MOL0     H16432   6.854  10.514   1.651  0.1379  1.2735  0.4761
  122MOL0     H16433   6.694  10.448   1.695 -1.2251  2.0737 -3.3525
  122MOL0     H16434   6.349  10.654   1.869  1.2146 -0.8704 -0.2177
  122MOL0     H16435   6.096  10.648   1.897 -1.7546  1.8544  3.3244
  122MOL0     H16436   5.942  10.495   1.916  0.3070  0.0570 -0.8160
  122MOL0     H16437   5.945  10.371   2.036 -0.2373  0.9199  1.7701
  122MOL0     H16438   5.720  10.473   2.123 -0.8455  1.3230 -1.0256
  122MOL0     H16439   5.720  10.570   1.975 -2.2069 -1.5055 -0.6874
  122MOL0     H16440   5.746  10.279   1.953  1.0688  0.3113 -0.9114
  122MOL0     H16441   5.711  10.390   1.823  0.2253 -1.3869 -0.3875
  122MOL0     H16442   5.522  10.257   1.911  1.0960  0.3489 -0.3307
  122MOL0     H16443   5.526  10.346   2.068  1.7245  0.0351  0.4309
  122MOL0     H16444   5.458  10.445   1.789  0.8558  0.9071 -0.3733
  122MOL0     H16445   5.479  10.559   1.924 -1.8811 -0.0342  0.8180
  122MOL0     H16446   5.282  10.318   1.912  0.9158 -0.5022  0.2776
  122MOL0     H16447   5.292  10.429   2.051 -0.8610  0.2132  0.1675
  122MOL0     H16448   5.233  10.497   1.759 -1.7870  0.1925 -1.1347
  122MOL0     H16449   5.276  10.626   1.871 -1.9045  0.3572 -1.9693
  122MOL0     H16450   5.034  10.449   1.925 -0.4709  0.2017 -0.8787
  122MOL0     H16451   5.033  10.603   1.851  0.3156  1.5585  1.9451
  122MOL0     H16452   6.161  10.462   2.281  3.2226 -2.2775 -0.6148
  122MOL0     H16453   6.397  10.484   2.260  2.6703  1.4834  0.1852
  122MOL0     H16454   6.727  10.504   2.189  0.0961 -0.0340 -0.1050
  122MOL0     H16455   6.963  10.523   2.227 -0.4766 -0.1128 -0.1919
  122MOL0     H16456   8.853   9.727   2.027  2.7441  0.4101 -1.3080
  122MOL0     H16457   9.064   9.800   2.120 -0.6082 -0.4343 -2.3730
  122MOL0     H16458   9.347  10.369   2.271 -1.3692 -1.3425 -2.7206
  122MOL0     H16459   9.602  10.369   2.250  2.0558 -0.3827  3.0113
  122MOL0     H16460   9.915  10.250   2.119  1.0626  1.7340  0.1673
  122MOL0     H16461   9.801  10.357   2.202  1.6511  0.4337 -0.5282
  122MOL0     H16462  10.017  10.195   2.298  1.0448  1.6207 -2.4058
  122MOL0     H16463   9.889  10.247   2.414  0.2696  0.8464  0.8906
  122MOL0     H16464   9.922  10.476   2.356 -0.6909 -0.8329 -1.2463
  122MOL0     H16465  10.078  10.443   2.266 -1.2621  2.0048  0.0796
  122MOL0     H16466  10.055  10.376   2.571  1.4737  1.1473  1.0042
  122MOL0     H16467  10.109  10.523   2.492 -1.8409  0.6677  0.2880
  122MOL0     H16468  10.370  10.173   2.428 -1.5961  0.1558  0.2172
  122MOL0     H16469   9.616   9.953   2.200  0.5579  0.3976  0.0867
  122MOL0     H16470   9.357   9.943   2.246  1.8426 -0.5774 -2.1404
  123MOL0     O16471   2.243   3.404   7.370 -0.0968  0.3199  0.0229
  123MOL0     C16472   2.226   3.279   7.365  0.2344  0.2325  0.4754
  123MOL0     O16473   2.147   3.200   7.448 -0.2146  0.2732  0.0134
  123MOL0     C16474   2.059   3.249   7.545  0.6218 -0.1106  0.3036
  123MOL0     C16475   2.022   3.380   7.558  0.2623 -0.4893  0.3102
  123MOL0     C16476   1.934   3.420   7.662 -0.1479 -0.0510 -0.0637
  123MOL0     C16477   1.893   3.327   7.765 -0.3825  0.6882  0.3950
  123MOL0     O16478   1.794   3.353   7.858  0.3529 -0.3924  0.7297
  123MOL0     C16479   1.791   3.492   7.894  0.0900 -0.4150  0.1481
  123MOL0     C16480   1.719   3.509   8.032  0.0382 -0.9335  0.4083
  123MOL0     C16481   1.605   3.408   8.050 -0.0879  0.0672 -0.2112
  123MOL0     C16482   1.484   3.410   7.960  0.5279  0.2841 -0.5094
  123MOL0     C16483   1.364   3.329   8.022  0.3617  0.7466  0.5596
  123MOL0     C16484   1.269   3.289   7.910  0.4402  1.4621 -0.6101
  123MOL0     C16485   1.139   3.222   7.965 -1.2575  0.2763  0.6134
  123MOL0     C16486   1.053   3.166   7.850 -0.3232  0.7036 -0.1034
  123MOL0     N16487   0.919   3.163   7.904  1.5154  0.4684 -0.2230
  123MOL0     C16488   0.884   3.080   8.010 -0.2420 -0.0835 -0.0800
  123MOL0     C16489   0.779   3.139   8.069 -0.0558  0.4664 -0.2749
  123MOL0     C16490   0.723   3.097   8.202  0.3769 -0.1209 -0.2823
  123MOL0     C16491   0.626   2.989   8.171  0.9064  0.2681  0.8808
  123MOL0     C16492   0.559   2.918   8.289 -0.4317 -0.6880 -0.8038
  123MOL0     C16493   0.433   2.847   8.252  0.6082 -0.5982 -0.0941
  123MOL0     O16494   0.320   2.939   8.279 -0.4184  0.4487  0.3578
  123MOL0     C16495   0.194   2.897   8.250  0.2993 -0.0215 -0.8657
  123MOL0     C16496   0.094   2.996   8.233  0.0260 -0.1936 -0.2978
  123MOL0     C16497  -0.040   2.957   8.198  0.0789  0.0993  0.2876
  123MOL0     C16498  -0.134   3.074   8.165 -0.6266  0.2129  0.1477
  123MOL0     C16499  -0.077   2.819   8.188 -0.9413  0.0074 -0.2865
  123MOL0     C16500  -0.212   2.769   8.157  0.8306 -0.7913 -0.2632
  123MOL0     O16501  -0.312   2.820   8.238 -0.5637 -0.3829 -0.3255
  123MOL0     C16502  -0.425   2.745   8.245 -0.7023  0.4008 -1.1711
  123MOL0     C16503  -0.524   2.724   8.142  0.6780 -0.6757  0.7680
  123MOL0     C16504  -0.635   2.643   8.156 -0.3786  1.7338  0.4241
  123MOL0     C16505  -0.661   2.580   8.282  0.5655 -0.1279  0.5892
  123MOL0     O16506  -0.770   2.499   8.277  0.2537  0.4216  0.7546
  123MOL0     C16507  -0.807   2.421   8.393  0.0087 -0.8013  0.1427
  123MOL0     C16508  -0.912   2.320   8.338  0.0639 -0.2429 -0.3238
  123MOL0     C16509  -0.949   2.233   8.468  0.3039 -0.0245  0.4499
  123MOL0     C16510  -1.035   2.111   8.437 -0.0747 -0.0199  0.1525
  123MOL0     C16511  -1.089   2.038   8.561 -0.1732 -0.2730 -0.3442
  123MOL0     C16512  -0.998   1.923   8.593 -0.0776  0.2049 -0.7821
  123MOL0     C16513  -1.040   1.838   8.714 -0.7149 -0.0637  0.4347
  123MOL0     C16514  -0.910   1.777   8.771 -0.4325 -0.1212 -0.6841
  123MOL0    Cl16515  -0.959   1.664   8.907 -0.0276 -0.1402  0.2143
  123MOL0     C16516  -0.563   2.589   8.380  0.2402 -0.1368 -0.5002
  123MOL0     C16517  -0.449   2.667   8.360  0.4030 -0.4579 -0.3854
  123MOL0     O16518  -0.227   2.678   8.081  0.3686  0.4385  0.2996
  123MOL0     C16519   0.031   2.725   8.191  0.0034  0.8546 -0.2521
  123MOL0     C16520   0.161   2.760   8.222  0.0367 -0.5702  0.4971
  123MOL0     N16521   0.728   3.234   7.986 -0.7176  0.0534 -0.0580
  123MOL0     N16522   0.818   3.257   7.892 -0.1740  0.3874  0.6072
  123MOL0     C16523   1.927   3.194   7.742 -0.0068  0.0427 -0.5042
  123MOL0     C16524   2.010   3.158   7.634  0.4554  0.1322  0.0831
  123MOL0     C16525   2.306   3.217   7.262 -1.3044 -0.2439 -0.5978
  123MOL0     C16526   2.346   3.084   7.268 -0.6300  0.0585  0.2816
  123MOL0     C16527   2.442   3.029   7.175 -0.0286 -0.6660  0.8512
  123MOL0     C16528   2.486   3.104   7.063 -0.1385  0.1334  0.7212
  123MOL0     O16529   2.568   3.044   6.981 -0.0955 -0.0939 -0.5178
  123MOL0     C16530   2.644   3.117   6.886  0.1874 -0.0030 -0.2271
  123MOL0     C16531   2.754   3.022   6.823 -0.0690 -0.3398 -0.1488
  123MOL0     C16532   2.854   2.962   6.920  0.9275 -0.3353  0.2325
  123MOL0     C16533   2.943   2.853   6.864  0.1109  0.0703 -0.3889
  123MOL0     C16534   2.877   2.722   6.889 -0.2834  0.5724  0.9944
  123MOL0     C16535   2.842   2.610   6.895 -0.8048  0.8843  0.6774
  123MOL0     C16536   2.435   3.235   7.046  0.3953 -0.2943  0.1270
  123MOL0     C16537   2.345   3.291   7.146  0.4906  0.1915  0.1927
  123MOL0     H16538   2.048   3.452   7.482  1.0201  0.5450  1.5063
  123MOL0     H16539   1.892   3.520   7.661 -2.2225 -0.8212  1.7258
  123MOL0     H16540   1.886   3.545   7.898  1.0315 -2.0716  0.1749
  123MOL0     H16541   1.730   3.534   7.813  0.9478  0.4099 -0.0765
  123MOL0     H16542   1.790   3.484   8.111  1.2679 -1.4939 -0.8273
  123MOL0     H16543   1.688   3.613   8.045  1.2057 -0.4524 -0.4630
  123MOL0     H16544   1.650   3.309   8.054 -0.5370 -0.1795 -1.2522
  123MOL0     H16545   1.557   3.436   8.145  1.4125 -0.5016  0.7576
  123MOL0     H16546   1.457   3.514   7.937 -0.3792 -0.7405 -5.0549
  123MOL0     H16547   1.506   3.362   7.864  0.9236  1.9653 -1.3014
  123MOL0     H16548   1.396   3.234   8.066  0.0819  0.5512  0.3490
  123MOL0     H16549   1.306   3.389   8.093  0.3448 -0.8160  1.9130
  123MOL0     H16550   1.240   3.378   7.854  1.0994  1.7615 -0.4775
  123MOL0     H16551   1.316   3.219   7.840 -1.2961  0.6574 -1.0327
  123MOL0     H16552   1.149   3.139   8.036 -1.4469  0.0174  0.3388
  123MOL0     H16553   1.087   3.307   8.010  0.7524  2.2036 -0.5190
  123MOL0     H16554   1.096   3.073   7.810  1.9689  2.1675 -1.2643
  123MOL0     H16555   1.062   3.239   7.769  1.0221 -0.9324 -1.5339
  123MOL0     H16556   0.950   3.002   8.048 -0.4485 -0.9461 -1.4019
  123MOL0     H16557   0.802   3.076   8.274  2.2145  1.6875 -1.6583
  123MOL0     H16558   0.657   3.174   8.244 -1.1269 -0.8792 -1.1962
  123MOL0     H16559   0.679   2.916   8.110 -1.4412 -1.2855  0.5615
  123MOL0     H16560   0.547   3.031   8.109  1.4906 -0.2808 -0.2498
  123MOL0     H16561   0.531   2.990   8.366 -1.1171  0.2611 -1.9255
  123MOL0     H16562   0.637   2.849   8.324 -0.5034  0.2514  1.3648
  123MOL0     H16563   0.435   2.756   8.312 -1.4031 -0.2680  0.5338
  123MOL0     H16564   0.432   2.818   8.146  0.2039  2.4414 -1.0241
  123MOL0     H16565   0.118   3.101   8.246 -1.1129  0.3394 -2.0156
  123MOL0     H16566  -0.085   3.161   8.209 -0.1854  0.6375 -1.1522
  123MOL0     H16567  -0.153   3.095   8.059 -0.5114  3.7419  0.6843
  123MOL0     H16568  -0.236   3.057   8.201 -0.0052 -0.4705  1.6562
  123MOL0     H16569  -0.506   2.782   8.052  0.9973  0.8358  1.7598
  123MOL0     H16570  -0.712   2.635   8.079  0.8053 -0.0349 -0.6482
  123MOL0     H16571  -0.725   2.375   8.449  0.3349 -0.3115  0.0733
  123MOL0     H16572  -0.856   2.480   8.471 -0.5458 -0.0800 -0.7270
  123MOL0     H16573  -0.998   2.376   8.302 -0.1798 -1.8578 -2.4389
  123MOL0     H16574  -0.885   2.261   8.250  1.2682  1.2798 -1.0028
  123MOL0     H16575  -1.013   2.294   8.532 -1.0477 -0.7983 -0.1308
  123MOL0     H16576  -0.857   2.202   8.518  0.5951 -2.3305 -1.3648
  123MOL0     H16577  -1.123   2.155   8.389 -1.3602 -0.0887  2.3221
  123MOL0     H16578  -0.982   2.048   8.366  0.6950  3.0297 -2.2219
  123MOL0     H16579  -1.186   1.990   8.542  0.3946 -0.9006 -1.7784
  123MOL0     H16580  -1.085   2.106   8.646 -0.7667 -0.4533 -0.1618
  123MOL0     H16581  -0.991   1.858   8.505  1.3208 -0.7888  0.0108
  123MOL0     H16582  -0.896   1.959   8.605  0.4350 -1.7111  1.3536
  123MOL0     H16583  -1.105   1.759   8.674  0.6709  0.1810 -2.4966
  123MOL0     H16584  -1.095   1.896   8.789  1.9249 -0.0694  2.5222
  123MOL0     H16585  -0.850   1.861   8.808 -1.6890  0.7259 -0.4771
  123MOL0     H16586  -0.855   1.723   8.693  1.0679  0.6486 -0.1951
  123MOL0     H16587  -0.569   2.545   8.480 -2.9862  1.8024  0.3231
  123MOL0     H16588  -0.382   2.676   8.445 -1.2447  0.0454  0.9113
  123MOL0     H16589   0.006   2.620   8.200  0.8286  0.7159  0.6324
  123MOL0     H16590   0.230   2.676   8.226  0.2621 -0.5677 -1.7957
  123MOL0     H16591   1.901   3.126   7.822  0.5430 -0.0484 -0.3995
  123MOL0     H16592   2.052   3.059   7.618  0.0119  0.0760 -0.7352
  123MOL0     H16593   2.322   3.020   7.353 -0.0547 -2.1133 -1.1086
  123MOL0     H16594   2.466   2.923   7.181 -0.3533 -0.7728  0.3198
  123MOL0     H16595   2.596   3.158   6.797 -2.2087  0.8764  1.3417
  123MOL0     H16596   2.690   3.203   6.937 -2.0361  0.0269  1.9583
  123MOL0     H16597   2.813   3.079   6.751  1.4572 -0.9685  0.5714
  123MOL0     H16598   2.701   2.942   6.770 -0.6933 -0.3267  0.4462
  123MOL0     H16599   2.792   2.923   7.001 -0.3183 -1.7403 -1.3180
  123MOL0     H16600   2.915   3.044   6.960  0.4879  0.4780 -0.7331
  123MOL0     H16601   3.036   2.862   6.920 -0.0652  0.7798 -0.2079
  123MOL0     H16602   2.975   2.866   6.760  2.6309 -0.2011  0.2844
  123MOL0     H16603   2.816   2.507   6.909 -1.1832  0.8903  0.0670
  123MOL0     H16604   2.460   3.301   6.964  0.1483  0.9482  1.0286
  123MOL0     H16605   2.304   3.390   7.130  2.5949  1.0631 -0.0242
  124MOL0     O16606   5.542   6.519  11.169 -0.3156 -0.4866 -0.3763
  124MOL0     C16607   5.641   6.444  11.168  0.2095  0.6262  0.1386
  124MOL0     O16608   5.648   6.321  11.101 -0.0207  0.2089 -0.0369
  124MOL0     C16609   5.546   6.245  11.051 -0.2264  0.1120  0.6322
  124MOL0     C16610   5.411   6.271  11.087  1.5655  0.4161  0.2080
  124MOL0     C16611   5.312   6.178  11.046  0.4312 -0.5903  0.3583
  124MOL0     C16612   5.342   6.061  10.982 -0.5158  0.5371  0.4532
  124MOL0     O16613   5.234   5.990  10.937 -0.3603  0.0777 -0.4192
  124MOL0     C16614   5.235   5.855  10.881 -0.5775  0.3239  0.6251
  124MOL0     C16615   5.091   5.832  10.858 -0.4816 -0.0206 -0.7739
  124MOL0     C16616   5.070   5.712  10.764  0.0556 -0.3315 -1.2183
  124MOL0     C16617   4.921   5.706  10.720 -0.3184 -0.5640 -0.3401
  124MOL0     C16618   4.924   5.706  10.576  0.1351  0.0379 -0.0780
  124MOL0     C16619   4.792   5.681  10.518  0.7439 -0.2860 -0.4034
  124MOL0     C16620   4.747   5.534  10.534 -0.0748 -0.2732  0.3497
  124MOL0     C16621   4.640   5.514  10.428  0.8872 -0.8478 -0.5313
  124MOL0     N16622   4.602   5.372  10.418  1.2158 -0.2829  0.8758
  124MOL0     C16623   4.671   5.259  10.381 -0.0090  0.0468  0.2710
  124MOL0     C16624   4.589   5.154  10.421 -0.0511 -0.3603  0.2188
  124MOL0     C16625   4.614   5.004  10.440 -0.6439  0.3195 -0.2764
  124MOL0     C16626   4.665   4.948  10.304  1.0923 -0.4744 -0.2837
  124MOL0     C16627   4.686   4.802  10.305  0.7278  0.6371  0.1229
  124MOL0     C16628   4.816   4.760  10.374 -0.1054  0.3116 -0.5677
  124MOL0     O16629   4.799   4.772  10.521 -0.3408  0.2971  0.0026
  124MOL0     C16630   4.918   4.791  10.589  0.3087 -0.7168  0.6321
  124MOL0     C16631   4.900   4.819  10.721 -0.9759  0.0189  0.1210
  124MOL0     C16632   5.004   4.833  10.804 -0.8493 -0.1491  0.0216
  124MOL0     C16633   4.960   4.869  10.946  0.3712 -0.7247  0.2075
  124MOL0     C16634   5.134   4.784  10.769  0.2640  1.0269  0.2889
  124MOL0     C16635   5.260   4.778  10.853 -0.0115  0.4636 -0.0721
  124MOL0     O16636   5.352   4.688  10.802  0.0545 -0.3477 -0.4412
  124MOL0     C16637   5.477   4.696  10.864  0.5629  0.4713  0.1227
  124MOL0     C16638   5.572   4.790  10.835 -0.0835 -0.0824  0.0481
  124MOL0     C16639   5.699   4.785  10.894 -0.0637  0.8530  0.8970
  124MOL0     C16640   5.733   4.691  10.987  0.5042  0.0963 -0.5365
  124MOL0     O16641   5.857   4.694  11.042  0.1526  0.4508 -0.0825
  124MOL0     C16642   5.907   4.819  11.095  0.2642  0.3929  0.4295
  124MOL0     C16643   6.039   4.795  11.165  0.7443 -0.0842  0.2449
  124MOL0     C16644   6.023   4.716  11.299  0.3692 -0.6354  0.6699
  124MOL0     C16645   6.159   4.713  11.368  0.1805 -0.2577  0.0195
  124MOL0     C16646   6.265   4.627  11.310 -0.3707 -0.1109  0.1537
  124MOL0     C16647   6.372   4.579  11.417  0.8948 -0.0766  0.1949
  124MOL0     C16648   6.453   4.700  11.482 -0.2030  0.6739 -0.0241
  124MOL0     C16649   6.586   4.655  11.555 -0.6115  0.9609 -0.1660
  124MOL0    Cl16650   6.541   4.545  11.695  0.1547 -0.1823 -0.3701
  124MOL0     C16651   5.643   4.588  11.010 -0.0010 -0.1991  0.2596
  124MOL0     C16652   5.519   4.592  10.948 -0.1213  0.6584  0.8193
  124MOL0     O16653   5.275   4.859  10.946 -0.1101  0.4501  0.4137
  124MOL0     C16654   5.157   4.762  10.626  0.5233  0.0431 -0.6975
  124MOL0     C16655   5.048   4.765  10.538  1.0766  0.1013  0.4684
  124MOL0     N16656   4.468   5.206  10.459 -0.0842  0.2493 -0.6631
  124MOL0     N16657   4.471   5.334  10.443 -0.8518  0.4499  0.1358
  124MOL0     C16658   5.479   6.033  10.955  0.6368 -0.2615  0.1235
  124MOL0     C16659   5.572   6.127  10.984 -0.1111 -0.0834  0.4608
  124MOL0     C16660   5.773   6.494  11.229 -0.2161  0.4504  0.5928
  124MOL0     C16661   5.787   6.629  11.256  0.7359 -0.9592 -0.5973
  124MOL0     C16662   5.914   6.681  11.300 -0.0342  0.0589  0.1740
  124MOL0     C16663   6.019   6.589  11.328  1.4539 -0.6370  0.1356
  124MOL0     O16664   6.150   6.630  11.350  0.4984  0.5506 -0.6725
  124MOL0     C16665   6.176   6.663  11.487 -0.5998 -0.7542 -0.7911
  124MOL0     C16666   6.212   6.551  11.585  0.9499  0.0705 -0.3640
  124MOL0     C16667   6.256   6.606  11.724  0.5746 -0.4127  0.6255
  124MOL0     C16668   6.324   6.495  11.793 -0.4399  0.3462 -0.0545
  124MOL0     C16669   6.226   6.396  11.839 -0.6396 -0.3090  1.0027
  124MOL0     C16670   6.156   6.311  11.865 -0.0602  0.4378 -0.1428
  124MOL0     C16671   5.993   6.450  11.315  0.2897  0.1460  0.6512
  124MOL0     C16672   5.870   6.410  11.276 -0.1685  0.1572 -0.2418
  124MOL0     H16673   5.373   6.347  11.155  3.9167  1.0862  0.8639
  124MOL0     H16674   5.207   6.189  11.071  0.2762  3.0974 -1.2030
  124MOL0     H16675   5.300   5.841  10.794 -0.1175  0.6105  0.9197
  124MOL0     H16676   5.273   5.783  10.954  0.6477 -1.0861 -1.2938
  124MOL0     H16677   5.056   5.812  10.960  2.2875  0.1291  0.2752
  124MOL0     H16678   5.045   5.922  10.818  0.4212  2.4683  3.2622
  124MOL0     H16679   5.131   5.721  10.674  0.7469  1.7794 -0.5889
  124MOL0     H16680   5.102   5.630  10.828 -1.1284  0.8965  1.0826
  124MOL0     H16681   4.880   5.612  10.758  1.2350 -0.7322  1.0492
  124MOL0     H16682   4.869   5.795  10.757  1.6347 -0.6269  2.9334
  124MOL0     H16683   4.950   5.806  10.540  1.8964  0.3451  1.8671
  124MOL0     H16684   4.996   5.635  10.535  1.0395  1.5387 -1.1860
  124MOL0     H16685   4.714   5.745  10.559 -1.3900 -1.5251 -2.3335
  124MOL0     H16686   4.794   5.694  10.410  0.7844  0.1971 -0.3461
  124MOL0     H16687   4.830   5.464  10.519 -0.0060 -0.4943  1.6370
  124MOL0     H16688   4.716   5.514  10.637 -1.3385 -0.9804 -0.1466
  124MOL0     H16689   4.674   5.542  10.327 -1.3441 -0.0432 -1.1127
  124MOL0     H16690   4.547   5.567  10.447 -0.1805 -3.1273  1.1101
  124MOL0     H16691   4.774   5.252  10.347 -0.6674  0.9140 -2.0798
  124MOL0     H16692   4.697   4.987  10.509  0.4621  1.3552 -1.3122
  124MOL0     H16693   4.532   4.943  10.480 -2.5418  3.5488  1.2360
  124MOL0     H16694   4.754   5.008  10.282  0.9517  0.9619  2.5174
  124MOL0     H16695   4.591   4.978  10.229  0.3712  0.6957  0.8336
  124MOL0     H16696   4.695   4.775  10.199  0.9466 -1.5351  0.6342
  124MOL0     H16697   4.606   4.738  10.343  0.6681 -0.1301 -1.2249
  124MOL0     H16698   4.897   4.823  10.336  0.4945 -0.2514 -0.2521
  124MOL0     H16699   4.849   4.657  10.358 -0.9506 -0.4014  1.8737
  124MOL0     H16700   4.797   4.845  10.745 -0.6320  0.9943  0.6067
  124MOL0     H16701   5.048   4.904  11.000  0.9629 -2.3026  0.3144
  124MOL0     H16702   4.887   4.950  10.946  0.8023 -0.2705  2.5653
  124MOL0     H16703   4.929   4.779  11.000 -0.5154 -0.2277  0.5585
  124MOL0     H16704   5.556   4.870  10.763 -2.4738 -0.6690 -0.1381
  124MOL0     H16705   5.768   4.861  10.857 -1.6604  1.8341 -0.2289
  124MOL0     H16706   5.933   4.884  11.011  1.7091  2.3305  2.2610
  124MOL0     H16707   5.840   4.875  11.161  3.3380  2.8335  1.7329
  124MOL0     H16708   6.101   4.728  11.104  0.3302 -1.0788  0.8927
  124MOL0     H16709   6.103   4.882  11.180  0.0027  1.0635 -2.5014
  124MOL0     H16710   5.996   4.614  11.269  1.8984  0.0043 -3.6076
  124MOL0     H16711   5.947   4.760  11.364 -0.4504 -0.4318 -0.4010
  124MOL0     H16712   6.202   4.813  11.379 -0.1179  0.0021 -1.0184
  124MOL0     H16713   6.136   4.671  11.466 -1.9391  0.4336 -0.1240
  124MOL0     H16714   6.309   4.674  11.222 -1.8531  1.2303  0.0884
  124MOL0     H16715   6.217   4.538  11.269 -0.0688  1.0058 -2.8699
  124MOL0     H16716   6.332   4.520  11.499  0.2049  0.6022  0.3622
  124MOL0     H16717   6.438   4.512  11.362 -0.7061  0.3935 -2.5160
  124MOL0     H16718   6.398   4.755  11.560 -0.2262 -1.3883  1.5019
  124MOL0     H16719   6.485   4.769  11.404  2.8287 -1.0627 -0.4362
  124MOL0     H16720   6.638   4.743  11.594 -1.1799  1.7448 -1.1303
  124MOL0     H16721   6.655   4.605  11.486 -1.5867 -0.3251 -0.2452
  124MOL0     H16722   5.672   4.504  11.072  1.6872  2.6540  3.6830
  124MOL0     H16723   5.451   4.509  10.957  0.4042 -0.4334 -3.2482
  124MOL0     H16724   5.253   4.746  10.577  0.5265  4.6515 -2.7309
  124MOL0     H16725   5.076   4.726  10.441 -0.5943 -0.8070  0.3088
  124MOL0     H16726   5.510   5.935  10.917  1.5913  0.1149 -0.1065
  124MOL0     H16727   5.679   6.107  10.975  0.1666  1.2900  0.5748
  124MOL0     H16728   5.702   6.696  11.249  0.6749 -0.6219  2.0585
  124MOL0     H16729   5.924   6.787  11.321 -3.4109  0.3518  0.9952
  124MOL0     H16730   6.259   6.734  11.491  1.0162 -2.2796 -3.6680
  124MOL0     H16731   6.089   6.717  11.524 -0.6215  0.0898 -2.0064
  124MOL0     H16732   6.294   6.493  11.543  1.1911  2.0502 -2.9131
  124MOL0     H16733   6.120   6.492  11.593  0.7956 -0.2011 -3.1732
  124MOL0     H16734   6.162   6.638  11.770 -0.2525 -2.0164  0.1474
  124MOL0     H16735   6.331   6.685  11.718  3.2164 -2.8227 -0.1898
  124MOL0     H16736   6.366   6.531  11.888 -0.1798 -1.6278  0.6299
  124MOL0     H16737   6.404   6.447  11.737  0.2982  0.4135  0.9187
  124MOL0     H16738   6.104   6.225  11.902  3.7394 -2.2565 -0.3717
  124MOL0     H16739   6.075   6.388  11.350  0.2424 -0.1376  0.2648
  124MOL0     H16740   5.846   6.304  11.276  2.7733 -0.6164  1.0378
  125MOL0     O16741   3.579   3.239   0.070 -0.3361 -0.1104  0.3378
  125MOL0     C16742   3.624   3.131   0.041 -0.3124 -0.7897 -0.8376
  125MOL0     O16743   3.555   3.020  -0.001 -0.3533  0.3383 -0.5764
  125MOL0     C16744   3.418   3.017  -0.013 -0.2920 -0.0612 -0.2497
  125MOL0     C16745   3.370   2.929  -0.101 -0.3114 -0.6478  0.4002
  125MOL0     C16746   3.236   2.903  -0.122  0.2355 -0.2030 -0.0926
  125MOL0     C16747   3.142   2.968  -0.040 -0.4381  0.0882  0.1821
  125MOL0     O16748   3.009   2.937  -0.071 -0.5726 -0.4709  0.1271
  125MOL0     C16749   2.921   2.945   0.036  0.0784 -0.4038  0.8492
  125MOL0     C16750   2.787   2.894  -0.009  0.1288  1.1830  0.0791
  125MOL0     C16751   2.694   2.890   0.115  0.0819 -0.0607  0.0453
  125MOL0     C16752   2.558   2.828   0.071  0.3292 -0.0745 -0.3896
  125MOL0     C16753   2.452   2.829   0.182 -0.1903  0.4028  0.3178
  125MOL0     C16754   2.329   2.913   0.153  0.5937 -0.2363 -0.1656
  125MOL0     C16755   2.343   3.065   0.152  0.4487 -0.0069  0.2276
  125MOL0     C16756   2.204   3.124   0.125  0.2711 -0.1201 -0.5440
  125MOL0     N16757   2.107   3.115   0.235 -0.0346  0.5189  0.7125
  125MOL0     C16758   2.110   3.195   0.355 -0.2538  0.3808  0.7473
  125MOL0     C16759   2.024   3.133   0.437  0.5300 -0.1492  0.5305
  125MOL0     C16760   1.972   3.179   0.567  0.0211  0.5972  0.6753
  125MOL0     C16761   1.879   3.303   0.551  0.1298 -0.3215  0.2208
  125MOL0     C16762   1.759   3.289   0.459 -0.3438  0.4001 -0.1230
  125MOL0     C16763   1.667   3.406   0.466  0.0363 -0.3523  0.6618
  125MOL0     O16764   1.628   3.430   0.600 -0.2971 -0.2969 -0.2953
  125MOL0     C16765   1.534   3.345   0.658  0.4006 -0.0177 -0.7825
  125MOL0     C16766   1.569   3.240   0.739  0.3888  0.7054  0.2086
  125MOL0     C16767   1.472   3.143   0.788 -0.1929 -0.3809 -0.6456
  125MOL0     C16768   1.530   3.027   0.867  1.0900 -0.7154  0.3033
  125MOL0     C16769   1.328   3.166   0.764  0.1334  0.2698  0.3294
  125MOL0     C16770   1.215   3.074   0.803 -0.1673 -0.5028 -0.2186
  125MOL0     O16771   1.101   3.096   0.730 -0.4541  0.1148 -0.1154
  125MOL0     C16772   0.972   3.051   0.763  0.6343  0.1967 -0.1851
  125MOL0     C16773   0.915   3.093   0.883 -0.1957  0.1163  1.1121
  125MOL0     C16774   0.797   3.036   0.927  0.9441  0.3166 -0.6114
  125MOL0     C16775   0.733   2.929   0.857  0.4281 -0.0273  0.6029
  125MOL0     O16776   0.624   2.861   0.889 -0.3243  0.5983 -0.8729
  125MOL0     C16777   0.559   2.892   1.016  0.2454 -0.0890  0.7289
  125MOL0     C16778   0.464   2.786   1.062 -0.0416 -0.6095  0.8125
  125MOL0     C16779   0.334   2.763   0.976  0.3764  0.1030 -0.7904
  125MOL0     C16780   0.221   2.708   1.060 -0.7604  0.2451 -0.0971
  125MOL0     C16781   0.131   2.808   1.128  0.6542 -0.1109 -0.2059
  125MOL0     C16782   0.034   2.724   1.229  0.3386 -0.0452 -0.4341
  125MOL0     C16783  -0.080   2.806   1.290 -0.5586 -0.3353  0.5319
  125MOL0     C16784  -0.180   2.721   1.363  0.5674  0.6845 -0.3172
  125MOL0    Cl16785  -0.265   2.615   1.245  0.3726  0.2929 -0.0922
  125MOL0     C16786   0.800   2.895   0.739 -0.3427 -0.2335 -0.9922
  125MOL0     C16787   0.917   2.951   0.685  0.4909 -0.5352  0.7379
  125MOL0     O16788   1.225   3.000   0.906 -0.6491 -0.1714  1.0866
  125MOL0     C16789   1.304   3.278   0.678 -0.2589  0.1340 -0.7704
  125MOL0     C16790   1.396   3.367   0.629  0.2222 -0.0499  0.2207
  125MOL0     N16791   1.971   3.022   0.374 -0.6358  0.5769  0.2373
  125MOL0     N16792   2.020   3.017   0.253  0.1766 -0.6171 -0.1482
  125MOL0     C16793   3.187   3.062   0.049 -0.1177  0.3742  0.4284
  125MOL0     C16794   3.325   3.086   0.062 -0.3664 -0.3313 -0.8741
  125MOL0     C16795   3.774   3.110   0.039  0.5309  0.2350  0.2844
  125MOL0     C16796   3.861   3.206   0.079 -0.5804 -0.1559 -0.7573
  125MOL0     C16797   3.995   3.185   0.081 -0.2950 -0.4286  0.4435
  125MOL0     C16798   4.048   3.064   0.052 -0.2418  0.2681 -1.1987
  125MOL0     O16799   4.185   3.048   0.067  0.1695 -0.3762 -0.2301
  125MOL0     C16800   4.250   2.952  -0.011  0.0998 -0.0096 -0.3873
  125MOL0     C16801   4.404   2.987  -0.012 -0.1209  0.1971  0.0219
  125MOL0     C16802   4.459   2.985   0.125 -0.1423 -0.0772  0.0836
  125MOL0     C16803   4.594   2.908   0.119 -0.1768  0.3694 -0.0105
  125MOL0     C16804   4.697   2.962   0.030 -0.2403 -0.3668  0.5072
  125MOL0     C16805   4.784   3.012  -0.040  0.0320 -0.3305  1.0294
  125MOL0     C16806   3.966   2.959   0.010 -0.1222  0.2066  0.1763
  125MOL0     C16807   3.829   2.989   0.005 -0.2094 -0.0091  0.0070
  125MOL0     H16808   3.443   2.864  -0.148  0.5485  0.1844  0.5379
  125MOL0     H16809   3.208   2.837  -0.203 -1.6555  1.5507 -0.9530
  125MOL0     H16810   2.956   2.891   0.124 -2.3773 -0.7086  1.7279
  125MOL0     H16811   2.904   3.047   0.072 -0.1158  0.8691 -2.4443
  125MOL0     H16812   2.749   2.961  -0.087  1.2441  1.3632 -0.3271
  125MOL0     H16813   2.792   2.792  -0.048 -1.1839  1.7609 -1.7542
  125MOL0     H16814   2.743   2.840   0.199  1.7694  2.9047  0.9849
  125MOL0     H16815   2.675   2.991   0.152 -1.5933  0.3108 -1.6666
  125MOL0     H16816   2.512   2.886  -0.010 -2.6346  1.5289  2.2046
  125MOL0     H16817   2.574   2.725   0.040 -1.7355 -1.2292  2.0218
  125MOL0     H16818   2.413   2.728   0.197 -2.5703  0.9957 -1.3713
  125MOL0     H16819   2.493   2.868   0.276 -0.1784 -0.1977  0.5685
  125MOL0     H16820   2.284   2.875   0.061  0.5149  0.8725 -0.5889
  125MOL0     H16821   2.258   2.896   0.235  2.2472 -0.1493  1.3439
  125MOL0     H16822   2.389   3.105   0.243 -0.3712  0.9602  0.2410
  125MOL0     H16823   2.411   3.082   0.069  0.6128 -1.0789  0.1271
  125MOL0     H16824   2.171   3.077   0.032  2.5909 -1.2004 -0.9089
  125MOL0     H16825   2.223   3.230   0.109  2.5899 -0.5839 -1.2815
  125MOL0     H16826   2.157   3.292   0.368  0.9195 -0.5773  5.2281
  125MOL0     H16827   1.915   3.097   0.611 -0.7894  1.0205  0.4406
  125MOL0     H16828   2.052   3.205   0.637  0.8548  3.1791 -1.0823
  125MOL0     H16829   1.940   3.381   0.505 -1.0120 -1.1946 -3.0726
  125MOL0     H16830   1.842   3.335   0.649 -0.5868  1.6887 -0.6616
  125MOL0     H16831   1.703   3.208   0.506  2.3789 -2.9339 -2.1353
  125MOL0     H16832   1.790   3.277   0.355 -0.1072  0.5034 -0.0656
  125MOL0     H16833   1.579   3.376   0.409  1.8412 -0.3506 -2.3090
  125MOL0     H16834   1.711   3.498   0.426  2.1702 -1.5455  0.0868
  125MOL0     H16835   1.672   3.222   0.766 -0.8264 -2.4474  3.7253
  125MOL0     H16836   1.484   3.036   0.966  1.9259 -0.2760  0.6615
  125MOL0     H16837   1.514   2.925   0.830  0.1554 -1.1359  1.7692
  125MOL0     H16838   1.636   3.040   0.890  0.8746  1.2991  0.3028
  125MOL0     H16839   0.964   3.171   0.940  3.1677 -1.1870  0.2573
  125MOL0     H16840   0.763   3.059   1.028 -0.1253  1.2708 -1.1689
  125MOL0     H16841   0.634   2.899   1.095  0.2204  1.0129  0.6657
  125MOL0     H16842   0.513   2.991   1.006  3.0428  1.1481 -1.1314
  125MOL0     H16843   0.523   2.694   1.051  0.8638 -0.0880  1.1538
  125MOL0     H16844   0.443   2.811   1.166 -1.9674  2.9760 -0.2388
  125MOL0     H16845   0.358   2.686   0.902  1.3123 -2.2768  1.7959
  125MOL0     H16846   0.317   2.855   0.920  0.5648 -0.1832 -1.3258
  125MOL0     H16847   0.161   2.664   0.980  0.4886 -0.7196 -0.5330
  125MOL0     H16848   0.265   2.640   1.133  0.0943 -0.4393 -1.2178
  125MOL0     H16849   0.065   2.846   1.049  1.5025  1.2347 -0.2915
  125MOL0     H16850   0.172   2.897   1.177 -2.0448  0.0514  2.0946
  125MOL0     H16851  -0.013   2.646   1.170 -0.9643  2.2173 -2.5719
  125MOL0     H16852   0.095   2.689   1.313  0.5706  0.0426 -0.5659
  125MOL0     H16853  -0.134   2.858   1.211 -0.4613  0.5655  1.0540
  125MOL0     H16854  -0.045   2.883   1.360  4.5960 -2.1205  0.3918
  125MOL0     H16855  -0.245   2.798   1.406  0.4826  0.7582 -0.5793
  125MOL0     H16856  -0.139   2.660   1.444  0.9564 -0.2865 -1.2145
  125MOL0     H16857   0.772   2.803   0.689 -0.9712  0.0346 -1.1421
  125MOL0     H16858   0.961   2.911   0.595 -1.5278 -0.2136 -0.4725
  125MOL0     H16859   1.205   3.299   0.639 -0.8624  1.1611  1.1624
  125MOL0     H16860   1.375   3.442   0.553  2.6029 -0.0355 -0.5126
  125MOL0     H16861   3.117   3.118   0.111 -2.0772 -1.8266  0.3638
  125MOL0     H16862   3.354   3.167   0.129  2.0937  1.3214 -3.6762
  125MOL0     H16863   3.822   3.302   0.112  2.7378  0.4249  2.1095
  125MOL0     H16864   4.064   3.260   0.119 -1.2022  1.5056 -1.5424
  125MOL0     H16865   4.251   2.858   0.045 -1.0372 -0.0098 -0.3492
  125MOL0     H16866   4.212   2.954  -0.113  1.6914  0.2017 -1.0157
  125MOL0     H16867   4.437   3.080  -0.057  1.1826 -0.6047 -0.7285
  125MOL0     H16868   4.444   2.899  -0.064 -1.2858 -0.9548  0.9904
  125MOL0     H16869   4.386   2.939   0.192 -1.4005  2.4128  0.5375
  125MOL0     H16870   4.468   3.087   0.164 -1.8303 -0.8019  2.5862
  125MOL0     H16871   4.567   2.807   0.090 -4.2936  1.6661 -1.3056
  125MOL0     H16872   4.637   2.909   0.220  0.3428  0.4729 -0.2253
  125MOL0     H16873   4.860   3.057  -0.100 -2.7839  0.9512 -1.9190
  125MOL0     H16874   3.995   2.855  -0.000  0.4733  0.1373  2.1663
  125MOL0     H16875   3.763   2.905  -0.014 -1.1088  0.6141  0.3008
  126MOL0     O16876   5.279   3.785   2.567 -0.1437  0.8928  0.2169
  126MOL0     C16877   5.258   3.908   2.585  0.1693  0.2054  0.2653
  126MOL0     O16878   5.135   3.968   2.576  0.8788  0.2330 -0.3135
  126MOL0     C16879   5.022   3.897   2.591  0.9527  0.7950  0.1417
  126MOL0     C16880   5.001   3.809   2.697 -0.3265  0.0787 -0.1106
  126MOL0     C16881   4.871   3.759   2.716 -0.6080  0.7648 -0.3407
  126MOL0     C16882   4.761   3.791   2.633  0.1756  0.1232 -0.1708
  126MOL0     O16883   4.631   3.749   2.683 -0.2663 -0.0717  0.6136
  126MOL0     C16884   4.513   3.800   2.616 -0.1656 -1.2027 -0.6292
  126MOL0     C16885   4.390   3.759   2.704  0.3241  0.0031 -0.4917
  126MOL0     C16886   4.258   3.769   2.637  0.2734  0.0413 -0.2752
  126MOL0     C16887   4.149   3.710   2.727  0.7571  0.1222 -0.4519
  126MOL0     C16888   4.016   3.717   2.652  0.3398 -0.4087  0.5968
  126MOL0     C16889   3.900   3.633   2.712  0.2963 -0.6508  0.1658
  126MOL0     C16890   3.762   3.651   2.635  0.2112 -0.2068  0.7556
  126MOL0     C16891   3.644   3.570   2.702 -0.6099  0.0161  0.9262
  126MOL0     N16892   3.520   3.634   2.675  0.1514 -0.6704 -0.0412
  126MOL0     C16893   3.437   3.608   2.567  0.5382 -0.1902 -0.5655
  126MOL0     C16894   3.326   3.679   2.595  0.7646 -1.1777  0.0022
  126MOL0     C16895   3.204   3.701   2.507 -0.8262 -1.1959 -0.2073
  126MOL0     C16896   3.073   3.700   2.585  0.2678  0.2087 -0.0381
  126MOL0     C16897   2.947   3.699   2.505  0.8718  0.6235 -0.5938
  126MOL0     C16898   2.933   3.821   2.425  0.7443 -0.0338 -0.3445
  126MOL0     O16899   2.796   3.834   2.388  0.6209  0.2190 -0.2310
  126MOL0     C16900   2.772   3.918   2.274 -0.2390  0.2822  0.0787
  126MOL0     C16901   2.854   4.026   2.228 -0.4736 -0.4241 -0.4151
  126MOL0     C16902   2.818   4.108   2.119 -0.3668 -0.9792  0.1099
  126MOL0     C16903   2.900   4.234   2.085 -0.1093  0.2781 -0.4546
  126MOL0     C16904   2.709   4.058   2.040  0.1167  0.8966 -0.5096
  126MOL0     C16905   2.674   4.110   1.906 -0.1208  0.4364 -0.0455
  126MOL0     O16906   2.541   4.096   1.872 -0.1131 -0.1381 -0.4380
  126MOL0     C16907   2.502   4.138   1.745 -0.6310  0.4907  0.2838
  126MOL0     C16908   2.541   4.081   1.619 -0.2658  0.2517  0.8399
  126MOL0     C16909   2.485   4.118   1.500 -0.7556 -0.5428  0.6242
  126MOL0     C16910   2.377   4.207   1.497 -0.4257  0.0440  0.2632
  126MOL0     O16911   2.330   4.239   1.373  0.9337 -0.3990  0.4851
  126MOL0     C16912   2.193   4.265   1.361  0.8622 -0.8504 -0.5112
  126MOL0     C16913   2.131   4.240   1.220 -0.0748 -0.5431  0.3049
  126MOL0     C16914   1.977   4.233   1.218  0.2784 -0.1705 -0.3535
  126MOL0     C16915   1.892   4.363   1.231  0.1077  0.8340  0.3221
  126MOL0     C16916   1.741   4.329   1.222 -0.2206 -0.0840  0.6510
  126MOL0     C16917   1.702   4.250   1.345  0.8656 -0.8737  0.0694
  126MOL0     C16918   1.550   4.269   1.364  0.2296 -0.7416 -0.8788
  126MOL0     C16919   1.507   4.155   1.456  0.4790  0.1246  0.3692
  126MOL0    Cl16920   1.603   4.138   1.615  0.2253 -0.0320  0.3130
  126MOL0     C16921   2.342   4.269   1.618  0.0484 -0.2075  0.0585
  126MOL0     C16922   2.412   4.243   1.739  0.1677 -0.3492  1.2333
  126MOL0     O16923   2.766   4.150   1.837  0.2388 -0.0023  0.0549
  126MOL0     C16924   2.631   3.944   2.078 -0.4593  0.0957  0.2375
  126MOL0     C16925   2.662   3.880   2.201 -0.6554 -0.3712 -1.2244
  126MOL0     N16926   3.349   3.756   2.708 -0.2982  0.6170 -0.4154
  126MOL0     N16927   3.461   3.717   2.763 -0.7267 -0.1976 -0.0812
  126MOL0     C16928   4.785   3.874   2.531 -0.9916 -0.5337  0.3745
  126MOL0     C16929   4.916   3.921   2.503 -1.1722 -0.4080  0.1126
  126MOL0     C16930   5.373   4.000   2.587 -0.2868 -0.2247 -0.4311
  126MOL0     C16931   5.507   3.962   2.567 -0.5493 -1.1140  0.0462
  126MOL0     C16932   5.614   4.055   2.590 -0.3436 -0.0915  0.1627
  126MOL0     C16933   5.590   4.188   2.619  0.6792 -0.1997 -1.0777
  126MOL0     O16934   5.705   4.269   2.629 -0.3556  0.3546  0.7030
  126MOL0     C16935   5.698   4.409   2.648 -0.0401 -0.1787  0.8946
  126MOL0     C16936   5.838   4.468   2.626 -0.4031 -0.6503  0.3102
  126MOL0     C16937   5.928   4.426   2.748  0.0082  0.2177 -0.1239
  126MOL0     C16938   6.064   4.499   2.744  0.5797  0.0824 -0.1052
  126MOL0     C16939   6.053   4.644   2.761  1.3085 -0.0027  0.4086
  126MOL0     C16940   6.037   4.762   2.765 -0.1809 -0.2468 -0.2035
  126MOL0     C16941   5.456   4.229   2.636 -0.0724 -0.4740  0.0344
  126MOL0     C16942   5.348   4.137   2.625 -0.7004 -0.0595  0.1437
  126MOL0     H16943   5.082   3.783   2.765 -0.5566 -0.0912  0.1048
  126MOL0     H16944   4.863   3.693   2.802 -0.4539  1.1587 -0.0202
  126MOL0     H16945   4.530   3.908   2.610  2.6122 -1.5643 -0.7600
  126MOL0     H16946   4.504   3.752   2.519 -1.2214  0.9802 -1.6715
  126MOL0     H16947   4.411   3.654   2.726 -1.5062 -0.3340 -0.1800
  126MOL0     H16948   4.383   3.814   2.798  3.3230 -0.8303  0.3467
  126MOL0     H16949   4.234   3.870   2.603  0.7955  0.0601 -0.5953
  126MOL0     H16950   4.269   3.693   2.559  2.0834 -0.4519  0.3953
  126MOL0     H16951   4.160   3.604   2.748 -0.3642 -0.0633 -0.7358
  126MOL0     H16952   4.153   3.755   2.827  2.2619 -0.8005 -0.0644
  126MOL0     H16953   3.974   3.818   2.646 -0.4514 -0.8043 -1.6248
  126MOL0     H16954   4.026   3.695   2.546 -1.8511  2.4331 -0.3489
  126MOL0     H16955   3.919   3.525   2.719 -4.1764 -1.6219  0.5385
  126MOL0     H16956   3.886   3.660   2.817 -0.1703  0.1379 -0.0921
  126MOL0     H16957   3.734   3.756   2.620 -1.3182 -0.8615 -1.2919
  126MOL0     H16958   3.776   3.623   2.531 -0.7368  0.7231  0.3618
  126MOL0     H16959   3.669   3.553   2.807  0.5380  1.2524  0.8799
  126MOL0     H16960   3.643   3.468   2.661 -0.2494 -0.1087  1.2196
  126MOL0     H16961   3.449   3.544   2.480 -1.8566 -1.2244 -0.2328
  126MOL0     H16962   3.205   3.798   2.455  0.1970  0.3331  2.4519
  126MOL0     H16963   3.204   3.635   2.420 -1.4831 -1.3680 -0.0823
  126MOL0     H16964   3.083   3.787   2.650  4.8039 -0.4707  0.4892
  126MOL0     H16965   3.075   3.611   2.648  0.4563 -0.7114 -1.3253
  126MOL0     H16966   2.859   3.695   2.570 -1.0002 -0.5769 -3.0450
  126MOL0     H16967   2.939   3.608   2.445  0.6423  0.6891 -0.6647
  126MOL0     H16968   2.997   3.809   2.338  1.1517 -0.3470 -0.0058
  126MOL0     H16969   2.968   3.909   2.480  0.9526 -0.3091 -0.0288
  126MOL0     H16970   2.938   4.057   2.288 -1.4251 -0.5450  1.0436
  126MOL0     H16971   2.929   4.279   2.180  1.5644 -3.0352  0.7582
  126MOL0     H16972   2.991   4.212   2.029 -0.5791 -2.8746 -0.1672
  126MOL0     H16973   2.839   4.299   2.022  0.9676 -0.6427 -2.5484
  126MOL0     H16974   2.609   3.997   1.615 -0.8560 -0.2857  1.7232
  126MOL0     H16975   2.519   4.078   1.405 -1.9602  0.8867 -0.4584
  126MOL0     H16976   2.144   4.196   1.430 -0.0489 -0.0138 -0.2898
  126MOL0     H16977   2.182   4.370   1.388 -0.0755 -0.9944 -0.2887
  126MOL0     H16978   2.166   4.326   1.162 -0.0460 -0.8073 -0.0694
  126MOL0     H16979   2.153   4.145   1.172 -2.3670 -0.6981 -0.5210
  126MOL0     H16980   1.945   4.165   1.297  2.6428 -1.8575 -0.7186
  126MOL0     H16981   1.950   4.187   1.123  0.2851 -0.4724 -0.2078
  126MOL0     H16982   1.910   4.414   1.326  0.7260  3.6939 -1.1854
  126MOL0     H16983   1.922   4.433   1.152  1.8575 -0.3129 -0.0630
  126MOL0     H16984   1.721   4.275   1.129  0.5095  3.1026 -1.5207
  126MOL0     H16985   1.689   4.425   1.213 -0.0469 -0.1234 -1.0188
  126MOL0     H16986   1.729   4.148   1.316  0.2300 -1.1797  0.5359
  126MOL0     H16987   1.756   4.259   1.440  1.3085 -3.8070  0.2125
  126MOL0     H16988   1.493   4.259   1.272 -1.8704  1.1281  0.1165
  126MOL0     H16989   1.526   4.364   1.413 -0.1138 -0.6811 -1.1652
  126MOL0     H16990   1.528   4.063   1.402 -0.6659 -0.3563  0.6998
  126MOL0     H16991   1.401   4.175   1.475  0.7452 -0.1221  2.3745
  126MOL0     H16992   2.259   4.339   1.625  0.7646  0.6419  0.3161
  126MOL0     H16993   2.386   4.291   1.833  0.3163  0.1119  1.0407
  126MOL0     H16994   2.551   3.903   2.016 -1.9741  2.3259  0.5901
  126MOL0     H16995   2.614   3.792   2.240  2.2429 -0.3964  2.9241
  126MOL0     H16996   4.703   3.904   2.467 -0.5572 -0.8491 -0.3477
  126MOL0     H16997   4.930   3.994   2.424 -6.0216  0.4443 -0.2688
  126MOL0     H16998   5.539   3.859   2.561  2.0420 -0.6752  3.1102
  126MOL0     H16999   5.710   4.004   2.593  0.5618  1.5732  0.9989
  126MOL0     H17000   5.627   4.457   2.579 -1.4930 -1.0795  1.7162
  126MOL0     H17001   5.652   4.433   2.744 -1.9582  1.4675 -0.3221
  126MOL0     H17002   5.826   4.576   2.640  0.8259 -0.4628  0.0072
  126MOL0     H17003   5.882   4.444   2.528 -0.0961 -1.9869  0.7555
  126MOL0     H17004   5.955   4.320   2.754  0.9107  0.3648 -1.1498
  126MOL0     H17005   5.872   4.447   2.839 -0.1141 -1.3998  0.2075
  126MOL0     H17006   6.115   4.476   2.650  0.7556 -3.3175  0.6695
  126MOL0     H17007   6.127   4.449   2.819 -0.6248  0.0442  0.9211
  126MOL0     H17008   6.041   4.868   2.751  0.7401  0.0549  1.9996
  126MOL0     H17009   5.434   4.334   2.652 -0.7082 -0.4907 -0.7067
  126MOL0     H17010   5.249   4.179   2.642  0.2834  2.5924 -0.1960
  127MOL0     O17011   0.491   8.822   6.447 -0.4866  0.1382 -0.2930
  127MOL0     C17012   0.521   8.803   6.328  0.8011 -1.0957  0.0653
  127MOL0     O17013   0.434   8.760   6.231 -0.0106  0.3720  0.4554
  127MOL0     C17014   0.302   8.730   6.270 -0.6319  0.3622 -0.5360
  127MOL0     C17015   0.197   8.820   6.246 -0.1744  0.6450  0.0510
  127MOL0     C17016   0.067   8.779   6.265  0.7806 -1.4997 -0.3814
  127MOL0     C17017   0.035   8.649   6.311 -0.9448 -0.4975  0.2326
  127MOL0     O17018  -0.096   8.628   6.337  0.1737 -0.0799  0.6918
  127MOL0     C17019  -0.129   8.513   6.417  0.2516 -0.4944 -0.5385
  127MOL0     C17020  -0.279   8.506   6.415 -0.0746  0.2090  0.2727
  127MOL0     C17021  -0.329   8.412   6.521  0.4005  0.7758 -0.1985
  127MOL0     C17022  -0.487   8.412   6.540 -1.6246 -0.0752 -0.0673
  127MOL0     C17023  -0.540   8.535   6.606 -0.3831 -0.9392  0.1831
  127MOL0     C17024  -0.685   8.559   6.570 -0.2417 -0.4258  0.0512
  127MOL0     C17025  -0.740   8.695   6.622  0.1839  0.5106 -0.2972
  127MOL0     C17026  -0.889   8.698   6.576  0.0773 -0.6563 -0.2000
  127MOL0     N17027  -0.961   8.818   6.624  0.8400 -0.7207 -0.1019
  127MOL0     C17028  -1.065   8.879   6.552  0.3922 -0.2274  0.2514
  127MOL0     C17029  -1.133   8.958   6.639 -0.2062  0.3723 -0.1551
  127MOL0     C17030  -1.250   9.045   6.619 -0.4840  0.4009  0.0442
  127MOL0     C17031  -1.377   8.961   6.627  1.1176  0.2586  1.0077
  127MOL0     C17032  -1.495   9.058   6.598  0.1000 -0.6789 -0.3409
  127MOL0     C17033  -1.628   8.976   6.597 -0.4878 -0.9106  0.2942
  127MOL0     O17034  -1.653   8.916   6.726 -0.8021  1.0410 -0.7090
  127MOL0     C17035  -1.781   8.875   6.757  0.6269 -0.4477  0.5593
  127MOL0     C17036  -1.889   8.859   6.667  0.4818 -0.0462 -0.1136
  127MOL0     C17037  -2.016   8.811   6.712 -0.8656 -0.2847  0.7119
  127MOL0     C17038  -2.119   8.810   6.598 -0.5593 -0.0326 -0.1738
  127MOL0     C17039  -2.039   8.775   6.842  0.4163 -0.1769  0.4394
  127MOL0     C17040  -2.171   8.737   6.898  0.1359 -0.6327  0.2155
  127MOL0     O17041  -2.176   8.720   7.032 -0.3772 -0.3694 -0.0821
  127MOL0     C17042  -2.297   8.717   7.108 -0.2420  0.2394 -0.4780
  127MOL0     C17043  -2.431   8.698   7.059  0.2855  0.5087  0.3894
  127MOL0     C17044  -2.530   8.658   7.151  0.3026  0.9701  0.0326
  127MOL0     C17045  -2.498   8.638   7.292  0.0812 -0.0117 -0.2798
  127MOL0     O17046  -2.577   8.590   7.392  0.0229 -0.3741 -0.3740
  127MOL0     C17047  -2.692   8.676   7.408  0.4704 -0.9497 -0.4934
  127MOL0     C17048  -2.662   8.823   7.439 -0.1006 -0.5179  0.1030
  127MOL0     C17049  -2.791   8.894   7.475 -0.2492  0.2776 -0.0648
  127MOL0     C17050  -2.764   9.044   7.493 -0.4100  0.6785 -0.0180
  127MOL0     C17051  -2.901   9.114   7.497 -0.4610 -0.3297  1.0423
  127MOL0     C17052  -2.972   9.102   7.636 -1.1205  0.0935  0.2071
  127MOL0     C17053  -3.089   9.202   7.649 -0.1149  0.0204  0.4787
  127MOL0     C17054  -3.153   9.200   7.785  0.9081 -0.4897 -0.0794
  127MOL0    Cl17055  -3.290   9.324   7.782 -0.0823  0.4526  0.8104
  127MOL0     C17056  -2.365   8.655   7.325  0.2202 -0.7004  0.0531
  127MOL0     C17057  -2.262   8.692   7.238  0.7330 -0.5924  1.2317
  127MOL0     O17058  -2.271   8.738   6.823  0.1267  0.0677 -0.4243
  127MOL0     C17059  -1.931   8.782   6.928  0.0375  0.0448  0.4594
  127MOL0     C17060  -1.798   8.828   6.889  0.6676  0.5819  0.3711
  127MOL0     N17061  -1.063   8.946   6.760  0.3681 -0.5494 -0.3272
  127MOL0     N17062  -0.957   8.873   6.751  0.1810  0.0369  0.3049
  127MOL0     C17063   0.141   8.561   6.345  0.0844 -0.3355  0.3508
  127MOL0     C17064   0.273   8.604   6.317  0.2214  0.1725  0.3942
  127MOL0     C17065   0.662   8.810   6.301  0.2312  0.4628  0.3044
  127MOL0     C17066   0.721   8.746   6.191  0.2453 -0.6868  0.4243
  127MOL0     C17067   0.847   8.764   6.158 -0.2185  0.2067  0.1041
  127MOL0     C17068   0.944   8.828   6.237  0.1904 -0.2810 -0.0400
  127MOL0     O17069   1.075   8.820   6.193 -0.6492 -0.0666  0.0873
  127MOL0     C17070   1.173   8.859   6.293  0.5525 -0.3666  0.6189
  127MOL0     C17071   1.188   9.006   6.310  0.1314  0.0063  0.1185
  127MOL0     C17072   1.216   9.083   6.182 -0.6538  1.0868  0.0315
  127MOL0     C17073   1.239   9.229   6.202 -0.1705  0.3408 -0.5080
  127MOL0     C17074   1.119   9.293   6.241  0.0066 -0.1172  0.3931
  127MOL0     C17075   1.027   9.367   6.271 -0.1143  0.0849 -0.4216
  127MOL0     C17076   0.883   8.890   6.354 -0.3176 -0.2874 -0.0077
  127MOL0     C17077   0.752   8.877   6.390  0.5050  0.0215 -0.6905
  127MOL0     H17078   0.205   8.925   6.220 -3.9814  0.8413 -0.9122
  127MOL0     H17079  -0.014   8.849   6.252  0.0933 -2.2259 -0.1198
  127MOL0     H17080  -0.085   8.426   6.367  0.1776 -1.9109  1.7348
  127MOL0     H17081  -0.092   8.520   6.519 -0.6192  1.5918 -0.3191
  127MOL0     H17082  -0.326   8.604   6.425  3.0107  2.4221 -3.8069
  127MOL0     H17083  -0.314   8.476   6.315 -0.0590  3.4569 -0.8107
  127MOL0     H17084  -0.292   8.308   6.516 -2.6374 -0.5452  1.8832
  127MOL0     H17085  -0.284   8.438   6.618 -1.3994  0.1382  0.8604
  127MOL0     H17086  -0.523   8.411   6.437  2.5402 -2.5649 -1.7035
  127MOL0     H17087  -0.511   8.323   6.599  1.6346  0.8539  2.9431
  127MOL0     H17088  -0.540   8.527   6.715 -1.1040  0.1697  0.2792
  127MOL0     H17089  -0.480   8.619   6.570  0.8365 -2.4480 -1.4770
  127MOL0     H17090  -0.680   8.555   6.461 -2.0732 -3.9599 -0.0480
  127MOL0     H17091  -0.747   8.474   6.599 -3.6232  1.4508 -1.1326
  127MOL0     H17092  -0.733   8.709   6.730  2.1262  0.9277 -0.4477
  127MOL0     H17093  -0.688   8.781   6.578 -1.4644  1.4291 -0.5348
  127MOL0     H17094  -0.946   8.615   6.619  0.2675 -0.1457  1.0893
  127MOL0     H17095  -0.898   8.685   6.468 -1.4499 -0.2418 -0.1529
  127MOL0     H17096  -1.100   8.865   6.451 -1.7225  3.2117  0.3438
  127MOL0     H17097  -1.244   9.108   6.708  0.4042 -1.3356  1.2848
  127MOL0     H17098  -1.237   9.105   6.528  0.9144 -0.3977 -0.3159
  127MOL0     H17099  -1.396   8.943   6.733 -0.7722  0.8190  0.7938
  127MOL0     H17100  -1.374   8.867   6.572  0.8660  0.5366  0.5126
  127MOL0     H17101  -1.487   9.110   6.502 -2.9470  2.7358  0.9883
  127MOL0     H17102  -1.482   9.128   6.681  2.5416 -2.3165  0.7609
  127MOL0     H17103  -1.617   8.912   6.510 -0.9841  3.0789 -3.0402
  127MOL0     H17104  -1.711   9.037   6.559  0.9942  0.1487 -1.3887
  127MOL0     H17105  -1.872   8.878   6.561  0.8749  0.7835  0.0889
  127MOL0     H17106  -2.081   8.867   6.513 -0.4434 -0.6621 -0.5533
  127MOL0     H17107  -2.117   8.709   6.556  0.4563  0.7717 -2.1681
  127MOL0     H17108  -2.215   8.853   6.625  1.4827  4.2923  1.0472
  127MOL0     H17109  -2.464   8.711   6.957 -0.7473 -1.0370  0.4928
  127MOL0     H17110  -2.629   8.632   7.117  0.5588 -1.5101  0.9599
  127MOL0     H17111  -2.747   8.684   7.313  1.6328  0.5851 -1.0882
  127MOL0     H17112  -2.767   8.643   7.480  1.6220 -0.6836  0.8701
  127MOL0     H17113  -2.604   8.826   7.532 -1.8413 -2.6321  1.3504
  127MOL0     H17114  -2.620   8.874   7.352  2.6393  0.4440  1.8601
  127MOL0     H17115  -2.822   8.847   7.569  0.7131 -1.9404 -0.7739
  127MOL0     H17116  -2.868   8.873   7.401  0.1543 -2.3484  0.1558
  127MOL0     H17117  -2.714   9.062   7.588 -0.0242 -2.0335  0.3728
  127MOL0     H17118  -2.718   9.081   7.401 -3.8291  0.5072 -1.9836
  127MOL0     H17119  -2.968   9.063   7.429  0.6540 -1.6410  0.8806
  127MOL0     H17120  -2.891   9.220   7.470 -0.4122 -0.4320  0.6588
  127MOL0     H17121  -3.006   8.999   7.649 -0.7522 -0.1814 -0.8797
  127MOL0     H17122  -2.900   9.130   7.713 -1.0621  0.9530 -0.1476
  127MOL0     H17123  -3.161   9.169   7.574 -1.9004  1.3429  1.5136
  127MOL0     H17124  -3.059   9.306   7.631  1.3273 -0.3983  0.3394
  127MOL0     H17125  -3.086   9.242   7.860 -0.2779  0.2068  0.6271
  127MOL0     H17126  -3.181   9.105   7.830  2.5281 -0.7124  0.5082
  127MOL0     H17127  -2.333   8.634   7.427  4.4462  2.0103 -0.4292
  127MOL0     H17128  -2.159   8.707   7.269  0.5801  0.3075  1.3187
  127MOL0     H17129  -1.942   8.754   7.032 -2.2795  0.5122  0.3969
  127MOL0     H17130  -1.716   8.833   6.959  0.8778  0.4009  0.1405
  127MOL0     H17131   0.113   8.460   6.373  0.3592 -2.1429 -4.6783
  127MOL0     H17132   0.360   8.540   6.328 -0.9778 -1.1969  2.6260
  127MOL0     H17133   0.659   8.690   6.122 -0.7915 -0.8890  1.4692
  127MOL0     H17134   0.863   8.706   6.068 -2.0316  2.1814 -1.6227
  127MOL0     H17135   1.155   8.815   6.391  3.3399 -2.4182  0.3355
  127MOL0     H17136   1.269   8.818   6.259 -0.9789 -2.3521 -1.6520
  127MOL0     H17137   1.275   9.016   6.376 -1.0777  1.1242  1.6332
  127MOL0     H17138   1.102   9.058   6.352 -0.7592  0.3218 -1.9858
  127MOL0     H17139   1.127   9.065   6.122 -0.3265 -0.5907 -0.0022
  127MOL0     H17140   1.299   9.041   6.124 -1.6694 -1.1963  0.1440
  127MOL0     H17141   1.271   9.279   6.110 -2.2451 -0.1899 -1.5772
  127MOL0     H17142   1.313   9.238   6.282  0.1293  0.9865 -0.8494
  127MOL0     H17143   0.950   9.426   6.316 -0.5005 -0.1090 -0.8223
  127MOL0     H17144   0.944   8.928   6.435  0.7630 -0.8090 -0.5695
  127MOL0     H17145   0.718   8.934   6.476  0.3159 -1.3193  0.1653
  128MOL0     O17146   9.649   8.627   3.645  0.1696  0.2245 -0.3278
  128MOL0     C17147   9.713   8.668   3.551  0.0603 -0.5643  0.3424
  128MOL0     O17148   9.676   8.680   3.415 -0.5922 -0.0101 -0.6579
  128MOL0     C17149   9.560   8.622   3.381  1.1632  1.5227 -0.5054
  128MOL0     C17150   9.550   8.483   3.386  0.5477  0.3976 -0.9450
  128MOL0     C17151   9.434   8.413   3.346  0.0521 -0.7538  0.0997
  128MOL0     C17152   9.321   8.489   3.319 -0.5420 -0.0901  0.6478
  128MOL0     O17153   9.210   8.429   3.280 -0.0214  0.4052  0.2740
  128MOL0     C17154   9.153   8.460   3.152 -1.0248  0.2707 -0.2309
  128MOL0     C17155   9.033   8.371   3.137 -0.1291 -0.3908  0.3972
  128MOL0     C17156   8.947   8.401   3.012  0.1309  0.5704 -0.6835
  128MOL0     C17157   8.802   8.344   3.019  0.0198  0.0872 -1.2375
  128MOL0     C17158   8.729   8.385   2.888 -0.3645  0.5164  0.1089
  128MOL0     C17159   8.593   8.317   2.882  0.0280  0.8201  0.6505
  128MOL0     C17160   8.506   8.340   2.762 -0.0864 -0.6109 -0.4663
  128MOL0     C17161   8.377   8.250   2.797  0.7797 -0.7766  0.5988
  128MOL0     N17162   8.265   8.293   2.711 -0.2251  0.6670 -1.0084
  128MOL0     C17163   8.216   8.420   2.712 -0.3391 -0.2273  0.0380
  128MOL0     C17164   8.099   8.406   2.644 -0.3481 -0.6521 -0.0602
  128MOL0     C17165   7.994   8.512   2.630 -0.4788  1.5239 -0.4354
  128MOL0     C17166   7.861   8.466   2.679 -0.5739  0.7264  0.6373
  128MOL0     C17167   7.749   8.571   2.657 -0.6441  1.2773 -0.7618
  128MOL0     C17168   7.631   8.521   2.736 -1.3055 -0.7632  0.1413
  128MOL0     O17169   7.502   8.556   2.684  0.4999  1.1365 -0.1259
  128MOL0     C17170   7.392   8.521   2.760 -0.3766  0.2558  0.0269
  128MOL0     C17171   7.265   8.573   2.721  0.1143  0.4207 -0.0758
  128MOL0     C17172   7.144   8.544   2.785 -1.3488 -0.4254  0.4460
  128MOL0     C17173   7.016   8.601   2.724  0.0134 -0.6841 -0.5140
  128MOL0     C17174   7.147   8.464   2.904 -0.2263  1.2418 -0.1056
  128MOL0     C17175   7.025   8.419   2.981 -1.3240 -0.1221 -0.5063
  128MOL0     O17176   6.915   8.483   2.960  0.6132 -0.0584  0.2609
  128MOL0     C17177   6.797   8.413   2.981 -0.4874  0.4015  0.3254
  128MOL0     C17178   6.743   8.322   2.886 -0.0911 -0.3060  0.1273
  128MOL0     C17179   6.625   8.258   2.913 -0.0185 -0.7200 -0.5712
  128MOL0     C17180   6.552   8.277   3.026  0.6565  0.7128  0.9049
  128MOL0     O17181   6.444   8.187   3.056  0.2595 -0.0786  0.0700
  128MOL0     C17182   6.337   8.257   3.116  0.5793  0.2890  0.1617
  128MOL0     C17183   6.228   8.152   3.134 -0.0298 -0.5062 -0.4175
  128MOL0     C17184   6.100   8.196   3.214 -0.2496  0.3140  0.4103
  128MOL0     C17185   6.010   8.070   3.238 -0.7684  0.4412  0.0384
  128MOL0     C17186   5.883   8.085   3.312 -0.3360 -0.2832 -0.5522
  128MOL0     C17187   5.792   8.178   3.232  0.7139 -0.2413 -0.1869
  128MOL0     C17188   5.634   8.180   3.242 -0.5521 -0.0631 -0.8011
  128MOL0     C17189   5.572   8.053   3.276 -0.0759 -0.7169  0.4736
  128MOL0    Cl17190   5.578   7.990   3.446  0.0941  0.0813  0.6260
  128MOL0     C17191   6.607   8.363   3.122 -1.0208  0.2384  0.6332
  128MOL0     C17192   6.731   8.424   3.097  0.0804  0.3040 -0.6250
  128MOL0     O17193   7.038   8.326   3.066 -0.2931 -0.3535  0.6653
  128MOL0     C17194   7.276   8.422   2.946  0.5985 -0.1407  0.1207
  128MOL0     C17195   7.398   8.449   2.880 -0.0441 -0.2698  0.1054
  128MOL0     N17196   8.090   8.277   2.596  0.0160 -0.0606  0.8897
  128MOL0     N17197   8.193   8.212   2.633  0.0091 -0.3845  0.2503
  128MOL0     C17198   9.333   8.628   3.306  0.1429  0.4483 -0.2909
  128MOL0     C17199   9.451   8.690   3.326 -0.2987 -1.2007 -0.7586
  128MOL0     C17200   9.857   8.699   3.579 -0.0180 -0.2413  0.1052
  128MOL0     C17201   9.927   8.652   3.691  0.6159  0.0886  0.3887
  128MOL0     C17202  10.058   8.690   3.720  0.0596 -0.8599 -0.4257
  128MOL0     C17203  10.122   8.777   3.636  0.3020  0.6375 -0.1168
  128MOL0     O17204  10.248   8.812   3.645 -0.2780  0.0662  0.8562
  128MOL0     C17205  10.305   8.832   3.775  0.6238 -0.1868  0.2350
  128MOL0     C17206  10.456   8.858   3.761 -0.0009 -0.1225 -0.5132
  128MOL0     C17207  10.538   8.749   3.684 -0.3975 -0.5727 -0.4707
  128MOL0     C17208  10.683   8.795   3.684  0.0543  0.6413  0.1546
  128MOL0     C17209  10.750   8.745   3.560 -0.0274 -0.3926 -0.4771
  128MOL0     C17210  10.807   8.707   3.464 -0.6026 -0.0021 -0.9216
  128MOL0     C17211  10.067   8.814   3.516  0.2885 -0.1376  0.4381
  128MOL0     C17212   9.927   8.776   3.487 -0.6250 -0.0735  0.2497
  128MOL0     H17213   9.640   8.431   3.415  0.9713  1.7064  0.1815
  128MOL0     H17214   9.429   8.306   3.361  3.7384 -1.2147 -0.9807
  128MOL0     H17215   9.132   8.567   3.151  0.4354  0.6243  1.7692
  128MOL0     H17216   9.218   8.435   3.068 -1.4145 -0.1745 -0.4057
  128MOL0     H17217   9.057   8.265   3.120  1.0920  0.3564 -3.6284
  128MOL0     H17218   8.976   8.378   3.230 -1.3984 -1.5606 -0.2555
  128MOL0     H17219   8.931   8.505   2.982 -1.0097  0.3403 -0.9173
  128MOL0     H17220   8.991   8.349   2.927 -0.9949  0.8189 -1.4337
  128MOL0     H17221   8.798   8.235   3.027  0.6349 -0.2566 -4.3667
  128MOL0     H17222   8.748   8.378   3.108  1.7822  1.0900 -0.5143
  128MOL0     H17223   8.718   8.494   2.892  0.2761  0.5837  0.1681
  128MOL0     H17224   8.791   8.353   2.804 -1.6951 -1.2481 -0.2334
  128MOL0     H17225   8.604   8.209   2.887  1.1759  0.8910 -0.0914
  128MOL0     H17226   8.541   8.348   2.973 -0.4209  0.0187  0.6706
  128MOL0     H17227   8.480   8.446   2.751  1.9656 -0.3283 -4.0543
  128MOL0     H17228   8.552   8.296   2.673 -0.7781 -0.8409 -0.7197
  128MOL0     H17229   8.343   8.250   2.901 -2.5519 -0.9472 -0.3732
  128MOL0     H17230   8.393   8.146   2.770 -1.2584 -1.8002  2.9024
  128MOL0     H17231   8.248   8.506   2.770 -0.8091 -1.8665  2.9059
  128MOL0     H17232   8.027   8.601   2.684  0.0836  0.6842  0.6412
  128MOL0     H17233   7.976   8.524   2.523  1.0634  0.6574 -0.8281
  128MOL0     H17234   7.879   8.455   2.786  0.6845  3.2718  0.7813
  128MOL0     H17235   7.835   8.369   2.637 -1.0295  0.3168  1.8438
  128MOL0     H17236   7.704   8.569   2.557 -0.5690 -1.0452 -0.8033
  128MOL0     H17237   7.782   8.672   2.683 -0.8269  0.7278  1.8761
  128MOL0     H17238   7.647   8.570   2.832 -1.0641 -0.0729 -0.2469
  128MOL0     H17239   7.640   8.412   2.742  1.3827 -0.6106 -0.0513
  128MOL0     H17240   7.271   8.637   2.634  1.3688  1.7072  0.9243
  128MOL0     H17241   6.941   8.522   2.712 -0.3100 -0.2337 -1.5095
  128MOL0     H17242   6.976   8.680   2.789  0.9126  0.6642 -1.5422
  128MOL0     H17243   7.035   8.647   2.627  0.3285 -1.0792 -0.6421
  128MOL0     H17244   6.805   8.306   2.799 -1.5900 -5.8819 -0.2589
  128MOL0     H17245   6.597   8.179   2.845 -0.0167  0.0295 -1.4648
  128MOL0     H17246   6.363   8.296   3.215 -1.7515  2.3928  0.0607
  128MOL0     H17247   6.301   8.340   3.054  2.2544 -0.4308 -1.9010
  128MOL0     H17248   6.204   8.101   3.039 -0.1939 -1.8763  0.3260
  128MOL0     H17249   6.280   8.073   3.190  0.0711  0.7433  1.3187
  128MOL0     H17250   6.050   8.267   3.147  1.2472  2.0292  1.0368
  128MOL0     H17251   6.130   8.241   3.309  2.1947 -1.9255  0.8088
  128MOL0     H17252   5.987   8.015   3.146  0.1789 -1.6281  0.9735
  128MOL0     H17253   6.074   8.000   3.292  1.7239  1.4776 -1.4002
  128MOL0     H17254   5.898   8.128   3.411  0.7221 -2.1398  0.1369
  128MOL0     H17255   5.845   7.985   3.333 -0.0168 -0.2153  0.3634
  128MOL0     H17256   5.817   8.283   3.251 -0.9558  0.1746 -0.1540
  128MOL0     H17257   5.818   8.167   3.126  2.4513  0.5410  0.1257
  128MOL0     H17258   5.587   8.219   3.151 -1.5454  2.3907  0.6512
  128MOL0     H17259   5.607   8.249   3.323  2.7514  1.3468 -0.7552
  128MOL0     H17260   5.612   7.972   3.214  0.0039 -0.8298  0.6693
  128MOL0     H17261   5.466   8.060   3.251 -0.8718 -0.0592  3.5663
  128MOL0     H17262   6.571   8.362   3.224  1.6564 -0.5869  1.6760
  128MOL0     H17263   6.788   8.482   3.169  0.6963  0.3947 -1.1777
  128MOL0     H17264   7.287   8.359   3.034 -2.4474  1.1154  1.5322
  128MOL0     H17265   7.490   8.419   2.928  1.0122  0.5311 -1.3295
  128MOL0     H17266   9.252   8.685   3.262 -0.4277 -2.0852 -2.8132
  128MOL0     H17267   9.475   8.794   3.307  4.1299 -1.5094  1.6892
  128MOL0     H17268   9.876   8.581   3.755  0.1030 -2.2894 -2.4625
  128MOL0     H17269  10.108   8.668   3.814  1.9381  0.1112 -1.1253
  128MOL0     H17270  10.252   8.912   3.828  0.2923 -0.2245 -0.0364
  128MOL0     H17271  10.287   8.743   3.837 -0.0981  1.3830  2.4110
  128MOL0     H17272  10.482   8.852   3.867 -1.8175  0.6146  0.0170
  128MOL0     H17273  10.469   8.961   3.727 -1.4877 -0.3250 -1.7672
  128MOL0     H17274  10.505   8.707   3.588  0.3264 -0.3338 -0.8336
  128MOL0     H17275  10.539   8.660   3.747 -1.1382  1.1772  2.1816
  128MOL0     H17276  10.712   8.753   3.781 -0.6521  2.1949  1.0613
  128MOL0     H17277  10.707   8.901   3.697 -0.1257  0.4170  2.8730
  128MOL0     H17278  10.857   8.666   3.379 -0.4833 -0.9547 -0.4052
  128MOL0     H17279  10.120   8.889   3.459  1.4101 -0.9019  0.4411
  128MOL0     H17280   9.901   8.815   3.390  0.3675 -2.1155 -0.8979
  129MOL0     O17281   5.610   5.579   0.149 -0.0624 -0.0198  0.0541
  129MOL0     C17282   5.710   5.509   0.131  0.8436  0.4582  0.3333
  129MOL0     O17283   5.717   5.379   0.093 -0.0394  0.5771  0.4126
  129MOL0     C17284   5.596   5.310   0.072 -0.0717  0.2001  0.5435
  129MOL0     C17285   5.593   5.187   0.138 -0.0221 -0.2577 -0.3282
  129MOL0     C17286   5.478   5.112   0.130  0.5396 -0.7935 -0.8562
  129MOL0     C17287   5.379   5.141   0.037  0.5711 -0.4115 -0.6384
  129MOL0     O17288   5.282   5.042   0.026 -0.1539 -0.7193  0.1046
  129MOL0     C17289   5.152   5.071  -0.030 -0.3247  0.0596 -0.8126
  129MOL0     C17290   5.054   4.947  -0.019 -0.1257  0.2260  0.4779
  129MOL0     C17291   5.025   4.931   0.128 -0.1254 -0.0649 -0.0443
  129MOL0     C17292   4.923   5.030   0.180  0.8218 -0.0164  0.0240
  129MOL0     C17293   4.824   4.968   0.281 -0.6016 -0.2604  0.1555
  129MOL0     C17294   4.875   4.944   0.416  0.3583  0.4556 -0.5765
  129MOL0     C17295   4.763   4.877   0.510  0.0554  0.2278 -0.2180
  129MOL0     C17296   4.651   4.967   0.553  1.2730 -0.6970 -0.1093
  129MOL0     N17297   4.564   4.902   0.652 -0.8013  0.0014  0.6940
  129MOL0     C17298   4.483   4.793   0.634 -0.3096  0.1278 -0.4147
  129MOL0     C17299   4.442   4.754   0.762  0.0784 -0.5718  0.2195
  129MOL0     C17300   4.346   4.642   0.789  0.2153 -0.0517 -0.4235
  129MOL0     C17301   4.211   4.701   0.840 -0.1379 -0.3347  1.0229
  129MOL0     C17302   4.132   4.752   0.713  0.4957  0.3931 -0.0687
  129MOL0     C17303   4.008   4.843   0.735 -0.2996 -0.4908 -1.1465
  129MOL0     O17304   3.891   4.753   0.749 -0.2038 -0.5728 -0.3083
  129MOL0     C17305   3.771   4.815   0.771  0.7729 -0.1808 -0.8160
  129MOL0     C17306   3.670   4.749   0.839 -1.2468  0.3326  0.0129
  129MOL0     C17307   3.546   4.794   0.878  0.2077 -0.6835 -0.0817
  129MOL0     C17308   3.467   4.683   0.946 -0.0059  0.3127 -0.0402
  129MOL0     C17309   3.513   4.933   0.852  0.5546 -0.1332 -0.1599
  129MOL0     C17310   3.375   4.991   0.870 -0.6709 -0.2855  0.2737
  129MOL0     O17311   3.363   5.110   0.825  0.1255 -0.0599 -0.1190
  129MOL0     C17312   3.259   5.186   0.856 -0.3285 -0.0325  0.4172
  129MOL0     C17313   3.156   5.189   0.761  0.2333 -0.0662  0.5182
  129MOL0     C17314   3.040   5.258   0.791  0.3837  0.1772  1.3509
  129MOL0     C17315   3.022   5.337   0.906  0.0331 -0.2424  0.8092
  129MOL0     O17316   2.906   5.403   0.922  0.0314 -0.0029 -0.3320
  129MOL0     C17317   2.885   5.489   1.037  0.3367  0.1205  0.2646
  129MOL0     C17318   2.770   5.590   1.008  0.5690  0.1118 -0.0901
  129MOL0     C17319   2.753   5.690   1.127  0.0128 -0.1136  0.8531
  129MOL0     C17320   2.673   5.813   1.080  0.1835  0.0597  0.2358
  129MOL0     C17321   2.625   5.895   1.200 -0.8472 -0.1238  0.5618
  129MOL0     C17322   2.740   5.971   1.262  0.5514 -0.1498  0.1112
  129MOL0     C17323   2.679   6.084   1.344  0.1648 -0.0786 -0.1831
  129MOL0     C17324   2.678   6.219   1.272  0.3962 -0.3413 -0.1805
  129MOL0    Cl17325   2.581   6.220   1.124  0.0729  0.0414 -0.9051
  129MOL0     C17326   3.128   5.340   0.996  0.4588  0.7234  0.6961
  129MOL0     C17327   3.242   5.261   0.976  0.3613 -0.7802  0.0577
  129MOL0     O17328   3.286   4.931   0.927  0.1732  0.1761  0.0114
  129MOL0     C17329   3.618   5.010   0.790 -0.2908 -0.0567 -1.1231
  129MOL0     C17330   3.736   4.950   0.747 -0.1843 -0.0387 -0.0641
  129MOL0     N17331   4.471   4.860   0.843  0.2999 -0.4340 -0.6781
  129MOL0     N17332   4.543   4.941   0.780 -0.4697 -0.3563  0.4158
  129MOL0     C17333   5.393   5.262  -0.032  0.6069  0.5645  0.7056
  129MOL0     C17334   5.501   5.345  -0.013  0.0690 -0.3768  0.4497
  129MOL0     C17335   5.835   5.563   0.179 -0.3340 -0.1716 -0.1455
  129MOL0     C17336   5.856   5.704   0.198 -0.4006 -0.5827  0.2214
  129MOL0     C17337   5.975   5.768   0.247 -0.2051  0.0540  0.4193
  129MOL0     C17338   6.087   5.689   0.267  0.5638  0.6617  0.8812
  129MOL0     O17339   6.205   5.759   0.292  0.4844  0.9555  0.7798
  129MOL0     C17340   6.325   5.674   0.288 -0.8623 -0.3593  0.9821
  129MOL0     C17341   6.450   5.769   0.266  0.0508 -0.1877  1.2031
  129MOL0     C17342   6.584   5.696   0.284  0.1306 -0.4653 -0.0252
  129MOL0     C17343   6.701   5.788   0.264 -0.2276 -0.4056  0.1409
  129MOL0     C17344   6.820   5.717   0.298 -0.9034  0.2327 -0.0651
  129MOL0     C17345   6.911   5.645   0.328  0.3914  0.0377  1.2549
  129MOL0     C17346   6.074   5.548   0.249  0.6527  0.5197  0.3112
  129MOL0     C17347   5.947   5.490   0.208  0.8736  1.1093 -0.5269
  129MOL0     H17348   5.669   5.152   0.207 -1.6623 -1.0647  1.1576
  129MOL0     H17349   5.469   5.030   0.200 -2.0485  0.5109  0.5008
  129MOL0     H17350   5.100   5.150   0.024 -1.3563  0.8900 -2.9098
  129MOL0     H17351   5.168   5.105  -0.132  4.2320 -2.2582 -1.1169
  129MOL0     H17352   4.961   4.960  -0.074  0.2725 -1.0722 -0.5639
  129MOL0     H17353   5.102   4.860  -0.065  0.1822 -0.1152  1.4150
  129MOL0     H17354   4.977   4.834   0.141 -0.2975  0.1767  1.2084
  129MOL0     H17355   5.118   4.934   0.185  0.0970  2.7912 -0.3898
  129MOL0     H17356   4.979   5.118   0.214  2.0500 -0.4719 -0.7699
  129MOL0     H17357   4.866   5.063   0.093  0.5762 -0.1255  0.1423
  129MOL0     H17358   4.743   5.041   0.280 -0.7725 -0.4551 -0.7766
  129MOL0     H17359   4.773   4.883   0.234  1.6536 -1.2467 -0.6587
  129MOL0     H17360   4.957   4.871   0.413 -0.8862 -1.0581  0.7333
  129MOL0     H17361   4.887   5.041   0.465 -2.4325  0.0637  1.0645
  129MOL0     H17362   4.719   4.797   0.450 -1.5159  1.3319 -0.6150
  129MOL0     H17363   4.806   4.833   0.600  0.7870  0.7377 -0.3005
  129MOL0     H17364   4.592   4.981   0.462 -0.6640  0.8621  1.2754
  129MOL0     H17365   4.691   5.065   0.582  1.3414 -0.3676 -1.2465
  129MOL0     H17366   4.458   4.739   0.543  0.0833  1.5953 -1.4123
  129MOL0     H17367   4.333   4.577   0.702  0.8255  0.7982 -1.1630
  129MOL0     H17368   4.391   4.578   0.865  0.3768  0.4872 -0.0568
  129MOL0     H17369   4.223   4.781   0.913  1.6737 -0.0473  0.4541
  129MOL0     H17370   4.155   4.618   0.886  0.1536 -0.6905  0.7417
  129MOL0     H17371   4.114   4.672   0.641  0.5538  0.7565 -0.4930
  129MOL0     H17372   4.202   4.816   0.659  0.4021  1.3550  0.9141
  129MOL0     H17373   3.997   4.916   0.654  0.6159  0.2282 -0.6332
  129MOL0     H17374   4.034   4.892   0.829 -0.1510 -2.8130  0.1029
  129MOL0     H17375   3.698   4.647   0.866 -1.0541  0.4230  0.1560
  129MOL0     H17376   3.372   4.664   0.895  1.1353 -3.1221 -1.1806
  129MOL0     H17377   3.516   4.585   0.942 -0.3571  0.1756 -2.1775
  129MOL0     H17378   3.431   4.709   1.046 -1.1111 -4.5728  1.1313
  129MOL0     H17379   3.164   5.130   0.671 -1.1039  1.1129 -0.4264
  129MOL0     H17380   2.961   5.247   0.718  2.7301 -2.7960 -0.9938
  129MOL0     H17381   2.871   5.428   1.126 -0.2124  2.0242  1.5489
  129MOL0     H17382   2.973   5.551   1.059 -0.1391  0.2892  1.8081
  129MOL0     H17383   2.789   5.646   0.916  1.2852 -0.6091 -0.3939
  129MOL0     H17384   2.675   5.543   0.981 -0.8796  2.7626  0.1081
  129MOL0     H17385   2.851   5.730   1.154 -0.6981  1.5552  1.0877
  129MOL0     H17386   2.715   5.642   1.218  0.3142 -4.6196 -1.1307
  129MOL0     H17387   2.732   5.869   1.007 -2.4811 -0.0141 -2.1577
  129MOL0     H17388   2.584   5.782   1.024 -2.4348  2.1751  2.9360
  129MOL0     H17389   2.577   5.831   1.274 -1.6837  1.4068  1.3943
  129MOL0     H17390   2.544   5.963   1.173 -0.0735  0.3153 -0.7393
  129MOL0     H17391   2.799   5.897   1.317  0.1834  0.6300  1.5866
  129MOL0     H17392   2.789   6.015   1.174 -2.2796  1.2969 -0.8703
  129MOL0     H17393   2.751   6.088   1.426  0.9558  1.4691 -0.9120
  129MOL0     H17394   2.580   6.055   1.382  1.1795 -0.4357  2.3682
  129MOL0     H17395   2.781   6.240   1.244  1.2176 -1.5686  1.7431
  129MOL0     H17396   2.644   6.300   1.337  0.1907 -0.7547  0.2360
  129MOL0     H17397   3.128   5.391   1.092  0.0473  0.8873  0.6081
  129MOL0     H17398   3.326   5.265   1.044  2.7965 -0.3997 -2.7923
  129MOL0     H17399   3.604   5.117   0.778 -0.2579  0.2502  1.1054
  129MOL0     H17400   3.808   5.013   0.697  0.0207  0.1784  0.5015
  129MOL0     H17401   5.321   5.290  -0.109  0.8265 -3.5842 -1.2899
  129MOL0     H17402   5.494   5.447  -0.051 -0.8532 -0.9197 -0.9100
  129MOL0     H17403   5.779   5.777   0.177  1.7251  3.1613  3.7844
  129MOL0     H17404   5.981   5.873   0.277  3.2526 -0.5380  2.3017
  129MOL0     H17405   6.339   5.615   0.379  2.0737 -0.6939  0.4039
  129MOL0     H17406   6.314   5.607   0.202  0.6744  0.5493  0.0429
  129MOL0     H17407   6.436   5.855   0.332 -0.0856  1.5790 -1.0040
  129MOL0     H17408   6.453   5.811   0.165 -0.8337 -0.9950  0.8257
  129MOL0     H17409   6.588   5.622   0.203  0.6907 -0.8696  0.3667
  129MOL0     H17410   6.579   5.643   0.380  0.3717 -0.3002  0.0800
  129MOL0     H17411   6.688   5.873   0.331 -1.5435 -1.0117  0.6870
  129MOL0     H17412   6.713   5.821   0.160  3.7219 -3.2564 -0.5417
  129MOL0     H17413   6.997   5.582   0.337  0.3860 -0.4804 -1.6576
  129MOL0     H17414   6.151   5.475   0.273  0.3282  0.2823  0.6415
  129MOL0     H17415   5.947   5.381   0.212  1.6950  1.1205 -0.0472
  130MOL0     O17416   4.832   0.949   7.675  0.6884  0.6797 -0.0984
  130MOL0     C17417   4.899   0.928   7.576 -0.5067  0.4015  0.0388
  130MOL0     O17418   4.853   0.901   7.450 -0.0404  0.1834  0.0435
  130MOL0     C17419   4.724   0.923   7.428  0.3100 -0.7856 -0.0548
  130MOL0     C17420   4.671   1.052   7.459  0.0371  0.9164  1.0753
  130MOL0     C17421   4.529   1.067   7.438 -0.6545 -0.3080  0.2978
  130MOL0     C17422   4.452   0.957   7.389 -0.3931  0.0018 -0.9623
  130MOL0     O17423   4.319   0.942   7.397 -0.1539  0.5404  0.3632
  130MOL0     C17424   4.243   1.060   7.404 -0.1160 -1.2425 -0.6125
  130MOL0     C17425   4.102   1.039   7.371 -0.4531 -0.2544 -0.4972
  130MOL0     C17426   4.097   0.985   7.227  0.6292 -0.5633  0.0601
  130MOL0     C17427   3.950   0.974   7.181  0.0552 -0.0358 -0.2172
  130MOL0     C17428   3.907   0.868   7.087 -0.3756 -0.5755 -0.1652
  130MOL0     C17429   3.765   0.899   7.035  0.2589  0.5009 -0.2925
  130MOL0     C17430   3.762   0.988   6.909 -0.5597 -0.4289  0.9094
  130MOL0     C17431   3.630   0.970   6.838  0.5143 -0.2106  0.3039
  130MOL0     N17432   3.510   1.038   6.901 -0.3116 -0.4577  0.2299
  130MOL0     C17433   3.496   1.171   6.908  0.4345  0.7174 -0.2999
  130MOL0     C17434   3.379   1.183   6.968  0.3839 -0.4738  0.0971
  130MOL0     C17435   3.313   1.319   6.997 -0.2528 -0.1555 -0.5202
  130MOL0     C17436   3.222   1.322   7.118 -0.5850  0.1412 -0.1677
  130MOL0     C17437   3.129   1.450   7.101  0.3567 -0.4533  0.5379
  130MOL0     C17438   3.051   1.493   7.224  0.5250  1.0374 -0.2978
  130MOL0     O17439   2.979   1.617   7.207  0.2143  0.2615  0.2360
  130MOL0     C17440   2.839   1.618   7.184  0.2606 -0.3241  0.8342
  130MOL0     C17441   2.762   1.742   7.210 -0.6114  0.3287 -0.5755
  130MOL0     C17442   2.621   1.742   7.198 -0.1595 -0.0367 -0.9137
  130MOL0     C17443   2.553   1.883   7.221  0.2539  0.4217 -0.3592
  130MOL0     C17444   2.552   1.617   7.169  0.0267 -1.3127 -0.2537
  130MOL0     C17445   2.406   1.613   7.168  0.1075 -0.0180 -0.2088
  130MOL0     O17446   2.352   1.505   7.109 -0.1309  1.4113  0.6263
  130MOL0     C17447   2.213   1.495   7.107  0.8182  0.4241 -0.1982
  130MOL0     C17448   2.130   1.487   7.228 -0.2674 -1.1952  1.1199
  130MOL0     C17449   1.989   1.468   7.218 -0.2072  0.3212  0.0436
  130MOL0     C17450   1.933   1.449   7.094 -0.2979 -0.1512  0.7468
  130MOL0     O17451   1.797   1.430   7.097  0.6226 -0.3518  0.7027
  130MOL0     C17452   1.710   1.482   6.994 -0.1152 -0.0392  0.2346
  130MOL0     C17453   1.577   1.519   7.046 -0.7045  0.5718 -0.1280
  130MOL0     C17454   1.494   1.593   6.938 -1.2379  0.5379 -0.6882
  130MOL0     C17455   1.365   1.637   7.008 -0.2651 -0.0181 -0.2649
  130MOL0     C17456   1.244   1.555   6.957  0.2520 -0.3050 -0.3816
  130MOL0     C17457   1.116   1.617   7.024  0.0381  0.4693 -0.0971
  130MOL0     C17458   0.987   1.554   6.970  0.1849 -0.1530  0.6383
  130MOL0     C17459   0.875   1.540   7.073  0.5337 -0.3322  0.5371
  130MOL0    Cl17460   0.796   1.694   7.112 -0.2630  0.3820 -0.6221
  130MOL0     C17461   2.006   1.449   6.982  0.2744  0.2517 -0.1942
  130MOL0     C17462   2.146   1.471   6.988  0.8434  1.0951  0.3081
  130MOL0     O17463   2.341   1.710   7.215 -0.3777 -0.0591 -0.3469
  130MOL0     C17464   2.625   1.506   7.148  0.1008 -0.0560  0.2099
  130MOL0     C17465   2.768   1.504   7.144 -0.0083 -0.2664 -0.3942
  130MOL0     N17466   3.323   1.056   6.995 -0.6633  0.7671 -0.1964
  130MOL0     N17467   3.413   0.973   6.957 -0.1949  1.2015 -0.9150
  130MOL0     C17468   4.513   0.839   7.353 -0.0865 -0.5397 -0.3982
  130MOL0     C17469   4.644   0.823   7.376 -0.1981  0.6622 -0.1700
  130MOL0     C17470   5.048   0.939   7.595  0.0085  0.2810 -0.0787
  130MOL0     C17471   5.140   0.908   7.498  0.0219 -0.4400  0.6995
  130MOL0     C17472   5.274   0.927   7.519  0.1621  0.5486  0.0914
  130MOL0     C17473   5.332   0.967   7.637  0.1737  0.0836 -0.6198
  130MOL0     O17474   5.463   1.006   7.649 -0.1205  0.4984 -0.4773
  130MOL0     C17475   5.558   0.952   7.555 -0.3687  0.4062 -0.5304
  130MOL0     C17476   5.698   1.006   7.591  0.9375  0.4224 -0.0288
  130MOL0     C17477   5.812   0.980   7.500  0.0445  0.4228  0.7507
  130MOL0     C17478   5.839   0.835   7.466  0.2223  1.1280  0.0877
  130MOL0     C17479   5.824   0.744   7.582  0.5020 -1.1859  0.0325
  130MOL0     C17480   5.796   0.677   7.674  0.1411  0.1272  0.0062
  130MOL0     C17481   5.240   0.978   7.741 -0.1320 -1.1241 -0.0765
  130MOL0     C17482   5.100   0.966   7.724  0.5001 -0.5317  0.3674
  130MOL0     H17483   4.721   1.137   7.502 -2.4167  2.0780  1.8214
  130MOL0     H17484   4.486   1.164   7.464  0.5305 -0.0526  1.3788
  130MOL0     H17485   4.240   1.097   7.507 -1.5828 -0.0537 -1.0564
  130MOL0     H17486   4.285   1.132   7.333  1.8017 -3.0271 -1.3918
  130MOL0     H17487   4.052   0.975   7.445 -1.8128  0.4485 -0.7837
  130MOL0     H17488   4.052   1.136   7.376 -1.0782 -0.5845 -0.0875
  130MOL0     H17489   4.154   1.061   7.172  1.8445 -1.5555 -0.1064
  130MOL0     H17490   4.148   0.888   7.216  3.5112  0.7600  0.9034
  130MOL0     H17491   3.889   0.966   7.271 -0.1772  0.2293 -0.3464
  130MOL0     H17492   3.934   1.072   7.133 -1.0708  0.2803  0.7556
  130MOL0     H17493   3.974   0.867   7.001  0.6610 -1.0904  0.6311
  130MOL0     H17494   3.917   0.771   7.137 -0.2076 -1.4124 -1.7699
  130MOL0     H17495   3.721   0.801   7.015  1.6986  0.1269 -1.7967
  130MOL0     H17496   3.703   0.937   7.116  1.7232 -0.6410  1.4243
  130MOL0     H17497   3.784   1.090   6.939 -0.1925 -0.8454  2.1326
  130MOL0     H17498   3.831   0.958   6.829 -2.4057  2.1407 -1.8231
  130MOL0     H17499   3.604   0.864   6.836  1.3200 -0.3961 -0.8633
  130MOL0     H17500   3.635   1.004   6.734 -0.1854 -2.2213 -0.4336
  130MOL0     H17501   3.570   1.245   6.881  1.1881 -0.0760 -0.4661
  130MOL0     H17502   3.389   1.398   6.996 -0.3418 -0.0418  0.5568
  130MOL0     H17503   3.247   1.341   6.913 -2.4799 -1.5760  0.7666
  130MOL0     H17504   3.290   1.343   7.201 -1.2916  0.7218  0.2809
  130MOL0     H17505   3.163   1.230   7.118  0.8153 -0.7846 -0.7992
  130MOL0     H17506   3.057   1.431   7.021 -1.0747 -1.9424  2.0654
  130MOL0     H17507   3.190   1.536   7.074  0.0168 -0.5984 -0.7572
  130MOL0     H17508   3.123   1.513   7.304  1.4705 -0.9164 -0.6173
  130MOL0     H17509   2.977   1.418   7.253  1.8897 -0.0922  0.3766
  130MOL0     H17510   2.823   1.821   7.252  1.0184 -0.3605 -1.5596
  130MOL0     H17511   2.494   1.908   7.133  0.4308 -1.3176 -1.0035
  130MOL0     H17512   2.491   1.891   7.311 -1.3575  2.0628 -1.5474
  130MOL0     H17513   2.629   1.961   7.231 -0.8430  1.8197 -2.2133
  130MOL0     H17514   2.181   1.503   7.323 -1.0309  1.0962  1.2225
  130MOL0     H17515   1.933   1.453   7.310  0.7462  1.9342  0.9220
  130MOL0     H17516   1.761   1.558   6.934 -1.8048 -0.4514 -1.8007
  130MOL0     H17517   1.696   1.395   6.930  0.1821  0.1050 -0.0322
  130MOL0     H17518   1.528   1.425   7.073  3.1271 -1.0000  2.0403
  130MOL0     H17519   1.587   1.577   7.138 -0.7459  1.0977 -0.4499
  130MOL0     H17520   1.475   1.529   6.851  1.2493 -1.4262  0.0853
  130MOL0     H17521   1.552   1.683   6.919  2.6531 -2.2069 -3.3493
  130MOL0     H17522   1.378   1.632   7.116 -0.9133 -0.6565 -0.2108
  130MOL0     H17523   1.344   1.741   6.978 -1.9707 -0.6398 -1.3848
  130MOL0     H17524   1.254   1.451   6.987  0.3650 -0.3500 -0.5772
  130MOL0     H17525   1.231   1.576   6.850 -0.4041 -0.5243 -0.3499
  130MOL0     H17526   1.135   1.608   7.132  2.1594  1.5834 -0.3118
  130MOL0     H17527   1.088   1.720   7.002 -1.3304  0.5181  1.6184
  130MOL0     H17528   1.026   1.455   6.944  2.4416  0.2198  2.3121
  130MOL0     H17529   0.953   1.609   6.881  0.2440  0.0388  0.7344
  130MOL0     H17530   0.920   1.507   7.167 -3.1313 -1.5989  2.0284
  130MOL0     H17531   0.802   1.467   7.037  0.3665  0.1479 -0.1010
  130MOL0     H17532   1.963   1.422   6.886  0.0986 -1.8465  0.4361
  130MOL0     H17533   2.216   1.462   6.906  1.9902  3.9056  0.8675
  130MOL0     H17534   2.564   1.424   7.112 -0.7638  2.6498 -5.6561
  130MOL0     H17535   2.816   1.407   7.138 -3.4764 -2.1952  0.4805
  130MOL0     H17536   4.448   0.755   7.330 -2.4105  1.1043 -0.3144
  130MOL0     H17537   4.693   0.727   7.360  1.0531  1.1237  0.7227
  130MOL0     H17538   5.109   0.889   7.395  0.2241  2.6648 -0.0256
  130MOL0     H17539   5.337   0.926   7.430  1.1073  3.0805  0.6365
  130MOL0     H17540   5.562   0.846   7.579  0.5519  0.6461  0.4567
  130MOL0     H17541   5.532   0.974   7.451  5.0426  3.0530 -1.6518
  130MOL0     H17542   5.719   0.967   7.691 -0.8770 -1.8170 -0.4205
  130MOL0     H17543   5.694   1.115   7.592  0.6655  0.4078  0.7368
  130MOL0     H17544   5.905   1.017   7.545  1.4606  1.4844 -2.7214
  130MOL0     H17545   5.787   1.031   7.407  0.3309 -1.5004 -0.4287
  130MOL0     H17546   5.945   0.833   7.440  1.1514  2.9205  3.2085
  130MOL0     H17547   5.774   0.803   7.384 -1.1998  1.2036  1.1492
  130MOL0     H17548   5.767   0.632   7.767  0.3915  0.9966  0.5156
  130MOL0     H17549   5.285   1.005   7.836  0.4556 -0.9597 -0.3958
  130MOL0     H17550   5.040   0.974   7.815  0.2399  0.2324  0.1317
  131MOL0     O17551   9.328   3.868  11.255 -0.0934 -0.4703  0.6658
  131MOL0     C17552   9.426   3.938  11.299  0.1292  0.3585  0.0363
  131MOL0     O17553   9.409   4.044  11.386  0.1885  0.5274 -0.1632
  131MOL0     C17554   9.277   4.077  11.407  0.5215  0.8320 -0.0562
  131MOL0     C17555   9.209   4.016  11.517 -0.2040  0.1110  0.8139
  131MOL0     C17556   9.070   4.039  11.533 -0.5879  0.1998 -0.7440
  131MOL0     C17557   8.999   4.120  11.449 -0.1394 -0.0601 -0.3678
  131MOL0     O17558   8.860   4.122  11.466 -0.4109  0.3899 -0.6141
  131MOL0     C17559   8.790   4.251  11.425 -0.3423  0.5298 -0.0757
  131MOL0     C17560   8.652   4.241  11.494 -0.4183  0.2728 -0.3176
  131MOL0     C17561   8.553   4.358  11.453 -1.0446 -0.2191 -0.1099
  131MOL0     C17562   8.425   4.360  11.531 -0.3104  0.1074 -0.0593
  131MOL0     C17563   8.336   4.478  11.498 -0.2945 -0.0292 -0.0172
  131MOL0     C17564   8.212   4.495  11.590  0.6688 -0.2344 -0.6952
  131MOL0     C17565   8.089   4.415  11.562 -0.3261  0.4963 -0.0144
  131MOL0     C17566   7.975   4.427  11.662  0.0497 -0.0478 -0.3428
  131MOL0     N17567   7.957   4.567  11.701  0.7844  0.0095  0.3484
  131MOL0     C17568   7.890   4.656  11.623 -0.1204 -0.0607  0.3983
  131MOL0     C17569   7.915   4.773  11.688 -0.3772  0.3799  0.6656
  131MOL0     C17570   7.870   4.912  11.644  0.3286  0.5317  0.4517
  131MOL0     C17571   7.721   4.926  11.610 -0.9916  0.2083  0.3327
  131MOL0     C17572   7.646   4.983  11.724 -0.0044 -0.2938 -0.6224
  131MOL0     C17573   7.496   4.982  11.714  0.7334 -0.5981 -0.4543
  131MOL0     O17574   7.446   5.020  11.583  1.0569 -0.2631 -0.1075
  131MOL0     C17575   7.310   5.054  11.569 -0.0094 -0.1179  0.2031
  131MOL0     C17576   7.215   4.971  11.630  0.4333  0.3275 -0.1048
  131MOL0     C17577   7.080   4.993  11.598 -0.5602 -0.2358  0.0769
  131MOL0     C17578   6.987   4.900  11.668  0.2401  0.1049  0.4064
  131MOL0     C17579   7.042   5.103  11.512 -0.2416  0.7682 -0.9763
  131MOL0     C17580   6.900   5.142  11.484  0.0521 -0.4937  0.3125
  131MOL0     O17581   6.882   5.271  11.437 -0.2218  0.0390  0.3920
  131MOL0     C17582   6.752   5.302  11.393 -0.9435 -0.6506 -0.2447
  131MOL0     C17583   6.635   5.299  11.469  0.1034  0.8348  0.3904
  131MOL0     C17584   6.516   5.353  11.421 -0.3105  0.3776 -0.0243
  131MOL0     C17585   6.512   5.423  11.299 -0.2690 -0.5990  0.4610
  131MOL0     O17586   6.395   5.486  11.262 -0.4856 -0.1190 -0.6685
  131MOL0     C17587   6.401   5.601  11.174  0.1194  0.4132  0.2468
  131MOL0     C17588   6.265   5.668  11.158  0.2965 -0.1482  0.3254
  131MOL0     C17589   6.160   5.580  11.088 -0.2837  0.0983 -0.4133
  131MOL0     C17590   6.024   5.656  11.081 -0.2073 -0.5019  0.2369
  131MOL0     C17591   5.906   5.565  11.051  0.5726  0.7900 -0.0798
  131MOL0     C17592   5.784   5.658  11.034 -0.1758  0.1603  0.4350
  131MOL0     C17593   5.664   5.574  10.996 -0.7763  0.2194  0.6970
  131MOL0     C17594   5.530   5.656  10.986  0.2112  0.2854 -0.0680
  131MOL0    Cl17595   5.517   5.745  11.138  0.5813 -0.0593 -0.3824
  131MOL0     C17596   6.625   5.424  11.217 -0.3134 -0.7260 -0.3759
  131MOL0     C17597   6.744   5.359  11.262 -0.1748  0.5899  0.9916
  131MOL0     O17598   6.815   5.053  11.482  0.2515  0.1975 -0.6261
  131MOL0     C17599   7.146   5.183  11.454 -0.4180  0.3332 -0.1705
  131MOL0     C17600   7.281   5.156  11.484  0.1589 -0.0115 -0.4895
  131MOL0     N17601   7.988   4.749  11.802 -0.0623  0.3480 -0.2579
  131MOL0     N17602   8.005   4.631  11.811 -0.3144  0.7650 -0.5938
  131MOL0     C17603   9.067   4.196  11.351  0.8046 -1.2353 -0.2952
  131MOL0     C17604   9.205   4.163  11.325 -0.2985 -0.9662 -0.3361
  131MOL0     C17605   9.559   3.895  11.273 -1.1421  0.2586 -0.7695
  131MOL0     C17606   9.666   3.976  11.312 -0.1799 -0.0655  1.0681
  131MOL0     C17607   9.802   3.951  11.266  0.2444 -0.5870 -0.8730
  131MOL0     C17608   9.828   3.840  11.185  0.8089  0.6698  0.0501
  131MOL0     O17609   9.946   3.815  11.131 -0.0390 -0.0496 -0.1271
  131MOL0     C17610  10.023   3.704  11.186  1.2394  0.0732  0.0380
  131MOL0     C17611  10.171   3.695  11.174 -0.4483  0.4665 -0.6365
  131MOL0     C17612  10.205   3.651  11.035  0.0842 -0.5168 -0.3908
  131MOL0     C17613  10.356   3.656  11.020 -0.0449 -0.5523  0.0458
  131MOL0     C17614  10.427   3.556  11.112  0.3845  0.1243  0.3602
  131MOL0     C17615  10.492   3.473  11.164 -0.1935 -0.3581 -1.3491
  131MOL0     C17616   9.721   3.752  11.143 -0.0582  0.2033  0.2876
  131MOL0     C17617   9.585   3.781  11.187 -0.3148  0.0726 -0.7613
  131MOL0     H17618   9.257   3.938  11.575  0.0400  0.5016  1.1473
  131MOL0     H17619   9.016   3.985  11.610 -1.8699  0.2686 -1.5609
  131MOL0     H17620   8.846   4.337  11.463 -0.5162  0.3421  0.6076
  131MOL0     H17621   8.783   4.258  11.315 -0.6530  0.0909 -0.0852
  131MOL0     H17622   8.614   4.143  11.464  1.6251 -1.0666  1.1535
  131MOL0     H17623   8.663   4.244  11.603 -3.5346  3.3015  0.0727
  131MOL0     H17624   8.621   4.443  11.464 -0.0520 -0.8771 -0.9706
  131MOL0     H17625   8.528   4.346  11.347 -2.2098 -0.3705  0.1682
  131MOL0     H17626   8.373   4.268  11.505 -1.6655  0.9479 -0.4150
  131MOL0     H17627   8.448   4.359  11.638 -2.6866  2.7071  0.6094
  131MOL0     H17628   8.392   4.569  11.521  3.8340 -2.6570  1.5460
  131MOL0     H17629   8.310   4.484  11.392  1.7517  3.3660 -0.4830
  131MOL0     H17630   8.252   4.468  11.688 -1.2671  1.0955  0.5559
  131MOL0     H17631   8.188   4.601  11.607  0.8592 -0.6673  3.0041
  131MOL0     H17632   8.051   4.432  11.461 -1.6716 -2.1338 -0.0371
  131MOL0     H17633   8.109   4.308  11.566 -0.6586  0.4683  1.9167
  131MOL0     H17634   7.996   4.377  11.757  0.8779 -1.4320 -1.2164
  131MOL0     H17635   7.878   4.389  11.628 -0.0712  0.4427 -0.5485
  131MOL0     H17636   7.838   4.648  11.528 -1.1672  2.9664  0.6191
  131MOL0     H17637   7.901   4.973  11.729  2.6591 -2.2828  1.8135
  131MOL0     H17638   7.920   4.941  11.551 -0.0597  0.0209  0.0729
  131MOL0     H17639   7.680   4.828  11.586 -0.9538  0.6901 -2.0055
  131MOL0     H17640   7.710   4.991  11.523  1.7834 -0.5377 -0.6910
  131MOL0     H17641   7.679   5.084  11.751  3.9352 -1.5307 -0.1998
  131MOL0     H17642   7.668   4.920  11.811 -1.5688  0.4968  0.3995
  131MOL0     H17643   7.453   5.055  11.782  0.6525 -0.4868 -0.6240
  131MOL0     H17644   7.467   4.877  11.731  2.5701 -1.1351 -0.4334
  131MOL0     H17645   7.256   4.899  11.701  1.0650  0.4442 -0.3450
  131MOL0     H17646   6.929   4.833  11.604  0.6204 -1.9955  2.1253
  131MOL0     H17647   7.040   4.836  11.739 -0.1338 -1.2335 -0.4755
  131MOL0     H17648   6.917   4.953  11.734  0.6918 -1.2335  2.0292
  131MOL0     H17649   6.650   5.259  11.569 -0.1249 -1.5492 -0.4607
  131MOL0     H17650   6.422   5.363  11.475  0.0759  1.7263  0.4218
  131MOL0     H17651   6.470   5.676  11.213 -0.0046  1.8649 -2.1284
  131MOL0     H17652   6.431   5.572  11.073  0.0654  1.9657 -0.2399
  131MOL0     H17653   6.242   5.700  11.260  3.7800 -1.2411  1.6117
  131MOL0     H17654   6.271   5.753  11.089 -1.4012 -3.2274 -4.0783
  131MOL0     H17655   6.146   5.491  11.150  1.6534  0.3927  0.5077
  131MOL0     H17656   6.184   5.548  10.986  1.2394 -1.6089  0.4208
  131MOL0     H17657   6.005   5.711  11.174 -1.1593 -0.0220 -0.2378
  131MOL0     H17658   6.034   5.728  11.000  1.7618 -0.5184  0.4044
  131MOL0     H17659   5.892   5.490  11.128  1.2824 -2.4845 -2.8840
  131MOL0     H17660   5.922   5.517  10.954 -2.3928  0.7407 -0.6333
  131MOL0     H17661   5.769   5.709  11.129  2.3129  0.9915  0.4704
  131MOL0     H17662   5.803   5.726  10.950  2.3807  0.9773  1.5439
  131MOL0     H17663   5.659   5.510  11.085 -0.6252 -0.3283  0.3195
  131MOL0     H17664   5.678   5.515  10.905 -1.7807 -2.1684  1.9950
  131MOL0     H17665   5.442   5.592  10.970  0.0585  1.1746 -3.4053
  131MOL0     H17666   5.530   5.726  10.902 -2.6425 -0.4920 -0.8408
  131MOL0     H17667   6.616   5.474  11.121 -0.1596 -0.5847 -0.3150
  131MOL0     H17668   6.839   5.371  11.211  0.9604  0.8302  3.0297
  131MOL0     H17669   7.121   5.260  11.382 -0.5017  1.3589  0.9255
  131MOL0     H17670   7.363   5.208  11.436  1.6659 -2.7565 -1.0741
  131MOL0     H17671   9.007   4.260  11.288 -0.5878 -2.7800 -0.6051
  131MOL0     H17672   9.264   4.196  11.240  2.9332  1.9912  2.7459
  131MOL0     H17673   9.656   4.058  11.382  4.3380  2.3701 -0.7088
  131MOL0     H17674   9.894   4.005  11.287 -0.0540 -0.4875  0.2563
  131MOL0     H17675  10.007   3.699  11.294  2.2337 -2.6761  0.1441
  131MOL0     H17676   9.975   3.613  11.149  1.1858  0.5588 -1.1526
  131MOL0     H17677  10.214   3.627  11.248 -0.5003  1.5239  0.4064
  131MOL0     H17678  10.215   3.793  11.195  0.7326 -0.5152  1.9481
  131MOL0     H17679  10.157   3.715  10.960  2.1457  3.0014  1.0754
  131MOL0     H17680  10.173   3.550  11.008  2.0237 -1.3249  0.1719
  131MOL0     H17681  10.401   3.754  11.037  4.1000 -2.4465  1.1727
  131MOL0     H17682  10.369   3.631  10.914 -2.5416  0.9004 -0.6877
  131MOL0     H17683  10.550   3.403  11.220 -0.9783 -1.1364 -1.4912
  131MOL0     H17684   9.746   3.681  11.065 -0.7582  2.1714 -1.8305
  131MOL0     H17685   9.503   3.721  11.149  0.7906 -0.9557 -1.6209
  132MOL0     O17686   5.611   1.425   4.695  0.7188  0.7920 -1.4202
  132MOL0     C17687   5.699   1.338   4.705 -0.3265  0.4622 -0.6815
  132MOL0     O17688   5.674   1.216   4.759  0.4496  1.0091  0.0632
  132MOL0     C17689   5.548   1.201   4.816  1.2135 -0.7946 -0.0090
  132MOL0     C17690   5.450   1.121   4.751  0.5550  0.0838 -0.3468
  132MOL0     C17691   5.314   1.109   4.794  0.5829 -0.9290  0.4132
  132MOL0     C17692   5.271   1.178   4.911 -0.4973 -0.1266 -0.2356
  132MOL0     O17693   5.149   1.161   4.970  0.2646  0.1774 -0.1132
  132MOL0     C17694   5.043   1.203   4.887  0.8253 -0.5211  0.4015
  132MOL0     C17695   4.924   1.227   4.977 -0.2158  0.1198 -0.1016
  132MOL0     C17696   4.832   1.116   4.988  0.0677 -0.0897  0.3056
  132MOL0     C17697   4.724   1.132   5.102  0.2288  0.7577  0.3157
  132MOL0     C17698   4.602   1.044   5.056 -0.8060 -0.6332 -0.0963
  132MOL0     C17699   4.519   1.022   5.182  0.2759  0.3198  0.5441
  132MOL0     C17700   4.415   0.906   5.158 -0.4796 -0.3616 -0.3098
  132MOL0     C17701   4.320   0.932   5.044  0.5205 -0.1407  0.4446
  132MOL0     N17702   4.222   1.049   5.065 -0.2434  0.3670 -0.1493
  132MOL0     C17703   4.099   1.024   5.119  0.8932  0.4869 -0.7089
  132MOL0     C17704   4.033   1.142   5.109 -0.4450  1.1007  0.4088
  132MOL0     C17705   3.890   1.174   5.150 -0.2883  0.0262 -0.1733
  132MOL0     C17706   3.829   1.050   5.219 -0.0832  0.3762  0.7139
  132MOL0     C17707   3.690   1.092   5.272 -0.3637 -0.1367  0.2550
  132MOL0     C17708   3.622   0.985   5.351  0.5507  0.2432  0.0550
  132MOL0     O17709   3.494   1.022   5.398  0.6482 -0.0343 -0.5610
  132MOL0     C17710   3.394   1.052   5.303 -1.0366  0.9698 -0.0938
  132MOL0     C17711   3.394   1.018   5.166  0.2816 -0.1979 -0.1144
  132MOL0     C17712   3.282   1.034   5.084  0.9152  0.6869 -0.4508
  132MOL0     C17713   3.296   0.980   4.949 -0.2603  0.3172 -0.1894
  132MOL0     C17714   3.166   1.095   5.132 -0.4666  0.3547 -0.4053
  132MOL0     C17715   3.042   1.129   5.060 -0.4246 -0.4698 -0.9108
  132MOL0     O17716   2.930   1.166   5.136  0.0872  0.4385 -0.1296
  132MOL0     C17717   2.819   1.201   5.065  0.2281 -0.3433  0.4496
  132MOL0     C17718   2.782   1.330   5.034  0.2631  0.4204  0.1762
  132MOL0     C17719   2.668   1.359   4.967 -0.3405 -0.7372  0.2604
  132MOL0     C17720   2.572   1.261   4.939  0.1865  0.5818 -1.1116
  132MOL0     O17721   2.461   1.290   4.867 -0.2277 -0.1347 -0.3054
  132MOL0     C17722   2.339   1.294   4.946  0.0891 -0.1619 -1.1547
  132MOL0     C17723   2.232   1.359   4.862  0.2396 -0.9267 -0.5379
  132MOL0     C17724   2.278   1.505   4.819 -0.9822 -0.0847  0.1209
  132MOL0     C17725   2.165   1.583   4.747 -0.4860  0.7896  0.6639
  132MOL0     C17726   2.222   1.702   4.673 -0.1926 -0.3584 -0.1491
  132MOL0     C17727   2.289   1.679   4.528  0.7152  0.5372 -0.6308
  132MOL0     C17728   2.326   1.816   4.468  0.5497 -0.7528  0.7135
  132MOL0     C17729   2.202   1.867   4.395 -0.0004 -0.8887 -0.0568
  132MOL0    Cl17730   2.252   2.001   4.280 -0.2928 -0.0746  0.2840
  132MOL0     C17731   2.608   1.136   4.976  0.1677  0.6936 -0.5146
  132MOL0     C17732   2.727   1.106   5.042  0.0458  0.8647 -0.5858
  132MOL0     O17733   3.053   1.132   4.941  0.3950 -0.0923  0.2067
  132MOL0     C17734   3.169   1.139   5.266 -0.4491 -0.1318 -0.7452
  132MOL0     C17735   3.274   1.108   5.351  0.4854 -0.2293  0.1122
  132MOL0     N17736   4.120   1.233   5.063  0.2353  0.4320  0.0333
  132MOL0     N17737   4.231   1.182   5.032  0.2421  0.1236  0.1185
  132MOL0     C17738   5.374   1.261   4.979  0.2987  0.7082  0.1270
  132MOL0     C17739   5.508   1.274   4.927  0.3956 -0.3083  0.2132
  132MOL0     C17740   5.844   1.386   4.688 -0.2916 -0.5447  0.5723
  132MOL0     C17741   5.873   1.520   4.672 -0.0927  0.3506  0.3421
  132MOL0     C17742   6.010   1.561   4.679  0.0496  0.4294 -0.1179
  132MOL0     C17743   6.114   1.465   4.705 -0.7637 -0.3729  0.3557
  132MOL0     O17744   6.247   1.493   4.711 -0.3213 -0.4185  0.3568
  132MOL0     C17745   6.295   1.624   4.686 -0.5373  0.5232 -0.2435
  132MOL0     C17746   6.290   1.696   4.825  0.4686 -0.0692  0.1833
  132MOL0     C17747   6.376   1.816   4.823 -0.2076  0.1256  0.9959
  132MOL0     C17748   6.368   1.901   4.949 -0.5359 -0.2730 -0.4411
  132MOL0     C17749   6.468   2.013   4.942 -0.1912  0.4907  0.1336
  132MOL0     C17750   6.553   2.100   4.955  0.3253 -0.0222  0.7803
  132MOL0     C17751   6.082   1.331   4.716  0.1314 -0.1088 -0.2162
  132MOL0     C17752   5.949   1.293   4.706 -0.1697 -0.1128  0.8381
  132MOL0     H17753   5.477   1.073   4.657  0.6866 -0.0012 -0.2649
  132MOL0     H17754   5.240   1.054   4.737 -0.2909 -0.8175  1.4081
  132MOL0     H17755   5.060   1.290   4.824 -1.6902 -0.0673  0.2502
  132MOL0     H17756   5.023   1.123   4.815  1.6592  0.3303 -0.8169
  132MOL0     H17757   4.958   1.250   5.079  1.2788  1.5408 -0.8669
  132MOL0     H17758   4.882   1.323   4.945  2.6570  0.9398 -1.8487
  132MOL0     H17759   4.777   1.109   4.894  1.3049 -3.0480 -0.2902
  132MOL0     H17760   4.880   1.019   5.004 -2.1368 -0.9331  2.5445
  132MOL0     H17761   4.775   1.093   5.190  1.9594  0.7600 -0.6343
  132MOL0     H17762   4.700   1.236   5.124 -0.6447  0.2155  2.1426
  132MOL0     H17763   4.551   1.088   4.970  1.4791  0.9921 -0.7094
  132MOL0     H17764   4.637   0.946   5.022 -3.8360 -1.5511 -0.8808
  132MOL0     H17765   4.580   1.012   5.272  1.8739  0.2748 -0.5104
  132MOL0     H17766   4.462   1.113   5.207 -1.0997  0.2282 -1.9207
  132MOL0     H17767   4.468   0.813   5.137  2.0250  1.1359 -1.0988
  132MOL0     H17768   4.352   0.892   5.246  2.2440  4.7820  2.8797
  132MOL0     H17769   4.263   0.839   5.036  3.4816 -2.0630 -0.1765
  132MOL0     H17770   4.362   0.939   4.943  0.0504 -2.1968  0.0523
  132MOL0     H17771   4.056   0.930   5.150 -0.6432  0.5034 -2.5855
  132MOL0     H17772   3.895   1.260   5.217 -1.6924 -1.5429  2.0678
  132MOL0     H17773   3.827   1.201   5.065 -1.5648 -1.6996  0.1734
  132MOL0     H17774   3.892   1.031   5.306  0.6118 -1.2728 -0.1102
  132MOL0     H17775   3.816   0.969   5.146  2.1921  1.1623 -0.6500
  132MOL0     H17776   3.619   1.129   5.197 -0.9429 -0.6645  0.5278
  132MOL0     H17777   3.707   1.176   5.339 -2.0804 -0.4841  1.2028
  132MOL0     H17778   3.685   0.966   5.438  1.8128 -2.0887 -1.2713
  132MOL0     H17779   3.621   0.886   5.305 -2.0634 -0.5359  1.5484
  132MOL0     H17780   3.481   0.972   5.121 -0.0827 -1.9943  0.9153
  132MOL0     H17781   3.298   1.062   4.877 -1.5326 -0.1591 -0.8094
  132MOL0     H17782   3.385   0.916   4.947 -0.2256  0.3718 -0.4586
  132MOL0     H17783   3.207   0.922   4.922 -0.0866  0.6117 -1.4894
  132MOL0     H17784   2.852   1.410   5.055 -0.6094  1.3939 -0.5147
  132MOL0     H17785   2.640   1.459   4.936 -1.4546 -0.6707  1.4203
  132MOL0     H17786   2.305   1.194   4.975  2.6249 -0.3071  1.7670
  132MOL0     H17787   2.370   1.347   5.037  0.6680 -0.4487 -1.1853
  132MOL0     H17788   2.212   1.299   4.773 -0.4636 -1.2432 -0.1718
  132MOL0     H17789   2.140   1.365   4.920 -2.3204  0.9349 -4.3982
  132MOL0     H17790   2.367   1.494   4.755 -1.0557  0.8972 -0.1675
  132MOL0     H17791   2.311   1.564   4.904  0.9791 -0.5160 -0.2838
  132MOL0     H17792   2.112   1.516   4.678 -0.1995  1.0691  0.1703
  132MOL0     H17793   2.106   1.615   4.834  1.8837  1.5912  2.0774
  132MOL0     H17794   2.290   1.762   4.734  0.3310 -1.8239  0.7498
  132MOL0     H17795   2.129   1.758   4.659  0.4174  0.3147 -1.6879
  132MOL0     H17796   2.378   1.618   4.545 -0.9125 -2.2009 -1.3521
  132MOL0     H17797   2.223   1.617   4.466  0.8876 -1.0424  0.6881
  132MOL0     H17798   2.409   1.803   4.398  0.0804  0.2763 -0.0513
  132MOL0     H17799   2.353   1.884   4.550  1.5683 -1.3391  0.8904
  132MOL0     H17800   2.119   1.882   4.465 -1.1719 -0.1244 -1.5247
  132MOL0     H17801   2.163   1.803   4.314  1.4878  1.5834 -2.9439
  132MOL0     H17802   2.547   1.046   4.966  2.0031 -0.4156 -2.4910
  132MOL0     H17803   2.756   1.002   5.052 -1.1810  0.5509 -0.1730
  132MOL0     H17804   3.082   1.188   5.309 -0.2216 -0.6700  0.3431
  132MOL0     H17805   3.263   1.140   5.454 -0.5714 -0.8254  0.1898
  132MOL0     H17806   5.345   1.314   5.070 -1.2663 -1.1042  0.7360
  132MOL0     H17807   5.590   1.339   4.956 -0.6541  1.8163 -1.3263
  132MOL0     H17808   5.793   1.587   4.641  0.0798 -0.5029 -2.1281
  132MOL0     H17809   6.021   1.669   4.667 -0.9118  0.5650  0.1126
  132MOL0     H17810   6.400   1.617   4.655 -0.5701  1.4467 -0.5842
  132MOL0     H17811   6.234   1.673   4.610  2.3045  1.0082 -2.3544
  132MOL0     H17812   6.336   1.624   4.893  4.3398  1.2646 -0.7830
  132MOL0     H17813   6.193   1.721   4.870  0.1746 -0.3749 -0.2781
  132MOL0     H17814   6.354   1.889   4.744 -0.2806  1.3012  2.0726
  132MOL0     H17815   6.476   1.774   4.806 -0.6612  0.0116 -1.9487
  132MOL0     H17816   6.393   1.848   5.042 -3.1639  0.3057  0.6921
  132MOL0     H17817   6.265   1.936   4.960 -0.3544  0.4401 -0.9295
  132MOL0     H17818   6.628   2.176   4.953 -0.2505  0.5518 -1.2706
  132MOL0     H17819   6.159   1.255   4.725  2.5081  2.2256  0.7340
  132MOL0     H17820   5.943   1.185   4.714  0.1769 -0.0729  1.7418
  133MOL0     O17821   9.122   0.539   9.653  0.0727 -0.3155 -0.7406
  133MOL0     C17822   9.104   0.649   9.603 -0.2745  0.2302  0.3357
  133MOL0     O17823   8.989   0.718   9.612  0.4014 -0.0375 -0.0164
  133MOL0     C17824   8.875   0.646   9.651  0.5633 -0.3580  0.7465
  133MOL0     C17825   8.817   0.562   9.558  0.4177  0.2386  0.3099
  133MOL0     C17826   8.703   0.485   9.580 -0.0953 -0.0750 -0.8055
  133MOL0     C17827   8.646   0.493   9.714  0.3474  0.2468  0.5923
  133MOL0     O17828   8.529   0.420   9.736 -0.1224  0.2599  0.1839
  133MOL0     C17829   8.424   0.478   9.827 -0.8586  0.4438  0.1364
  133MOL0     C17830   8.306   0.497   9.734 -0.6868  0.0607  0.0307
  133MOL0     C17831   8.189   0.554   9.815 -0.4735  0.6931  0.5783
  133MOL0     C17832   8.059   0.534   9.736 -0.2490  0.4823 -0.2557
  133MOL0     C17833   7.942   0.588   9.818 -0.4640  0.3452  0.3716
  133MOL0     C17834   7.812   0.580   9.739  1.0259 -0.1724  0.0107
  133MOL0     C17835   7.691   0.652   9.812 -0.1522  0.4707 -0.0502
  133MOL0     C17836   7.581   0.689   9.706 -0.1481  0.1317 -0.1140
  133MOL0     N17837   7.450   0.637   9.745 -0.0312  0.6316  0.5985
  133MOL0     C17838   7.409   0.500   9.741 -0.3340  0.1755 -0.2858
  133MOL0     C17839   7.272   0.501   9.744  0.2901 -0.1123 -0.3583
  133MOL0     C17840   7.180   0.387   9.732  0.5095  0.6771 -0.1203
  133MOL0     C17841   7.073   0.375   9.847 -0.6788  0.2038  0.2357
  133MOL0     C17842   7.006   0.241   9.828  0.3906 -0.1578  0.0141
  133MOL0     C17843   6.945   0.217   9.685 -0.2244 -0.2092  0.5234
  133MOL0     O17844   6.839   0.119   9.670 -0.4676 -0.0797 -0.5414
  133MOL0     C17845   6.716   0.153   9.719 -0.6736  0.3338 -0.3539
  133MOL0     C17846   6.682   0.274   9.768  0.1284 -0.0475  0.2187
  133MOL0     C17847   6.559   0.300   9.823 -0.0725 -0.5892 -0.7129
  133MOL0     C17848   6.537   0.431   9.887  0.3375  0.7541  0.5445
  133MOL0     C17849   6.474   0.194   9.848  0.8641  0.1604  0.0399
  133MOL0     C17850   6.340   0.215   9.915  0.4832 -0.2396  0.2298
  133MOL0     O17851   6.285   0.105   9.971 -0.1869 -0.2495 -0.2237
  133MOL0     C17852   6.152   0.099   9.999  0.4893  0.5082 -0.0916
  133MOL0     C17853   6.051   0.128   9.908 -0.1676 -0.2796 -0.4218
  133MOL0     C17854   5.920   0.155   9.943 -0.6002  0.3621 -0.0175
  133MOL0     C17855   5.883   0.119  10.066  0.0766 -0.2830  0.3658
  133MOL0     O17856   5.749   0.148  10.090 -0.0286  0.7714 -0.3073
  133MOL0     C17857   5.687   0.072  10.195 -0.7318  0.0311  0.2448
  133MOL0     C17858   5.543   0.113  10.201 -0.6730 -0.4419  0.7920
  133MOL0     C17859   5.479   0.156  10.068 -0.6036  0.5443  1.1656
  133MOL0     C17860   5.339   0.206  10.088 -0.0365  0.0697  0.1255
  133MOL0     C17861   5.280   0.258   9.954 -0.0748 -0.7516 -0.1868
  133MOL0     C17862   5.323   0.401   9.931 -0.2233  0.1068  0.8615
  133MOL0     C17863   5.301   0.452   9.791 -0.2790  0.3791 -0.3002
  133MOL0     C17864   5.374   0.574   9.735  0.3034 -0.4511 -0.0334
  133MOL0    Cl17865   5.272   0.628   9.597 -0.0847  0.1644  0.2942
  133MOL0     C17866   5.973   0.069  10.161 -0.5846  0.0576 -0.7126
  133MOL0     C17867   6.110   0.071  10.131 -0.0631 -0.1565  0.9715
  133MOL0     O17868   6.283   0.323   9.911 -0.1402  0.0399 -0.0136
  133MOL0     C17869   6.500   0.068   9.804 -0.0332  0.7543  0.4517
  133MOL0     C17870   6.621   0.042   9.737  0.4683 -0.8053  1.0314
  133MOL0     N17871   7.234   0.635   9.770  0.4895  0.4784  0.2862
  133MOL0     N17872   7.334   0.704   9.772  0.3842 -0.2480  0.3828
  133MOL0     C17873   8.710   0.570   9.811 -0.1255  0.0619 -0.3101
  133MOL0     C17874   8.823   0.644   9.779 -0.1074  0.1992 -0.4503
  133MOL0     C17875   9.230   0.713   9.572  0.4627  0.7579  0.2104
  133MOL0     C17876   9.238   0.848   9.574  0.3632 -0.1550 -0.2298
  133MOL0     C17877   9.353   0.919   9.533  0.0889  0.0562 -0.0808
  133MOL0     C17878   9.475   0.843   9.511 -0.6549 -0.4321  0.1891
  133MOL0     O17879   9.594   0.901   9.469 -0.6800 -0.4640 -0.3648
  133MOL0     C17880   9.618   1.040   9.509  0.3633  0.4473 -0.2214
  133MOL0     C17881   9.754   1.084   9.453  0.4649 -0.6462  0.1612
  133MOL0     C17882   9.870   1.012   9.528 -0.7763 -0.4850  0.3714
  133MOL0     C17883  10.018   1.042   9.483 -0.2162 -0.4136 -1.2525
  133MOL0     C17884  10.028   1.031   9.334  0.3524  0.6256 -0.2111
  133MOL0     C17885  10.048   1.026   9.217 -0.1924  0.1367 -0.1289
  133MOL0     C17886   9.474   0.704   9.521  0.8397  1.1374  1.0086
  133MOL0     C17887   9.348   0.642   9.552 -0.1169 -0.2122 -0.5713
  133MOL0     H17888   8.855   0.564   9.456  0.9206  1.2337  0.5117
  133MOL0     H17889   8.661   0.430   9.496  0.5085 -2.6157  0.4747
  133MOL0     H17890   8.407   0.410   9.911  0.2055 -0.2754 -0.2063
  133MOL0     H17891   8.446   0.579   9.863 -1.1518 -0.2562  2.4305
  133MOL0     H17892   8.334   0.563   9.651  0.8490 -1.8756 -1.0931
  133MOL0     H17893   8.284   0.400   9.688 -0.9125  0.3314 -0.4448
  133MOL0     H17894   8.181   0.509   9.914 -1.6600 -3.1484 -1.0572
  133MOL0     H17895   8.204   0.662   9.809  1.1541  0.4173 -1.8162
  133MOL0     H17896   8.069   0.589   9.642 -0.6969  0.2814 -0.4213
  133MOL0     H17897   8.034   0.431   9.710  0.8302  0.4598 -1.2837
  133MOL0     H17898   7.935   0.533   9.913 -1.1982 -0.4599 -0.1333
  133MOL0     H17899   7.957   0.693   9.846  2.6124 -0.1400  0.8777
  133MOL0     H17900   7.830   0.641   9.650 -1.7721 -1.9536 -1.8901
  133MOL0     H17901   7.777   0.481   9.710  1.0315 -0.8494  2.1624
  133MOL0     H17902   7.644   0.599   9.895  0.5723 -0.9729 -0.5456
  133MOL0     H17903   7.728   0.744   9.858  1.8086 -0.7557  0.9322
  133MOL0     H17904   7.609   0.653   9.607 -0.1215  2.1370 -0.8727
  133MOL0     H17905   7.585   0.798   9.699  0.3018  0.2623  1.7283
  133MOL0     H17906   7.469   0.415   9.709 -0.8827 -0.5508  0.5628
  133MOL0     H17907   7.116   0.375   9.644 -1.7326 -1.9508  1.6674
  133MOL0     H17908   7.247   0.301   9.727  0.0079  0.3461 -1.8006
  133MOL0     H17909   6.993   0.448   9.828 -1.0316  0.1224  1.3407
  133MOL0     H17910   7.113   0.396   9.946 -1.9443 -1.7212  1.1978
  133MOL0     H17911   6.930   0.231   9.906  1.8321 -0.2982  1.4345
  133MOL0     H17912   7.082   0.167   9.857 -0.5396 -0.9819  0.4285
  133MOL0     H17913   7.021   0.175   9.618 -3.9205 -1.5026 -3.3132
  133MOL0     H17914   6.918   0.304   9.625  1.5632 -1.1956 -1.8967
  133MOL0     H17915   6.749   0.359   9.758  1.9324 -1.6760 -3.3855
  133MOL0     H17916   6.452   0.476   9.835 -0.6747 -2.4273 -0.7746
  133MOL0     H17917   6.509   0.414   9.991 -1.9658 -1.9003 -0.3907
  133MOL0     H17918   6.631   0.488   9.881  1.2399 -0.8690 -2.4169
  133MOL0     H17919   6.081   0.163   9.809  0.8881  0.2161  0.0528
  133MOL0     H17920   5.849   0.206   9.879  3.3321  2.9132 -2.9123
  133MOL0     H17921   5.683  -0.035  10.172  0.5268  0.2113 -1.0093
  133MOL0     H17922   5.729   0.080  10.295 -0.9238 -0.4690  0.3664
  133MOL0     H17923   5.482   0.031  10.239 -2.9475  0.0076 -1.6198
  133MOL0     H17924   5.535   0.204  10.262  0.4626 -0.8017  1.5145
  133MOL0     H17925   5.485   0.069  10.002 -2.7076 -0.7690  2.6038
  133MOL0     H17926   5.543   0.231  10.021  0.8846 -1.5973 -0.4200
  133MOL0     H17927   5.265   0.133  10.122 -0.2709 -0.1290 -0.7635
  133MOL0     H17928   5.340   0.276  10.171  0.3399 -1.3026  1.3256
  133MOL0     H17929   5.171   0.253   9.953 -0.1501  0.4189  0.2177
  133MOL0     H17930   5.321   0.204   9.868  2.3958 -3.0158  2.2081
  133MOL0     H17931   5.282   0.478   9.998 -0.9951  0.1934  0.3060
  133MOL0     H17932   5.431   0.405   9.945 -0.1751  0.4224  0.4197
  133MOL0     H17933   5.193   0.470   9.783 -0.3512 -0.1958 -0.6415
  133MOL0     H17934   5.325   0.375   9.718  2.7911  2.4112 -1.6663
  133MOL0     H17935   5.471   0.534   9.703 -0.8226 -2.8270 -0.6675
  133MOL0     H17936   5.393   0.649   9.813 -1.4336 -0.3377  0.3114
  133MOL0     H17937   5.944   0.036  10.260  0.5383 -1.2054 -0.7721
  133MOL0     H17938   6.178   0.038  10.208 -0.0695  1.0153  1.5032
  133MOL0     H17939   6.420  -0.005   9.808 -1.7648  2.4393 -1.4145
  133MOL0     H17940   6.641  -0.059   9.704 -0.5034 -1.0771  1.2474
  133MOL0     H17941   8.663   0.575   9.909 -4.1386  1.4513 -2.0882
  133MOL0     H17942   8.872   0.692   9.864 -0.6142  0.9673 -0.5815
  133MOL0     H17943   9.145   0.900   9.591  0.7439  0.0039  1.5824
  133MOL0     H17944   9.354   1.027   9.536  2.8860  0.2830 -3.2001
  133MOL0     H17945   9.546   1.114   9.474  1.3232  0.4233 -2.4425
  133MOL0     H17946   9.618   1.037   9.618  1.5574  4.1681  0.0029
  133MOL0     H17947   9.760   1.193   9.452  1.7201 -0.5328 -4.4444
  133MOL0     H17948   9.759   1.057   9.347 -1.4060  0.9427 -0.3853
  133MOL0     H17949   9.862   0.903   9.520 -0.2837 -0.4278 -1.6633
  133MOL0     H17950   9.858   1.035   9.634 -0.3206  0.5970  0.1965
  133MOL0     H17951  10.086   0.970   9.528 -0.8954 -0.6270 -0.5463
  133MOL0     H17952  10.027   1.147   9.514 -3.3183 -0.6752  0.9728
  133MOL0     H17953  10.073   1.038   9.113  0.0584 -4.1658 -0.7840
  133MOL0     H17954   9.561   0.641   9.502  1.9059  2.4822  1.2272
  133MOL0     H17955   9.345   0.534   9.554 -1.4656 -0.1830  0.5916
  134MOL0     O17956   0.136  10.016   8.739  0.4611 -0.0930 -0.0463
  134MOL0     C17957   0.197   9.913   8.726 -0.0532 -0.4249  1.1865
  134MOL0     O17958   0.140   9.791   8.693 -0.4565  0.5986 -0.1357
  134MOL0     C17959   0.004   9.787   8.700 -0.3799  0.2786  0.1346
  134MOL0     C17960  -0.062   9.791   8.824  0.0867  0.3307 -0.3629
  134MOL0     C17961  -0.205   9.768   8.831  0.5080  0.0836  0.6133
  134MOL0     C17962  -0.279   9.736   8.715  0.1369 -0.3618 -0.3062
  134MOL0     O17963  -0.410   9.700   8.733 -0.1002  0.6581 -0.7831
  134MOL0     C17964  -0.455   9.578   8.675  0.7209 -0.4457 -0.1959
  134MOL0     C17965  -0.578   9.532   8.754 -0.1508 -0.2507  0.2180
  134MOL0     C17966  -0.659   9.420   8.688  0.0002  0.4343 -0.3723
  134MOL0     C17967  -0.780   9.368   8.761  0.2969 -0.2690  0.6294
  134MOL0     C17968  -0.911   9.455   8.739 -0.2966 -0.5470 -0.0246
  134MOL0     C17969  -1.035   9.405   8.821  0.5883  0.0241  0.3483
  134MOL0     C17970  -1.157   9.492   8.789 -0.1948  0.1876  0.4008
  134MOL0     C17971  -1.289   9.442   8.865 -0.8626  0.3312  0.0108
  134MOL0     N17972  -1.400   9.540   8.841 -0.6125 -0.0670 -0.2132
  134MOL0     C17973  -1.504   9.523   8.751 -1.2435  0.1401 -0.0792
  134MOL0     C17974  -1.600   9.614   8.783 -0.0855  0.1659 -0.4167
  134MOL0     C17975  -1.733   9.638   8.719  0.0482  0.4481 -0.6991
  134MOL0     C17976  -1.830   9.528   8.758 -0.8089 -0.0441 -0.3497
  134MOL0     C17977  -1.968   9.552   8.703 -0.0239 -0.8636 -1.2095
  134MOL0     C17978  -2.046   9.674   8.747 -0.4180 -0.0409  0.4097
  134MOL0     O17979  -2.167   9.673   8.684  0.0771  0.0450  0.5653
  134MOL0     C17980  -2.272   9.727   8.755 -0.1460  0.0237  0.4915
  134MOL0     C17981  -2.287   9.867   8.744 -0.3573 -0.3634  0.1989
  134MOL0     C17982  -2.393   9.939   8.793 -0.3677 -0.5135  0.3965
  134MOL0     C17983  -2.406  10.090   8.777 -0.7487 -0.0019 -0.3780
  134MOL0     C17984  -2.491   9.867   8.863  0.8890 -0.3531  1.0150
  134MOL0     C17985  -2.620   9.922   8.914  0.1230 -0.3287 -0.0622
  134MOL0     O17986  -2.692   9.845   8.997 -0.0542  0.5422 -0.0663
  134MOL0     C17987  -2.819   9.881   9.036  0.3306  0.7224 -0.2608
  134MOL0     C17988  -2.931   9.827   8.967 -0.3509  0.0688 -0.5708
  134MOL0     C17989  -3.060   9.854   9.015  0.4313  0.2764  0.1291
  134MOL0     C17990  -3.082   9.948   9.116  0.7425  0.6266 -0.6961
  134MOL0     O17991  -3.206   9.998   9.164 -0.5472 -0.5363  0.3452
  134MOL0     C17992  -3.314   9.901   9.156 -0.4232  0.4039  0.1972
  134MOL0     C17993  -3.424   9.907   9.265  0.1328 -0.5330  0.8641
  134MOL0     C17994  -3.365   9.872   9.402 -0.2099  0.4316  0.2974
  134MOL0     C17995  -3.383   9.710   9.422  0.8765 -0.2062  0.2955
  134MOL0     C17996  -3.331   9.666   9.568  0.5561  0.4501  0.0244
  134MOL0     C17997  -3.354   9.771   9.680 -0.0554  0.1263 -0.0457
  134MOL0     C17998  -3.300   9.704   9.812  0.2235 -0.4194  0.3588
  134MOL0     C17999  -3.323   9.799   9.921  0.3551  0.1913 -0.2589
  134MOL0    Cl18000  -3.230   9.953   9.913  0.2948 -0.0366 -0.1562
  134MOL0     C18001  -2.971  10.008   9.181 -0.0103 -0.7653  0.1603
  134MOL0     C18002  -2.849   9.977   9.134  0.2574 -0.4404 -0.4129
  134MOL0     O18003  -2.663  10.033   8.881 -0.5793 -0.4355  0.3564
  134MOL0     C18004  -2.468   9.723   8.880  0.1203  0.6802 -1.0897
  134MOL0     C18005  -2.358   9.655   8.833  0.7473  0.0735  0.5517
  134MOL0     N18006  -1.554   9.690   8.886 -0.3621  0.5716 -0.3717
  134MOL0     N18007  -1.435   9.644   8.916  0.8416 -0.1340  0.2733
  134MOL0     C18008  -0.212   9.730   8.596  0.7623  0.6858 -0.2424
  134MOL0     C18009  -0.073   9.747   8.592  0.4206 -0.5413 -0.1122
  134MOL0     C18010   0.342   9.925   8.733 -0.1670 -0.8226  0.3734
  134MOL0     C18011   0.415  10.051   8.734 -0.5304 -0.7500  0.0569
  134MOL0     C18012   0.548  10.051   8.731 -0.4863 -0.1964  0.6970
  134MOL0     C18013   0.633   9.939   8.740  0.5002 -0.0550  0.4480
  134MOL0     O18014   0.768   9.944   8.740  0.0572  0.1237 -0.3636
  134MOL0     C18015   0.846   9.826   8.759 -0.1553  0.7542  0.1487
  134MOL0     C18016   0.987   9.867   8.782  0.2802 -0.3360  0.9882
  134MOL0     C18017   0.995   9.968   8.900 -0.1162  0.2883  0.9996
  134MOL0     C18018   1.139  10.024   8.918  0.2888 -0.1690  0.6048
  134MOL0     C18019   1.231   9.922   8.949  0.2907  0.1905  0.4753
  134MOL0     C18020   1.332   9.851   8.958 -0.1607  1.4437  0.5037
  134MOL0     C18021   0.560   9.814   8.737 -0.7326 -0.0414 -0.9314
  134MOL0     C18022   0.421   9.812   8.739  0.0146  0.1881  0.9484
  134MOL0     H18023  -0.006   9.824   8.911 -2.6511  1.3294  1.1249
  134MOL0     H18024  -0.252   9.766   8.930  0.1977 -0.7426  0.4624
  134MOL0     H18025  -0.481   9.591   8.569 -1.0385 -0.5345  0.1868
  134MOL0     H18026  -0.376   9.503   8.680  0.9603 -0.3795 -2.0393
  134MOL0     H18027  -0.537   9.505   8.852 -0.9858 -1.8709  0.1478
  134MOL0     H18028  -0.649   9.614   8.770 -1.5464 -1.2795 -0.5443
  134MOL0     H18029  -0.693   9.456   8.590 -1.1447 -0.2158 -0.2267
  134MOL0     H18030  -0.590   9.336   8.673 -0.2976  0.3705 -1.4452
  134MOL0     H18031  -0.795   9.265   8.725  2.0261 -0.6443  0.8763
  134MOL0     H18032  -0.752   9.356   8.866  0.2283 -3.3195  0.3941
  134MOL0     H18033  -0.885   9.555   8.774  0.9453 -1.2883  1.2485
  134MOL0     H18034  -0.939   9.451   8.633  1.6138 -1.0163 -0.5523
  134MOL0     H18035  -1.050   9.305   8.778  2.9813  0.3891 -1.5821
  134MOL0     H18036  -1.007   9.400   8.926 -2.1197 -1.3159  1.0885
  134MOL0     H18037  -1.126   9.594   8.813  2.0001  0.7152 -3.8097
  134MOL0     H18038  -1.167   9.504   8.681 -0.9935  2.8427  0.7049
  134MOL0     H18039  -1.264   9.436   8.971  1.6548 -0.4713 -0.5538
  134MOL0     H18040  -1.323   9.345   8.827  2.2827 -0.2233 -1.7269
  134MOL0     H18041  -1.509   9.459   8.663  1.4338 -1.2768  0.6792
  134MOL0     H18042  -1.776   9.730   8.761 -2.1191 -1.0429  0.5145
  134MOL0     H18043  -1.712   9.654   8.613 -1.6356  0.7525 -1.0046
  134MOL0     H18044  -1.837   9.519   8.867  0.1891 -0.5098 -0.3143
  134MOL0     H18045  -1.785   9.436   8.720  0.5530  1.0681 -1.5597
  134MOL0     H18046  -2.028   9.461   8.716 -2.5510  0.9977  1.6631
  134MOL0     H18047  -1.957   9.570   8.596 -0.3410  1.3844 -0.9032
  134MOL0     H18048  -1.991   9.755   8.698  1.4022 -1.4356  0.0504
  134MOL0     H18049  -2.047   9.682   8.856  1.9305  0.6307  0.4459
  134MOL0     H18050  -2.217   9.912   8.674  0.3039 -3.9602 -1.6793
  134MOL0     H18051  -2.435  10.147   8.866  0.0999  3.7101 -2.2628
  134MOL0     H18052  -2.312  10.131   8.740 -0.8418  0.8746  0.3245
  134MOL0     H18053  -2.492  10.111   8.713 -3.5795 -0.8414  2.8410
  134MOL0     H18054  -2.908   9.753   8.892 -0.1366 -0.1304 -0.3104
  134MOL0     H18055  -3.134   9.797   8.959  1.8467 -1.3966 -0.1211
  134MOL0     H18056  -3.367   9.911   9.060 -0.5678 -0.1667  0.2101
  134MOL0     H18057  -3.271   9.801   9.168 -0.4916  0.0656 -1.8645
  134MOL0     H18058  -3.454  10.013   9.262  1.5415 -0.1391 -0.9429
  134MOL0     H18059  -3.511   9.849   9.235  1.1601 -0.3679 -3.0101
  134MOL0     H18060  -3.413   9.931   9.480  0.5104 -0.0250  1.1182
  134MOL0     H18061  -3.256   9.886   9.404  0.0436 -1.3931  1.8869
  134MOL0     H18062  -3.489   9.685   9.421  0.7797  0.2257 -1.0564
  134MOL0     H18063  -3.348   9.645   9.341 -2.0491 -1.0834 -0.3591
  134MOL0     H18064  -3.226   9.636   9.565  0.3872 -0.0575 -1.2433
  134MOL0     H18065  -3.382   9.579   9.610  1.2605  1.0689  2.3765
  134MOL0     H18066  -3.294   9.861   9.660  1.0135  0.0271  2.3825
  134MOL0     H18067  -3.459   9.798   9.688 -0.8814 -1.9312 -2.4993
  134MOL0     H18068  -3.197   9.667   9.808 -0.5102 -2.5338 -1.6768
  134MOL0     H18069  -3.355   9.611   9.826  2.0604 -1.6840 -0.4886
  134MOL0     H18070  -3.301   9.754  10.018 -1.7497 -0.2142  0.0888
  134MOL0     H18071  -3.427   9.833   9.915  0.6729  1.2252 -0.1697
  134MOL0     H18072  -2.988  10.086   9.254 -1.4422  0.1477 -1.0975
  134MOL0     H18073  -2.773  10.034   9.187 -1.3748  0.0948  1.4781
  134MOL0     H18074  -2.533   9.656   8.936  0.4148  1.7112  0.5585
  134MOL0     H18075  -2.339   9.548   8.834 -1.4521 -0.5159 -2.7494
  134MOL0     H18076  -0.258   9.688   8.507  2.1666  2.2306 -1.7788
  134MOL0     H18077  -0.022   9.754   8.497  0.9557  1.4670  0.2924
  134MOL0     H18078   0.365  10.146   8.722  2.4866  1.3900  2.7320
  134MOL0     H18079   0.606  10.141   8.747 -0.6987  0.3121 -1.1468
  134MOL0     H18080   0.802   9.770   8.842 -2.7729  2.0526 -0.2811
  134MOL0     H18081   0.833   9.755   8.676  1.7800 -0.3072  0.6766
  134MOL0     H18082   1.027   9.921   8.696 -3.4905  0.1370 -0.6836
  134MOL0     H18083   1.048   9.780   8.809 -0.2124 -0.8777  0.4180
  134MOL0     H18084   0.965   9.917   8.992  0.3587  0.0497  1.0262
  134MOL0     H18085   0.920  10.044   8.875 -0.6608 -0.2704  0.8930
  134MOL0     H18086   1.132  10.096   9.000 -3.3924 -0.4608  0.7031
  134MOL0     H18087   1.176  10.071   8.827  0.2330 -1.0882  0.0955
  134MOL0     H18088   1.427   9.802   8.948 -0.6673  0.4980  0.2521
  134MOL0     H18089   0.613   9.720   8.728 -1.9841 -0.9955  0.9809
  134MOL0     H18090   0.377   9.712   8.733  0.1405  0.0443  2.2050
  135MOL0     O18091  10.440   5.863   0.982  0.1322  0.1025 -0.5425
  135MOL0     C18092  10.464   5.881   0.862 -0.7793 -0.0376 -0.8992
  135MOL0     O18093  10.367   5.877   0.765 -0.7796 -0.0038  0.5297
  135MOL0     C18094  10.235   5.858   0.793  0.6501  0.1284 -0.3815
  135MOL0     C18095  10.138   5.955   0.764 -0.2989  0.9335  0.0342
  135MOL0     C18096  10.005   5.919   0.777 -0.7723  0.0191 -0.4802
  135MOL0     C18097   9.956   5.786   0.799 -1.0510 -0.7918  0.8997
  135MOL0     O18098   9.825   5.747   0.805 -0.0751  0.4913  0.0229
  135MOL0     C18099   9.732   5.841   0.762 -0.4243 -0.2527  0.2396
  135MOL0     C18100   9.587   5.788   0.775 -0.4672 -0.3004  0.4939
  135MOL0     C18101   9.560   5.666   0.692  0.0301  0.2539 -0.2373
  135MOL0     C18102   9.428   5.604   0.730 -0.3801  0.5904 -0.3273
  135MOL0     C18103   9.306   5.682   0.687  0.1627 -0.0986  0.4792
  135MOL0     C18104   9.295   5.711   0.535 -1.4463 -0.9079 -0.6848
  135MOL0     C18105   9.167   5.790   0.493 -0.0405  0.4122 -0.2042
  135MOL0     C18106   9.190   5.933   0.543 -0.3064  0.2498  0.0268
  135MOL0     N18107   9.077   6.007   0.487  0.3029  0.1926 -0.8157
  135MOL0     C18108   8.960   6.001   0.555 -0.1451 -0.6388 -0.1658
  135MOL0     C18109   8.866   6.046   0.472  0.2099 -0.1301  0.6903
  135MOL0     C18110   8.715   6.056   0.489 -0.0340 -0.0033 -0.0669
  135MOL0     C18111   8.661   6.192   0.459  0.1802 -0.1699 -0.2467
  135MOL0     C18112   8.514   6.189   0.410 -0.6682  0.5912  0.1411
  135MOL0     C18113   8.444   6.327   0.418  0.7677 -0.0805  0.3243
  135MOL0     O18114   8.308   6.322   0.375  0.9488  0.1903  0.1488
  135MOL0     C18115   8.234   6.444   0.364 -0.0473 -0.1259 -0.2446
  135MOL0     C18116   8.277   6.559   0.425  0.1646  0.0158 -0.1166
  135MOL0     C18117   8.196   6.670   0.398 -0.4133  0.9858 -1.3574
  135MOL0     C18118   8.257   6.800   0.447 -0.1768  0.1276 -0.3282
  135MOL0     C18119   8.080   6.668   0.315  0.8640  1.0112  0.0053
  135MOL0     C18120   7.985   6.781   0.293 -0.6176 -0.2586 -0.1633
  135MOL0     O18121   7.855   6.744   0.268 -0.9184 -0.4751  0.4869
  135MOL0     C18122   7.776   6.845   0.223  0.1832 -0.0547 -0.2934
  135MOL0     C18123   7.724   6.950   0.298  0.4951 -0.2438 -0.2094
  135MOL0     C18124   7.613   7.026   0.245  0.6162 -0.2802  1.1492
  135MOL0     C18125   7.568   7.007   0.111  0.2510  0.2308  0.4271
  135MOL0     O18126   7.460   7.075   0.063  0.4873 -0.5450  0.0896
  135MOL0     C18127   7.401   7.056  -0.063  0.1622 -0.2859 -1.0567
  135MOL0     C18128   7.313   7.166  -0.091  0.9231  0.0619  0.6024
  135MOL0     C18129   7.184   7.160  -0.012  0.0996 -0.0784  0.9168
  135MOL0     C18130   7.091   7.276  -0.035  0.3864 -0.6344  0.3382
  135MOL0     C18131   6.953   7.266   0.049 -0.1729 -0.8728  0.3262
  135MOL0     C18132   6.873   7.390   0.010 -0.1180 -0.3049 -0.8042
  135MOL0     C18133   6.919   7.526   0.057 -0.1430  0.1360  0.6867
  135MOL0     C18134   6.807   7.625   0.052 -0.2923 -0.1770  0.4396
  135MOL0    Cl18135   6.718   7.622  -0.105 -0.6465 -0.1215  0.1189
  135MOL0     C18136   7.620   6.901   0.031 -0.1368 -0.6539 -0.2861
  135MOL0     C18137   7.726   6.822   0.090  0.2079 -0.3487  0.2160
  135MOL0     O18138   8.026   6.895   0.302  0.0105  0.0356  0.0762
  135MOL0     C18139   8.044   6.547   0.268  0.3911 -0.0236  0.0164
  135MOL0     C18140   8.114   6.428   0.295 -0.4913 -0.3419  0.2848
  135MOL0     N18141   8.932   6.092   0.362 -0.1269 -0.6105  0.2527
  135MOL0     N18142   9.061   6.069   0.365  0.6996  0.4040 -0.5964
  135MOL0     C18143  10.061   5.694   0.832  0.3032  0.8908  0.4481
  135MOL0     C18144  10.193   5.735   0.835  0.4741  0.1888 -0.9811
  135MOL0     C18145  10.606   5.919   0.832  0.7202 -0.2567 -0.0969
  135MOL0     C18146  10.705   5.950   0.934 -0.5790  1.2424  0.2355
  135MOL0     C18147  10.834   5.988   0.898 -0.9035  0.3269 -0.3929
  135MOL0     C18148  10.871   6.004   0.766  0.0575  0.9848  0.3695
  135MOL0     O18149  10.998   6.036   0.740  0.3558 -0.3335 -0.0193
  135MOL0     C18150  11.065   5.944   0.652  0.0224 -0.3838  0.2436
  135MOL0     C18151  11.116   5.817   0.712  0.4755 -0.0372  0.3631
  135MOL0     C18152  11.203   5.823   0.845  0.3348 -0.2498  0.2784
  135MOL0     C18153  11.250   5.688   0.890  0.2048  0.6068  0.3553
  135MOL0     C18154  11.348   5.635   0.792 -0.6980  0.5864  0.4306
  135MOL0     C18155  11.439   5.585   0.724  0.5247 -0.3801  0.5236
  135MOL0     C18156  10.772   5.988   0.674  0.2784 -0.3653  0.0056
  135MOL0     C18157  10.641   5.942   0.705 -0.0561  0.3682 -0.1528
  135MOL0     H18158  10.167   6.059   0.747 -3.6411  1.9814 -0.0313
  135MOL0     H18159   9.931   5.998   0.765 -2.6703 -1.8846 -2.0103
  135MOL0     H18160   9.733   5.935   0.817  1.8289  1.0577 -1.8573
  135MOL0     H18161   9.750   5.863   0.656 -1.1647  0.4807  0.2573
  135MOL0     H18162   9.571   5.768   0.881  2.5142  0.9061  1.2730
  135MOL0     H18163   9.516   5.867   0.749 -1.8314 -1.1837  1.4046
  135MOL0     H18164   9.561   5.686   0.585  1.3396  0.2495 -0.2420
  135MOL0     H18165   9.644   5.599   0.709  0.7868  1.1533 -0.3272
  135MOL0     H18166   9.428   5.501   0.691  1.4919  1.1638 -2.0361
  135MOL0     H18167   9.426   5.604   0.839 -2.1456  3.2662 -0.2717
  135MOL0     H18168   9.221   5.622   0.721  1.2305 -1.5467  0.7009
  135MOL0     H18169   9.312   5.773   0.747  2.7464 -0.6717  1.2157
  135MOL0     H18170   9.380   5.774   0.507 -1.2146 -0.2967  1.2057
  135MOL0     H18171   9.298   5.612   0.487  0.5896 -0.7121 -1.0446
  135MOL0     H18172   9.152   5.787   0.384  0.8996  0.2653 -0.3336
  135MOL0     H18173   9.079   5.745   0.540  1.0155 -0.2917  1.1642
  135MOL0     H18174   9.276   5.969   0.485  0.1806 -2.1023 -0.8435
  135MOL0     H18175   9.213   5.943   0.649 -1.1838  3.1582  0.0191
  135MOL0     H18176   8.942   5.962   0.655  2.5616 -1.8580 -0.0647
  135MOL0     H18177   8.669   5.992   0.413 -0.2588 -2.1912  1.8190
  135MOL0     H18178   8.686   6.011   0.584  1.9369 -1.3551 -0.0598
  135MOL0     H18179   8.708   6.244   0.374  0.3673 -1.8209 -1.1912
  135MOL0     H18180   8.670   6.254   0.549 -1.5386 -1.0919  0.6118
  135MOL0     H18181   8.465   6.101   0.452  3.5186 -2.7293 -1.2427
  135MOL0     H18182   8.518   6.162   0.304 -1.7898  1.2592 -0.0946
  135MOL0     H18183   8.508   6.397   0.363  1.4142 -0.8886  0.0293
  135MOL0     H18184   8.448   6.361   0.522 -2.7197  2.5082 -0.1937
  135MOL0     H18185   8.366   6.563   0.487 -0.3366  4.3997  0.6286
  135MOL0     H18186   8.323   6.785   0.534  0.0884  0.5299 -0.4561
  135MOL0     H18187   8.324   6.847   0.374 -1.2513  0.9488 -0.8215
  135MOL0     H18188   8.188   6.875   0.488 -0.9422 -0.7095 -0.0701
  135MOL0     H18189   7.747   6.955   0.404 -3.5519  1.8987  0.7709
  135MOL0     H18190   7.574   7.103   0.312  0.6191 -0.4994  1.4067
  135MOL0     H18191   7.477   7.066  -0.140 -0.5002  1.2533 -1.5549
  135MOL0     H18192   7.353   6.958  -0.068 -0.3025 -0.0711 -0.8740
  135MOL0     H18193   7.368   7.256  -0.061  0.4077  0.3853  0.5843
  135MOL0     H18194   7.289   7.179  -0.197 -1.3171  1.2578  1.1924
  135MOL0     H18195   7.205   7.162   0.095  0.9761 -1.1827  0.7830
  135MOL0     H18196   7.130   7.070  -0.040 -3.0297  1.3676  1.9127
  135MOL0     H18197   7.149   7.361   0.002 -1.9003  0.5497  1.4458
  135MOL0     H18198   7.068   7.288  -0.141  0.4681  3.0570  0.5934
  135MOL0     H18199   6.973   7.265   0.156  1.0481  2.1017  0.2154
  135MOL0     H18200   6.898   7.177   0.017  2.4578 -2.0941 -1.1229
  135MOL0     H18201   6.865   7.397  -0.099 -4.3289  1.3022 -0.6110
  135MOL0     H18202   6.775   7.362   0.051  0.8339 -3.0220 -0.1797
  135MOL0     H18203   7.011   7.559   0.007 -1.3609  3.6962  0.5364
  135MOL0     H18204   6.937   7.523   0.165 -2.8984  0.7763  1.2419
  135MOL0     H18205   6.848   7.725   0.069  0.1978 -0.6063  2.0203
  135MOL0     H18206   6.731   7.604   0.128  0.9387 -0.8390  1.5326
  135MOL0     H18207   7.578   6.874  -0.065 -1.1139  0.5695 -0.2216
  135MOL0     H18208   7.763   6.742   0.026  1.7301  0.7526 -0.3507
  135MOL0     H18209   7.956   6.544   0.205 -1.1357  0.3373  2.0427
  135MOL0     H18210   8.093   6.333   0.248  2.2690  0.0575 -2.0790
  135MOL0     H18211  10.024   5.595   0.857 -1.1834  1.1560 -0.5818
  135MOL0     H18212  10.271   5.666   0.863  1.4463  1.6446  0.0171
  135MOL0     H18213  10.676   5.952   1.039 -1.0091  0.2764  0.1458
  135MOL0     H18214  10.909   6.003   0.974 -0.9470 -1.2602  0.0128
  135MOL0     H18215  11.008   5.917   0.563  0.1243 -3.7257  1.0706
  135MOL0     H18216  11.152   5.995   0.610  1.1349 -2.3526  0.0340
  135MOL0     H18217  11.170   5.767   0.632  0.1788 -0.4510  0.4175
  135MOL0     H18218  11.022   5.761   0.720 -0.1900  0.1618 -3.6152
  135MOL0     H18219  11.151   5.878   0.923  2.0978  1.8449  0.0765
  135MOL0     H18220  11.290   5.883   0.815 -0.2679  1.6152  2.0859
  135MOL0     H18221  11.161   5.624   0.902  0.4201 -0.0012 -1.0923
  135MOL0     H18222  11.305   5.687   0.984 -0.7155 -2.1780  0.9783
  135MOL0     H18223  11.516   5.542   0.662  1.0586  0.9553  0.2347
  135MOL0     H18224  10.796   6.004   0.570 -0.0824  0.8795  0.0903
  135MOL0     H18225  10.579   5.921   0.619 -0.2857  0.8976 -0.1186
  136MOL0     O18226   1.979   8.952   2.857 -0.9112  0.3276  0.5395
  136MOL0     C18227   1.961   9.075   2.859 -0.1997  0.1933  0.7723
  136MOL0     O18228   1.866   9.139   2.937  0.2832  0.1412 -0.0777
  136MOL0     C18229   1.743   9.078   2.976  0.0232  0.6896  0.4205
  136MOL0     C18230   1.683   9.120   3.088  0.0684  0.0950  0.0115
  136MOL0     C18231   1.563   9.061   3.132  0.2606  0.0875  0.3101
  136MOL0     C18232   1.495   8.963   3.060 -0.2939  0.0521 -0.0901
  136MOL0     O18233   1.375   8.920   3.107 -0.1725  0.1174 -0.7586
  136MOL0     C18234   1.332   8.794   3.065 -0.1165  0.6149 -1.0504
  136MOL0     C18235   1.213   8.752   3.163  0.1048  0.2609  0.7038
  136MOL0     C18236   1.240   8.782   3.315 -0.4751  0.7582  0.0158
  136MOL0     C18237   1.368   8.716   3.364  0.1825  0.9138 -0.0377
  136MOL0     C18238   1.436   8.790   3.483  0.1274  0.0925  0.2341
  136MOL0     C18239   1.346   8.792   3.606  0.3694 -0.5376  0.8606
  136MOL0     C18240   1.328   8.648   3.664  0.8664  0.4275  0.6216
  136MOL0     C18241   1.457   8.609   3.741  0.0083  0.1321  0.3215
  136MOL0     N18242   1.438   8.467   3.786 -0.1776 -0.4699  0.5766
  136MOL0     C18243   1.490   8.358   3.729 -0.1200  0.7113  0.2356
  136MOL0     C18244   1.488   8.263   3.826  0.1426 -0.0290  0.3346
  136MOL0     C18245   1.553   8.132   3.816  0.1273 -0.6682  0.3987
  136MOL0     C18246   1.491   8.031   3.725 -0.5248 -0.4595  0.2493
  136MOL0     C18247   1.491   8.058   3.574 -0.8606  0.2574 -0.1504
  136MOL0     C18248   1.388   7.965   3.502  0.2341 -0.5266  0.3690
  136MOL0     O18249   1.263   8.031   3.513 -0.6660  0.4915  0.3394
  136MOL0     C18250   1.185   8.032   3.401  0.3884  0.2649  0.7586
  136MOL0     C18251   1.154   8.162   3.354  0.1265  0.8470 -0.4343
  136MOL0     C18252   1.081   8.180   3.238  0.7760  0.2403  0.5317
  136MOL0     C18253   1.054   8.323   3.181 -0.6956 -0.3876  0.0298
  136MOL0     C18254   1.030   8.071   3.162  0.3141  0.3344 -0.6472
  136MOL0     C18255   0.964   8.084   3.034  0.2981 -0.0792  0.3700
  136MOL0     O18256   0.824   8.070   3.029 -1.0095 -0.6798 -0.0740
  136MOL0     C18257   0.771   8.103   2.905  0.0188 -0.7135 -0.6905
  136MOL0     C18258   0.715   8.235   2.884  0.0463 -0.2191  0.6856
  136MOL0     C18259   0.666   8.275   2.763 -0.4938  0.1485  0.2258
  136MOL0     C18260   0.659   8.184   2.660  0.0541  0.6905 -0.0700
  136MOL0     O18261   0.599   8.220   2.547  0.6485  0.2558 -0.0253
  136MOL0     C18262   0.528   8.121   2.471 -0.8075 -0.5463  0.0497
  136MOL0     C18263   0.409   8.185   2.399 -1.3723  0.3880  0.5508
  136MOL0     C18264   0.302   8.233   2.498  0.0272  0.6153  0.3290
  136MOL0     C18265   0.225   8.116   2.558 -0.6286  1.0448  0.5568
  136MOL0     C18266   0.083   8.151   2.601  0.0839 -0.2728 -0.1397
  136MOL0     C18267   0.088   8.223   2.740 -0.3157  0.3717  0.7876
  136MOL0     C18268  -0.044   8.239   2.808  0.5616 -0.1498 -0.0973
  136MOL0     C18269  -0.150   8.300   2.719  1.3538  1.1869  0.1164
  136MOL0    Cl18270  -0.107   8.464   2.663 -0.2077 -0.3486 -0.2246
  136MOL0     C18271   0.711   8.058   2.677 -0.1728  0.0464 -0.5688
  136MOL0     C18272   0.777   8.019   2.801 -0.8046  0.0592 -0.1200
  136MOL0     O18273   1.045   8.086   2.939  0.1409 -0.3176 -0.5174
  136MOL0     C18274   1.054   7.941   3.210  0.6243 -0.4999  0.7895
  136MOL0     C18275   1.133   7.925   3.324  0.8019 -0.9971 -0.7146
  136MOL0     N18276   1.441   8.316   3.937 -0.0332  0.1633 -0.9224
  136MOL0     N18277   1.403   8.437   3.910 -0.5792  0.4342 -0.3449
  136MOL0     C18278   1.560   8.922   2.934 -0.2040  0.3615 -1.1647
  136MOL0     C18279   1.686   8.972   2.893 -0.2717  0.1205 -0.3387
  136MOL0     C18280   2.045   9.171   2.772 -0.7425 -0.2786  0.6819
  136MOL0     C18281   2.041   9.311   2.777  0.3062 -0.0440 -0.8794
  136MOL0     C18282   2.127   9.380   2.692  0.9399 -0.4239  0.0797
  136MOL0     C18283   2.223   9.322   2.611  0.9832 -0.4252 -0.3188
  136MOL0     O18284   2.305   9.410   2.542  0.3157  0.1643  0.7586
  136MOL0     C18285   2.416   9.360   2.484  0.0379  1.2390 -0.1110
  136MOL0     C18286   2.456   9.451   2.371 -0.8922 -0.4704 -0.1303
  136MOL0     C18287   2.367   9.425   2.250  0.1832 -0.9721  0.3588
  136MOL0     C18288   2.342   9.551   2.171  0.1440  0.1488 -0.2792
  136MOL0     C18289   2.288   9.524   2.042  0.0745  0.5099 -0.8113
  136MOL0     C18290   2.252   9.518   1.929 -0.5687 -0.6811  0.5905
  136MOL0     C18291   2.230   9.182   2.607  0.3155  0.0899  0.1484
  136MOL0     C18292   2.145   9.107   2.690  0.0305 -0.9446  0.1893
  136MOL0     H18293   1.734   9.187   3.157  2.3626 -1.3235 -0.1902
  136MOL0     H18294   1.509   9.099   3.218 -0.4506  2.3842 -1.0644
  136MOL0     H18295   1.283   8.800   2.968 -1.7928 -0.0719 -0.2837
  136MOL0     H18296   1.421   8.731   3.063 -0.2111  0.3632  0.8043
  136MOL0     H18297   1.118   8.804   3.146  0.8351  1.9803  1.6197
  136MOL0     H18298   1.205   8.644   3.148 -0.1680  0.2344  1.0291
  136MOL0     H18299   1.245   8.888   3.339  1.2728  0.3458  1.6801
  136MOL0     H18300   1.156   8.741   3.373  0.2002  2.6252  2.4722
  136MOL0     H18301   1.347   8.610   3.383  0.2326  1.0169  0.5992
  136MOL0     H18302   1.447   8.720   3.288 -1.6434  2.8450 -1.9625
  136MOL0     H18303   1.533   8.751   3.513 -0.0662  1.2960  2.6815
  136MOL0     H18304   1.456   8.894   3.454  1.8790 -0.3114 -0.1195
  136MOL0     H18305   1.386   8.861   3.681  2.0741  0.6922 -1.0570
  136MOL0     H18306   1.248   8.833   3.580  0.6432 -1.4513 -1.9253
  136MOL0     H18307   1.249   8.636   3.738 -2.0298 -1.0460 -2.4577
  136MOL0     H18308   1.295   8.575   3.590  0.2524  1.2071  0.1080
  136MOL0     H18309   1.476   8.681   3.821  4.3096  1.0038 -1.2133
  136MOL0     H18310   1.543   8.619   3.675 -2.0920 -1.4784 -2.9103
  136MOL0     H18311   1.522   8.345   3.626 -2.3233 -0.3492 -0.3913
  136MOL0     H18312   1.647   8.157   3.765 -1.6291  3.0323 -1.4561
  136MOL0     H18313   1.576   8.093   3.916 -0.9459  0.7013  1.2077
  136MOL0     H18314   1.389   8.018   3.762 -0.4022 -1.3916  0.2848
  136MOL0     H18315   1.544   7.936   3.739  1.3641  0.6409  0.9756
  136MOL0     H18316   1.592   8.037   3.537  0.5779  0.2451  3.4158
  136MOL0     H18317   1.461   8.159   3.543 -2.4407  0.1859  1.0021
  136MOL0     H18318   1.383   7.865   3.546  0.6521 -0.2378  1.0996
  136MOL0     H18319   1.419   7.955   3.398  1.3216 -2.5777  0.8320
  136MOL0     H18320   1.195   8.239   3.419  0.7623 -0.4117  0.6983
  136MOL0     H18321   1.052   8.398   3.260  0.8112  1.2575 -1.4074
  136MOL0     H18322   1.144   8.348   3.124 -0.9047  0.8192  0.2037
  136MOL0     H18323   0.971   8.335   3.111 -1.3049 -2.3718  0.3455
  136MOL0     H18324   0.729   8.309   2.962 -1.1263 -0.1082  0.8155
  136MOL0     H18325   0.624   8.373   2.743  0.4262  0.4021 -0.5472
  136MOL0     H18326   0.593   8.081   2.392  1.4479  4.8500 -1.2268
  136MOL0     H18327   0.492   8.035   2.529 -1.2214 -1.5212 -1.5897
  136MOL0     H18328   0.442   8.269   2.338 -1.1226 -2.2181 -3.2856
  136MOL0     H18329   0.360   8.115   2.329 -2.0102 -1.3592  2.6156
  136MOL0     H18330   0.237   8.291   2.432 -0.6859 -1.9515 -1.3598
  136MOL0     H18331   0.344   8.299   2.574  2.7506  2.4339 -2.5048
  136MOL0     H18332   0.203   8.042   2.481 -1.5762  2.8743 -1.0238
  136MOL0     H18333   0.282   8.079   2.643 -0.1350  3.2895  1.2592
  136MOL0     H18334   0.028   8.057   2.612 -0.3685 -0.0362 -0.3562
  136MOL0     H18335   0.033   8.200   2.517  0.5884 -0.2888 -0.4510
  136MOL0     H18336   0.158   8.168   2.804  1.1839 -0.2382 -1.2836
  136MOL0     H18337   0.138   8.320   2.727 -0.7526  0.4284 -0.5721
  136MOL0     H18338  -0.028   8.299   2.898 -1.4073 -1.7660  1.4472
  136MOL0     H18339  -0.071   8.141   2.849  1.2248 -0.0985  0.4876
  136MOL0     H18340  -0.242   8.308   2.777 -0.1003  0.5645 -1.9851
  136MOL0     H18341  -0.156   8.225   2.639  0.9891 -2.6206  3.3641
  136MOL0     H18342   0.705   7.983   2.600 -0.0339  1.1722 -1.7130
  136MOL0     H18343   0.824   7.922   2.817  1.5604  1.5630  3.2217
  136MOL0     H18344   1.027   7.858   3.146 -0.3611  0.4161 -0.0115
  136MOL0     H18345   1.152   7.823   3.355 -1.6187 -1.0040  1.0130
  136MOL0     H18346   1.516   8.841   2.876  2.3154 -1.2102 -1.0248
  136MOL0     H18347   1.737   8.914   2.817  0.1860 -1.5764  1.1941
  136MOL0     H18348   1.968   9.359   2.842  0.9012 -1.8781  1.2869
  136MOL0     H18349   2.116   9.488   2.687 -2.1302 -0.5241  2.0348
  136MOL0     H18350   2.502   9.348   2.550  1.4969  1.8071 -1.8361
  136MOL0     H18351   2.401   9.261   2.438  1.1691  1.5522 -1.2066
  136MOL0     H18352   2.559   9.434   2.336 -0.6418  2.7813 -1.3353
  136MOL0     H18353   2.452   9.554   2.406  2.4952  0.9294 -3.1763
  136MOL0     H18354   2.270   9.388   2.285  0.2985 -1.0378  0.6086
  136MOL0     H18355   2.417   9.357   2.181  3.5873  2.0811 -0.4695
  136MOL0     H18356   2.435   9.607   2.165  0.3962 -0.0536  1.2232
  136MOL0     H18357   2.265   9.617   2.212  1.1799  1.2024  0.0170
  136MOL0     H18358   2.211   9.516   1.830  0.4158 -4.1811  0.1003
  136MOL0     H18359   2.303   9.135   2.542  0.8945 -0.6715  1.3090
  136MOL0     H18360   2.164   9.001   2.683 -0.4133 -1.0998  1.2606
  137MOL0     O18361   3.840   2.751   8.621  0.2140  0.7640  0.7137
  137MOL0     C18362   3.873   2.853   8.681  0.2332 -0.1302  0.0145
  137MOL0     O18363   3.790   2.946   8.743 -0.2766 -0.8048 -0.6167
  137MOL0     C18364   3.661   2.908   8.761  0.1122  0.2379  0.2393
  137MOL0     C18365   3.622   2.844   8.878  0.1952 -0.1615  0.6847
  137MOL0     C18366   3.489   2.809   8.897 -0.1610  0.9505 -0.0864
  137MOL0     C18367   3.385   2.843   8.810 -0.0070 -0.7895 -0.9471
  137MOL0     O18368   3.257   2.797   8.841 -0.0858  0.1700  0.4417
  137MOL0     C18369   3.154   2.889   8.806  0.3164  0.0390 -0.4797
  137MOL0     C18370   3.020   2.852   8.871 -0.1923  0.4272  0.6894
  137MOL0     C18371   3.038   2.829   9.023  1.3877 -0.0071  0.3858
  137MOL0     C18372   2.895   2.810   9.095 -0.2207  0.9369  0.5677
  137MOL0     C18373   2.863   2.919   9.200 -0.4215 -0.2711  0.4386
  137MOL0     C18374   2.727   2.904   9.272 -0.5484  0.2060 -0.0968
  137MOL0     C18375   2.608   2.950   9.182  0.4066  0.0745  0.6665
  137MOL0     C18376   2.606   3.105   9.174 -0.6551 -0.5149 -0.0707
  137MOL0     N18377   2.525   3.172   9.285  0.2456  0.4016  0.0853
  137MOL0     C18378   2.589   3.254   9.374 -0.2089 -0.0754  0.1404
  137MOL0     C18379   2.487   3.330   9.425  0.3666 -0.4349 -0.3544
  137MOL0     C18380   2.503   3.422   9.545  0.3711 -0.2213  0.5647
  137MOL0     C18381   2.560   3.556   9.502  0.0639  0.5563 -0.0277
  137MOL0     C18382   2.462   3.642   9.418 -0.0377  0.1704 -1.1379
  137MOL0     C18383   2.353   3.713   9.503 -0.4118 -0.0914 -0.6483
  137MOL0     O18384   2.251   3.766   9.424 -0.1016 -0.3805 -0.1575
  137MOL0     C18385   2.128   3.784   9.476 -1.0540 -0.0130 -0.5297
  137MOL0     C18386   2.095   3.766   9.616  0.3805  0.3770  0.4747
  137MOL0     C18387   1.968   3.799   9.656  0.0592 -0.3609 -1.0514
  137MOL0     C18388   1.946   3.789   9.808  0.4412  0.3761  0.7493
  137MOL0     C18389   1.867   3.844   9.563  0.6466  0.1627 -1.1867
  137MOL0     C18390   1.722   3.882   9.603 -0.0154 -0.1523  0.4635
  137MOL0     O18391   1.648   3.930   9.492  0.9109 -0.7429 -0.1202
  137MOL0     C18392   1.525   3.992   9.502  0.1395 -0.2195 -0.4617
  137MOL0     C18393   1.490   4.073   9.386 -0.2200 -0.5920 -0.0675
  137MOL0     C18394   1.375   4.153   9.395 -0.1926 -0.3628  0.4485
  137MOL0     C18395   1.287   4.140   9.503  0.3864 -0.4524  0.9691
  137MOL0     O18396   1.165   4.197   9.501  0.1264 -0.2244 -0.9852
  137MOL0     C18397   1.085   4.157   9.382  0.3106  0.2987 -0.2519
  137MOL0     C18398   0.946   4.221   9.384  0.3882 -0.5342  0.3922
  137MOL0     C18399   0.861   4.160   9.492 -0.2494  0.6199 -0.6353
  137MOL0     C18400   0.722   4.214   9.505  0.8763  1.2540  0.1316
  137MOL0     C18401   0.667   4.191   9.648 -0.9729  0.3818  0.8541
  137MOL0     C18402   0.523   4.237   9.649  1.1503  0.3984 -0.0023
  137MOL0     C18403   0.421   4.160   9.555  0.3952  0.2338 -0.1990
  137MOL0     C18404   0.382   4.024   9.618  0.6084 -0.1305 -0.5856
  137MOL0    Cl18405   0.273   3.952   9.503 -0.3383  0.1271 -0.1136
  137MOL0     C18406   1.319   4.056   9.611  0.4152  0.6264 -1.2143
  137MOL0     C18407   1.441   3.989   9.616 -0.7395 -0.0628 -0.1028
  137MOL0     O18408   1.696   3.873   9.721  0.1739  0.2192 -0.0935
  137MOL0     C18409   1.903   3.852   9.424  0.2660 -0.3076  0.2935
  137MOL0     C18410   2.031   3.815   9.385 -0.0486 -0.3919  0.3070
  137MOL0     N18411   2.366   3.283   9.372  0.0942 -0.4610 -0.1767
  137MOL0     N18412   2.393   3.200   9.285  0.4615 -0.0242  0.5815
  137MOL0     C18413   3.425   2.909   8.697  0.0367  0.2873  0.1582
  137MOL0     C18414   3.556   2.943   8.674 -0.8751  0.3114  0.5379
  137MOL0     C18415   4.011   2.899   8.663 -0.1704  0.2064  0.3926
  137MOL0     C18416   4.055   3.032   8.684 -0.0924 -0.4084 -0.0051
  137MOL0     C18417   4.191   3.058   8.661  0.7396 -0.3729  0.0956
  137MOL0     C18418   4.284   2.965   8.608  0.1232 -0.7264 -0.0428
  137MOL0     O18419   4.407   3.015   8.576 -0.5706 -0.7144 -0.2328
  137MOL0     C18420   4.509   2.923   8.541 -0.0784 -0.3373  0.2469
  137MOL0     C18421   4.639   3.007   8.538  0.6709 -0.1841 -0.0908
  137MOL0     C18422   4.668   3.075   8.405 -0.6615  0.3592  0.0827
  137MOL0     C18423   4.800   3.148   8.398 -0.2517 -0.3287  0.7521
  137MOL0     C18424   4.826   3.216   8.263  0.0661 -0.3097 -0.7840
  137MOL0     C18425   4.823   3.280   8.158 -0.0613 -0.3789 -0.4568
  137MOL0     C18426   4.235   2.835   8.583 -0.1441  0.6672 -0.5974
  137MOL0     C18427   4.100   2.806   8.602 -0.7986 -0.1021  0.0379
  137MOL0     H18428   3.688   2.823   8.962  0.1959  1.7654  1.2160
  137MOL0     H18429   3.466   2.757   8.989  1.0248  1.5085  0.5346
  137MOL0     H18430   3.167   2.989   8.847 -1.3563 -1.0862  3.1591
  137MOL0     H18431   3.128   2.891   8.700  1.4702  0.3528 -0.7719
  137MOL0     H18432   2.960   2.942   8.856 -1.0981 -0.2021  0.4430
  137MOL0     H18433   2.977   2.762   8.825  0.8408  0.0153  0.4964
  137MOL0     H18434   3.102   2.740   9.026 -0.9302 -1.7970 -0.1757
  137MOL0     H18435   3.094   2.913   9.065  1.3204  0.8003 -1.1040
  137MOL0     H18436   2.820   2.811   9.016  1.2638  3.1857 -0.9061
  137MOL0     H18437   2.889   2.709   9.138 -0.6821  0.7743  0.1302
  137MOL0     H18438   2.941   2.907   9.276  0.1038 -3.7927 -0.4936
  137MOL0     H18439   2.863   3.019   9.155 -3.5695 -0.6688 -0.6789
  137MOL0     H18440   2.716   2.800   9.303 -0.3125  0.6380  1.5816
  137MOL0     H18441   2.734   2.958   9.367  0.0104 -1.1214  0.6370
  137MOL0     H18442   2.625   2.928   9.076  2.9100  1.3793  0.7136
  137MOL0     H18443   2.511   2.910   9.212 -0.9190  4.2631  2.7817
  137MOL0     H18444   2.565   3.134   9.077  0.1418  2.2969  0.3372
  137MOL0     H18445   2.708   3.144   9.175 -0.1380 -1.7339 -1.4887
  137MOL0     H18446   2.696   3.261   9.390 -0.1041 -0.4282 -0.3782
  137MOL0     H18447   2.401   3.437   9.582  0.7349  0.2051  1.4349
  137MOL0     H18448   2.557   3.370   9.624 -1.9931 -2.7640  0.6518
  137MOL0     H18449   2.651   3.532   9.446  0.5852  0.4768  0.8262
  137MOL0     H18450   2.585   3.605   9.596  2.5393 -0.0512 -0.2980
  137MOL0     H18451   2.420   3.581   9.337  2.1574 -1.4949 -1.1170
  137MOL0     H18452   2.518   3.726   9.375  0.9246  0.7779  1.1483
  137MOL0     H18453   2.396   3.785   9.573 -1.0018 -1.4824  1.2033
  137MOL0     H18454   2.304   3.641   9.569 -0.9512  2.3619  1.8359
  137MOL0     H18455   2.164   3.731   9.691  1.6160  0.0429 -0.7784
  137MOL0     H18456   1.925   3.891   9.841 -0.4646  0.7942 -0.9864
  137MOL0     H18457   1.865   3.717   9.825  1.0854 -0.3580  0.7416
  137MOL0     H18458   2.038   3.764   9.861  1.0960  3.7570  1.4396
  137MOL0     H18459   1.554   4.080   9.299 -1.3253  0.9543 -0.8131
  137MOL0     H18460   1.346   4.217   9.313 -1.2201 -1.1947  0.1421
  137MOL0     H18461   1.146   4.185   9.296  2.4824 -1.5254  0.5880
  137MOL0     H18462   1.070   4.049   9.378 -0.0234  0.1604  2.5835
  137MOL0     H18463   0.951   4.329   9.402  1.9886 -0.1653 -1.7835
  137MOL0     H18464   0.894   4.219   9.288  0.8330 -0.0957  0.1337
  137MOL0     H18465   0.911   4.183   9.587 -1.4077 -2.1721  0.7952
  137MOL0     H18466   0.853   4.051   9.480 -0.1603  0.6604 -1.0547
  137MOL0     H18467   0.730   4.320   9.477 -0.7399  1.3363 -0.1126
  137MOL0     H18468   0.665   4.153   9.434 -0.1032  2.8555 -0.5338
  137MOL0     H18469   0.724   4.256   9.715  0.2616  0.2981 -0.0761
  137MOL0     H18470   0.684   4.089   9.683 -1.5783  1.0595  3.4137
  137MOL0     H18471   0.480   4.222   9.748  0.6448  0.8556 -0.1452
  137MOL0     H18472   0.512   4.345   9.635 -1.7812  0.1922  0.1003
  137MOL0     H18473   0.456   4.151   9.452 -3.1287  0.4177 -1.5573
  137MOL0     H18474   0.328   4.217   9.551 -0.1381 -0.6130 -0.0324
  137MOL0     H18475   0.329   4.037   9.713 -1.3876 -3.4676 -1.0978
  137MOL0     H18476   0.466   3.960   9.646 -1.1830 -2.0274  0.7078
  137MOL0     H18477   1.256   4.049   9.699 -0.2387  2.0947 -1.5307
  137MOL0     H18478   1.472   3.933   9.704  1.1880 -1.5123 -1.6034
  137MOL0     H18479   1.826   3.878   9.352 -1.4421 -2.4247  1.2418
  137MOL0     H18480   2.060   3.835   9.282 -1.3884 -0.0618 -0.0331
  137MOL0     H18481   3.342   2.917   8.627 -0.1363  0.0043  0.3265
  137MOL0     H18482   3.576   3.007   8.588 -0.1157 -3.1437 -2.0725
  137MOL0     H18483   3.982   3.111   8.697  0.3812  0.9161 -3.9975
  137MOL0     H18484   4.228   3.159   8.678 -0.5610 -0.2797  2.8914
  137MOL0     H18485   4.513   2.835   8.607 -0.8705 -2.1408 -1.9787
  137MOL0     H18486   4.489   2.882   8.442 -4.0089  2.4321 -0.3273
  137MOL0     H18487   4.721   2.938   8.561  0.0503 -0.0921  2.7288
  137MOL0     H18488   4.632   3.078   8.620  0.8028 -1.0715  0.7044
  137MOL0     H18489   4.584   3.145   8.390 -0.2321  1.3361  1.8629
  137MOL0     H18490   4.675   3.012   8.317 -0.5313  0.9164 -0.3119
  137MOL0     H18491   4.884   3.080   8.409  2.2456  2.1570 -1.4241
  137MOL0     H18492   4.808   3.228   8.473 -1.0326  0.0183  0.4836
  137MOL0     H18493   4.833   3.322   8.060  2.3443 -2.4935 -1.1994
  137MOL0     H18494   4.301   2.765   8.533 -1.2790 -1.5863  0.9015
  137MOL0     H18495   4.072   2.702   8.589  3.4581 -1.4027 -0.3331
  138MOL0     O18496   8.589   3.322   3.522  0.0785 -0.4085 -0.4137
  138MOL0     C18497   8.527   3.228   3.472  0.6068  0.4383 -0.3946
  138MOL0     O18498   8.392   3.224   3.452  0.8819  0.0826 -1.1361
  138MOL0     C18499   8.299   3.315   3.493  0.3928  0.6961 -0.7992
  138MOL0     C18500   8.311   3.387   3.615 -0.2986 -0.0325 -0.2947
  138MOL0     C18501   8.212   3.473   3.653  0.7442  0.3024 -0.0213
  138MOL0     C18502   8.096   3.490   3.584 -1.6153 -0.2253 -0.2349
  138MOL0     O18503   7.995   3.578   3.614 -0.1069 -0.3708  0.1063
  138MOL0     C18504   8.015   3.667   3.732  0.1453  0.4146 -0.3298
  138MOL0     C18505   7.905   3.779   3.749 -0.3360  0.0655 -0.1671
  138MOL0     C18506   7.768   3.712   3.753 -0.3148 -0.7735 -0.3605
  138MOL0     C18507   7.675   3.792   3.851  0.3003 -0.7367  0.1295
  138MOL0     C18508   7.536   3.741   3.859 -0.3420  0.2376 -0.2062
  138MOL0     C18509   7.442   3.837   3.934 -0.0611 -0.4975  0.7964
  138MOL0     C18510   7.311   3.775   3.988 -0.4620 -0.2920  0.2315
  138MOL0     C18511   7.222   3.704   3.878  0.1527  0.1635 -0.5397
  138MOL0     N18512   7.283   3.579   3.825 -0.1411  0.4306 -0.3258
  138MOL0     C18513   7.260   3.533   3.701 -0.1340  0.3066  0.4510
  138MOL0     C18514   7.277   3.401   3.705 -0.2226  0.0765  0.2568
  138MOL0     C18515   7.273   3.309   3.589  0.6249 -0.1979  1.2120
  138MOL0     C18516   7.137   3.250   3.553  0.5701  0.7776 -0.5167
  138MOL0     C18517   7.034   3.371   3.536  0.1584  1.0846 -0.4965
  138MOL0     C18518   6.905   3.311   3.477 -0.8020  0.6502 -0.3591
  138MOL0     O18519   6.825   3.252   3.577  0.5182  0.2557  0.3731
  138MOL0     C18520   6.692   3.220   3.537 -0.1655 -0.6472 -0.2807
  138MOL0     C18521   6.660   3.175   3.411  0.8051  0.7058 -0.5926
  138MOL0     C18522   6.527   3.153   3.373  0.8487  1.0194  0.3617
  138MOL0     C18523   6.502   3.100   3.233  0.4949  0.5202  0.1754
  138MOL0     C18524   6.430   3.162   3.475  0.0008 -0.4996  0.2996
  138MOL0     C18525   6.282   3.138   3.454 -0.1439  0.5384  0.3228
  138MOL0     O18526   6.237   3.145   3.328 -0.0557 -0.3384  0.1529
  138MOL0     C18527   6.099   3.133   3.307 -0.7199  0.0259 -0.6780
  138MOL0     C18528   6.050   3.010   3.274  0.3151  0.3182  0.8523
  138MOL0     C18529   5.917   2.991   3.238  0.5903 -0.0152 -0.4767
  138MOL0     C18530   5.820   3.080   3.259  0.1114 -0.3256  0.7200
  138MOL0     O18531   5.691   3.061   3.232  0.1834 -0.4932  0.5140
  138MOL0     C18532   5.651   2.932   3.183  0.1251 -0.2692 -0.0013
  138MOL0     C18533   5.505   2.950   3.131 -0.2679  0.1340  0.8136
  138MOL0     C18534   5.420   2.831   3.168 -0.1932  0.4738 -0.1060
  138MOL0     C18535   5.283   2.840   3.095  0.7572  0.0353 -0.1462
  138MOL0     C18536   5.179   2.739   3.151 -0.2210  0.0144  0.1859
  138MOL0     C18537   5.038   2.771   3.116  0.4124  0.3374  0.6670
  138MOL0     C18538   5.009   2.775   2.963  0.4415  1.0924  0.3590
  138MOL0     C18539   4.852   2.750   2.942  0.6237  0.3293  0.1097
  138MOL0    Cl18540   4.819   2.572   2.987  0.1533  0.4131 -0.0877
  138MOL0     C18541   5.867   3.211   3.287 -0.3060 -0.5000 -1.1480
  138MOL0     C18542   6.003   3.239   3.307 -0.3125  0.2494 -0.8571
  138MOL0     O18543   6.212   3.117   3.556 -0.7975  0.3331 -0.0082
  138MOL0     C18544   6.469   3.190   3.606 -0.2759  1.1108  0.3399
  138MOL0     C18545   6.598   3.210   3.640 -0.1336  0.4787  0.3555
  138MOL0     N18546   7.319   3.365   3.834  0.0011 -0.1787  1.1064
  138MOL0     N18547   7.317   3.472   3.897 -0.2389 -0.4633 -0.4102
  138MOL0     C18548   8.077   3.416   3.469 -0.1142 -0.6321  0.6274
  138MOL0     C18549   8.179   3.326   3.429 -0.1553 -0.1677 -0.9238
  138MOL0     C18550   8.599   3.128   3.401  0.2589 -0.1660 -0.0904
  138MOL0     C18551   8.734   3.109   3.430 -0.2758 -0.7031 -0.5160
  138MOL0     C18552   8.810   3.018   3.368  0.0913  0.3428 -0.0199
  138MOL0     C18553   8.753   2.937   3.265 -0.5836 -1.1594 -0.6846
  138MOL0     O18554   8.819   2.827   3.203 -0.1053 -0.2392 -0.0025
  138MOL0     C18555   8.940   2.766   3.251  0.7612  0.1895 -0.3047
  138MOL0     C18556   9.043   2.748   3.128  0.2777  0.0976 -0.2725
  138MOL0     C18557   9.158   2.846   3.135  1.0824  0.4932 -0.7759
  138MOL0     C18558   9.230   2.841   3.001 -0.3898  0.1819 -0.1666
  138MOL0     C18559   9.306   2.719   2.961  0.5415 -0.5710 -0.1425
  138MOL0     C18560   9.360   2.616   2.923  0.1241 -0.3540  0.1902
  138MOL0     C18561   8.620   2.961   3.237 -0.4276 -0.2411  0.2069
  138MOL0     C18562   8.537   3.048   3.306  0.6372  0.9783 -0.3355
  138MOL0     H18563   8.388   3.364   3.688 -1.2281 -3.7729 -0.2958
  138MOL0     H18564   8.223   3.512   3.754  0.8492 -0.0562  0.1069
  138MOL0     H18565   8.020   3.600   3.818  0.7668  1.7324  0.6967
  138MOL0     H18566   8.118   3.704   3.724  0.4836  0.3565  2.8107
  138MOL0     H18567   7.935   3.825   3.844 -0.7398  1.5891 -0.7481
  138MOL0     H18568   7.908   3.844   3.662 -0.3276  0.6084  0.2318
  138MOL0     H18569   7.721   3.718   3.654  0.7873  3.6809 -0.8490
  138MOL0     H18570   7.787   3.610   3.787  2.6237 -0.3783 -0.5795
  138MOL0     H18571   7.715   3.795   3.953 -0.5285 -0.3987  0.4517
  138MOL0     H18572   7.669   3.897   3.822  0.2980 -1.2587 -1.9080
  138MOL0     H18573   7.497   3.720   3.758  1.6178 -0.4355 -0.8706
  138MOL0     H18574   7.555   3.649   3.914  0.0118  1.6752  2.1868
  138MOL0     H18575   7.493   3.891   4.015 -0.5887  0.7313  0.3339
  138MOL0     H18576   7.409   3.906   3.855  0.8962  1.3645  1.9407
  138MOL0     H18577   7.339   3.705   4.067  2.7545 -0.0983 -0.5973
  138MOL0     H18578   7.247   3.854   4.028 -0.8953 -1.6737  2.4277
  138MOL0     H18579   7.199   3.777   3.799 -3.1620 -0.8847 -0.6648
  138MOL0     H18580   7.123   3.688   3.921  0.6602  0.6994  0.8674
  138MOL0     H18581   7.222   3.584   3.613 -3.6081  0.4354  1.8513
  138MOL0     H18582   7.305   3.364   3.500  0.7092  0.6927  1.7819
  138MOL0     H18583   7.343   3.226   3.603 -0.1982 -1.2411 -0.4718
  138MOL0     H18584   7.111   3.205   3.649  4.6342  1.7336  1.2263
  138MOL0     H18585   7.143   3.172   3.476 -2.3744 -1.8600  1.6738
  138MOL0     H18586   7.074   3.439   3.460  1.5534  0.1840 -0.5979
  138MOL0     H18587   7.013   3.426   3.629  0.8312  0.4380  0.0535
  138MOL0     H18588   6.934   3.232   3.406 -0.4799  1.5260 -1.2303
  138MOL0     H18589   6.844   3.385   3.424 -1.2666  0.3226 -0.2963
  138MOL0     H18590   6.740   3.166   3.337  0.5314  0.8226 -0.9030
  138MOL0     H18591   6.444   3.008   3.230 -0.1849  0.9661 -0.8107
  138MOL0     H18592   6.457   3.174   3.166 -0.2789  0.0088  0.1239
  138MOL0     H18593   6.598   3.070   3.190  0.1107  0.7521 -0.8771
  138MOL0     H18594   6.111   2.920   3.272 -2.4985 -1.7184 -0.1148
  138MOL0     H18595   5.904   2.886   3.216  0.1512 -0.2592  0.8331
  138MOL0     H18596   5.704   2.898   3.093 -0.5073 -2.6209  0.4626
  138MOL0     H18597   5.650   2.868   3.271 -4.0801  0.6537  0.8396
  138MOL0     H18598   5.466   3.042   3.175 -0.3289  0.7845 -0.5458
  138MOL0     H18599   5.496   2.971   3.024 -0.5488 -0.6801  0.6742
  138MOL0     H18600   5.408   2.833   3.277  1.1844 -0.1482  0.0732
  138MOL0     H18601   5.461   2.734   3.138 -2.0372  0.1922 -1.9890
  138MOL0     H18602   5.247   2.942   3.106  1.1859  0.2714 -0.8355
  138MOL0     H18603   5.296   2.819   2.988  0.5249 -0.7449 -0.0280
  138MOL0     H18604   5.195   2.736   3.260  2.9228  0.2092 -0.1767
  138MOL0     H18605   5.223   2.649   3.107  1.5966  0.5525  0.8134
  138MOL0     H18606   4.971   2.697   3.160 -2.4683  0.9398 -2.3127
  138MOL0     H18607   5.015   2.866   3.165 -4.7968 -0.9789  1.3432
  138MOL0     H18608   5.064   2.700   2.906 -1.4087 -0.4728  0.5392
  138MOL0     H18609   5.029   2.873   2.920 -2.3239  0.8098 -1.8566
  138MOL0     H18610   4.815   2.765   2.840  3.3712 -2.0031 -1.3846
  138MOL0     H18611   4.791   2.814   3.006 -1.0884 -0.4259 -0.6966
  138MOL0     H18612   5.795   3.290   3.305  2.2323  1.6531  0.3583
  138MOL0     H18613   6.032   3.342   3.326  0.7200 -0.0503 -0.7318
  138MOL0     H18614   6.392   3.192   3.683  0.6624  1.2291  1.3059
  138MOL0     H18615   6.621   3.226   3.745  1.2534  1.2835 -0.0539
  138MOL0     H18616   7.989   3.425   3.406 -1.1037 -3.2428  1.5058
  138MOL0     H18617   8.154   3.270   3.340 -0.7895 -0.8033 -0.3528
  138MOL0     H18618   8.785   3.161   3.511 -1.8627 -0.7950  0.5810
  138MOL0     H18619   8.911   3.008   3.407 -0.0806 -0.9707  0.1355
  138MOL0     H18620   8.974   2.825   3.335  1.6257 -0.2170 -0.3602
  138MOL0     H18621   8.916   2.666   3.290  0.3604 -0.1406 -1.3286
  138MOL0     H18622   8.989   2.755   3.033  0.1166 -2.6745 -0.4423
  138MOL0     H18623   9.088   2.648   3.124 -1.5355 -0.8223  1.3002
  138MOL0     H18624   9.225   2.825   3.219  1.7304  2.5485 -0.7224
  138MOL0     H18625   9.118   2.944   3.160  1.8300  0.4520  0.6646
  138MOL0     H18626   9.290   2.932   3.006  0.5408 -0.3281 -1.2607
  138MOL0     H18627   9.168   2.859   2.913 -2.2649 -1.9678  0.6127
  138MOL0     H18628   9.422   2.530   2.907  1.2293  0.1869  1.3665
  138MOL0     H18629   8.586   2.911   3.146  2.5411 -2.1697  0.0196
  138MOL0     H18630   8.432   3.046   3.279  1.4642 -5.3713 -5.1470
  139MOL0     O18631  10.986   6.484   6.029  1.3690  0.4159 -0.4368
  139MOL0     C18632  11.074   6.563   6.015  0.0923 -0.4896  0.7612
  139MOL0     O18633  11.059   6.697   5.976  0.1994 -0.0984  0.2270
  139MOL0     C18634  10.936   6.757   5.978 -0.3891 -0.1675  0.8342
  139MOL0     C18635  10.915   6.866   5.892  0.4456  0.8469  0.0732
  139MOL0     C18636  10.800   6.947   5.900 -0.7548  0.3207 -0.3284
  139MOL0     C18637  10.703   6.922   5.995 -0.3409 -0.5471 -0.5513
  139MOL0     O18638  10.588   7.003   5.988 -0.0125 -0.6874  0.2991
  139MOL0     C18639  10.470   6.953   6.050  0.7825  0.8129  0.0217
  139MOL0     C18640  10.357   7.058   6.035  0.1658 -0.3235  0.1495
  139MOL0     C18641  10.414   7.196   6.054 -0.6096 -0.4848 -0.7519
  139MOL0     C18642  10.309   7.311   6.059  0.0606  0.1343  0.2336
  139MOL0     C18643  10.261   7.338   6.203  0.3469  0.3968  0.7790
  139MOL0     C18644  10.136   7.431   6.211 -1.1422  0.2149 -0.2104
  139MOL0     C18645  10.002   7.359   6.187 -1.0713  0.5310 -0.3554
  139MOL0     C18646   9.871   7.441   6.176 -0.8649  0.9041  0.4331
  139MOL0     N18647   9.758   7.374   6.101  1.0396 -0.0649 -0.5505
  139MOL0     C18648   9.725   7.394   5.966 -0.1427  0.1002  0.1106
  139MOL0     C18649   9.623   7.307   5.947  0.3903 -0.2895 -0.2070
  139MOL0     C18650   9.548   7.269   5.823  0.1737 -0.5927  0.4204
  139MOL0     C18651   9.528   7.395   5.738  0.8285 -0.6334 -0.4962
  139MOL0     C18652   9.407   7.489   5.787  0.2416 -0.1972  0.5134
  139MOL0     C18653   9.283   7.414   5.757  0.1330  0.7615  0.5624
  139MOL0     O18654   9.261   7.395   5.614  0.1124  0.3743 -0.4773
  139MOL0     C18655   9.147   7.333   5.563 -0.4714  0.2812  0.1880
  139MOL0     C18656   9.102   7.351   5.432  0.2498 -0.9154 -0.2792
  139MOL0     C18657   8.983   7.293   5.376 -0.2164 -0.5569 -0.5056
  139MOL0     C18658   8.933   7.340   5.236 -0.1233 -0.0138 -0.4112
  139MOL0     C18659   8.918   7.201   5.452  1.5968  0.3529  0.0717
  139MOL0     C18660   8.801   7.121   5.411  0.1811 -0.9235  0.3615
  139MOL0     O18661   8.787   7.080   5.276  0.0328 -0.1490  0.2582
  139MOL0     C18662   8.690   6.992   5.237 -0.2665 -0.1408 -0.5688
  139MOL0     C18663   8.553   6.991   5.272  0.1622  0.4051 -0.2782
  139MOL0     C18664   8.472   6.894   5.221 -0.2553 -0.1610  1.1162
  139MOL0     C18665   8.523   6.802   5.124 -0.4563 -0.1126 -0.2167
  139MOL0     O18666   8.430   6.715   5.069  0.2663  0.5756 -0.0672
  139MOL0     C18667   8.451   6.659   4.934 -0.0728  0.7430  0.2913
  139MOL0     C18668   8.321   6.600   4.866  0.1617  0.4131 -0.7149
  139MOL0     C18669   8.241   6.496   4.955 -0.6704 -0.6585  0.1491
  139MOL0     C18670   8.142   6.423   4.865  0.0643 -0.4171 -0.5076
  139MOL0     C18671   8.036   6.356   4.964 -0.5100  0.6986 -0.4973
  139MOL0     C18672   7.946   6.253   4.890 -0.1005  0.0296  0.2999
  139MOL0     C18673   7.842   6.204   4.993 -0.3079 -0.7795  0.8502
  139MOL0     C18674   7.719   6.148   4.927  0.2438  0.5058 -0.2447
  139MOL0    Cl18675   7.617   6.265   4.844 -0.3720  0.4289  0.5986
  139MOL0     C18676   8.652   6.800   5.088 -0.3008  0.6785 -0.5172
  139MOL0     C18677   8.739   6.897   5.141  0.3267  0.1292 -1.1071
  139MOL0     O18678   8.719   7.096   5.496  0.4054  0.7134 -0.1464
  139MOL0     C18679   8.950   7.190   5.591 -0.0036  0.4296 -0.1198
  139MOL0     C18680   9.059   7.255   5.649  0.0105 -0.6564  0.9470
  139MOL0     N18681   9.607   7.231   6.057 -0.3480  0.2717  0.5119
  139MOL0     N18682   9.682   7.274   6.150  0.3195 -0.4209  0.3865
  139MOL0     C18683  10.724   6.803   6.074  0.0676  0.2794 -0.1617
  139MOL0     C18684  10.841   6.731   6.071  0.0272  0.1605  0.3136
  139MOL0     C18685  11.203   6.498   6.025  0.3695 -0.3915  1.1074
  139MOL0     C18686  11.321   6.562   5.987 -0.4319  0.7626  0.5827
  139MOL0     C18687  11.446   6.493   5.997 -0.0794 -0.4069  0.8047
  139MOL0     C18688  11.455   6.360   6.039  0.5802  0.0842 -0.6428
  139MOL0     O18689  11.575   6.292   6.065  0.8325 -0.2633  0.7273
  139MOL0     C18690  11.701   6.366   6.041  0.4938 -0.1095  0.1708
  139MOL0     C18691  11.815   6.255   6.035  0.1338 -0.1973 -1.0995
  139MOL0     C18692  11.817   6.156   6.150 -0.3022  0.6015  0.0437
  139MOL0     C18693  11.939   6.061   6.150  0.0854  0.0123  0.1281
  139MOL0     C18694  12.018   6.050   6.028 -0.1597 -0.5505  0.1942
  139MOL0     C18695  12.101   6.037   5.940 -0.0835 -0.6996  0.1630
  139MOL0     C18696  11.331   6.296   6.081 -0.0626 -0.0021 -0.1747
  139MOL0     C18697  11.211   6.364   6.074 -0.3895  0.4894  0.4380
  139MOL0     H18698  10.991   6.882   5.816 -0.3595 -4.4294 -2.3318
  139MOL0     H18699  10.804   7.024   5.824  2.5022 -0.5929 -1.2253
  139MOL0     H18700  10.437   6.865   5.995  0.7040  1.0324 -0.2862
  139MOL0     H18701  10.484   6.931   6.156  2.2511  1.3056 -0.0508
  139MOL0     H18702  10.319   7.051   5.932  0.6129 -1.6431  0.0559
  139MOL0     H18703  10.284   7.052   6.116  0.9881 -1.0913  0.8638
  139MOL0     H18704  10.481   7.194   6.141 -2.8126  1.0629  1.0884
  139MOL0     H18705  10.472   7.215   5.963 -0.3429  1.8035 -0.1566
  139MOL0     H18706  10.368   7.401   6.043 -3.0835  2.4543  0.6864
  139MOL0     H18707  10.224   7.310   5.990 -0.4620  1.8609  0.7962
  139MOL0     H18708  10.249   7.241   6.252  1.7547  0.2548  0.8888
  139MOL0     H18709  10.345   7.391   6.248  0.0336  1.7028 -0.1074
  139MOL0     H18710  10.146   7.476   6.310 -2.5983  1.7101 -0.6982
  139MOL0     H18711  10.153   7.513   6.140 -0.4988 -1.2737 -1.8391
  139MOL0     H18712  10.005   7.308   6.091  2.4426 -0.8799  0.3745
  139MOL0     H18713   9.995   7.281   6.263 -2.3911  0.0910 -0.8956
  139MOL0     H18714   9.886   7.537   6.126 -0.0007  1.0969  1.0205
  139MOL0     H18715   9.843   7.474   6.277 -0.0710 -0.7579  1.2341
  139MOL0     H18716   9.766   7.471   5.901 -0.9960  0.1616 -0.3715
  139MOL0     H18717   9.610   7.199   5.765  0.1432 -1.0234  0.8961
  139MOL0     H18718   9.459   7.214   5.852 -0.2506 -1.2218 -1.9154
  139MOL0     H18719   9.522   7.362   5.634 -0.3448  0.2116 -0.7160
  139MOL0     H18720   9.616   7.461   5.742  0.3573 -0.0238 -0.0320
  139MOL0     H18721   9.401   7.584   5.734 -1.3632 -0.1210  0.7784
  139MOL0     H18722   9.402   7.508   5.895 -1.7531 -1.1794  0.6576
  139MOL0     H18723   9.196   7.470   5.793 -0.2770  0.2218  0.4197
  139MOL0     H18724   9.289   7.316   5.805 -1.1657  0.5420  0.3121
  139MOL0     H18725   9.143   7.433   5.373 -0.9434 -0.9590 -1.2072
  139MOL0     H18726   8.974   7.271   5.162  1.6576  0.5703 -0.0096
  139MOL0     H18727   8.824   7.333   5.239 -0.0920 -1.3305  3.3069
  139MOL0     H18728   8.958   7.446   5.239 -3.3185  0.8291  0.3935
  139MOL0     H18729   8.507   7.066   5.335 -0.4230  0.8094 -1.1633
  139MOL0     H18730   8.366   6.893   5.245 -0.4490  2.0425  0.5396
  139MOL0     H18731   8.496   6.725   4.858  2.1367 -0.8765  0.0866
  139MOL0     H18732   8.512   6.570   4.951 -1.4966 -0.3684 -0.1978
  139MOL0     H18733   8.249   6.679   4.844 -0.7732  0.4999  2.3507
  139MOL0     H18734   8.342   6.557   4.767 -0.3758 -1.7335  0.0533
  139MOL0     H18735   8.190   6.545   5.038  1.3557  2.5471 -0.3155
  139MOL0     H18736   8.298   6.423   5.013 -1.7253  0.0485  2.1666
  139MOL0     H18737   8.103   6.488   4.786  0.3595 -0.9223 -1.0827
  139MOL0     H18738   8.193   6.343   4.810 -1.2887 -1.9350  0.3428
  139MOL0     H18739   7.975   6.430   5.016 -1.6036 -0.5131 -0.0143
  139MOL0     H18740   8.079   6.299   5.047 -1.5676  1.1163  0.3544
  139MOL0     H18741   7.889   6.308   4.814  1.3785  2.5943  0.9259
  139MOL0     H18742   8.010   6.172   4.854  2.0006  1.2641  1.1134
  139MOL0     H18743   7.809   6.282   5.062 -2.3782 -1.1782  0.3717
  139MOL0     H18744   7.894   6.131   5.055  1.1396 -2.6352 -2.3050
  139MOL0     H18745   7.653   6.100   5.000 -1.7816  2.6242 -0.5666
  139MOL0     H18746   7.753   6.077   4.850  1.5171  2.0595 -1.1747
  139MOL0     H18747   8.691   6.719   5.027  3.1344  0.7389  1.3548
  139MOL0     H18748   8.842   6.897   5.107  1.4059  0.6117  1.8174
  139MOL0     H18749   8.899   7.119   5.654 -0.9991  0.4094 -0.9143
  139MOL0     H18750   9.081   7.244   5.754 -0.5662  1.5367  1.3377
  139MOL0     H18751  10.645   6.762   6.136 -0.9149  1.1838 -0.7801
  139MOL0     H18752  10.854   6.668   6.158 -2.9992  1.3061  1.7127
  139MOL0     H18753  11.333   6.662   5.947 -1.1933  0.1493 -1.2983
  139MOL0     H18754  11.536   6.552   5.980 -1.1988  2.5195  3.8157
  139MOL0     H18755  11.710   6.418   5.946 -4.0311  1.2144  0.2014
  139MOL0     H18756  11.707   6.443   6.119 -0.9287  1.3257 -1.0642
  139MOL0     H18757  11.915   6.299   6.034  0.0366  0.0350 -0.8237
  139MOL0     H18758  11.799   6.197   5.943 -2.5509 -0.4328 -0.5784
  139MOL0     H18759  11.732   6.089   6.133  1.4582 -1.5558 -0.7687
  139MOL0     H18760  11.816   6.200   6.250 -1.9455 -1.1582  0.8589
  139MOL0     H18761  11.899   5.964   6.183 -0.2204 -0.3588 -1.2749
  139MOL0     H18762  12.007   6.104   6.224  2.3927 -1.1771 -1.1976
  139MOL0     H18763  12.169   6.030   5.858  0.2200 -2.6654  0.5246
  139MOL0     H18764  11.322   6.195   6.119  2.4504  0.2969  1.4388
  139MOL0     H18765  11.126   6.305   6.106 -0.6007 -0.1148 -1.1161
  140MOL0     O18766   1.057   9.013   6.699 -1.0930  0.6493  0.3229
  140MOL0     C18767   1.073   9.130   6.672 -0.2422 -0.2846 -0.0712
  140MOL0     O18768   0.965   9.227   6.657 -0.9713 -0.0238 -0.0844
  140MOL0     C18769   0.839   9.185   6.658 -0.0449  0.7929 -1.1803
  140MOL0     C18770   0.782   9.111   6.770  0.1366  0.2485  0.5497
  140MOL0     C18771   0.645   9.097   6.774 -0.5640 -0.3145 -0.2743
  140MOL0     C18772   0.562   9.155   6.678  0.4316  0.2590  0.1356
  140MOL0     O18773   0.433   9.134   6.694 -0.7417  0.1844  0.0176
  140MOL0     C18774   0.371   9.105   6.567  0.0916 -0.8242 -0.1635
  140MOL0     C18775   0.234   9.049   6.597 -0.5188 -0.0572 -0.1975
  140MOL0     C18776   0.261   8.920   6.687  1.2368 -0.3917 -0.4087
  140MOL0     C18777   0.138   8.823   6.683 -0.3351  0.2867 -0.0980
  140MOL0     C18778   0.002   8.883   6.706  0.2566  0.6900  0.1952
  140MOL0     C18779  -0.100   8.776   6.667  0.4961  0.0653 -0.2440
  140MOL0     C18780  -0.247   8.797   6.722 -1.1280 -0.7178  0.6039
  140MOL0     C18781  -0.251   8.793   6.878 -0.9481  0.0037 -0.3403
  140MOL0     N18782  -0.389   8.799   6.929 -0.0708  0.3118  0.2235
  140MOL0     C18783  -0.447   8.904   6.999 -0.2831  0.1459 -0.2561
  140MOL0     C18784  -0.582   8.866   7.004  0.4213  0.3365  1.0339
  140MOL0     C18785  -0.697   8.959   7.057  0.4953  0.1497  0.0049
  140MOL0     C18786  -0.723   8.939   7.206 -0.0342  0.1865 -1.4372
  140MOL0     C18787  -0.820   8.819   7.246  0.1273 -0.1707 -0.0049
  140MOL0     C18788  -0.826   8.786   7.388 -0.5276  0.1364  0.7264
  140MOL0     O18789  -0.910   8.662   7.401 -0.4018 -0.4985 -0.5689
  140MOL0     C18790  -1.032   8.678   7.455 -0.7267 -1.2499 -0.0821
  140MOL0     C18791  -1.050   8.720   7.586 -0.3127 -0.2293 -0.3679
  140MOL0     C18792  -1.173   8.743   7.641 -0.2761 -0.0101 -0.4820
  140MOL0     C18793  -1.184   8.786   7.785 -0.5983  0.6283 -0.6597
  140MOL0     C18794  -1.291   8.727   7.563 -0.2371 -0.2087  0.5296
  140MOL0     C18795  -1.432   8.764   7.615 -1.0291  0.3986  0.3923
  140MOL0     O18796  -1.449   8.783   7.747  0.0729 -0.0053 -0.5389
  140MOL0     C18797  -1.575   8.836   7.787 -1.5314 -0.0693  0.1987
  140MOL0     C18798  -1.580   8.971   7.825 -0.2827  0.1597 -0.3463
  140MOL0     C18799  -1.706   9.022   7.861 -0.6153  0.3694  1.1578
  140MOL0     C18800  -1.818   8.936   7.882  1.0884 -0.3357  0.0771
  140MOL0     O18801  -1.936   8.988   7.930 -0.5771  0.0355  0.5075
  140MOL0     C18802  -2.030   8.892   7.984 -0.0463  0.4511  0.1012
  140MOL0     C18803  -2.123   8.966   8.068 -0.8531  1.0465 -0.6501
  140MOL0     C18804  -2.225   8.872   8.146 -0.2956 -0.4005  0.3303
  140MOL0     C18805  -2.319   8.965   8.234  0.4483  0.8649 -0.1396
  140MOL0     C18806  -2.435   8.898   8.307 -0.1781  0.5216  0.0849
  140MOL0     C18807  -2.512   8.997   8.394  0.1991  0.0039 -0.5608
  140MOL0     C18808  -2.657   8.942   8.415 -0.1461  0.6074  0.0386
  140MOL0     C18809  -2.630   8.844   8.533  0.3371 -0.3148 -0.9701
  140MOL0    Cl18810  -2.792   8.787   8.602 -0.2427  0.1820  0.0321
  140MOL0     C18811  -1.809   8.800   7.844  0.0960  1.1580  0.2713
  140MOL0     C18812  -1.681   8.754   7.795 -0.0579  0.5913  0.3812
  140MOL0     O18813  -1.518   8.777   7.529 -0.5629 -0.1770  0.4133
  140MOL0     C18814  -1.278   8.675   7.429 -0.0901  0.2896  0.2192
  140MOL0     C18815  -1.146   8.644   7.375  0.1852 -1.1399  0.7146
  140MOL0     N18816  -0.589   8.734   6.974 -0.4795 -0.1215 -0.3481
  140MOL0     N18817  -0.469   8.691   6.940  0.3437  0.6108 -0.3160
  140MOL0     C18818   0.624   9.217   6.563  0.4071  0.0983  0.0701
  140MOL0     C18819   0.754   9.229   6.562 -0.3734  0.3416  0.6946
  140MOL0     C18820   1.207   9.173   6.635 -0.3751  0.4771  0.6852
  140MOL0     C18821   1.231   9.306   6.598  0.4973  0.0823 -0.4699
  140MOL0     C18822   1.348   9.336   6.549 -0.7749  0.1430  0.6683
  140MOL0     C18823   1.459   9.251   6.522 -0.2336 -0.5905 -0.7482
  140MOL0     O18824   1.558   9.297   6.439  0.0619 -0.4544  0.5486
  140MOL0     C18825   1.671   9.209   6.406  0.0296  0.4267 -0.3287
  140MOL0     C18826   1.768   9.315   6.350 -0.8144  0.0904 -0.7013
  140MOL0     C18827   1.890   9.248   6.286  0.4444  0.2422  0.0760
  140MOL0     C18828   1.986   9.197   6.396  0.1343  0.1064 -0.2446
  140MOL0     C18829   2.123   9.166   6.355 -0.2206 -0.4196 -0.4458
  140MOL0     C18830   2.248   9.151   6.331  0.7790 -0.5219  0.1593
  140MOL0     C18831   1.442   9.123   6.570 -0.3424  0.0402 -1.0107
  140MOL0     C18832   1.323   9.091   6.645 -0.8496 -0.4941 -0.3541
  140MOL0     H18833   0.844   9.078   6.852  0.8872  0.3120  0.0168
  140MOL0     H18834   0.602   9.045   6.858 -1.3442 -1.9729 -1.6435
  140MOL0     H18835   0.349   9.194   6.507  2.4582  0.1762  0.3094
  140MOL0     H18836   0.438   9.037   6.514  2.9063  0.3128  1.6641
  140MOL0     H18837   0.174   9.121   6.654 -1.7325 -1.2927  0.1730
  140MOL0     H18838   0.188   9.007   6.507  0.6987 -0.6882 -0.5492
  140MOL0     H18839   0.354   8.875   6.652  1.8620  1.8137 -1.7547
  140MOL0     H18840   0.278   8.954   6.790  1.1319  2.3494 -1.2212
  140MOL0     H18841   0.141   8.787   6.580  1.1659 -1.1768  0.4044
  140MOL0     H18842   0.148   8.741   6.755  0.3566 -0.6096 -1.1890
  140MOL0     H18843  -0.002   8.915   6.810 -2.1626  5.8274 -1.1688
  140MOL0     H18844  -0.023   8.975   6.652  0.5378 -0.3190 -1.7626
  140MOL0     H18845  -0.112   8.761   6.560 -3.0966  0.2151  0.0319
  140MOL0     H18846  -0.070   8.678   6.705  1.6994  1.7455  3.7187
  140MOL0     H18847  -0.294   8.891   6.694  2.1446  2.1253  3.6455
  140MOL0     H18848  -0.319   8.723   6.686  0.2475 -1.0167 -1.7053
  140MOL0     H18849  -0.197   8.878   6.921  0.1249  0.3926 -2.3618
  140MOL0     H18850  -0.207   8.699   6.912 -0.2657 -0.2047 -1.7466
  140MOL0     H18851  -0.403   9.002   7.014  0.1804 -0.0620 -0.2072
  140MOL0     H18852  -0.663   9.060   7.031 -3.2570  0.8977 -2.8182
  140MOL0     H18853  -0.790   8.942   7.002  0.6519  0.0053 -0.2172
  140MOL0     H18854  -0.768   9.029   7.250  0.4569 -0.9353  1.6719
  140MOL0     H18855  -0.630   8.929   7.264 -0.7424  0.7015 -0.1527
  140MOL0     H18856  -0.790   8.732   7.187  0.3497 -0.0831 -0.0217
  140MOL0     H18857  -0.924   8.836   7.218  0.4409  0.6864 -0.7320
  140MOL0     H18858  -0.865   8.866   7.452  1.3776  1.2558  0.5933
  140MOL0     H18859  -0.726   8.772   7.431 -0.0692  1.1194  0.0128
  140MOL0     H18860  -0.972   8.735   7.660 -2.6434  0.5906  2.0764
  140MOL0     H18861  -1.241   8.714   7.845  1.2785  0.0691  0.5407
  140MOL0     H18862  -1.086   8.774   7.833  0.3876  0.5181 -2.5897
  140MOL0     H18863  -1.225   8.887   7.795  3.7080  2.5103  0.3464
  140MOL0     H18864  -1.489   9.028   7.811 -1.6712  2.2587 -1.2612
  140MOL0     H18865  -1.722   9.129   7.868 -3.2970  0.4803 -3.0823
  140MOL0     H18866  -2.087   8.846   7.902  0.4232 -0.9806  0.5436
  140MOL0     H18867  -1.987   8.810   8.042  0.4654  0.3289 -0.4492
  140MOL0     H18868  -2.063   9.020   8.143  0.5051 -2.4618  1.0495
  140MOL0     H18869  -2.169   9.035   7.998 -0.7383  0.8629 -0.9111
  140MOL0     H18870  -2.179   8.810   8.222 -1.5671 -0.9094  0.7193
  140MOL0     H18871  -2.286   8.813   8.077  0.5829  0.6626 -1.4274
  140MOL0     H18872  -2.253   9.009   8.310 -0.7593  1.5459  0.5404
  140MOL0     H18873  -2.356   9.041   8.165  0.8473  1.2428  0.0578
  140MOL0     H18874  -2.391   8.821   8.371  0.7116  3.5311  3.4111
  140MOL0     H18875  -2.498   8.856   8.228  2.7322 -2.7833 -0.7207
  140MOL0     H18876  -2.465   9.016   8.491  1.1481  0.5585 -1.1137
  140MOL0     H18877  -2.517   9.088   8.332  2.0439  0.1194 -0.6107
  140MOL0     H18878  -2.692   8.882   8.330 -1.2240 -0.8682  1.4624
  140MOL0     H18879  -2.730   9.019   8.442  0.8336  1.7961 -0.5547
  140MOL0     H18880  -2.568   8.893   8.609 -0.5097 -0.4642 -0.1543
  140MOL0     H18881  -2.574   8.757   8.499 -0.7764 -2.1691  1.5882
  140MOL0     H18882  -1.889   8.727   7.837  0.8252  0.3507  0.0184
  140MOL0     H18883  -1.660   8.651   7.766 -0.2185  0.6273  0.1334
  140MOL0     H18884  -1.362   8.653   7.363 -1.9984  3.4583  1.3842
  140MOL0     H18885  -1.141   8.598   7.277  1.1276 -0.2385  0.3122
  140MOL0     H18886   0.572   9.247   6.473  0.4135 -0.5982 -0.1751
  140MOL0     H18887   0.805   9.267   6.474  0.3701 -2.9444 -0.4365
  140MOL0     H18888   1.148   9.373   6.617 -0.3470 -1.5544  2.2541
  140MOL0     H18889   1.343   9.439   6.516 -5.9582  1.0771  3.2207
  140MOL0     H18890   1.720   9.164   6.492 -2.3805  0.7757  1.3444
  140MOL0     H18891   1.651   9.130   6.333  1.7129  1.6741 -2.2407
  140MOL0     H18892   1.787   9.395   6.421  1.0504  1.3127 -2.4455
  140MOL0     H18893   1.717   9.368   6.269 -0.5226 -0.9000 -1.5748
  140MOL0     H18894   1.949   9.323   6.234  0.8062 -0.9055 -1.2292
  140MOL0     H18895   1.869   9.173   6.210  0.3595  1.0942 -0.7475
  140MOL0     H18896   1.948   9.113   6.454  1.6120 -1.1816 -1.0907
  140MOL0     H18897   2.005   9.280   6.464 -0.2349 -0.4561  0.5547
  140MOL0     H18898   2.353   9.144   6.310  0.4506 -1.5462 -1.3244
  140MOL0     H18899   1.528   9.057   6.560 -0.9641 -0.6639 -1.7847
  140MOL0     H18900   1.328   9.000   6.703  1.6635 -1.2189 -1.5490
  141MOL0     O18901   9.484   4.781   2.675  0.2784 -0.4510  0.0089
  141MOL0     C18902   9.530   4.865   2.754  0.2258 -0.0783 -0.7412
  141MOL0     O18903   9.470   4.915   2.869  1.1718 -0.0734 -0.7464
  141MOL0     C18904   9.336   4.908   2.895  0.5042  0.7489  0.5916
  141MOL0     C18905   9.249   4.815   2.841  0.0774 -0.2956 -0.3825
  141MOL0     C18906   9.111   4.822   2.851  0.5222 -0.1505 -0.7001
  141MOL0     C18907   9.062   4.917   2.931  0.1365 -0.3889  0.4536
  141MOL0     O18908   8.927   4.919   2.935 -0.9465  0.2870  0.2721
  141MOL0     C18909   8.872   5.046   2.954  0.3231 -0.1232 -0.6236
  141MOL0     C18910   8.718   5.027   2.922 -0.8296 -0.7232 -0.3911
  141MOL0     C18911   8.695   4.962   2.789  0.0392  0.5733  0.0415
  141MOL0     C18912   8.546   4.974   2.752 -0.5734 -0.1984 -0.3291
  141MOL0     C18913   8.524   4.896   2.625  0.1368  0.6162  0.1551
  141MOL0     C18914   8.377   4.890   2.579 -0.2718 -0.2307  0.2640
  141MOL0     C18915   8.333   5.026   2.518  0.1387 -0.0946  0.4032
  141MOL0     C18916   8.204   5.005   2.443 -0.1014 -0.8242  0.5350
  141MOL0     N18917   8.086   4.987   2.534  0.8056  0.2819  0.4954
  141MOL0     C18918   8.043   5.070   2.636 -0.0755  0.2717 -0.6418
  141MOL0     C18919   7.929   5.016   2.687 -0.2115 -0.0894  0.7955
  141MOL0     C18920   7.851   5.070   2.800  0.7815  0.0641 -0.4171
  141MOL0     C18921   7.702   5.030   2.800  0.4332 -0.0206  0.7159
  141MOL0     C18922   7.615   5.084   2.676  0.4009  0.1812  0.1631
  141MOL0     C18923   7.467   5.046   2.683 -0.0194 -0.6698  0.3010
  141MOL0     O18924   7.392   5.128   2.764 -0.0947 -0.7698  0.5125
  141MOL0     C18925   7.257   5.096   2.771 -0.0199 -0.0314 -0.3520
  141MOL0     C18926   7.195   4.981   2.721  0.5117 -0.3848  0.6253
  141MOL0     C18927   7.061   4.961   2.730 -0.2430 -0.6863  0.3129
  141MOL0     C18928   6.997   4.842   2.649  0.3262 -0.6290  0.4761
  141MOL0     C18929   6.974   5.044   2.806 -0.2419 -0.6595  0.4301
  141MOL0     C18930   6.825   5.033   2.817  0.4308  0.4159 -0.2518
  141MOL0     O18931   6.777   5.085   2.929  0.0310  0.0088  0.1744
  141MOL0     C18932   6.638   5.077   2.960 -0.1144  0.0988  0.1443
  141MOL0     C18933   6.566   4.961   3.005  0.1536 -0.0845 -0.2210
  141MOL0     C18934   6.439   4.989   3.062 -0.3585  0.2331  0.0805
  141MOL0     C18935   6.385   5.115   3.071  0.1712 -0.3869 -0.4358
  141MOL0     O18936   6.257   5.140   3.114  0.3278 -0.3059 -0.7100
  141MOL0     C18937   6.205   5.074   3.227 -0.0084 -0.3998 -0.1019
  141MOL0     C18938   6.076   5.007   3.183 -0.6703 -0.3459 -0.3645
  141MOL0     C18939   5.957   5.100   3.166  0.1494 -0.5325 -0.3494
  141MOL0     C18940   5.814   5.049   3.155  0.3838 -0.2047 -0.5009
  141MOL0     C18941   5.800   4.945   3.041 -0.1313  0.1407  0.4219
  141MOL0     C18942   5.660   4.892   3.043  0.1630  0.1901 -0.1348
  141MOL0     C18943   5.640   4.775   2.948  0.8943  0.6332  0.1187
  141MOL0     C18944   5.495   4.769   2.912 -0.4320 -0.2200  0.3553
  141MOL0    Cl18945   5.476   4.626   2.803  0.2780  0.0347 -0.1975
  141MOL0     C18946   6.446   5.218   3.002  0.4471  0.3672 -0.1686
  141MOL0     C18947   6.574   5.202   2.954 -0.2082  1.2619  0.0853
  141MOL0     O18948   6.759   5.000   2.717  0.2012  0.0739 -0.2961
  141MOL0     C18949   7.032   5.166   2.852 -0.8269  0.2317 -0.1938
  141MOL0     C18950   7.173   5.184   2.847 -0.6094  0.1711  0.2728
  141MOL0     N18951   7.905   4.900   2.615 -0.1603  0.4715 -0.3636
  141MOL0     N18952   7.990   4.885   2.525  0.0766  0.5712 -0.2955
  141MOL0     C18953   9.147   5.000   3.002 -0.7574 -0.5126 -0.2710
  141MOL0     C18954   9.282   4.995   2.976  0.6399 -0.2857  0.4485
  141MOL0     C18955   9.655   4.925   2.718  1.5000 -0.8275  0.9952
  141MOL0     C18956   9.718   5.029   2.796 -0.2501  0.4503 -0.2461
  141MOL0     C18957   9.836   5.080   2.744 -0.2139 -0.3339  0.1568
  141MOL0     C18958   9.903   5.028   2.635 -0.1357  0.2409 -0.4645
  141MOL0     O18959  10.032   5.090   2.608  0.0690  0.0223  0.2680
  141MOL0     C18960  10.114   5.030   2.506  0.3332  0.6261  0.2927
  141MOL0     C18961  10.267   5.053   2.518 -0.3526  1.3559 -0.5840
  141MOL0     C18962  10.309   5.187   2.477  0.6879 -0.7827 -0.3522
  141MOL0     C18963  10.437   5.220   2.555 -1.0089  0.5369  0.0943
  141MOL0     C18964  10.453   5.362   2.537  0.7010 -0.4672 -0.9557
  141MOL0     C18965  10.458   5.479   2.517 -0.2406  0.1495  0.5233
  141MOL0     C18966   9.844   4.935   2.557 -0.6478  0.5208  0.1694
  141MOL0     C18967   9.720   4.882   2.597  0.1995 -0.3602  0.6349
  141MOL0     H18968   9.272   4.729   2.779 -4.0367 -0.8934 -1.3631
  141MOL0     H18969   9.047   4.749   2.802  1.6459 -0.5820 -1.5747
  141MOL0     H18970   8.891   5.080   3.056  2.0542  1.1123 -1.3130
  141MOL0     H18971   8.913   5.121   2.885 -2.9399  0.2428 -2.3476
  141MOL0     H18972   8.672   4.974   3.006  2.0079 -2.3976  0.2562
  141MOL0     H18973   8.675   5.128   2.926 -0.0589 -0.4098  0.2868
  141MOL0     H18974   8.748   5.013   2.708  1.6435  0.1049  0.7584
  141MOL0     H18975   8.721   4.856   2.782 -1.3882  0.2700 -1.1081
  141MOL0     H18976   8.483   4.928   2.829 -1.5645  1.6757  0.0340
  141MOL0     H18977   8.520   5.077   2.729  1.6470 -0.0970 -2.8520
  141MOL0     H18978   8.586   4.936   2.544  0.8620  0.6899  0.7375
  141MOL0     H18979   8.556   4.792   2.634 -0.1841  0.5633  0.6977
  141MOL0     H18980   8.361   4.814   2.502 -2.7220  1.2221 -0.7489
  141MOL0     H18981   8.310   4.864   2.661  0.7504 -0.5940  1.0087
  141MOL0     H18982   8.329   5.099   2.598  1.3624  0.6741 -0.2008
  141MOL0     H18983   8.399   5.066   2.440 -2.6387  0.6655 -1.7455
  141MOL0     H18984   8.209   4.921   2.374 -1.4393  0.1195 -0.7858
  141MOL0     H18985   8.180   5.098   2.391 -2.3782 -1.3943  0.4610
  141MOL0     H18986   8.093   5.160   2.670  1.3197  0.9020 -3.9707
  141MOL0     H18987   7.902   5.043   2.894  2.7364 -1.4349 -1.8126
  141MOL0     H18988   7.863   5.178   2.795  0.2876  0.1417 -0.0048
  141MOL0     H18989   7.656   5.078   2.886  0.3382  0.7415  0.2522
  141MOL0     H18990   7.683   4.923   2.792 -1.8381  0.3397  0.6224
  141MOL0     H18991   7.663   5.040   2.588  0.0594 -1.8859  0.9369
  141MOL0     H18992   7.619   5.193   2.681  3.0501  0.1194  0.3354
  141MOL0     H18993   7.468   4.943   2.720  2.6762 -0.4270  1.1491
  141MOL0     H18994   7.437   5.050   2.579 -0.9356 -0.0102  0.5832
  141MOL0     H18995   7.246   4.906   2.660 -0.9472  0.3134 -1.5222
  141MOL0     H18996   7.068   4.762   2.624  1.6973 -0.4734  3.4783
  141MOL0     H18997   6.922   4.784   2.704  0.5606 -1.1486  0.2604
  141MOL0     H18998   6.939   4.884   2.566  1.4394 -1.4376 -0.7503
  141MOL0     H18999   6.602   4.859   2.996 -2.3745 -0.8806 -3.0647
  141MOL0     H19000   6.377   4.907   3.097  1.1568 -0.8295  0.3680
  141MOL0     H19001   6.269   4.995   3.266  0.2098  0.1744  0.7389
  141MOL0     H19002   6.189   5.148   3.306 -0.6926  0.8415 -1.3483
  141MOL0     H19003   6.094   4.947   3.094  1.9419 -0.0162 -0.1424
  141MOL0     H19004   6.049   4.929   3.255  2.1837 -1.8275 -0.7591
  141MOL0     H19005   5.975   5.157   3.074  0.8814  0.5509  0.4472
  141MOL0     H19006   5.964   5.169   3.250 -1.0347 -1.9996  1.0142
  141MOL0     H19007   5.785   5.011   3.253 -0.7213  0.0613 -0.7042
  141MOL0     H19008   5.743   5.129   3.129  0.5899  0.0040 -0.4246
  141MOL0     H19009   5.859   4.856   3.064 -2.6301 -1.8675 -0.3966
  141MOL0     H19010   5.822   5.001   2.950  0.1563  2.9926  2.1409
  141MOL0     H19011   5.639   4.864   3.147  1.7631  3.1632  1.1065
  141MOL0     H19012   5.597   4.977   3.015  0.3670  0.4903  0.3172
  141MOL0     H19013   5.686   4.684   2.989  2.2688 -0.1362 -2.8540
  141MOL0     H19014   5.700   4.800   2.860  2.9060 -2.7387  0.3325
  141MOL0     H19015   5.469   4.856   2.851  0.3366 -0.3558 -0.1843
  141MOL0     H19016   5.432   4.760   3.001 -0.0265 -0.7173  0.5970
  141MOL0     H19017   6.402   5.317   3.002 -1.5109 -0.4553 -0.8929
  141MOL0     H19018   6.629   5.282   2.904  0.3558  1.2412  0.6605
  141MOL0     H19019   6.969   5.243   2.897 -0.3298 -0.7233  2.2581
  141MOL0     H19020   7.215   5.276   2.886 -1.8265  0.3836  1.1273
  141MOL0     H19021   9.113   5.073   3.075 -1.0731 -3.3378  2.6090
  141MOL0     H19022   9.350   5.068   3.020 -0.1745  2.1411 -2.0841
  141MOL0     H19023   9.679   5.065   2.891  0.2052  0.6581 -0.1364
  141MOL0     H19024   9.871   5.158   2.811  0.8202 -1.1768  0.6073
  141MOL0     H19025  10.092   4.924   2.497 -0.0987  0.7219  0.1977
  141MOL0     H19026  10.083   5.068   2.408  3.1552 -0.5249 -1.1605
  141MOL0     H19027  10.306   4.981   2.446 -1.0158  0.8973 -0.4861
  141MOL0     H19028  10.293   5.030   2.622 -1.1002 -0.4624 -0.7652
  141MOL0     H19029  10.237   5.267   2.499  2.9821  1.1211  0.6591
  141MOL0     H19030  10.322   5.187   2.369 -2.6678  0.2189 -0.8837
  141MOL0     H19031  10.522   5.162   2.515 -1.5453 -0.2398  0.0723
  141MOL0     H19032  10.433   5.204   2.663  2.6955  0.9665  0.4579
  141MOL0     H19033  10.437   5.584   2.511  2.5758  0.6992 -2.3651
  141MOL0     H19034   9.880   4.916   2.457  0.9015 -0.1656  0.8297
  141MOL0     H19035   9.684   4.815   2.520 -2.1822 -0.3130  1.6229
  142MOL0     O19036   0.219   2.055  11.259  0.2251  1.2858  0.4606
  142MOL0     C19037   0.241   2.121  11.364  1.0587  0.5297 -0.3249
  142MOL0     O19038   0.145   2.150  11.465  0.1696  0.2628  0.3036
  142MOL0     C19039   0.009   2.121  11.453 -0.7105  0.5931  0.1955
  142MOL0     C19040  -0.070   2.168  11.564 -0.3508  0.5301 -0.0146
  142MOL0     C19041  -0.205   2.149  11.566  0.8177  0.4143 -0.6988
  142MOL0     C19042  -0.271   2.094  11.464  0.7298 -0.2574  0.7577
  142MOL0     O19043  -0.414   2.081  11.473  0.4259  0.6275  0.1831
  142MOL0     C19044  -0.490   2.057  11.355  0.3312  0.6216  0.0889
  142MOL0     C19045  -0.640   2.066  11.372  0.4969  0.0276  0.3921
  142MOL0     C19046  -0.687   2.206  11.429  0.3386 -0.0759 -0.1758
  142MOL0     C19047  -0.843   2.209  11.452  0.5164  0.0978 -0.1286
  142MOL0     C19048  -0.898   2.342  11.515  0.3523  0.1127 -0.1145
  142MOL0     C19049  -0.880   2.346  11.665 -0.0142 -0.1238  0.2726
  142MOL0     C19050  -0.970   2.468  11.717 -0.0557 -0.0213  0.6120
  142MOL0     C19051  -1.095   2.412  11.789 -0.1244  0.0371  0.2234
  142MOL0     N19052  -1.188   2.514  11.817 -0.1381  0.0786  0.9363
  142MOL0     C19053  -1.185   2.609  11.918 -0.2610  0.0850 -1.0050
  142MOL0     C19054  -1.307   2.669  11.914 -1.0215  1.0605  0.3470
  142MOL0     C19055  -1.356   2.787  11.991  0.1150  0.6484  0.4211
  142MOL0     C19056  -1.317   2.777  12.139 -0.4166 -0.0832  0.7405
  142MOL0     C19057  -1.376   2.660  12.211 -0.8975 -0.0643  0.4802
  142MOL0     C19058  -1.520   2.621  12.193 -0.3984  0.2261 -0.6038
  142MOL0     O19059  -1.553   2.569  12.065 -0.1159 -0.2596 -0.2919
  142MOL0     C19060  -1.678   2.606  12.011  0.2466 -1.1156 -0.0103
  142MOL0     C19061  -1.784   2.674  12.072 -0.1821  0.1561  0.6329
  142MOL0     C19062  -1.900   2.712  12.010  0.4086  0.5255  0.1779
  142MOL0     C19063  -2.007   2.779  12.090  0.3195  0.6502 -0.3210
  142MOL0     C19064  -1.926   2.683  11.875 -0.1130  0.2189  0.2781
  142MOL0     C19065  -2.056   2.699  11.800  0.4249 -0.3702 -0.3502
  142MOL0     O19066  -2.066   2.616  11.689  0.3311 -0.6628  0.3412
  142MOL0     C19067  -2.164   2.653  11.597 -0.1616 -0.4210  0.3847
  142MOL0     C19068  -2.139   2.752  11.501  0.6142  0.8145  0.7455
  142MOL0     C19069  -2.240   2.777  11.406  0.2709  0.4398 -0.5657
  142MOL0     C19070  -2.360   2.707  11.410 -0.5602 -0.2995 -0.7410
  142MOL0     O19071  -2.451   2.745  11.318  1.0668 -1.1774  0.0964
  142MOL0     C19072  -2.599   2.723  11.334 -0.6603 -0.5352 -0.1213
  142MOL0     C19073  -2.658   2.792  11.214 -0.6772  0.7195  0.4935
  142MOL0     C19074  -2.802   2.739  11.183  0.0606 -0.5236  0.4730
  142MOL0     C19075  -2.874   2.834  11.078 -0.5429 -0.1452 -0.6340
  142MOL0     C19076  -3.021   2.782  11.062 -0.7695 -0.8609 -0.0010
  142MOL0     C19077  -3.089   2.862  10.949  0.7088 -0.6732  0.0910
  142MOL0     C19078  -3.224   2.797  10.916  0.1027  0.4788 -0.2045
  142MOL0     C19079  -3.298   2.885  10.821  0.2205 -0.0057  0.9757
  142MOL0    Cl19080  -3.223   2.873  10.658 -0.1781 -0.4602 -0.2960
  142MOL0     C19081  -2.392   2.611  11.507 -0.7563 -0.0583  0.3963
  142MOL0     C19082  -2.292   2.591  11.600 -0.2795  0.3632 -0.0666
  142MOL0     O19083  -2.141   2.783  11.834  0.0556 -0.2147 -0.3265
  142MOL0     C19084  -1.818   2.620  11.811  0.6398 -0.0584 -0.2711
  142MOL0     C19085  -1.700   2.587  11.871  0.5531  0.6770  0.3976
  142MOL0     N19086  -1.382   2.610  11.807 -0.5645 -0.7058  0.0273
  142MOL0     N19087  -1.314   2.512  11.759  0.6118 -0.1602 -0.6865
  142MOL0     C19088  -0.200   2.044  11.347 -0.1370  0.5084 -0.5001
  142MOL0     C19089  -0.058   2.057  11.347 -1.0987 -0.5163 -0.0615
  142MOL0     C19090   0.374   2.163  11.405 -0.0739  0.0262  0.1734
  142MOL0     C19091   0.486   2.106  11.333 -0.0055 -0.1623 -0.1074
  142MOL0     C19092   0.617   2.148  11.362 -0.0147 -0.3029 -0.3451
  142MOL0     C19093   0.637   2.249  11.459  0.2006  0.0446 -0.0976
  142MOL0     O19094   0.753   2.308  11.500  0.1030 -0.0927 -0.4649
  142MOL0     C19095   0.874   2.234  11.488  0.2712 -0.5953  0.8119
  142MOL0     C19096   0.984   2.314  11.556  0.1244  0.4049  0.1656
  142MOL0     C19097   1.050   2.409  11.450 -1.0610  0.6377 -0.0367
  142MOL0     C19098   1.182   2.472  11.502 -0.7969 -0.5616  0.0788
  142MOL0     C19099   1.305   2.420  11.435  0.4781 -0.4468 -0.6629
  142MOL0     C19100   1.405   2.365  11.396  0.0036  0.0983 -0.3053
  142MOL0     C19101   0.522   2.319  11.509  0.4579 -0.1266  0.8671
  142MOL0     C19102   0.394   2.271  11.490  0.8050  0.1919 -0.2110
  142MOL0     H19103  -0.019   2.218  11.646  0.6194  0.0471 -0.3114
  142MOL0     H19104  -0.264   2.160  11.657 -0.6983 -1.7796 -1.3290
  142MOL0     H19105  -0.460   2.129  11.278 -3.0383  1.2057 -0.8350
  142MOL0     H19106  -0.458   1.954  11.336  0.7839  0.2487  2.5519
  142MOL0     H19107  -0.692   2.059  11.276  1.6640  0.4932 -0.2968
  142MOL0     H19108  -0.683   1.987  11.435 -0.0725  1.7120  2.2479
  142MOL0     H19109  -0.638   2.217  11.527 -0.7170 -0.2737  0.3924
  142MOL0     H19110  -0.653   2.289  11.366  2.0974 -0.8080 -0.2437
  142MOL0     H19111  -0.896   2.189  11.359 -0.1719  2.7958 -0.3895
  142MOL0     H19112  -0.876   2.122  11.510 -0.1065  0.2661 -0.2299
  142MOL0     H19113  -0.856   2.432  11.470 -0.3698  0.3379 -0.3439
  142MOL0     H19114  -1.004   2.349  11.491  0.1608 -2.3449 -0.2760
  142MOL0     H19115  -0.904   2.248  11.709 -0.2431 -0.0178  0.3822
  142MOL0     H19116  -0.777   2.366  11.694 -0.2607  1.5856  0.0673
  142MOL0     H19117  -0.906   2.534  11.777 -0.9427  0.7658  0.7115
  142MOL0     H19118  -1.005   2.527  11.632  1.0042  1.7074  1.3120
  142MOL0     H19119  -1.060   2.362  11.880 -0.5873  1.3544  1.1480
  142MOL0     H19120  -1.151   2.340  11.728  0.9346 -0.3764 -0.2921
  142MOL0     H19121  -1.100   2.634  11.981 -1.6193  2.9549 -0.1500
  142MOL0     H19122  -1.309   2.881  11.959 -0.8360  1.1790  0.5254
  142MOL0     H19123  -1.465   2.789  11.977  0.0213 -1.6705  0.5691
  142MOL0     H19124  -1.352   2.871  12.184 -0.5178  1.3846 -2.1840
  142MOL0     H19125  -1.208   2.775  12.136 -0.4345 -1.2489 -2.2303
  142MOL0     H19126  -1.355   2.692  12.314 -2.1218 -0.2924  0.8243
  142MOL0     H19127  -1.319   2.567  12.207 -2.3548 -1.1282  2.5764
  142MOL0     H19128  -1.578   2.713  12.203 -0.6772 -0.1153  1.4177
  142MOL0     H19129  -1.551   2.569  12.284 -0.6105  2.0343  0.4015
  142MOL0     H19130  -1.769   2.685  12.179  1.2122 -0.6468  0.5411
  142MOL0     H19131  -2.040   2.869  12.036 -0.4908  1.4898  1.4930
  142MOL0     H19132  -2.096   2.717  12.095  1.1994 -0.6602 -0.5046
  142MOL0     H19133  -1.983   2.801  12.194 -3.0032 -1.4771  1.0222
  142MOL0     H19134  -2.044   2.804  11.501  2.1142 -1.6330 -1.9810
  142MOL0     H19135  -2.229   2.858  11.334  0.8302 -1.0030 -2.1793
  142MOL0     H19136  -2.625   2.617  11.338  0.8149 -1.0299 -2.1728
  142MOL0     H19137  -2.637   2.766  11.427 -0.1901 -3.3414  1.4998
  142MOL0     H19138  -2.657   2.901  11.221  0.8111  0.8613 -1.1093
  142MOL0     H19139  -2.608   2.783  11.117 -0.1473  0.9630  0.7437
  142MOL0     H19140  -2.869   2.738  11.270 -0.5980 -0.8242 -0.0304
  142MOL0     H19141  -2.790   2.638  11.143  2.3902 -0.8723  1.8816
  142MOL0     H19142  -2.877   2.932  11.126  0.2279  0.0157 -0.9024
  142MOL0     H19143  -2.811   2.829  10.989 -0.2984 -3.3947 -0.3910
  142MOL0     H19144  -3.082   2.802  11.150  0.5205  2.0586  0.3279
  142MOL0     H19145  -3.018   2.674  11.044  2.0002 -1.0805  1.2457
  142MOL0     H19146  -3.106   2.963  10.989  1.6612 -0.8901  1.1107
  142MOL0     H19147  -3.028   2.856  10.859  0.2240 -0.4675 -0.2500
  142MOL0     H19148  -3.274   2.780  11.012 -0.1923 -0.9011 -0.5837
  142MOL0     H19149  -3.210   2.701  10.866 -2.7974  0.4310 -1.0660
  142MOL0     H19150  -3.314   2.988  10.855 -0.5880  1.1731 -2.5598
  142MOL0     H19151  -3.400   2.852  10.801 -0.1602  0.6051  1.8297
  142MOL0     H19152  -2.487   2.557  11.510 -0.0017 -1.3967  1.2150
  142MOL0     H19153  -2.307   2.525  11.684 -2.4328 -0.8834 -1.3665
  142MOL0     H19154  -1.817   2.597  11.705  1.2968  1.5940 -0.6465
  142MOL0     H19155  -1.622   2.531  11.821 -1.5848  0.0548 -2.4476
  142MOL0     H19156  -0.247   1.996  11.261  0.4892  2.7497 -2.1988
  142MOL0     H19157  -0.008   1.999  11.269 -4.7846 -1.9964 -1.5456
  142MOL0     H19158   0.468   2.020  11.269  1.8468 -0.9525  0.3716
  142MOL0     H19159   0.698   2.096  11.313 -1.2953 -1.3434 -1.4393
  142MOL0     H19160   0.876   2.140  11.544 -0.7460 -0.5608  0.9212
  142MOL0     H19161   0.896   2.221  11.382 -1.8491  1.0604  0.0813
  142MOL0     H19162   1.059   2.245  11.596  2.6662  2.1022 -1.3179
  142MOL0     H19163   0.942   2.376  11.635 -2.1132 -1.1279  0.2480
  142MOL0     H19164   0.980   2.489  11.421 -2.0490  0.0916  0.7719
  142MOL0     H19165   1.059   2.351  11.358  2.0933 -2.6205  2.0359
  142MOL0     H19166   1.199   2.450  11.608  3.1939  0.0631 -0.2603
  142MOL0     H19167   1.180   2.580  11.482 -1.6116 -0.7776 -1.0410
  142MOL0     H19168   1.493   2.315  11.361 -0.4973 -0.8106 -0.2934
  142MOL0     H19169   0.537   2.401  11.579  3.2521 -1.2435  1.6838
  142MOL0     H19170   0.313   2.319  11.544  0.5371  0.4411 -0.8288
  143MOL0     O19171   1.294  10.426   0.285  0.6080  0.3397 -0.2811
  143MOL0     C19172   1.351  10.478   0.383  0.0750  0.2179 -0.1095
  143MOL0     O19173   1.311  10.477   0.509  0.1839  0.5924 -0.2939
  143MOL0     C19174   1.185  10.441   0.541  1.0131 -0.0136  0.2700
  143MOL0     C19175   1.062  10.480   0.478  1.0545 -0.2012  0.6873
  143MOL0     C19176   0.943  10.420   0.512 -0.6036  0.6524  0.3052
  143MOL0     C19177   0.934  10.331   0.625 -0.0697 -0.2748 -0.7821
  143MOL0     O19178   0.816  10.278   0.668  0.2546  0.0513 -0.0493
  143MOL0     C19179   0.723  10.246   0.560  0.1754  0.7167 -0.4659
  143MOL0     C19180   0.588  10.204   0.619 -0.0663  0.8293  0.4089
  143MOL0     C19181   0.516  10.085   0.548  0.5591 -0.6687 -0.2872
  143MOL0     C19182   0.373  10.076   0.596 -0.6016 -0.4730  0.3150
  143MOL0     C19183   0.272   9.973   0.541  0.7011 -0.4853 -0.1812
  143MOL0     C19184   0.305   9.825   0.579 -0.7443 -0.5674 -1.1970
  143MOL0     C19185   0.298   9.798   0.732  0.2661  0.4050 -0.4553
  143MOL0     C19186   0.317   9.656   0.778 -0.7270  0.7421  0.4380
  143MOL0     N19187   0.194   9.579   0.750 -0.0460  0.8213  0.2970
  143MOL0     C19188   0.100   9.529   0.837  0.5976  0.6500  0.5611
  143MOL0     C19189   0.038   9.424   0.775 -0.0174 -0.0327  0.5090
  143MOL0     C19190  -0.073   9.340   0.845  0.3880  0.3288  0.4857
  143MOL0     C19191  -0.200   9.425   0.874 -0.8984  0.2638 -0.2132
  143MOL0     C19192  -0.294   9.340   0.957  0.2461  0.3453 -0.1175
  143MOL0     C19193  -0.387   9.429   1.042 -0.1484  0.7616 -1.0847
  143MOL0     O19194  -0.517   9.434   0.978 -0.0389  0.5018  0.4904
  143MOL0     C19195  -0.624   9.473   1.054 -0.0842 -0.3823 -0.0214
  143MOL0     C19196  -0.614   9.519   1.185 -1.0766 -0.2648  0.3003
  143MOL0     C19197  -0.721   9.578   1.250  0.9762 -0.4788  0.0408
  143MOL0     C19198  -0.693   9.655   1.380  0.7821  0.2308 -0.0755
  143MOL0     C19199  -0.853   9.584   1.183  0.0519 -0.5013  0.4643
  143MOL0     C19200  -0.983   9.641   1.239 -0.8306 -0.0845  0.1286
  143MOL0     O19201  -1.091   9.660   1.149 -0.5644 -0.2516 -0.3065
  143MOL0     C19202  -1.201   9.728   1.194 -0.4503  0.0840 -0.6773
  143MOL0     C19203  -1.195   9.859   1.247  0.0091 -0.0776  0.4733
  143MOL0     C19204  -1.314   9.934   1.270  0.0527 -0.4794  0.1564
  143MOL0     C19205  -1.447   9.890   1.243 -0.7924  0.3066  0.6800
  143MOL0     O19206  -1.561   9.945   1.274  0.7494 -0.0235 -0.6674
  143MOL0     C19207  -1.558  10.001   1.407  0.6066  0.2246  0.4375
  143MOL0     C19208  -1.695  10.066   1.428  0.2468  0.9979  0.6945
  143MOL0     C19209  -1.792   9.994   1.527 -0.1131  0.1912  1.3070
  143MOL0     C19210  -1.935  10.015   1.483 -0.5585  0.6605 -0.5394
  143MOL0     C19211  -2.027   9.983   1.599 -0.1382 -0.8776  0.3089
  143MOL0     C19212  -2.039  10.101   1.700 -0.0142  0.3058 -0.6949
  143MOL0     C19213  -2.146  10.096   1.807  0.3158  0.5072 -0.0375
  143MOL0     C19214  -2.281  10.047   1.762  0.5508  0.2017  0.7487
  143MOL0    Cl19215  -2.337  10.102   1.606 -0.0227 -0.1248 -0.0594
  143MOL0     C19216  -1.449   9.764   1.192  0.3575 -0.1696  0.2489
  143MOL0     C19217  -1.331   9.685   1.162  0.1610  0.4369  0.6179
  143MOL0     O19218  -0.988   9.663   1.363  0.2060 -0.2347  0.5077
  143MOL0     C19219  -0.865   9.511   1.063  1.2725  0.0652  0.6139
  143MOL0     C19220  -0.755   9.463   0.995  0.2342  0.0117 -0.4225
  143MOL0     N19221   0.084   9.417   0.652  0.3018 -0.2215 -0.0349
  143MOL0     N19222   0.174   9.507   0.637 -0.4325 -0.2065 -0.1072
  143MOL0     C19223   1.050  10.302   0.693  1.2785 -0.6336 -0.0029
  143MOL0     C19224   1.176  10.352   0.648  0.3261 -0.1623 -0.5595
  143MOL0     C19225   1.487  10.536   0.361 -0.2363  0.5239 -0.6193
  143MOL0     C19226   1.548  10.616   0.465 -0.1842  0.9198 -0.0222
  143MOL0     C19227   1.679  10.657   0.453  0.6415 -0.5060  0.3143
  143MOL0     C19228   1.750  10.629   0.339 -0.4527  0.1651 -0.0561
  143MOL0     O19229   1.884  10.662   0.343  0.2817  0.0703 -1.0424
  143MOL0     C19230   1.971  10.638   0.232 -0.4424  0.5769 -0.4878
  143MOL0     C19231   1.987  10.758   0.134 -0.0371  0.4922 -0.1654
  143MOL0     C19232   2.038  10.711  -0.007 -0.3669  0.1038 -0.1179
  143MOL0     C19233   2.170  10.636  -0.004 -0.5272 -0.0708 -0.3141
  143MOL0     C19234   2.286  10.724   0.025  0.9647  0.2671  0.0382
  143MOL0     C19235   2.383  10.792   0.048  0.1325  0.4447  0.4974
  143MOL0     C19236   1.689  10.560   0.231 -0.6450  0.4784  0.1927
  143MOL0     C19237   1.550  10.523   0.234 -0.7881  0.0068  0.1546
  143MOL0     H19238   1.055  10.557   0.402 -0.7291  1.1749  2.1651
  143MOL0     H19239   0.854  10.458   0.462 -0.4627 -1.2258 -1.5243
  143MOL0     H19240   0.692  10.337   0.507 -1.7769  1.6506  2.0446
  143MOL0     H19241   0.781  10.175   0.501  1.8291  0.4081  1.4382
  143MOL0     H19242   0.601  10.174   0.724 -3.6365 -2.3647  0.1461
  143MOL0     H19243   0.527  10.295   0.614  2.1731  2.3694 -0.7308
  143MOL0     H19244   0.516  10.097   0.439  2.0240 -2.5504 -0.5423
  143MOL0     H19245   0.575   9.994   0.566  3.7473  0.8935 -2.0911
  143MOL0     H19246   0.369  10.073   0.705 -4.2070  0.4286  0.3528
  143MOL0     H19247   0.325  10.167   0.558  1.6831  1.6264  2.1183
  143MOL0     H19248   0.170   9.976   0.580  0.5564  0.1097 -0.5832
  143MOL0     H19249   0.277   9.967   0.431  3.3109 -0.8491 -0.0925
  143MOL0     H19250   0.238   9.757   0.526  0.1540  0.1451 -3.3540
  143MOL0     H19251   0.408   9.806   0.548  1.2977  0.9512  3.6786
  143MOL0     H19252   0.383   9.850   0.778  1.1210 -1.9814  0.8569
  143MOL0     H19253   0.207   9.840   0.775 -0.1689 -0.5933 -0.3604
  143MOL0     H19254   0.351   9.656   0.881  1.8737  0.7321 -0.3654
  143MOL0     H19255   0.396   9.611   0.717  0.0677  1.1363  1.1583
  143MOL0     H19256   0.077   9.577   0.932  2.8458  1.2597  0.8495
  143MOL0     H19257  -0.097   9.252   0.786  1.8789  0.0694  0.2387
  143MOL0     H19258  -0.031   9.299   0.937 -1.0175 -0.6877  0.7049
  143MOL0     H19259  -0.238   9.452   0.775  1.3268 -0.5689 -1.3593
  143MOL0     H19260  -0.175   9.524   0.914  0.8262  0.7765 -2.4072
  143MOL0     H19261  -0.236   9.267   1.014  2.2547  2.2576  0.4285
  143MOL0     H19262  -0.360   9.275   0.898 -0.9343 -1.6000  3.1013
  143MOL0     H19263  -0.341   9.527   1.061  4.6418 -1.2829 -0.5825
  143MOL0     H19264  -0.400   9.371   1.134 -3.2823  0.6267 -1.4991
  143MOL0     H19265  -0.524   9.508   1.245 -0.9283 -2.4043 -0.2129
  143MOL0     H19266  -0.722   9.593   1.465  0.6015  1.4701  0.7949
  143MOL0     H19267  -0.585   9.663   1.398  0.4032  2.6663  1.6177
  143MOL0     H19268  -0.745   9.751   1.385  0.6778  0.0911  2.4074
  143MOL0     H19269  -1.105   9.914   1.274 -1.5535  1.7298  2.3623
  143MOL0     H19270  -1.303  10.031   1.318  1.3418  0.2889 -1.5807
  143MOL0     H19271  -1.536   9.921   1.478  1.3206 -1.3415 -1.4274
  143MOL0     H19272  -1.482  10.080   1.410 -0.3531  1.3894 -2.3884
  143MOL0     H19273  -1.683  10.169   1.463 -1.7777  1.5500 -0.1125
  143MOL0     H19274  -1.746  10.090   1.334 -0.5871 -2.9118 -0.0047
  143MOL0     H19275  -1.775  10.024   1.631 -1.0971  1.6556  1.0664
  143MOL0     H19276  -1.778   9.886   1.521 -1.1635  0.0136  1.8705
  143MOL0     H19277  -1.949  10.121   1.460 -1.0752  0.5846 -0.5833
  143MOL0     H19278  -1.954   9.955   1.394 -1.3638 -0.9961  0.6888
  143MOL0     H19279  -1.994   9.885   1.634 -2.8202 -3.2455 -3.1567
  143MOL0     H19280  -2.128   9.971   1.559 -1.0550  0.4726  2.0665
  143MOL0     H19281  -1.944  10.120   1.751  0.2940 -0.8441 -0.8261
  143MOL0     H19282  -2.055  10.195   1.645 -0.6178  0.3208 -0.5023
  143MOL0     H19283  -2.140  10.196   1.851  3.3581  0.0438  0.8672
  143MOL0     H19284  -2.109  10.021   1.878  1.8170  0.3956 -0.8866
  143MOL0     H19285  -2.355  10.083   1.834  0.8396  1.9161  0.2547
  143MOL0     H19286  -2.280   9.938   1.761 -0.1381  0.1844 -0.6823
  143MOL0     H19287  -1.546   9.722   1.167  1.9437 -1.9893 -3.6532
  143MOL0     H19288  -1.346   9.588   1.117  2.0488  0.0570  0.7230
  143MOL0     H19289  -0.953   9.503   1.001  0.0318  2.2979  1.9743
  143MOL0     H19290  -0.777   9.424   0.896  1.4503 -0.1028 -0.6652
  143MOL0     H19291   1.057  10.246   0.786  1.5351  0.4600  0.6466
  143MOL0     H19292   1.266  10.328   0.705  1.1453  0.0028 -1.7511
  143MOL0     H19293   1.499  10.633   0.560  2.2654  1.1274  1.2819
  143MOL0     H19294   1.740  10.704   0.529  1.1572 -0.7640  0.0687
  143MOL0     H19295   2.075  10.616   0.260 -1.0176 -3.1917 -0.7860
  143MOL0     H19296   1.944  10.548   0.177 -0.0694  0.0704  0.1511
  143MOL0     H19297   2.067  10.828   0.160  1.2462 -0.9898  0.0529
  143MOL0     H19298   1.891  10.810   0.127  0.2096  0.8290 -1.2603
  143MOL0     H19299   2.045  10.797  -0.075  2.2740  0.4452  0.4910
  143MOL0     H19300   1.956  10.647  -0.040 -2.2616  1.9930  0.6762
  143MOL0     H19301   2.187  10.584  -0.099  1.5826  0.0575 -0.0660
  143MOL0     H19302   2.165  10.566   0.080  3.4652 -1.0879 -0.7024
  143MOL0     H19303   2.477  10.839   0.067 -0.3866  2.1776 -0.9425
  143MOL0     H19304   1.745  10.533   0.142  1.8110 -0.0999  1.8209
  143MOL0     H19305   1.486  10.476   0.160  0.1539 -1.2080  0.0852
  144MOL0     O19306  10.048   6.805  11.137  0.2064 -0.2415  0.0194
  144MOL0     C19307  10.087   6.876  11.049  1.0637  0.7997  0.7166
  144MOL0     O19308  10.011   6.958  10.969  0.2118 -0.2406  0.7821
  144MOL0     C19309   9.877   6.929  10.963  0.2325 -0.1863 -1.4539
  144MOL0     C19310   9.830   6.822  10.890  0.1634 -0.7946  0.8396
  144MOL0     C19311   9.688   6.798  10.886  0.0652 -0.6336 -0.2918
  144MOL0     C19312   9.594   6.871  10.963  0.0919 -0.3552  0.9392
  144MOL0     O19313   9.463   6.827  10.964  0.0185  0.1711  0.2260
  144MOL0     C19314   9.372   6.881  11.045 -0.2821  0.4135 -0.2820
  144MOL0     C19315   9.230   6.824  11.016 -0.1082 -0.0255 -0.8036
  144MOL0     C19316   9.143   6.873  11.133 -0.2789 -0.2592 -0.3581
  144MOL0     C19317   9.144   6.787  11.250  0.1796  0.3001 -0.1699
  144MOL0     C19318   9.043   6.821  11.360  0.4516  0.2094 -0.1991
  144MOL0     C19319   9.061   6.961  11.411 -0.4389 -0.6418 -0.5213
  144MOL0     C19320   9.202   6.989  11.480  0.0231 -0.3448  0.0702
  144MOL0     C19321   9.230   7.141  11.500  0.1805 -0.6104 -0.0082
  144MOL0     N19322   9.220   7.215  11.373 -0.3321  0.0373 -0.2407
  144MOL0     C19323   9.306   7.207  11.271 -0.7243  0.9605  0.5172
  144MOL0     C19324   9.273   7.310  11.190  0.1082  0.6447  0.0464
  144MOL0     C19325   9.334   7.357  11.061 -0.4702 -0.1057 -0.0841
  144MOL0     C19326   9.232   7.345  10.949  0.2188 -0.1655  0.2538
  144MOL0     C19327   9.194   7.202  10.922  0.1373  0.1280 -0.0612
  144MOL0     C19328   9.092   7.192  10.804  0.3336  0.1491  0.8502
  144MOL0     O19329   9.047   7.056  10.781 -0.4942 -0.3882  0.5893
  144MOL0     C19330   8.920   7.038  10.735  0.8524  0.2353  0.0957
  144MOL0     C19331   8.844   7.114  10.650 -0.8758 -0.1769 -0.1215
  144MOL0     C19332   8.712   7.077  10.603  0.0983  0.3238 -0.6668
  144MOL0     C19333   8.655   7.180  10.516  0.6846  0.2072  0.0414
  144MOL0     C19334   8.650   6.951  10.658 -0.2558 -1.1648  0.2458
  144MOL0     C19335   8.529   6.887  10.609  0.6515  0.0895  0.4895
  144MOL0     O19336   8.449   6.964  10.518  0.4780 -0.3519 -0.4683
  144MOL0     C19337   8.323   6.921  10.516  0.0079  0.4156 -0.4293
  144MOL0     C19338   8.244   6.946  10.628 -0.0587 -0.3355  1.0131
  144MOL0     C19339   8.114   6.900  10.631 -0.3700  0.3231 -0.0925
  144MOL0     C19340   8.065   6.835  10.523  0.1960 -0.0191  0.2623
  144MOL0     O19341   7.936   6.792  10.526  0.2003 -0.1260 -0.4136
  144MOL0     C19342   7.853   6.785  10.407 -0.3969 -0.6209 -0.4877
  144MOL0     C19343   7.715   6.757  10.444  0.0629  0.3946  0.0026
  144MOL0     C19344   7.609   6.741  10.342 -0.3517  0.7405 -0.4453
  144MOL0     C19345   7.479   6.785  10.388 -0.3100 -0.1698  0.0147
  144MOL0     C19346   7.379   6.749  10.280  0.3554  0.3000 -0.1743
  144MOL0     C19347   7.230   6.776  10.328 -0.2825 -0.3234 -0.0447
  144MOL0     C19348   7.137   6.798  10.203  0.3791  0.5715  0.5102
  144MOL0     C19349   6.992   6.796  10.263 -0.2081  0.2984 -0.0618
  144MOL0    Cl19350   6.870   6.851  10.137 -0.2283  0.4712  0.5200
  144MOL0     C19351   8.138   6.825  10.407 -0.1742 -0.0864 -0.6803
  144MOL0     C19352   8.277   6.860  10.403 -0.3978  0.8862 -0.2895
  144MOL0     O19353   8.499   6.774  10.660  0.3462  0.2325 -0.5608
  144MOL0     C19354   8.732   6.878  10.750 -0.2694 -0.4837 -0.1142
  144MOL0     C19355   8.859   6.918  10.787  0.0870  0.3880  0.0591
  144MOL0     N19356   9.167   7.382  11.235 -0.8576 -0.0116 -0.1248
  144MOL0     N19357   9.141   7.315  11.345  0.7116  0.2270 -0.5062
  144MOL0     C19358   9.649   6.982  11.031  0.6495 -0.7855 -0.8610
  144MOL0     C19359   9.784   7.008  11.032  0.6357 -0.0251  0.1578
  144MOL0     C19360  10.229   6.904  11.032  0.1143 -0.0461  0.8382
  144MOL0     C19361  10.278   6.991  10.938 -0.2423  0.3815  0.8176
  144MOL0     C19362  10.412   7.001  10.914 -0.2822  0.2086  0.6152
  144MOL0     C19363  10.505   6.918  10.985  0.6970  0.2457 -0.1014
  144MOL0     O19364  10.635   6.956  10.975  0.8963  0.2342 -0.0374
  144MOL0     C19365  10.717   6.850  10.937  0.6727  1.4120  1.0616
  144MOL0     C19366  10.858   6.893  10.954  0.8379  0.0963 -0.3330
  144MOL0     C19367  10.954   6.783  10.900 -0.6772 -0.2659 -0.7041
  144MOL0     C19368  11.102   6.788  10.947 -0.6794 -1.0339  0.2517
  144MOL0     C19369  11.160   6.907  10.881 -0.7156  0.4731 -0.5402
  144MOL0     C19370  11.209   6.997  10.811  0.2081  0.1552  0.1743
  144MOL0     C19371  10.453   6.826  11.079  0.1177 -0.9567 -1.0765
  144MOL0     C19372  10.314   6.815  11.100  0.2145  0.5878 -0.0402
  144MOL0     H19373   9.891   6.753  10.832  2.2952  0.6147  1.2707
  144MOL0     H19374   9.650   6.720  10.821  1.5806 -0.1369 -1.8494
  144MOL0     H19375   9.402   6.848  11.144  1.8548  2.3618 -0.1998
  144MOL0     H19376   9.369   6.990  11.033  0.0843  0.4088 -0.4312
  144MOL0     H19377   9.187   6.873  10.928 -3.3194  2.1488  1.7199
  144MOL0     H19378   9.231   6.715  11.004 -3.0687 -0.3134  0.4927
  144MOL0     H19379   9.182   6.971  11.160 -1.5434  0.3875 -0.7846
  144MOL0     H19380   9.041   6.886  11.094 -1.0314 -1.0367  1.2418
  144MOL0     H19381   9.106   6.689  11.217 -2.7616  1.2353  0.1684
  144MOL0     H19382   9.246   6.778  11.289 -0.4992 -0.0033  1.6698
  144MOL0     H19383   8.941   6.822  11.320 -0.3722  2.2796  1.7188
  144MOL0     H19384   9.058   6.754  11.445  4.1126  1.2073  0.1351
  144MOL0     H19385   9.042   7.030  11.329 -0.8727  2.6681  2.1270
  144MOL0     H19386   8.980   6.985  11.481 -1.2333  3.3053 -2.5236
  144MOL0     H19387   9.193   6.955  11.584 -3.0745 -0.1944 -0.0375
  144MOL0     H19388   9.280   6.938  11.425  0.4670 -0.5416  0.8593
  144MOL0     H19389   9.327   7.159  11.549 -1.2442  1.1657  2.3791
  144MOL0     H19390   9.158   7.181  11.572  1.2338  0.9323  0.2394
  144MOL0     H19391   9.393   7.143  11.260 -0.3627  1.4818  0.3234
  144MOL0     H19392   9.356   7.464  11.063 -1.8881  0.2054 -0.2237
  144MOL0     H19393   9.426   7.299  11.047  0.7781  1.2975  1.8066
  144MOL0     H19394   9.265   7.396  10.858  0.3846 -0.6857  0.0133
  144MOL0     H19395   9.145   7.391  10.997  1.3274 -0.0505  2.2610
  144MOL0     H19396   9.155   7.168  11.019  2.0713  0.3072  0.8330
  144MOL0     H19397   9.289   7.149  10.910  0.9781  2.0653 -3.0120
  144MOL0     H19398   9.125   7.240  10.712 -2.0010  0.9705  0.3859
  144MOL0     H19399   9.007   7.253  10.835  0.9045  1.1305  0.5422
  144MOL0     H19400   8.890   7.204  10.610 -0.4946 -1.2410 -2.2081
  144MOL0     H19401   8.551   7.197  10.544  0.5937 -2.5724  1.7536
  144MOL0     H19402   8.716   7.271  10.519 -0.9507  1.3140  1.1561
  144MOL0     H19403   8.648   7.148  10.411 -1.6027  2.1800 -0.4946
  144MOL0     H19404   8.288   6.990  10.716 -0.0125  1.7310  0.0014
  144MOL0     H19405   8.069   6.911  10.729 -0.3770  2.4183 -0.2795
  144MOL0     H19406   7.867   6.881  10.358  1.9849  0.1845  1.5189
  144MOL0     H19407   7.894   6.701  10.351  0.9310 -0.1770 -0.2240
  144MOL0     H19408   7.718   6.676  10.518  0.6443  0.6007  0.2081
  144MOL0     H19409   7.685   6.839  10.509 -0.9575 -0.1223  0.1960
  144MOL0     H19410   7.591   6.641  10.301 -1.6727  0.7152  0.1496
  144MOL0     H19411   7.648   6.793  10.254 -3.3040  1.2242 -1.5540
  144MOL0     H19412   7.455   6.740  10.485 -0.3572 -1.5051 -0.6010
  144MOL0     H19413   7.479   6.894  10.396 -0.0736 -0.2507  1.4994
  144MOL0     H19414   7.387   6.646  10.244  0.3219  0.7353 -1.4660
  144MOL0     H19415   7.406   6.809  10.193  0.2294 -2.1544 -2.0085
  144MOL0     H19416   7.192   6.710  10.406 -0.3810 -1.8158 -1.3090
  144MOL0     H19417   7.230   6.874  10.376  1.8138 -1.5010  2.6343
  144MOL0     H19418   7.145   6.718  10.130 -0.9243  1.2414 -0.4127
  144MOL0     H19419   7.151   6.898  10.159 -0.4522  0.8070  0.7558
  144MOL0     H19420   6.983   6.854  10.356 -0.8025  1.2983 -0.7155
  144MOL0     H19421   6.964   6.694  10.288  2.3997 -0.3155  0.6393
  144MOL0     H19422   8.094   6.779  10.319 -0.4799 -1.8483  0.3589
  144MOL0     H19423   8.336   6.841  10.313 -0.7171  1.9824 -0.7511
  144MOL0     H19424   8.694   6.787  10.797 -1.9457 -0.9058 -2.1203
  144MOL0     H19425   8.913   6.861  10.863 -1.4088 -0.4852  0.5297
  144MOL0     H19426   9.589   7.048  11.093 -1.2632 -1.2048 -2.1561
  144MOL0     H19427   9.820   7.090  11.094 -0.8776  1.8265 -1.2856
  144MOL0     H19428  10.216   7.049  10.870  1.1113  0.5983 -0.2646
  144MOL0     H19429  10.433   7.063  10.827  1.2454 -1.1016 -0.0091
  144MOL0     H19430  10.698   6.763  11.001 -1.1338  1.7975  1.1038
  144MOL0     H19431  10.702   6.830  10.831  2.1868 -0.6803  1.1794
  144MOL0     H19432  10.868   6.911  11.061 -0.7800 -1.9215  0.2255
  144MOL0     H19433  10.883   6.983  10.898  1.3099  0.6997  0.8194
  144MOL0     H19434  10.958   6.782  10.791 -0.6779  0.6928 -0.7265
  144MOL0     H19435  10.917   6.682  10.920  0.6798 -0.4337  1.2683
  144MOL0     H19436  11.162   6.698  10.929 -1.4973 -2.2366  3.0374
  144MOL0     H19437  11.109   6.806  11.055  0.5292 -1.1809  0.2151
  144MOL0     H19438  11.245   7.081  10.755  0.0471 -0.9851 -1.7266
  144MOL0     H19439  10.521   6.764  11.135 -0.1270  0.9668  1.5514
  144MOL0     H19440  10.294   6.730  11.165  3.1497 -0.9177 -0.8932
  145MOL0     O19441   5.378   8.054   1.655  0.8296 -0.0784  0.3687
  145MOL0     C19442   5.478   8.118   1.671 -0.3626  0.6202  0.4180
  145MOL0     O19443   5.511   8.189   1.781  0.0318 -0.2895 -0.3878
  145MOL0     C19444   5.431   8.196   1.883  0.3092  0.2064 -0.0609
  145MOL0     C19445   5.498   8.201   2.002  0.2823  0.5210 -0.1841
  145MOL0     C19446   5.435   8.195   2.128 -0.5364 -0.6771  0.2238
  145MOL0     C19447   5.293   8.188   2.128  0.3280 -0.0372 -0.0143
  145MOL0     O19448   5.215   8.203   2.242  0.4824  0.8855  0.3253
  145MOL0     C19449   5.271   8.171   2.373  1.1733 -0.2263 -0.4718
  145MOL0     C19450   5.160   8.176   2.479 -0.3478  0.7169 -0.0560
  145MOL0     C19451   5.051   8.069   2.461  1.3015 -0.0359 -0.3213
  145MOL0     C19452   4.920   8.106   2.533 -0.2280  0.2484 -0.3052
  145MOL0     C19453   4.823   7.991   2.570  0.3589 -0.7638  0.9319
  145MOL0     C19454   4.769   7.917   2.441  0.0936  0.4844  0.0933
  145MOL0     C19455   4.665   7.815   2.475 -0.7968 -0.3519  0.1493
  145MOL0     C19456   4.710   7.703   2.569  0.7953  1.2143 -0.9684
  145MOL0     N19457   4.602   7.603   2.597  0.2439  1.2063 -0.1898
  145MOL0     C19458   4.464   7.623   2.615  0.3323  0.4385 -0.4859
  145MOL0     C19459   4.406   7.496   2.620  0.2837  0.4122  0.4859
  145MOL0     C19460   4.260   7.460   2.630 -0.2221  0.5614  0.1936
  145MOL0     C19461   4.184   7.585   2.688  0.0028 -0.3399 -0.8546
  145MOL0     C19462   4.047   7.555   2.730 -0.3088 -0.5435 -0.6994
  145MOL0     C19463   3.955   7.538   2.617  0.1311 -0.1196  0.0534
  145MOL0     O19464   3.964   7.398   2.575  0.1013  0.5107 -0.1564
  145MOL0     C19465   3.882   7.344   2.480 -0.1240  1.2614 -0.1707
  145MOL0     C19466   3.929   7.233   2.419 -0.1906  0.1650 -0.7255
  145MOL0     C19467   3.858   7.154   2.325  0.0180 -0.8567  0.1043
  145MOL0     C19468   3.933   7.039   2.270 -0.1474  0.3324 -0.5110
  145MOL0     C19469   3.728   7.199   2.287  0.0033 -0.0359  0.0856
  145MOL0     C19470   3.649   7.130   2.178 -0.4715  0.5815 -0.3602
  145MOL0     O19471   3.536   7.197   2.152 -0.1244  0.0438  0.2012
  145MOL0     C19472   3.445   7.147   2.055 -0.9161  0.3274  0.2047
  145MOL0     C19473   3.311   7.144   2.090  0.1774  0.2915 -0.2927
  145MOL0     C19474   3.214   7.082   2.007  0.3611 -0.1474 -0.2718
  145MOL0     C19475   3.254   7.031   1.885  0.1848 -0.3345 -0.2015
  145MOL0     O19476   3.153   6.979   1.810 -0.1942  0.2159 -0.3695
  145MOL0     C19477   3.172   6.973   1.670 -0.3993 -0.0038 -0.2574
  145MOL0     C19478   3.042   6.946   1.594 -0.4929 -0.1349  0.4471
  145MOL0     C19479   2.979   7.085   1.557 -0.4493  0.0252  0.3987
  145MOL0     C19480   2.828   7.057   1.514 -0.3256 -0.1410 -0.2749
  145MOL0     C19481   2.758   7.186   1.479  0.0002  0.1979 -0.7907
  145MOL0     C19482   2.616   7.162   1.430 -0.3826  0.3322  0.1074
  145MOL0     C19483   2.594   7.143   1.276 -0.5622  0.0494  0.3929
  145MOL0     C19484   2.446   7.119   1.236 -0.5445 -0.0867 -0.0381
  145MOL0    Cl19485   2.428   7.094   1.062  0.1124 -0.3081  0.2852
  145MOL0     C19486   3.387   7.050   1.834 -0.1598  0.0663  0.4469
  145MOL0     C19487   3.479   7.100   1.923 -0.1178 -0.6323  0.0404
  145MOL0     O19488   3.687   7.033   2.124 -0.1906  0.8120  0.0985
  145MOL0     C19489   3.680   7.318   2.348 -1.2610 -0.2746 -0.2619
  145MOL0     C19490   3.754   7.390   2.443 -1.2984 -0.5281  0.8142
  145MOL0     N19491   4.511   7.405   2.616  0.1684 -0.6127 -0.0828
  145MOL0     N19492   4.625   7.469   2.610 -0.7263 -0.7283  0.7329
  145MOL0     C19493   5.227   8.189   2.012  0.1552  0.7885  0.0819
  145MOL0     C19494   5.292   8.200   1.891 -0.3277 -0.2601  0.1788
  145MOL0     C19495   5.578   8.111   1.560  0.9312  0.7060  0.0546
  145MOL0     C19496   5.706   8.168   1.575 -0.2091 -0.0018  0.4458
  145MOL0     C19497   5.799   8.153   1.472  0.6571 -0.4962  0.3337
  145MOL0     C19498   5.766   8.093   1.349  0.1353  0.0842  0.1240
  145MOL0     O19499   5.861   8.062   1.248 -0.0971  0.2520  0.3483
  145MOL0     C19500   5.925   8.176   1.188  0.4484 -0.7199 -0.2762
  145MOL0     C19501   5.965   8.147   1.037  0.0402  0.4332 -0.3617
  145MOL0     C19502   6.021   8.269   0.965 -1.0335  0.2384  0.2935
  145MOL0     C19503   5.991   8.261   0.813 -0.6952  0.3137 -1.5222
  145MOL0     C19504   6.060   8.377   0.748 -0.1565 -0.6871  0.2658
  145MOL0     C19505   6.107   8.466   0.681 -0.0816 -0.6542  0.0869
  145MOL0     C19506   5.639   8.051   1.329 -0.1047  1.3012 -0.5452
  145MOL0     C19507   5.546   8.043   1.435  0.0412  0.3068 -0.1530
  145MOL0     H19508   5.606   8.210   2.007  0.9665 -3.5710 -2.5353
  145MOL0     H19509   5.496   8.190   2.218  1.7545  0.8614 -1.1309
  145MOL0     H19510   5.330   8.079   2.381  2.4902  0.7646  3.3604
  145MOL0     H19511   5.336   8.255   2.400  1.6262 -0.4696 -0.7854
  145MOL0     H19512   5.205   8.154   2.576  0.1711 -0.4676 -0.5492
  145MOL0     H19513   5.122   8.279   2.485 -1.6223  0.4857 -2.6485
  145MOL0     H19514   5.023   8.044   2.358  0.5981  2.2462 -0.7413
  145MOL0     H19515   5.087   7.973   2.501 -2.5388 -0.4756  2.7010
  145MOL0     H19516   4.956   8.158   2.622  0.3103  0.4190 -0.6182
  145MOL0     H19517   4.872   8.180   2.468  1.7258 -1.7634 -4.4882
  145MOL0     H19518   4.883   7.914   2.619  0.2689 -1.4573 -0.0283
  145MOL0     H19519   4.742   8.033   2.631 -0.8181 -3.3755  1.2880
  145MOL0     H19520   4.726   7.985   2.367  1.5761  0.9884 -0.3214
  145MOL0     H19521   4.849   7.875   2.380 -3.0901 -3.3135 -1.9712
  145MOL0     H19522   4.577   7.869   2.512  0.5723  2.4346 -0.3785
  145MOL0     H19523   4.641   7.777   2.375  1.7061  1.0136 -1.0550
  145MOL0     H19524   4.712   7.750   2.667  1.4277  1.7449 -1.2248
  145MOL0     H19525   4.800   7.649   2.540 -0.0733 -1.2285  0.5993
  145MOL0     H19526   4.420   7.721   2.630  0.2916  0.9970 -3.4785
  145MOL0     H19527   4.212   7.420   2.540  1.3894  2.7929 -1.7801
  145MOL0     H19528   4.262   7.370   2.692 -2.7238  0.2975 -0.0262
  145MOL0     H19529   4.194   7.666   2.616  2.9910 -0.6567 -0.9437
  145MOL0     H19530   4.243   7.622   2.773 -0.7971 -1.8081  0.3966
  145MOL0     H19531   4.008   7.648   2.772  1.1917  0.3982 -1.3218
  145MOL0     H19532   4.047   7.480   2.809  1.9056  0.0787 -0.0281
  145MOL0     H19533   3.981   7.604   2.534  0.6472  0.7546  0.8909
  145MOL0     H19534   3.856   7.571   2.650 -0.8937 -2.1222 -0.8328
  145MOL0     H19535   4.026   7.193   2.446 -0.8502  1.1591  3.8835
  145MOL0     H19536   4.041   7.056   2.272 -0.2175  0.8884 -1.2271
  145MOL0     H19537   3.928   6.945   2.326  1.2304 -0.1991 -1.2487
  145MOL0     H19538   3.927   7.027   2.161  1.9067 -2.2397 -0.4297
  145MOL0     H19539   3.268   7.163   2.187  1.4783 -0.5283  0.4715
  145MOL0     H19540   3.110   7.063   2.033  0.5069 -0.2648  0.2372
  145MOL0     H19541   3.215   7.058   1.618  3.3502 -2.2884 -1.2868
  145MOL0     H19542   3.237   6.886   1.657 -1.3298 -0.8259  0.3623
  145MOL0     H19543   3.068   6.893   1.503 -1.6960  0.3416 -0.1922
  145MOL0     H19544   2.979   6.890   1.664 -1.9311  0.3385 -0.4220
  145MOL0     H19545   3.040   7.131   1.479 -0.5834 -0.4988 -0.0183
  145MOL0     H19546   2.978   7.154   1.642  0.4540  0.7285 -0.1435
  145MOL0     H19547   2.849   6.977   1.442  1.1183 -2.7967  2.8426
  145MOL0     H19548   2.772   6.995   1.584  0.2819 -0.7331 -0.3025
  145MOL0     H19549   2.812   7.242   1.402 -1.8603  4.4123  0.6581
  145MOL0     H19550   2.765   7.252   1.566  1.9589  0.4319 -1.0747
  145MOL0     H19551   2.576   7.079   1.488 -1.6882  0.9559  0.1360
  145MOL0     H19552   2.561   7.253   1.454  0.7638  0.9784  0.3839
  145MOL0     H19553   2.661   7.065   1.239  0.2300  1.6454 -1.6585
  145MOL0     H19554   2.630   7.229   1.220  2.4151  0.1256  2.1870
  145MOL0     H19555   2.385   7.207   1.259 -0.9643 -0.1911 -0.7101
  145MOL0     H19556   2.417   7.027   1.287  1.8241  0.2143  2.0009
  145MOL0     H19557   3.426   7.018   1.738  2.7376  1.7165  0.9567
  145MOL0     H19558   3.580   7.104   1.884 -0.1160 -0.7223  0.0339
  145MOL0     H19559   3.578   7.353   2.333 -1.7354 -1.0217  1.0793
  145MOL0     H19560   3.708   7.479   2.484 -2.5097 -0.7059 -0.0773
  145MOL0     H19561   5.119   8.186   2.025  0.3060 -0.3931  1.1780
  145MOL0     H19562   5.236   8.199   1.798 -0.5647  1.5277  0.2618
  145MOL0     H19563   5.738   8.210   1.670 -1.9371  1.4167  0.4505
  145MOL0     H19564   5.899   8.190   1.489  0.3737  0.0438  0.8910
  145MOL0     H19565   5.863   8.267   1.183  1.5333 -0.0064 -1.3133
  145MOL0     H19566   6.011   8.203   1.250  0.3392  0.7605 -0.7268
  145MOL0     H19567   5.879   8.116   0.977 -1.2740 -0.2817  1.7757
  145MOL0     H19568   6.042   8.069   1.044 -0.5944 -0.1108  0.8667
  145MOL0     H19569   6.128   8.278   0.990 -0.3499 -3.6940 -0.6554
  145MOL0     H19570   5.976   8.358   1.011  0.1451  1.3352 -0.6021
  145MOL0     H19571   5.884   8.272   0.798 -1.5678 -3.1004  0.8844
  145MOL0     H19572   6.030   8.165   0.778 -2.6704 -2.5543  3.0919
  145MOL0     H19573   6.143   8.538   0.610  0.9372  0.5526  1.7448
  145MOL0     H19574   5.607   7.999   1.239  1.6770 -1.2632  0.1846
  145MOL0     H19575   5.444   8.009   1.421 -1.3054  3.3319  1.2951
  146MOL0     O19576  10.915   5.805  10.565  0.1691  0.1993 -0.1127
  146MOL0     C19577  10.975   5.704  10.597 -1.0876  0.1389  0.5040
  146MOL0     O19578  10.932   5.571  10.611 -0.3456 -0.6071  0.1030
  146MOL0     C19579  10.798   5.570  10.597 -0.3032 -0.0530  0.2289
  146MOL0     C19580  10.721   5.595  10.713  0.5792 -0.6116 -0.1468
  146MOL0     C19581  10.582   5.557  10.710 -0.5562 -1.0031 -0.0281
  146MOL0     C19582  10.522   5.501  10.599  0.6337 -1.3067 -0.4890
  146MOL0     O19583  10.388   5.483  10.610  0.3924 -0.4940 -0.2142
  146MOL0     C19584  10.301   5.486  10.501  0.3421 -0.4774  0.8131
  146MOL0     C19585  10.255   5.629  10.494  0.7008  0.3595  0.5495
  146MOL0     C19586  10.170   5.668  10.621  0.9014  0.0415  1.3261
  146MOL0     C19587  10.124   5.808  10.601  1.1411 -0.9365  0.1012
  146MOL0     C19588  10.024   5.839  10.708  0.2791 -0.6908  1.0332
  146MOL0     C19589  10.033   5.994  10.750  0.7283  0.1567  0.5214
  146MOL0     C19590   9.930   6.010  10.862 -0.5578 -0.5566  0.1253
  146MOL0     C19591   9.948   6.150  10.933  0.2882 -0.1628  0.2340
  146MOL0     N19592  10.012   6.144  11.068  0.3534  0.3496 -0.5537
  146MOL0     C19593  10.126   6.073  11.101  0.2275 -0.1568  1.3637
  146MOL0     C19594  10.130   6.093  11.236  0.1242  0.2564 -1.1678
  146MOL0     C19595  10.232   6.035  11.339 -0.6738  0.0203  0.4857
  146MOL0     C19596  10.181   5.909  11.414 -0.4463  0.5884  0.8860
  146MOL0     C19597  10.151   5.786  11.320  0.6720 -0.1436 -0.5668
  146MOL0     C19598  10.023   5.792  11.236  0.8520  0.1769 -0.1204
  146MOL0     O19599   9.933   5.698  11.303  0.8355 -0.8177  0.0839
  146MOL0     C19600   9.836   5.647  11.223 -0.5289  0.3287  0.7305
  146MOL0     C19601   9.759   5.726  11.142 -0.4790 -0.0090 -0.0175
  146MOL0     C19602   9.649   5.672  11.080  0.9154 -0.0611 -0.5638
  146MOL0     C19603   9.576   5.772  10.986 -0.9673  0.4938 -0.0602
  146MOL0     C19604   9.610   5.536  11.106 -0.6613  0.3400  0.5910
  146MOL0     C19605   9.484   5.473  11.044 -0.7646 -0.6962  0.5004
  146MOL0     O19606   9.431   5.536  10.930  0.3028  0.1308  0.0191
  146MOL0     C19607   9.318   5.471  10.874 -0.3918  0.6259 -0.2197
  146MOL0     C19608   9.192   5.526  10.895  0.2308  0.3450  0.1802
  146MOL0     C19609   9.079   5.464  10.840  0.1439 -0.7004  0.5595
  146MOL0     C19610   9.098   5.353  10.750 -0.0118  0.1507  0.4749
  146MOL0     O19611   9.003   5.298  10.668  0.0938  0.6682  0.3875
  146MOL0     C19612   8.915   5.396  10.611  0.4664  0.0265  1.3553
  146MOL0     C19613   8.870   5.313  10.486 -0.4280 -0.4873 -0.2225
  146MOL0     C19614   8.805   5.179  10.533  0.3116  0.2619 -0.0703
  146MOL0     C19615   8.699   5.125  10.431 -0.1987  0.4059 -0.2654
  146MOL0     C19616   8.572   5.211  10.422 -0.3237  0.4625  0.1521
  146MOL0     C19617   8.492   5.230  10.560  0.4433  0.1238 -1.1926
  146MOL0     C19618   8.367   5.317  10.539  0.0679 -0.8005  0.3889
  146MOL0     C19619   8.246   5.247  10.464 -0.3277 -0.7897  0.8872
  146MOL0    Cl19620   8.101   5.332  10.521 -0.0042 -0.2696  0.3245
  146MOL0     C19621   9.227   5.301  10.729 -0.1287 -0.2683  0.0903
  146MOL0     C19622   9.336   5.350  10.806  0.5804  0.2506  0.6169
  146MOL0     O19623   9.444   5.369  11.093  0.9363  0.0371  0.2405
  146MOL0     C19624   9.682   5.460  11.192 -0.3146 -0.1633 -0.7240
  146MOL0     C19625   9.795   5.517  11.250 -0.0445  0.2196 -0.4076
  146MOL0     N19626  10.025   6.166  11.283  1.4816  0.0268  0.8964
  146MOL0     N19627   9.952   6.196  11.180  0.2173 -0.2160  0.1999
  146MOL0     C19628  10.598   5.498  10.476  0.6840 -0.0486  0.1436
  146MOL0     C19629  10.736   5.525  10.480  1.3937  0.1810 -0.0586
  146MOL0     C19630  11.114   5.730  10.636 -0.7438 -0.0531  0.2782
  146MOL0     C19631  11.181   5.659  10.738 -0.0486 -0.2371 -0.1902
  146MOL0     C19632  11.319   5.674  10.760 -1.1370  0.2600  0.2698
  146MOL0     C19633  11.402   5.755  10.682 -0.4114 -0.4556  0.5842
  146MOL0     O19634  11.542   5.763  10.704  0.3932  0.2473 -0.4545
  146MOL0     C19635  11.622   5.864  10.648 -0.8995 -0.3534  1.0233
  146MOL0     C19636  11.778   5.842  10.661  0.5460 -0.8045 -0.3105
  146MOL0     C19637  11.827   5.902  10.802 -0.6377 -0.0967 -0.3744
  146MOL0     C19638  11.977   5.904  10.804 -0.5380  0.3230 -0.2698
  146MOL0     C19639  12.031   5.928  10.938  0.1316 -0.2772 -0.6366
  146MOL0     C19640  12.088   5.937  11.047 -0.4193  0.4548 -0.3278
  146MOL0     C19641  11.328   5.826  10.583  0.0138 -0.6040 -0.9362
  146MOL0     C19642  11.191   5.819  10.564  0.7718 -0.3650 -0.2450
  146MOL0     H19643  10.774   5.642  10.796 -0.2890  2.0773 -1.0092
  146MOL0     H19644  10.521   5.560  10.799 -3.0909  0.1637 -1.6816
  146MOL0     H19645  10.350   5.459  10.407 -0.3201  0.0471  0.3136
  146MOL0     H19646  10.221   5.415  10.522 -0.6939  0.7333  1.0380
  146MOL0     H19647  10.347   5.689  10.493  1.6798 -1.0080  2.1233
  146MOL0     H19648  10.197   5.641  10.403  0.6753 -2.0263  0.2037
  146MOL0     H19649  10.089   5.596  10.637  1.6027 -1.6624 -2.0325
  146MOL0     H19650  10.246   5.674  10.700  2.4736  3.0662 -0.2406
  146MOL0     H19651  10.206   5.879  10.598  0.5221 -0.1970  0.4339
  146MOL0     H19652  10.075   5.835  10.507  5.0213  0.2475 -1.7509
  146MOL0     H19653   9.926   5.806  10.673 -0.2909  1.0675  0.8635
  146MOL0     H19654  10.059   5.784  10.796  2.2658 -0.3264  0.5233
  146MOL0     H19655  10.133   6.024  10.781  0.8882  2.2887 -1.7785
  146MOL0     H19656  10.002   6.060  10.668  0.2804  0.0543  0.6051
  146MOL0     H19657   9.830   6.004  10.817 -0.4843  0.1946 -0.1529
  146MOL0     H19658   9.936   5.929  10.936 -2.1359  0.2700  1.2287
  146MOL0     H19659   9.849   6.196  10.948  1.3799  2.2506  0.4678
  146MOL0     H19660  10.005   6.208  10.861  1.0814 -1.2940 -0.0654
  146MOL0     H19661  10.194   6.017  11.038 -1.3881  1.2083 -1.8105
  146MOL0     H19662  10.323   6.005  11.288 -0.5198 -0.4731  1.0394
  146MOL0     H19663  10.255   6.112  11.414  2.8686 -2.2851  2.0368
  146MOL0     H19664  10.091   5.943  11.465  0.6738  0.7810  2.8262
  146MOL0     H19665  10.255   5.875  11.487  0.0836  1.3371  0.7198
  146MOL0     H19666  10.150   5.700  11.387 -2.1638 -0.5249 -0.9362
  146MOL0     H19667  10.238   5.771  11.257  3.9835 -1.6013  3.8467
  146MOL0     H19668  10.036   5.755  11.134 -0.9958 -3.2554  0.6979
  146MOL0     H19669   9.979   5.890  11.217  1.6563  0.8780  1.4280
  146MOL0     H19670   9.800   5.826  11.132  3.4417 -1.4493 -0.3153
  146MOL0     H19671   9.612   5.874  10.999 -2.0389  0.8346  0.3444
  146MOL0     H19672   9.594   5.739  10.883  0.6182  1.1689 -0.0329
  146MOL0     H19673   9.470   5.762  11.009 -1.0889 -0.4306 -0.9413
  146MOL0     H19674   9.194   5.616  10.955  0.7434  0.0808  0.5700
  146MOL0     H19675   8.977   5.498  10.855 -0.6834 -0.9808 -3.2563
  146MOL0     H19676   8.824   5.400  10.673 -0.4509  1.8737 -0.0041
  146MOL0     H19677   8.967   5.487  10.581  1.0230 -0.3372  1.2105
  146MOL0     H19678   8.805   5.376  10.425 -0.1444 -0.5769 -0.6241
  146MOL0     H19679   8.952   5.286  10.418 -0.8803 -1.3747 -0.4346
  146MOL0     H19680   8.766   5.184  10.635  0.2138 -3.2850  0.1753
  146MOL0     H19681   8.886   5.107  10.549  1.4472  0.9442 -2.2956
  146MOL0     H19682   8.739   5.108  10.330 -1.3695  1.0224 -0.8641
  146MOL0     H19683   8.666   5.025  10.461  0.9571  0.9907  3.4297
  146MOL0     H19684   8.507   5.166  10.347 -2.8700 -0.7226  2.8368
  146MOL0     H19685   8.603   5.310  10.387  0.5208  0.4747  0.9040
  146MOL0     H19686   8.457   5.132  10.591  0.8048  1.0655  2.7216
  146MOL0     H19687   8.547   5.269  10.646  1.9297 -1.4001 -1.3819
  146MOL0     H19688   8.398   5.408  10.487  5.2695 -2.6713 -0.3983
  146MOL0     H19689   8.327   5.347  10.636 -0.9665  0.1432 -0.3059
  146MOL0     H19690   8.258   5.142  10.495  2.4080 -1.0065 -0.6506
  146MOL0     H19691   8.249   5.260  10.356  3.0769 -1.6677  0.7704
  146MOL0     H19692   9.221   5.210  10.671 -2.8213 -1.2780  1.7603
  146MOL0     H19693   9.433   5.300  10.807  1.7256  2.2498  3.4950
  146MOL0     H19694   9.667   5.356  11.220  1.8771 -0.8575 -1.8960
  146MOL0     H19695   9.864   5.457  11.308 -0.2904  0.4637  0.1390
  146MOL0     H19696  10.562   5.470  10.377 -0.8024  0.6418  0.4627
  146MOL0     H19697  10.785   5.517  10.384  2.7343 -1.7560  0.7362
  146MOL0     H19698  11.122   5.592  10.800 -2.6072  1.8427 -0.1998
  146MOL0     H19699  11.372   5.611  10.832  1.6245  0.2762 -1.6079
  146MOL0     H19700  11.596   5.876  10.542 -1.3047 -0.8528  1.0638
  146MOL0     H19701  11.591   5.964  10.682 -1.9585 -0.6505  0.9838
  146MOL0     H19702  11.831   5.896  10.583 -0.8574  0.7814 -0.2180
  146MOL0     H19703  11.784   5.732  10.662 -1.1692 -0.9294 -0.3363
  146MOL0     H19704  11.785   5.834  10.876 -1.0860 -1.1027 -1.5157
  146MOL0     H19705  11.788   6.004  10.813 -0.9531  0.5700 -5.2100
  146MOL0     H19706  12.022   5.975  10.734 -0.1707  1.1141  0.7387
  146MOL0     H19707  12.013   5.804  10.778 -0.9489 -0.0495  0.5620
  146MOL0     H19708  12.141   5.914  11.137 -1.7309  2.4063  1.0177
  146MOL0     H19709  11.377   5.900  10.520 -1.8856  0.3992 -1.3073
  146MOL0     H19710  11.151   5.885  10.488 -2.1261 -0.8054  0.7544
  147MOL0     O19711   7.230   9.104   0.225 -0.3973  0.4020  0.1783
  147MOL0     C19712   7.256   9.222   0.221  0.0632  0.7340 -0.0433
  147MOL0     O19713   7.162   9.317   0.210 -0.0255 -0.1779 -0.2517
  147MOL0     C19714   7.025   9.296   0.202  1.0676 -0.3154  0.2460
  147MOL0     C19715   6.967   9.182   0.133  0.1067 -0.1329  0.0915
  147MOL0     C19716   6.831   9.174   0.103 -0.3375  0.9854  0.0183
  147MOL0     C19717   6.742   9.276   0.140 -1.0843 -1.0174  0.2970
  147MOL0     O19718   6.605   9.283   0.112 -0.2629 -0.3764  0.3629
  147MOL0     C19719   6.525   9.171   0.137  0.5566  1.0087  0.1517
  147MOL0     C19720   6.386   9.212   0.096  0.4476  0.2764 -1.0319
  147MOL0     C19721   6.280   9.126   0.156  0.7117  0.2080 -0.2566
  147MOL0     C19722   6.147   9.192   0.131 -0.7670 -0.4296 -0.1409
  147MOL0     C19723   6.030   9.098   0.135 -0.1893  0.9807 -0.2797
  147MOL0     C19724   5.910   9.178   0.100  1.0097  0.3160  0.0990
  147MOL0     C19725   5.790   9.080   0.117 -0.0504  0.2909  0.4743
  147MOL0     C19726   5.655   9.155   0.118  0.0214  0.5175  0.1049
  147MOL0     N19727   5.546   9.054   0.138 -1.2430  0.2273 -0.3168
  147MOL0     C19728   5.529   8.946   0.044  0.4222 -1.2599 -0.8936
  147MOL0     C19729   5.418   8.878   0.095 -0.3311  0.1223  0.1699
  147MOL0     C19730   5.346   8.767   0.022  0.6097 -0.3337 -0.7246
  147MOL0     C19731   5.349   8.778  -0.131  0.3909  0.1117  0.4874
  147MOL0     C19732   5.211   8.825  -0.194  0.0721 -0.5378 -0.0443
  147MOL0     C19733   5.167   8.959  -0.146 -0.4700 -1.0022  0.7028
  147MOL0     O19734   5.033   8.987  -0.183 -0.2469  0.7252  0.5836
  147MOL0     C19735   5.017   9.096  -0.265  0.4511  0.5106  0.0496
  147MOL0     C19736   5.083   9.110  -0.381  0.1154  0.3104  0.7182
  147MOL0     C19737   5.054   9.211  -0.466 -0.1842  0.0950  0.9926
  147MOL0     C19738   5.148   9.219  -0.577 -0.6580 -0.3902 -0.1141
  147MOL0     C19739   4.965   9.320  -0.433 -0.6378  0.2814  0.3514
  147MOL0     C19740   4.921   9.435  -0.516  0.4819 -0.1348  0.3379
  147MOL0     O19741   4.917   9.557  -0.468 -0.0655  0.0136 -0.1309
  147MOL0     C19742   4.847   9.648  -0.536  0.9342 -0.8833  0.7956
  147MOL0     C19743   4.900   9.771  -0.576  0.5542  0.3334 -0.2799
  147MOL0     C19744   4.836   9.866  -0.650 -0.1704 -0.1469  0.0567
  147MOL0     C19745   4.708   9.838  -0.690 -0.0684 -0.3840  0.2273
  147MOL0     O19746   4.647   9.943  -0.750  0.0572 -0.3138 -0.5296
  147MOL0     C19747   4.535   9.923  -0.835  0.0688 -0.3719 -1.0699
  147MOL0     C19748   4.538   9.995  -0.971  0.2557  0.2994  0.0851
  147MOL0     C19749   4.419   9.944  -1.051 -0.7227  0.4258 -0.0236
  147MOL0     C19750   4.477   9.875  -1.173  0.2295  0.4096  0.8426
  147MOL0     C19751   4.357   9.846  -1.273  0.7611 -0.4718  0.3000
  147MOL0     C19752   4.280   9.970  -1.321 -1.7646 -0.4048 -1.1937
  147MOL0     C19753   4.183   9.946  -1.449  0.7022 -0.1043  0.3915
  147MOL0     C19754   4.140  10.079  -1.505  0.3456  0.7559 -0.5409
  147MOL0    Cl19755   3.995  10.151  -1.419  0.0790  0.0183  0.1433
  147MOL0     C19756   4.647   9.718  -0.649  0.0867 -0.0468  0.3041
  147MOL0     C19757   4.717   9.620  -0.584  0.8167  0.0153  0.2076
  147MOL0     O19758   4.890   9.409  -0.633  0.5664 -0.1298  0.3454
  147MOL0     C19759   4.901   9.302  -0.305 -0.3699 -0.9622  0.0837
  147MOL0     C19760   4.926   9.196  -0.228  0.2660  0.9025 -0.0495
  147MOL0     N19761   5.379   8.943   0.212  1.3876 -0.8563 -0.0835
  147MOL0     N19762   5.455   9.047   0.232 -0.3660 -0.3526 -0.0079
  147MOL0     C19763   6.798   9.393   0.202  0.1756 -0.2202  1.0529
  147MOL0     C19764   6.934   9.404   0.240 -0.3708 -0.1827 -0.3185
  147MOL0     C19765   7.402   9.250   0.228 -0.5287 -0.5447 -0.3539
  147MOL0     C19766   7.500   9.157   0.192  0.3943  0.8593 -0.2650
  147MOL0     C19767   7.633   9.188   0.198  0.6960  0.3928 -0.3360
  147MOL0     C19768   7.679   9.315   0.235  0.6030 -0.5953 -0.7899
  147MOL0     O19769   7.812   9.349   0.248 -0.7231 -0.4477  0.0840
  147MOL0     C19770   7.906   9.236   0.245  0.2956 -0.6689 -0.1285
  147MOL0     C19771   8.044   9.287   0.286 -0.7098  0.5332 -0.0267
  147MOL0     C19772   8.139   9.181   0.220 -0.2798  0.2841 -0.2929
  147MOL0     C19773   8.261   9.173   0.319  0.1619  0.2228  0.7221
  147MOL0     C19774   8.388   9.136   0.257 -0.8988 -0.4399 -0.1054
  147MOL0     C19775   8.497   9.109   0.211 -0.2629 -1.0171 -0.1456
  147MOL0     C19776   7.585   9.410   0.271 -0.1930  0.4822  0.5634
  147MOL0     C19777   7.448   9.374   0.275  1.0295  0.1587  0.5588
  147MOL0     H19778   7.032   9.100   0.101  0.3948 -0.2774  1.0107
  147MOL0     H19779   6.791   9.090   0.048 -0.4621  0.6244  0.6504
  147MOL0     H19780   6.560   9.081   0.086  1.6883  0.5856  1.6253
  147MOL0     H19781   6.517   9.148   0.243  0.4228 -1.1974 -0.2806
  147MOL0     H19782   6.376   9.318   0.119 -0.1220  0.1814 -0.8231
  147MOL0     H19783   6.373   9.199  -0.012 -0.2348 -1.8676 -0.7301
  147MOL0     H19784   6.291   9.027   0.110  0.6138 -0.0534  0.2780
  147MOL0     H19785   6.293   9.104   0.262  0.0900 -0.9359 -0.4017
  147MOL0     H19786   6.133   9.279   0.195 -0.0560  1.1379 -2.0051
  147MOL0     H19787   6.150   9.231   0.028  2.5367 -1.4927 -0.5996
  147MOL0     H19788   6.038   9.016   0.063 -3.0552 -0.5286  0.9694
  147MOL0     H19789   6.014   9.066   0.238 -0.0252  1.2943 -0.1561
  147MOL0     H19790   5.899   9.261   0.170  2.2287  1.2456 -0.7782
  147MOL0     H19791   5.915   9.220  -0.001  1.4702  5.8605  2.0580
  147MOL0     H19792   5.776   9.001   0.042 -1.5651  0.3860  0.6369
  147MOL0     H19793   5.802   9.029   0.213 -1.7514 -1.8943 -0.3890
  147MOL0     H19794   5.628   9.205   0.024  2.2419 -0.2748 -1.0291
  147MOL0     H19795   5.653   9.232   0.195  1.0831  3.6400 -2.7475
  147MOL0     H19796   5.584   8.936  -0.049  2.3102 -1.6869  0.2185
  147MOL0     H19797   5.388   8.671   0.056 -0.9669 -0.7577  0.1146
  147MOL0     H19798   5.244   8.763   0.061  0.5772  0.8392 -0.6524
  147MOL0     H19799   5.366   8.681  -0.179 -0.0709 -0.0385  0.6170
  147MOL0     H19800   5.431   8.840  -0.169  0.2986  0.5974  1.0713
  147MOL0     H19801   5.131   8.756  -0.166  0.9754 -0.5509  2.8278
  147MOL0     H19802   5.220   8.825  -0.303  1.1183  2.6178 -0.0562
  147MOL0     H19803   5.240   9.035  -0.174 -2.2871  0.9537  1.0614
  147MOL0     H19804   5.161   8.964  -0.037  0.8118 -0.1007  0.7618
  147MOL0     H19805   5.156   9.038  -0.417  0.5642  0.1536  1.9127
  147MOL0     H19806   5.167   9.118  -0.614  1.5553  0.2543 -0.8992
  147MOL0     H19807   5.113   9.283  -0.659  1.1663  0.4817 -0.2640
  147MOL0     H19808   5.246   9.258  -0.550 -0.5028 -0.8955  0.0610
  147MOL0     H19809   4.999   9.798  -0.540  1.8117 -1.6375 -2.0342
  147MOL0     H19810   4.886   9.955  -0.687 -0.1455 -1.2752 -2.8277
  147MOL0     H19811   4.527   9.818  -0.866 -1.0805 -0.6763  0.1777
  147MOL0     H19812   4.439   9.952  -0.792  0.5865  0.8635 -0.7253
  147MOL0     H19813   4.531  10.104  -0.957 -0.2554  0.0725  1.7945
  147MOL0     H19814   4.635   9.968  -1.013  0.2651  0.7312 -0.1879
  147MOL0     H19815   4.362  10.033  -1.079 -0.0649  1.1597  0.9059
  147MOL0     H19816   4.358   9.870  -0.999  0.1686 -0.9095 -0.8196
  147MOL0     H19817   4.546   9.943  -1.224  1.0544  0.3792  1.8780
  147MOL0     H19818   4.532   9.782  -1.158  2.3384  1.1735 -1.4508
  147MOL0     H19819   4.285   9.775  -1.231  0.8089 -0.1903  0.8695
  147MOL0     H19820   4.394   9.787  -1.357  2.7728 -1.1294  1.5893
  147MOL0     H19821   4.221  10.010  -1.238 -0.9967 -1.8004  0.0584
  147MOL0     H19822   4.354  10.046  -1.349 -2.0998  1.1132  1.6152
  147MOL0     H19823   4.107   9.879  -1.409  0.4868 -1.6641 -2.3682
  147MOL0     H19824   4.234   9.899  -1.534  1.1110  0.1951  0.4660
  147MOL0     H19825   4.117  10.067  -1.611 -1.7070  1.1268 -0.1919
  147MOL0     H19826   4.222  10.151  -1.515 -1.6679  2.9335 -3.1503
  147MOL0     H19827   4.550   9.679  -0.680  0.2175 -1.1852  1.2545
  147MOL0     H19828   4.668   9.526  -0.561  0.3602  0.1275 -0.2851
  147MOL0     H19829   4.826   9.374  -0.273 -0.0633 -0.6627  0.1464
  147MOL0     H19830   4.872   9.178  -0.136 -0.8224 -1.7522 -1.1381
  147MOL0     H19831   6.738   9.481   0.223 -1.3545 -1.3386  1.5523
  147MOL0     H19832   6.976   9.488   0.294  1.0029 -0.6461 -0.6401
  147MOL0     H19833   7.467   9.061   0.155  2.5499 -0.1263  0.2416
  147MOL0     H19834   7.700   9.103   0.186  0.0873  0.0085 -1.1656
  147MOL0     H19835   7.897   9.167   0.329  3.2338  0.8347  1.5970
  147MOL0     H19836   7.912   9.174   0.156  2.4581 -0.4825 -0.1588
  147MOL0     H19837   8.049   9.299   0.395 -0.0677 -0.2450  0.0340
  147MOL0     H19838   8.060   9.385   0.238  1.6256 -0.3723 -1.2643
  147MOL0     H19839   8.173   9.224   0.126  1.3735 -0.5986 -0.1425
  147MOL0     H19840   8.098   9.081   0.208 -1.3282  0.2060  2.9238
  147MOL0     H19841   8.233   9.103   0.398 -1.2530  0.0213  0.0750
  147MOL0     H19842   8.277   9.269   0.370  0.0688  0.0476  1.0829
  147MOL0     H19843   8.596   9.080   0.185 -0.0652 -0.8056  0.3462
  147MOL0     H19844   7.625   9.508   0.294 -0.4004  0.9915 -1.1194
  147MOL0     H19845   7.379   9.450   0.311  0.6927  0.7510 -1.2503
  148MOL0     O19846   2.420   8.192   6.057  0.0484 -0.0418 -0.2697
  148MOL0     C19847   2.473   8.116   6.138  1.4142 -0.4905  0.5117
  148MOL0     O19848   2.408   8.027   6.227  0.0586 -0.3064  0.4710
  148MOL0     C19849   2.274   8.046   6.257 -0.4564 -0.3773 -0.9775
  148MOL0     C19850   2.230   8.182   6.263 -0.4357 -0.6021 -0.4641
  148MOL0     C19851   2.090   8.204   6.285  0.2901  0.4093 -0.1715
  148MOL0     C19852   1.994   8.096   6.292  0.8060 -0.9350 -1.0256
  148MOL0     O19853   1.863   8.125   6.310  0.4942 -0.0270 -0.2977
  148MOL0     C19854   1.759   8.067   6.232 -0.1939  0.0064 -0.4218
  148MOL0     C19855   1.661   7.993   6.325  0.1203  0.2521 -0.4255
  148MOL0     C19856   1.546   7.928   6.243 -1.0836  0.4721 -0.0162
  148MOL0     C19857   1.456   7.842   6.342  0.1298  0.3055 -0.8674
  148MOL0     C19858   1.341   7.786   6.263  0.8002  0.7633  0.4476
  148MOL0     C19859   1.238   7.894   6.220  0.0305  0.8272  0.3139
  148MOL0     C19860   1.114   7.811   6.166  0.4137 -0.0199 -0.5519
  148MOL0     C19861   0.997   7.914   6.140 -0.5663  0.4239 -0.2387
  148MOL0     N19862   0.908   7.882   6.020 -0.4757 -0.1601  0.1672
  148MOL0     C19863   0.845   7.763   6.000  0.0629  0.2224 -0.3246
  148MOL0     C19864   0.759   7.784   5.895 -0.2005 -0.0927 -0.2108
  148MOL0     C19865   0.678   7.681   5.819 -0.2385  0.3176  1.0199
  148MOL0     C19866   0.533   7.660   5.863 -0.6333 -0.4711 -0.1124
  148MOL0     C19867   0.445   7.770   5.801  0.4322 -0.5006  0.6344
  148MOL0     C19868   0.295   7.735   5.809  0.3930  0.8579  0.3711
  148MOL0     O19869   0.228   7.829   5.725 -0.3901  0.0303  0.9568
  148MOL0     C19870   0.092   7.827   5.725 -0.0400  0.3444  0.4074
  148MOL0     C19871   0.010   7.791   5.825  0.0379 -0.5795  0.6913
  148MOL0     C19872  -0.132   7.798   5.809 -1.0684  0.3092  0.5392
  148MOL0     C19873  -0.217   7.751   5.929 -0.0680  0.7858 -0.2506
  148MOL0     C19874  -0.188   7.848   5.685 -1.0108  0.5905 -1.0963
  148MOL0     C19875  -0.335   7.869   5.660  0.6694 -0.5726  0.8464
  148MOL0     O19876  -0.379   7.943   5.558 -0.1271  0.2622  0.7559
  148MOL0     C19877  -0.510   7.943   5.532  0.2411 -0.3156 -0.6502
  148MOL0     C19878  -0.582   7.823   5.508 -0.2632 -0.3119  1.3330
  148MOL0     C19879  -0.715   7.834   5.465  0.3113  0.9028 -0.1898
  148MOL0     C19880  -0.774   7.962   5.459 -0.7489  0.6967 -0.6924
  148MOL0     O19881  -0.900   7.991   5.423 -0.0413 -0.1291 -0.2732
  148MOL0     C19882  -0.997   7.886   5.440  0.7654 -0.4279 -0.0110
  148MOL0     C19883  -1.136   7.946   5.411  0.2013 -0.3511  0.2166
  148MOL0     C19884  -1.237   7.834   5.403 -0.5353 -0.4230  0.2302
  148MOL0     C19885  -1.375   7.903   5.414  0.7929 -0.2296  0.8664
  148MOL0     C19886  -1.488   7.812   5.447 -0.1442  0.0030  0.6265
  148MOL0     C19887  -1.490   7.676   5.369 -0.0021 -0.4734  0.1666
  148MOL0     C19888  -1.595   7.577   5.418  0.1140 -0.8848 -0.3530
  148MOL0     C19889  -1.612   7.463   5.323 -0.0785 -0.0668 -0.1695
  148MOL0    Cl19890  -1.761   7.364   5.361 -0.3175 -0.3264  0.0056
  148MOL0     C19891  -0.694   8.080   5.480  0.0618 -0.4060 -0.0627
  148MOL0     C19892  -0.560   8.067   5.506 -0.0067 -0.3038  0.0564
  148MOL0     O19893  -0.413   7.819   5.742 -0.0965 -0.2393 -0.8133
  148MOL0     C19894  -0.093   7.886   5.588 -0.5056 -0.2016  0.0511
  148MOL0     C19895   0.043   7.882   5.610  0.5585 -0.1798 -0.5335
  148MOL0     N19896   0.772   7.914   5.861 -0.7141 -0.0863 -0.5687
  148MOL0     N19897   0.875   7.972   5.923  0.5558 -0.1120  0.7911
  148MOL0     C19898   2.044   7.970   6.300 -0.0828 -0.1096  0.4494
  148MOL0     C19899   2.182   7.946   6.283 -0.0160 -0.0150  0.7117
  148MOL0     C19900   2.626   8.136   6.150  0.5017 -0.2763 -0.3101
  148MOL0     C19901   2.682   8.081   6.273  0.6257  0.0864  0.1284
  148MOL0     C19902   2.819   8.094   6.292 -0.5703 -0.4036  0.9608
  148MOL0     C19903   2.906   8.165   6.203 -0.3685  0.9877 -0.5724
  148MOL0     O19904   3.044   8.174   6.213  0.0552  0.0595  0.3591
  148MOL0     C19905   3.120   8.105   6.312  0.4108 -0.2349 -0.1986
  148MOL0     C19906   3.267   8.146   6.286 -0.6288  0.4257 -0.3028
  148MOL0     C19907   3.364   8.082   6.387 -0.6693 -0.1847  0.9539
  148MOL0     C19908   3.514   8.105   6.347 -0.4931  0.5739  0.2532
  148MOL0     C19909   3.558   8.242   6.378 -0.4958  0.5149  0.3103
  148MOL0     C19910   3.595   8.349   6.402  0.2370 -0.5346  0.2568
  148MOL0     C19911   2.846   8.224   6.096 -0.5689 -0.2749  1.0293
  148MOL0     C19912   2.709   8.212   6.069 -0.7010 -0.8498  1.1652
  148MOL0     H19913   2.288   8.273   6.253 -0.0128 -0.5574  1.9289
  148MOL0     H19914   2.063   8.309   6.300  2.4810  0.9433  0.3800
  148MOL0     H19915   1.702   8.147   6.183 -1.9561 -0.1495  1.2598
  148MOL0     H19916   1.793   7.997   6.155  1.1941 -1.4070  1.3915
  148MOL0     H19917   1.713   7.923   6.390 -1.6505  3.2162  4.7753
  148MOL0     H19918   1.610   8.063   6.391 -1.5406 -0.1251 -1.2473
  148MOL0     H19919   1.490   8.007   6.192  1.5851  0.8458 -2.6384
  148MOL0     H19920   1.586   7.863   6.165 -0.4294  1.8455 -0.8640
  148MOL0     H19921   1.515   7.757   6.378 -0.3980 -0.0159 -0.7564
  148MOL0     H19922   1.419   7.898   6.428 -1.2597 -2.5167  0.5089
  148MOL0     H19923   1.383   7.737   6.175  2.7962  0.6335  1.4090
  148MOL0     H19924   1.289   7.714   6.327  3.9721 -1.7035  0.4806
  148MOL0     H19925   1.206   7.949   6.309 -0.2202  1.7389 -0.3234
  148MOL0     H19926   1.283   7.960   6.146  0.6322 -0.0480 -0.1219
  148MOL0     H19927   1.145   7.763   6.072  0.8430 -0.2634 -0.2883
  148MOL0     H19928   1.086   7.734   6.238  0.9563  0.1269 -0.1813
  148MOL0     H19929   1.043   8.012   6.134 -2.6309  1.4240 -0.6017
  148MOL0     H19930   0.932   7.923   6.227 -2.4386  0.0740 -1.5364
  148MOL0     H19931   0.861   7.669   6.051 -2.2452 -0.1558 -0.2012
  148MOL0     H19932   0.698   7.707   5.715  4.1517  0.2829  1.6860
  148MOL0     H19933   0.731   7.587   5.836  1.2712  1.1581  1.1309
  148MOL0     H19934   0.526   7.655   5.972 -2.3832 -2.9365 -0.2493
  148MOL0     H19935   0.496   7.566   5.821 -1.0079  0.1572 -1.2478
  148MOL0     H19936   0.474   7.788   5.697 -2.4363 -1.1230 -0.3736
  148MOL0     H19937   0.455   7.866   5.852 -0.6597 -0.1756  0.2766
  148MOL0     H19938   0.266   7.743   5.915  1.8382 -1.0355  0.9530
  148MOL0     H19939   0.274   7.635   5.772 -1.4692  1.5860 -0.6855
  148MOL0     H19940   0.058   7.744   5.910 -1.0472  0.1270  1.7315
  148MOL0     H19941  -0.274   7.664   5.895 -0.0983  0.1453  1.3518
  148MOL0     H19942  -0.153   7.724   6.014  0.1909  0.3213 -0.5905
  148MOL0     H19943  -0.295   7.817   5.968 -0.3500  1.4957 -1.9425
  148MOL0     H19944  -0.540   7.722   5.512  0.2469 -0.1291  0.8054
  148MOL0     H19945  -0.768   7.746   5.432  0.7754  0.0683  1.2017
  148MOL0     H19946  -0.974   7.807   5.367  2.2836 -0.6286  0.6408
  148MOL0     H19947  -0.993   7.863   5.547 -0.5991 -0.6901 -0.0009
  148MOL0     H19948  -1.167   8.010   5.494 -2.2117 -1.5525  0.3169
  148MOL0     H19949  -1.140   8.009   5.322 -1.9455 -1.3756 -0.4648
  148MOL0     H19950  -1.227   7.777   5.495 -0.8821  1.0684  1.2301
  148MOL0     H19951  -1.221   7.761   5.323 -0.8384 -0.5504  0.2850
  148MOL0     H19952  -1.395   7.986   5.483 -2.5478 -0.5403  0.4133
  148MOL0     H19953  -1.408   7.941   5.317 -1.3284 -0.5189  1.4360
  148MOL0     H19954  -1.589   7.854   5.437 -1.2745 -2.7202 -0.4496
  148MOL0     H19955  -1.478   7.786   5.553 -0.0775  0.9128  0.8455
  148MOL0     H19956  -1.506   7.700   5.264  0.4575  0.8889  0.3793
  148MOL0     H19957  -1.391   7.629   5.379 -0.1577 -0.9227 -0.3930
  148MOL0     H19958  -1.690   7.623   5.448  0.3750 -0.8120  0.3991
  148MOL0     H19959  -1.563   7.541   5.517  1.4206  0.9085 -0.0764
  148MOL0     H19960  -1.524   7.399   5.337  1.0746  1.5512  0.2755
  148MOL0     H19961  -1.610   7.496   5.219  2.1951  1.5091  0.2847
  148MOL0     H19962  -0.746   8.176   5.482  0.1587 -0.3547  1.3435
  148MOL0     H19963  -0.496   8.154   5.518  1.9010 -1.4829 -0.9428
  148MOL0     H19964  -0.130   7.933   5.498 -0.8652 -1.5386 -0.5266
  148MOL0     H19965   0.108   7.920   5.532  1.5044 -1.5277 -0.4485
  148MOL0     H19966   1.976   7.886   6.311  1.8339 -1.8116 -0.1895
  148MOL0     H19967   2.212   7.842   6.277 -0.2272 -0.0598  0.4060
  148MOL0     H19968   2.618   8.027   6.342  1.9597 -1.0897  0.4913
  148MOL0     H19969   2.873   8.063   6.381  0.3293 -0.3783  0.4334
  148MOL0     H19970   3.090   8.126   6.416 -1.4054 -0.9724 -0.5258
  148MOL0     H19971   3.101   7.997   6.302 -1.1765 -0.0426  0.3438
  148MOL0     H19972   3.268   8.254   6.306 -1.9076  0.2385  0.9011
  148MOL0     H19973   3.289   8.122   6.182 -1.2550 -0.8244 -0.1603
  148MOL0     H19974   3.338   7.977   6.372  0.6503 -0.7372  2.2771
  148MOL0     H19975   3.344   8.110   6.491 -2.1588  3.5042 -0.1600
  148MOL0     H19976   3.526   8.096   6.238  1.6083 -0.0297  0.4759
  148MOL0     H19977   3.577   8.032   6.399  0.6347  0.3747 -1.2930
  148MOL0     H19978   3.627   8.446   6.434  1.1055  0.0655 -2.2112
  148MOL0     H19979   2.912   8.281   6.031  1.4672 -0.1433  3.0846
  148MOL0     H19980   2.670   8.259   5.979 -0.1769 -2.4731  0.0547
  149MOL0     O19981   8.944   2.662   9.701 -0.5084  0.3909 -0.0194
  149MOL0     C19982   8.970   2.553   9.754  0.5118  0.3874 -0.2353
  149MOL0     O19983   8.886   2.449   9.760  0.5760 -0.2387  0.1697
  149MOL0     C19984   8.776   2.439   9.674  1.4166 -0.3815  0.5027
  149MOL0     C19985   8.684   2.347   9.722 -0.2816  0.2401 -0.2010
  149MOL0     C19986   8.561   2.330   9.663  1.0661  0.6953 -0.2548
  149MOL0     C19987   8.536   2.396   9.544  0.8615  0.5310 -0.6728
  149MOL0     O19988   8.407   2.378   9.495  0.4443  0.5651  1.2055
  149MOL0     C19989   8.415   2.299   9.375  0.0853 -0.1439 -0.9338
  149MOL0     C19990   8.310   2.345   9.276  0.6253  0.1726  0.6413
  149MOL0     C19991   8.175   2.269   9.289  0.3371 -0.2411  0.0912
  149MOL0     C19992   8.060   2.344   9.214  0.4583  0.0707 -0.5363
  149MOL0     C19993   7.926   2.269   9.215  0.1643 -0.1812  0.6464
  149MOL0     C19994   7.805   2.350   9.157 -1.3592 -0.1885 -0.2827
  149MOL0     C19995   7.679   2.280   9.172  0.0057 -0.6898  0.0578
  149MOL0     C19996   7.565   2.370   9.111  0.0341 -0.4748  0.0134
  149MOL0     N19997   7.429   2.312   9.129  0.6287 -0.6814  0.3906
  149MOL0     C19998   7.390   2.195   9.086 -0.4352  0.1470  0.1903
  149MOL0     C19999   7.263   2.188   9.117 -1.0048 -0.8789  0.0472
  149MOL0     C20000   7.189   2.059   9.087  0.5993 -0.2396 -0.5491
  149MOL0     C20001   7.088   2.026   9.194  0.0087  0.2341  0.1974
  149MOL0     C20002   7.023   1.886   9.168  0.6541 -0.3947  0.1339
  149MOL0     C20003   6.949   1.853   9.292 -0.6810  1.0511 -0.3175
  149MOL0     O20004   6.833   1.933   9.314 -0.5720  0.0571  0.0623
  149MOL0     C20005   6.712   1.908   9.254  0.5454  0.3301  0.5157
  149MOL0     C20006   6.694   1.820   9.142 -0.3355  0.3662  0.9130
  149MOL0     C20007   6.571   1.820   9.072  0.0708  0.5689  0.1744
  149MOL0     C20008   6.548   1.727   8.962 -0.2959 -1.1054  0.3290
  149MOL0     C20009   6.463   1.901   9.123  0.5616 -0.0394  0.2542
  149MOL0     C20010   6.324   1.892   9.074  0.2364 -0.0382  0.8966
  149MOL0     O20011   6.263   1.768   9.065  0.1108  0.0825  0.1237
  149MOL0     C20012   6.135   1.754   9.025 -0.5775  0.2288 -0.0052
  149MOL0     C20013   6.113   1.659   8.918  0.0897 -0.5434 -0.3223
  149MOL0     C20014   5.983   1.613   8.898  0.3286  0.3173  0.1781
  149MOL0     C20015   5.871   1.674   8.961  0.4047  0.3541  0.0717
  149MOL0     O20016   5.746   1.657   8.933 -0.1736  0.8231 -0.1342
  149MOL0     C20017   5.709   1.545   8.853  0.0050 -0.3785 -0.3843
  149MOL0     C20018   5.557   1.538   8.867  0.1840 -0.7209 -0.5770
  149MOL0     C20019   5.502   1.666   8.803 -0.0747  0.2166 -0.7822
  149MOL0     C20020   5.361   1.661   8.778 -0.7480  0.0223  0.1233
  149MOL0     C20021   5.312   1.804   8.734 -0.1023 -0.7179  0.1025
  149MOL0     C20022   5.163   1.833   8.728 -0.6509  0.8159 -0.4459
  149MOL0     C20023   5.082   1.741   8.631  0.5177 -0.2698  0.2807
  149MOL0     C20024   4.937   1.715   8.688 -0.2503  0.7884 -0.4739
  149MOL0    Cl20025   4.852   1.871   8.717 -0.3112 -0.0525 -0.3478
  149MOL0     C20026   5.896   1.766   9.066  0.6324 -0.5422 -0.2415
  149MOL0     C20027   6.023   1.809   9.087 -0.1355  0.6868 -0.2741
  149MOL0     O20028   6.270   2.000   9.054  1.0281  0.1445 -0.5762
  149MOL0     C20029   6.485   1.982   9.235 -0.2472 -0.6996  0.8208
  149MOL0     C20030   6.605   1.991   9.293  0.1359 -0.1354 -0.0072
  149MOL0     N20031   7.223   2.306   9.180  0.5708  0.2980  0.0783
  149MOL0     N20032   7.326   2.383   9.185 -0.0905 -0.2011  0.3184
  149MOL0     C20033   8.627   2.491   9.492  0.4972  0.3768  0.0841
  149MOL0     C20034   8.750   2.513   9.549  0.4237  0.8533 -1.2619
  149MOL0     C20035   9.101   2.538   9.812 -0.2613 -0.2689 -1.7285
  149MOL0     C20036   9.171   2.658   9.852  0.4752  0.0809  0.6476
  149MOL0     C20037   9.301   2.653   9.915 -0.3685  0.5186  0.0860
  149MOL0     C20038   9.354   2.524   9.939 -0.8522  0.3672  0.2025
  149MOL0     O20039   9.487   2.522   9.988  0.1463  0.2986 -0.1210
  149MOL0     C20040   9.534   2.388  10.035  0.3793  0.0846 -0.2469
  149MOL0     C20041   9.678   2.408  10.077 -0.0767 -0.7574  0.5608
  149MOL0     C20042   9.762   2.452   9.960 -0.7180  0.0377  0.9203
  149MOL0     C20043   9.915   2.447   9.982  0.2188 -0.0093 -0.4033
  149MOL0     C20044   9.955   2.306   9.994  0.4191  0.6005  0.0612
  149MOL0     C20045   9.991   2.195  10.034 -0.0995  0.0115  0.1746
  149MOL0     C20046   9.284   2.402   9.899 -0.5998 -0.8828  0.0682
  149MOL0     C20047   9.157   2.411   9.836  0.1155  0.0686  0.3012
  149MOL0     H20048   8.715   2.291   9.810 -1.1222 -1.8237 -1.1560
  149MOL0     H20049   8.494   2.252   9.696  1.3213  1.2360  1.7307
  149MOL0     H20050   8.519   2.303   9.341  0.3001 -2.0244 -0.5825
  149MOL0     H20051   8.398   2.194   9.398 -1.0252  0.4702  1.3439
  149MOL0     H20052   8.305   2.454   9.286  2.2900  0.3299  0.1066
  149MOL0     H20053   8.352   2.319   9.178 -2.8868  0.4857 -1.1429
  149MOL0     H20054   8.191   2.170   9.244  0.5090 -0.2537  0.1814
  149MOL0     H20055   8.149   2.250   9.394 -3.3950  2.3000 -0.1891
  149MOL0     H20056   8.024   2.438   9.257 -3.4281 -1.7746  0.7059
  149MOL0     H20057   8.079   2.359   9.107 -1.4711 -2.0990 -1.2576
  149MOL0     H20058   7.933   2.172   9.166 -0.3715  0.5481 -0.9220
  149MOL0     H20059   7.899   2.261   9.321 -1.3674  2.8426  0.5964
  149MOL0     H20060   7.798   2.449   9.203 -1.9196 -0.3243 -0.0683
  149MOL0     H20061   7.819   2.370   9.050 -1.2841 -2.1869 -0.6829
  149MOL0     H20062   7.694   2.192   9.109 -1.5809  0.5305 -2.1440
  149MOL0     H20063   7.661   2.251   9.276 -0.1089 -1.8930 -0.2856
  149MOL0     H20064   7.593   2.382   9.006 -0.7139  1.5862  0.0213
  149MOL0     H20065   7.562   2.469   9.158 -0.0169 -1.4934  2.3150
  149MOL0     H20066   7.449   2.121   9.033 -1.3758  1.1169 -2.3895
  149MOL0     H20067   7.152   2.079   8.986  3.7079  3.6453 -1.1834
  149MOL0     H20068   7.261   1.977   9.080 -1.9915 -2.7145  0.2481
  149MOL0     H20069   7.009   2.101   9.191  0.4156  0.7996  2.0804
  149MOL0     H20070   7.135   2.022   9.293  2.7641 -2.1611 -1.0566
  149MOL0     H20071   7.102   1.810   9.162 -0.6748 -1.8920  0.8179
  149MOL0     H20072   6.966   1.879   9.075 -1.5484  1.9193  1.2240
  149MOL0     H20073   7.007   1.872   9.383 -1.1749  0.4380  0.1443
  149MOL0     H20074   6.919   1.748   9.285  3.1134 -0.3305  1.3000
  149MOL0     H20075   6.773   1.751   9.117  0.0866  1.0975  0.1498
  149MOL0     H20076   6.644   1.686   8.927 -0.2241 -2.6369  2.1731
  149MOL0     H20077   6.482   1.649   9.000 -0.7203 -0.3707  1.1365
  149MOL0     H20078   6.499   1.761   8.870 -2.8790 -0.4340  1.8507
  149MOL0     H20079   6.200   1.616   8.870  1.0080  2.1148 -1.2501
  149MOL0     H20080   5.972   1.539   8.820  1.4967  0.5645 -0.2371
  149MOL0     H20081   5.740   1.571   8.751  0.4085  1.0219  0.0679
  149MOL0     H20082   5.751   1.447   8.878 -1.5539 -1.2996 -1.2325
  149MOL0     H20083   5.513   1.455   8.810  0.2842 -1.1269 -0.0734
  149MOL0     H20084   5.530   1.529   8.972  2.3253  1.9903  0.3327
  149MOL0     H20085   5.552   1.685   8.707  2.5715  1.4266  0.7447
  149MOL0     H20086   5.533   1.741   8.875 -0.2630 -1.2910  0.9344
  149MOL0     H20087   5.337   1.586   8.703  0.3825 -1.2772  1.0176
  149MOL0     H20088   5.314   1.625   8.871 -0.5174 -3.1849 -0.8858
  149MOL0     H20089   5.351   1.828   8.635  0.8581 -1.5684  0.2609
  149MOL0     H20090   5.351   1.878   8.805 -1.5556  0.4171 -0.2255
  149MOL0     H20091   5.136   1.808   8.832 -0.3647  0.0522 -0.5442
  149MOL0     H20092   5.139   1.937   8.708 -0.0285  0.6374 -2.3235
  149MOL0     H20093   5.137   1.647   8.620  0.0789 -0.7837  2.1405
  149MOL0     H20094   5.083   1.795   8.536 -0.0709  1.8839  1.4327
  149MOL0     H20095   4.941   1.650   8.776 -2.3748 -3.2076 -2.9888
  149MOL0     H20096   4.884   1.658   8.611  2.3968 -0.8163 -1.2313
  149MOL0     H20097   5.816   1.793   9.134  0.5783 -1.7468  0.1977
  149MOL0     H20098   6.020   1.874   9.174 -1.2822 -0.1423  0.3247
  149MOL0     H20099   6.397   2.035   9.271 -0.6960  1.1106 -2.5487
  149MOL0     H20100   6.612   2.055   9.381 -0.2650 -0.5236  0.3139
  149MOL0     H20101   8.608   2.543   9.399 -0.7135 -3.3462 -1.9463
  149MOL0     H20102   8.823   2.582   9.509  0.1720  2.5739  1.0173
  149MOL0     H20103   9.122   2.754   9.837 -3.7985 -1.9956 -0.2552
  149MOL0     H20104   9.358   2.737   9.952  2.8702 -1.6909  0.5166
  149MOL0     H20105   9.476   2.358  10.122  0.7116  2.2998  0.8298
  149MOL0     H20106   9.521   2.316   9.954 -0.5214  1.9019 -1.8210
  149MOL0     H20107   9.719   2.311  10.107 -3.4764 -2.1619  1.1476
  149MOL0     H20108   9.680   2.476  10.163 -1.5398 -1.6659  1.3665
  149MOL0     H20109   9.739   2.555   9.931 -0.6205  0.2126  1.4457
  149MOL0     H20110   9.736   2.385   9.878  0.8817 -3.1344  2.8010
  149MOL0     H20111   9.931   2.503  10.075 -1.8820 -2.5742  1.6974
  149MOL0     H20112   9.974   2.501   9.908  0.7696  0.0723  0.0892
  149MOL0     H20113  10.016   2.097  10.069  0.2883  0.0598  0.0422
  149MOL0     H20114   9.325   2.305   9.925  0.5816 -0.2543  0.6389
  149MOL0     H20115   9.092   2.327   9.813 -2.2408  1.3567  1.8703
  150MOL0     O20116   7.626   2.760   0.798 -0.0837 -0.2297 -0.0570
  150MOL0     C20117   7.711   2.791   0.714  0.4624 -0.0661  0.6929
  150MOL0     O20118   7.692   2.807   0.578 -0.4913 -0.5962  0.5200
  150MOL0     C20119   7.572   2.774   0.523  0.1556  0.1531  1.1790
  150MOL0     C20120   7.455   2.850   0.539 -0.0129  1.1476  0.1410
  150MOL0     C20121   7.335   2.804   0.485 -0.2075 -0.5356  0.4746
  150MOL0     C20122   7.329   2.682   0.415  0.9981 -0.1647  0.6517
  150MOL0     O20123   7.210   2.642   0.348 -0.1793  0.2279  0.4774
  150MOL0     C20124   7.101   2.731   0.331  0.0859  0.7861 -0.3815
  150MOL0     C20125   7.001   2.659   0.244  0.1887 -0.6761  0.6663
  150MOL0     C20126   6.877   2.756   0.236 -0.2442  0.2211 -0.0801
  150MOL0     C20127   6.879   2.840   0.107 -0.5098  1.1292 -0.1747
  150MOL0     C20128   6.750   2.896   0.076 -0.0882  1.0360 -0.3868
  150MOL0     C20129   6.751   2.996  -0.035  0.4038 -0.7334  0.4433
  150MOL0     C20130   6.621   3.083  -0.051 -0.4188 -0.2181  0.0113
  150MOL0     C20131   6.623   3.181  -0.169  0.6010 -0.7664  0.1726
  150MOL0     N20132   6.491   3.221  -0.203  1.0428 -0.3881  0.2298
  150MOL0     C20133   6.435   3.336  -0.143 -0.1622  0.8026 -0.1884
  150MOL0     C20134   6.313   3.340  -0.190 -0.1260 -0.2694  0.1989
  150MOL0     C20135   6.211   3.440  -0.158  0.1095 -0.2489 -1.2354
  150MOL0     C20136   6.071   3.388  -0.186  0.4285 -0.0865 -0.1711
  150MOL0     C20137   5.967   3.473  -0.096  0.0487 -0.0201 -0.5846
  150MOL0     C20138   5.817   3.444  -0.126 -0.2711  0.1312  0.2491
  150MOL0     O20139   5.788   3.487  -0.259  0.3382 -0.7916  0.3355
  150MOL0     C20140   5.672   3.432  -0.308 -0.7741  0.8697  0.1702
  150MOL0     C20141   5.651   3.458  -0.442 -0.3714  0.2625  0.4948
  150MOL0     C20142   5.530   3.435  -0.517 -0.4613 -0.6405 -0.8508
  150MOL0     C20143   5.515   3.503  -0.661 -0.5852  0.8380  0.6678
  150MOL0     C20144   5.433   3.354  -0.443 -0.6247 -0.0250  0.5505
  150MOL0     C20145   5.305   3.305  -0.501  0.4241  0.2476 -0.1139
  150MOL0     O20146   5.203   3.300  -0.418  0.0060 -0.2483  0.0474
  150MOL0     C20147   5.080   3.250  -0.460 -0.9604 -0.3881 -0.1776
  150MOL0     C20148   5.038   3.182  -0.574 -0.3111  0.0143  0.5378
  150MOL0     C20149   4.910   3.128  -0.582 -0.5275  0.2776  0.1661
  150MOL0     C20150   4.826   3.152  -0.474  0.6023 -0.0102  0.1384
  150MOL0     O20151   4.696   3.110  -0.497 -0.0784  0.5089  0.0098
  150MOL0     C20152   4.599   3.165  -0.399  0.1323 -0.6726  0.7340
  150MOL0     C20153   4.459   3.132  -0.459  0.4685 -0.0234  0.4415
  150MOL0     C20154   4.350   3.198  -0.379 -0.5866  0.1414 -0.7117
  150MOL0     C20155   4.215   3.150  -0.421 -0.2814 -0.2824 -0.3477
  150MOL0     C20156   4.106   3.229  -0.343 -0.3580 -0.2302 -0.0620
  150MOL0     C20157   3.973   3.165  -0.359  0.2322  0.1034  0.3506
  150MOL0     C20158   3.859   3.258  -0.309 -0.0217  0.3708 -0.3448
  150MOL0     C20159   3.713   3.198  -0.320 -0.0310  0.2653 -0.0462
  150MOL0    Cl20160   3.649   3.190  -0.487 -0.2150 -0.2332 -0.0087
  150MOL0     C20161   4.867   3.216  -0.359  0.0399  0.4497  0.8143
  150MOL0     C20162   4.988   3.276  -0.364  0.0402 -0.4000 -0.3539
  150MOL0     O20163   5.303   3.278  -0.619  0.1472  0.6613 -0.2385
  150MOL0     C20164   5.468   3.308  -0.314  0.2627 -0.6478 -0.7893
  150MOL0     C20165   5.581   3.347  -0.240 -0.0384 -0.0371  0.2350
  150MOL0     N20166   6.297   3.233  -0.271  0.2079 -0.0491  0.5340
  150MOL0     N20167   6.404   3.164  -0.291  0.3185 -0.4333 -0.0819
  150MOL0     C20168   7.441   2.603   0.407  1.0521  0.1583  0.3232
  150MOL0     C20169   7.561   2.656   0.455 -0.0077  1.4918  0.3021
  150MOL0     C20170   7.846   2.797   0.764 -0.1176  0.6122  0.0682
  150MOL0     C20171   7.894   2.740   0.888  0.0669  0.2218 -0.3599
  150MOL0     C20172   8.031   2.725   0.921  0.3833  0.4896 -0.3825
  150MOL0     C20173   8.131   2.777   0.831 -0.3481 -0.4812 -0.2007
  150MOL0     O20174   8.259   2.767   0.873  0.6456  0.7012 -0.1810
  150MOL0     C20175   8.366   2.778   0.772 -0.0102 -0.4605 -0.2422
  150MOL0     C20176   8.506   2.774   0.831  0.1315  0.2840  0.4731
  150MOL0     C20177   8.548   2.642   0.896  0.7637  0.1726  0.0863
  150MOL0     C20178   8.667   2.648   0.994  0.5904 -0.3477 -0.7060
  150MOL0     C20179   8.707   2.510   1.028 -0.2402 -0.3378 -0.4792
  150MOL0     C20180   8.726   2.397   1.075 -0.4729  0.2537  0.1780
  150MOL0     C20181   8.091   2.835   0.711  0.5595  0.6094 -0.2700
  150MOL0     C20182   7.950   2.849   0.682  0.4445  0.6978 -0.0317
  150MOL0     H20183   7.458   2.947   0.587  1.5246  1.6445 -0.8748
  150MOL0     H20184   7.251   2.871   0.499  0.7723  0.7659  0.2768
  150MOL0     H20185   7.052   2.741   0.428 -0.3678 -2.7588 -0.1430
  150MOL0     H20186   7.121   2.825   0.277  0.5467  0.6010 -0.5331
  150MOL0     H20187   7.032   2.638   0.141  3.2821 -2.8531  1.8662
  150MOL0     H20188   6.971   2.563   0.288 -0.3283 -0.8403 -0.0282
  150MOL0     H20189   6.783   2.700   0.244 -3.0251  4.0727 -2.1131
  150MOL0     H20190   6.860   2.825   0.319 -1.6473 -2.3324  1.8998
  150MOL0     H20191   6.948   2.924   0.121  0.2955  0.7532 -1.6029
  150MOL0     H20192   6.911   2.778   0.022 -2.6413  1.2156 -1.1003
  150MOL0     H20193   6.681   2.816   0.046  2.1614 -1.2935  0.2480
  150MOL0     H20194   6.714   2.951   0.163  0.4693 -0.0122  0.5336
  150MOL0     H20195   6.829   3.070  -0.015  0.1867  0.0761 -1.5142
  150MOL0     H20196   6.768   2.948  -0.132 -0.2803  1.2013 -0.6849
  150MOL0     H20197   6.537   3.018  -0.075  1.4172 -1.9272 -2.2572
  150MOL0     H20198   6.605   3.145   0.038  0.0155 -0.2298  0.1014
  150MOL0     H20199   6.673   3.143  -0.259 -0.5412  0.2389 -0.9191
  150MOL0     H20200   6.675   3.274  -0.143  1.8960 -0.8250 -1.9738
  150MOL0     H20201   6.490   3.401  -0.077 -0.0386  0.0892  0.4293
  150MOL0     H20202   6.219   3.453  -0.050  0.8719  0.6202 -1.3754
  150MOL0     H20203   6.221   3.537  -0.208 -1.8727 -0.2979 -1.8073
  150MOL0     H20204   6.055   3.286  -0.149 -0.4302  0.6489  1.6353
  150MOL0     H20205   6.041   3.400  -0.290 -0.5226 -0.8990 -0.0061
  150MOL0     H20206   5.995   3.578  -0.111  1.6229 -0.6850 -2.7161
  150MOL0     H20207   5.983   3.460   0.012 -3.3546  1.2577  0.2127
  150MOL0     H20208   5.761   3.506  -0.056 -1.6064  0.5375 -1.1365
  150MOL0     H20209   5.801   3.337  -0.110  1.1478 -0.0586  0.5955
  150MOL0     H20210   5.720   3.510  -0.508 -0.3372  0.0681  0.3747
  150MOL0     H20211   5.549   3.430  -0.735 -1.5775 -0.4978  1.4826
  150MOL0     H20212   5.412   3.536  -0.678 -1.4906 -1.9346  0.2470
  150MOL0     H20213   5.582   3.589  -0.665  0.3149  0.1081 -1.8803
  150MOL0     H20214   5.104   3.164  -0.659  1.2045 -2.0734  2.0452
  150MOL0     H20215   4.877   3.077  -0.672  2.5131 -2.4350  0.4092
  150MOL0     H20216   4.609   3.114  -0.303  0.4116 -1.4318  0.3139
  150MOL0     H20217   4.605   3.274  -0.404  1.0446 -0.7618 -0.4745
  150MOL0     H20218   4.455   3.188  -0.553 -0.3341  0.1296  0.5578
  150MOL0     H20219   4.445   3.024  -0.475  3.1509 -0.2592 -0.9251
  150MOL0     H20220   4.354   3.307  -0.374 -1.0195  0.1324  0.0966
  150MOL0     H20221   4.369   3.173  -0.274  0.5238  0.8005 -0.7479
  150MOL0     H20222   4.187   3.157  -0.526  0.0413 -2.3526 -0.6105
  150MOL0     H20223   4.216   3.043  -0.398  2.4413 -0.8918 -2.7104
  150MOL0     H20224   4.111   3.329  -0.386 -1.0235 -1.1683 -2.4932
  150MOL0     H20225   4.135   3.233  -0.238  1.0409 -0.1719 -0.4324
  150MOL0     H20226   3.962   3.145  -0.466  1.4899  1.5835 -0.0907
  150MOL0     H20227   3.968   3.068  -0.308  2.6740 -1.5090 -2.1707
  150MOL0     H20228   3.877   3.350  -0.365  0.4871  0.1831 -0.4904
  150MOL0     H20229   3.878   3.294  -0.207  0.4263  0.7138 -0.5465
  150MOL0     H20230   3.655   3.273  -0.265  1.4422 -0.0014  2.0143
  150MOL0     H20231   3.691   3.105  -0.267  0.0257  0.8980  1.1382
  150MOL0     H20232   4.808   3.225  -0.269 -0.4168  0.5060  0.5142
  150MOL0     H20233   5.031   3.345  -0.292  1.4447 -0.8665 -0.7028
  150MOL0     H20234   5.401   3.255  -0.246 -0.6598  0.4184 -0.8352
  150MOL0     H20235   5.592   3.336  -0.133 -1.1704  1.8718  0.5972
  150MOL0     H20236   7.438   2.508   0.354 -1.1603 -0.3027  1.1842
  150MOL0     H20237   7.637   2.591   0.413 -2.7214 -1.7285 -0.1167
  150MOL0     H20238   7.819   2.707   0.959  0.4565  0.9900  0.4144
  150MOL0     H20239   8.060   2.686   1.018  0.3753  2.9929  0.7022
  150MOL0     H20240   8.357   2.706   0.690 -0.4219 -0.2641 -0.3728
  150MOL0     H20241   8.359   2.874   0.720 -1.1082 -0.2119  0.3288
  150MOL0     H20242   8.505   2.851   0.909 -0.5389 -0.6832  1.4373
  150MOL0     H20243   8.579   2.793   0.752 -2.8435 -3.1104 -3.5457
  150MOL0     H20244   8.575   2.568   0.820 -1.3500 -0.3115 -0.2690
  150MOL0     H20245   8.463   2.596   0.947 -0.1319  1.1250 -0.4948
  150MOL0     H20246   8.639   2.709   1.081  0.1066  2.9143 -2.9432
  150MOL0     H20247   8.748   2.699   0.942  0.5727  0.0019 -0.3974
  150MOL0     H20248   8.754   2.303   1.117  0.3590  0.6698  0.5786
  150MOL0     H20249   8.154   2.883   0.636 -0.6194  0.3430 -1.4637
  150MOL0     H20250   7.924   2.907   0.595 -0.6092 -1.2249 -1.0675
  151MOL0     O20251   6.600   6.618   2.992  0.6794 -0.5867 -0.5006
  151MOL0     C20252   6.554   6.546   3.077  0.3368 -0.2509 -0.0315
  151MOL0     O20253   6.422   6.519   3.093  0.1331 -0.3190 -0.1594
  151MOL0     C20254   6.328   6.528   2.995 -0.9352  0.4595  0.3042
  151MOL0     C20255   6.354   6.532   2.855 -0.8158 -0.0421  0.2084
  151MOL0     C20256   6.247   6.546   2.769  0.2362 -0.5101  0.0341
  151MOL0     C20257   6.112   6.543   2.811 -0.8223  1.0767 -0.2701
  151MOL0     O20258   6.014   6.546   2.716 -0.3000 -0.4782  0.1782
  151MOL0     C20259   5.891   6.502   2.760  0.1480 -0.3889  0.1272
  151MOL0     C20260   5.805   6.452   2.640  0.1399  0.4599 -0.3666
  151MOL0     C20261   5.762   6.568   2.549 -0.3245  0.2083  0.4857
  151MOL0     C20262   5.688   6.514   2.421  0.7027 -0.4502 -0.0904
  151MOL0     C20263   5.541   6.478   2.461  0.0547 -0.2399  0.8049
  151MOL0     C20264   5.459   6.430   2.331 -0.6983 -0.0816 -0.1164
  151MOL0     C20265   5.321   6.401   2.380 -0.0870 -0.0818  0.1131
  151MOL0     C20266   5.219   6.392   2.262  0.7281 -0.1353 -0.2587
  151MOL0     N20267   5.076   6.385   2.301 -0.4280  0.4370 -0.2057
  151MOL0     C20268   5.014   6.280   2.369 -0.2709 -0.4735 -0.2409
  151MOL0     C20269   4.887   6.316   2.395  0.2954 -0.4120 -0.3767
  151MOL0     C20270   4.787   6.237   2.483 -0.8023 -0.9629  0.4160
  151MOL0     C20271   4.661   6.326   2.491  0.0380  1.0191 -0.4179
  151MOL0     C20272   4.570   6.270   2.598  0.7082  0.1969  0.2302
  151MOL0     C20273   4.435   6.335   2.580  0.0724  0.0926  0.1748
  151MOL0     O20274   4.386   6.327   2.448  0.2307 -0.0424  0.0908
  151MOL0     C20275   4.260   6.375   2.433 -1.1497 -0.1352  0.5948
  151MOL0     C20276   4.211   6.348   2.307 -0.3116  0.0468  0.6233
  151MOL0     C20277   4.083   6.397   2.259 -0.0149 -0.6708  0.2939
  151MOL0     C20278   4.042   6.367   2.119  0.2779  0.4165  0.6685
  151MOL0     C20279   4.002   6.464   2.357 -0.3578 -0.8212 -0.2542
  151MOL0     C20280   3.856   6.506   2.327 -0.9205 -0.8677 -0.0223
  151MOL0     O20281   3.797   6.603   2.409 -0.6735 -0.2534 -0.3089
  151MOL0     C20282   3.675   6.645   2.377 -0.6171 -0.0905 -0.6086
  151MOL0     C20283   3.568   6.568   2.422  0.3071 -0.8471 -0.7449
  151MOL0     C20284   3.434   6.609   2.399  0.2431 -0.5858 -0.7015
  151MOL0     C20285   3.402   6.725   2.338  0.6141 -1.3071  0.1267
  151MOL0     O20286   3.275   6.762   2.299  0.2517  0.1987  0.0168
  151MOL0     C20287   3.165   6.687   2.349 -0.2759  0.9561 -0.0881
  151MOL0     C20288   3.038   6.763   2.321 -0.4491 -0.1058  0.0076
  151MOL0     C20289   3.001   6.772   2.171  0.5074  0.1290 -0.3372
  151MOL0     C20290   2.877   6.869   2.159 -0.4615  0.0222 -0.6527
  151MOL0     C20291   2.829   6.896   2.013 -0.2789 -0.4239 -1.1358
  151MOL0     C20292   2.714   7.000   2.006 -0.1571  1.1352  0.0973
  151MOL0     C20293   2.646   6.998   1.868 -0.1803 -0.0644  0.4382
  151MOL0     C20294   2.531   7.103   1.847  0.9746  0.2301 -0.1642
  151MOL0    Cl20295   2.577   7.274   1.883  0.1081  0.0063  0.4379
  151MOL0     C20296   3.511   6.816   2.313  0.3053 -0.3092  0.0970
  151MOL0     C20297   3.644   6.773   2.332  0.0720  0.2467  1.3967
  151MOL0     O20298   3.789   6.438   2.250  0.3996  0.9423  0.2279
  151MOL0     C20299   4.066   6.495   2.481  0.3474  0.1400  0.5289
  151MOL0     C20300   4.184   6.445   2.523 -0.5108  0.6643  0.9776
  151MOL0     N20301   4.877   6.446   2.353  0.9263 -0.2986 -0.0739
  151MOL0     N20302   4.979   6.478   2.288 -0.2798  0.3454 -0.0546
  151MOL0     C20303   6.087   6.541   2.946 -0.1654 -0.3393 -0.3029
  151MOL0     C20304   6.196   6.539   3.037  0.9334  0.8037 -0.2837
  151MOL0     C20305   6.650   6.473   3.170  0.0945 -0.2492  0.4223
  151MOL0     C20306   6.605   6.368   3.246  0.3879  0.0096  0.4077
  151MOL0     C20307   6.688   6.294   3.331  0.4237 -0.3071 -0.3724
  151MOL0     C20308   6.819   6.326   3.341 -0.2306 -0.1074  0.2022
  151MOL0     O20309   6.910   6.266   3.427  0.1377  0.3621  0.1578
  151MOL0     C20310   6.867   6.146   3.491  0.0053 -0.4521 -0.0707
  151MOL0     C20311   6.971   6.097   3.592 -0.7104 -0.1457  0.7561
  151MOL0     C20312   6.914   5.986   3.684  0.4250  0.3609 -0.0837
  151MOL0     C20313   7.005   5.873   3.713 -0.1002 -0.4685 -0.2080
  151MOL0     C20314   7.045   5.813   3.588 -0.4269  0.5268 -0.0705
  151MOL0     C20315   7.074   5.768   3.479  0.1627  0.5757 -0.4087
  151MOL0     C20316   6.877   6.430   3.265  0.1762  0.4829  0.1034
  151MOL0     C20317   6.791   6.499   3.176  1.0668 -0.6170 -0.6366
  151MOL0     H20318   6.456   6.538   2.817 -0.2533 -0.6045  1.5482
  151MOL0     H20319   6.274   6.573   2.667  0.9860 -0.6110  0.1991
  151MOL0     H20320   5.896   6.418   2.830 -1.1705  0.2805  1.0918
  151MOL0     H20321   5.833   6.581   2.809 -1.0735 -2.4242  2.2022
  151MOL0     H20322   5.865   6.378   2.586 -3.7710 -2.5816 -1.0199
  151MOL0     H20323   5.712   6.406   2.673  0.3127  0.7288  0.5314
  151MOL0     H20324   5.690   6.629   2.605 -2.3894 -2.7029  1.1883
  151MOL0     H20325   5.855   6.619   2.521  0.6296 -0.9006  1.5710
  151MOL0     H20326   5.690   6.584   2.337 -0.5990  0.6140  0.7156
  151MOL0     H20327   5.743   6.425   2.389 -0.4962 -0.8283 -1.2030
  151MOL0     H20328   5.532   6.398   2.534 -2.1838 -3.4980 -2.6654
  151MOL0     H20329   5.495   6.556   2.522  2.7799  0.1744  2.5271
  151MOL0     H20330   5.444   6.520   2.271 -1.8790  0.4682  0.9668
  151MOL0     H20331   5.516   6.351   2.282  2.2425  1.2308  0.9478
  151MOL0     H20332   5.308   6.304   2.429 -1.9103  1.3363  2.6176
  151MOL0     H20333   5.286   6.479   2.448  0.3595  0.9129 -0.7648
  151MOL0     H20334   5.234   6.307   2.195  2.9397  1.3202 -1.7603
  151MOL0     H20335   5.227   6.483   2.202  0.8376  0.5696  0.8005
  151MOL0     H20336   5.065   6.188   2.397  2.9576  1.4126  0.6605
  151MOL0     H20337   4.771   6.147   2.424  1.7388  0.2210 -2.3794
  151MOL0     H20338   4.834   6.219   2.580  1.6781  4.5837  0.6299
  151MOL0     H20339   4.617   6.333   2.391 -0.5177  1.0264 -0.1748
  151MOL0     H20340   4.696   6.427   2.514 -0.3162  1.7792 -2.8932
  151MOL0     H20341   4.606   6.305   2.695  1.6090 -1.4611  0.5261
  151MOL0     H20342   4.561   6.161   2.597 -1.4359  0.3336 -0.0563
  151MOL0     H20343   4.438   6.441   2.607 -1.1191  0.2249 -0.1864
  151MOL0     H20344   4.372   6.282   2.652 -0.2665 -0.2325 -0.3555
  151MOL0     H20345   4.280   6.301   2.237  0.0561  0.3646  0.7629
  151MOL0     H20346   3.955   6.300   2.127  1.3449 -1.4496 -2.0296
  151MOL0     H20347   4.025   6.464   2.073 -1.5324 -0.3085 -0.3234
  151MOL0     H20348   4.124   6.320   2.065 -0.3103  0.6211 -0.4266
  151MOL0     H20349   3.584   6.477   2.479 -0.0233  1.2481  2.9386
  151MOL0     H20350   3.346   6.551   2.427  0.5817 -2.2047 -2.7337
  151MOL0     H20351   3.162   6.595   2.290  0.3601 -0.7494  2.3573
  151MOL0     H20352   3.190   6.652   2.450  1.4005 -1.9967 -1.3916
  151MOL0     H20353   2.946   6.714   2.356 -0.5418 -1.8532 -2.4021
  151MOL0     H20354   3.052   6.864   2.359  1.6944  0.3697 -1.8573
  151MOL0     H20355   2.974   6.674   2.131 -0.0923 -0.2424  0.9330
  151MOL0     H20356   3.085   6.812   2.113 -0.5061  2.3055 -0.4104
  151MOL0     H20357   2.788   6.842   2.216  0.2294  1.0245  0.9872
  151MOL0     H20358   2.922   6.960   2.200  2.2678 -1.6673  0.4518
  151MOL0     H20359   2.796   6.802   1.967 -2.2803 -0.6353  0.5984
  151MOL0     H20360   2.910   6.941   1.954 -0.7965  1.8045 -0.2478
  151MOL0     H20361   2.641   6.962   2.078 -0.2507  0.4840 -0.3335
  151MOL0     H20362   2.747   7.101   2.034 -0.3965  1.1953  0.1630
  151MOL0     H20363   2.607   6.897   1.855  0.5276 -0.3089  0.1559
  151MOL0     H20364   2.727   7.009   1.795 -0.2344 -2.2764 -0.0308
  151MOL0     H20365   2.449   7.075   1.914  0.4980  1.5993 -0.1532
  151MOL0     H20366   2.507   7.095   1.741  3.9920 -0.9847 -0.8788
  151MOL0     H20367   3.490   6.902   2.250  0.2272  0.9619  1.8091
  151MOL0     H20368   3.725   6.832   2.290  0.4368  0.5722  2.5226
  151MOL0     H20369   4.005   6.542   2.558  0.7941 -1.0099  1.6323
  151MOL0     H20370   4.216   6.460   2.626 -2.4484 -1.2655  1.9505
  151MOL0     H20371   5.986   6.546   2.986 -1.0667  1.0491 -2.5830
  151MOL0     H20372   6.194   6.537   3.145  4.2525 -0.3142 -0.1478
  151MOL0     H20373   6.505   6.326   3.239  0.2169  0.5664 -0.6901
  151MOL0     H20374   6.644   6.208   3.380 -2.0527  0.0428 -1.8254
  151MOL0     H20375   6.781   6.174   3.552  1.2917  3.2873  0.2412
  151MOL0     H20376   6.846   6.057   3.431  1.4881 -1.4358  0.8251
  151MOL0     H20377   7.010   6.187   3.640  2.1564  0.1155 -1.7688
  151MOL0     H20378   7.061   6.063   3.541 -1.4347 -0.4624 -0.3558
  151MOL0     H20379   6.828   5.942   3.633 -0.4146 -0.2961  1.7853
  151MOL0     H20380   6.879   6.031   3.778  2.3799 -1.4449  1.5850
  151MOL0     H20381   6.957   5.802   3.781 -1.7679  0.1810 -0.6511
  151MOL0     H20382   7.091   5.922   3.760  0.2295  0.6541 -1.8927
  151MOL0     H20383   7.090   5.737   3.378  0.6205 -0.1616 -0.1249
  151MOL0     H20384   6.984   6.445   3.273  0.5399 -2.2728  1.7169
  151MOL0     H20385   6.836   6.576   3.114  2.6090 -1.7990 -1.0421
  152MOL0     O20386   3.900   6.612  10.079 -0.1367 -0.4334  0.1688
  152MOL0     C20387   3.899   6.525   9.987  0.3933 -0.5213  0.3106
  152MOL0     O20388   3.787   6.460   9.944 -0.9466 -0.1448  0.2202
  152MOL0     C20389   3.663   6.494   9.994  0.7385 -0.4126  0.1739
  152MOL0     C20390   3.587   6.593   9.924 -0.4120 -0.9875 -1.0062
  152MOL0     C20391   3.456   6.625   9.963  0.6142 -0.5252 -0.4949
  152MOL0     C20392   3.396   6.562  10.072  0.3630 -0.1758  0.0601
  152MOL0     O20393   3.264   6.594  10.099  0.2423  0.7109  0.2697
  152MOL0     C20394   3.201   6.534  10.217  0.1245  0.3648  0.1323
  152MOL0     C20395   3.060   6.577  10.223 -0.1572  0.6341  0.2452
  152MOL0     C20396   3.012   6.493  10.340  0.1636  0.3211  0.6158
  152MOL0     C20397   2.874   6.548  10.395 -0.3840 -0.6834 -0.0054
  152MOL0     C20398   2.851   6.524  10.547  0.6017  0.6295 -0.0537
  152MOL0     C20399   2.810   6.379  10.576  0.6529 -0.0544  0.3658
  152MOL0     C20400   2.730   6.370  10.705 -0.2367  0.7035  0.4785
  152MOL0     C20401   2.664   6.230  10.709  0.3072 -0.4321 -0.2776
  152MOL0     N20402   2.566   6.227  10.820  0.1618 -0.2874 -0.4032
  152MOL0     C20403   2.464   6.318  10.850 -0.2021  0.0330 -0.4728
  152MOL0     C20404   2.430   6.292  10.979  0.5988  0.4856  0.0381
  152MOL0     C20405   2.322   6.368  11.049  0.2069  0.2087 -0.9392
  152MOL0     C20406   2.316   6.340  11.195  0.0607  0.3475 -0.0323
  152MOL0     C20407   2.222   6.437  11.269 -0.3165  0.3203  0.1021
  152MOL0     C20408   2.268   6.464  11.415 -0.2521  0.0095 -0.0144
  152MOL0     O20409   2.403   6.523  11.408  0.1202 -0.3636  0.8617
  152MOL0     C20410   2.475   6.511  11.523 -0.1244 -0.2658  0.5503
  152MOL0     C20411   2.595   6.441  11.534 -0.3563  0.1152 -0.2181
  152MOL0     C20412   2.672   6.444  11.648  0.6287  0.2757  0.1925
  152MOL0     C20413   2.797   6.361  11.655  0.7352 -0.2175 -0.4812
  152MOL0     C20414   2.636   6.548  11.742  0.0063 -0.3157 -0.0173
  152MOL0     C20415   2.718   6.579  11.855  0.4557  0.3247  0.6671
  152MOL0     O20416   2.739   6.478  11.950 -0.1974  0.0619 -0.1745
  152MOL0     C20417   2.815   6.497  12.061  0.3557 -0.4909 -0.3073
  152MOL0     C20418   2.762   6.443  12.176  0.5508  0.0329  0.1708
  152MOL0     C20419   2.828   6.458  12.294  0.2954  0.5186 -0.2609
  152MOL0     C20420   2.947   6.526  12.303 -0.0123  0.4918  0.3812
  152MOL0     O20421   2.989   6.530  12.432  0.3752  0.7342  0.5938
  152MOL0     C20422   3.117   6.594  12.452 -0.1624 -0.4378  0.6044
  152MOL0     C20423   3.130   6.624  12.600 -0.1069 -0.5704 -0.0953
  152MOL0     C20424   3.268   6.694  12.626 -0.1930 -0.1754 -0.2103
  152MOL0     C20425   3.370   6.587  12.654 -0.1639 -0.2711  0.0463
  152MOL0     C20426   3.513   6.641  12.696  0.4248  0.0244  0.4291
  152MOL0     C20427   3.601   6.696  12.583  0.5476 -0.7736  0.6588
  152MOL0     C20428   3.744   6.686  12.636 -0.4614  0.0257  0.1909
  152MOL0     C20429   3.844   6.754  12.541  0.5025 -0.1987  0.6342
  152MOL0    Cl20430   3.988   6.767  12.640 -0.2193 -0.8554  0.7065
  152MOL0     C20431   2.994   6.594  12.191  0.4667 -0.3401 -0.1733
  152MOL0     C20432   2.931   6.581  12.067 -0.1637  0.8578 -0.0979
  152MOL0     O20433   2.759   6.693  11.865 -0.4787  0.2375  0.8057
  152MOL0     C20434   2.516   6.621  11.732  0.2821 -0.3266  0.3711
  152MOL0     C20435   2.434   6.603  11.617 -0.3607  0.1586 -0.5073
  152MOL0     N20436   2.501   6.187  11.031  0.1351 -0.4545  0.4409
  152MOL0     N20437   2.586   6.155  10.932 -0.1217 -1.0690  0.0322
  152MOL0     C20438   3.480   6.469  10.143 -0.6357  0.1742  0.7038
  152MOL0     C20439   3.610   6.434  10.105 -0.4807 -0.1495 -0.3194
  152MOL0     C20440   4.013   6.486   9.901 -0.9827 -0.3046  0.0068
  152MOL0     C20441   4.144   6.491   9.947  0.9701  0.0331 -0.5402
  152MOL0     C20442   4.256   6.457   9.869  0.0029 -0.4006  0.5711
  152MOL0     C20443   4.235   6.404   9.738  0.4056  0.0248 -0.7621
  152MOL0     O20444   4.333   6.391   9.645  0.3267 -0.0498 -0.2535
  152MOL0     C20445   4.475   6.429   9.667  0.3870  0.0633  0.2680
  152MOL0     C20446   4.548   6.321   9.729  0.2503 -0.2094  0.4099
  152MOL0     C20447   4.695   6.362   9.765  0.3763  0.2819  1.4769
  152MOL0     C20448   4.762   6.268   9.848 -0.0586  0.3205  0.6938
  152MOL0     C20449   4.792   6.144   9.774 -1.0192  0.7241  0.1194
  152MOL0     C20450   4.820   6.035   9.714  0.7096  0.0223 -0.6920
  152MOL0     C20451   4.103   6.382   9.698  0.1056 -0.2585  0.5078
  152MOL0     C20452   3.990   6.422   9.778  0.1264 -0.3834  0.1210
  152MOL0     H20453   3.609   6.649   9.834 -1.4539  0.0429 -0.6524
  152MOL0     H20454   3.396   6.699   9.910 -0.8054 -3.6535 -3.7222
  152MOL0     H20455   3.200   6.425  10.205 -0.0367  0.5724 -2.2231
  152MOL0     H20456   3.253   6.557  10.310 -1.7432 -0.4801  1.4693
  152MOL0     H20457   3.044   6.685  10.227 -0.9502  0.5285 -0.0209
  152MOL0     H20458   3.004   6.543  10.136  1.0029 -0.9288  0.0616
  152MOL0     H20459   3.001   6.388  10.314  1.4618  0.0937  0.9021
  152MOL0     H20460   3.086   6.490  10.421 -1.7402 -0.3959  2.4500
  152MOL0     H20461   2.875   6.657  10.389 -2.0840 -0.7472 -3.2781
  152MOL0     H20462   2.791   6.514  10.333 -0.2797 -1.1198  0.0875
  152MOL0     H20463   2.946   6.545  10.596  0.1427 -1.3837  1.8407
  152MOL0     H20464   2.773   6.596  10.573 -0.8033 -1.2581  1.2444
  152MOL0     H20465   2.744   6.344  10.497  0.8953  0.6008 -0.1341
  152MOL0     H20466   2.894   6.310  10.570 -0.2296 -0.9912 -2.3930
  152MOL0     H20467   2.801   6.383  10.787  3.7773 -0.1616 -2.5234
  152MOL0     H20468   2.656   6.450  10.700 -1.1150 -0.1654 -2.2342
  152MOL0     H20469   2.748   6.161  10.719 -0.0534 -1.2834 -2.6543
  152MOL0     H20470   2.620   6.191  10.617  4.3100 -1.7249 -1.8602
  152MOL0     H20471   2.427   6.394  10.782  0.9716  1.8188  0.7804
  152MOL0     H20472   2.350   6.474  11.047  1.7814  0.1188  3.6274
  152MOL0     H20473   2.223   6.345  11.010 -1.4500  0.6285  2.6509
  152MOL0     H20474   2.417   6.349  11.235 -0.2348  2.7302  0.3368
  152MOL0     H20475   2.284   6.236  11.204  1.4150  0.0239  1.3533
  152MOL0     H20476   2.123   6.390  11.274 -1.2169  2.1635  1.1944
  152MOL0     H20477   2.200   6.528  11.212 -0.1587  1.0678  1.2060
  152MOL0     H20478   2.259   6.370  11.469 -3.3412  1.2001  1.8060
  152MOL0     H20479   2.200   6.529  11.470  2.0729  0.3392  2.6609
  152MOL0     H20480   2.620   6.375  11.451 -1.3518 -1.0306  0.3540
  152MOL0     H20481   2.775   6.260  11.692 -0.8458 -0.0800 -0.9574
  152MOL0     H20482   2.846   6.355  11.558 -0.6871  1.2375 -1.3274
  152MOL0     H20483   2.868   6.399  11.729  2.0179 -1.4305 -1.0439
  152MOL0     H20484   2.669   6.389  12.162  1.1008 -0.2624 -3.5083
  152MOL0     H20485   2.785   6.414  12.383  0.8757  0.6808  0.1084
  152MOL0     H20486   3.207   6.546  12.412  0.8817  1.4447  0.5482
  152MOL0     H20487   3.102   6.694  12.410 -0.4690 -0.5194  0.5231
  152MOL0     H20488   3.042   6.683  12.630  0.9061  0.1306  1.6557
  152MOL0     H20489   3.129   6.538  12.667  1.5692  0.2833  1.0926
  152MOL0     H20490   3.255   6.753  12.718 -1.9433 -0.0238 -0.5329
  152MOL0     H20491   3.297   6.757  12.542 -1.7166 -3.4618 -3.4551
  152MOL0     H20492   3.339   6.525  12.739 -1.0343 -0.8541 -0.6891
  152MOL0     H20493   3.383   6.522  12.568  0.4613  0.8602 -0.7462
  152MOL0     H20494   3.568   6.555  12.735  1.4041  0.5934  0.3449
  152MOL0     H20495   3.510   6.708  12.783 -0.8847 -0.2014  0.5767
  152MOL0     H20496   3.580   6.632  12.497 -2.0442  1.6858 -0.7147
  152MOL0     H20497   3.564   6.793  12.548  2.2196 -0.5900 -0.7447
  152MOL0     H20498   3.766   6.578  12.636  0.5275  0.1996  1.3148
  152MOL0     H20499   3.744   6.720  12.740  0.1961 -1.1254  0.5979
  152MOL0     H20500   3.806   6.854  12.517 -0.7853 -0.9035 -0.3342
  152MOL0     H20501   3.851   6.709  12.441 -3.0188 -0.0278  0.2040
  152MOL0     H20502   3.080   6.660  12.202 -0.3534  0.9066 -0.9412
  152MOL0     H20503   2.967   6.621  11.973 -0.0863  1.5929  0.2403
  152MOL0     H20504   2.490   6.684  11.816  1.1245 -0.6192  0.8529
  152MOL0     H20505   2.341   6.654  11.596  0.0385  0.8988 -0.5120
  152MOL0     H20506   3.432   6.425  10.230 -1.8979 -0.8879 -0.4888
  152MOL0     H20507   3.663   6.356  10.159  0.0303 -3.4739 -4.9786
  152MOL0     H20508   4.158   6.527  10.048 -0.9629  3.2316 -1.2520
  152MOL0     H20509   4.356   6.481   9.904 -0.6736  3.5519  0.2626
  152MOL0     H20510   4.511   6.450   9.566 -0.9387  2.1549  0.1578
  152MOL0     H20511   4.474   6.524   9.721 -1.2680  1.7120 -2.4329
  152MOL0     H20512   4.552   6.240   9.655 -1.7350  1.2720 -1.4311
  152MOL0     H20513   4.492   6.286   9.816 -3.0495 -1.6209 -2.0837
  152MOL0     H20514   4.683   6.463   9.805 -0.4321  0.9863 -0.4158
  152MOL0     H20515   4.749   6.371   9.670 -2.2756  1.6030 -0.0229
  152MOL0     H20516   4.718   6.246   9.945 -0.7602  1.0237  0.5508
  152MOL0     H20517   4.853   6.327   9.862  0.1707  0.4056 -0.8999
  152MOL0     H20518   4.828   5.945   9.656  0.3792 -0.2378 -0.3399
  152MOL0     H20519   4.087   6.343   9.599 -0.1136  0.8950  0.0663
  152MOL0     H20520   3.891   6.419   9.734  0.2215  1.3248 -0.2879
  153MOL0     O20521   2.213   8.180  10.189 -0.0910  0.6330  0.1155
  153MOL0     C20522   2.283   8.082  10.202  0.0071 -0.3045 -0.7511
  153MOL0     O20523   2.240   7.954  10.223  0.1041 -0.3393 -0.9612
  153MOL0     C20524   2.113   7.944  10.261  0.6395  0.5251  0.0113
  153MOL0     C20525   2.086   7.928  10.396  0.2378 -0.2686  0.3608
  153MOL0     C20526   1.955   7.901  10.446 -0.0497  0.8183 -0.3784
  153MOL0     C20527   1.850   7.887  10.349 -0.3950 -0.1307 -0.0040
  153MOL0     O20528   1.721   7.854  10.379  0.0310  0.6473 -0.1337
  153MOL0     C20529   1.679   7.875  10.515  0.4136 -0.1469 -0.2688
  153MOL0     C20530   1.532   7.855  10.540  0.7408  0.1316 -0.6198
  153MOL0     C20531   1.480   7.723  10.484 -0.5326  0.0296 -0.4804
  153MOL0     C20532   1.377   7.662  10.581  0.0464  0.5282  0.0747
  153MOL0     C20533   1.296   7.539  10.545 -0.9689  0.4510  0.0784
  153MOL0     C20534   1.232   7.540  10.402 -0.7501 -0.0886 -0.0884
  153MOL0     C20535   1.199   7.404  10.358  0.2994  0.1763  0.4845
  153MOL0     C20536   1.059   7.358  10.415  0.5436 -0.3108 -0.6620
  153MOL0     N20537   1.055   7.355  10.568  0.3162  0.3420  1.1112
  153MOL0     C20538   1.141   7.280  10.644 -0.2051  0.0153 -0.5005
  153MOL0     C20539   1.109   7.319  10.767 -0.3055  1.0855 -0.2749
  153MOL0     C20540   1.168   7.285  10.899 -0.4901 -0.0979  0.2837
  153MOL0     C20541   1.199   7.137  10.928  0.1450 -0.5241  0.2787
  153MOL0     C20542   1.088   7.040  10.875 -0.2109  0.6585 -0.1777
  153MOL0     C20543   0.978   7.029  10.986 -0.5472 -0.2792 -0.2433
  153MOL0     O20544   1.023   6.949  11.098  0.4833 -0.0396  0.6410
  153MOL0     C20545   0.925   6.891  11.173 -0.5901  0.4258  0.2242
  153MOL0     C20546   0.958   6.782  11.260 -0.0609 -0.0056 -0.7379
  153MOL0     C20547   0.860   6.711  11.333 -0.5916 -0.3884  0.1084
  153MOL0     C20548   0.923   6.590  11.409  0.7308 -0.4476  0.4093
  153MOL0     C20549   0.725   6.738  11.331  0.1782 -0.9589  0.6917
  153MOL0     C20550   0.620   6.673  11.397  0.8757  0.8169 -0.4463
  153MOL0     O20551   0.494   6.706  11.354 -0.1745  0.1974  0.5331
  153MOL0     C20552   0.403   6.682  11.449  0.3900 -0.6087  0.1637
  153MOL0     C20553   0.370   6.785  11.539  0.9828 -0.7272 -0.8078
  153MOL0     C20554   0.253   6.777  11.615 -0.1090 -0.9044  0.8004
  153MOL0     C20555   0.177   6.653  11.628  0.4592 -0.4220  0.3849
  153MOL0     O20556   0.068   6.661  11.714 -0.0738 -0.1851  0.5151
  153MOL0     C20557   0.007   6.537  11.749 -0.1695  0.1775 -0.1136
  153MOL0     C20558  -0.115   6.563  11.834  0.4405  0.1587 -0.3967
  153MOL0     C20559  -0.203   6.439  11.840  0.0625 -0.4688 -0.8424
  153MOL0     C20560  -0.338   6.487  11.888 -0.2068 -0.2680 -0.0274
  153MOL0     C20561  -0.421   6.362  11.905  0.0487  0.8461 -0.1715
  153MOL0     C20562  -0.566   6.394  11.954  1.0059 -0.1617  0.3471
  153MOL0     C20563  -0.579   6.431  12.102  0.4789  0.1749 -0.3271
  153MOL0     C20564  -0.569   6.312  12.190  0.7658  0.2768 -0.6851
  153MOL0    Cl20565  -0.577   6.365  12.351  0.4659  0.0414  0.2260
  153MOL0     C20566   0.226   6.549  11.549 -0.4038  0.8277 -0.2683
  153MOL0     C20567   0.327   6.564  11.456 -0.3280  0.1596  0.7036
  153MOL0     O20568   0.636   6.593  11.492 -0.6999  0.3837 -0.6355
  153MOL0     C20569   0.694   6.854  11.252 -0.1240  0.2775 -0.5034
  153MOL0     C20570   0.792   6.936  11.183 -0.0914  0.3186  0.3649
  153MOL0     N20571   1.000   7.402  10.763 -0.7944 -0.1857  0.2311
  153MOL0     N20572   0.972   7.423  10.647  0.2215 -0.1653  0.5921
  153MOL0     C20573   1.874   7.911  10.215  0.3709  0.0697 -0.6777
  153MOL0     C20574   2.003   7.938  10.169 -1.0840  0.2785 -0.0962
  153MOL0     C20575   2.426   8.105  10.199 -0.2093 -0.4708  0.2380
  153MOL0     C20576   2.483   8.229  10.225  0.1173  0.4145 -0.2983
  153MOL0     C20577   2.623   8.245  10.232 -0.1145 -0.1982  0.2492
  153MOL0     C20578   2.708   8.153  10.170  0.4627  0.2050 -0.2460
  153MOL0     O20579   2.842   8.158  10.162  0.2155 -0.0517  0.3427
  153MOL0     C20580   2.905   8.286  10.185  0.2806  0.3065 -0.5027
  153MOL0     C20581   2.916   8.315  10.337  0.4314 -0.1190  0.6902
  153MOL0     C20582   3.040   8.233  10.375  0.0910 -0.1261  0.4585
  153MOL0     C20583   3.077   8.235  10.529  0.8466  0.6750  0.9890
  153MOL0     C20584   3.076   8.377  10.569 -0.2357  0.2952  0.6029
  153MOL0     C20585   3.094   8.490  10.610  0.5326  0.1104  0.3805
  153MOL0     C20586   2.648   8.035  10.127  1.3422  0.1286  0.1483
  153MOL0     C20587   2.510   8.009  10.142  0.5764  0.3134  0.6302
  153MOL0     H20588   2.172   7.945  10.461  0.3826  2.3448 -0.3995
  153MOL0     H20589   1.937   7.893  10.553  0.4636  1.3789 -0.2461
  153MOL0     H20590   1.736   7.816  10.587 -2.0668 -0.4203  1.6121
  153MOL0     H20591   1.701   7.979  10.542 -3.2210  0.2589  1.7760
  153MOL0     H20592   1.505   7.853  10.646  0.7962  1.9241 -0.5419
  153MOL0     H20593   1.477   7.938  10.494 -0.0765  1.3552  2.3521
  153MOL0     H20594   1.427   7.738  10.390  1.0548  0.7098 -1.2892
  153MOL0     H20595   1.568   7.659  10.472  0.0839  0.6187  0.7530
  153MOL0     H20596   1.433   7.633  10.670 -0.7382 -1.4684 -0.0324
  153MOL0     H20597   1.302   7.738  10.606  0.6493  0.7797  1.1378
  153MOL0     H20598   1.371   7.459  10.542  0.8053  2.0106  0.4644
  153MOL0     H20599   1.235   7.532  10.635 -0.8441 -1.0839  0.0715
  153MOL0     H20600   1.140   7.599  10.400  0.5663  2.1903  1.4970
  153MOL0     H20601   1.306   7.588  10.337 -1.5309  2.1704  0.5975
  153MOL0     H20602   1.201   7.386  10.250  1.8900 -0.7537  0.6354
  153MOL0     H20603   1.279   7.338  10.394  2.4603  1.9261 -0.8232
  153MOL0     H20604   1.031   7.254  10.397 -1.9548 -0.4035  2.7734
  153MOL0     H20605   0.983   7.427  10.376  0.3756 -0.7715 -1.1521
  153MOL0     H20606   1.222   7.215  10.613 -0.8064 -1.1976  0.4079
  153MOL0     H20607   1.263   7.340  10.901  0.3350 -1.3152 -2.1716
  153MOL0     H20608   1.113   7.330  10.982  0.1117  0.1249  0.5695
  153MOL0     H20609   1.209   7.116  11.035  0.3758 -2.8569 -0.1538
  153MOL0     H20610   1.294   7.124  10.874  0.1609 -0.1164  0.2035
  153MOL0     H20611   1.127   6.939  10.857 -2.7436 -0.9355  2.3108
  153MOL0     H20612   1.045   7.066  10.778 -0.0649  1.5823 -0.0012
  153MOL0     H20613   0.894   6.981  10.936  0.6352 -1.4737 -1.1759
  153MOL0     H20614   0.960   7.129  11.027 -1.4941 -0.5366 -0.0116
  153MOL0     H20615   1.063   6.755  11.268 -0.4521 -1.0628  1.6129
  153MOL0     H20616   0.896   6.596  11.515  0.4276 -0.9903  0.3656
  153MOL0     H20617   0.884   6.498  11.364  0.4412  0.0063 -0.2914
  153MOL0     H20618   1.032   6.592  11.411  0.7932 -0.1937 -1.3947
  153MOL0     H20619   0.425   6.877  11.550 -3.4282  2.1608 -0.2422
  153MOL0     H20620   0.236   6.858  11.685  1.9974  1.1966 -0.9622
  153MOL0     H20621  -0.019   6.486  11.656  0.7691  0.2548 -0.4240
  153MOL0     H20622   0.071   6.472  11.808  0.5815 -0.5825 -1.7160
  153MOL0     H20623  -0.082   6.584  11.936  0.9060  0.6974 -0.6558
  153MOL0     H20624  -0.157   6.649  11.781 -1.4909 -0.9514 -0.7885
  153MOL0     H20625  -0.154   6.365  11.904  1.5112 -0.3574 -1.7702
  153MOL0     H20626  -0.210   6.391  11.742  1.1406 -1.5985 -0.3878
  153MOL0     H20627  -0.331   6.541  11.984  0.9114 -2.9439  1.4925
  153MOL0     H20628  -0.376   6.557  11.813  1.3589 -0.7338 -1.2943
  153MOL0     H20629  -0.385   6.284  11.972 -0.0283  1.1654  0.2495
  153MOL0     H20630  -0.431   6.318  11.806  2.9777  0.4550 -0.3738
  153MOL0     H20631  -0.609   6.472  11.890  2.2609 -0.2731 -0.6507
  153MOL0     H20632  -0.621   6.300  11.942  0.3006  0.4040 -1.0409
  153MOL0     H20633  -0.672   6.488  12.109 -0.3700 -1.3881  2.2177
  153MOL0     H20634  -0.511   6.516  12.117 -2.5414  2.9790 -1.2508
  153MOL0     H20635  -0.481   6.254  12.163 -0.2365 -1.2016 -0.8874
  153MOL0     H20636  -0.660   6.253  12.181 -2.0785  4.2304 -0.8444
  153MOL0     H20637   0.185   6.449  11.558  1.4601  0.0722  0.3137
  153MOL0     H20638   0.335   6.497  11.370 -2.2927  2.5624 -1.5131
  153MOL0     H20639   0.596   6.897  11.236  0.7863  2.0253 -1.7636
  153MOL0     H20640   0.753   7.012  11.116 -1.2883 -0.8425 -0.2892
  153MOL0     H20641   1.790   7.892  10.148 -0.5920 -1.2657  0.8381
  153MOL0     H20642   2.026   7.954  10.064 -0.5151  0.3631  0.0397
  153MOL0     H20643   2.421   8.305  10.272  1.1314  0.9299  0.2497
  153MOL0     H20644   2.662   8.337  10.275  2.4304 -0.4111 -1.3842
  153MOL0     H20645   3.001   8.282  10.133  0.9391  1.3138  0.5855
  153MOL0     H20646   2.851   8.368  10.138  0.2786 -1.7082 -4.4067
  153MOL0     H20647   2.835   8.276  10.399 -0.6948 -0.3612 -0.8789
  153MOL0     H20648   2.932   8.423  10.348  0.5525 -0.0366 -0.1872
  153MOL0     H20649   3.129   8.258  10.317 -2.0118  1.8395 -2.1625
  153MOL0     H20650   3.016   8.128  10.359  1.4012 -0.5893  1.3651
  153MOL0     H20651   3.179   8.196  10.532 -0.8652 -4.7302  0.1777
  153MOL0     H20652   3.014   8.175  10.595  0.3551 -3.0452 -2.4222
  153MOL0     H20653   3.100   8.589  10.650 -1.6184 -0.0459  1.2200
  153MOL0     H20654   2.720   7.958  10.098  2.0079  0.1445  1.6764
  153MOL0     H20655   2.466   7.916  10.107 -0.2069  0.3386  1.4936
  154MOL0     O20656   0.655  10.187   9.404 -0.1729 -0.0163 -0.2894
  154MOL0     C20657   0.695  10.120   9.315 -0.3809  0.8046  0.1629
  154MOL0     O20658   0.821  10.103   9.267  0.4190 -0.7926 -0.3746
  154MOL0     C20659   0.909  10.192   9.309 -0.2000  0.4069  1.0492
  154MOL0     C20660   0.955  10.203   9.442 -0.4376 -0.3060 -0.1367
  154MOL0     C20661   1.066  10.278   9.478  0.8867 -0.8537  0.4148
  154MOL0     C20662   1.127  10.355   9.382  0.1014 -0.0222  0.9156
  154MOL0     O20663   1.247  10.424   9.397  0.6284 -0.1670  0.3763
  154MOL0     C20664   1.278  10.464   9.529  0.0693 -0.2837  0.3168
  154MOL0     C20665   1.393  10.574   9.497  0.5745  0.5027 -1.0942
  154MOL0     C20666   1.337  10.709   9.442  0.2101  0.0882  0.6753
  154MOL0     C20667   1.446  10.805   9.390  0.5250 -0.8115  0.0731
  154MOL0     C20668   1.383  10.940   9.357 -0.4435 -0.3881  0.5848
  154MOL0     C20669   1.281  10.942   9.244  0.3454  0.6490  0.3143
  154MOL0     C20670   1.144  11.015   9.285 -0.2570  0.1149  0.6406
  154MOL0     C20671   1.025  10.971   9.205  0.8034  0.7317  0.0172
  154MOL0     N20672   0.989  10.830   9.226 -0.2767 -0.4972 -0.5344
  154MOL0     C20673   0.934  10.782   9.338 -0.1303  0.3478 -0.2053
  154MOL0     C20674   0.889  10.660   9.305 -0.3600 -0.0566  1.1374
  154MOL0     C20675   0.817  10.574   9.404  0.2475  0.3321 -0.4926
  154MOL0     C20676   0.673  10.603   9.430  0.0760  0.0628  0.1900
  154MOL0     C20677   0.598  10.623   9.302 -1.0455 -0.0011  0.7267
  154MOL0     C20678   0.448  10.658   9.323 -0.3286 -0.0502 -0.7482
  154MOL0     O20679   0.385  10.647   9.189 -0.3118 -0.5096 -0.2422
  154MOL0     C20680   0.270  10.718   9.171  0.2874 -0.3677 -0.2128
  154MOL0     C20681   0.182  10.758   9.270  0.2920  1.0143 -0.1837
  154MOL0     C20682   0.059  10.818   9.244  0.2599  0.2882  0.3905
  154MOL0     C20683  -0.045  10.835   9.361 -0.3054  0.0699  0.3317
  154MOL0     C20684   0.021  10.845   9.108 -1.2615 -0.0657  0.1513
  154MOL0     C20685  -0.112  10.891   9.062  0.5267  1.0944 -0.2488
  154MOL0     O20686  -0.215  10.859   9.153  0.0059 -0.1727  0.0605
  154MOL0     C20687  -0.337  10.903   9.113  1.2934  0.0386 -0.3569
  154MOL0     C20688  -0.416  10.819   9.037  0.0811  0.4394  0.1059
  154MOL0     C20689  -0.549  10.844   9.002 -0.0491  0.2060 -0.4191
  154MOL0     C20690  -0.605  10.962   9.052  0.5114  0.0712 -0.1453
  154MOL0     O20691  -0.734  10.972   9.028  0.2140 -0.3735  0.8922
  154MOL0     C20692  -0.830  10.992   9.139 -0.4022 -0.1707  0.0050
  154MOL0     C20693  -0.969  10.943   9.098  0.7908  0.0506  0.6612
  154MOL0     C20694  -1.041  11.041   8.996 -0.0771 -0.4980  0.4735
  154MOL0     C20695  -1.193  11.015   9.007 -0.5024 -0.4510 -0.8710
  154MOL0     C20696  -1.266  11.119   8.917 -0.0395 -0.0292  0.3564
  154MOL0     C20697  -1.419  11.099   8.969 -0.6016 -0.7237 -0.1811
  154MOL0     C20698  -1.515  11.195   8.904 -0.5231  0.7512 -0.6174
  154MOL0     C20699  -1.654  11.184   8.969 -0.4477 -0.6328  0.8826
  154MOL0    Cl20700  -1.738  11.034   8.919 -0.1435  0.2398  0.6461
  154MOL0     C20701  -0.534  11.052   9.131 -0.1390  0.0207 -0.1272
  154MOL0     C20702  -0.401  11.020   9.160  0.4633  0.3378 -0.7085
  154MOL0     O20703  -0.129  10.923   8.943  0.0177  0.7144  0.7325
  154MOL0     C20704   0.121  10.814   9.010  0.7018  0.0001  0.4193
  154MOL0     C20705   0.241  10.759   9.046  0.5554  1.1558 -0.3767
  154MOL0     N20706   0.908  10.638   9.171 -0.1422 -0.4319  0.5860
  154MOL0     N20707   0.974  10.742   9.128 -0.0111  0.0444  0.8733
  154MOL0     C20708   1.093  10.334   9.247 -0.3123  0.6169  0.4186
  154MOL0     C20709   0.990  10.253   9.213 -0.6817 -0.2330 -0.4999
  154MOL0     C20710   0.599  10.036   9.245 -0.0778  0.6023  0.3723
  154MOL0     C20711   0.454  10.034   9.272  0.7975 -0.7544  0.5455
  154MOL0     C20712   0.374   9.942   9.205 -0.3731  0.1850 -0.1490
  154MOL0     C20713   0.430   9.847   9.122 -1.0706  0.3647 -0.0717
  154MOL0     O20714   0.366   9.742   9.062 -0.1738 -0.9149 -0.0707
  154MOL0     C20715   0.239   9.704   9.103 -0.1482 -0.6478 -0.7720
  154MOL0     C20716   0.196   9.607   8.996  0.1499  1.0082  0.3986
  154MOL0     C20717   0.069   9.527   9.030  0.4228  0.3089  0.2794
  154MOL0     C20718   0.026   9.436   8.918  0.7617  0.2847  0.1507
  154MOL0     C20719  -0.111   9.389   8.945  0.8138 -0.8613 -0.4490
  154MOL0     C20720  -0.216   9.333   8.950  0.4413  0.4496  0.7139
  154MOL0     C20721   0.568   9.854   9.085  0.1974  0.1417 -0.1350
  154MOL0     C20722   0.648   9.947   9.144 -0.3321  1.0684  0.5733
  154MOL0     H20723   0.908  10.144   9.520  0.5581 -0.3667  0.4258
  154MOL0     H20724   1.112  10.258   9.575  0.0649  1.9067  1.4707
  154MOL0     H20725   1.199  10.510   9.589  0.2927  0.7295 -0.1550
  154MOL0     H20726   1.327  10.379   9.578  0.1795 -1.4998 -1.7924
  154MOL0     H20727   1.442  10.603   9.590  0.4270  0.7360 -1.0860
  154MOL0     H20728   1.467  10.532   9.429 -0.0650  0.1696 -1.5996
  154MOL0     H20729   1.269  10.688   9.360 -0.7578  3.3838  0.5055
  154MOL0     H20730   1.276  10.747   9.524 -1.4485 -0.7048 -0.1515
  154MOL0     H20731   1.524  10.821   9.465  0.5951 -1.1216  0.0709
  154MOL0     H20732   1.500  10.768   9.302 -0.5234 -1.4608 -0.3289
  154MOL0     H20733   1.339  10.990   9.445 -1.3723  2.5900 -1.3988
  154MOL0     H20734   1.467  11.009   9.344 -0.9016  0.7241  2.9192
  154MOL0     H20735   1.328  10.984   9.155  1.2891 -1.0857 -0.0524
  154MOL0     H20736   1.245  10.842   9.218  1.3232  0.8409 -2.0268
  154MOL0     H20737   1.117  10.980   9.385 -0.2558 -0.7181  0.3591
  154MOL0     H20738   1.156  11.123   9.286  0.1403  0.0786  1.6572
  154MOL0     H20739   1.034  11.004   9.101 -0.1096  0.4017 -0.1726
  154MOL0     H20740   0.938  11.026   9.243 -0.3616  0.7109 -2.4253
  154MOL0     H20741   0.921  10.825   9.437  1.2263 -1.0983  0.6543
  154MOL0     H20742   0.821  10.472   9.363  0.8696 -0.3561  1.1677
  154MOL0     H20743   0.869  10.568   9.500  1.3881 -0.2367 -1.1199
  154MOL0     H20744   0.653  10.692   9.490 -1.1681  0.4037 -0.6710
  154MOL0     H20745   0.623  10.520   9.480 -1.8038  1.5695  0.9199
  154MOL0     H20746   0.605  10.530   9.246 -1.3314  1.5502 -2.1027
  154MOL0     H20747   0.637  10.710   9.247  0.5445 -1.7070 -0.9664
  154MOL0     H20748   0.423  10.751   9.374 -1.3914 -1.7750  2.1367
  154MOL0     H20749   0.414  10.579   9.391  1.5049  1.1747  1.7650
  154MOL0     H20750   0.210  10.738   9.373  2.8677 -0.0563 -1.0117
  154MOL0     H20751  -0.108  10.922   9.346 -0.8648 -0.4450 -0.4018
  154MOL0     H20752  -0.120  10.757   9.377 -2.2910  2.2834  2.5243
  154MOL0     H20753   0.006  10.841   9.458 -0.6049 -2.1841  0.6992
  154MOL0     H20754  -0.386  10.729   8.983 -3.9920 -1.0632 -0.0628
  154MOL0     H20755  -0.613  10.778   8.945 -0.5668  0.8638 -0.6101
  154MOL0     H20756  -0.790  10.931   9.220  0.0683 -0.1760 -0.2291
  154MOL0     H20757  -0.831  11.097   9.171  2.3818 -0.4084  1.0898
  154MOL0     H20758  -0.956  10.846   9.049  1.1746  1.3648 -2.0085
  154MOL0     H20759  -1.027  10.922   9.188  1.5584 -1.1800  0.8934
  154MOL0     H20760  -1.000  11.038   8.894 -1.7405 -2.2899 -0.2036
  154MOL0     H20761  -1.028  11.145   9.027 -3.4771  0.6064 -1.2322
  154MOL0     H20762  -1.209  10.915   8.967 -0.1732  1.0303 -5.2488
  154MOL0     H20763  -1.224  11.022   9.112  1.2448 -2.4112 -0.1514
  154MOL0     H20764  -1.252  11.087   8.813  1.0372 -0.0561  0.4964
  154MOL0     H20765  -1.241  11.225   8.932 -1.6441  0.4697 -0.2709
  154MOL0     H20766  -1.454  10.997   8.954 -0.5718 -0.6021 -1.2023
  154MOL0     H20767  -1.417  11.120   9.076 -0.1838 -1.6465 -0.0040
  154MOL0     H20768  -1.522  11.170   8.797 -3.1531  2.9743 -1.0851
  154MOL0     H20769  -1.485  11.301   8.908 -2.7077  1.5212 -2.4649
  154MOL0     H20770  -1.716  11.270   8.940 -0.2901 -0.3763  1.3069
  154MOL0     H20771  -1.641  11.192   9.077 -0.7860  1.7454  0.8015
  154MOL0     H20772  -0.582  11.130   9.190  1.8095 -1.4744  3.8601
  154MOL0     H20773  -0.347  11.088   9.225 -1.6570  0.1953  1.3469
  154MOL0     H20774   0.109  10.822   8.902  1.8563  3.1680  0.4351
  154MOL0     H20775   0.306  10.720   8.968  1.8540  1.0152  0.7451
  154MOL0     H20776   1.159  10.373   9.170  0.2579  0.7747  0.9852
  154MOL0     H20777   0.976  10.230   9.108  3.1063  1.8304 -1.6233
  154MOL0     H20778   0.399  10.103   9.336  0.2990 -0.2929 -0.3678
  154MOL0     H20779   0.271   9.924   9.235 -0.9962  1.1675 -1.5363
  154MOL0     H20780   0.248   9.646   9.195 -0.9328  2.3413  1.3492
  154MOL0     H20781   0.171   9.789   9.117 -0.8633 -0.9860 -2.0168
  154MOL0     H20782   0.275   9.532   8.983 -2.2230 -1.9345  1.7714
  154MOL0     H20783   0.173   9.663   8.904 -0.4806 -0.2087 -0.2108
  154MOL0     H20784  -0.013   9.597   9.051 -1.0635 -1.1901 -0.2962
  154MOL0     H20785   0.085   9.473   9.124 -3.6854 -0.4330  0.7467
  154MOL0     H20786   0.090   9.347   8.929  0.2884  0.1560  2.2592
  154MOL0     H20787   0.040   9.479   8.818 -2.3536 -1.0289 -0.9829
  154MOL0     H20788  -0.312   9.290   8.928  0.2897  0.9626  0.3535
  154MOL0     H20789   0.613   9.799   9.003 -1.2568 -0.6311 -0.4372
  154MOL0     H20790   0.750   9.951   9.108 -0.1975  0.1770  0.8233
  155MOL0     O20791   4.637   7.328   4.104  0.1517  0.5126  0.8640
  155MOL0     C20792   4.651   7.443   4.062 -0.1452  0.3156 -0.8799
  155MOL0     O20793   4.552   7.514   3.997 -0.4179  0.1921  0.1250
  155MOL0     C20794   4.421   7.466   3.990 -0.5238  0.2620 -0.7491
  155MOL0     C20795   4.356   7.403   4.100  0.0566  1.1571 -0.2306
  155MOL0     C20796   4.229   7.341   4.074  0.0326 -0.1078  0.4702
  155MOL0     C20797   4.165   7.350   3.946  0.0548 -0.2432 -0.4947
  155MOL0     O20798   4.047   7.279   3.926  0.4567 -0.3548 -0.5865
  155MOL0     C20799   3.980   7.193   4.017  0.1563 -0.1153  0.2020
  155MOL0     C20800   3.857   7.130   3.954  0.4628 -0.4073  0.1363
  155MOL0     C20801   3.728   7.210   3.981  0.1460  0.4387  0.2462
  155MOL0     C20802   3.617   7.114   3.945  0.6288  0.4809  0.3768
  155MOL0     C20803   3.477   7.186   3.952 -0.4548  0.1373  0.5044
  155MOL0     C20804   3.357   7.098   3.951  0.0804  0.3499 -0.1732
  155MOL0     C20805   3.222   7.171   3.976 -0.0476  0.2151 -0.5468
  155MOL0     C20806   3.161   7.229   3.849 -0.0249 -0.1021  1.3195
  155MOL0     N20807   3.031   7.298   3.869 -0.3992 -0.4298 -0.1860
  155MOL0     C20808   2.993   7.410   3.797  0.0757  0.9429  0.1148
  155MOL0     C20809   2.875   7.454   3.853  0.3147 -0.1338  0.2961
  155MOL0     C20810   2.793   7.575   3.829 -0.3963  0.1688 -0.3873
  155MOL0     C20811   2.670   7.549   3.753  0.2456 -0.5468 -0.4635
  155MOL0     C20812   2.587   7.685   3.738 -0.5040  0.3086 -0.1880
  155MOL0     C20813   2.464   7.666   3.652 -0.7673 -0.5490  0.5021
  155MOL0     O20814   2.400   7.795   3.641  0.8625  0.3810  0.2135
  155MOL0     C20815   2.273   7.791   3.582  1.0419 -0.3109  0.0606
  155MOL0     C20816   2.179   7.875   3.643 -0.4642  0.2779  0.4822
  155MOL0     C20817   2.042   7.880   3.611 -0.0699 -0.1987 -0.2079
  155MOL0     C20818   1.953   7.967   3.694  0.4913 -0.5260 -1.0845
  155MOL0     C20819   2.007   7.817   3.484 -0.3448  0.0343 -0.0098
  155MOL0     C20820   1.866   7.823   3.430 -0.4017 -0.2954  0.6930
  155MOL0     O20821   1.841   7.755   3.313  0.3342 -0.2142  0.0480
  155MOL0     C20822   1.703   7.726   3.304 -0.6432  0.3091 -0.3067
  155MOL0     C20823   1.627   7.810   3.217  0.3304 -0.8638  0.1146
  155MOL0     C20824   1.494   7.776   3.203  0.3224 -0.2322 -0.3737
  155MOL0     C20825   1.427   7.674   3.267 -0.7921  0.7159 -0.4385
  155MOL0     O20826   1.297   7.643   3.239  0.4214  0.0271 -0.5928
  155MOL0     C20827   1.225   7.554   3.323 -0.1462  0.0466 -0.1619
  155MOL0     C20828   1.084   7.548   3.263 -0.3436 -1.5383  0.5211
  155MOL0     C20829   0.975   7.487   3.353 -0.1775 -0.4708 -0.8871
  155MOL0     C20830   0.926   7.579   3.463  0.5350  0.3294  0.0891
  155MOL0     C20831   0.809   7.667   3.415 -0.1309 -0.2028  0.3421
  155MOL0     C20832   0.770   7.776   3.509 -1.0447  0.8349  0.9019
  155MOL0     C20833   0.647   7.852   3.462 -0.3858  0.1367 -0.3309
  155MOL0     C20834   0.677   7.935   3.335 -0.6661 -0.1429  0.1955
  155MOL0    Cl20835   0.780   8.086   3.389 -0.0589 -0.2262 -0.4117
  155MOL0     C20836   1.502   7.602   3.363 -1.0166 -0.4228 -0.2157
  155MOL0     C20837   1.643   7.618   3.375 -0.2744  0.2762  0.1063
  155MOL0     O20838   1.783   7.881   3.497  0.0182 -0.0342 -0.8106
  155MOL0     C20839   2.103   7.742   3.412 -0.1181  0.0130 -0.5401
  155MOL0     C20840   2.236   7.726   3.462 -0.3637 -0.8896  0.9280
  155MOL0     N20841   2.850   7.365   3.956  0.2235  0.4444  0.5719
  155MOL0     N20842   2.935   7.271   3.962 -0.1738  0.4341 -0.6841
  155MOL0     C20843   4.226   7.433   3.851  0.3561 -0.1108 -0.0898
  155MOL0     C20844   4.354   7.487   3.864 -0.6573 -0.2788 -0.8446
  155MOL0     C20845   4.787   7.511   4.054  1.0246  0.2767 -0.5067
  155MOL0     C20846   4.890   7.480   4.144 -0.5382  0.2758 -0.9950
  155MOL0     C20847   5.019   7.540   4.131 -0.1039 -0.2539 -0.0758
  155MOL0     C20848   5.040   7.628   4.025 -0.4057  0.7798  0.3422
  155MOL0     O20849   5.169   7.666   4.007 -0.1197 -0.4683  0.1331
  155MOL0     C20850   5.213   7.662   3.870 -0.7813 -0.4196  0.2447
  155MOL0     C20851   5.283   7.802   3.857  0.5370  0.2918  0.5212
  155MOL0     C20852   5.375   7.804   3.731  0.0387  1.3027 -0.1301
  155MOL0     C20853   5.283   7.787   3.606  0.0656  0.9221  0.0574
  155MOL0     C20854   5.185   7.894   3.591  0.2682 -0.1419 -0.6446
  155MOL0     C20855   5.125   7.990   3.563 -0.0864 -0.4164 -0.8450
  155MOL0     C20856   4.928   7.674   3.949 -0.7982  0.0477 -0.3371
  155MOL0     C20857   4.801   7.614   3.959 -0.1455 -0.5471  0.0826
  155MOL0     H20858   4.393   7.371   4.197 -2.3490 -1.1382  0.0189
  155MOL0     H20859   4.175   7.284   4.148 -1.2922  2.1632  1.3563
  155MOL0     H20860   4.053   7.115   4.040  1.6422  1.7297  2.1572
  155MOL0     H20861   3.944   7.245   4.107 -0.0691  0.5644 -0.2737
  155MOL0     H20862   3.869   7.101   3.849  0.4760  0.9928 -0.2654
  155MOL0     H20863   3.840   7.033   4.001 -2.3944 -0.2013 -0.2515
  155MOL0     H20864   3.724   7.227   4.089  0.1071  1.3822  0.1048
  155MOL0     H20865   3.722   7.303   3.924 -1.7260 -1.1128 -2.3935
  155MOL0     H20866   3.627   7.080   3.841 -1.6823 -0.1115  0.2945
  155MOL0     H20867   3.625   7.023   4.005 -2.0356 -2.1910 -2.8974
  155MOL0     H20868   3.480   7.244   4.045  1.8957  1.0573 -0.0786
  155MOL0     H20869   3.489   7.256   3.869  1.8321 -0.4714  0.2473
  155MOL0     H20870   3.349   7.042   3.857 -1.8521  0.8910 -0.3707
  155MOL0     H20871   3.361   7.030   4.037  3.6266  0.2578 -0.2763
  155MOL0     H20872   3.159   7.100   4.029  0.3293  1.0433  1.0972
  155MOL0     H20873   3.235   7.250   4.050  3.0459 -0.1315 -0.5788
  155MOL0     H20874   3.143   7.148   3.778  0.4553  0.4685  0.5322
  155MOL0     H20875   3.225   7.300   3.798 -0.5377 -0.9586 -0.6206
  155MOL0     H20876   3.046   7.465   3.720 -1.4250  1.3864 -0.6662
  155MOL0     H20877   2.768   7.631   3.919 -0.3759 -0.6420  0.1274
  155MOL0     H20878   2.867   7.627   3.767  0.0480 -0.6331 -0.5411
  155MOL0     H20879   2.606   7.478   3.805 -0.3896  0.5480  0.3043
  155MOL0     H20880   2.690   7.523   3.649 -0.1017  0.3771 -0.7724
  155MOL0     H20881   2.648   7.767   3.699 -1.6400  2.3685  2.1207
  155MOL0     H20882   2.539   7.719   3.830 -1.5104  1.4514 -1.1073
  155MOL0     H20883   2.388   7.600   3.694 -0.6407 -0.2369  1.2485
  155MOL0     H20884   2.504   7.633   3.557 -0.1315  2.0662 -0.2368
  155MOL0     H20885   2.194   7.920   3.741  1.3800  0.5144  0.1405
  155MOL0     H20886   1.939   8.071   3.664 -1.2009 -0.1282  0.8121
  155MOL0     H20887   1.859   7.917   3.723  1.1926 -0.2182  2.1730
  155MOL0     H20888   1.990   7.979   3.796  1.6925 -2.9062 -1.1849
  155MOL0     H20889   1.664   7.899   3.167 -0.4805 -0.3262  0.4312
  155MOL0     H20890   1.438   7.821   3.122 -4.0297 -1.0557  1.9051
  155MOL0     H20891   1.272   7.455   3.330  1.5077  0.7422 -0.9506
  155MOL0     H20892   1.236   7.603   3.420  2.8639  2.4669 -1.5537
  155MOL0     H20893   1.052   7.643   3.219  1.4457 -1.0587  0.1710
  155MOL0     H20894   1.083   7.485   3.173  0.6283 -1.0892  0.1777
  155MOL0     H20895   1.019   7.400   3.404  0.0609 -0.0400 -0.3551
  155MOL0     H20896   0.897   7.440   3.293 -1.0577  0.0100 -0.1361
  155MOL0     H20897   0.904   7.512   3.547  0.6009  0.8686  0.5473
  155MOL0     H20898   1.002   7.648   3.500  1.9370  0.6273 -3.1062
  155MOL0     H20899   0.725   7.600   3.397 -1.1599  0.6456  1.7247
  155MOL0     H20900   0.854   7.707   3.324  0.9456 -0.4651  0.7414
  155MOL0     H20901   0.749   7.727   3.605 -0.4682  1.0284  1.1332
  155MOL0     H20902   0.854   7.843   3.530  0.4015 -0.1556 -1.3517
  155MOL0     H20903   0.634   7.927   3.541  0.8013  1.4126 -1.3005
  155MOL0     H20904   0.565   7.784   3.438  0.8586 -1.0328 -1.3938
  155MOL0     H20905   0.581   7.967   3.294 -0.8215  0.4436  0.9991
  155MOL0     H20906   0.732   7.878   3.260  1.7751  3.1768 -0.7832
  155MOL0     H20907   1.460   7.520   3.423  1.8639 -0.5886  1.7751
  155MOL0     H20908   1.695   7.564   3.453  0.0711 -0.4297 -0.5976
  155MOL0     H20909   2.084   7.686   3.321  0.5414 -0.7321 -0.2325
  155MOL0     H20910   2.318   7.672   3.416  2.1060  1.9357  1.6803
  155MOL0     H20911   4.181   7.449   3.754 -2.3982 -0.0833  1.0983
  155MOL0     H20912   4.408   7.539   3.786  0.9935 -0.6816 -0.0184
  155MOL0     H20913   4.880   7.405   4.221  1.9238 -0.7844 -1.5987
  155MOL0     H20914   5.108   7.507   4.184  0.1473  1.2254  0.4989
  155MOL0     H20915   5.283   7.580   3.855 -1.6722 -0.7384 -2.8241
  155MOL0     H20916   5.139   7.650   3.790 -0.2878  0.2191 -0.3142
  155MOL0     H20917   5.348   7.826   3.942  0.5422  1.7268  0.1475
  155MOL0     H20918   5.206   7.880   3.856 -0.9394 -1.0234  3.1213
  155MOL0     H20919   5.452   7.727   3.739 -0.0556  1.1360 -0.8166
  155MOL0     H20920   5.431   7.896   3.713 -0.8688  1.6213 -1.4329
  155MOL0     H20921   5.235   7.688   3.605  1.1179  0.3842  0.8744
  155MOL0     H20922   5.343   7.777   3.515  3.9202 -2.1050  2.5676
  155MOL0     H20923   5.075   8.079   3.530  0.5956  0.2120 -0.2053
  155MOL0     H20924   4.941   7.758   3.883 -1.1813  0.4534  0.0954
  155MOL0     H20925   4.727   7.644   3.886 -0.3318  0.7958  0.7841
  156MOL0     O20926   4.542   6.055   2.855  0.3788 -0.2730 -0.2965
  156MOL0     C20927   4.532   5.936   2.882  0.3644 -0.5549 -0.0227
  156MOL0     O20928   4.436   5.885   2.967 -0.1706  0.7067 -0.0765
  156MOL0     C20929   4.347   5.977   3.012  0.3009 -0.2447  0.2982
  156MOL0     C20930   4.385   6.071   3.104 -0.3062 -0.1080 -0.1484
  156MOL0     C20931   4.292   6.162   3.160  0.8614 -0.5230 -0.1022
  156MOL0     C20932   4.149   6.141   3.143 -0.4718 -0.1798 -0.1151
  156MOL0     O20933   4.051   6.216   3.206  0.5395  0.5385 -0.2159
  156MOL0     C20934   4.093   6.285   3.323  0.8877  0.0052  0.3846
  156MOL0     C20935   3.978   6.366   3.379  0.4001  0.0805 -0.0138
  156MOL0     C20936   3.911   6.465   3.282 -0.5481  0.2294 -0.5528
  156MOL0     C20937   3.775   6.506   3.333 -0.3851  0.0984 -0.0479
  156MOL0     C20938   3.690   6.564   3.222  0.7955 -0.1764  1.5854
  156MOL0     C20939   3.543   6.597   3.271 -0.3624 -0.1816  0.5516
  156MOL0     C20940   3.451   6.481   3.277 -0.2458  1.2521  0.4261
  156MOL0     C20941   3.309   6.527   3.304 -0.4847  0.2490 -0.3777
  156MOL0     N20942   3.247   6.587   3.186  0.1467  0.2541  0.1277
  156MOL0     C20943   3.279   6.576   3.052  0.2503  0.1902 -0.6092
  156MOL0     C20944   3.171   6.626   2.985 -0.1711  0.2329 -0.0580
  156MOL0     C20945   3.177   6.627   2.840 -0.6649 -0.1001  0.5733
  156MOL0     C20946   3.183   6.490   2.779 -0.1718  0.0283  0.3838
  156MOL0     C20947   3.052   6.413   2.810 -0.1086  0.3974 -0.9165
  156MOL0     C20948   2.939   6.461   2.719 -0.7778 -0.3383 -0.1742
  156MOL0     O20949   2.967   6.415   2.582  1.2461 -0.0404  0.0080
  156MOL0     C20950   2.870   6.462   2.495 -0.4174 -1.0110  0.2861
  156MOL0     C20951   2.895   6.446   2.362 -0.3034  0.8700 -0.2030
  156MOL0     C20952   2.807   6.480   2.257 -0.2718  0.0567 -0.2132
  156MOL0     C20953   2.838   6.439   2.113 -0.3662  0.2914  0.3632
  156MOL0     C20954   2.683   6.545   2.290  0.9410 -0.2197 -0.1017
  156MOL0     C20955   2.585   6.599   2.196  0.5004  0.1601  0.6150
  156MOL0     O20956   2.450   6.604   2.236 -0.1528 -0.1782  1.1774
  156MOL0     C20957   2.354   6.631   2.139 -0.6487 -0.4899  0.5032
  156MOL0     C20958   2.293   6.518   2.076  0.3171  0.3598  0.4428
  156MOL0     C20959   2.196   6.545   1.972 -0.5585 -0.4156 -0.6175
  156MOL0     C20960   2.163   6.673   1.938  0.0551  1.7373 -0.7023
  156MOL0     O20961   2.086   6.685   1.828 -0.4119 -0.3099  0.6202
  156MOL0     C20962   2.022   6.810   1.800  0.3761 -0.0114  0.5100
  156MOL0     C20963   1.913   6.793   1.693  0.2127  0.0202 -0.0348
  156MOL0     C20964   1.818   6.678   1.730 -0.1627 -0.1504  0.5084
  156MOL0     C20965   1.715   6.654   1.619  0.3849 -0.1434  0.6951
  156MOL0     C20966   1.671   6.507   1.606 -0.9895  0.5922 -0.4353
  156MOL0     C20967   1.559   6.484   1.495  1.2678  0.2687 -0.1380
  156MOL0     C20968   1.433   6.574   1.512 -0.4085 -0.9446 -0.1429
  156MOL0     C20969   1.306   6.524   1.452 -0.0322 -0.4530  0.0366
  156MOL0    Cl20970   1.179   6.626   1.519 -0.1246  0.4778 -0.0806
  156MOL0     C20971   2.221   6.783   2.011 -0.3663 -0.3233  0.3002
  156MOL0     C20972   2.315   6.762   2.105 -1.2190 -0.7950  0.2076
  156MOL0     O20973   2.619   6.628   2.082 -1.1999  0.6330  0.5135
  156MOL0     C20974   2.664   6.564   2.427  0.0491 -0.3299 -0.3005
  156MOL0     C20975   2.750   6.529   2.530  0.4253  0.0131  0.5338
  156MOL0     N20976   3.084   6.666   3.083  0.4396  0.1112  0.4228
  156MOL0     N20977   3.127   6.647   3.200  0.0627  0.3830  0.0539
  156MOL0     C20978   4.107   6.025   3.062 -0.8697 -0.5863 -0.1866
  156MOL0     C20979   4.208   5.959   2.990 -0.0905 -0.7791 -0.0859
  156MOL0     C20980   4.641   5.853   2.830 -0.3660  0.0545  1.0491
  156MOL0     C20981   4.634   5.712   2.862  0.3160 -0.4229  0.1931
  156MOL0     C20982   4.743   5.631   2.830 -0.3563 -0.3359 -0.5570
  156MOL0     C20983   4.855   5.689   2.779  0.6429 -0.6472  0.2308
  156MOL0     O20984   4.965   5.612   2.756 -0.1759  0.0004  0.3469
  156MOL0     C20985   5.097   5.666   2.722 -0.7942  0.6196 -0.1066
  156MOL0     C20986   5.189   5.547   2.724 -0.4247 -0.6518 -0.2972
  156MOL0     C20987   5.184   5.464   2.589  0.4798  0.6181  0.0544
  156MOL0     C20988   5.299   5.358   2.566 -0.4852  0.3369  0.6019
  156MOL0     C20989   5.432   5.419   2.578  0.8678 -0.6333  0.6647
  156MOL0     C20990   5.531   5.483   2.604 -0.3731  0.6733 -0.2365
  156MOL0     C20991   4.858   5.826   2.732  0.3168  0.5377 -0.6017
  156MOL0     C20992   4.754   5.911   2.757 -0.0401 -0.6720 -0.3252
  156MOL0     H20993   4.487   6.083   3.138 -0.6682 -0.7472  1.2291
  156MOL0     H20994   4.330   6.252   3.207 -0.7733  1.7932 -2.8612
  156MOL0     H20995   4.124   6.215   3.401 -0.7868 -0.0567  1.0436
  156MOL0     H20996   4.170   6.359   3.302  0.8408  0.4989  1.8240
  156MOL0     H20997   3.900   6.299   3.415  0.3605  0.7707  1.2250
  156MOL0     H20998   4.009   6.423   3.467 -1.5360  1.1286  0.0479
  156MOL0     H20999   3.975   6.553   3.271  1.3701 -0.4664  3.2109
  156MOL0     H21000   3.899   6.417   3.184  2.1468  1.0854 -1.3884
  156MOL0     H21001   3.718   6.417   3.362 -1.4437  1.1457  1.1751
  156MOL0     H21002   3.779   6.568   3.422  1.0368 -1.9340  1.3969
  156MOL0     H21003   3.727   6.658   3.180  2.7920 -2.3489 -2.0408
  156MOL0     H21004   3.681   6.503   3.132  3.4708 -0.1496  1.2121
  156MOL0     H21005   3.548   6.649   3.367 -0.0188 -0.6095  0.7674
  156MOL0     H21006   3.509   6.668   3.194 -0.6971 -0.9264  0.0015
  156MOL0     H21007   3.448   6.411   3.194  2.7667  0.8162  0.5686
  156MOL0     H21008   3.489   6.422   3.361 -1.2045 -1.0938 -0.7235
  156MOL0     H21009   3.310   6.597   3.387  2.4445 -0.5489  0.3821
  156MOL0     H21010   3.252   6.437   3.331 -0.4600 -0.8294 -3.4876
  156MOL0     H21011   3.359   6.520   3.005 -2.8620 -3.8415 -1.7059
  156MOL0     H21012   3.097   6.692   2.802 -1.1516  0.6565  2.7327
  156MOL0     H21013   3.267   6.674   2.800 -0.4071 -1.2716 -0.2981
  156MOL0     H21014   3.262   6.432   2.827  0.8231  0.3951 -0.7760
  156MOL0     H21015   3.219   6.497   2.676  3.5674 -0.2434  1.5165
  156MOL0     H21016   3.032   6.424   2.917  0.4023  0.7103 -0.8465
  156MOL0     H21017   3.067   6.304   2.804  3.4177  0.6711  0.1490
  156MOL0     H21018   2.926   6.569   2.716  1.4352 -0.0510 -2.0115
  156MOL0     H21019   2.843   6.427   2.759 -1.7461  0.0491 -2.0931
  156MOL0     H21020   2.990   6.395   2.345 -0.4378 -0.4730  2.6212
  156MOL0     H21021   2.757   6.383   2.067  0.2375  0.1795 -0.5826
  156MOL0     H21022   2.839   6.528   2.050 -5.5606 -1.7280 -3.2242
  156MOL0     H21023   2.929   6.381   2.099 -0.6233  0.4548 -2.4853
  156MOL0     H21024   2.336   6.424   2.111  0.0304  1.0181  2.7456
  156MOL0     H21025   2.159   6.459   1.918 -0.3301  0.1172 -1.6622
  156MOL0     H21026   1.974   6.843   1.893 -3.3741 -1.7185 -0.6105
  156MOL0     H21027   2.089   6.889   1.764 -2.4520  1.7094 -1.3738
  156MOL0     H21028   1.862   6.888   1.676  5.4460  3.5089  1.2854
  156MOL0     H21029   1.969   6.760   1.605 -0.7667  1.0748 -1.0657
  156MOL0     H21030   1.770   6.676   1.829  3.0483  0.7808  2.2087
  156MOL0     H21031   1.882   6.590   1.743  0.1458 -0.1942 -1.0433
  156MOL0     H21032   1.622   6.712   1.632 -1.2550 -2.3092 -0.6833
  156MOL0     H21033   1.755   6.687   1.523  0.5523 -3.2789 -0.4332
  156MOL0     H21034   1.639   6.473   1.705  0.7876  0.4633  0.1361
  156MOL0     H21035   1.762   6.449   1.587 -0.9354  0.0553  1.2595
  156MOL0     H21036   1.589   6.484   1.390  0.1728 -2.1795 -0.5207
  156MOL0     H21037   1.522   6.383   1.516  0.8397  1.0673  3.8288
  156MOL0     H21038   1.459   6.667   1.460 -0.2641 -0.2680  1.1223
  156MOL0     H21039   1.408   6.592   1.617 -1.3913 -2.9763  0.0031
  156MOL0     H21040   1.291   6.422   1.489  0.1919  0.1515  1.9061
  156MOL0     H21041   1.315   6.527   1.343  0.7265 -1.4098  0.0503
  156MOL0     H21042   2.208   6.888   1.986 -1.1208 -0.2587  0.9212
  156MOL0     H21043   2.349   6.849   2.160 -0.8052  0.6289 -2.2007
  156MOL0     H21044   2.575   6.616   2.460  0.0712 -0.2904 -0.3042
  156MOL0     H21045   2.731   6.548   2.635  1.1520 -0.8816  0.8402
  156MOL0     H21046   4.001   6.005   3.049 -0.7956 -0.0453 -1.9022
  156MOL0     H21047   4.187   5.877   2.922  2.1018 -0.6256 -1.0389
  156MOL0     H21048   4.543   5.680   2.911 -0.4575 -0.3767 -1.1447
  156MOL0     H21049   4.753   5.528   2.860 -1.9182 -0.4760 -0.4582
  156MOL0     H21050   5.119   5.708   2.623  3.5398  1.3376  0.9387
  156MOL0     H21051   5.138   5.733   2.798  1.4074  0.5304 -1.1230
  156MOL0     H21052   5.150   5.485   2.805 -1.0168 -0.1028 -0.1521
  156MOL0     H21053   5.292   5.572   2.751  0.6606 -4.2951 -0.4152
  156MOL0     H21054   5.186   5.520   2.494  3.4250 -1.4355 -1.2703
  156MOL0     H21055   5.093   5.404   2.592  0.6839  0.2230 -0.9621
  156MOL0     H21056   5.272   5.325   2.466 -0.4413 -0.6827  0.9224
  156MOL0     H21057   5.293   5.271   2.632 -0.6711 -0.6597 -0.6914
  156MOL0     H21058   5.629   5.522   2.624 -0.1405  0.7213 -1.4132
  156MOL0     H21059   4.944   5.875   2.689  1.3079  1.0310  1.7656
  156MOL0     H21060   4.745   6.016   2.731  1.0796 -0.4893 -0.0236
  157MOL0     O21061   8.659   4.047   7.774  0.0728 -0.6530 -0.8321
  157MOL0     C21062   8.688   3.947   7.720  0.5376  0.1212 -0.2683
  157MOL0     O21063   8.628   3.872   7.617 -0.1734 -0.3092 -0.3344
  157MOL0     C21064   8.519   3.910   7.545  0.1827  0.4139 -0.0092
  157MOL0     C21065   8.412   3.998   7.579  0.1513 -0.2406 -0.2839
  157MOL0     C21066   8.303   4.025   7.491 -0.7052  0.8028 -0.4107
  157MOL0     C21067   8.310   3.968   7.357 -0.5269  0.1173 -1.4601
  157MOL0     O21068   8.211   3.983   7.266  0.1745  0.1978  0.0762
  157MOL0     C21069   8.114   4.082   7.296  0.4293 -0.2821  0.4949
  157MOL0     C21070   8.025   4.098   7.170 -0.0552  0.1384  0.1174
  157MOL0     C21071   7.881   4.135   7.216 -0.3417  0.0724 -0.7711
  157MOL0     C21072   7.793   4.102   7.095  0.3125 -0.6344  0.7913
  157MOL0     C21073   7.643   4.127   7.106 -0.1860 -0.5385 -0.0886
  157MOL0     C21074   7.563   4.076   6.992 -0.2369 -0.0926 -0.4041
  157MOL0     C21075   7.409   4.090   7.028 -0.0170 -0.6118 -0.0268
  157MOL0     C21076   7.325   4.018   6.924  0.9258 -0.4359 -1.2018
  157MOL0     N21077   7.187   4.071   6.913 -0.2055 -0.2487 -0.2415
  157MOL0     C21078   7.086   4.073   7.011  0.1486 -0.5335 -0.8610
  157MOL0     C21079   6.981   4.127   6.945  0.1022  0.7078 -0.1896
  157MOL0     C21080   6.846   4.141   7.013 -0.9540  0.1088 -0.6404
  157MOL0     C21081   6.739   4.201   6.916 -0.4941  0.5349 -1.2843
  157MOL0     C21082   6.681   4.100   6.822 -0.2650 -0.1579  0.7444
  157MOL0     C21083   6.557   4.153   6.761  0.0956  0.1391 -0.1077
  157MOL0     O21084   6.457   4.147   6.866 -0.0677 -0.2614 -0.5801
  157MOL0     C21085   6.328   4.147   6.818  0.5262  0.2259  1.2272
  157MOL0     C21086   6.243   4.235   6.872  0.0682 -0.3229  0.3381
  157MOL0     C21087   6.113   4.259   6.816 -0.1294 -1.0373  0.0813
  157MOL0     C21088   6.036   4.370   6.873  0.1531  0.0037  0.7253
  157MOL0     C21089   6.071   4.177   6.714  0.5957 -0.0264  0.1029
  157MOL0     C21090   5.933   4.184   6.648 -0.2107 -0.1115  0.0789
  157MOL0     O21091   5.882   4.064   6.607  0.1677 -0.4090 -0.0223
  157MOL0     C21092   5.781   4.072   6.516 -1.0423  0.0510  0.4420
  157MOL0     C21093   5.802   4.025   6.386 -0.3407 -0.3367 -0.6526
  157MOL0     C21094   5.716   4.043   6.280 -0.2004  0.6258 -0.2425
  157MOL0     C21095   5.590   4.102   6.313 -0.4348 -0.6983 -0.1969
  157MOL0     O21096   5.502   4.119   6.210 -0.4597 -0.0332 -0.2831
  157MOL0     C21097   5.396   4.217   6.217 -0.1527  1.4004 -0.6742
  157MOL0     C21098   5.347   4.267   6.075 -0.7330  0.2341 -1.0924
  157MOL0     C21099   5.289   4.144   6.002  0.0195  0.4508 -0.0882
  157MOL0     C21100   5.236   4.192   5.875 -0.6251 -0.2022  1.0031
  157MOL0     C21101   5.197   4.080   5.765 -1.3704  0.7987  0.2050
  157MOL0     C21102   5.125   4.136   5.638 -0.4361  0.0437 -0.5582
  157MOL0     C21103   5.217   4.212   5.539  0.1696  0.5158 -0.1384
  157MOL0     C21104   5.320   4.135   5.464 -0.4176  0.5345 -0.0877
  157MOL0    Cl21105   5.232   4.011   5.389  0.2196  0.0894 -0.0716
  157MOL0     C21106   5.570   4.151   6.439  0.6012 -0.2360  0.2286
  157MOL0     C21107   5.666   4.137   6.541  1.2043  0.1719  0.3018
  157MOL0     O21108   5.878   4.296   6.627 -0.0753  0.2580 -0.2092
  157MOL0     C21109   6.157   4.075   6.659  0.1913 -0.3923 -0.0742
  157MOL0     C21110   6.287   4.064   6.710  0.3086  0.0203  0.2887
  157MOL0     N21111   7.018   4.146   6.808  0.6865 -0.0746  0.2342
  157MOL0     N21112   7.141   4.120   6.795  0.2074 -0.3003 -0.3318
  157MOL0     C21113   8.414   3.885   7.321 -0.6211  0.1475 -0.8288
  157MOL0     C21114   8.509   3.847   7.413  0.1763 -0.5864  0.1300
  157MOL0     C21115   8.809   3.889   7.779  0.1672  0.3587  0.8170
  157MOL0     C21116   8.876   3.775   7.724  0.8442 -0.7208 -0.8017
  157MOL0     C21117   8.998   3.724   7.775 -0.2008 -0.0611  0.2986
  157MOL0     C21118   9.059   3.788   7.884  0.3493 -0.7581  0.2475
  157MOL0     O21119   9.175   3.737   7.929 -0.3728  0.1635  0.4197
  157MOL0     C21120   9.233   3.613   7.880 -0.4029 -0.2725  0.2054
  157MOL0     C21121   9.373   3.600   7.932 -0.1914 -0.3988  0.5905
  157MOL0     C21122   9.466   3.515   7.850  0.8304  0.2076  0.7326
  157MOL0     C21123   9.602   3.547   7.908  0.7813  0.1242 -0.9333
  157MOL0     C21124   9.698   3.462   7.843  0.0227 -0.6073 -0.1002
  157MOL0     C21125   9.780   3.411   7.777  0.0931 -1.1369 -0.4646
  157MOL0     C21126   8.998   3.901   7.939 -0.4957  0.3626 -0.3044
  157MOL0     C21127   8.873   3.947   7.899  0.7702  0.3944  0.1763
  157MOL0     H21128   8.410   4.051   7.673  1.2719 -0.0070 -0.3739
  157MOL0     H21129   8.221   4.085   7.530 -0.0578 -0.0452  2.4952
  157MOL0     H21130   8.056   4.049   7.383  1.4007  0.8530  1.6151
  157MOL0     H21131   8.158   4.177   7.327 -0.8065  0.2787  0.5889
  157MOL0     H21132   8.056   4.186   7.113 -0.3798  0.9421  1.1447
  157MOL0     H21133   8.028   4.008   7.107  1.8720  0.3401 -0.1498
  157MOL0     H21134   7.841   4.076   7.299 -1.7794 -0.1792 -1.6095
  157MOL0     H21135   7.877   4.241   7.242 -0.8469  0.5831 -2.7340
  157MOL0     H21136   7.839   4.140   7.003  1.4612 -3.1882  0.2072
  157MOL0     H21137   7.799   3.993   7.084  1.2446 -0.4745 -0.5991
  157MOL0     H21138   7.611   4.064   7.189 -1.0520  0.7214  0.5532
  157MOL0     H21139   7.627   4.230   7.137  0.9553 -1.4146  4.0766
  157MOL0     H21140   7.598   4.122   6.900 -0.9482  0.0592 -0.6089
  157MOL0     H21141   7.582   3.970   6.972  1.6057  0.7310 -3.6098
  157MOL0     H21142   7.389   4.044   7.125 -0.0162  0.5393  0.5466
  157MOL0     H21143   7.376   4.194   7.019 -0.0874 -0.4532  1.6821
  157MOL0     H21144   7.322   3.912   6.950 -2.0502 -0.8357 -2.7421
  157MOL0     H21145   7.375   4.019   6.827  3.2767 -1.0011 -0.0660
  157MOL0     H21146   7.091   4.062   7.119 -1.3739  0.3321 -0.6701
  157MOL0     H21147   6.821   4.046   7.060  1.4658 -0.7305 -0.9360
  157MOL0     H21148   6.862   4.209   7.097  1.1855  1.4066 -1.9919
  157MOL0     H21149   6.784   4.290   6.870  2.1823 -0.5985 -1.0900
  157MOL0     H21150   6.660   4.242   6.979  0.2641 -1.2677  0.9836
  157MOL0     H21151   6.654   4.017   6.888 -3.3021  0.7465  0.7501
  157MOL0     H21152   6.760   4.078   6.749 -0.5214  0.0929  0.3886
  157MOL0     H21153   6.533   4.101   6.668 -0.4664 -0.3911  0.3261
  157MOL0     H21154   6.561   4.255   6.723 -0.3398 -0.2070 -1.1400
  157MOL0     H21155   6.273   4.301   6.952 -0.9558 -0.7894  1.1214
  157MOL0     H21156   5.932   4.338   6.885  0.1336 -0.5841 -0.8013
  157MOL0     H21157   6.079   4.419   6.961  3.9122 -0.7526 -0.5039
  157MOL0     H21158   6.043   4.448   6.797  2.7494 -2.1837 -1.4765
  157MOL0     H21159   5.893   3.974   6.356 -1.0765 -1.6122 -0.7669
  157MOL0     H21160   5.732   4.026   6.174  1.1268  0.0325  0.0395
  157MOL0     H21161   5.324   4.182   6.292  2.7298 -0.4222  1.4464
  157MOL0     H21162   5.445   4.305   6.260  1.5495  0.4430 -0.5658
  157MOL0     H21163   5.277   4.350   6.085  0.3851  1.0248  0.8739
  157MOL0     H21164   5.436   4.308   6.027 -0.4396  0.0879 -0.6824
  157MOL0     H21165   5.205   4.106   6.062 -1.4384  1.7106 -1.2392
  157MOL0     H21166   5.366   4.067   5.991 -0.2020 -0.1226  1.9922
  157MOL0     H21167   5.148   4.257   5.883  3.3014  6.4152 -1.3729
  157MOL0     H21168   5.308   4.254   5.821  0.3665 -3.2783 -1.5283
  157MOL0     H21169   5.126   4.008   5.808 -0.2083 -0.1552  0.5707
  157MOL0     H21170   5.286   4.023   5.737  0.0387  2.5659  0.9174
  157MOL0     H21171   5.081   4.048   5.591 -0.1519 -1.7691  2.3546
  157MOL0     H21172   5.045   4.206   5.662  0.3248  0.9843 -0.6662
  157MOL0     H21173   5.256   4.300   5.590 -0.9107  1.4020 -0.8033
  157MOL0     H21174   5.147   4.250   5.464 -0.6102 -0.7718 -0.0975
  157MOL0     H21175   5.392   4.083   5.528 -1.7050  0.9377  1.7314
  157MOL0     H21176   5.381   4.197   5.397 -0.9496  3.1635  1.7315
  157MOL0     H21177   5.477   4.203   6.462  1.9266  0.8219  3.8887
  157MOL0     H21178   5.654   4.185   6.638  1.4445  0.5931  0.1292
  157MOL0     H21179   6.123   4.012   6.578 -0.7419 -2.0680  1.5518
  157MOL0     H21180   6.361   3.986   6.694  0.7484  0.2743  1.0333
  157MOL0     H21181   8.417   3.843   7.221  4.0360 -3.2311  0.3697
  157MOL0     H21182   8.591   3.780   7.391  2.2383  0.8889  2.7618
  157MOL0     H21183   8.830   3.729   7.637 -1.8507  0.4035 -0.0846
  157MOL0     H21184   9.039   3.641   7.719  0.4992  1.2663 -1.2162
  157MOL0     H21185   9.183   3.518   7.901  0.1924 -0.3630  1.2581
  157MOL0     H21186   9.237   3.620   7.771 -0.0154 -2.5064  0.0255
  157MOL0     H21187   9.365   3.573   8.038 -0.7987 -1.3702  0.3066
  157MOL0     H21188   9.412   3.702   7.939 -3.5137  1.0089  0.9862
  157MOL0     H21189   9.471   3.545   7.745  1.5425 -1.0876  0.3823
  157MOL0     H21190   9.432   3.411   7.858 -0.6067  0.4436 -1.3309
  157MOL0     H21191   9.598   3.525   8.015  2.4086  0.3847 -0.7971
  157MOL0     H21192   9.637   3.651   7.914  1.0653 -0.0483  1.8703
  157MOL0     H21193   9.851   3.378   7.702  0.1660 -2.8430  0.3041
  157MOL0     H21194   9.043   3.961   8.016  1.5299  2.1482 -2.6975
  157MOL0     H21195   8.820   4.027   7.949 -0.8252 -1.5060  1.6745
  158MOL0     O21196   7.668   0.288   7.524  0.2308 -0.2647  0.1170
  158MOL0     C21197   7.759   0.253   7.447  0.3950 -0.1622  0.3738
  158MOL0     O21198   7.741   0.245   7.311  0.4537  0.6768 -0.4083
  158MOL0     C21199   7.635   0.281   7.235  0.0561  0.3844 -0.7335
  158MOL0     C21200   7.546   0.379   7.256 -0.4277  0.5268 -0.6758
  158MOL0     C21201   7.449   0.406   7.161 -0.0863  0.5124  0.2342
  158MOL0     C21202   7.451   0.342   7.038  0.0314 -0.3272  0.1248
  158MOL0     O21203   7.350   0.370   6.939 -0.1652 -0.0811 -0.0958
  158MOL0     C21204   7.223   0.430   6.972  0.1697  0.9574  0.2434
  158MOL0     C21205   7.139   0.393   6.846 -0.3343  0.4555 -0.0131
  158MOL0     C21206   7.004   0.454   6.851  0.0380  0.0962 -0.2061
  158MOL0     C21207   6.902   0.381   6.757 -0.2511  0.0502  0.3332
  158MOL0     C21208   6.745   0.415   6.774  0.5962  0.3145  0.9370
  158MOL0     C21209   6.657   0.367   6.660  0.3561 -0.0007  0.3959
  158MOL0     C21210   6.507   0.375   6.682 -0.4971  0.9543  0.7115
  158MOL0     C21211   6.459   0.516   6.718 -0.1693  0.1522  0.1124
  158MOL0     N21212   6.317   0.538   6.737 -0.2464  0.9389 -0.7702
  158MOL0     C21213   6.229   0.455   6.817 -0.9574 -0.8627  0.1071
  158MOL0     C21214   6.107   0.499   6.789  1.3684 -0.5166 -0.5024
  158MOL0     C21215   5.981   0.440   6.850 -0.1157  0.1109 -0.3059
  158MOL0     C21216   5.845   0.455   6.781  0.0433 -0.4375 -0.9663
  158MOL0     C21217   5.737   0.403   6.868  0.0807 -1.0600  0.1588
  158MOL0     C21218   5.606   0.421   6.787 -0.1305 -0.0726  0.0681
  158MOL0     O21219   5.578   0.566   6.778  1.1574  0.5118 -0.0551
  158MOL0     C21220   5.454   0.606   6.732 -0.2508 -0.3512 -0.1649
  158MOL0     C21221   5.428   0.740   6.703  0.0817 -0.2597  0.2769
  158MOL0     C21222   5.307   0.788   6.660 -0.2665  1.3960 -0.5618
  158MOL0     C21223   5.287   0.932   6.650 -0.1681  0.3462  0.0848
  158MOL0     C21224   5.205   0.695   6.634  0.2628 -0.2488 -0.5482
  158MOL0     C21225   5.074   0.726   6.579 -0.2967  0.2202  0.5507
  158MOL0     O21226   4.972   0.646   6.612 -0.3136 -0.3971  0.0027
  158MOL0     C21227   4.866   0.647   6.528  1.1400  0.1367 -0.3237
  158MOL0     C21228   4.744   0.720   6.557 -0.1934  1.0070  0.1394
  158MOL0     C21229   4.623   0.704   6.483 -0.2503 -0.1565 -0.5321
  158MOL0     C21230   4.630   0.640   6.365  0.3110  0.3535 -0.0015
  158MOL0     O21231   4.522   0.642   6.277  0.0462 -0.2868  1.1097
  158MOL0     C21232   4.540   0.601   6.148 -0.6377 -0.1935  0.1093
  158MOL0     C21233   4.411   0.613   6.064  0.1255  0.1114 -0.0183
  158MOL0     C21234   4.347   0.748   6.069  0.3838 -0.3064  0.1326
  158MOL0     C21235   4.232   0.753   5.974  0.1784 -0.6246  0.2981
  158MOL0     C21236   4.152   0.885   5.995 -0.5906  0.5495 -0.1888
  158MOL0     C21237   4.213   0.993   5.905  0.7100 -0.3732 -0.7015
  158MOL0     C21238   4.134   1.117   5.939  0.0900  0.3817 -1.2201
  158MOL0     C21239   4.127   1.218   5.825  0.0813  0.4112  0.1267
  158MOL0    Cl21240   4.021   1.170   5.691  0.1644  0.1313  0.0962
  158MOL0     C21241   4.756   0.578   6.327 -0.1070 -0.0711  0.5592
  158MOL0     C21242   4.871   0.573   6.410 -0.3279 -0.3997 -0.6933
  158MOL0     O21243   5.072   0.816   6.494  1.1423 -0.2116 -0.2535
  158MOL0     C21244   5.224   0.552   6.658 -0.7180 -0.2349 -0.2050
  158MOL0     C21245   5.344   0.518   6.710 -0.6958  0.6474 -0.4801
  158MOL0     N21246   6.118   0.603   6.704 -0.4343  0.6119  0.2205
  158MOL0     N21247   6.240   0.628   6.683  0.0105 -0.1030  0.8976
  158MOL0     C21248   7.532   0.234   7.017  0.6756 -0.2627  0.3605
  158MOL0     C21249   7.627   0.212   7.118 -0.3497 -0.1315  0.3998
  158MOL0     C21250   7.886   0.216   7.499 -0.2171  0.9275 -0.7176
  158MOL0     C21251   7.912   0.222   7.645 -0.4087  0.2763 -0.1629
  158MOL0     C21252   8.039   0.195   7.702  0.2018  0.6633  0.4315
  158MOL0     C21253   8.148   0.164   7.619  0.0614  0.2622 -0.6963
  158MOL0     O21254   8.273   0.137   7.659  0.3327 -0.1214 -0.0628
  158MOL0     C21255   8.293   0.090   7.788 -0.5381 -0.2579  0.0919
  158MOL0     C21256   8.437   0.036   7.803 -0.3421  0.7078 -0.2222
  158MOL0     C21257   8.458   0.006   7.952 -0.8245 -0.2374  0.2367
  158MOL0     C21258   8.608  -0.023   7.979 -0.3903 -0.0797  0.1393
  158MOL0     C21259   8.678  -0.103   7.878  0.2572 -0.1983  0.2343
  158MOL0     C21260   8.726  -0.168   7.789  0.5535  0.3283  0.9898
  158MOL0     C21261   8.122   0.166   7.478 -0.4196  0.2015  0.3917
  158MOL0     C21262   7.995   0.184   7.415  1.1441 -0.4216 -0.1125
  158MOL0     H21263   7.540   0.428   7.353 -1.0372 -3.4347  1.4758
  158MOL0     H21264   7.385   0.489   7.188  1.1452  1.1253  1.4232
  158MOL0     H21265   7.178   0.396   7.065  0.7893  0.3842  0.3446
  158MOL0     H21266   7.251   0.535   6.983  0.6405  0.9499 -0.7359
  158MOL0     H21267   7.185   0.429   6.754 -0.4678 -1.6491 -0.9821
  158MOL0     H21268   7.117   0.285   6.845  0.4112  0.2937  0.1030
  158MOL0     H21269   6.970   0.444   6.954  0.4140 -3.4092 -0.3028
  158MOL0     H21270   7.017   0.562   6.839 -1.2931  0.2014 -0.9844
  158MOL0     H21271   6.938   0.417   6.660 -0.3019  0.2153  0.3758
  158MOL0     H21272   6.915   0.273   6.746  0.7750  0.3629 -2.3538
  158MOL0     H21273   6.705   0.373   6.867 -1.0160  0.4849  0.3392
  158MOL0     H21274   6.720   0.521   6.779 -0.6959 -0.0103  2.1480
  158MOL0     H21275   6.677   0.428   6.571  0.1105 -1.8771 -0.9919
  158MOL0     H21276   6.677   0.262   6.642  1.3481  0.1439  0.6173
  158MOL0     H21277   6.456   0.342   6.591 -0.6595 -1.6902  1.7045
  158MOL0     H21278   6.475   0.310   6.763  0.7857 -0.3862  0.1987
  158MOL0     H21279   6.485   0.579   6.632  3.7307 -0.1439  0.8604
  158MOL0     H21280   6.504   0.553   6.811 -3.2811  0.3225  1.6693
  158MOL0     H21281   6.259   0.388   6.897  1.9456  2.0013  1.6778
  158MOL0     H21282   5.996   0.333   6.870 -0.4160 -0.8487 -4.4268
  158MOL0     H21283   5.967   0.488   6.948  2.5388  0.5320 -0.0704
  158MOL0     H21284   5.847   0.410   6.682  1.4060  1.9891 -2.1361
  158MOL0     H21285   5.834   0.563   6.768 -0.2618  0.1878  3.1170
  158MOL0     H21286   5.730   0.466   6.957  1.5915  0.6052 -0.8369
  158MOL0     H21287   5.756   0.298   6.889 -0.3325 -1.0958  0.3592
  158MOL0     H21288   5.534   0.366   6.848  1.5859 -1.8319  0.6122
  158MOL0     H21289   5.615   0.384   6.685 -1.3530  3.2261 -1.3620
  158MOL0     H21290   5.512   0.809   6.709 -0.4053  0.4546 -0.6714
  158MOL0     H21291   5.288   0.976   6.550 -2.0027  4.1823  1.5652
  158MOL0     H21292   5.191   0.957   6.696 -0.9595 -0.7637 -0.9046
  158MOL0     H21293   5.369   0.977   6.708 -0.2159  0.9702 -0.3216
  158MOL0     H21294   4.754   0.792   6.638  0.9561 -0.5702  1.4794
  158MOL0     H21295   4.531   0.752   6.515 -0.0093 -0.8298  1.2451
  158MOL0     H21296   4.623   0.665   6.118  1.3703 -0.6541  4.0177
  158MOL0     H21297   4.576   0.499   6.135  0.6361  0.3495 -0.8329
  158MOL0     H21298   4.443   0.589   5.962 -2.0288  0.5684 -0.8426
  158MOL0     H21299   4.342   0.536   6.099  2.5357 -2.9590 -1.3958
  158MOL0     H21300   4.415   0.830   6.047  0.0052  0.3374  1.3055
  158MOL0     H21301   4.307   0.765   6.169 -3.9388 -2.4424 -0.9962
  158MOL0     H21302   4.278   0.762   5.875 -1.7064 -2.9140 -0.8933
  158MOL0     H21303   4.159   0.671   5.984  1.6486 -1.8898  1.1031
  158MOL0     H21304   4.152   0.911   6.101  2.8529  0.1677  0.0437
  158MOL0     H21305   4.053   0.855   5.961 -0.9527 -2.3285  2.8983
  158MOL0     H21306   4.315   1.007   5.942 -0.2616 -1.4330  2.7198
  158MOL0     H21307   4.203   0.963   5.800  2.6617 -2.8049 -0.2952
  158MOL0     H21308   4.178   1.153   6.032  0.3543 -3.5044  0.3594
  158MOL0     H21309   4.032   1.085   5.965  0.3618  2.6227  3.8050
  158MOL0     H21310   4.228   1.233   5.787  0.1639 -1.4746 -0.5257
  158MOL0     H21311   4.076   1.304   5.869 -0.8112 -1.6610  3.5190
  158MOL0     H21312   4.773   0.529   6.231  1.1882  2.5005 -0.6215
  158MOL0     H21313   4.965   0.524   6.385  1.4029  2.3183  0.0121
  158MOL0     H21314   5.154   0.471   6.641  1.1142 -2.1502  0.9405
  158MOL0     H21315   5.360   0.412   6.729 -2.3055  0.4094 -0.3176
  158MOL0     H21316   7.527   0.174   6.927 -0.8878  0.9615 -0.4070
  158MOL0     H21317   7.690   0.123   7.118 -1.9535 -1.3347 -0.5617
  158MOL0     H21318   7.833   0.256   7.711  2.0244  4.1588  1.0636
  158MOL0     H21319   8.060   0.198   7.808 -1.8145 -0.2891  0.9107
  158MOL0     H21320   8.275   0.175   7.855 -2.1762  1.3713 -2.2256
  158MOL0     H21321   8.225   0.008   7.812 -1.2983  0.0021 -1.0792
  158MOL0     H21322   8.506   0.112   7.766  0.4387 -0.6434 -1.6661
  158MOL0     H21323   8.440  -0.056   7.744 -1.1660  1.2093 -1.0697
  158MOL0     H21324   8.406  -0.089   7.954  1.0162 -1.6979 -4.6591
  158MOL0     H21325   8.411   0.075   8.021  0.9745  0.5163  0.7852
  158MOL0     H21326   8.614  -0.074   8.075 -3.7753 -0.9317  0.0357
  158MOL0     H21327   8.661   0.072   7.990  0.9004 -0.3611 -2.7473
  158MOL0     H21328   8.776  -0.212   7.706 -0.4676 -0.5883  0.8460
  158MOL0     H21329   8.207   0.160   7.411 -0.9863 -0.2445 -0.3009
  158MOL0     H21330   7.997   0.194   7.307  1.9946  2.6736  0.1096
  159MOL0     O21331   7.388   3.742   7.634  0.3894 -0.1909 -0.3766
  159MOL0     C21332   7.423   3.662   7.724 -0.4435 -0.4573 -0.9642
  159MOL0     O21333   7.343   3.571   7.786  0.3000 -0.6299 -0.4519
  159MOL0     C21334   7.220   3.542   7.725 -0.5806  0.1179 -0.5637
  159MOL0     C21335   7.209   3.439   7.628 -0.7232  0.1142 -0.2153
  159MOL0     C21336   7.096   3.419   7.562 -0.5219 -0.0705  0.0991
  159MOL0     C21337   6.978   3.497   7.574 -0.6676 -0.6777 -0.0011
  159MOL0     O21338   6.870   3.462   7.499  0.5618 -0.8449  0.1218
  159MOL0     C21339   6.755   3.547   7.518  0.2804 -0.4397 -0.5129
  159MOL0     C21340   6.637   3.480   7.440 -1.3557 -0.6739  0.1076
  159MOL0     C21341   6.615   3.333   7.484 -0.3314  0.8076 -0.3990
  159MOL0     C21342   6.490   3.286   7.421  0.0854 -0.7856  0.3008
  159MOL0     C21343   6.434   3.150   7.458 -0.7907 -0.3245 -0.3911
  159MOL0     C21344   6.301   3.103   7.385  0.6779  0.9769 -0.0343
  159MOL0     C21345   6.265   2.958   7.425 -0.8627 -0.1040  0.7673
  159MOL0     C21346   6.123   2.923   7.374 -0.3735  0.0399 -0.7774
  159MOL0     N21347   6.129   2.924   7.231 -0.3589  0.1779 -0.1830
  159MOL0     C21348   6.174   2.825   7.147  0.6156  0.0752 -0.9686
  159MOL0     C21349   6.147   2.865   7.019 -0.0141  0.2701 -0.9506
  159MOL0     C21350   6.189   2.802   6.887 -0.6911  0.2958 -0.3002
  159MOL0     C21351   6.281   2.678   6.905  0.0285 -0.0270  0.2689
  159MOL0     C21352   6.192   2.545   6.878 -1.1034 -0.2257  0.1184
  159MOL0     C21353   6.076   2.543   6.969  0.2283 -0.8445  0.7965
  159MOL0     O21354   6.007   2.420   6.930  0.1691 -0.3643 -0.1265
  159MOL0     C21355   5.898   2.378   7.009 -1.3240 -0.9943  0.3377
  159MOL0     C21356   5.825   2.264   6.973 -0.0749 -0.1628  0.0629
  159MOL0     C21357   5.706   2.226   7.037  0.2294  0.3988 -0.0533
  159MOL0     C21358   5.648   2.100   6.995  0.3797  0.2311  0.1041
  159MOL0     C21359   5.665   2.296   7.154 -0.1103  0.2201  0.5782
  159MOL0     C21360   5.542   2.249   7.233  0.1727 -0.2883 -0.3508
  159MOL0     O21361   5.479   2.357   7.283  0.0451 -0.2802 -0.9509
  159MOL0     C21362   5.358   2.319   7.352 -1.0324  0.0658  0.4884
  159MOL0     C21363   5.362   2.229   7.459  0.0031  0.7814  0.3382
  159MOL0     C21364   5.241   2.197   7.526  0.1497 -0.5569 -0.4959
  159MOL0     C21365   5.121   2.274   7.502 -0.2717  0.3561 -0.0404
  159MOL0     O21366   5.013   2.255   7.591 -0.2759 -0.1034 -0.4175
  159MOL0     C21367   5.021   2.341   7.703  0.1692  0.6449  0.1752
  159MOL0     C21368   4.877   2.392   7.747  0.4039  0.5496  0.0245
  159MOL0     C21369   4.783   2.439   7.632 -0.5134  0.8149  0.0784
  159MOL0     C21370   4.671   2.531   7.689 -0.3872  0.3785 -0.2888
  159MOL0     C21371   4.555   2.536   7.591  0.0302  0.1001 -0.6768
  159MOL0     C21372   4.452   2.614   7.668 -0.4094 -0.6154  0.3364
  159MOL0     C21373   4.328   2.630   7.572  0.1762 -0.3088 -0.7035
  159MOL0     C21374   4.224   2.710   7.653  0.4900 -0.6209  0.9086
  159MOL0    Cl21375   4.259   2.890   7.666  0.3674  0.1110  0.0214
  159MOL0     C21376   5.120   2.366   7.390 -0.6878  0.2325 -0.0918
  159MOL0     C21377   5.237   2.387   7.319  0.2742  0.2103 -0.1466
  159MOL0     O21378   5.509   2.135   7.242  0.3946  0.1004  0.2735
  159MOL0     C21379   5.738   2.410   7.187 -0.0241  0.4487 -0.3320
  159MOL0     C21380   5.856   2.448   7.120 -0.1341 -0.5249 -0.1878
  159MOL0     N21381   6.087   2.989   7.026  0.3072  0.4185 -1.1137
  159MOL0     N21382   6.070   3.020   7.149 -0.0738 -0.4331  0.0447
  159MOL0     C21383   6.986   3.595   7.675 -0.8753  0.2360 -1.2568
  159MOL0     C21384   7.109   3.615   7.756  0.7221 -0.9900 -0.1108
  159MOL0     C21385   7.559   3.657   7.764  0.0073  0.0532 -0.0516
  159MOL0     C21386   7.627   3.538   7.764  0.0334  0.2160  0.2114
  159MOL0     C21387   7.772   3.546   7.792 -0.1495 -0.0227 -0.3223
  159MOL0     C21388   7.838   3.670   7.827  0.1832  0.4349  0.8149
  159MOL0     O21389   7.973   3.665   7.856  0.1185 -0.2282  0.5552
  159MOL0     C21390   8.019   3.755   7.958 -0.5035 -0.1055  0.5665
  159MOL0     C21391   8.144   3.690   8.024  0.3772 -0.5581 -1.3764
  159MOL0     C21392   8.258   3.668   7.919  0.1929 -0.0394 -0.3604
  159MOL0     C21393   8.389   3.615   7.984 -0.2996 -0.0579 -1.0000
  159MOL0     C21394   8.442   3.718   8.068  0.6465 -0.0902  0.4820
  159MOL0     C21395   8.490   3.799   8.137 -0.3067 -0.3346  0.2406
  159MOL0     C21396   7.766   3.790   7.822  0.4170  0.2673 -0.3450
  159MOL0     C21397   7.626   3.776   7.798 -0.1588  0.0847 -0.4016
  159MOL0     H21398   7.299   3.384   7.601 -1.2573 -0.7211 -0.3158
  159MOL0     H21399   7.098   3.345   7.483 -0.3585 -0.4937  0.4994
  159MOL0     H21400   6.724   3.549   7.623 -2.4193 -4.3611 -1.0262
  159MOL0     H21401   6.784   3.650   7.493 -2.0903  1.4974  3.6512
  159MOL0     H21402   6.544   3.536   7.442 -0.5034  0.8660 -1.2397
  159MOL0     H21403   6.670   3.477   7.335  0.8392  0.7725  0.6853
  159MOL0     H21404   6.702   3.268   7.469 -0.8724 -0.0637  0.1790
  159MOL0     H21405   6.599   3.330   7.592  0.0486 -0.1812 -0.3597
  159MOL0     H21406   6.414   3.362   7.444 -0.3525 -0.5360 -1.7848
  159MOL0     H21407   6.497   3.280   7.312  0.3584  0.9239  0.1982
  159MOL0     H21408   6.516   3.092   7.415 -0.6692  0.6427 -1.5283
  159MOL0     H21409   6.427   3.138   7.566  0.9451  2.1047  0.0830
  159MOL0     H21410   6.224   3.177   7.405 -0.8470 -0.4169 -0.5029
  159MOL0     H21411   6.319   3.098   7.277  1.7550  0.7233  0.1469
  159MOL0     H21412   6.337   2.889   7.382  0.3826  1.7896 -0.3563
  159MOL0     H21413   6.262   2.950   7.534 -1.6123 -1.1456  0.6779
  159MOL0     H21414   6.050   2.990   7.421  0.0004  0.8000 -1.2674
  159MOL0     H21415   6.096   2.821   7.403 -0.0162  0.3087  0.5798
  159MOL0     H21416   6.221   2.732   7.178  1.1710  0.1401 -1.5819
  159MOL0     H21417   6.095   2.775   6.838 -1.2411  2.2353 -0.4000
  159MOL0     H21418   6.249   2.872   6.828  0.4179 -0.7498 -0.4245
  159MOL0     H21419   6.326   2.684   7.004 -1.2347  0.8900  0.8200
  159MOL0     H21420   6.365   2.683   6.835 -1.9895  0.5787 -2.2754
  159MOL0     H21421   6.251   2.454   6.884 -0.8999 -0.0826  0.3121
  159MOL0     H21422   6.169   2.556   6.771  2.9570  1.2197 -0.7977
  159MOL0     H21423   6.009   2.627   6.951  1.8095  0.9319  2.7697
  159MOL0     H21424   6.100   2.546   7.075 -0.2867  0.7815  0.8926
  159MOL0     H21425   5.856   2.212   6.883 -1.7515 -1.4866  0.1909
  159MOL0     H21426   5.539   2.101   7.002  0.3672 -0.0979 -0.0119
  159MOL0     H21427   5.676   2.077   6.892 -0.8798  2.3420 -0.7794
  159MOL0     H21428   5.677   2.021   7.065  0.8267 -0.0810 -0.4269
  159MOL0     H21429   5.455   2.174   7.473 -0.4571 -0.4676 -1.1431
  159MOL0     H21430   5.237   2.122   7.605 -1.8339  0.3484  0.3381
  159MOL0     H21431   5.078   2.288   7.780  1.0488 -0.6560 -1.2922
  159MOL0     H21432   5.081   2.430   7.681 -0.1910  0.7896 -0.2269
  159MOL0     H21433   4.822   2.310   7.796 -0.9648  0.5958 -1.3543
  159MOL0     H21434   4.896   2.465   7.827 -3.0706  0.1553  1.4274
  159MOL0     H21435   4.732   2.353   7.588 -0.7934  1.4599 -0.8939
  159MOL0     H21436   4.841   2.495   7.558 -1.0795  1.4788  0.1311
  159MOL0     H21437   4.646   2.503   7.791 -2.3276 -0.7314 -1.0122
  159MOL0     H21438   4.716   2.628   7.708 -0.5981 -0.0016  2.4592
  159MOL0     H21439   4.524   2.432   7.578  1.2274 -0.5798  1.4305
  159MOL0     H21440   4.582   2.595   7.503  0.7200 -2.0616 -1.9764
  159MOL0     H21441   4.412   2.566   7.757 -0.8773  3.0379  2.2808
  159MOL0     H21442   4.494   2.712   7.695 -0.2152 -0.3148 -0.9773
  159MOL0     H21443   4.289   2.529   7.557  2.0227 -1.6236  2.3840
  159MOL0     H21444   4.344   2.674   7.473 -1.1955  1.0798 -0.3390
  159MOL0     H21445   4.219   2.671   7.755 -1.3329 -0.8451  0.7560
  159MOL0     H21446   4.122   2.699   7.614  0.9216 -1.9732  0.0900
  159MOL0     H21447   5.034   2.431   7.382  0.5255  1.8898 -0.1102
  159MOL0     H21448   5.229   2.469   7.248  1.0186 -0.2564 -0.7861
  159MOL0     H21449   5.703   2.465   7.274 -0.9250 -0.9180  0.1961
  159MOL0     H21450   5.898   2.542   7.153 -3.1239  0.1991  1.9970
  159MOL0     H21451   6.898   3.646   7.713  0.4799  0.8329  1.3227
  159MOL0     H21452   7.105   3.689   7.835  3.8272 -2.2637  1.4133
  159MOL0     H21453   7.589   3.437   7.749  0.5229 -0.1400  1.2752
  159MOL0     H21454   7.826   3.452   7.789  1.3875  0.8587 -1.4334
  159MOL0     H21455   8.052   3.852   7.919 -1.5486  1.1592  2.6642
  159MOL0     H21456   7.943   3.778   8.033 -2.2353  0.0263 -1.1709
  159MOL0     H21457   8.116   3.595   8.071 -0.7604  1.1159  1.6194
  159MOL0     H21458   8.175   3.768   8.094 -0.5756  0.2349 -1.8101
  159MOL0     H21459   8.284   3.759   7.863 -0.2017  0.3241  0.0409
  159MOL0     H21460   8.222   3.599   7.842  0.3051 -1.2222  0.6312
  159MOL0     H21461   8.462   3.577   7.912  1.2958  0.0965  0.4735
  159MOL0     H21462   8.364   3.535   8.054 -2.7820 -0.9245 -2.7307
  159MOL0     H21463   8.539   3.882   8.185  0.8294 -1.4660  1.1110
  159MOL0     H21464   7.801   3.889   7.847 -1.3067  1.2173 -1.4711
  159MOL0     H21465   7.576   3.872   7.803 -0.2314  0.0136  0.3492
  160MOL0     O21466   3.935   8.002   9.827 -0.0471 -0.6444 -0.1459
  160MOL0     C21467   3.881   7.984   9.941  0.2086  0.6030 -0.9382
  160MOL0     O21468   3.762   7.931   9.967  0.7390  0.6071  0.4039
  160MOL0     C21469   3.680   7.896   9.858  0.2866  0.3221 -0.0817
  160MOL0     C21470   3.549   7.926   9.881  1.0971  0.2558  0.2604
  160MOL0     C21471   3.454   7.871   9.796  0.8122 -0.0257  0.4937
  160MOL0     C21472   3.490   7.779   9.693  0.6304  0.5070 -0.3680
  160MOL0     O21473   3.395   7.717   9.613  0.3348 -0.0102 -0.2180
  160MOL0     C21474   3.282   7.792   9.572 -0.7386 -0.2406  0.0263
  160MOL0     C21475   3.211   7.720   9.454  0.1371  0.2436 -0.6598
  160MOL0     C21476   3.076   7.787   9.414  0.7930  0.3223  0.6339
  160MOL0     C21477   2.999   7.710   9.296 -0.3725  0.3433 -0.4972
  160MOL0     C21478   2.867   7.778   9.259  0.4986  0.1376  0.6649
  160MOL0     C21479   2.752   7.737   9.344  0.7911 -0.3507  0.4728
  160MOL0     C21480   2.621   7.805   9.298 -0.3584  0.1740 -0.3734
  160MOL0     C21481   2.600   7.952   9.345 -1.1999 -0.5165 -0.7367
  160MOL0     N21482   2.466   8.009   9.336 -0.5184  0.2489 -0.2062
  160MOL0     C21483   2.371   8.004   9.437  0.8082 -0.1352 -0.9452
  160MOL0     C21484   2.259   8.056   9.374 -0.7925 -0.3327  0.9383
  160MOL0     C21485   2.122   8.061   9.430  0.4854 -0.4443  0.2790
  160MOL0     C21486   2.051   7.945   9.371 -0.0464 -0.4311  0.2554
  160MOL0     C21487   1.905   7.937   9.426 -0.7613  0.8491 -0.5160
  160MOL0     C21488   1.821   7.825   9.373  0.0029 -0.1272 -0.1282
  160MOL0     O21489   1.707   7.803   9.462  0.0937 -0.3739  0.0853
  160MOL0     C21490   1.572   7.799   9.417 -0.5165  0.0185 -0.1997
  160MOL0     C21491   1.538   7.816   9.282 -0.5604 -0.1733 -0.4948
  160MOL0     C21492   1.411   7.805   9.236  1.3315 -0.6655  0.5603
  160MOL0     C21493   1.391   7.813   9.088  0.3857  0.0110  0.5138
  160MOL0     C21494   1.307   7.766   9.328 -0.3392 -0.5126  0.5012
  160MOL0     C21495   1.169   7.734   9.287 -1.0582 -0.1587  0.6444
  160MOL0     O21496   1.118   7.809   9.186 -0.5768  0.5364  0.5189
  160MOL0     C21497   0.980   7.801   9.153  0.2665  0.4447 -1.5382
  160MOL0     C21498   0.938   7.822   9.024  0.2623  0.4564  0.3088
  160MOL0     C21499   0.804   7.815   8.992  0.2101  0.2551  1.6756
  160MOL0     C21500   0.701   7.811   9.082  0.9959  0.4040 -0.3211
  160MOL0     O21501   0.570   7.825   9.061 -0.2990 -0.3669 -0.5161
  160MOL0     C21502   0.515   7.803   8.930 -1.0405  0.3157  0.4005
  160MOL0     C21503   0.380   7.877   8.924  0.6060  0.4623 -0.1735
  160MOL0     C21504   0.294   7.866   8.792 -1.4891  0.1465  0.4961
  160MOL0     C21505   0.372   7.929   8.676  0.0260 -0.1265 -0.0561
  160MOL0     C21506   0.297   7.892   8.551 -0.2089  1.0280  0.1439
  160MOL0     C21507   0.361   7.969   8.438 -0.1825  0.5239 -0.2476
  160MOL0     C21508   0.289   7.917   8.310  0.9545 -0.2540  0.1610
  160MOL0     C21509   0.318   7.774   8.257  0.2383 -1.2489 -0.3518
  160MOL0    Cl21510   0.499   7.756   8.239  0.3354  0.0611  0.4141
  160MOL0     C21511   0.737   7.801   9.213 -0.2463 -0.6449 -0.4342
  160MOL0     C21512   0.871   7.799   9.255  0.3786 -0.8453  0.0599
  160MOL0     O21513   1.109   7.647   9.347  0.0139  0.0754  0.0536
  160MOL0     C21514   1.344   7.736   9.462  0.8142  0.4069 -0.0149
  160MOL0     C21515   1.479   7.754   9.502  0.1995 -0.1204 -0.0499
  160MOL0     N21516   2.296   8.084   9.244 -0.0002  0.3114  0.5717
  160MOL0     N21517   2.415   8.047   9.220  0.1997 -0.0398  1.0256
  160MOL0     C21518   3.623   7.756   9.663 -0.1644 -0.4228 -0.0333
  160MOL0     C21519   3.716   7.823   9.740  0.3303  0.5789 -0.3085
  160MOL0     C21520   3.957   8.022  10.059 -0.6868  0.0324 -0.3524
  160MOL0     C21521   4.075   8.093  10.056 -0.0270  0.6087  0.8475
  160MOL0     C21522   4.126   8.133  10.180  0.0079  0.1279  0.1731
  160MOL0     C21523   4.079   8.096  10.306 -0.1987 -0.3180 -0.6131
  160MOL0     O21524   4.138   8.126  10.423  0.0203 -0.6505  0.4899
  160MOL0     C21525   4.231   8.230  10.432 -0.8600  0.7098 -0.3432
  160MOL0     C21526   4.311   8.215  10.569 -0.2146  0.4627 -0.7365
  160MOL0     C21527   4.443   8.132  10.568  0.2944 -0.2271 -0.4733
  160MOL0     C21528   4.481   8.079  10.709  0.4032  0.3478  0.0809
  160MOL0     C21529   4.501   8.183  10.809  0.2752  0.2217 -0.0569
  160MOL0     C21530   4.514   8.261  10.901  1.1810 -0.4904 -0.5445
  160MOL0     C21531   3.967   8.009  10.310  0.2049  0.6706  0.0507
  160MOL0     C21532   3.902   7.977  10.188 -0.4089  0.3095  0.2044
  160MOL0     H21533   3.496   7.984   9.956  1.1449 -1.5316  1.7565
  160MOL0     H21534   3.349   7.891   9.811  1.1093  1.5989  0.5982
  160MOL0     H21535   3.223   7.801   9.664 -0.4596 -1.8787  0.3955
  160MOL0     H21536   3.310   7.894   9.542 -1.5726 -0.1231 -0.3959
  160MOL0     H21537   3.284   7.719   9.373 -0.4882  0.7987 -1.2482
  160MOL0     H21538   3.202   7.613   9.473  1.8231 -0.2308 -2.1823
  160MOL0     H21539   3.011   7.789   9.502 -0.1437 -1.7444  0.0571
  160MOL0     H21540   3.096   7.892   9.390  0.1630  0.3451  0.1926
  160MOL0     H21541   3.064   7.718   9.208  2.8181  1.0287  1.7166
  160MOL0     H21542   2.988   7.604   9.324 -0.7698 -0.0459 -2.0574
  160MOL0     H21543   2.886   7.886   9.257  1.6360 -0.0579 -1.8734
  160MOL0     H21544   2.843   7.746   9.158  0.8198  0.8453  0.3576
  160MOL0     H21545   2.745   7.628   9.337 -2.0704 -0.2795  1.0140
  160MOL0     H21546   2.769   7.754   9.451  1.5507  1.3623  0.1105
  160MOL0     H21547   2.613   7.807   9.189  0.5063 -0.1828 -0.4498
  160MOL0     H21548   2.542   7.749   9.349  0.2916 -0.1964  0.2532
  160MOL0     H21549   2.659   8.014   9.276 -0.5217  0.0271  0.3127
  160MOL0     H21550   2.646   7.962   9.443  0.7972  1.3774 -1.7516
  160MOL0     H21551   2.368   7.960   9.535 -3.0135  0.0494 -0.8213
  160MOL0     H21552   2.118   8.059   9.539  2.5066  0.1793  0.3989
  160MOL0     H21553   2.075   8.157   9.403 -0.3916 -1.0832 -0.5349
  160MOL0     H21554   2.117   7.858   9.375  1.4422  0.5933 -0.9314
  160MOL0     H21555   2.042   7.966   9.264 -0.5681  1.1062  0.5681
  160MOL0     H21556   1.846   8.026   9.404 -1.8546  1.4081  3.8237
  160MOL0     H21557   1.908   7.930   9.535  0.0023  0.1898 -0.5642
  160MOL0     H21558   1.886   7.737   9.376  1.9105  1.2509  1.2195
  160MOL0     H21559   1.806   7.857   9.269  2.6246  0.3203 -0.4221
  160MOL0     H21560   1.618   7.843   9.214  2.5222 -0.0876  2.8150
  160MOL0     H21561   1.471   7.850   9.024 -0.7992 -1.8375 -2.2231
  160MOL0     H21562   1.368   7.710   9.059 -2.7888  1.6104 -3.5864
  160MOL0     H21563   1.301   7.870   9.062  0.7980 -0.5786 -2.5193
  160MOL0     H21564   1.005   7.838   8.940 -1.7293  0.0523 -1.4594
  160MOL0     H21565   0.793   7.837   8.886  1.9723  0.9317  1.6044
  160MOL0     H21566   0.590   7.834   8.857  1.0719 -2.7209  1.0450
  160MOL0     H21567   0.496   7.696   8.918 -1.2137  0.3099  0.7109
  160MOL0     H21568   0.326   7.835   9.009  0.3687 -0.7562 -0.8956
  160MOL0     H21569   0.399   7.983   8.942  1.6989  0.0917  1.0377
  160MOL0     H21570   0.192   7.905   8.794 -2.6627 -2.7405  0.9871
  160MOL0     H21571   0.292   7.762   8.758 -1.2911  0.2674  0.0962
  160MOL0     H21572   0.378   8.038   8.685  1.7619 -0.1341 -0.8222
  160MOL0     H21573   0.475   7.894   8.666  0.1684  0.5847 -1.1543
  160MOL0     H21574   0.189   7.909   8.553 -0.7656 -1.8704 -0.8554
  160MOL0     H21575   0.315   7.785   8.538  0.3732  1.4162 -2.8363
  160MOL0     H21576   0.336   8.072   8.464  1.3520  0.8843 -0.1059
  160MOL0     H21577   0.470   7.956   8.433  0.5095  3.8716  2.4044
  160MOL0     H21578   0.321   7.988   8.233 -1.5123  1.0651  0.2419
  160MOL0     H21579   0.182   7.933   8.326  0.7048  1.3019 -2.4760
  160MOL0     H21580   0.262   7.770   8.163 -3.8325  1.1495  1.6858
  160MOL0     H21581   0.283   7.700   8.329  2.5604 -0.4957  1.6710
  160MOL0     H21582   0.657   7.805   9.286 -0.6819 -1.2695 -0.8564
  160MOL0     H21583   0.905   7.803   9.358  0.8254  0.4669 -0.1131
  160MOL0     H21584   1.260   7.705   9.524  1.3939 -1.5731 -0.1489
  160MOL0     H21585   1.522   7.744   9.602  3.3116  0.3199 -1.2271
  160MOL0     H21586   3.655   7.709   9.571 -0.0844  1.8074 -1.2119
  160MOL0     H21587   3.822   7.811   9.718  0.0811  1.7107 -2.3617
  160MOL0     H21588   4.122   8.123   9.963  1.8904 -1.7379  0.9563
  160MOL0     H21589   4.225   8.176  10.165 -0.1469  0.6535  0.6047
  160MOL0     H21590   4.309   8.215  10.358  0.4323  0.5386  0.9971
  160MOL0     H21591   4.190   8.332  10.429 -0.3287  0.9059 -2.1530
  160MOL0     H21592   4.239   8.185  10.647 -1.0490  2.0600 -0.8415
  160MOL0     H21593   4.332   8.312  10.615 -1.2311 -0.2677  1.4083
  160MOL0     H21594   4.523   8.181  10.511  0.0012 -1.3753 -1.9233
  160MOL0     H21595   4.421   8.044  10.507  3.3140  0.4987 -2.8748
  160MOL0     H21596   4.580   8.033  10.701  1.0898  2.0399 -2.3738
  160MOL0     H21597   4.407   8.011  10.752 -1.3703  1.8167 -0.5096
  160MOL0     H21598   4.515   8.328  10.984 -2.9679 -0.6549 -0.1654
  160MOL0     H21599   3.929   7.975  10.406  0.7652 -1.8324 -0.5418
  160MOL0     H21600   3.816   7.913  10.197  1.4916 -2.5611 -0.7442
  161MOL0     O21601   9.766   0.243   0.245  0.2704  0.2661 -0.7157
  161MOL0     C21602   9.711   0.137   0.209 -0.1377 -0.5637 -0.0496
  161MOL0     O21603   9.578   0.127   0.196  0.1777  0.2156 -0.0346
  161MOL0     C21604   9.490   0.229   0.220 -0.0293  0.0924 -0.6155
  161MOL0     C21605   9.514   0.363   0.184  0.1431 -0.1496 -1.2790
  161MOL0     C21606   9.423   0.459   0.234 -0.2229 -0.6049  0.1116
  161MOL0     C21607   9.306   0.433   0.293  0.3457  0.5525  0.5246
  161MOL0     O21608   9.211   0.529   0.327 -0.3685  0.8446 -0.4642
  161MOL0     C21609   9.235   0.661   0.285  0.1924  0.0730 -0.0044
  161MOL0     C21610   9.108   0.737   0.309 -0.5779  0.3152  0.3311
  161MOL0     C21611   8.984   0.674   0.229  0.1383 -0.3346 -0.3436
  161MOL0     C21612   8.859   0.761   0.219  0.2732 -0.0971  0.9609
  161MOL0     C21613   8.731   0.668   0.211 -0.3007 -0.2743 -0.3393
  161MOL0     C21614   8.601   0.732   0.221  0.2056 -1.3888  1.0187
  161MOL0     C21615   8.489   0.625   0.234  0.9027 -0.0060 -0.1665
  161MOL0     C21616   8.348   0.662   0.182  0.0812  0.4983 -0.5310
  161MOL0     N21617   8.290   0.775   0.249  0.1809  0.0474 -0.3217
  161MOL0     C21618   8.217   0.874   0.182 -0.5895 -0.1818 -0.0424
  161MOL0     C21619   8.173   0.959   0.279  0.0414 -0.0388 -0.1180
  161MOL0     C21620   8.133   1.100   0.246  0.1993  1.0330  0.8485
  161MOL0     C21621   8.034   1.157   0.347 -0.9087  0.2880 -0.0216
  161MOL0     C21622   7.893   1.104   0.335 -0.4814  0.4826  0.8359
  161MOL0     C21623   7.804   1.158   0.455 -0.2687 -0.3201 -0.5140
  161MOL0     O21624   7.823   1.301   0.464  0.4173  0.6699  0.1157
  161MOL0     C21625   7.728   1.362   0.540 -0.0263 -1.3152  1.1572
  161MOL0     C21626   7.670   1.312   0.657 -0.5609  0.3853 -0.3450
  161MOL0     C21627   7.578   1.388   0.730  0.5042 -0.8883  1.0850
  161MOL0     C21628   7.514   1.322   0.846  0.2886  0.7770  0.5125
  161MOL0     C21629   7.547   1.518   0.692  0.2800  0.2713 -0.2086
  161MOL0     C21630   7.447   1.612   0.766  0.8882  0.9770  0.4405
  161MOL0     O21631   7.436   1.744   0.711 -0.4787  0.9688 -0.2817
  161MOL0     C21632   7.352   1.833   0.772  0.1300 -0.2961 -1.1066
  161MOL0     C21633   7.250   1.893   0.703 -0.3483 -0.2405 -0.0112
  161MOL0     C21634   7.161   1.982   0.760 -0.5623 -0.1434  0.2074
  161MOL0     C21635   7.175   2.018   0.896 -0.3913 -0.6996  0.6345
  161MOL0     O21636   7.085   2.118   0.939 -0.1046 -0.7455 -0.5493
  161MOL0     C21637   7.131   2.200   1.042  0.0054 -0.3332  0.1152
  161MOL0     C21638   7.007   2.271   1.104 -0.7118  0.0599  0.7282
  161MOL0     C21639   7.050   2.398   1.179 -0.9394  0.3234  0.0068
  161MOL0     C21640   7.045   2.521   1.092  0.1216 -0.5408 -0.0381
  161MOL0     C21641   7.103   2.650   1.157 -0.1217 -0.2036  0.1624
  161MOL0     C21642   7.130   2.765   1.059  0.5101  0.4442  0.4926
  161MOL0     C21643   7.244   2.720   0.966  0.3354  0.1380 -0.5125
  161MOL0     C21644   7.285   2.828   0.870 -0.5215  0.0528  0.1842
  161MOL0    Cl21645   7.161   2.862   0.761 -0.1605  0.2295  0.3553
  161MOL0     C21646   7.286   1.967   0.968 -0.1497  0.9947 -1.3397
  161MOL0     C21647   7.362   1.868   0.908 -0.6883  0.4697 -0.1736
  161MOL0     O21648   7.381   1.571   0.860  0.6213 -0.1275  0.3606
  161MOL0     C21649   7.610   1.575   0.584  0.3352  0.0477 -0.0724
  161MOL0     C21650   7.697   1.492   0.504  0.3052 -0.2825 -0.3830
  161MOL0     N21651   8.208   0.909   0.404  0.6122 -0.4665  0.2097
  161MOL0     N21652   8.278   0.805   0.377 -0.2151  0.3606  1.4882
  161MOL0     C21653   9.275   0.296   0.310  0.0646  0.4416 -0.4261
  161MOL0     C21654   9.368   0.199   0.275 -0.4166  0.2500 -0.2872
  161MOL0     C21655   9.798   0.032   0.173 -0.3471  0.1136  0.0329
  161MOL0     C21656   9.756  -0.091   0.140  0.1773 -0.1793 -0.7727
  161MOL0     C21657   9.840  -0.200   0.119  0.0185  0.5489  0.0319
  161MOL0     C21658   9.975  -0.197   0.127 -0.4154  0.5309  0.5576
  161MOL0     O21659  10.038  -0.319   0.134 -0.1944  0.1995 -0.4175
  161MOL0     C21660  10.167  -0.339   0.182 -0.7921 -0.4704 -0.6503
  161MOL0     C21661  10.275  -0.319   0.074  0.4673 -0.3020  0.1011
  161MOL0     C21662  10.412  -0.293   0.134 -0.2646  0.2037  0.8348
  161MOL0     C21663  10.485  -0.428   0.173 -0.2605 -0.3151 -0.9101
  161MOL0     C21664  10.617  -0.404   0.230 -0.1267 -0.1229 -0.1647
  161MOL0     C21665  10.731  -0.389   0.269 -0.3542  0.5934 -0.0832
  161MOL0     C21666  10.026  -0.076   0.162  0.2812 -0.4495 -0.3649
  161MOL0     C21667   9.943   0.040   0.180 -0.2975 -0.3199  0.0175
  161MOL0     H21668   9.599   0.393   0.123  1.0373  0.3539  0.1491
  161MOL0     H21669   9.450   0.564   0.234  0.1021 -0.6701  1.5489
  161MOL0     H21670   9.319   0.709   0.336  0.0760 -0.3096  0.5600
  161MOL0     H21671   9.250   0.663   0.177 -2.4565 -1.4314 -0.5042
  161MOL0     H21672   9.094   0.738   0.417  1.2993 -0.3355  0.6303
  161MOL0     H21673   9.126   0.840   0.275  2.5558 -0.7496 -1.6758
  161MOL0     H21674   9.026   0.638   0.135  0.9724  2.1506 -0.9973
  161MOL0     H21675   8.964   0.581   0.282  1.9161  0.1327  1.2647
  161MOL0     H21676   8.856   0.820   0.311 -2.7160  1.8610 -0.2589
  161MOL0     H21677   8.857   0.833   0.137  1.1969 -1.1414 -0.0155
  161MOL0     H21678   8.738   0.609   0.119 -1.1601 -1.1102  0.1121
  161MOL0     H21679   8.739   0.600   0.297  0.0282  0.2543  0.0533
  161MOL0     H21680   8.594   0.810   0.297  0.2939 -0.6091  0.2538
  161MOL0     H21681   8.578   0.776   0.123 -0.3625 -0.2402  1.6485
  161MOL0     H21682   8.520   0.528   0.193  0.7135 -1.0073  1.8972
  161MOL0     H21683   8.475   0.615   0.342 -0.1559  2.0159 -0.0770
  161MOL0     H21684   8.283   0.575   0.192  1.3215 -0.5622 -1.4066
  161MOL0     H21685   8.359   0.681   0.075 -0.1070 -0.5562 -0.7406
  161MOL0     H21686   8.209   0.884   0.074  1.3515  0.3684 -0.1867
  161MOL0     H21687   8.228   1.154   0.256  0.2908  1.4828 -1.7919
  161MOL0     H21688   8.098   1.109   0.143 -1.3850 -0.2646  1.2363
  161MOL0     H21689   8.037   1.264   0.323 -1.2164  0.7892  1.9578
  161MOL0     H21690   8.076   1.145   0.448 -2.5567 -0.1660  0.6304
  161MOL0     H21691   7.893   0.995   0.338  1.9700  0.4323  0.8071
  161MOL0     H21692   7.852   1.129   0.237  0.1404 -3.8441 -0.7516
  161MOL0     H21693   7.828   1.100   0.545  0.0632  1.7707  0.8113
  161MOL0     H21694   7.698   1.137   0.440 -0.8157  0.9283  1.2854
  161MOL0     H21695   7.700   1.213   0.689 -1.9815  0.1919  0.4575
  161MOL0     H21696   7.548   1.373   0.937  0.9673 -1.0409  1.3203
  161MOL0     H21697   7.406   1.317   0.832  0.1110 -3.0826  2.0660
  161MOL0     H21698   7.537   1.216   0.859 -0.8179  0.1557 -1.9997
  161MOL0     H21699   7.243   1.868   0.597  0.7284  0.7437 -0.3366
  161MOL0     H21700   7.083   2.025   0.699 -0.5561  0.7459  0.8162
  161MOL0     H21701   7.191   2.143   1.114  0.0638 -0.1984  0.1736
  161MOL0     H21702   7.191   2.275   0.988 -1.1778 -0.0839 -0.8990
  161MOL0     H21703   6.944   2.299   1.019  0.1987 -2.0267 -0.7220
  161MOL0     H21704   6.950   2.210   1.176 -0.7001  2.4198  2.8777
  161MOL0     H21705   7.151   2.380   1.216 -1.8206 -3.5258  0.9081
  161MOL0     H21706   6.982   2.406   1.264 -1.9822 -1.7218 -0.5692
  161MOL0     H21707   7.091   2.497   0.996 -1.9158 -0.4276 -1.0863
  161MOL0     H21708   6.942   2.540   1.063  0.0982 -1.1900 -0.4057
  161MOL0     H21709   7.192   2.622   1.215  0.2705  1.5169  0.4564
  161MOL0     H21710   7.037   2.694   1.232  1.1850  2.1540  0.0553
  161MOL0     H21711   7.042   2.803   1.006  0.4632  0.2987  0.4664
  161MOL0     H21712   7.159   2.852   1.118 -0.0251  1.6167 -0.9052
  161MOL0     H21713   7.225   2.628   0.909  0.9539 -0.2379 -0.1242
  161MOL0     H21714   7.326   2.689   1.031  0.2104 -2.5454 -1.4942
  161MOL0     H21715   7.373   2.789   0.819 -1.8727 -2.1956 -0.5496
  161MOL0     H21716   7.303   2.924   0.919  0.0934 -1.3111  2.8027
  161MOL0     H21717   7.310   1.985   1.072  0.7092  2.1456 -1.7117
  161MOL0     H21718   7.427   1.806   0.969 -0.4861  0.2620 -0.5933
  161MOL0     H21719   7.612   1.682   0.568  0.7604  0.1762  0.8039
  161MOL0     H21720   7.744   1.546   0.422 -1.0958  2.7534  0.6902
  161MOL0     H21721   9.178   0.273   0.352 -0.6344  1.3149 -1.5028
  161MOL0     H21722   9.332   0.097   0.279 -2.6058  0.8099 -2.6832
  161MOL0     H21723   9.648  -0.105   0.147  0.2679 -0.0979  1.5728
  161MOL0     H21724   9.792  -0.297   0.112  0.4162  0.2102  1.5635
  161MOL0     H21725  10.195  -0.277   0.267 -0.0265 -1.6785  0.0143
  161MOL0     H21726  10.180  -0.443   0.213  1.1086  0.1885  0.9412
  161MOL0     H21727  10.256  -0.229   0.015 -0.1252 -0.5736 -0.1231
  161MOL0     H21728  10.282  -0.401   0.003  4.1727 -0.3693  0.3056
  161MOL0     H21729  10.404  -0.221   0.216  0.1642  0.2527  0.8347
  161MOL0     H21730  10.469  -0.239   0.058  0.9866  0.8407  2.1785
  161MOL0     H21731  10.481  -0.489   0.083  0.1070  0.3990 -1.4171
  161MOL0     H21732  10.421  -0.464   0.254  0.9607 -0.6040 -0.0400
  161MOL0     H21733  10.834  -0.370   0.294 -0.8340  1.5049  1.3378
  161MOL0     H21734  10.132  -0.069   0.184 -0.0986  2.0211  1.0292
  161MOL0     H21735   9.991   0.135   0.203 -0.3828 -0.4708  0.8833
  162MOL0     O21736   5.107   5.081   4.538 -0.1834  0.3057 -0.3179
  162MOL0     C21737   5.133   5.194   4.528 -0.0987  0.1523  0.1035
  162MOL0     O21738   5.043   5.299   4.525 -0.9745  0.3618 -0.4171
  162MOL0     C21739   4.911   5.264   4.540 -0.6314  0.5719  0.0247
  162MOL0     C21740   4.841   5.331   4.636  1.0270  0.1631 -0.4312
  162MOL0     C21741   4.706   5.313   4.646  0.0368  0.6127 -0.2839
  162MOL0     C21742   4.641   5.211   4.571 -0.9086 -0.3426 -0.0339
  162MOL0     O21743   4.514   5.185   4.606 -0.2971  0.4164  0.6215
  162MOL0     C21744   4.443   5.084   4.529 -0.9017  0.4016  1.0175
  162MOL0     C21745   4.317   5.039   4.600 -0.8754  0.8296 -0.6154
  162MOL0     C21746   4.208   5.146   4.613 -0.2654 -0.0811 -0.0235
  162MOL0     C21747   4.085   5.098   4.688  0.6146  0.2789 -0.3353
  162MOL0     C21748   3.971   5.207   4.712 -0.7059 -0.8080  0.5849
  162MOL0     C21749   3.998   5.335   4.791 -0.5595 -0.3608 -0.5758
  162MOL0     C21750   3.877   5.423   4.824  0.3183  0.1476 -1.1811
  162MOL0     C21751   3.865   5.532   4.719 -0.1950  0.4628 -0.2513
  162MOL0     N21752   3.760   5.625   4.746  0.1299 -0.5088 -0.6186
  162MOL0     C21753   3.742   5.754   4.694 -0.4547 -0.3063 -0.1218
  162MOL0     C21754   3.645   5.802   4.774 -0.2540  0.1261  0.4873
  162MOL0     C21755   3.580   5.938   4.782 -0.8823 -0.8159  0.3153
  162MOL0     C21756   3.426   5.930   4.763 -0.7088 -0.0731  0.6011
  162MOL0     C21757   3.355   6.057   4.723 -0.5059 -1.3694 -0.6705
  162MOL0     C21758   3.205   6.064   4.715  0.5998  0.5789  0.4668
  162MOL0     O21759   3.155   5.994   4.599  0.2214 -1.3234 -0.1087
  162MOL0     C21760   3.027   6.007   4.549  0.2460  1.0979  0.3123
  162MOL0     C21761   2.997   5.995   4.416  0.1583  0.0374  0.0086
  162MOL0     C21762   2.868   6.017   4.364  1.1188 -0.2070 -0.3265
  162MOL0     C21763   2.853   6.007   4.214 -1.1188  0.0587  0.1746
  162MOL0     C21764   2.762   6.051   4.453 -0.2151 -0.7303  0.3249
  162MOL0     C21765   2.621   6.066   4.415 -0.2889 -0.3456  0.5673
  162MOL0     O21766   2.533   6.059   4.518  0.3947 -0.0276 -0.5878
  162MOL0     C21767   2.403   6.065   4.487 -0.0543  0.1693  0.2501
  162MOL0     C21768   2.344   5.965   4.410  0.1594  0.3513 -0.5854
  162MOL0     C21769   2.206   5.980   4.370 -0.7796  0.3584  0.1406
  162MOL0     C21770   2.129   6.076   4.423  0.1588 -0.4461  0.4137
  162MOL0     O21771   1.996   6.091   4.406 -0.1793  0.5333 -0.2165
  162MOL0     C21772   1.919   5.975   4.357  0.3694  0.5302  0.2253
  162MOL0     C21773   1.773   6.019   4.345  0.3339 -1.4078  0.2106
  162MOL0     C21774   1.668   5.918   4.342  0.5832  1.0453 -0.4522
  162MOL0     C21775   1.528   5.978   4.347 -0.2870  0.0875 -0.0164
  162MOL0     C21776   1.426   5.882   4.293  0.3357  0.1959  0.6277
  162MOL0     C21777   1.287   5.935   4.330  0.1984 -0.9702  0.5340
  162MOL0     C21778   1.183   5.823   4.304 -0.4854 -0.1032  0.0784
  162MOL0     C21779   1.049   5.890   4.272 -1.0368 -1.1117 -0.0831
  162MOL0    Cl21780   0.946   5.744   4.289 -0.2112  0.1030  0.2663
  162MOL0     C21781   2.186   6.179   4.497 -0.2678 -0.0525  0.3578
  162MOL0     C21782   2.323   6.171   4.523  0.1519  0.0880  0.2246
  162MOL0     O21783   2.595   6.076   4.294 -0.2009 -0.8297  0.1956
  162MOL0     C21784   2.796   6.061   4.588 -0.5286  0.1106  0.3109
  162MOL0     C21785   2.924   6.051   4.644 -0.3622  0.2789  0.7852
  162MOL0     N21786   3.610   5.712   4.868  0.2393 -0.1501 -0.3851
  162MOL0     N21787   3.684   5.612   4.862  0.3878 -0.3908 -0.9924
  162MOL0     C21788   4.712   5.148   4.466  0.5635  0.4052  0.8071
  162MOL0     C21789   4.850   5.177   4.453 -0.7272  0.1808 -0.7424
  162MOL0     C21790   5.277   5.229   4.536 -0.1901 -0.8109  0.5282
  162MOL0     C21791   5.320   5.355   4.579  0.3051 -0.5410 -0.0997
  162MOL0     C21792   5.454   5.386   4.603  0.0235 -0.1880  0.6512
  162MOL0     C21793   5.559   5.300   4.561  0.3302  0.0107 -0.0398
  162MOL0     O21794   5.690   5.347   4.563 -0.2421 -0.5131 -0.8129
  162MOL0     C21795   5.796   5.272   4.512  0.0157  0.1492  0.6609
  162MOL0     C21796   5.926   5.358   4.514 -0.1463  0.1039 -0.4672
  162MOL0     C21797   5.922   5.466   4.408  0.0486 -0.5808 -0.4595
  162MOL0     C21798   6.055   5.540   4.394  0.0742  0.0745  0.0278
  162MOL0     C21799   6.034   5.667   4.318 -0.3601 -0.0236 -0.0194
  162MOL0     C21800   5.999   5.770   4.268  0.1486 -0.6063 -0.1314
  162MOL0     C21801   5.526   5.177   4.517  0.9031 -0.5112  0.4430
  162MOL0     C21802   5.390   5.136   4.511  0.6906 -0.3282 -0.1351
  162MOL0     H21803   4.890   5.403   4.700  1.1074  1.0734 -1.4939
  162MOL0     H21804   4.648   5.368   4.720  0.8982 -0.8937  1.5859
  162MOL0     H21805   4.414   5.136   4.437  0.3586  0.2989  0.5461
  162MOL0     H21806   4.496   4.991   4.506 -1.3318  0.4200 -0.0806
  162MOL0     H21807   4.282   4.956   4.538  2.7110 -2.1983  1.0084
  162MOL0     H21808   4.340   4.997   4.698 -1.2069  1.5779 -0.2119
  162MOL0     H21809   4.245   5.232   4.670 -1.6631 -0.0026  0.8178
  162MOL0     H21810   4.181   5.179   4.512  1.7007 -1.8782 -1.2137
  162MOL0     H21811   4.038   5.020   4.628 -0.4593 -0.0086  0.8633
  162MOL0     H21812   4.098   5.042   4.781 -0.6385 -1.0184 -0.8991
  162MOL0     H21813   3.931   5.240   4.616 -1.6841 -0.8995  0.9488
  162MOL0     H21814   3.887   5.146   4.747 -0.4147 -2.1796 -1.0005
  162MOL0     H21815   4.046   5.309   4.886 -0.4437 -0.9229 -0.7857
  162MOL0     H21816   4.075   5.389   4.736 -0.7117  0.2717 -0.1887
  162MOL0     H21817   3.786   5.363   4.833  0.0861  0.5188 -0.9973
  162MOL0     H21818   3.893   5.475   4.919 -1.6014 -1.0360 -0.1398
  162MOL0     H21819   3.833   5.481   4.627 -2.0383  2.7434 -0.9608
  162MOL0     H21820   3.963   5.580   4.714  1.0794 -1.5237  2.8134
  162MOL0     H21821   3.805   5.801   4.619 -0.5881  2.7599  1.5107
  162MOL0     H21822   3.593   5.965   4.887  0.3176 -3.1218  0.8466
  162MOL0     H21823   3.617   6.015   4.714 -2.8376  0.5468  0.7546
  162MOL0     H21824   3.395   5.893   4.861 -2.0867 -0.1993  0.1453
  162MOL0     H21825   3.409   5.850   4.690 -1.7879 -0.1193  0.8850
  162MOL0     H21826   3.411   6.093   4.637  1.2795  3.2006  2.0241
  162MOL0     H21827   3.388   6.136   4.792 -1.6868  1.1696 -2.8043
  162MOL0     H21828   3.188   6.172   4.710  2.1215  0.8159 -0.0654
  162MOL0     H21829   3.156   6.028   4.807 -0.7492  0.9598 -0.0852
  162MOL0     H21830   3.075   5.975   4.343  1.1777  2.4253  0.3419
  162MOL0     H21831   2.847   6.102   4.161  2.0627  0.5186  0.4774
  162MOL0     H21832   2.945   5.965   4.173 -0.8759  0.4496  0.3225
  162MOL0     H21833   2.768   5.946   4.181  0.8126 -2.7037 -0.0550
  162MOL0     H21834   2.398   5.881   4.369 -0.5948 -1.6473  2.2206
  162MOL0     H21835   2.169   5.906   4.299  0.7687 -1.4334  1.1279
  162MOL0     H21836   1.960   5.949   4.258 -0.8690 -0.4025 -0.0720
  162MOL0     H21837   1.928   5.880   4.411 -0.6881 -0.0344 -0.5447
  162MOL0     H21838   1.755   6.078   4.436  1.9706 -3.0281  1.6450
  162MOL0     H21839   1.770   6.094   4.265  0.4062  1.6966  2.8888
  162MOL0     H21840   1.666   5.838   4.416 -2.0676  1.3993 -0.0261
  162MOL0     H21841   1.691   5.871   4.245  1.7952  0.1856  0.2258
  162MOL0     H21842   1.501   6.002   4.451 -1.1627 -1.1216  0.0576
  162MOL0     H21843   1.530   6.072   4.292  2.9700  0.1270 -0.0099
  162MOL0     H21844   1.434   5.778   4.326  1.3938 -0.8488 -2.5475
  162MOL0     H21845   1.432   5.877   4.184  1.4635 -0.1952  0.6885
  162MOL0     H21846   1.276   5.982   4.428 -1.1661  1.9802 -0.8928
  162MOL0     H21847   1.268   6.017   4.260  0.7576 -1.4417 -0.1892
  162MOL0     H21848   1.168   5.760   4.392 -1.4412 -2.3498 -1.5960
  162MOL0     H21849   1.212   5.754   4.225  1.4654 -2.1780  2.4110
  162MOL0     H21850   1.055   5.928   4.170 -1.6086  0.1628  0.3357
  162MOL0     H21851   1.027   5.968   4.346 -1.1137  0.3100 -1.5552
  162MOL0     H21852   2.132   6.268   4.528  1.1708  1.4950 -1.3394
  162MOL0     H21853   2.367   6.259   4.569 -1.6689 -0.0286  2.3593
  162MOL0     H21854   2.720   6.083   4.663 -0.3679  0.0129  0.5065
  162MOL0     H21855   2.939   6.076   4.748 -0.7342  3.9266  0.0928
  162MOL0     H21856   4.666   5.068   4.409 -0.1966  2.3788 -1.5056
  162MOL0     H21857   4.906   5.126   4.375  0.4245 -0.4048  0.4302
  162MOL0     H21858   5.245   5.428   4.608 -1.6796 -0.8681 -3.7358
  162MOL0     H21859   5.476   5.482   4.648 -0.4827  0.5680 -0.6680
  162MOL0     H21860   5.813   5.182   4.571 -0.4590 -2.3854 -2.7202
  162MOL0     H21861   5.778   5.228   4.413 -0.8198  1.3273  0.2604
  162MOL0     H21862   6.015   5.295   4.513  0.3020  0.7120 -0.1160
  162MOL0     H21863   5.912   5.411   4.609  0.4957 -0.0841 -0.2631
  162MOL0     H21864   5.845   5.537   4.438  2.1654  0.7832  2.1516
  162MOL0     H21865   5.910   5.408   4.315  2.5807 -0.6481 -0.8237
  162MOL0     H21866   6.128   5.470   4.350  0.8982 -0.9261  2.7977
  162MOL0     H21867   6.083   5.572   4.494 -2.4307  2.0706  0.1825
  162MOL0     H21868   5.971   5.864   4.226 -2.4981 -0.2127  2.1905
  162MOL0     H21869   5.593   5.100   4.480 -0.6307 -0.3112 -3.1624
  162MOL0     H21870   5.366   5.033   4.486 -0.2268 -0.1296 -0.1216
  163MOL0     O21871  10.372   1.168   7.658 -0.2468  0.1608 -0.3660
  163MOL0     C21872  10.396   1.079   7.584 -0.9762 -0.0070  0.6151
  163MOL0     O21873  10.333   0.959   7.568 -0.3076  0.7297  0.0405
  163MOL0     C21874  10.208   0.947   7.630  0.3027 -0.2077  0.0804
  163MOL0     C21875  10.190   0.827   7.704 -0.0888 -1.2872 -0.3315
  163MOL0     C21876  10.058   0.799   7.751  0.1605 -0.9266 -0.3968
  163MOL0     C21877   9.956   0.897   7.724  0.5915 -0.1450 -0.4958
  163MOL0     O21878   9.830   0.866   7.777  0.1361  0.1371 -0.3473
  163MOL0     C21879   9.761   0.960   7.849  0.2704 -0.3113 -0.6156
  163MOL0     C21880   9.675   0.897   7.960  0.0800 -0.2135 -0.6235
  163MOL0     C21881   9.565   0.811   7.905 -0.5960 -0.3331 -0.3471
  163MOL0     C21882   9.504   0.731   8.021 -0.3200 -0.0173  0.3918
  163MOL0     C21883   9.399   0.629   7.967 -0.5320 -0.1809 -1.1788
  163MOL0     C21884   9.326   0.553   8.088  0.1717 -0.3357  0.1424
  163MOL0     C21885   9.214   0.626   8.161 -0.0673 -0.1301  0.2539
  163MOL0     C21886   9.161   0.539   8.278 -0.5992  0.3424  0.0983
  163MOL0     N21887   9.022   0.568   8.316 -0.6739  0.1774 -0.8282
  163MOL0     C21888   8.967   0.694   8.334 -0.8168 -0.0091  0.1507
  163MOL0     C21889   8.862   0.678   8.419  0.4240 -0.0784  0.1360
  163MOL0     C21890   8.781   0.789   8.484  0.4477 -0.6939 -0.4465
  163MOL0     C21891   8.626   0.767   8.481  0.3201 -0.1807 -0.6099
  163MOL0     C21892   8.571   0.640   8.558  0.3911 -0.2300  0.0446
  163MOL0     C21893   8.414   0.631   8.556 -0.9736 -0.0732  0.3228
  163MOL0     O21894   8.352   0.758   8.598  0.3128 -0.3575  0.2731
  163MOL0     C21895   8.226   0.784   8.555  0.1792  0.5591  0.8384
  163MOL0     C21896   8.190   0.915   8.578 -0.9448 -0.0486  0.0304
  163MOL0     C21897   8.066   0.970   8.523 -0.2318 -0.2963 -1.0824
  163MOL0     C21898   8.042   1.108   8.559  0.6651 -0.1913  0.4250
  163MOL0     C21899   7.980   0.877   8.457  0.1167  1.1406 -0.9574
  163MOL0     C21900   7.846   0.919   8.401  0.0646 -0.4676  0.3531
  163MOL0     O21901   7.787   0.831   8.316 -0.3675 -0.0096 -0.3766
  163MOL0     C21902   7.656   0.835   8.265 -0.6502 -0.0592  0.8917
  163MOL0     C21903   7.602   0.947   8.197 -0.5549 -0.1907 -0.2428
  163MOL0     C21904   7.473   0.945   8.156 -1.0685  0.0732 -0.4406
  163MOL0     C21905   7.389   0.841   8.172 -0.1439  0.3766 -0.2785
  163MOL0     O21906   7.264   0.869   8.129 -0.1983  0.2210 -0.6400
  163MOL0     C21907   7.191   0.953   8.225  0.4731  1.1699 -0.1981
  163MOL0     C21908   7.042   0.966   8.189 -0.7587 -0.3071 -0.0059
  163MOL0     C21909   6.966   0.839   8.222  0.0087  0.3121 -0.1932
  163MOL0     C21910   6.817   0.859   8.213 -0.0449  0.3110 -0.5853
  163MOL0     C21911   6.732   0.728   8.230  0.1336  0.2754  0.4161
  163MOL0     C21912   6.589   0.761   8.276 -0.1524 -0.2668 -0.4010
  163MOL0     C21913   6.517   0.627   8.283 -0.2964 -0.1501 -0.7227
  163MOL0     C21914   6.390   0.619   8.372  0.1029  0.2846  0.0058
  163MOL0    Cl21915   6.267   0.743   8.317  0.3539 -0.1998 -0.3160
  163MOL0     C21916   7.443   0.719   8.220 -0.6501 -0.5545  0.2159
  163MOL0     C21917   7.580   0.710   8.263  0.4302 -0.1092  0.3368
  163MOL0     O21918   7.792   1.027   8.431  0.5677 -0.1084  0.3083
  163MOL0     C21919   8.020   0.746   8.444  0.1171  0.2700 -0.2888
  163MOL0     C21920   8.143   0.694   8.489  0.3495 -0.4212 -0.4876
  163MOL0     N21921   8.849   0.546   8.442 -0.2551  0.2073 -0.6819
  163MOL0     N21922   8.943   0.479   8.378 -0.4345 -0.3271  0.5776
  163MOL0     C21923   9.977   1.011   7.654 -0.6781  0.3431  0.7359
  163MOL0     C21924  10.108   1.033   7.603 -0.1093 -0.0572 -0.5093
  163MOL0     C21925  10.512   1.095   7.492 -1.0379 -0.4791  0.2068
  163MOL0     C21926  10.575   1.222   7.472 -0.5210  0.1441 -0.3056
  163MOL0     C21927  10.686   1.241   7.391 -0.0466 -0.2416 -0.3382
  163MOL0     C21928  10.741   1.134   7.319 -0.6953 -0.4046 -1.1596
  163MOL0     O21929  10.855   1.159   7.245 -0.3161  0.3200  0.1713
  163MOL0     C21930  10.916   1.049   7.180  0.4545 -0.2543 -0.6283
  163MOL0     C21931  11.052   1.090   7.120  0.1740 -0.7308  0.4213
  163MOL0     C21932  11.164   1.120   7.229 -0.0667 -0.8496 -0.0806
  163MOL0     C21933  11.271   1.225   7.191 -0.4644  0.5878  1.1901
  163MOL0     C21934  11.350   1.147   7.093  0.2061 -0.1596  0.5582
  163MOL0     C21935  11.419   1.087   7.016  0.8820 -0.0816  0.4208
  163MOL0     C21936  10.684   1.002   7.334  0.9709 -0.1409  0.2099
  163MOL0     C21937  10.567   0.983   7.418  0.6919  0.5464  0.3384
  163MOL0     H21938  10.270   0.756   7.724  0.2516 -0.5122  1.2092
  163MOL0     H21939  10.055   0.710   7.813 -0.9243 -0.2752  0.5214
  163MOL0     H21940   9.828   1.039   7.884  1.9004 -1.8366 -0.1828
  163MOL0     H21941   9.693   1.005   7.775 -2.8967 -2.2833  0.8865
  163MOL0     H21942   9.737   0.834   8.025 -2.0375  0.9788  2.8767
  163MOL0     H21943   9.621   0.967   8.025 -2.4879 -2.9525  0.4714
  163MOL0     H21944   9.484   0.872   7.864 -0.2907 -0.4468 -1.1319
  163MOL0     H21945   9.609   0.745   7.829 -1.0752 -1.0150 -0.0452
  163MOL0     H21946   9.581   0.673   8.074  2.1410  3.0201  0.4252
  163MOL0     H21947   9.466   0.805   8.092  1.0953  2.4209 -1.2499
  163MOL0     H21948   9.326   0.674   7.898 -1.2208  0.7851  0.1490
  163MOL0     H21949   9.453   0.553   7.909  0.8058  0.0770 -0.3052
  163MOL0     H21950   9.295   0.457   8.045  0.7933  0.3357 -1.9139
  163MOL0     H21951   9.396   0.536   8.170 -1.3984  1.8219  2.0373
  163MOL0     H21952   9.248   0.719   8.205 -2.1362 -0.0919  1.8904
  163MOL0     H21953   9.126   0.638   8.097 -0.5405  1.5298  1.1675
  163MOL0     H21954   9.227   0.538   8.366  2.4183  1.4105 -2.0180
  163MOL0     H21955   9.159   0.438   8.236 -4.8583  0.4973 -0.5244
  163MOL0     H21956   8.997   0.794   8.303  0.4120  0.1093  1.6042
  163MOL0     H21957   8.805   0.787   8.591 -3.0998 -0.9151  0.4547
  163MOL0     H21958   8.816   0.885   8.446  0.9148 -0.3648  0.7489
  163MOL0     H21959   8.605   0.748   8.376 -0.2192 -1.6201 -0.2678
  163MOL0     H21960   8.575   0.858   8.512  1.0413 -0.7851  2.8666
  163MOL0     H21961   8.609   0.643   8.660  0.1190 -0.3032  0.1486
  163MOL0     H21962   8.604   0.544   8.517  0.2169  0.1058 -0.9082
  163MOL0     H21963   8.371   0.550   8.615 -1.1085 -0.5035 -0.3600
  163MOL0     H21964   8.399   0.616   8.449 -0.4757  2.5428 -0.1833
  163MOL0     H21965   8.263   0.977   8.629  1.7128 -0.1183 -3.3241
  163MOL0     H21966   7.946   1.128   8.608  0.5110 -0.8607  0.4040
  163MOL0     H21967   8.119   1.150   8.625 -0.5135  0.4491  1.4380
  163MOL0     H21968   8.045   1.171   8.470  0.9220 -1.0420 -0.1818
  163MOL0     H21969   7.664   1.029   8.164  0.5437 -0.2934  1.4227
  163MOL0     H21970   7.442   1.037   8.107 -1.6079  1.1376  1.7450
  163MOL0     H21971   7.199   0.924   8.330  1.1228 -2.4365 -1.1078
  163MOL0     H21972   7.234   1.053   8.216  2.2311  0.6292  1.5337
  163MOL0     H21973   6.999   1.048   8.246 -0.0236  0.2161 -0.1920
  163MOL0     H21974   7.034   0.987   8.081  1.3519  1.8107  0.1792
  163MOL0     H21975   7.000   0.807   8.321 -0.5443  2.4759  0.7331
  163MOL0     H21976   7.004   0.765   8.150 -2.7651 -1.2528 -0.1861
  163MOL0     H21977   6.784   0.933   8.286  0.3522 -0.1805  0.1055
  163MOL0     H21978   6.805   0.913   8.118  0.9907  2.1808  0.2895
  163MOL0     H21979   6.781   0.675   8.312  1.6308  0.1707 -0.5155
  163MOL0     H21980   6.733   0.662   8.143  2.8834  3.7785 -2.5120
  163MOL0     H21981   6.588   0.812   8.372 -0.8045 -1.4636  0.2573
  163MOL0     H21982   6.557   0.826   8.195  1.0662 -1.0220 -1.5454
  163MOL0     H21983   6.582   0.545   8.315  0.0920 -0.5550 -2.4463
  163MOL0     H21984   6.496   0.602   8.179 -1.7775 -0.8908 -0.2795
  163MOL0     H21985   6.421   0.640   8.475  0.4826  2.4005 -0.4828
  163MOL0     H21986   6.348   0.518   8.374 -2.0117  1.1228  0.5646
  163MOL0     H21987   7.381   0.630   8.228  0.4338 -1.2028  1.9990
  163MOL0     H21988   7.626   0.619   8.298  1.2598 -0.1395 -0.7685
  163MOL0     H21989   7.951   0.679   8.392 -1.1060  0.6692  0.7654
  163MOL0     H21990   8.177   0.592   8.480  0.6240 -0.3863  0.0686
  163MOL0     H21991   9.909   1.096   7.650 -0.1931  0.7055  0.0593
  163MOL0     H21992  10.145   1.119   7.548 -1.7838  0.3623 -1.0613
  163MOL0     H21993  10.548   1.305   7.537  2.3380 -0.3312  1.6846
  163MOL0     H21994  10.737   1.336   7.382  2.3819 -1.2036  1.8743
  163MOL0     H21995  10.954   0.972   7.247  1.5302  1.8451  1.3330
  163MOL0     H21996  10.842   1.020   7.106 -0.5745  2.1193 -0.6417
  163MOL0     H21997  11.040   1.182   7.060  1.4633  0.2881  1.6655
  163MOL0     H21998  11.085   1.010   7.053 -2.4454  1.3426 -3.8575
  163MOL0     H21999  11.195   1.029   7.282 -3.3055 -2.1783 -0.2100
  163MOL0     H22000  11.113   1.162   7.316  0.2725 -1.1600  0.2698
  163MOL0     H22001  11.331   1.263   7.275 -1.6092  2.0269  1.3915
  163MOL0     H22002  11.226   1.319   7.159  0.7979  0.8785  0.1473
  163MOL0     H22003  11.479   1.052   6.934  0.6518 -1.5840  0.8635
  163MOL0     H22004  10.713   0.924   7.264 -1.2067  0.3523 -1.3574
  163MOL0     H22005  10.515   0.888   7.413  3.5189 -1.0518 -2.1137
  164MOL0     O22006   8.482   6.908   8.895  0.5630 -0.4344 -0.4099
  164MOL0     C22007   8.535   6.897   8.789  0.0745  0.9727  0.2093
  164MOL0     O22008   8.482   6.915   8.665 -0.4476  0.1848  0.4186
  164MOL0     C22009   8.358   6.978   8.647 -0.5655 -0.2451 -0.2777
  164MOL0     C22010   8.276   7.057   8.738  0.3157 -1.0989  0.6925
  164MOL0     C22011   8.157   7.125   8.698 -0.1827  0.8298 -0.1188
  164MOL0     C22012   8.112   7.111   8.568  0.7256 -0.8184 -0.3308
  164MOL0     O22013   8.002   7.180   8.516 -0.3815  0.2751 -0.0260
  164MOL0     C22014   7.936   7.280   8.591 -0.3613  0.2113 -0.3950
  164MOL0     C22015   7.823   7.346   8.510  0.4620  0.6522 -0.1692
  164MOL0     C22016   7.705   7.248   8.480 -0.3107  0.0204 -0.1048
  164MOL0     C22017   7.605   7.307   8.377 -0.4100  0.0647  0.0048
  164MOL0     C22018   7.465   7.238   8.364 -0.1514 -0.2735  0.8162
  164MOL0     C22019   7.387   7.307   8.264  0.5959 -0.0274  0.4288
  164MOL0     C22020   7.240   7.248   8.255 -0.0393 -0.6387 -0.6688
  164MOL0     C22021   7.160   7.315   8.136 -0.1350 -0.0732 -0.3556
  164MOL0     N22022   7.015   7.333   8.159 -0.3777  0.4906  0.4715
  164MOL0     C22023   6.956   7.437   8.225 -0.5638 -0.0478 -0.5726
  164MOL0     C22024   6.823   7.429   8.211 -0.5980  0.5256 -0.1641
  164MOL0     C22025   6.732   7.532   8.263 -0.3536 -1.3293 -0.0258
  164MOL0     C22026   6.593   7.538   8.188 -0.3014 -0.4313  0.5461
  164MOL0     C22027   6.497   7.429   8.236  0.7042 -0.0437 -0.2799
  164MOL0     C22028   6.364   7.443   8.163 -0.3257  0.1437 -0.3097
  164MOL0     O22029   6.300   7.568   8.203  0.6264  0.2122  0.3530
  164MOL0     C22030   6.180   7.573   8.266 -0.2646 -0.2917 -0.4592
  164MOL0     C22031   6.082   7.672   8.239 -0.0806  0.1590 -0.3079
  164MOL0     C22032   5.952   7.654   8.282 -0.6500  0.3042  0.7356
  164MOL0     C22033   5.856   7.757   8.223  0.1614  0.0504  0.4743
  164MOL0     C22034   5.920   7.552   8.368 -0.2328 -1.0098 -0.2052
  164MOL0     C22035   5.778   7.518   8.410 -0.1694  0.0320  0.2057
  164MOL0     O22036   5.674   7.590   8.346  0.1734  0.3013  0.6706
  164MOL0     C22037   5.552   7.608   8.408  0.3900  0.5017  0.7365
  164MOL0     C22038   5.551   7.645   8.533  0.6379  0.2724  0.0194
  164MOL0     C22039   5.433   7.679   8.590  0.1938  0.4379  0.1517
  164MOL0     C22040   5.314   7.689   8.515 -1.0499  0.0366 -0.0275
  164MOL0     O22041   5.188   7.722   8.558  0.2685 -0.4251 -0.3165
  164MOL0     C22042   5.167   7.735   8.698  0.0665 -0.8693 -0.1183
  164MOL0     C22043   5.018   7.738   8.726 -0.7232 -0.1619  0.9998
  164MOL0     C22044   5.003   7.693   8.871  0.3128 -0.1046 -0.0279
  164MOL0     C22045   4.862   7.677   8.920 -0.0017 -0.5093 -0.2529
  164MOL0     C22046   4.844   7.661   9.064 -0.3247 -0.3116  0.3175
  164MOL0     C22047   4.689   7.637   9.087 -0.3379 -0.4237 -0.3388
  164MOL0     C22048   4.651   7.646   9.227 -0.1639  0.2216 -0.7126
  164MOL0     C22049   4.500   7.643   9.257  0.1529 -0.6590  0.2723
  164MOL0    Cl22050   4.433   7.477   9.230 -0.0235 -0.0678 -0.3221
  164MOL0     C22051   5.324   7.656   8.378  0.0023 -0.7111 -0.2539
  164MOL0     C22052   5.442   7.609   8.323  0.6037  0.3402  0.0953
  164MOL0     O22053   5.759   7.430   8.495 -0.8165  0.3140  0.1377
  164MOL0     C22054   6.020   7.459   8.401  0.0155 -0.2298 -0.7362
  164MOL0     C22055   6.149   7.469   8.349 -0.1238  0.4977 -0.5462
  164MOL0     N22056   6.798   7.311   8.141 -0.1117 -0.0274 -0.3262
  164MOL0     N22057   6.910   7.257   8.112  0.1078 -0.5700  0.4850
  164MOL0     C22058   8.178   7.024   8.486  0.0276  0.5564  0.2128
  164MOL0     C22059   8.296   6.958   8.523  0.3215  0.5401  0.0814
  164MOL0     C22060   8.680   6.861   8.780 -0.7688 -0.1422  0.3360
  164MOL0     C22061   8.741   6.821   8.667  0.4380 -0.3332  0.6483
  164MOL0     C22062   8.874   6.792   8.658 -0.4353  1.1259 -0.3380
  164MOL0     C22063   8.947   6.785   8.780 -0.3112 -0.3044 -0.2767
  164MOL0     O22064   9.078   6.752   8.787 -1.1558 -0.2060 -0.1121
  164MOL0     C22065   9.134   6.672   8.685  0.7103 -0.3164 -0.1284
  164MOL0     C22066   9.273   6.622   8.732  0.0516 -0.0826  0.7052
  164MOL0     C22067   9.363   6.743   8.757  0.2445 -0.6312 -0.0428
  164MOL0     C22068   9.515   6.708   8.773  0.4918  0.2563 -0.2555
  164MOL0     C22069   9.523   6.600   8.875  0.0017  0.4138  0.1231
  164MOL0     C22070   9.542   6.498   8.943 -0.2547 -0.0881  0.5459
  164MOL0     C22071   8.887   6.824   8.896 -0.4568 -0.9080  0.5726
  164MOL0     C22072   8.756   6.870   8.894 -0.8422  0.2488 -0.1674
  164MOL0     H22073   8.305   7.074   8.841 -0.6695  2.7550  0.4883
  164MOL0     H22074   8.099   7.189   8.764  0.7479  0.2499  1.3057
  164MOL0     H22075   7.899   7.220   8.674 -1.4762 -2.1564 -2.4583
  164MOL0     H22076   8.013   7.349   8.626 -0.3447 -0.3916  0.8031
  164MOL0     H22077   7.779   7.437   8.551 -4.4872 -0.9310 -1.2348
  164MOL0     H22078   7.859   7.376   8.412  0.0930  1.4159 -0.0743
  164MOL0     H22079   7.744   7.158   8.432  1.2289 -0.7643  2.4352
  164MOL0     H22080   7.659   7.225   8.577  2.6129 -1.1835  1.1154
  164MOL0     H22081   7.606   7.411   8.411 -1.4075  0.2707 -0.5708
  164MOL0     H22082   7.649   7.314   8.277  1.7909 -3.3961  0.5757
  164MOL0     H22083   7.477   7.131   8.346  0.4148  0.0305 -0.7946
  164MOL0     H22084   7.419   7.245   8.464  1.8831  0.0668  1.7712
  164MOL0     H22085   7.381   7.414   8.290  0.6410  0.4282 -1.3150
  164MOL0     H22086   7.429   7.282   8.166 -0.2784  0.7953 -0.1729
  164MOL0     H22087   7.246   7.141   8.237 -1.4254 -0.6736 -1.0983
  164MOL0     H22088   7.179   7.265   8.345 -1.6436 -4.1320 -0.9321
  164MOL0     H22089   7.182   7.258   8.045 -1.4769 -0.1886 -0.6158
  164MOL0     H22090   7.197   7.415   8.112 -1.4031  0.9702  1.7241
  164MOL0     H22091   7.008   7.517   8.278  0.9246 -1.5434  0.3599
  164MOL0     H22092   6.714   7.509   8.369 -1.2701  2.1865  0.7259
  164MOL0     H22093   6.781   7.630   8.270 -2.6124  0.0434 -1.7787
  164MOL0     H22094   6.599   7.538   8.078 -1.6239  0.3524  0.4469
  164MOL0     H22095   6.542   7.631   8.213  0.5316  0.1607  0.0915
  164MOL0     H22096   6.469   7.438   8.342 -1.6488 -1.3991 -0.7129
  164MOL0     H22097   6.547   7.332   8.237  1.7517  0.4565  1.3169
  164MOL0     H22098   6.297   7.358   8.181 -2.2176  1.2254 -1.7553
  164MOL0     H22099   6.376   7.440   8.054  1.0347  1.0324 -0.2015
  164MOL0     H22100   6.099   7.752   8.168  0.0921  3.7997  3.4227
  164MOL0     H22101   5.810   7.700   8.141  1.9608 -1.5106  0.4798
  164MOL0     H22102   5.778   7.798   8.288 -1.1676 -0.7945 -0.5246
  164MOL0     H22103   5.899   7.844   8.172  1.4575  0.0733  1.5609
  164MOL0     H22104   5.635   7.632   8.600 -0.3521 -0.5632  1.1325
  164MOL0     H22105   5.437   7.683   8.699  6.2219  3.0050  0.2266
  164MOL0     H22106   5.212   7.647   8.745  3.2639 -0.7809 -2.6011
  164MOL0     H22107   5.210   7.831   8.727  0.0726 -0.6580 -0.8018
  164MOL0     H22108   4.987   7.842   8.713  0.5296  0.0264 -1.0072
  164MOL0     H22109   4.959   7.674   8.658  0.2788 -0.5466  0.4691
  164MOL0     H22110   5.057   7.764   8.934  2.5362 -1.8264  0.1346
  164MOL0     H22111   5.048   7.594   8.886 -0.9735 -0.8952 -1.0861
  164MOL0     H22112   4.807   7.763   8.882  1.0344  0.9816  1.4772
  164MOL0     H22113   4.821   7.589   8.869  1.9982 -0.8858 -1.2938
  164MOL0     H22114   4.876   7.751   9.117 -1.3128 -0.6120  1.4713
  164MOL0     H22115   4.906   7.579   9.103 -1.8169 -2.0883 -0.8860
  164MOL0     H22116   4.637   7.720   9.039 -1.1589 -2.0919 -2.5194
  164MOL0     H22117   4.656   7.539   9.050  0.7593  0.2407 -3.3400
  164MOL0     H22118   4.693   7.740   9.265 -0.0412  1.2883 -3.3064
  164MOL0     H22119   4.698   7.563   9.281 -1.8524 -0.2419  0.0950
  164MOL0     H22120   4.457   7.725   9.197  1.2709  0.9591  1.5896
  164MOL0     H22121   4.488   7.680   9.359  0.1026 -0.8253  0.3267
  164MOL0     H22122   5.232   7.650   8.321  1.4747 -3.6458 -2.6179
  164MOL0     H22123   5.452   7.574   8.220  0.0538  0.0188  0.1456
  164MOL0     H22124   5.995   7.376   8.467  0.8352 -1.3297 -1.7608
  164MOL0     H22125   6.223   7.392   8.373 -0.8788 -0.7614 -2.0741
  164MOL0     H22126   8.150   7.011   8.382 -0.4979 -2.2535  0.6092
  164MOL0     H22127   8.349   6.892   8.456  0.5751 -1.0457  1.7737
  164MOL0     H22128   8.680   6.812   8.577  2.0947 -0.5503 -0.4986
  164MOL0     H22129   8.920   6.782   8.560  0.2166 -0.0904  0.0727
  164MOL0     H22130   9.067   6.590   8.657  1.3907 -0.9537  0.0566
  164MOL0     H22131   9.158   6.730   8.596  1.2896 -1.8331 -1.0108
  164MOL0     H22132   9.317   6.554   8.659  0.3119 -0.3009  1.0643
  164MOL0     H22133   9.248   6.564   8.821 -0.9406 -0.0358  0.4694
  164MOL0     H22134   9.329   6.789   8.850 -0.1726 -1.9938  0.5081
  164MOL0     H22135   9.353   6.821   8.681  2.7591  0.8012  0.9715
  164MOL0     H22136   9.575   6.792   8.810  1.4895 -0.3245 -0.4967
  164MOL0     H22137   9.556   6.665   8.681  0.9635 -0.9015  0.4642
  164MOL0     H22138   9.556   6.405   8.995  1.9607 -0.5596 -0.7695
  164MOL0     H22139   8.944   6.818   8.988 -2.7303 -0.5820  2.0578
  164MOL0     H22140   8.706   6.910   8.982  0.2065 -0.0120  0.5687
  165MOL0     O22141   2.370   6.409   7.795 -0.4060 -0.2765 -0.8512
  165MOL0     C22142   2.434   6.357   7.891  0.5193 -0.1468  0.2450
  165MOL0     O22143   2.379   6.286   7.995  0.5132  0.8408  0.8518
  165MOL0     C22144   2.248   6.315   8.035  0.1469 -0.0927 -0.0658
  165MOL0     C22145   2.182   6.437   8.024 -0.5250  0.3253 -0.3390
  165MOL0     C22146   2.048   6.447   8.057 -0.9085  0.2418 -0.0086
  165MOL0     C22147   1.973   6.336   8.096 -0.1203  0.7790 -0.2607
  165MOL0     O22148   1.843   6.358   8.130  0.5204  0.3104 -1.1265
  165MOL0     C22149   1.758   6.253   8.174 -0.6234 -0.1682  0.2347
  165MOL0     C22150   1.621   6.321   8.196 -0.4739 -0.9695 -0.6706
  165MOL0     C22151   1.513   6.210   8.208  0.4798 -0.2951 -0.1198
  165MOL0     C22152   1.369   6.276   8.227 -0.8359 -0.0676  0.2538
  165MOL0     C22153   1.256   6.183   8.177  0.4766 -0.8279  0.7026
  165MOL0     C22154   1.120   6.256   8.193 -0.3601 -0.1308 -0.4368
  165MOL0     C22155   1.006   6.174   8.130  0.2313 -0.7156 -0.7526
  165MOL0     C22156   0.990   6.228   7.989  0.1611  0.2157  0.9237
  165MOL0     N22157   0.888   6.173   7.906 -0.7649  0.1737  0.6452
  165MOL0     C22158   0.754   6.182   7.924 -0.2481 -0.2163  0.2478
  165MOL0     C22159   0.699   6.116   7.819  0.9299 -0.4539  0.1699
  165MOL0     C22160   0.554   6.094   7.767  0.0621 -0.4212 -0.3393
  165MOL0     C22161   0.453   6.125   7.881  0.0439  0.3463  0.2101
  165MOL0     C22162   0.317   6.083   7.837 -0.4800  0.6703  0.7293
  165MOL0     C22163   0.202   6.115   7.926 -0.1640 -0.8058  0.7759
  165MOL0     O22164   0.090   6.032   7.887 -0.0947  0.0535 -0.5217
  165MOL0     C22165  -0.047   6.069   7.917  0.1036 -0.4767 -0.3390
  165MOL0     C22166  -0.147   6.010   7.846  0.4469  0.3971  1.4051
  165MOL0     C22167  -0.276   6.047   7.852 -0.3875 -0.6846 -1.1592
  165MOL0     C22168  -0.382   5.976   7.769  0.5847  0.6065 -0.1478
  165MOL0     C22169  -0.322   6.143   7.953 -0.3983 -0.0595 -0.2730
  165MOL0     C22170  -0.466   6.176   7.977  0.3915 -0.2574 -0.4682
  165MOL0     O22171  -0.564   6.083   7.952  0.1328  0.2124  0.5199
  165MOL0     C22172  -0.692   6.115   7.984 -0.5772  0.7448  0.0345
  165MOL0     C22173  -0.721   6.076   8.106  0.5033  0.1198  0.7700
  165MOL0     C22174  -0.848   6.071   8.154  1.0801 -0.3992  0.1826
  165MOL0     C22175  -0.960   6.109   8.075 -0.7507  0.0468  0.1204
  165MOL0     O22176  -1.091   6.103   8.114  0.4109  0.1385 -0.2273
  165MOL0     C22177  -1.197   6.143   8.026 -0.4492  0.1626  1.3385
  165MOL0     C22178  -1.326   6.145   8.107  0.7669 -0.3921 -0.4034
  165MOL0     C22179  -1.439   6.175   8.013 -0.2920 -0.7645 -0.7536
  165MOL0     C22180  -1.560   6.209   8.086  0.0622  0.3393 -0.0485
  165MOL0     C22181  -1.680   6.249   7.995  0.2503 -0.4705 -0.0971
  165MOL0     C22182  -1.805   6.252   8.070  0.8170  0.2324 -0.2212
  165MOL0     C22183  -1.928   6.221   7.980 -0.3198  0.6063 -0.1223
  165MOL0     C22184  -2.044   6.203   8.073 -0.4318 -0.0921 -0.2370
  165MOL0    Cl22185  -2.187   6.154   7.979 -0.3417  0.1973  0.3639
  165MOL0     C22186  -0.927   6.135   7.940 -0.8265 -0.2345 -0.0321
  165MOL0     C22187  -0.797   6.138   7.894 -0.3753  0.4068  0.3491
  165MOL0     O22188  -0.492   6.276   8.052 -0.4335  0.4845 -0.8451
  165MOL0     C22189  -0.218   6.205   8.029  0.1520  0.8351 -0.1124
  165MOL0     C22190  -0.081   6.167   8.015 -0.0573  0.0214  0.5156
  165MOL0     N22191   0.805   6.071   7.742  0.0130  0.2574  0.8799
  165MOL0     N22192   0.921   6.097   7.795 -0.2318  0.0551 -0.1611
  165MOL0     C22193   2.036   6.210   8.111  0.2976 -0.3262  0.1157
  165MOL0     C22194   2.171   6.206   8.079  0.5324  0.0364  0.5957
  165MOL0     C22195   2.580   6.354   7.882 -0.5460  0.0934 -0.6311
  165MOL0     C22196   2.655   6.388   7.765  0.3382  1.1968 -0.8356
  165MOL0     C22197   2.793   6.364   7.769 -0.1173 -0.0879 -0.5525
  165MOL0     C22198   2.867   6.325   7.885 -0.0211  0.5244  1.1008
  165MOL0     O22199   3.009   6.339   7.875  0.4531 -0.4545  0.4505
  165MOL0     C22200   3.099   6.337   7.987  0.6483  0.0270 -0.2505
  165MOL0     C22201   3.206   6.225   7.975  0.0787 -0.4144 -0.2705
  165MOL0     C22202   3.287   6.218   7.852 -0.3923 -0.1105  0.8147
  165MOL0     C22203   3.385   6.333   7.817 -0.7598 -1.0220 -0.7780
  165MOL0     C22204   3.509   6.326   7.906  0.1709  0.4855 -0.3391
  165MOL0     C22205   3.607   6.321   7.973 -0.6126  0.4930 -0.5644
  165MOL0     C22206   2.790   6.281   7.992 -0.0862 -0.4344  0.4133
  165MOL0     C22207   2.649   6.301   7.995 -0.5777  0.7808 -0.7609
  165MOL0     H22208   2.233   6.525   7.984  1.7028 -0.6432  0.1931
  165MOL0     H22209   2.016   6.550   8.041  0.5713  0.4018 -2.4605
  165MOL0     H22210   1.759   6.175   8.097 -2.9354  0.7940 -0.8829
  165MOL0     H22211   1.795   6.213   8.269 -0.4631 -0.3285  0.1034
  165MOL0     H22212   1.627   6.387   8.283  1.4503  0.7705 -2.0444
  165MOL0     H22213   1.611   6.385   8.108 -0.8361  2.2474  1.5457
  165MOL0     H22214   1.509   6.169   8.106  0.9229 -1.9943  0.4987
  165MOL0     H22215   1.542   6.140   8.287 -2.1915  0.0334  1.2368
  165MOL0     H22216   1.354   6.286   8.335 -0.0866 -1.9440  0.5732
  165MOL0     H22217   1.367   6.375   8.182 -3.3209 -0.7659 -1.4331
  165MOL0     H22218   1.273   6.155   8.073 -2.5807 -2.6027  0.5533
  165MOL0     H22219   1.259   6.084   8.222  2.0945 -1.6846 -1.1474
  165MOL0     H22220   1.093   6.273   8.298 -0.8868  2.8030 -0.9768
  165MOL0     H22221   1.127   6.356   8.151 -3.4870  1.3122  2.0523
  165MOL0     H22222   1.039   6.069   8.138 -1.7204 -1.2319  1.8242
  165MOL0     H22223   0.908   6.183   8.177  0.4368  0.5615 -0.5371
  165MOL0     H22224   1.087   6.225   7.938  0.2259  2.8177  0.7529
  165MOL0     H22225   0.975   6.336   8.001  0.2296  0.4324 -0.6805
  165MOL0     H22226   0.698   6.218   8.010 -0.2676 -3.0868  1.5614
  165MOL0     H22227   0.551   6.156   7.676  1.4674 -2.8873 -2.1960
  165MOL0     H22228   0.545   5.997   7.717 -0.3999  0.6789 -2.5172
  165MOL0     H22229   0.461   6.234   7.890  0.6116  0.5918 -2.3311
  165MOL0     H22230   0.478   6.079   7.977  0.1578  0.9807  0.4930
  165MOL0     H22231   0.321   5.976   7.814 -3.3482  1.2206 -3.2878
  165MOL0     H22232   0.300   6.130   7.740  3.8469 -0.1235 -0.6583
  165MOL0     H22233   0.178   6.219   7.902  2.6130 -0.5761 -1.5702
  165MOL0     H22234   0.212   6.113   8.035 -5.2513  1.1378  1.5490
  165MOL0     H22235  -0.112   5.936   7.775 -0.4911  0.9686  0.3242
  165MOL0     H22236  -0.453   6.055   7.741  2.0243  1.4524 -1.5595
  165MOL0     H22237  -0.344   5.941   7.673 -3.3916  0.8855 -2.0445
  165MOL0     H22238  -0.434   5.899   7.827 -1.3650  1.1377 -1.0770
  165MOL0     H22239  -0.633   6.039   8.157  2.8972  0.9243 -2.4193
  165MOL0     H22240  -0.872   6.044   8.257  0.7413 -0.4421  0.0937
  165MOL0     H22241  -1.179   6.244   7.989  0.2658 -0.3586  0.1928
  165MOL0     H22242  -1.215   6.078   7.939 -2.3874  0.7108  1.2901
  165MOL0     H22243  -1.337   6.047   8.153  3.6468 -1.4136 -1.6345
  165MOL0     H22244  -1.323   6.221   8.185 -2.7327 -0.7608  0.2453
  165MOL0     H22245  -1.451   6.091   7.944  0.2565 -0.5654 -1.1035
  165MOL0     H22246  -1.405   6.263   7.957  0.0250  0.8112  1.7753
  165MOL0     H22247  -1.583   6.122   8.148  2.8343 -1.5180 -1.3973
  165MOL0     H22248  -1.543   6.290   8.156  1.3702  1.6944 -1.8350
  165MOL0     H22249  -1.680   6.173   7.916  0.1695  0.9789 -1.5515
  165MOL0     H22250  -1.660   6.349   7.955 -0.9932  0.4098  1.3534
  165MOL0     H22251  -1.811   6.179   8.152  0.2366 -0.0130 -0.4815
  165MOL0     H22252  -1.813   6.347   8.124 -1.7331  0.5073 -0.9969
  165MOL0     H22253  -1.920   6.126   7.926  1.9970  0.3212  0.6025
  165MOL0     H22254  -1.947   6.298   7.904 -1.7974  0.6194  0.2191
  165MOL0     H22255  -2.063   6.302   8.116  1.4215  0.6007 -0.9215
  165MOL0     H22256  -2.031   6.125   8.149 -0.8085 -0.8760 -0.9568
  165MOL0     H22257  -1.005   6.148   7.866 -0.4531  1.8244 -0.1056
  165MOL0     H22258  -0.779   6.145   7.788 -1.8217  1.0889  0.1255
  165MOL0     H22259  -0.244   6.268   8.112 -1.0718  0.2292 -0.0103
  165MOL0     H22260  -0.003   6.212   8.075 -1.0048  0.1535  1.6997
  165MOL0     H22261   1.990   6.123   8.158  0.4242  1.1902  3.3116
  165MOL0     H22262   2.237   6.120   8.084  0.5024 -0.0497 -0.2997
  165MOL0     H22263   2.596   6.419   7.679 -0.5424  0.0410 -0.6737
  165MOL0     H22264   2.847   6.383   7.677  0.8053 -0.0480 -0.0068
  165MOL0     H22265   3.143   6.436   7.977 -2.2609  1.1700 -4.5914
  165MOL0     H22266   3.044   6.317   8.079 -3.0813 -2.6256 -2.7386
  165MOL0     H22267   3.164   6.126   7.998  0.2973 -0.7629 -1.3104
  165MOL0     H22268   3.275   6.251   8.055  0.1210  2.5361 -1.1417
  165MOL0     H22269   3.224   6.209   7.763 -1.7294  1.4713  1.5327
  165MOL0     H22270   3.345   6.126   7.861 -2.3516 -1.5454 -0.2232
  165MOL0     H22271   3.336   6.430   7.819  2.4348  0.7320 -1.4315
  165MOL0     H22272   3.415   6.327   7.712  2.1399  2.6385 -0.3456
  165MOL0     H22273   3.699   6.316   8.027 -1.9253 -1.6082  1.6494
  165MOL0     H22274   2.836   6.246   8.084 -1.5864  2.0971  2.2655
  165MOL0     H22275   2.589   6.259   8.075  1.9589 -0.0769  0.8272
  166MOL0     O22276   6.203   7.113   4.108  0.2435 -0.1524 -0.5493
  166MOL0     C22277   6.233   7.042   4.201  0.5238 -0.8736  0.6887
  166MOL0     O22278   6.151   6.948   4.260 -0.1428  0.1536 -0.0659
  166MOL0     C22279   6.030   6.900   4.218 -0.0618 -0.1458  0.6052
  166MOL0     C22280   5.937   6.964   4.142  0.9495 -0.1827  1.5217
  166MOL0     C22281   5.812   6.902   4.111 -0.6115  0.1402  0.1268
  166MOL0     C22282   5.780   6.777   4.162 -0.3656  0.0109  0.2913
  166MOL0     O22283   5.656   6.723   4.139  0.0366 -0.1464 -0.3886
  166MOL0     C22284   5.630   6.584   4.167 -0.2272 -0.3289  0.4656
  166MOL0     C22285   5.497   6.559   4.111  0.4798  0.9368 -0.2778
  166MOL0     C22286   5.458   6.423   4.165  0.0641 -0.3752 -0.2548
  166MOL0     C22287   5.326   6.379   4.095  0.1346 -0.4115 -0.0919
  166MOL0     C22288   5.339   6.225   4.060 -0.3712 -0.7093  0.2079
  166MOL0     C22289   5.230   6.166   3.972 -0.3696 -0.1267  0.2064
  166MOL0     C22290   5.097   6.138   4.053  0.2431  0.3289 -0.7753
  166MOL0     C22291   5.092   6.028   4.159 -0.2445 -0.2994 -0.2514
  166MOL0     N22292   4.949   5.991   4.183 -0.7181  0.1324  0.3036
  166MOL0     C22293   4.866   6.020   4.288 -0.5248  0.5412 -0.3995
  166MOL0     C22294   4.746   5.971   4.258  0.3228  0.2414  0.1194
  166MOL0     C22295   4.628   5.981   4.349  0.3360 -0.5934  0.0490
  166MOL0     C22296   4.535   6.088   4.311 -0.0837 -0.3852  0.2425
  166MOL0     C22297   4.409   6.084   4.405  0.2371 -0.4871  0.3714
  166MOL0     C22298   4.297   6.183   4.352  0.2439 -0.1049  0.0316
  166MOL0     O22299   4.206   6.225   4.459 -0.3832 -0.1810  0.0458
  166MOL0     C22300   4.085   6.278   4.420  0.7633  0.2945 -0.3927
  166MOL0     C22301   4.060   6.342   4.299  0.6495 -0.1802  0.2106
  166MOL0     C22302   3.932   6.395   4.265 -0.3643 -0.6291  0.2741
  166MOL0     C22303   3.926   6.461   4.124  0.1808  0.2674 -0.1266
  166MOL0     C22304   3.819   6.380   4.357 -0.9929 -0.0769  0.8118
  166MOL0     C22305   3.682   6.417   4.329 -0.5315 -0.9539  0.3930
  166MOL0     O22306   3.589   6.353   4.401 -0.0499  0.0023 -0.8829
  166MOL0     C22307   3.456   6.391   4.407 -0.6484  0.0756 -0.1832
  166MOL0     C22308   3.366   6.292   4.395  1.1456  0.7667  0.2775
  166MOL0     C22309   3.232   6.319   4.411  0.6872 -0.0597  1.4417
  166MOL0     C22310   3.187   6.454   4.415 -0.1247  0.7599  0.0823
  166MOL0     O22311   3.054   6.491   4.410  0.1516  0.8243  0.0702
  166MOL0     C22312   2.950   6.404   4.373  0.0267  0.6632  0.3515
  166MOL0     C22313   2.818   6.487   4.346 -0.5071  0.1997 -0.1547
  166MOL0     C22314   2.706   6.397   4.301  0.5827  0.7488 -0.0213
  166MOL0     C22315   2.587   6.481   4.271  0.0107  0.2057 -0.2386
  166MOL0     C22316   2.468   6.391   4.239 -0.5956 -0.2987 -0.0709
  166MOL0     C22317   2.340   6.476   4.201  0.3170 -0.0312  0.4653
  166MOL0     C22318   2.233   6.376   4.147 -0.1540 -0.5980 -0.6954
  166MOL0     C22319   2.113   6.451   4.084 -0.5221  0.4524  0.4452
  166MOL0    Cl22320   1.993   6.333   4.024  0.4985  0.2942  0.2198
  166MOL0     C22321   3.282   6.552   4.426  0.1517 -0.9627 -1.2920
  166MOL0     C22322   3.415   6.523   4.422 -0.8953 -0.0238  0.1031
  166MOL0     O22323   3.658   6.502   4.242 -0.6431 -0.1885 -0.2551
  166MOL0     C22324   3.851   6.300   4.473  0.2821 -0.5348  0.1269
  166MOL0     C22325   3.983   6.259   4.510  1.0134 -0.2392  0.7340
  166MOL0     N22326   4.755   5.914   4.135 -0.0008 -0.2493 -0.1869
  166MOL0     N22327   4.874   5.917   4.094  0.5652 -0.9012  0.4021
  166MOL0     C22328   5.880   6.711   4.235  0.1037  0.5132 -0.0770
  166MOL0     C22329   6.000   6.775   4.266  0.1933  0.5711  0.3119
  166MOL0     C22330   6.374   7.052   4.239 -0.4691 -0.1361  0.1270
  166MOL0     C22331   6.454   7.166   4.226 -0.2329 -0.4699  0.4389
  166MOL0     C22332   6.584   7.167   4.273  0.1556 -0.4016  0.5976
  166MOL0     C22333   6.646   7.054   4.336  0.1926  0.7401 -0.6133
  166MOL0     O22334   6.780   7.046   4.390  0.0679 -0.5997  0.0244
  166MOL0     C22335   6.868   7.157   4.373 -0.2440 -0.1267  0.2112
  166MOL0     C22336   6.931   7.166   4.231  0.3595  0.2207  0.0811
  166MOL0     C22337   7.039   7.053   4.205  0.9764 -0.0239 -0.0306
  166MOL0     C22338   7.025   6.978   4.081  0.3084  0.1503  0.0749
  166MOL0     C22339   7.029   7.066   3.965 -0.2396 -0.3610 -0.2850
  166MOL0     C22340   7.032   7.150   3.877 -0.6335 -0.1926 -0.4521
  166MOL0     C22341   6.560   6.941   4.355  0.2708 -0.2151  0.3937
  166MOL0     C22342   6.426   6.938   4.306  0.2483  0.3584  0.6448
  166MOL0     H22343   5.969   7.055   4.090  0.3163 -1.2987 -0.9970
  166MOL0     H22344   5.739   6.962   4.058 -0.4791  0.7318  0.6029
  166MOL0     H22345   5.701   6.523   4.110  0.8079  2.9917 -2.1876
  166MOL0     H22346   5.633   6.547   4.269 -0.6684  1.1723  1.0479
  166MOL0     H22347   5.433   6.646   4.130 -1.4489 -0.1955 -1.3427
  166MOL0     H22348   5.504   6.545   4.003  0.1191  2.5244 -0.5368
  166MOL0     H22349   5.534   6.350   4.135 -0.8664 -1.8809  0.8872
  166MOL0     H22350   5.444   6.429   4.273  0.2031  0.9020 -0.2890
  166MOL0     H22351   5.237   6.400   4.155  0.1350 -2.0952  0.5444
  166MOL0     H22352   5.314   6.434   4.001  0.0873 -1.1817 -0.5466
  166MOL0     H22353   5.432   6.198   4.009 -1.4227 -1.3971 -1.4145
  166MOL0     H22354   5.344   6.171   4.155  1.5307 -1.6075 -0.3546
  166MOL0     H22355   5.207   6.229   3.886  1.9473  2.6112  1.4529
  166MOL0     H22356   5.262   6.065   3.944  0.1834  0.0436  0.2060
  166MOL0     H22357   5.071   6.231   4.104 -1.5513  0.3478 -1.6615
  166MOL0     H22358   5.016   6.118   3.983 -1.3858  0.4968  0.9863
  166MOL0     H22359   5.140   6.060   4.252  0.5940 -0.4945 -0.6134
  166MOL0     H22360   5.148   5.941   4.123  0.0131  0.0099 -0.5943
  166MOL0     H22361   4.902   6.068   4.378 -2.2255 -1.2153  1.3163
  166MOL0     H22362   4.576   5.886   4.357 -0.9295  0.2398  3.3561
  166MOL0     H22363   4.657   6.009   4.451 -0.2882  0.4830 -0.0474
  166MOL0     H22364   4.502   6.075   4.208 -0.2221  0.4641  0.1769
  166MOL0     H22365   4.590   6.181   4.327  0.4535  0.0394 -3.3392
  166MOL0     H22366   4.433   6.112   4.508  0.2394  1.9242 -0.2403
  166MOL0     H22367   4.355   5.989   4.409 -3.2296  1.3048  0.0941
  166MOL0     H22368   4.237   6.138   4.273 -0.1363  1.0598 -0.3613
  166MOL0     H22369   4.344   6.272   4.308 -0.6502  0.8807  1.0096
  166MOL0     H22370   4.148   6.361   4.239  1.1381  2.3480  1.5682
  166MOL0     H22371   4.024   6.468   4.077  0.3580  1.8821  0.4212
  166MOL0     H22372   3.857   6.393   4.072  1.0773  0.5902 -1.7882
  166MOL0     H22373   3.887   6.563   4.131  2.7286  1.2243  1.3535
  166MOL0     H22374   3.400   6.189   4.383  1.5553  1.0002 -0.6675
  166MOL0     H22375   3.166   6.232   4.406  1.6580 -0.7506 -0.7791
  166MOL0     H22376   2.992   6.336   4.298  0.2142 -0.4623  1.4352
  166MOL0     H22377   2.925   6.341   4.459  0.2841  0.4179  0.2472
  166MOL0     H22378   2.781   6.526   4.441 -0.7321 -3.5639  1.5178
  166MOL0     H22379   2.822   6.563   4.268 -1.1619 -0.2715 -0.6650
  166MOL0     H22380   2.674   6.330   4.381  0.4130  0.1263 -0.5930
  166MOL0     H22381   2.737   6.339   4.213  0.5757  1.9599 -0.8540
  166MOL0     H22382   2.554   6.544   4.355  0.2330 -3.2917  2.7092
  166MOL0     H22383   2.599   6.547   4.185  0.5698  1.6649  0.9101
  166MOL0     H22384   2.448   6.330   4.327  0.4011  2.0698  1.9230
  166MOL0     H22385   2.511   6.322   4.166 -0.1798 -0.3666  0.2293
  166MOL0     H22386   2.291   6.536   4.279  0.3054  3.3806 -1.9530
  166MOL0     H22387   2.355   6.549   4.121 -3.8880  1.9012  1.1519
  166MOL0     H22388   2.209   6.310   4.231  0.1531 -0.6963 -0.6843
  166MOL0     H22389   2.284   6.321   4.068  1.9798  0.4630 -0.1428
  166MOL0     H22390   2.149   6.515   4.003  1.8323 -1.3490 -0.0734
  166MOL0     H22391   2.073   6.509   4.167  0.0475  0.9687  0.3669
  166MOL0     H22392   3.248   6.655   4.434  0.4261 -1.0077  2.4062
  166MOL0     H22393   3.483   6.607   4.428 -1.8445  1.0248 -2.2926
  166MOL0     H22394   3.775   6.280   4.547 -1.4643  2.2164 -0.7753
  166MOL0     H22395   4.010   6.199   4.596  2.3233 -0.2437  0.3436
  166MOL0     H22396   5.868   6.619   4.290  1.6847  0.4074  0.1183
  166MOL0     H22397   6.077   6.723   4.323  0.1524  0.2518  0.0806
  166MOL0     H22398   6.408   7.249   4.173 -0.0031 -0.7356 -0.1953
  166MOL0     H22399   6.649   7.246   4.237 -0.6813 -2.0911 -6.0109
  166MOL0     H22400   6.818   7.244   4.417 -1.1382 -0.9627  0.9054
  166MOL0     H22401   6.953   7.140   4.440 -0.6399  1.5163  1.1937
  166MOL0     H22402   6.974   7.266   4.216  2.1622 -0.2093  1.9896
  166MOL0     H22403   6.849   7.153   4.160 -1.0344 -1.3748  1.8848
  166MOL0     H22404   7.037   6.993   4.297 -0.1418 -0.7213 -0.4842
  166MOL0     H22405   7.136   7.101   4.193  0.1483  1.7267 -0.0173
  166MOL0     H22406   6.929   6.927   4.094  0.8664 -0.8434  0.4212
  166MOL0     H22407   7.104   6.902   4.077  3.1590  2.9547 -0.7335
  166MOL0     H22408   7.030   7.232   3.807  1.1907  1.1992  1.0342
  166MOL0     H22409   6.589   6.854   4.413 -0.9190  1.0835  3.1341
  166MOL0     H22410   6.360   6.852   4.315 -0.0920  0.7768  2.9261
  167MOL0     O22411   9.964  11.005   1.780 -0.4310  0.1300 -0.1091
  167MOL0     C22412   9.930  10.919   1.698 -0.6632 -0.7277  0.3641
  167MOL0     O22413   9.806  10.871   1.682  0.1624  0.9643 -0.6926
  167MOL0     C22414   9.692  10.953   1.716 -0.0596  1.4453  0.2386
  167MOL0     C22415   9.699  11.088   1.752  0.2020  0.0006 -0.0261
  167MOL0     C22416   9.581  11.156   1.773  0.1261 -0.0433  0.4494
  167MOL0     C22417   9.461  11.090   1.766  0.7027  0.2771  0.7710
  167MOL0     O22418   9.339  11.143   1.810 -0.4317  0.3789  0.5047
  167MOL0     C22419   9.341  11.289   1.839  0.3883  0.6131  0.7790
  167MOL0     C22420   9.199  11.326   1.885 -0.9448 -0.7593 -0.4101
  167MOL0     C22421   9.101  11.344   1.784  0.6162  0.0889 -0.2008
  167MOL0     C22422   8.963  11.361   1.857 -0.7293  0.4675  0.2228
  167MOL0     C22423   8.860  11.400   1.755 -0.6799 -0.4574 -0.3152
  167MOL0     C22424   8.718  11.436   1.801  0.1693 -0.0264 -0.0671
  167MOL0     C22425   8.644  11.484   1.680  0.0890 -0.2523  0.6466
  167MOL0     C22426   8.491  11.457   1.680 -0.2531 -0.3838  0.4757
  167MOL0     N22427   8.423  11.573   1.618 -0.3957 -0.2110 -0.6328
  167MOL0     C22428   8.454  11.623   1.489 -0.1694  0.2971 -1.0142
  167MOL0     C22429   8.362  11.725   1.479 -0.4387 -0.2562 -0.6434
  167MOL0     C22430   8.339  11.821   1.366  0.7369 -0.3211 -0.3315
  167MOL0     C22431   8.368  11.753   1.232 -0.3055 -0.3555  0.0118
  167MOL0     C22432   8.357  11.857   1.128  0.0011 -1.1497  0.2340
  167MOL0     C22433   8.203  11.881   1.104  0.5525  0.0862 -0.3698
  167MOL0     O22434   8.193  11.994   1.016 -0.1901  0.1445 -0.1460
  167MOL0     C22435   8.063  12.034   0.981  1.0084  0.5926  0.1234
  167MOL0     C22436   7.945  11.963   1.008  0.7213  0.4123 -0.7735
  167MOL0     C22437   7.816  12.006   0.977 -0.2567  0.1714  0.4856
  167MOL0     C22438   7.708  11.918   1.034 -0.1453 -0.4574  0.1848
  167MOL0     C22439   7.808  12.132   0.906  0.3084 -0.9709 -0.7495
  167MOL0     C22440   7.679  12.189   0.871 -0.2160 -0.1914  0.4209
  167MOL0     O22441   7.575  12.129   0.919  0.1542 -0.3280  0.1572
  167MOL0     C22442   7.455  12.188   0.875  0.4012 -1.1486 -0.4911
  167MOL0     C22443   7.382  12.139   0.773  0.8175 -0.5626  0.3163
  167MOL0     C22444   7.258  12.189   0.744  0.8083  0.1863 -0.4659
  167MOL0     C22445   7.203  12.294   0.810  0.5068 -0.3682 -0.0364
  167MOL0     O22446   7.086  12.362   0.773 -0.0512 -0.0505  0.3547
  167MOL0     C22447   7.001  12.282   0.693  0.7821 -0.7842 -0.5575
  167MOL0     C22448   6.862  12.352   0.681  0.1519  0.5380  0.6166
  167MOL0     C22449   6.770  12.269   0.581  0.2440  0.4520  0.0198
  167MOL0     C22450   6.633  12.334   0.594 -0.0295  0.5649 -0.0124
  167MOL0     C22451   6.531  12.286   0.498  1.4600  0.4814  1.4311
  167MOL0     C22452   6.415  12.387   0.504  0.1909  0.2176 -0.2736
  167MOL0     C22453   6.287  12.317   0.461  0.2567 -0.0644 -0.2135
  167MOL0     C22454   6.277  12.294   0.311  0.4135 -0.3113 -1.1011
  167MOL0    Cl22455   6.132  12.188   0.289 -0.0289 -0.2388 -0.1270
  167MOL0     C22456   7.276  12.340   0.919  0.2676 -0.5555  0.4254
  167MOL0     C22457   7.406  12.297   0.951  0.6218 -0.4496  1.3924
  167MOL0     O22458   7.676  12.295   0.806  0.1207 -0.2302 -0.6187
  167MOL0     C22459   7.929  12.194   0.863 -0.8321 -0.5398 -0.5832
  167MOL0     C22460   8.055  12.154   0.898  0.7970  0.3199  0.7092
  167MOL0     N22461   8.275  11.726   1.589 -0.5159  0.1525  0.3873
  167MOL0     N22462   8.306  11.631   1.665 -0.0627 -0.2764  1.0707
  167MOL0     C22463   9.461  10.962   1.715  0.8336 -0.6838 -0.3869
  167MOL0     C22464   9.574  10.892   1.700 -0.0782 -0.4292  0.7285
  167MOL0     C22465  10.022  10.831   1.635  0.8057 -0.0340 -0.0990
  167MOL0     C22466  10.155  10.873   1.624  0.3125  0.8777 -0.1468
  167MOL0     C22467  10.249  10.788   1.564  0.0033  0.2130 -0.2345
  167MOL0     C22468  10.214  10.655   1.523 -0.4323 -0.5260 -0.4139
  167MOL0     O22469  10.302  10.560   1.480 -0.1385 -0.1098  0.7363
  167MOL0     C22470  10.435  10.601   1.439  0.8919  0.0303 -0.6540
  167MOL0     C22471  10.518  10.557   1.559  0.4577  0.1438 -0.3110
  167MOL0     C22472  10.662  10.608   1.534 -0.2261  0.1506 -0.1651
  167MOL0     C22473  10.695  10.756   1.553 -0.4820  0.5714  0.2723
  167MOL0     C22474  10.839  10.778   1.573 -0.1423 -0.8522 -0.6085
  167MOL0     C22475  10.959  10.790   1.582 -0.8044 -0.6442  0.1922
  167MOL0     C22476  10.085  10.611   1.546  1.1628 -0.0058  1.0782
  167MOL0     C22477   9.989  10.696   1.606 -0.3582  0.2746  0.0576
  167MOL0     H22478   9.792  11.142   1.764  0.4612 -0.4171 -0.1199
  167MOL0     H22479   9.596  11.256   1.813 -1.4421  0.7962 -0.9355
  167MOL0     H22480   9.420  11.306   1.912  1.4620 -2.1344  0.4050
  167MOL0     H22481   9.364  11.334   1.742 -0.7128  2.8437  1.4881
  167MOL0     H22482   9.164  11.259   1.964 -2.7151  3.1610  2.5247
  167MOL0     H22483   9.221  11.420   1.937  0.7008 -1.6037  0.4950
  167MOL0     H22484   9.118  11.430   1.720 -0.7157  0.4108 -0.1465
  167MOL0     H22485   9.101  11.267   1.707  0.3651  0.1095 -0.2208
  167MOL0     H22486   8.932  11.267   1.903 -0.6212  0.2323 -0.1754
  167MOL0     H22487   8.972  11.448   1.922 -1.2324  1.6399 -1.2020
  167MOL0     H22488   8.897  11.491   1.706  1.4980 -0.2867  1.4771
  167MOL0     H22489   8.865  11.325   1.676  0.7629 -0.5722 -0.1482
  167MOL0     H22490   8.668  11.346   1.838 -2.2713  1.2286 -0.1192
  167MOL0     H22491   8.709  11.516   1.876 -3.1776 -0.5477  0.2432
  167MOL0     H22492   8.672  11.590   1.674  1.9175 -0.7382 -0.6252
  167MOL0     H22493   8.673  11.438   1.585 -0.9374  1.4720 -0.5457
  167MOL0     H22494   8.449  11.452   1.781  1.0488  3.8637  1.4282
  167MOL0     H22495   8.475  11.365   1.622  1.2206 -1.1161  1.1757
  167MOL0     H22496   8.513  11.580   1.409 -1.8327  0.1578 -2.2362
  167MOL0     H22497   8.235  11.854   1.372 -0.1129 -2.8156 -0.0622
  167MOL0     H22498   8.390  11.917   1.382  0.7615 -0.0866 -1.7176
  167MOL0     H22499   8.288  11.683   1.209 -0.9256  0.6437 -0.9530
  167MOL0     H22500   8.464  11.702   1.221  0.6113  1.5248 -1.0141
  167MOL0     H22501   8.399  11.824   1.032  1.6684  1.0400  0.1491
  167MOL0     H22502   8.411  11.951   1.144 -0.6246 -0.7867  0.2520
  167MOL0     H22503   8.152  11.903   1.199  0.8662 -2.2987  0.4168
  167MOL0     H22504   8.155  11.793   1.059  1.6636 -0.9197  0.3703
  167MOL0     H22505   7.953  11.876   1.072 -2.3438  0.9521  0.4939
  167MOL0     H22506   7.648  11.866   0.958 -0.7651  1.2188 -0.5098
  167MOL0     H22507   7.759  11.853   1.105 -2.0641  0.2975  2.3652
  167MOL0     H22508   7.640  11.975   1.097 -0.7104 -1.3964  0.4388
  167MOL0     H22509   7.412  12.044   0.729 -0.4712 -1.3076  1.0144
  167MOL0     H22510   7.210  12.135   0.663  0.1642 -1.6916  1.0880
  167MOL0     H22511   7.037  12.263   0.591 -2.2505  1.6062 -2.2366
  167MOL0     H22512   6.988  12.183   0.738 -0.5687 -0.9295 -1.2276
  167MOL0     H22513   6.812  12.368   0.777  0.0233  0.5030  0.5572
  167MOL0     H22514   6.889  12.448   0.635  0.7279 -0.6940 -1.8110
  167MOL0     H22515   6.763  12.164   0.612 -2.1661  1.0472  1.7541
  167MOL0     H22516   6.803  12.269   0.476 -0.7374  1.9835 -0.3135
  167MOL0     H22517   6.593  12.338   0.696 -3.6093  0.5839 -1.2567
  167MOL0     H22518   6.657  12.438   0.569  1.3211 -0.3180 -2.7216
  167MOL0     H22519   6.508  12.186   0.537  0.0669  1.2783  2.7365
  167MOL0     H22520   6.578  12.269   0.401 -0.0245  1.2801  0.5476
  167MOL0     H22521   6.404  12.425   0.606 -1.8547 -0.7196 -0.1026
  167MOL0     H22522   6.439  12.472   0.438 -2.7922  2.8174  1.6986
  167MOL0     H22523   6.207  12.390   0.477 -1.6092 -1.4837 -2.4818
  167MOL0     H22524   6.276  12.224   0.518  0.2620 -0.9645 -1.6368
  167MOL0     H22525   6.362  12.245   0.262  0.3030  0.4776 -2.1146
  167MOL0     H22526   6.268  12.392   0.263  0.5239 -0.5292 -1.5774
  167MOL0     H22527   7.243  12.438   0.953  1.8300  1.8919 -4.1223
  167MOL0     H22528   7.472  12.341   1.025  0.3589  0.7154  0.9550
  167MOL0     H22529   7.921  12.286   0.806  0.2432 -0.3842 -0.5049
  167MOL0     H22530   8.146  12.202   0.864  0.1138  0.5383 -0.9157
  167MOL0     H22531   9.369  10.905   1.704  1.7243 -2.1865 -0.2197
  167MOL0     H22532   9.556  10.787   1.684 -1.5247 -0.4262  2.0847
  167MOL0     H22533  10.176  10.974   1.656 -1.2706  0.9342  0.7971
  167MOL0     H22534  10.347  10.834   1.555  0.5284 -0.9767 -0.8647
  167MOL0     H22535  10.460  10.555   1.343 -3.4058  1.6976 -2.8523
  167MOL0     H22536  10.433  10.710   1.427 -5.6482  0.3575  0.0654
  167MOL0     H22537  10.515  10.449   1.577  1.9807  0.0609 -0.4702
  167MOL0     H22538  10.491  10.596   1.657  2.0412 -0.0705  0.2325
  167MOL0     H22539  10.700  10.576   1.437  2.8341  1.4110  0.5146
  167MOL0     H22540  10.720  10.555   1.610 -0.5837  0.9234  0.6704
  167MOL0     H22541  10.650  10.797   1.644  1.0492  1.8734  0.4911
  167MOL0     H22542  10.659  10.823   1.474 -4.0598  0.0379  1.2869
  167MOL0     H22543  11.065  10.789   1.601 -1.1775 -0.9320  2.5695
  167MOL0     H22544  10.053  10.511   1.519 -1.5701  1.2239 -0.6540
  167MOL0     H22545   9.891  10.653   1.621 -1.4462  1.9104 -1.8202
  168MOL0     O22546   4.882   2.574  10.312 -0.5002  0.4140  0.3901
  168MOL0     C22547   4.896   2.681  10.374 -0.2826 -0.6261 -0.2532
  168MOL0     O22548   4.800   2.757  10.433 -0.3012  0.2361 -0.3096
  168MOL0     C22549   4.669   2.729  10.432  0.0785  0.4299  0.0453
  168MOL0     C22550   4.586   2.684  10.326 -0.7231  0.3355 -0.5641
  168MOL0     C22551   4.447   2.667  10.334  0.3525 -0.4050 -0.1140
  168MOL0     C22552   4.380   2.717  10.453  0.4355  0.1081  0.5562
  168MOL0     O22553   4.246   2.713  10.480  0.5030 -0.8603 -0.6709
  168MOL0     C22554   4.161   2.655  10.380 -0.1523  0.3726 -0.0535
  168MOL0     C22555   4.024   2.704  10.409  0.9851 -0.1153 -0.0992
  168MOL0     C22556   3.928   2.624  10.314 -0.2495  0.1100  0.3835
  168MOL0     C22557   3.784   2.682  10.320 -0.4853 -0.2110 -0.4124
  168MOL0     C22558   3.679   2.571  10.308  0.7492  1.2859 -0.2516
  168MOL0     C22559   3.533   2.624  10.335 -0.5358 -0.3787  0.2314
  168MOL0     C22560   3.420   2.529  10.305 -0.9395 -0.0222 -0.1263
  168MOL0     C22561   3.282   2.599  10.315  0.1350 -0.0587  0.0294
  168MOL0     N22562   3.190   2.496  10.370 -0.7501 -0.0923  0.6319
  168MOL0     C22563   3.168   2.473  10.508  0.0891  0.5152  0.5199
  168MOL0     C22564   3.093   2.362  10.500 -0.2819  0.5241  0.6077
  168MOL0     C22565   3.033   2.290  10.616  0.7961 -0.1789 -0.8787
  168MOL0     C22566   2.904   2.213  10.581  0.4817 -0.7170 -1.3655
  168MOL0     C22567   2.851   2.136  10.695 -0.1817  0.5811 -0.4663
  168MOL0     C22568   2.714   2.083  10.657  0.3506 -0.3962  0.1537
  168MOL0     O22569   2.617   2.195  10.652 -0.0286 -0.2512 -0.1441
  168MOL0     C22570   2.481   2.160  10.667 -0.2285 -1.0191  0.1363
  168MOL0     C22571   2.404   2.224  10.771  0.4436  0.3742 -0.3908
  168MOL0     C22572   2.274   2.196  10.793  0.4153 -0.6262  0.4772
  168MOL0     C22573   2.208   2.243  10.925  0.8906 -0.0946  0.8312
  168MOL0     C22574   2.198   2.111  10.700 -0.4223 -0.4212  0.2311
  168MOL0     C22575   2.055   2.073  10.711  0.2035 -0.0628 -0.0370
  168MOL0     O22576   2.017   1.971  10.631 -0.0663  0.0156 -0.0008
  168MOL0     C22577   1.882   1.940  10.616 -0.5407 -0.3699 -0.3178
  168MOL0     C22578   1.833   1.820  10.666  0.1743  0.2613  0.2179
  168MOL0     C22579   1.693   1.799  10.652  0.1513  0.7403 -0.3061
  168MOL0     C22580   1.616   1.877  10.569 -0.1883  0.5132 -0.1941
  168MOL0     O22581   1.485   1.839  10.542 -0.0637  0.1368  0.2508
  168MOL0     C22582   1.415   1.747  10.634 -0.7266 -0.4144  0.4777
  168MOL0     C22583   1.257   1.745  10.608 -0.8649  0.8443  0.0386
  168MOL0     C22584   1.227   1.706  10.460  0.5989 -0.4904  0.2850
  168MOL0     C22585   1.071   1.709  10.442  0.4934  0.4960 -0.4235
  168MOL0     C22586   1.029   1.656  10.305 -0.8233  0.4376 -0.5406
  168MOL0     C22587   0.877   1.677  10.269 -0.1381  0.8081 -0.3154
  168MOL0     C22588   0.849   1.629  10.128 -1.1403 -0.4143  0.0969
  168MOL0     C22589   0.711   1.613  10.081  0.5961  0.2474 -0.6820
  168MOL0    Cl22590   0.707   1.501   9.943  0.5115  0.2750 -0.2615
  168MOL0     C22591   1.669   1.992  10.510  0.3551 -0.4276 -0.4143
  168MOL0     C22592   1.803   2.020  10.535 -0.1068  0.4191 -0.6455
  168MOL0     O22593   1.984   2.128  10.795  0.3373  0.0187 -0.0999
  168MOL0     C22594   2.278   2.044  10.597  0.4698 -0.1996 -0.6429
  168MOL0     C22595   2.413   2.076  10.579  0.2940  0.2348 -0.1113
  168MOL0     N22596   3.070   2.329  10.368  0.8374  0.1997 -0.2583
  168MOL0     N22597   3.128   2.413  10.288  0.3779  0.2833 -0.2725
  168MOL0     C22598   4.459   2.762  10.557 -0.2047 -0.4851 -0.0865
  168MOL0     C22599   4.598   2.758  10.552 -0.4824  0.0899  0.0280
  168MOL0     C22600   5.032   2.737  10.404  0.4433 -0.4372 -0.3931
  168MOL0     C22601   5.056   2.866  10.448  0.1437  0.0019  0.1247
  168MOL0     C22602   5.184   2.910  10.486 -0.9406  0.5568  0.6506
  168MOL0     C22603   5.288   2.813  10.487  0.1045 -0.4715 -0.6211
  168MOL0     O22604   5.416   2.830  10.529 -0.3233  0.5903 -0.2357
  168MOL0     C22605   5.472   2.946  10.588  0.5278  0.0340 -0.6029
  168MOL0     C22606   5.487   3.063  10.493  0.4748 -0.3280  0.2390
  168MOL0     C22607   5.562   3.042  10.363  0.0049  0.3535  0.7865
  168MOL0     C22608   5.608   3.169  10.299 -0.1999  0.7932 -0.8274
  168MOL0     C22609   5.698   3.140  10.195 -0.6988  0.1649 -0.4846
  168MOL0     C22610   5.787   3.135  10.107  0.6167  0.1593 -0.2694
  168MOL0     C22611   5.263   2.688  10.437 -0.3368 -0.1949 -1.0197
  168MOL0     C22612   5.138   2.649  10.399  0.3136  0.0978 -0.3667
  168MOL0     H22613   4.620   2.652  10.229 -1.4754 -1.4103 -0.2905
  168MOL0     H22614   4.392   2.631  10.247  1.2521 -0.6498 -0.5968
  168MOL0     H22615   4.188   2.694  10.282 -0.4772 -0.8473 -0.6610
  168MOL0     H22616   4.168   2.545  10.384 -1.7322  0.2446 -0.1521
  168MOL0     H22617   3.995   2.684  10.513  0.5378  0.0021 -0.1982
  168MOL0     H22618   4.026   2.812  10.395  1.0076 -0.1908 -0.6792
  168MOL0     H22619   3.961   2.637  10.211 -2.8754  2.9233 -0.2445
  168MOL0     H22620   3.923   2.519  10.344 -0.6636  0.2334  0.7536
  168MOL0     H22621   3.777   2.730  10.418  2.4692  0.8016 -0.5877
  168MOL0     H22622   3.764   2.755  10.242 -1.1991 -0.3398 -0.3489
  168MOL0     H22623   3.696   2.517  10.214 -0.5357 -0.0073  0.2080
  168MOL0     H22624   3.690   2.487  10.378 -2.7318 -0.6315 -1.7875
  168MOL0     H22625   3.524   2.648  10.441 -1.5841 -2.1909  0.5938
  168MOL0     H22626   3.515   2.711  10.271  0.5562 -0.1223  0.2625
  168MOL0     H22627   3.427   2.504  10.199 -0.3872  1.3420 -0.4265
  168MOL0     H22628   3.425   2.442  10.371 -2.0372  0.4642  0.6395
  168MOL0     H22629   3.251   2.645  10.221 -0.1990 -1.5332 -0.6111
  168MOL0     H22630   3.283   2.678  10.391 -1.2844  0.5088 -0.5079
  168MOL0     H22631   3.213   2.521  10.594 -1.8608  0.9370  1.3496
  168MOL0     H22632   3.109   2.231  10.667 -0.2503  0.3721  1.4535
  168MOL0     H22633   3.006   2.371  10.685 -3.5452  0.0217 -2.4904
  168MOL0     H22634   2.917   2.150  10.492 -2.0397 -0.9093 -1.6692
  168MOL0     H22635   2.828   2.284  10.547  0.8068 -0.4165 -1.4787
  168MOL0     H22636   2.846   2.200  10.784 -0.7909  0.1275 -0.1565
  168MOL0     H22637   2.926   2.059  10.716 -1.4294 -0.5953 -0.1308
  168MOL0     H22638   2.679   2.009  10.729 -0.3324 -0.5419 -0.3117
  168MOL0     H22639   2.725   2.037  10.558  0.3908 -0.7497  0.3186
  168MOL0     H22640   2.463   2.278  10.844 -0.5437 -1.5514  1.9394
  168MOL0     H22641   2.121   2.306  10.906  0.3270 -1.8837 -3.8088
  168MOL0     H22642   2.179   2.155  10.984  1.0487  0.3570  1.5906
  168MOL0     H22643   2.284   2.283  10.993 -0.0450 -0.0131  1.8546
  168MOL0     H22644   1.906   1.752  10.708 -0.0034 -2.0336 -2.8366
  168MOL0     H22645   1.654   1.705  10.689 -1.1326  1.7970  1.1442
  168MOL0     H22646   1.453   1.648  10.605  0.3064  0.4311 -1.2183
  168MOL0     H22647   1.440   1.769  10.738  2.8488  1.0116 -0.5158
  168MOL0     H22648   1.222   1.662  10.670  1.5916 -2.1023 -2.1695
  168MOL0     H22649   1.221   1.847  10.626  0.8130  1.6106 -0.6923
  168MOL0     H22650   1.278   1.609  10.448 -0.0798 -0.7242 -0.8476
  168MOL0     H22651   1.268   1.783  10.394 -0.1996 -0.0949  0.2410
  168MOL0     H22652   1.031   1.637  10.514  0.0341 -0.0239 -1.1769
  168MOL0     H22653   1.024   1.807  10.453  0.1830  0.3195 -0.1301
  168MOL0     H22654   1.057   1.551  10.297  0.8589  0.9068 -1.1332
  168MOL0     H22655   1.083   1.720  10.235 -1.2249  1.2627 -0.1128
  168MOL0     H22656   0.810   1.621  10.335  1.8510 -0.0134  1.0978
  168MOL0     H22657   0.851   1.783  10.273  1.9020  1.4295 -1.9557
  168MOL0     H22658   0.905   1.537  10.108 -0.7938 -0.2049  0.0877
  168MOL0     H22659   0.892   1.711  10.069 -0.2123  0.7480  2.2785
  168MOL0     H22660   0.655   1.706  10.064  0.6195  0.8033  1.8965
  168MOL0     H22661   0.648   1.566  10.157  0.1387 -2.3127 -2.5087
  168MOL0     H22662   1.612   2.062  10.450 -1.5787  0.1647  1.9054
  168MOL0     H22663   1.836   2.113  10.489 -0.6692  1.0468  0.1939
  168MOL0     H22664   2.242   1.970  10.526  1.2295 -0.2171 -1.0165
  168MOL0     H22665   2.461   2.016  10.502 -0.2905 -1.1395  0.5728
  168MOL0     H22666   4.410   2.819  10.635  0.3416 -0.7715  0.4723
  168MOL0     H22667   4.651   2.803  10.635 -0.3411  2.5224 -1.2636
  168MOL0     H22668   4.969   2.931  10.451 -1.2364 -1.6714 -1.4515
  168MOL0     H22669   5.190   3.013  10.520  1.5723  1.3078 -1.6824
  168MOL0     H22670   5.408   2.980  10.669 -0.8430 -0.7490 -1.3228
  168MOL0     H22671   5.577   2.926  10.615  0.6822  1.4321 -0.0579
  168MOL0     H22672   5.538   3.142  10.550  0.2277  0.3183 -0.4163
  168MOL0     H22673   5.387   3.104  10.475  0.6448  1.0196  1.9769
  168MOL0     H22674   5.503   2.992  10.286  2.3879  1.1607 -1.7483
  168MOL0     H22675   5.640   2.968  10.386 -0.5769 -0.6405 -0.3414
  168MOL0     H22676   5.651   3.233  10.377  0.1229 -0.7777  0.3296
  168MOL0     H22677   5.518   3.215  10.258 -2.1796 -0.4282  1.8256
  168MOL0     H22678   5.866   3.118  10.037  1.9964  1.8824  0.7974
  168MOL0     H22679   5.353   2.634  10.410  1.1577  0.9313  1.3453
  168MOL0     H22680   5.117   2.549  10.362 -3.1297  0.6001 -0.1124
  169MOL0     O22681   3.272  10.785   1.125 -0.4963 -0.0491  0.3734
  169MOL0     C22682   3.248  10.668   1.131 -0.1795  0.2830 -0.0339
  169MOL0     O22683   3.335  10.568   1.177  0.0821 -0.2244  0.6853
  169MOL0     C22684   3.441  10.598   1.260 -0.7228 -0.1519 -0.5567
  169MOL0     C22685   3.504  10.483   1.313 -0.0003 -0.5616  0.7760
  169MOL0     C22686   3.611  10.488   1.398 -1.1761 -0.2096 -0.2209
  169MOL0     C22687   3.664  10.605   1.448  0.5160 -0.5701  0.1463
  169MOL0     O22688   3.745  10.614   1.550 -0.4145 -0.3243 -0.5171
  169MOL0     C22689   3.833  10.731   1.559 -0.2068  0.2112 -0.0558
  169MOL0     C22690   3.974  10.687   1.620  0.7060 -0.5852 -0.6388
  169MOL0     C22691   4.026  10.584   1.523 -0.8314 -0.1574  0.1424
  169MOL0     C22692   4.177  10.592   1.523 -0.3893  0.4222  0.1752
  169MOL0     C22693   4.255  10.552   1.651  0.4758  0.0470 -0.3001
  169MOL0     C22694   4.409  10.551   1.617  0.0845  0.3170  0.1263
  169MOL0     C22695   4.483  10.554   1.747  0.9500  0.6583 -0.4400
  169MOL0     C22696   4.467  10.424   1.830 -0.4634 -0.1320 -0.4950
  169MOL0     N22697   4.552  10.419   1.944  0.2334 -0.1563  0.2123
  169MOL0     C22698   4.544  10.509   2.049 -0.0235  0.1446  0.0943
  169MOL0     C22699   4.650  10.481   2.126 -0.2297  0.4142 -0.5349
  169MOL0     C22700   4.712  10.554   2.245  0.3387 -0.4523 -0.0057
  169MOL0     C22701   4.681  10.704   2.264 -0.5802  0.1768 -0.1579
  169MOL0     C22702   4.706  10.749   2.412  0.2053 -0.1560 -0.2630
  169MOL0     C22703   4.603  10.705   2.522  0.3398 -0.7408 -0.3092
  169MOL0     O22704   4.476  10.739   2.458 -0.0287 -0.1141  0.0662
  169MOL0     C22705   4.354  10.714   2.517  0.1361  0.5723  0.1676
  169MOL0     C22706   4.343  10.642   2.640  0.0703  0.6970 -0.2552
  169MOL0     C22707   4.219  10.600   2.686  0.6199 -0.5066 -0.2189
  169MOL0     C22708   4.215  10.523   2.806 -0.2667 -0.2269  0.1335
  169MOL0     C22709   4.101  10.635   2.605 -0.2846 -0.0974 -0.2458
  169MOL0     C22710   3.959  10.621   2.649 -0.1913  0.1831 -1.0302
  169MOL0     O22711   3.859  10.632   2.551 -0.3393 -0.2690 -0.3104
  169MOL0     C22712   3.724  10.595   2.581  0.8547  0.3414 -0.3685
  169MOL0     C22713   3.631  10.636   2.479 -0.4334 -0.1812 -0.9536
  169MOL0     C22714   3.496  10.599   2.499 -0.4330 -0.3510 -0.2118
  169MOL0     C22715   3.457  10.525   2.610 -0.0498  0.6924  0.1259
  169MOL0     O22716   3.332  10.479   2.631 -0.5407  0.0482  0.1367
  169MOL0     C22717   3.225  10.517   2.540  0.1576  0.0035 -0.3304
  169MOL0     C22718   3.096  10.458   2.601  0.4815 -0.0340 -0.3560
  169MOL0     C22719   2.980  10.513   2.519  0.2898  0.5942  0.0197
  169MOL0     C22720   2.843  10.457   2.568 -0.3914 -0.6137  0.5183
  169MOL0     C22721   2.723  10.523   2.500 -0.5133  0.2837  0.0965
  169MOL0     C22722   2.600  10.529   2.590  0.5421 -0.5765 -0.4250
  169MOL0     C22723   2.519  10.410   2.548 -0.5603 -0.4280  0.2980
  169MOL0     C22724   2.393  10.385   2.630 -0.0544  0.9812 -0.1785
  169MOL0    Cl22725   2.415  10.391   2.801 -0.1528  0.5520 -0.2810
  169MOL0     C22726   3.551  10.468   2.689  0.1110  0.0758  0.0144
  169MOL0     C22727   3.682  10.500   2.676 -0.1593 -0.0627  0.4974
  169MOL0     O22728   3.938  10.606   2.771  0.1366  0.0772  0.3337
  169MOL0     C22729   4.114  10.699   2.488 -0.1003 -0.7200  1.2748
  169MOL0     C22730   4.241  10.732   2.442  0.2588 -0.9566  0.0802
  169MOL0     N22731   4.723  10.386   2.060  0.1074  0.0705 -0.6075
  169MOL0     N22732   4.668  10.345   1.947 -0.5275 -0.2513 -0.5625
  169MOL0     C22733   3.604  10.724   1.401  0.6080  0.2570 -0.4185
  169MOL0     C22734   3.497  10.721   1.308  0.7129  0.2344 -0.2261
  169MOL0     C22735   3.118  10.620   1.076  0.2070 -0.6628  0.8899
  169MOL0     C22736   3.080  10.485   1.091 -0.0600 -0.5049 -0.1829
  169MOL0     C22737   2.959  10.443   1.034  0.1125  0.4166 -1.1265
  169MOL0     C22738   2.872  10.528   0.962 -0.6606 -0.0055  0.3475
  169MOL0     O22739   2.756  10.465   0.906 -0.6577 -0.3413 -0.9554
  169MOL0     C22740   2.696  10.529   0.798 -0.0544 -0.1427  0.4083
  169MOL0     C22741   2.599  10.440   0.731  0.8051  0.1494 -0.1646
  169MOL0     C22742   2.657  10.315   0.666  0.0808 -0.4322  0.1742
  169MOL0     C22743   2.540  10.250   0.590  0.3077  0.1050 -0.2370
  169MOL0     C22744   2.593  10.138   0.512  0.6183  0.1995  0.5521
  169MOL0     C22745   2.627  10.042   0.451  0.6224 -0.8664  0.0972
  169MOL0     C22746   2.917  10.658   0.937  1.1330 -0.3357  0.4837
  169MOL0     C22747   3.029  10.704   1.008 -0.9217  0.2469  0.5784
  169MOL0     H22748   3.467  10.384   1.285 -1.4048  0.4772 -1.2571
  169MOL0     H22749   3.628  10.393   1.447 -2.0616 -1.4183 -2.1172
  169MOL0     H22750   3.860  10.768   1.460  0.2377 -1.5972 -0.6569
  169MOL0     H22751   3.777  10.799   1.624 -0.9124 -0.6439  0.2471
  169MOL0     H22752   4.040  10.774   1.619 -2.7860  2.3158 -2.3256
  169MOL0     H22753   3.974  10.652   1.723  4.6330  1.2828  0.1672
  169MOL0     H22754   3.996  10.482   1.550  3.5001 -1.9813 -1.1778
  169MOL0     H22755   4.006  10.605   1.418  2.9796 -2.6555 -1.2894
  169MOL0     H22756   4.201  10.525   1.440 -2.4022 -0.4634  0.2402
  169MOL0     H22757   4.207  10.693   1.492 -0.5823 -0.4694 -3.3203
  169MOL0     H22758   4.241  10.626   1.731 -0.7622 -2.3992  1.9127
  169MOL0     H22759   4.232  10.453   1.692  3.6530 -0.1188  1.4021
  169MOL0     H22760   4.434  10.467   1.552 -0.6384  1.0545 -1.1429
  169MOL0     H22761   4.418  10.648   1.568 -1.2583  0.4679  0.1506
  169MOL0     H22762   4.589  10.583   1.740  1.1512 -0.1400 -0.7414
  169MOL0     H22763   4.439  10.637   1.804 -0.2919 -0.1068 -0.2661
  169MOL0     H22764   4.501  10.343   1.764  0.2202  1.4799 -2.2217
  169MOL0     H22765   4.365  10.404   1.863  0.0079 -1.3667  0.2766
  169MOL0     H22766   4.464  10.579   2.068 -3.7967 -4.1161  1.6224
  169MOL0     H22767   4.693  10.503   2.340 -1.7546  0.2805  0.0132
  169MOL0     H22768   4.819  10.532   2.252  0.7909  1.9442  1.6451
  169MOL0     H22769   4.582  10.741   2.237  0.1119  3.7773  1.5848
  169MOL0     H22770   4.751  10.758   2.199  0.6448  1.3671  2.0505
  169MOL0     H22771   4.722  10.857   2.411  2.9112 -0.4856 -0.5825
  169MOL0     H22772   4.804  10.715   2.447 -1.5429 -1.5635  3.9244
  169MOL0     H22773   4.626  10.750   2.620  0.6745  0.2499 -0.8244
  169MOL0     H22774   4.602  10.596   2.530  3.0357 -0.8586 -0.4894
  169MOL0     H22775   4.433  10.621   2.698  0.1388  1.5794 -0.0290
  169MOL0     H22776   4.191  10.592   2.887 -0.0334 -0.8063  0.7123
  169MOL0     H22777   4.138  10.445   2.815 -1.4244  1.0316  1.5563
  169MOL0     H22778   4.312  10.476   2.827 -0.7671 -0.1454  3.0390
  169MOL0     H22779   3.659  10.686   2.387  1.0607 -2.2624 -1.7055
  169MOL0     H22780   3.422  10.650   2.438  0.2715  0.5781 -0.3251
  169MOL0     H22781   3.213  10.625   2.543 -1.9697 -0.1951  1.2232
  169MOL0     H22782   3.238  10.484   2.437  2.5466  1.9475 -0.7367
  169MOL0     H22783   3.101  10.349   2.596  3.2070  0.0349 -0.2431
  169MOL0     H22784   3.083  10.493   2.704  1.9690 -0.5820  0.0419
  169MOL0     H22785   3.002  10.468   2.422  0.2959  0.8378 -0.0927
  169MOL0     H22786   2.980  10.622   2.514  0.4784  0.5205 -3.0523
  169MOL0     H22787   2.843  10.349   2.549 -2.8836 -0.3331 -1.6420
  169MOL0     H22788   2.836  10.482   2.674 -0.1701  1.1748  0.1432
  169MOL0     H22789   2.709  10.472   2.404 -1.4416 -0.0405  0.3975
  169MOL0     H22790   2.749  10.629   2.489 -0.8890  0.3053 -0.7329
  169MOL0     H22791   2.629  10.529   2.696  1.7114  1.9949 -0.6631
  169MOL0     H22792   2.534  10.613   2.571 -0.3853 -1.7250 -2.6763
  169MOL0     H22793   2.585  10.323   2.551 -0.4979 -0.3688  0.7477
  169MOL0     H22794   2.496  10.431   2.443 -0.7292  0.2101  0.4566
  169MOL0     H22795   2.368  10.280   2.612 -1.2279  0.4978  3.3818
  169MOL0     H22796   2.313  10.454   2.601  0.4278  1.3011 -0.7382
  169MOL0     H22797   3.512  10.397   2.760  0.0413  0.2973  0.1968
  169MOL0     H22798   3.756  10.450   2.737 -0.7333 -1.6051 -0.0336
  169MOL0     H22799   4.022  10.712   2.432  0.8733  1.9656  0.1169
  169MOL0     H22800   4.246  10.781   2.346 -0.6145 -2.0020 -0.5123
  169MOL0     H22801   3.639  10.816   1.447 -0.3995  0.5730 -0.2377
  169MOL0     H22802   3.453  10.817   1.284  2.1508  2.1752  3.9468
  169MOL0     H22803   3.147  10.410   1.132  0.6169  0.0346 -0.2951
  169MOL0     H22804   2.938  10.339   1.057  2.8620  0.2026  0.9996
  169MOL0     H22805   2.638  10.619   0.821  0.8819  0.2993  1.0855
  169MOL0     H22806   2.769  10.557   0.722 -1.4462  4.6020  0.4688
  169MOL0     H22807   2.546  10.504   0.659 -0.2378 -1.4254 -0.8582
  169MOL0     H22808   2.541  10.405   0.816  1.4869  1.6272  0.9508
  169MOL0     H22809   2.703  10.249   0.739  0.8174 -0.8310 -0.6423
  169MOL0     H22810   2.735  10.348   0.596 -0.2809  1.4369  0.5992
  169MOL0     H22811   2.489  10.318   0.519  1.5211  1.6253  0.2935
  169MOL0     H22812   2.470  10.212   0.665 -0.5033  0.2337 -0.9069
  169MOL0     H22813   2.664   9.969   0.381  2.7781 -0.7474  1.0246
  169MOL0     H22814   2.860  10.731   0.881 -0.2209 -1.5129  0.2580
  169MOL0     H22815   3.069  10.803   0.988  3.1231 -1.2755  0.3537
  170MOL0     O22816  10.200   1.997   2.688  0.5152 -0.2238  0.0016
  170MOL0     C22817  10.179   2.072   2.593  0.4082  0.5047  0.8034
  170MOL0     O22818  10.068   2.147   2.576 -0.0202  0.2588  0.2137
  170MOL0     C22819   9.976   2.172   2.676  0.3330 -0.0832 -0.4916
  170MOL0     C22820   9.832   2.184   2.645 -1.0949  0.4927 -0.3713
  170MOL0     C22821   9.744   2.218   2.746  0.1643  0.0234 -0.3052
  170MOL0     C22822   9.786   2.235   2.883  0.1767 -0.5506 -0.0974
  170MOL0     O22823   9.688   2.260   2.971  0.1205 -0.6974 -0.1018
  170MOL0     C22824   9.702   2.227   3.110 -0.2866 -0.1186 -0.9336
  170MOL0     C22825   9.588   2.128   3.144 -0.2270 -0.0351 -1.1355
  170MOL0     C22826   9.458   2.200   3.184  0.1258 -0.4054  0.0398
  170MOL0     C22827   9.365   2.250   3.061 -0.0165 -0.1668 -0.7375
  170MOL0     C22828   9.232   2.304   3.104  0.4397  0.1226  0.4976
  170MOL0     C22829   9.112   2.217   3.085  0.8470  0.8627 -0.1386
  170MOL0     C22830   8.981   2.291   3.121  0.3389 -0.2530  0.2765
  170MOL0     C22831   8.970   2.307   3.277  0.6343 -0.0210 -0.2034
  170MOL0     N22832   8.831   2.318   3.318 -0.4199  1.2200 -0.3997
  170MOL0     C22833   8.749   2.417   3.271 -1.2664  0.0728 -0.3758
  170MOL0     C22834   8.641   2.399   3.351 -0.5534 -0.2441  0.6911
  170MOL0     C22835   8.518   2.482   3.331 -0.6053  0.3706 -0.6507
  170MOL0     C22836   8.447   2.502   3.470 -0.5139 -0.7880 -0.2144
  170MOL0     C22837   8.521   2.596   3.559 -0.6520 -0.5967 -0.8458
  170MOL0     C22838   8.440   2.655   3.680  0.4009 -0.6598  0.5069
  170MOL0     O22839   8.363   2.553   3.734  0.8513 -0.0403 -0.2136
  170MOL0     C22840   8.231   2.582   3.759 -0.2077 -0.2930 -0.5533
  170MOL0     C22841   8.172   2.709   3.775 -0.0632 -0.0467 -0.8399
  170MOL0     C22842   8.039   2.732   3.816  0.0176 -1.1856  0.1301
  170MOL0     C22843   7.984   2.871   3.817  0.1992  0.8626 -0.0372
  170MOL0     C22844   7.955   2.622   3.834  0.4732 -0.5330 -0.2579
  170MOL0     C22845   7.817   2.632   3.886  0.4016  0.2311  0.4709
  170MOL0     O22846   7.744   2.520   3.861 -0.0772 -1.1186 -0.2391
  170MOL0     C22847   7.612   2.525   3.910 -0.2393  1.0416 -0.5670
  170MOL0     C22848   7.578   2.409   3.980  0.2994  0.9363  0.2814
  170MOL0     C22849   7.453   2.386   4.028  0.5267 -0.5545 -0.5010
  170MOL0     C22850   7.353   2.492   4.032  0.0978 -0.2137  0.2127
  170MOL0     O22851   7.229   2.484   4.093 -0.0929 -0.0476  0.5317
  170MOL0     C22852   7.215   2.399   4.201  0.3129  0.8733 -0.4937
  170MOL0     C22853   7.127   2.274   4.173  1.6645  0.0272  0.4059
  170MOL0     C22854   6.984   2.312   4.122  0.2648 -1.2304 -0.5100
  170MOL0     C22855   6.870   2.210   4.137  0.0906 -0.5173  0.5504
  170MOL0     C22856   6.755   2.242   4.038  1.2320 -0.3535  0.3588
  170MOL0     C22857   6.623   2.165   4.063  0.4403 -0.4901  1.1182
  170MOL0     C22858   6.524   2.188   3.954 -0.2192 -0.4371 -1.2639
  170MOL0     C22859   6.380   2.194   3.996 -0.0247  0.0048 -0.3213
  170MOL0    Cl22860   6.261   2.190   3.869 -0.0555 -0.5798 -0.2138
  170MOL0     C22861   7.389   2.616   3.974 -1.4331 -0.1915 -0.4423
  170MOL0     C22862   7.520   2.633   3.913  0.3166 -0.2643 -0.5976
  170MOL0     O22863   7.780   2.733   3.939 -0.1035 -0.1604 -0.3769
  170MOL0     C22864   8.018   2.494   3.823  0.0260  0.1526  0.1137
  170MOL0     C22865   8.151   2.478   3.793  0.9727 -1.6949  0.5387
  170MOL0     N22866   8.656   2.295   3.439  0.0524  0.4154 -0.0187
  170MOL0     N22867   8.771   2.243   3.416  0.1402  0.2248  0.4909
  170MOL0     C22868   9.920   2.212   2.911 -0.4367 -0.7478  0.2570
  170MOL0     C22869  10.017   2.195   2.810 -0.4207  1.3017  0.7055
  170MOL0     C22870  10.272   2.067   2.473  0.3508 -0.6440 -0.2139
  170MOL0     C22871  10.404   2.024   2.477 -0.0164  0.5695 -0.3392
  170MOL0     C22872  10.484   2.025   2.365  0.2682 -0.0377 -0.4553
  170MOL0     C22873  10.427   2.061   2.243  0.0534 -0.1855 -0.2675
  170MOL0     O22874  10.501   2.070   2.134  0.5059 -0.1072 -0.2349
  170MOL0     C22875  10.624   2.002   2.117 -0.6873  0.6262 -0.5843
  170MOL0     C22876  10.647   2.008   1.970  0.0059  0.7840  0.3084
  170MOL0     C22877  10.781   1.954   1.927 -0.4061 -0.1771 -0.7002
  170MOL0     C22878  10.793   1.955   1.781  0.1791 -0.4663  1.0952
  170MOL0     C22879  10.922   1.912   1.730  0.1516  0.2943  0.7532
  170MOL0     C22880  11.030   1.892   1.687 -0.4849  0.7139  0.0951
  170MOL0     C22881  10.289   2.095   2.240 -0.1071 -0.5122  0.3248
  170MOL0     C22882  10.217   2.115   2.355  0.1831  0.6034  0.4065
  170MOL0     H22883   9.797   2.181   2.542  1.3981  2.5771 -1.3924
  170MOL0     H22884   9.638   2.235   2.734 -0.4954 -1.0364  3.0311
  170MOL0     H22885   9.801   2.188   3.134 -0.2554 -0.4605 -1.6146
  170MOL0     H22886   9.691   2.315   3.174 -1.8731  0.5975 -2.1268
  170MOL0     H22887   9.569   2.061   3.059 -0.5889  0.1909 -1.2359
  170MOL0     H22888   9.622   2.065   3.227 -0.4325  0.4176 -0.7036
  170MOL0     H22889   9.390   2.132   3.235 -0.1341 -0.6543 -0.6249
  170MOL0     H22890   9.481   2.284   3.250  3.4578  0.1095 -1.5877
  170MOL0     H22891   9.420   2.333   3.017 -2.3219  1.0059 -1.5961
  170MOL0     H22892   9.355   2.176   2.982  0.5028 -1.1894  0.1321
  170MOL0     H22893   9.235   2.341   3.207  1.8500  1.7403 -0.0796
  170MOL0     H22894   9.214   2.392   3.041 -1.4585  0.7501  1.8185
  170MOL0     H22895   9.109   2.184   2.981 -2.1332 -0.1261  0.1770
  170MOL0     H22896   9.112   2.125   3.144 -0.1413  0.5270 -0.6412
  170MOL0     H22897   8.975   2.391   3.077 -0.9484 -0.3929  0.1050
  170MOL0     H22898   8.892   2.236   3.091  0.1929 -0.4399  1.0312
  170MOL0     H22899   9.026   2.392   3.319  2.6274 -1.1295 -0.4707
  170MOL0     H22900   9.017   2.217   3.319  0.2748 -1.1797 -2.1470
  170MOL0     H22901   8.767   2.505   3.209  0.3208  0.5004  0.6429
  170MOL0     H22902   8.549   2.580   3.292  1.1833  0.7859  1.5548
  170MOL0     H22903   8.445   2.435   3.265 -1.5722  0.0980  0.5701
  170MOL0     H22904   8.424   2.407   3.519 -1.0549 -1.3494 -1.5267
  170MOL0     H22905   8.352   2.554   3.452 -0.0114 -0.1451 -1.1028
  170MOL0     H22906   8.558   2.679   3.498 -0.1081 -0.2713 -0.0910
  170MOL0     H22907   8.613   2.552   3.598 -0.0307 -0.1647 -1.7922
  170MOL0     H22908   8.385   2.737   3.633 -0.2703 -0.3194  1.8166
  170MOL0     H22909   8.503   2.707   3.753  0.1535 -1.2118  1.1327
  170MOL0     H22910   8.235   2.797   3.771  0.7193 -0.6366 -1.7173
  170MOL0     H22911   7.940   2.887   3.916 -2.3914 -1.4059 -0.7137
  170MOL0     H22912   8.061   2.949   3.809 -0.5928  1.7143  0.4504
  170MOL0     H22913   7.911   2.883   3.737  0.6816 -1.3819 -0.8946
  170MOL0     H22914   7.651   2.328   3.986 -0.0636  0.6599  1.2061
  170MOL0     H22915   7.440   2.288   4.073  0.8626  0.7650  2.7957
  170MOL0     H22916   7.306   2.367   4.254 -0.4993 -0.5859  0.0688
  170MOL0     H22917   7.158   2.458   4.273 -2.2600 -2.7874  0.7489
  170MOL0     H22918   7.172   2.204   4.103 -0.6653 -0.2113 -0.9548
  170MOL0     H22919   7.112   2.211   4.262  0.4343  0.1475  0.3103
  170MOL0     H22920   6.998   2.345   4.019 -0.3094 -3.8453 -1.4957
  170MOL0     H22921   6.952   2.394   4.187  0.3126 -2.8833  1.7570
  170MOL0     H22922   6.904   2.111   4.104  0.1509 -0.6584  1.0206
  170MOL0     H22923   6.821   2.214   4.235 -2.8236  1.7890 -0.8449
  170MOL0     H22924   6.789   2.225   3.936  1.5481  1.1720  0.1945
  170MOL0     H22925   6.737   2.349   4.046  1.3580 -0.4246  1.9909
  170MOL0     H22926   6.632   2.059   4.088  1.5523 -0.8206 -0.5166
  170MOL0     H22927   6.574   2.202   4.154 -0.6507  3.5074 -0.8212
  170MOL0     H22928   6.547   2.115   3.876  0.0800 -1.2584 -0.4396
  170MOL0     H22929   6.535   2.289   3.915  1.4372  0.9622  2.3451
  170MOL0     H22930   6.370   2.286   4.055 -1.0159 -0.2513 -0.0775
  170MOL0     H22931   6.354   2.110   4.061  0.1301 -0.2380 -0.5733
  170MOL0     H22932   7.327   2.704   3.982 -0.6817  0.3169 -0.1187
  170MOL0     H22933   7.536   2.732   3.870  0.9890 -0.2890 -0.4222
  170MOL0     H22934   7.951   2.408   3.818 -1.0891  1.0495 -2.1028
  170MOL0     H22935   8.190   2.376   3.791  0.6403 -1.8253  0.6653
  170MOL0     H22936   9.956   2.214   3.013 -2.9356  0.3366  1.2007
  170MOL0     H22937  10.122   2.179   2.828 -0.5403 -2.0914 -0.8861
  170MOL0     H22938  10.450   1.979   2.565 -1.4788  0.0078  0.1744
  170MOL0     H22939  10.589   1.995   2.370 -0.3881 -2.9748 -2.1284
  170MOL0     H22940  10.697   2.059   2.175 -1.2982  0.9062 -0.0792
  170MOL0     H22941  10.612   1.896   2.141  0.3948 -0.1272 -3.0159
  170MOL0     H22942  10.646   2.113   1.941  0.3371  1.0337  1.1617
  170MOL0     H22943  10.574   1.944   1.920  4.4787 -2.9927 -2.2214
  170MOL0     H22944  10.800   1.851   1.958  0.6175 -0.2653 -1.5701
  170MOL0     H22945  10.860   2.017   1.970 -1.4205 -0.3701  1.6009
  170MOL0     H22946  10.793   2.061   1.751 -1.5414 -0.3862  1.3011
  170MOL0     H22947  10.707   1.911   1.731  1.7190 -1.1054 -1.1642
  170MOL0     H22948  11.119   1.865   1.635 -1.0520  1.5581 -1.4008
  170MOL0     H22949  10.246   2.139   2.151  2.1112  0.4015 -0.3820
  170MOL0     H22950  10.119   2.162   2.349  0.5695  1.1921 -2.3257
  171MOL0     O22951   4.768   9.977   9.862 -1.1490  0.1556  0.2326
  171MOL0     C22952   4.779  10.086   9.913  0.5845  0.4266 -0.3260
  171MOL0     O22953   4.744  10.210   9.849  0.1601  0.1033 -0.6569
  171MOL0     C22954   4.644  10.223   9.758  0.0566  0.2758  0.2998
  171MOL0     C22955   4.651  10.343   9.689 -0.1195 -0.3137  0.0715
  171MOL0     C22956   4.572  10.368   9.579  0.1032  0.4152  0.0293
  171MOL0     C22957   4.471  10.277   9.533  0.1346 -0.6117  0.2841
  171MOL0     O22958   4.383  10.305   9.429 -0.8512 -0.2267 -0.0721
  171MOL0     C22959   4.335  10.440   9.439  0.0205 -0.9423  0.4649
  171MOL0     C22960   4.242  10.448   9.326 -0.2215 -0.0510  0.2775
  171MOL0     C22961   4.120  10.354   9.333 -0.4977 -0.9095 -0.2776
  171MOL0     C22962   3.998  10.407   9.413 -0.2346  0.0585 -0.7867
  171MOL0     C22963   3.865  10.329   9.403 -0.5821  0.4511 -0.1719
  171MOL0     C22964   3.877  10.184   9.447  1.1316 -0.1307  0.4188
  171MOL0     C22965   3.743  10.120   9.481 -0.4399 -0.1477 -0.1761
  171MOL0     C22966   3.682  10.172   9.609 -0.7128  0.1445  0.0486
  171MOL0     N22967   3.555  10.101   9.638  0.1233 -0.0905  0.3886
  171MOL0     C22968   3.529  10.020   9.744  0.3810 -0.2543  0.6243
  171MOL0     C22969   3.396   9.991   9.726  0.0570 -1.2571  0.2313
  171MOL0     C22970   3.318   9.897   9.813  0.2621 -0.1308  0.5421
  171MOL0     C22971   3.207   9.977   9.889 -0.2949  0.6426 -0.0620
  171MOL0     C22972   3.122   9.879   9.976  0.0975 -0.7808 -0.3073
  171MOL0     C22973   3.196   9.812  10.096 -0.6336 -0.1666 -0.9216
  171MOL0     O22974   3.278   9.905  10.175  0.4617 -0.7675 -0.1020
  171MOL0     C22975   3.406   9.875  10.195  0.1518  0.6048 -0.5741
  171MOL0     C22976   3.491   9.985  10.173  0.0400 -0.2230 -0.2870
  171MOL0     C22977   3.632   9.971  10.194  0.1974  0.1124  0.2018
  171MOL0     C22978   3.716  10.096  10.161 -0.2861  0.4232  0.6060
  171MOL0     C22979   3.686   9.842  10.241  0.7962 -0.3345  0.0910
  171MOL0     C22980   3.829   9.810  10.248 -0.9816  0.4638  0.1751
  171MOL0     O22981   3.858   9.698  10.318  0.2117  0.8772  0.7956
  171MOL0     C22982   3.993   9.671  10.328  0.1027  0.0532 -0.7058
  171MOL0     C22983   4.061   9.723  10.434 -0.0610  0.5827 -0.0993
  171MOL0     C22984   4.200   9.715  10.435  0.2928 -0.7176 -0.5570
  171MOL0     C22985   4.268   9.630  10.355  0.1670  0.8207  0.3406
  171MOL0     O22986   4.408   9.612  10.376  0.5999 -0.9537  0.1616
  171MOL0     C22987   4.484   9.520  10.284  1.2219  0.0682 -0.0119
  171MOL0     C22988   4.635   9.507  10.321  0.1036  0.9132 -0.0232
  171MOL0     C22989   4.709   9.396  10.249 -0.7177  0.4564  0.6804
  171MOL0     C22990   4.831   9.350  10.335 -0.2006  0.4058 -0.0678
  171MOL0     C22991   4.899   9.240  10.252 -0.0073 -1.1432 -0.0801
  171MOL0     C22992   5.016   9.183  10.333 -0.3791  1.0907  0.0343
  171MOL0     C22993   5.076   9.071  10.249  0.3002  0.3392  0.7509
  171MOL0     C22994   5.174   9.011  10.349  0.3936 -0.3608 -0.1379
  171MOL0    Cl22995   5.263   8.880  10.254 -0.6135  0.1041  0.3921
  171MOL0     C22996   4.195   9.557  10.261 -0.2925 -0.3882  0.1655
  171MOL0     C22997   4.060   9.584  10.242 -0.4918 -0.9850  0.3481
  171MOL0     O22998   3.910   9.891  10.207 -0.2894  0.0071 -0.0278
  171MOL0     C22999   3.594   9.740  10.271  0.1415  0.6806  0.5894
  171MOL0     C23000   3.457   9.752  10.243 -0.8104 -0.0265 -0.0751
  171MOL0     N23001   3.346  10.068   9.622  0.3491  0.2221 -0.0323
  171MOL0     N23002   3.445  10.132   9.573  1.3169  0.0121  0.4092
  171MOL0     C23003   4.468  10.157   9.605  0.2181  1.2519 -0.3882
  171MOL0     C23004   4.552  10.137   9.713  0.7202 -0.6871  0.1923
  171MOL0     C23005   4.838  10.094  10.056  0.3557  0.3900 -0.2787
  171MOL0     C23006   4.857  10.219  10.109 -0.2948 -0.6870 -1.1483
  171MOL0     C23007   4.914  10.229  10.243 -0.4336  0.4756  0.2247
  171MOL0     C23008   4.949  10.119  10.314 -0.5058  0.8452  0.0833
  171MOL0     O23009   4.997  10.125  10.441 -0.6932 -0.3805  0.0527
  171MOL0     C23010   5.091  10.222  10.482 -0.1148 -0.1219 -0.7227
  171MOL0     C23011   5.228  10.216  10.415 -0.0348  0.3368  0.0417
  171MOL0     C23012   5.299  10.083  10.447 -0.0976 -1.0913 -0.0003
  171MOL0     C23013   5.426  10.050  10.362  0.3863 -0.2139 -0.3757
  171MOL0     C23014   5.481   9.914  10.385 -0.5021  0.6381 -0.1104
  171MOL0     C23015   5.521   9.800  10.393  0.4400  0.0808 -0.3365
  171MOL0     C23016   4.933   9.993  10.252  0.6835  0.7199 -0.8920
  171MOL0     C23017   4.878   9.977  10.125 -0.3583 -0.1850 -0.1316
  171MOL0     H23018   4.720  10.425   9.707 -0.1676 -0.3183  0.2803
  171MOL0     H23019   4.588  10.462   9.528  0.3236 -0.6719 -1.9988
  171MOL0     H23020   4.278  10.452   9.532  2.2947  0.6505  1.7492
  171MOL0     H23021   4.412  10.517   9.438 -1.1205  0.2758 -2.1594
  171MOL0     H23022   4.217  10.553   9.313  1.9481  0.4215 -0.4952
  171MOL0     H23023   4.299  10.418   9.238 -0.5219  2.0777 -0.6873
  171MOL0     H23024   4.093  10.338   9.228 -0.2320 -0.1432 -0.4692
  171MOL0     H23025   4.149  10.254   9.367  1.6879 -0.9725 -2.0904
  171MOL0     H23026   4.024  10.410   9.519 -1.4639  0.9693 -0.4853
  171MOL0     H23027   3.978  10.508   9.377 -1.0403 -0.3754 -1.6208
  171MOL0     H23028   3.801  10.368   9.482  1.6768  0.7086  1.6359
  171MOL0     H23029   3.821  10.342   9.304 -0.2452  0.1899 -0.3555
  171MOL0     H23030   3.925  10.134   9.362  0.7551  0.4064 -0.1168
  171MOL0     H23031   3.942  10.175   9.534  2.0871 -1.1876 -0.3760
  171MOL0     H23032   3.678  10.152   9.399 -0.0005 -1.0071 -0.8711
  171MOL0     H23033   3.767  10.014   9.473  1.8548  0.2540  0.5732
  171MOL0     H23034   3.662  10.279   9.611 -0.9725  0.0953  0.1494
  171MOL0     H23035   3.750  10.155   9.693 -0.2003  0.9070 -0.2008
  171MOL0     H23036   3.587   9.977   9.825  1.5693  1.9520  1.0052
  171MOL0     H23037   3.281   9.808   9.760  0.8204 -0.5402  0.8214
  171MOL0     H23038   3.378   9.859   9.897 -1.3305  0.6620  2.1089
  171MOL0     H23039   3.136  10.016   9.816  0.4681 -0.9570 -1.7502
  171MOL0     H23040   3.255  10.059   9.942  0.5810 -0.0278  0.2185
  171MOL0     H23041   3.081   9.798   9.915  0.7234 -0.2180 -1.5162
  171MOL0     H23042   3.033   9.927  10.017 -0.1336 -0.3940 -1.2477
  171MOL0     H23043   3.255   9.729  10.057 -1.5346 -2.5438  2.3340
  171MOL0     H23044   3.123   9.769  10.165 -1.7035  0.1669 -1.8179
  171MOL0     H23045   3.449  10.079  10.140  2.0695  0.4892 -0.9668
  171MOL0     H23046   3.790  10.054  10.093  1.2764 -2.2695  3.7015
  171MOL0     H23047   3.666  10.179  10.110 -0.7173 -0.5853 -0.6608
  171MOL0     H23048   3.760  10.132  10.255 -1.9474  0.5684  1.3680
  171MOL0     H23049   4.007   9.789  10.501 -1.7184  0.2987 -1.0825
  171MOL0     H23050   4.257   9.770  10.510 -1.6725 -1.7912  1.8602
  171MOL0     H23051   4.438   9.422  10.273 -0.5896  0.9713 -0.8544
  171MOL0     H23052   4.486   9.556  10.181  3.0387  0.3121  0.0698
  171MOL0     H23053   4.680   9.602  10.289  1.2316  0.1188 -0.8816
  171MOL0     H23054   4.647   9.498  10.430  0.8543  3.5444  0.1908
  171MOL0     H23055   4.741   9.439  10.155 -3.7268  0.5611 -0.4015
  171MOL0     H23056   4.644   9.320  10.203 -1.3392  2.6447 -2.3114
  171MOL0     H23057   4.888   9.440  10.362  0.2877 -0.1454  0.7642
  171MOL0     H23058   4.800   9.322  10.437  1.3544  0.1155  0.3423
  171MOL0     H23059   4.940   9.277  10.158  4.3808 -2.1571  1.2197
  171MOL0     H23060   4.844   9.146  10.239  0.7319 -1.5574 -0.2333
  171MOL0     H23061   5.076   9.271  10.355  1.5249  0.2926 -1.5664
  171MOL0     H23062   4.979   9.143  10.427  0.4226  2.3016  0.8865
  171MOL0     H23063   5.125   9.116  10.162 -0.9925 -1.0324 -0.7500
  171MOL0     H23064   5.001   8.998  10.218  1.4831 -0.1969 -1.0068
  171MOL0     H23065   5.119   8.972  10.435 -1.7515  1.2397 -0.7224
  171MOL0     H23066   5.241   9.093  10.376  1.1818 -1.0690  0.1147
  171MOL0     H23067   4.238   9.484  10.194  0.0755 -1.9640  2.0234
  171MOL0     H23068   4.000   9.531  10.167 -1.2364  0.8581 -0.4184
  171MOL0     H23069   3.618   9.641  10.308 -2.0676 -1.7770 -3.7354
  171MOL0     H23070   3.388   9.672  10.269 -0.5597  0.3046  1.7589
  171MOL0     H23071   4.398  10.082   9.568  1.8571  0.9548 -3.1341
  171MOL0     H23072   4.562  10.038   9.756  0.8582 -0.4599  0.6962
  171MOL0     H23073   4.833  10.310  10.056 -0.6971  0.1550  0.4315
  171MOL0     H23074   4.927  10.324  10.293  4.2386 -0.5549  1.4533
  171MOL0     H23075   5.049  10.322  10.465 -1.0722 -0.3709  0.0754
  171MOL0     H23076   5.098  10.217  10.591  2.9843  1.7518 -0.7368
  171MOL0     H23077   5.284  10.302  10.453  3.2542 -1.7005  0.2542
  171MOL0     H23078   5.221  10.235  10.307  2.4553  3.6866  0.3197
  171MOL0     H23079   5.231   9.997  10.443  1.1927 -2.0885 -2.4477
  171MOL0     H23080   5.325  10.093  10.553 -0.5818 -1.3295  0.1426
  171MOL0     H23081   5.499  10.132  10.357 -1.6426  1.8981  1.7207
  171MOL0     H23082   5.385  10.045  10.261 -0.9611  1.4592  0.0367
  171MOL0     H23083   5.552   9.698  10.406  1.1695  0.2992 -0.2813
  171MOL0     H23084   4.974   9.913  10.314 -0.1742  1.7363  1.0679
  171MOL0     H23085   4.878   9.883  10.071  0.4929 -0.5003  0.3977
  172MOL0     O23086   9.131   4.806   8.742  0.0757  0.0931 -0.7098
  172MOL0     C23087   9.205   4.903   8.775  0.1139  0.0951 -0.6273
  172MOL0     O23088   9.162   5.029   8.806 -0.7011  0.2903  0.3537
  172MOL0     C23089   9.030   5.049   8.781  0.1182 -0.2045 -0.8969
  172MOL0     C23090   8.940   5.037   8.889 -0.1723  0.2582  0.1123
  172MOL0     C23091   8.809   5.076   8.870 -0.1403  0.1054 -0.7900
  172MOL0     C23092   8.764   5.136   8.757  0.0092  0.0654  0.1414
  172MOL0     O23093   8.633   5.179   8.757  0.2548  0.0223 -0.5050
  172MOL0     C23094   8.564   5.201   8.635  0.1439  0.1973  0.1420
  172MOL0     C23095   8.427   5.254   8.660  0.2983  0.9603 -0.5118
  172MOL0     C23096   8.328   5.266   8.539  0.6619 -1.1916 -0.0829
  172MOL0     C23097   8.187   5.290   8.597  0.6276 -0.2747 -0.1650
  172MOL0     C23098   8.072   5.228   8.518  0.0524 -0.3528 -0.2652
  172MOL0     C23099   8.084   5.080   8.533  0.4268  0.6762 -0.2919
  172MOL0     C23100   7.962   4.989   8.489 -0.9161  0.2239 -0.6843
  172MOL0     C23101   7.947   4.985   8.335  0.1315  0.5009 -0.2720
  172MOL0     N23102   7.839   4.889   8.309 -0.0103  0.0605 -0.2122
  172MOL0     C23103   7.817   4.757   8.343 -0.4329  0.5135  0.5932
  172MOL0     C23104   7.716   4.711   8.267  0.5595 -0.5351  0.1219
  172MOL0     C23105   7.633   4.593   8.292 -0.2642  1.0707  0.5375
  172MOL0     C23106   7.493   4.582   8.256  0.2278  0.6589  0.3318
  172MOL0     C23107   7.395   4.655   8.345  0.5401 -0.3704  1.1219
  172MOL0     C23108   7.252   4.638   8.293 -0.3799  0.1326 -0.0144
  172MOL0     O23109   7.217   4.498   8.284  0.3235  0.3901  0.3769
  172MOL0     C23110   7.090   4.466   8.251  0.6446  0.2036 -0.5010
  172MOL0     C23111   6.993   4.455   8.350  0.4735 -0.2127  0.2209
  172MOL0     C23112   6.868   4.419   8.322  0.3370 -0.0421 -0.1020
  172MOL0     C23113   6.784   4.387   8.444  0.4934  0.6603 -0.3239
  172MOL0     C23114   6.821   4.396   8.193  0.7893  0.0682  0.6999
  172MOL0     C23115   6.683   4.356   8.157 -0.8280  0.2445 -1.2101
  172MOL0     O23116   6.581   4.399   8.239  0.0059  0.3090  0.0706
  172MOL0     C23117   6.467   4.359   8.190 -0.4002  0.2449 -0.5390
  172MOL0     C23118   6.395   4.274   8.279  0.0636  1.1005 -0.2254
  172MOL0     C23119   6.271   4.224   8.242  0.8066 -0.5956 -0.0003
  172MOL0     C23120   6.215   4.263   8.122 -0.3955 -0.6438 -0.4742
  172MOL0     O23121   6.101   4.202   8.097  0.3444  0.2762 -0.1021
  172MOL0     C23122   6.086   4.139   7.973  0.1086 -0.1134  0.6664
  172MOL0     C23123   5.958   4.058   7.997  0.4783 -0.2434 -0.7839
  172MOL0     C23124   5.901   4.023   7.854  0.5612  0.1469 -0.3763
  172MOL0     C23125   5.753   3.985   7.858  0.1135  0.7431  0.0173
  172MOL0     C23126   5.720   3.899   7.731  0.5609  0.3192 -0.3011
  172MOL0     C23127   5.721   3.992   7.608 -0.1644 -0.4439 -0.6596
  172MOL0     C23128   5.717   3.923   7.476  0.2503 -0.4334 -0.4340
  172MOL0     C23129   5.587   3.860   7.448  1.1403 -0.2565 -0.1110
  172MOL0    Cl23130   5.602   3.739   7.311  0.2466  0.1335  0.1009
  172MOL0     C23131   6.288   4.335   8.030 -0.2875  0.1356  0.1881
  172MOL0     C23132   6.411   4.396   8.070  0.1296 -0.3761 -0.5527
  172MOL0     O23133   6.676   4.273   8.065 -0.1201 -0.1056 -0.0997
  172MOL0     C23134   6.915   4.416   8.091  0.0016  0.2948 -0.4598
  172MOL0     C23135   7.050   4.444   8.121  0.5940  0.3377 -0.6037
  172MOL0     N23136   7.671   4.820   8.201  1.2628  0.1635 -0.6501
  172MOL0     N23137   7.741   4.917   8.216 -0.6146 -0.3718  0.0456
  172MOL0     C23138   8.865   5.161   8.657 -0.0857  0.5286  1.3720
  172MOL0     C23139   8.990   5.103   8.666 -1.0407  0.2503  0.0760
  172MOL0     C23140   9.347   4.876   8.793 -0.3147 -0.2475  0.5289
  172MOL0     C23141   9.447   4.974   8.830  0.7659  0.3270  0.7623
  172MOL0     C23142   9.583   4.947   8.834  0.3472  0.2869 -0.0493
  172MOL0     C23143   9.631   4.821   8.803 -0.9016  0.3649 -0.3132
  172MOL0     O23144   9.761   4.786   8.800 -0.2878  0.7203 -0.4378
  172MOL0     C23145   9.856   4.892   8.786 -0.0519  0.2778  0.4921
  172MOL0     C23146   9.995   4.839   8.801 -0.1433  0.7182  0.1013
  172MOL0     C23147  10.103   4.951   8.794  0.5416  0.4503  0.6761
  172MOL0     C23148  10.115   4.997   8.644 -0.3399 -0.1338 -0.0122
  172MOL0     C23149  10.234   5.081   8.631 -0.4796  0.3032  0.3948
  172MOL0     C23150  10.332   5.146   8.617 -0.2956 -0.6932 -0.6656
  172MOL0     C23151   9.537   4.723   8.766 -0.8330  0.0383 -0.7054
  172MOL0     C23152   9.395   4.745   8.776 -0.6473 -0.7541 -0.3093
  172MOL0     H23153   8.975   4.988   8.979 -1.0957  1.1205  0.9622
  172MOL0     H23154   8.740   5.054   8.951  0.6363 -1.9111 -0.6244
  172MOL0     H23155   8.609   5.272   8.565  0.2353 -0.1748 -0.1826
  172MOL0     H23156   8.556   5.105   8.583  0.3720  0.5801 -0.6128
  172MOL0     H23157   8.384   5.191   8.738  2.0107  0.7128  0.2907
  172MOL0     H23158   8.448   5.353   8.702  0.6389  0.6606  0.0303
  172MOL0     H23159   8.378   5.345   8.482  2.6496  0.4839  3.5938
  172MOL0     H23160   8.331   5.179   8.474 -0.6249  0.9033 -3.1736
  172MOL0     H23161   8.173   5.250   8.698  0.0129  0.0147 -0.1285
  172MOL0     H23162   8.165   5.397   8.608 -1.3087 -0.7303  0.7826
  172MOL0     H23163   7.974   5.260   8.554  0.8821  0.9967  0.9171
  172MOL0     H23164   8.080   5.252   8.412  1.2503 -0.5355 -0.2372
  172MOL0     H23165   8.178   5.062   8.479  2.0163  2.2011  1.7720
  172MOL0     H23166   8.110   5.048   8.634 -0.4513 -4.9132 -1.5016
  172MOL0     H23167   7.966   4.887   8.527  0.0730  0.9465  1.3053
  172MOL0     H23168   7.871   5.028   8.534 -2.8267 -4.0428 -0.3673
  172MOL0     H23169   8.040   4.949   8.291  0.0566 -2.6156  1.8215
  172MOL0     H23170   7.914   5.082   8.296 -0.7787 -0.1614 -1.2525
  172MOL0     H23171   7.880   4.704   8.414 -2.7590 -1.1278  1.5757
  172MOL0     H23172   7.679   4.511   8.236 -2.4137 -0.6424  1.1096
  172MOL0     H23173   7.647   4.566   8.397  2.0651 -0.0578  0.0061
  172MOL0     H23174   7.470   4.476   8.270 -0.5732  0.7366 -0.2905
  172MOL0     H23175   7.485   4.605   8.149  3.3706 -0.2389 -0.2052
  172MOL0     H23176   7.431   4.758   8.354  1.1036 -0.5483  0.9577
  172MOL0     H23177   7.395   4.615   8.447 -1.2019 -1.1651  0.8473
  172MOL0     H23178   7.265   4.675   8.191  0.8772  0.8820  0.3892
  172MOL0     H23179   7.179   4.701   8.344  0.2923  0.9295 -0.0129
  172MOL0     H23180   7.024   4.465   8.454  0.1636 -3.0924  0.6806
  172MOL0     H23181   6.693   4.326   8.439 -1.0020  2.6279  0.8304
  172MOL0     H23182   6.855   4.358   8.522  2.2832  0.7507 -1.8759
  172MOL0     H23183   6.746   4.483   8.481 -0.7947  0.1979 -0.3876
  172MOL0     H23184   6.432   4.240   8.375 -0.4893 -0.2365 -0.4585
  172MOL0     H23185   6.213   4.160   8.308  3.4329 -2.2300  0.8441
  172MOL0     H23186   6.079   4.215   7.894 -1.9810 -2.6300 -1.7944
  172MOL0     H23187   6.165   4.068   7.950  0.1935 -1.5529  4.6516
  172MOL0     H23188   5.986   3.966   8.048 -0.4884 -1.6777 -2.7201
  172MOL0     H23189   5.888   4.112   8.060  0.7566  1.3648 -1.7873
  172MOL0     H23190   5.962   3.938   7.821  1.3652 -0.3449  2.1407
  172MOL0     H23191   5.923   4.103   7.784  2.4093  1.4409  1.5469
  172MOL0     H23192   5.734   3.920   7.944  3.0912  1.0075  0.9861
  172MOL0     H23193   5.680   4.066   7.864 -0.1124  0.6819 -1.5358
  172MOL0     H23194   5.621   3.861   7.757  1.0291  0.3490  1.6630
  172MOL0     H23195   5.785   3.813   7.710 -0.2789  0.1919 -2.6795
  172MOL0     H23196   5.632   4.056   7.610 -0.6136 -1.0609 -0.0540
  172MOL0     H23197   5.810   4.055   7.619  0.8030 -1.9685  0.7150
  172MOL0     H23198   5.796   3.848   7.469  0.0192 -0.6328 -0.9595
  172MOL0     H23199   5.747   3.992   7.397  0.2286  1.4191  1.1077
  172MOL0     H23200   5.518   3.941   7.425 -0.4899 -1.5571  0.0608
  172MOL0     H23201   5.542   3.807   7.532 -0.1957 -0.3981 -0.8885
  172MOL0     H23202   6.253   4.357   7.930  0.4751  0.8520  0.0649
  172MOL0     H23203   6.465   4.470   8.011 -1.5857  2.3894  1.1761
  172MOL0     H23204   6.875   4.397   7.992  2.0861  1.0115 -1.4999
  172MOL0     H23205   7.125   4.439   8.043  1.9518  0.5697  0.6292
  172MOL0     H23206   8.836   5.203   8.561 -1.7127 -1.8107  0.7203
  172MOL0     H23207   9.058   5.125   8.584  2.3619  1.9724  3.0315
  172MOL0     H23208   9.407   5.071   8.856  4.5185  2.2542  0.0197
  172MOL0     H23209   9.631   5.035   8.876 -3.2489  2.4592 -0.0955
  172MOL0     H23210   9.835   4.944   8.693 -2.2376  0.2759  0.9200
  172MOL0     H23211   9.842   4.969   8.863  0.4611 -0.2139  1.0863
  172MOL0     H23212  10.018   4.761   8.728  1.8182  2.3996 -1.1893
  172MOL0     H23213  10.004   4.795   8.901 -1.2975  0.0602 -0.0621
  172MOL0     H23214  10.197   4.898   8.812  0.0314 -1.5719 -2.0387
  172MOL0     H23215  10.086   5.021   8.876 -0.1197 -0.1771  1.0870
  172MOL0     H23216  10.029   5.058   8.616 -0.7317 -0.2991  0.7980
  172MOL0     H23217  10.134   4.915   8.574  0.8427 -0.5442  0.7611
  172MOL0     H23218  10.421   5.202   8.595  0.1756 -0.8307  0.7555
  172MOL0     H23219   9.585   4.632   8.733 -0.2113 -0.0976  0.4927
  172MOL0     H23220   9.320   4.668   8.761  0.1896 -1.3271 -1.8603
  173MOL0     O23221   3.379   8.582   3.683 -0.1220 -0.4492 -0.1554
  173MOL0     C23222   3.478   8.648   3.698 -0.1122  0.3038  0.6414
  173MOL0     O23223   3.494   8.749   3.796 -0.4025  0.2217  0.2237
  173MOL0     C23224   3.380   8.793   3.862 -0.0017  0.0319  0.4218
  173MOL0     C23225   3.378   8.818   3.998  0.1384 -0.2452  1.1593
  173MOL0     C23226   3.260   8.866   4.048  0.0963 -0.2206 -0.6097
  173MOL0     C23227   3.142   8.894   3.975  0.2013 -0.6456  0.6337
  173MOL0     O23228   3.029   8.957   4.029 -0.0755 -0.0337 -0.1012
  173MOL0     C23229   3.027   9.010   4.161 -0.6438 -0.5056  0.0127
  173MOL0     C23230   2.965   8.918   4.261  0.1738 -0.3288  0.2351
  173MOL0     C23231   2.819   8.914   4.258  0.9243  1.2955  0.5054
  173MOL0     C23232   2.765   8.824   4.371 -0.1551  0.1814  0.2656
  173MOL0     C23233   2.607   8.837   4.381 -0.5198 -0.6979 -0.1175
  173MOL0     C23234   2.547   8.725   4.461 -0.7125  0.4931 -0.1718
  173MOL0     C23235   2.403   8.733   4.470  0.0607  0.1594  0.5401
  173MOL0     C23236   2.355   8.635   4.579  0.6658 -0.2486 -0.3128
  173MOL0     N23237   2.214   8.633   4.597  0.4087  0.0780 -0.4290
  173MOL0     C23238   2.124   8.616   4.496  0.1239  0.8429 -0.6215
  173MOL0     C23239   2.005   8.595   4.554 -0.1856 -0.0467 -0.0657
  173MOL0     C23240   1.873   8.565   4.485  0.3017  0.4255 -0.9341
  173MOL0     C23241   1.790   8.690   4.488 -0.4064 -0.0008  0.0511
  173MOL0     C23242   1.663   8.672   4.426  0.2864  0.2522  0.2769
  173MOL0     C23243   1.577   8.566   4.486  0.4076 -0.5026  0.0433
  173MOL0     O23244   1.595   8.435   4.426 -0.0662 -0.1389  0.1686
  173MOL0     C23245   1.480   8.362   4.428 -0.9747  0.2074  0.1588
  173MOL0     C23246   1.385   8.364   4.332 -0.1866  0.6990 -0.4101
  173MOL0     C23247   1.258   8.297   4.336 -0.2909  0.9251 -0.5362
  173MOL0     C23248   1.177   8.313   4.208  1.1928 -0.2421  0.4114
  173MOL0     C23249   1.230   8.224   4.457 -0.4262 -0.8010  1.1976
  173MOL0     C23250   1.103   8.159   4.480 -0.1982  0.0609 -0.0201
  173MOL0     O23251   0.986   8.232   4.479 -0.4150  0.4837 -0.0099
  173MOL0     C23252   0.863   8.177   4.476 -0.2214 -0.1115  0.3032
  173MOL0     C23253   0.760   8.272   4.479  0.3650 -0.3863  0.2740
  173MOL0     C23254   0.626   8.231   4.478  0.1356 -0.1644 -0.2582
  173MOL0     C23255   0.597   8.096   4.488  0.2086 -0.4782  0.6423
  173MOL0     O23256   0.467   8.048   4.500  0.1028 -0.3728 -0.3284
  173MOL0     C23257   0.342   8.109   4.455 -0.0896 -0.0907 -0.3782
  173MOL0     C23258   0.257   8.182   4.567 -0.7520  0.0392  0.6773
  173MOL0     C23259   0.131   8.237   4.495 -0.0455  0.6987 -0.0966
  173MOL0     C23260   0.052   8.131   4.412 -0.0459 -1.5351  1.3784
  173MOL0     C23261  -0.082   8.194   4.371  1.1452 -0.2259 -1.0916
  173MOL0     C23262  -0.174   8.072   4.338  0.6395 -0.1890  0.3212
  173MOL0     C23263  -0.321   8.117   4.304  0.0897 -0.9396  0.6803
  173MOL0     C23264  -0.413   8.002   4.289 -0.9622  0.1090  0.3050
  173MOL0    Cl23265  -0.577   8.052   4.257 -0.5044 -0.0732 -0.1043
  173MOL0     C23266   0.692   8.005   4.466 -0.5349  0.1742 -0.7738
  173MOL0     C23267   0.822   8.047   4.454  0.5018 -0.3955  0.4595
  173MOL0     O23268   1.116   8.044   4.522  0.0732  0.3385 -0.5305
  173MOL0     C23269   1.330   8.227   4.554  0.3704  0.0080 -0.4635
  173MOL0     C23270   1.454   8.293   4.541 -0.2297 -0.3697  0.6825
  173MOL0     N23271   2.029   8.601   4.688  0.9923  0.5234 -0.6726
  173MOL0     N23272   2.143   8.622   4.716  0.3298  0.0888  0.2257
  173MOL0     C23273   3.138   8.859   3.844  0.6299 -0.7987  0.3402
  173MOL0     C23274   3.263   8.815   3.786  1.0392 -0.6323 -0.0199
  173MOL0     C23275   3.596   8.602   3.622  0.0011 -0.1681 -0.3481
  173MOL0     C23276   3.583   8.502   3.524 -0.9912 -0.2380 -0.0242
  173MOL0     C23277   3.692   8.478   3.443  0.0494  0.1037  0.0838
  173MOL0     C23278   3.815   8.532   3.469 -0.0799  0.4095  0.6031
  173MOL0     O23279   3.907   8.499   3.367  0.1859  0.2333 -0.6343
  173MOL0     C23280   4.041   8.513   3.405  0.2287 -0.3002  0.2061
  173MOL0     C23281   4.124   8.423   3.311 -1.0088  0.0551 -0.0770
  173MOL0     C23282   4.149   8.498   3.179  0.1678  0.5324 -0.1719
  173MOL0     C23283   4.237   8.419   3.073 -0.3845 -0.6703  0.0133
  173MOL0     C23284   4.144   8.347   2.985 -0.5111 -0.4763 -0.7331
  173MOL0     C23285   4.068   8.279   2.923 -0.1482  0.2995  0.7083
  173MOL0     C23286   3.835   8.614   3.576 -0.2892 -0.4657 -0.6819
  173MOL0     C23287   3.726   8.653   3.652  0.1899 -0.2138 -0.0936
  173MOL0     H23288   3.467   8.801   4.058  1.8236 -0.4244 -1.2763
  173MOL0     H23289   3.255   8.876   4.156 -2.0173 -2.3938 -0.3904
  173MOL0     H23290   3.126   9.041   4.195 -0.2131 -2.4180  0.6186
  173MOL0     H23291   2.974   9.106   4.157  0.3173 -0.0090 -1.7532
  173MOL0     H23292   3.015   8.821   4.271  2.7564  1.1353  4.0407
  173MOL0     H23293   2.984   8.968   4.356 -0.1941  1.3322 -0.5223
  173MOL0     H23294   2.779   9.016   4.261 -1.3229  0.4697  0.5504
  173MOL0     H23295   2.787   8.863   4.167  1.7089  1.7866 -0.0687
  173MOL0     H23296   2.784   8.720   4.343  0.7959  1.3947 -4.4122
  173MOL0     H23297   2.798   8.856   4.470  1.3672  3.1378 -1.0581
  173MOL0     H23298   2.593   8.937   4.422  0.5117 -0.0898 -1.1921
  173MOL0     H23299   2.561   8.835   4.282  1.7272  1.8982 -1.3546
  173MOL0     H23300   2.576   8.624   4.430  0.7984  0.8879 -0.1435
  173MOL0     H23301   2.595   8.735   4.559 -2.1069 -1.3795  0.7791
  173MOL0     H23302   2.393   8.835   4.507  1.4461 -0.0570  1.6123
  173MOL0     H23303   2.353   8.731   4.373  0.8546  1.8153  0.0591
  173MOL0     H23304   2.418   8.643   4.668 -0.3702  0.9094  0.3431
  173MOL0     H23305   2.388   8.542   4.531 -0.3868 -0.2088 -1.1507
  173MOL0     H23306   2.141   8.616   4.389 -0.9241 -0.6117 -0.8230
  173MOL0     H23307   1.882   8.517   4.387  2.7684 -0.3175 -0.4155
  173MOL0     H23308   1.829   8.483   4.542  0.6698 -1.4774 -3.2602
  173MOL0     H23309   1.850   8.769   4.441 -1.4218  2.3410  2.4362
  173MOL0     H23310   1.770   8.717   4.592 -3.2385 -1.7930  0.0766
  173MOL0     H23311   1.681   8.651   4.320 -1.9828  0.6628 -0.2496
  173MOL0     H23312   1.614   8.769   4.439  1.7928  1.0935 -0.1177
  173MOL0     H23313   1.469   8.581   4.475  0.1818 -2.0328 -0.0225
  173MOL0     H23314   1.601   8.574   4.592  2.0118  1.1488 -0.3970
  173MOL0     H23315   1.405   8.422   4.242  1.6163  2.8733  1.2635
  173MOL0     H23316   1.087   8.252   4.211  1.0318 -0.1084 -0.9484
  173MOL0     H23317   1.142   8.412   4.178  0.3434 -1.1006 -1.6016
  173MOL0     H23318   1.237   8.288   4.119  2.0058  1.5114  0.4095
  173MOL0     H23319   0.784   8.378   4.478  1.6512 -0.6433  1.6013
  173MOL0     H23320   0.550   8.305   4.500 -1.0731 -1.4360 -0.0304
  173MOL0     H23321   0.358   8.185   4.378 -2.6713  0.5174 -0.4072
  173MOL0     H23322   0.278   8.029   4.418 -0.8848  0.7425 -0.8469
  173MOL0     H23323   0.234   8.110   4.646  1.1914 -1.6272 -0.1967
  173MOL0     H23324   0.313   8.265   4.611 -1.2013  0.6537  0.1177
  173MOL0     H23325   0.160   8.313   4.422  0.8852  0.0263 -0.4507
  173MOL0     H23326   0.070   8.287   4.571 -0.2495  0.9056 -0.3954
  173MOL0     H23327   0.104   8.090   4.324 -1.5681 -1.2732  0.3184
  173MOL0     H23328   0.013   8.054   4.478 -1.3536 -2.2736 -0.1754
  173MOL0     H23329  -0.076   8.263   4.286 -2.6697  1.3730 -0.2720
  173MOL0     H23330  -0.120   8.251   4.456  0.4172  1.3047 -2.4011
  173MOL0     H23331  -0.130   8.019   4.253 -0.0747 -1.4388  0.7124
  173MOL0     H23332  -0.173   8.001   4.421  0.9642  0.5137  0.9359
  173MOL0     H23333  -0.334   8.178   4.214 -1.6630 -1.0219  0.8484
  173MOL0     H23334  -0.365   8.177   4.384 -0.6616 -0.3448 -0.1628
  173MOL0     H23335  -0.415   7.949   4.384  2.0140 -1.9485 -0.6415
  173MOL0     H23336  -0.382   7.930   4.212 -0.3341  0.5488  0.1317
  173MOL0     H23337   0.655   7.904   4.458  2.0252 -0.9549  0.4620
  173MOL0     H23338   0.888   7.961   4.459 -1.5449 -2.0062  3.0492
  173MOL0     H23339   1.328   8.156   4.636 -0.3459 -0.0780 -0.5531
  173MOL0     H23340   1.528   8.285   4.620  1.9496  0.3923 -1.1716
  173MOL0     H23341   3.051   8.874   3.781  1.2733  3.7285  0.1792
  173MOL0     H23342   3.257   8.812   3.678 -3.9354 -0.7336  0.0258
  173MOL0     H23343   3.493   8.447   3.498 -0.9420  1.1023 -3.5909
  173MOL0     H23344   3.679   8.427   3.348 -0.4314  1.2407 -0.4844
  173MOL0     H23345   4.081   8.615   3.402  0.9614 -0.1875  5.1696
  173MOL0     H23346   4.062   8.484   3.509  2.3409  0.1932 -0.0237
  173MOL0     H23347   4.080   8.326   3.286 -0.3851  0.5014 -3.3280
  173MOL0     H23348   4.223   8.407   3.354 -1.0597  2.6424  1.2117
  173MOL0     H23349   4.199   8.591   3.205  0.6323  0.1849  0.2006
  173MOL0     H23350   4.050   8.523   3.139 -0.7298  0.8053  2.0536
  173MOL0     H23351   4.303   8.347   3.121 -0.8977 -1.7075 -0.7968
  173MOL0     H23352   4.297   8.482   3.006  2.5301 -1.1478  2.0140
  173MOL0     H23353   4.012   8.233   2.844  1.9031 -0.0586 -0.5983
  173MOL0     H23354   3.925   8.672   3.591 -1.6495  2.1206 -1.8921
  173MOL0     H23355   3.742   8.725   3.731  1.2348 -1.4125  0.8398
  174MOL0     O23356   9.365   5.019   0.870  0.4009 -0.2580 -0.0128
  174MOL0     C23357   9.399   5.084   0.769  0.3561  0.0116  0.2490
  174MOL0     O23358   9.321   5.170   0.691 -0.6197 -0.9750 -0.0663
  174MOL0     C23359   9.188   5.200   0.721  0.1179  0.5115 -0.2242
  174MOL0     C23360   9.134   5.318   0.673 -0.3667 -1.0579  0.5828
  174MOL0     C23361   9.001   5.362   0.697  0.0784 -0.5344 -0.2106
  174MOL0     C23362   8.923   5.281   0.778 -0.0189  0.3327  0.7927
  174MOL0     O23363   8.793   5.322   0.792 -0.0397 -0.2681  0.0675
  174MOL0     C23364   8.728   5.280   0.922 -0.2663  0.0793 -0.2127
  174MOL0     C23365   8.599   5.361   0.945  0.4294  0.2594 -0.7108
  174MOL0     C23366   8.519   5.321   1.076 -0.3268  0.2976 -1.0125
  174MOL0     C23367   8.404   5.424   1.109 -0.3007  0.3921 -0.2123
  174MOL0     C23368   8.298   5.437   0.997 -0.1584 -0.5689 -0.0823
  174MOL0     C23369   8.179   5.524   1.046 -0.1222 -0.4312 -0.5740
  174MOL0     C23370   8.065   5.509   0.938  0.2344 -0.2201 -0.1682
  174MOL0     C23371   7.943   5.598   0.978 -0.3898 -0.0113 -0.3399
  174MOL0     N23372   7.832   5.598   0.880  0.0809  0.2250 -0.2549
  174MOL0     C23373   7.722   5.681   0.885  0.1768  0.7095 -0.7500
  174MOL0     C23374   7.633   5.629   0.799  0.4754  0.0283  0.6827
  174MOL0     C23375   7.498   5.693   0.777  0.5153 -0.5020 -0.0084
  174MOL0     C23376   7.403   5.679   0.898  0.0523  0.5488 -0.0779
  174MOL0     C23377   7.371   5.532   0.926 -0.3173  0.2261 -0.0369
  174MOL0     C23378   7.246   5.511   1.021 -0.2271  0.2128 -0.4858
  174MOL0     O23379   7.134   5.561   0.959  0.6185 -0.1366  0.2631
  174MOL0     C23380   7.005   5.546   1.010 -0.5821 -0.3904  0.4233
  174MOL0     C23381   6.970   5.499   1.136  0.0793 -1.0495  0.4514
  174MOL0     C23382   6.843   5.486   1.191  0.5562 -0.4348 -0.4226
  174MOL0     C23383   6.832   5.433   1.331 -0.4206  1.5858 -0.2791
  174MOL0     C23384   6.731   5.524   1.112  0.2236  1.2962  1.0335
  174MOL0     C23385   6.591   5.514   1.160  0.9666 -0.3506 -0.4508
  174MOL0     O23386   6.494   5.593   1.087 -0.2578 -0.6239  0.6718
  174MOL0     C23387   6.351   5.588   1.118 -0.2490  1.1553 -0.7316
  174MOL0     C23388   6.266   5.618   1.016  0.2893  1.0087 -0.4828
  174MOL0     C23389   6.127   5.640   1.045  0.3978  0.3468  0.2504
  174MOL0     C23390   6.075   5.634   1.172 -0.4523  0.3807  0.0954
  174MOL0     O23391   5.944   5.671   1.201  0.1121  0.0174 -0.0190
  174MOL0     C23392   5.904   5.670   1.341  0.4673 -1.0012  0.3576
  174MOL0     C23393   5.754   5.717   1.335  0.3569 -0.1643 -0.6636
  174MOL0     C23394   5.685   5.781   1.453 -0.2786  0.3542  0.2534
  174MOL0     C23395   5.538   5.814   1.413  0.3045 -0.3322  0.3584
  174MOL0     C23396   5.470   5.898   1.524 -0.5903  0.3288 -0.1955
  174MOL0     C23397   5.329   5.933   1.485  0.5703 -0.1686  0.5850
  174MOL0     C23398   5.233   5.805   1.473  0.4766 -0.7134  0.5536
  174MOL0     C23399   5.086   5.854   1.489 -1.0899  0.1720  0.6866
  174MOL0    Cl23400   4.971   5.722   1.549  0.1875 -0.0301  0.0153
  174MOL0     C23401   6.168   5.604   1.276 -0.4657 -0.9389 -0.2858
  174MOL0     C23402   6.305   5.580   1.248  0.6581 -1.3725  0.1480
  174MOL0     O23403   6.555   5.429   1.241 -0.4248  0.3357 -0.0950
  174MOL0     C23404   6.760   5.573   0.981  0.4928 -0.0709 -0.7801
  174MOL0     C23405   6.892   5.582   0.931 -0.4229 -0.0677 -0.0592
  174MOL0     N23406   7.694   5.517   0.740 -0.6208 -0.8071 -0.5527
  174MOL0     N23407   7.801   5.491   0.801  0.4755 -0.3427 -0.0218
  174MOL0     C23408   8.974   5.160   0.838 -0.7573 -0.1795  0.3026
  174MOL0     C23409   9.101   5.119   0.799 -0.2667 -0.5244  0.4162
  174MOL0     C23410   9.539   5.062   0.742 -0.3110  0.1525  0.8538
  174MOL0     C23411   9.615   4.951   0.791 -0.3103  0.7921  0.0809
  174MOL0     C23412   9.755   4.940   0.774  0.4168  0.0252  0.4771
  174MOL0     C23413   9.811   5.045   0.692 -0.9058 -0.1289  0.2732
  174MOL0     O23414   9.948   5.048   0.660  0.9464 -0.0345  0.1002
  174MOL0     C23415  10.027   4.931   0.689  0.0384  0.2683 -0.5459
  174MOL0     C23416  10.159   4.930   0.623 -0.7806  0.1719  0.7976
  174MOL0     C23417  10.147   4.911   0.470  0.4869 -0.2182  0.6174
  174MOL0     C23418  10.290   4.926   0.411 -0.3031  0.0149 -0.1335
  174MOL0     C23419  10.285   4.906   0.270 -0.2851 -0.1858  0.0902
  174MOL0     C23420  10.322   4.869   0.159 -0.8606 -0.6475  0.2597
  174MOL0     C23421   9.736   5.144   0.631  0.0791  0.4566  0.6435
  174MOL0     C23422   9.601   5.147   0.654  0.5002  0.5210  0.4391
  174MOL0     H23423   9.202   5.383   0.618  1.8341 -2.5519  1.3906
  174MOL0     H23424   8.979   5.460   0.655  1.6439  0.1233  0.4321
  174MOL0     H23425   8.707   5.172   0.918 -0.3114  0.0498  0.6280
  174MOL0     H23426   8.798   5.294   1.004 -0.6613  1.7280 -0.1356
  174MOL0     H23427   8.623   5.467   0.956  0.9791  0.0710  0.0792
  174MOL0     H23428   8.537   5.338   0.858 -0.0808  0.5125 -0.4164
  174MOL0     H23429   8.486   5.217   1.072 -2.2013  0.9092 -3.3036
  174MOL0     H23430   8.587   5.340   1.160 -1.3760  0.5952 -0.2027
  174MOL0     H23431   8.355   5.390   1.201  0.4490  1.6892  0.6950
  174MOL0     H23432   8.442   5.524   1.132  0.2177 -0.3241  2.2696
  174MOL0     H23433   8.342   5.458   0.899 -0.0262 -4.3871 -0.9917
  174MOL0     H23434   8.246   5.341   0.991  0.2067 -0.8165  0.6034
  174MOL0     H23435   8.149   5.478   1.140 -0.7327  0.1473 -0.4799
  174MOL0     H23436   8.222   5.624   1.055  2.9524 -1.6227 -0.6595
  174MOL0     H23437   8.087   5.528   0.833 -1.1391  1.6992 -0.1517
  174MOL0     H23438   8.029   5.406   0.939 -3.4769  0.9000  2.4286
  174MOL0     H23439   7.976   5.701   0.988  2.0768 -0.8561  1.2203
  174MOL0     H23440   7.913   5.560   1.076  1.0688 -2.0741 -0.6221
  174MOL0     H23441   7.701   5.768   0.947  1.0652 -0.5126  1.3981
  174MOL0     H23442   7.510   5.800   0.759  1.1469 -0.8877 -2.2884
  174MOL0     H23443   7.443   5.650   0.692 -1.9528  0.5415  0.9603
  174MOL0     H23444   7.310   5.732   0.875 -0.6801 -0.2093  1.0628
  174MOL0     H23445   7.447   5.729   0.984 -0.7506  0.1003  0.6159
  174MOL0     H23446   7.463   5.494   0.972  1.7953  1.3218 -2.9928
  174MOL0     H23447   7.357   5.471   0.837 -0.0537  1.2592 -0.8055
  174MOL0     H23448   7.264   5.551   1.122 -1.8639 -0.2356  0.0118
  174MOL0     H23449   7.245   5.403   1.038 -1.5239 -0.0413 -1.9944
  174MOL0     H23450   7.046   5.468   1.206 -0.1822  0.4750  1.4564
  174MOL0     H23451   6.931   5.422   1.378 -0.9373 -0.5966  0.3978
  174MOL0     H23452   6.764   5.503   1.381 -0.4648  1.6389 -0.4133
  174MOL0     H23453   6.788   5.333   1.332 -1.6650  2.1045 -1.0610
  174MOL0     H23454   6.285   5.633   0.910 -0.4197  0.0751 -0.7511
  174MOL0     H23455   6.049   5.663   0.973 -0.6707 -1.2420  0.8370
  174MOL0     H23456   5.924   5.572   1.384 -2.3560 -1.4951  0.7799
  174MOL0     H23457   5.962   5.742   1.398 -1.4987  0.1264  1.0499
  174MOL0     H23458   5.751   5.795   1.258  1.3509  1.2314  0.6475
  174MOL0     H23459   5.686   5.639   1.299 -1.1595  2.1528 -3.2382
  174MOL0     H23460   5.743   5.873   1.461  1.9553 -0.9235 -0.4151
  174MOL0     H23461   5.690   5.714   1.539  4.3264 -1.5245 -1.2078
  174MOL0     H23462   5.547   5.877   1.323  1.2023 -0.7359  0.1471
  174MOL0     H23463   5.481   5.729   1.376  0.8906  0.1350 -1.8013
  174MOL0     H23464   5.530   5.989   1.541 -0.2766  0.0725  0.0910
  174MOL0     H23465   5.468   5.848   1.621  2.3947  1.1997  0.4290
  174MOL0     H23466   5.303   6.007   1.561 -1.0258  0.2435 -0.3299
  174MOL0     H23467   5.329   5.978   1.385  1.3342  1.5976  1.3298
  174MOL0     H23468   5.257   5.736   1.555 -1.1933 -1.5617  0.3695
  174MOL0     H23469   5.240   5.754   1.377 -0.2165  2.2192 -1.1838
  174MOL0     H23470   5.057   5.893   1.391  1.3208  2.5157  0.8115
  174MOL0     H23471   5.077   5.942   1.552 -2.1339  0.3031  0.3677
  174MOL0     H23472   6.136   5.607   1.380 -2.5357  0.1314 -0.8898
  174MOL0     H23473   6.370   5.571   1.335  2.1853  0.1649 -0.7753
  174MOL0     H23474   6.682   5.613   0.918 -1.1894 -0.5094  0.9249
  174MOL0     H23475   6.896   5.616   0.829 -2.2120  0.9430  0.1619
  174MOL0     H23476   8.912   5.084   0.885  1.1335 -2.5921 -0.8576
  174MOL0     H23477   9.132   5.021   0.833 -2.6975 -1.0241  1.4256
  174MOL0     H23478   9.567   4.881   0.858  1.4832 -0.2670  0.3395
  174MOL0     H23479   9.811   4.861   0.822  0.5645 -0.3556 -0.3177
  174MOL0     H23480  10.045   4.938   0.797  0.3172  2.2896 -0.6784
  174MOL0     H23481   9.977   4.837   0.665 -0.4696  0.4454 -0.1953
  174MOL0     H23482  10.213   4.844   0.663 -2.7079 -1.9674 -0.9372
  174MOL0     H23483  10.224   5.015   0.646  0.0819 -0.3932  0.4730
  174MOL0     H23484  10.080   4.988   0.431  0.4321  1.5686  3.9245
  174MOL0     H23485  10.100   4.815   0.444 -1.8789  1.5316 -2.3459
  174MOL0     H23486  10.359   4.854   0.456 -1.0330 -0.5904  0.0355
  174MOL0     H23487  10.318   5.029   0.435 -0.1512  0.0163 -0.3153
  174MOL0     H23488  10.350   4.835   0.061  1.9677 -3.1106  1.7772
  174MOL0     H23489   9.775   5.223   0.567 -0.3258 -0.5018 -0.8537
  174MOL0     H23490   9.544   5.226   0.606  2.0452  2.0360  0.9801
  175MOL0     O23491   7.019   7.889  10.752  0.0905 -0.3584  0.0764
  175MOL0     C23492   7.098   7.980  10.765 -0.9151 -0.0944  0.2704
  175MOL0     O23493   7.070   8.111  10.754  0.6225 -0.4612 -0.5983
  175MOL0     C23494   6.954   8.148  10.695  0.4414  0.7652  0.3620
  175MOL0     C23495   6.893   8.250  10.755  0.6024 -0.3785  0.0402
  175MOL0     C23496   6.771   8.304  10.706 -0.0880 -0.5839  0.6766
  175MOL0     C23497   6.716   8.238  10.599  0.3149  1.2250 -0.2699
  175MOL0     O23498   6.592   8.261  10.547  0.7959  0.7134  0.0104
  175MOL0     C23499   6.525   8.388  10.571  0.1414 -0.3566 -0.0824
  175MOL0     C23500   6.408   8.418  10.469 -0.3349 -0.1800  0.3414
  175MOL0     C23501   6.281   8.351  10.523  0.4417 -0.3017  0.1876
  175MOL0     C23502   6.210   8.426  10.634 -0.4749 -0.1901 -0.2184
  175MOL0     C23503   6.068   8.372  10.640 -0.1608  0.5174  0.9719
  175MOL0     C23504   5.989   8.448  10.754 -0.3209  0.7993 -0.2752
  175MOL0     C23505   5.943   8.601  10.731  0.6486 -0.2686  0.3775
  175MOL0     C23506   5.794   8.609  10.677 -0.0014 -0.2398 -0.1004
  175MOL0     N23507   5.700   8.584  10.785  0.8095  0.4710 -0.0822
  175MOL0     C23508   5.640   8.467  10.819  0.3177  0.4666  0.1422
  175MOL0     C23509   5.557   8.502  10.927  0.5699  0.5150  0.3858
  175MOL0     C23510   5.499   8.403  11.024  0.2043  0.1065 -0.7574
  175MOL0     C23511   5.566   8.434  11.158  0.1295 -0.7454  0.2986
  175MOL0     C23512   5.536   8.315  11.259 -0.5045  0.6320  0.0195
  175MOL0     C23513   5.408   8.328  11.340 -0.6065  0.0071 -0.3877
  175MOL0     O23514   5.286   8.299  11.269  0.1831 -0.1069 -0.2569
  175MOL0     C23515   5.185   8.388  11.272 -0.5721 -0.9942  0.6584
  175MOL0     C23516   5.133   8.416  11.393  0.0673  0.0005 -0.1386
  175MOL0     C23517   5.002   8.467  11.410  0.2062  0.1256  0.1667
  175MOL0     C23518   4.942   8.472  11.548  0.3759  0.1717 -0.1483
  175MOL0     C23519   4.935   8.510  11.294 -0.1237 -0.1052  0.2082
  175MOL0     C23520   4.793   8.555  11.299 -0.5206  0.3979 -0.5654
  175MOL0     O23521   4.747   8.620  11.407 -0.2827  0.6444  0.2678
  175MOL0     C23522   4.623   8.670  11.425 -0.0641  0.9114  0.9955
  175MOL0     C23523   4.531   8.603  11.488  0.2023  0.3911 -0.8929
  175MOL0     C23524   4.400   8.648  11.483  0.0930  0.0666  0.0829
  175MOL0     C23525   4.362   8.767  11.417 -0.2507  0.3857  0.1274
  175MOL0     O23526   4.226   8.803  11.417 -0.5179 -0.4696  1.1159
  175MOL0     C23527   4.189   8.939  11.392 -0.0491  0.6121  0.1758
  175MOL0     C23528   4.048   8.956  11.449  0.2042  0.1079 -0.0877
  175MOL0     C23529   3.929   8.905  11.365 -0.5745 -0.0280 -0.0931
  175MOL0     C23530   3.793   8.910  11.435  0.1111  0.0961  0.7218
  175MOL0     C23531   3.691   8.860  11.330 -0.3893 -0.5468  0.2108
  175MOL0     C23532   3.547   8.865  11.385 -0.4064  0.2032  0.4111
  175MOL0     C23533   3.447   8.828  11.282  0.2420  0.5859 -0.5336
  175MOL0     C23534   3.298   8.844  11.328 -0.2010 -0.2025 -0.4458
  175MOL0    Cl23535   3.247   9.015  11.363  0.2537 -0.2843 -0.0062
  175MOL0     C23536   4.463   8.841  11.355 -0.9888 -0.2939  0.5114
  175MOL0     C23537   4.595   8.790  11.361  0.1900  0.3081 -0.3408
  175MOL0     O23538   4.723   8.515  11.207  0.6159 -0.3041 -0.5133
  175MOL0     C23539   4.994   8.476  11.165 -0.5510 -0.8622 -0.2609
  175MOL0     C23540   5.117   8.423  11.152 -0.4383 -0.4424  0.1681
  175MOL0     N23541   5.559   8.638  10.940  0.5154 -0.2325  0.1736
  175MOL0     N23542   5.646   8.687  10.859  0.5876 -0.3516 -0.4730
  175MOL0     C23543   6.775   8.132  10.534  0.3099  0.0791 -0.2364
  175MOL0     C23544   6.901   8.092  10.578 -0.1046 -0.6717  0.5494
  175MOL0     C23545   7.237   7.946  10.798  0.1908  0.5505 -0.5478
  175MOL0     C23546   7.284   7.807  10.794 -0.5846  0.4293 -0.4450
  175MOL0     C23547   7.421   7.793  10.807 -0.1069 -0.4779  0.1167
  175MOL0     C23548   7.508   7.897  10.841 -0.4870 -0.6733 -0.5479
  175MOL0     O23549   7.642   7.870  10.878  0.5556 -0.3259 -0.3498
  175MOL0     C23550   7.737   7.869  10.773  1.2383 -0.1066 -0.0006
  175MOL0     C23551   7.869   7.833  10.841 -0.0966 -0.0730 -1.1029
  175MOL0     C23552   7.859   7.686  10.884 -0.1471 -0.2702 -0.0206
  175MOL0     C23553   7.985   7.636  10.950 -0.3555 -0.4814 -0.7475
  175MOL0     C23554   8.045   7.731  11.050  0.7409 -0.5601  0.2446
  175MOL0     C23555   8.107   7.806  11.125  1.4677  0.5279 -0.1326
  175MOL0     C23556   7.457   8.029  10.849  0.4975 -0.0695  0.2717
  175MOL0     C23557   7.326   8.053  10.824  0.0383  0.3399 -0.5518
  175MOL0     H23558   6.942   8.295  10.840 -1.6973  1.1615  0.6378
  175MOL0     H23559   6.718   8.383  10.758 -1.0252 -0.2232 -0.7666
  175MOL0     H23560   6.484   8.386  10.672  0.4209 -0.9965  0.0213
  175MOL0     H23561   6.596   8.472  10.569 -1.3934  0.9938 -1.7311
  175MOL0     H23562   6.387   8.525  10.463 -1.1382 -0.2435  1.5035
  175MOL0     H23563   6.423   8.375  10.370 -2.2774  0.5549 -0.3363
  175MOL0     H23564   6.214   8.324  10.441 -0.0714  1.0799  0.1213
  175MOL0     H23565   6.304   8.252  10.563 -0.6214 -0.5888  0.1175
  175MOL0     H23566   6.253   8.416  10.734 -1.4656  3.8909  0.7954
  175MOL0     H23567   6.199   8.532  10.609  1.7193  0.0889 -0.2364
  175MOL0     H23568   6.018   8.409  10.550  0.1091 -2.5008 -0.5413
  175MOL0     H23569   6.065   8.263  10.640 -1.1057  0.4450 -1.8979
  175MOL0     H23570   5.896   8.392  10.766  0.5518 -1.3090 -2.5961
  175MOL0     H23571   6.045   8.458  10.847 -0.0519  1.3545 -0.4931
  175MOL0     H23572   5.944   8.647  10.830 -0.0759  1.4121 -0.3525
  175MOL0     H23573   6.011   8.660  10.668  0.8664  0.4723  1.2886
  175MOL0     H23574   5.771   8.558  10.583 -0.6377  1.7620 -1.0913
  175MOL0     H23575   5.795   8.715  10.653  3.2521 -0.2932 -0.6072
  175MOL0     H23576   5.664   8.368  10.781  3.8044  0.7632  1.2067
  175MOL0     H23577   5.392   8.419  11.038  0.2274  2.5648 -2.6128
  175MOL0     H23578   5.532   8.304  10.993  0.8207 -0.7255  2.2806
  175MOL0     H23579   5.535   8.529  11.202 -0.7244 -0.9619  0.1663
  175MOL0     H23580   5.675   8.439  11.147 -0.0704  0.5773 -1.6349
  175MOL0     H23581   5.627   8.310  11.319 -0.1263  1.7146 -0.4492
  175MOL0     H23582   5.536   8.220  11.203  1.5334  1.5270 -1.6596
  175MOL0     H23583   5.398   8.426  11.388 -0.9593  0.8625 -2.1089
  175MOL0     H23584   5.410   8.262  11.427 -0.1426 -0.4988 -0.7676
  175MOL0     H23585   5.180   8.389  11.487  1.6046 -0.4149 -0.9854
  175MOL0     H23586   4.834   8.454  11.548  0.0754  1.7623 -1.3956
  175MOL0     H23587   4.985   8.392  11.608 -1.7406 -2.0611 -1.4165
  175MOL0     H23588   4.950   8.568  11.600 -2.7791  0.6025 -0.2693
  175MOL0     H23589   4.542   8.499  11.516  0.2551  0.2801 -1.3209
  175MOL0     H23590   4.323   8.591  11.534  1.7700 -1.2330  1.2676
  175MOL0     H23591   4.260   9.010  11.435  4.4285 -2.6905 -1.0766
  175MOL0     H23592   4.181   8.954  11.284 -3.5268 -1.3537 -0.0118
  175MOL0     H23593   4.023   8.895  11.537 -2.0791  2.6294  1.1816
  175MOL0     H23594   4.033   9.063  11.467  1.6718  0.5312 -1.1872
  175MOL0     H23595   3.947   8.804  11.328 -0.7645  0.9274 -3.1378
  175MOL0     H23596   3.927   8.958  11.269 -1.7391 -0.0269 -0.0763
  175MOL0     H23597   3.790   8.838  11.518 -0.2953 -1.3079 -0.4648
  175MOL0     H23598   3.782   9.010  11.477  1.9239 -0.2510  2.1864
  175MOL0     H23599   3.713   8.756  11.304 -0.0669  0.1833 -2.7057
  175MOL0     H23600   3.710   8.918  11.240  0.0976 -0.7594  0.1769
  175MOL0     H23601   3.542   8.793  11.467  1.1553  1.4757  1.6814
  175MOL0     H23602   3.518   8.962  11.428 -2.4985 -1.5011  3.2033
  175MOL0     H23603   3.454   8.724  11.249 -1.8982  0.6980 -1.4617
  175MOL0     H23604   3.461   8.890  11.193  0.2524 -1.0203 -1.6977
  175MOL0     H23605   3.278   8.781  11.416 -1.3229 -0.3169 -0.7720
  175MOL0     H23606   3.235   8.814  11.244 -0.5476  0.4196 -0.4127
  175MOL0     H23607   4.445   8.941  11.318 -0.9264 -0.5643 -0.2642
  175MOL0     H23608   4.677   8.843  11.313  0.4959 -0.1926 -0.3775
  175MOL0     H23609   4.931   8.500  11.080  0.9893  0.6403 -1.0261
  175MOL0     H23610   5.152   8.419  11.050  1.9344  0.0860  0.8966
  175MOL0     H23611   6.733   8.084  10.446 -0.8812  1.9281 -0.7124
  175MOL0     H23612   6.951   8.005  10.536 -0.2371 -0.0385 -1.0007
  175MOL0     H23613   7.215   7.737  10.749  0.1800 -1.1624  0.7696
  175MOL0     H23614   7.469   7.699  10.782 -0.9688 -0.3914 -2.0587
  175MOL0     H23615   7.712   7.800  10.692  0.3040  0.9280 -0.6281
  175MOL0     H23616   7.753   7.970  10.734 -1.1454 -0.0291 -0.9477
  175MOL0     H23617   7.887   7.901  10.925  2.3876 -0.3575 -1.3450
  175MOL0     H23618   7.947   7.847  10.766 -0.3845  2.0936 -1.0798
  175MOL0     H23619   7.831   7.621  10.801 -0.0702 -0.4469  0.0897
  175MOL0     H23620   7.780   7.672  10.958  0.0144  0.1570  0.2370
  175MOL0     H23621   8.062   7.598  10.883 -0.1871 -2.1917  0.3550
  175MOL0     H23622   7.954   7.556  11.018  0.5346  1.3909  2.0110
  175MOL0     H23623   8.156   7.868  11.197  1.2642 -1.3136  1.6761
  175MOL0     H23624   7.532   8.108  10.849  2.0631 -1.4670 -1.3932
  175MOL0     H23625   7.282   8.152  10.824 -0.5109  0.2889  4.0200
  176MOL0     O23626   4.483  11.269   3.138  0.3840  0.7693  0.1956
  176MOL0     C23627   4.505  11.379   3.094 -0.1413  0.0550  0.0175
  176MOL0     O23628   4.422  11.456   3.013 -0.2148  0.3296 -0.1057
  176MOL0     C23629   4.305  11.413   2.964  0.4904  0.2689  0.4238
  176MOL0     C23630   4.283  11.439   2.825 -0.1444 -0.4603 -0.8327
  176MOL0     C23631   4.154  11.424   2.774 -0.1142  0.2800 -0.2178
  176MOL0     C23632   4.048  11.376   2.844  0.2104  0.0592 -0.5870
  176MOL0     O23633   3.915  11.383   2.814  0.3944 -0.1102  0.1915
  176MOL0     C23634   3.878  11.470   2.703  0.3682  0.4057 -0.0974
  176MOL0     C23635   3.735  11.434   2.666  0.1861  0.6884 -0.1471
  176MOL0     C23636   3.626  11.490   2.759 -0.0011  0.2345 -0.8028
  176MOL0     C23637   3.492  11.524   2.688  0.4601  0.1219  0.1680
  176MOL0     C23638   3.404  11.632   2.751 -0.8952  0.2861  0.0126
  176MOL0     C23639   3.275  11.638   2.673 -0.1213 -0.0962 -1.0281
  176MOL0     C23640   3.180  11.731   2.743  0.9306  0.1939 -0.0108
  176MOL0     C23641   3.144  11.686   2.887 -0.2011  0.3322  0.3746
  176MOL0     N23642   3.107  11.544   2.892 -0.1114  0.3801  0.0619
  176MOL0     C23643   3.008  11.498   2.808 -1.1857  0.4092 -0.8633
  176MOL0     C23644   3.007  11.365   2.837  0.3015  0.3590  0.5418
  176MOL0     C23645   2.896  11.270   2.772 -0.5191  0.1666 -0.3714
  176MOL0     C23646   2.787  11.250   2.872  0.7095 -0.5179 -0.0286
  176MOL0     C23647   2.695  11.374   2.875  0.8449 -0.2809 -0.1552
  176MOL0     C23648   2.556  11.328   2.933 -0.4292 -0.2162  0.0314
  176MOL0     O23649   2.477  11.250   2.837 -0.1878 -0.0901 -0.0598
  176MOL0     C23650   2.351  11.211   2.883  0.0746 -0.1711  0.6559
  176MOL0     C23651   2.300  11.232   3.008 -1.0518  0.2647 -0.0607
  176MOL0     C23652   2.167  11.197   3.039 -0.2338  0.9168 -0.1434
  176MOL0     C23653   2.128  11.237   3.177  0.0704 -0.0284  0.4115
  176MOL0     C23654   2.087  11.140   2.939 -0.5978 -0.1066  0.3864
  176MOL0     C23655   1.947  11.102   2.963  0.1552  0.3808 -0.6175
  176MOL0     O23656   1.874  11.070   2.854 -0.3463  0.6834 -0.5843
  176MOL0     C23657   1.776  10.982   2.879 -0.4722  1.3172 -0.4221
  176MOL0     C23658   1.812  10.845   2.887  0.4117 -0.0228 -0.2757
  176MOL0     C23659   1.713  10.747   2.911 -0.1256  0.1194  0.8180
  176MOL0     C23660   1.584  10.779   2.927  0.9041 -0.2195  0.3959
  176MOL0     O23661   1.493  10.672   2.958  0.3467  0.0530 -0.5891
  176MOL0     C23662   1.378  10.701   3.039 -0.6435 -0.2031 -0.6942
  176MOL0     C23663   1.288  10.575   3.062  0.4336 -0.0383  0.3640
  176MOL0     C23664   1.170  10.610   3.146  0.1121  0.1263 -0.0538
  176MOL0     C23665   1.061  10.498   3.161 -0.1701 -0.1163 -0.6071
  176MOL0     C23666   0.948  10.552   3.256 -0.9500 -0.1398 -0.0187
  176MOL0     C23667   0.848  10.442   3.289  0.2793 -0.5718  0.3007
  176MOL0     C23668   0.763  10.491   3.398 -0.5262 -0.3732 -0.1572
  176MOL0     C23669   0.692  10.383   3.475 -0.3185 -0.3899  0.7785
  176MOL0    Cl23670   0.554  10.308   3.382 -0.3564 -0.0355  0.3242
  176MOL0     C23671   1.544  10.918   2.917 -0.5830 -0.5272 -0.3491
  176MOL0     C23672   1.643  11.019   2.898 -0.3460 -0.3342 -0.0250
  176MOL0     O23673   1.908  11.084   3.082  0.0216 -0.3930 -0.2013
  176MOL0     C23674   2.143  11.114   2.817 -0.6534  0.1064 -0.1981
  176MOL0     C23675   2.270  11.158   2.787 -0.3241  0.4810 -0.1009
  176MOL0     N23676   3.104  11.336   2.927  0.1460 -0.2756 -0.6703
  176MOL0     N23677   3.150  11.447   2.971 -0.1527 -0.5660  0.1278
  176MOL0     C23678   4.075  11.332   2.979 -0.4475  0.8688 -0.1638
  176MOL0     C23679   4.204  11.353   3.040 -0.8947  0.7903  0.4816
  176MOL0     C23680   4.616  11.449   3.156 -0.7353  0.2994 -0.4635
  176MOL0     C23681   4.640  11.581   3.122  0.3876  0.3007  0.7526
  176MOL0     C23682   4.745  11.648   3.189  0.3718  0.5148  0.4764
  176MOL0     C23683   4.819  11.582   3.291 -0.0824  0.2889 -0.2157
  176MOL0     O23684   4.922  11.653   3.357 -0.2270 -0.7457  0.1983
  176MOL0     C23685   4.981  11.601   3.476  0.1961 -0.1372 -0.3836
  176MOL0     C23686   5.099  11.682   3.523  0.3985  0.3870 -0.1277
  176MOL0     C23687   5.228  11.643   3.456 -0.4881 -0.3037 -0.3920
  176MOL0     C23688   5.343  11.731   3.514  0.1394 -0.0893 -0.5067
  176MOL0     C23689   5.465  11.746   3.436 -0.1317  0.1136 -0.4217
  176MOL0     C23690   5.572  11.756   3.388  0.2209 -0.1314  0.0181
  176MOL0     C23691   4.794  11.451   3.326 -0.1486  0.6018  0.1829
  176MOL0     C23692   4.686  11.385   3.267  0.5363 -0.2451 -0.1075
  176MOL0     H23693   4.370  11.460   2.764  2.2483 -0.2953  2.3454
  176MOL0     H23694   4.156  11.434   2.666 -0.3557  1.4699 -0.1274
  176MOL0     H23695   3.873  11.576   2.726  1.5196  0.9518 -2.1666
  176MOL0     H23696   3.946  11.443   2.621  1.7874 -0.4658  1.3021
  176MOL0     H23697   3.712  11.459   2.562 -1.1254 -4.0728 -1.2423
  176MOL0     H23698   3.724  11.325   2.660 -0.4971  0.6940  0.7316
  176MOL0     H23699   3.606  11.417   2.839  1.0020 -1.2527 -1.8455
  176MOL0     H23700   3.666  11.586   2.791 -1.0794  0.2906  0.4299
  176MOL0     H23701   3.508  11.575   2.593 -0.1941 -0.9097 -0.5186
  176MOL0     H23702   3.441  11.429   2.670  2.5363 -0.9230 -0.5989
  176MOL0     H23703   3.393  11.617   2.859  2.8638 -1.4290  0.2989
  176MOL0     H23704   3.453  11.729   2.745 -2.2121  0.9042 -1.3300
  176MOL0     H23705   3.295  11.674   2.572 -0.6087  0.4338 -0.9424
  176MOL0     H23706   3.231  11.539   2.655  1.9198 -1.0731 -0.9123
  176MOL0     H23707   3.223  11.831   2.731  2.0393 -0.4524 -1.7278
  176MOL0     H23708   3.088  11.738   2.684  2.3508 -0.3696 -2.4091
  176MOL0     H23709   3.057  11.742   2.922 -0.3824 -0.2819  0.9293
  176MOL0     H23710   3.216  11.702   2.968 -0.3638  0.4705  0.4923
  176MOL0     H23711   2.942  11.555   2.743 -2.1428  0.7941  0.4001
  176MOL0     H23712   2.848  11.297   2.677 -1.3898 -0.0637 -0.0049
  176MOL0     H23713   2.949  11.177   2.751  0.7776  1.3081 -2.4036
  176MOL0     H23714   2.817  11.219   2.972 -0.9112  2.9213  1.7201
  176MOL0     H23715   2.726  11.166   2.838 -1.6135  0.3942  1.5773
  176MOL0     H23716   2.681  11.431   2.782 -2.5113  1.3436  1.1727
  176MOL0     H23717   2.737  11.446   2.945  1.0092  0.0887 -0.6255
  176MOL0     H23718   2.509  11.425   2.949  0.0250  0.0989 -0.4958
  176MOL0     H23719   2.585  11.290   3.032  2.8880 -0.4830 -0.9090
  176MOL0     H23720   2.355  11.265   3.096  2.8354 -0.0648 -2.1586
  176MOL0     H23721   2.100  11.142   3.224 -0.2303 -1.5467 -2.5467
  176MOL0     H23722   2.201  11.294   3.234 -0.7679  2.5588 -0.9262
  176MOL0     H23723   2.035  11.295   3.167 -0.5176 -0.9384  0.4782
  176MOL0     H23724   1.914  10.814   2.867  0.7742  1.0935 -0.2145
  176MOL0     H23725   1.733  10.640   2.920  0.7041  0.1439 -0.4798
  176MOL0     H23726   1.401  10.754   3.132 -4.1599  1.6108 -0.7101
  176MOL0     H23727   1.318  10.768   2.977  1.5717  4.4651  1.6792
  176MOL0     H23728   1.256  10.532   2.966  3.7569 -1.4344 -0.2514
  176MOL0     H23729   1.355  10.502   3.108  1.2491  0.6371  0.2601
  176MOL0     H23730   1.124  10.706   3.120  2.0812  0.5388 -2.3310
  176MOL0     H23731   1.213  10.622   3.246 -0.3220  1.5789 -0.0154
  176MOL0     H23732   1.022  10.459   3.067  3.7544 -3.8059 -1.0100
  176MOL0     H23733   1.114  10.407   3.191  0.7138 -0.0644 -1.9624
  176MOL0     H23734   0.897  10.634   3.203  0.0112  0.6067  0.1838
  176MOL0     H23735   0.992  10.598   3.345 -0.1846 -1.1280  0.1182
  176MOL0     H23736   0.782  10.424   3.203  2.3536  2.8667 -2.2452
  176MOL0     H23737   0.904  10.352   3.315 -1.2397 -1.7420 -0.3239
  176MOL0     H23738   0.688  10.557   3.355 -2.8145 -0.7010  2.9960
  176MOL0     H23739   0.821  10.550   3.470  2.5190 -2.7579 -0.4086
  176MOL0     H23740   0.671  10.421   3.576  1.3052  0.9381  0.6638
  176MOL0     H23741   0.759  10.297   3.484  0.7438  0.2305 -0.7724
  176MOL0     H23742   1.442  10.948   2.938  0.4225  3.4778 -0.4050
  176MOL0     H23743   1.622  11.125   2.899  1.0794 -0.0382  0.8903
  176MOL0     H23744   2.086  11.049   2.750  0.2532 -0.3703 -0.5254
  176MOL0     H23745   2.305  11.123   2.690 -1.3234  0.8684 -0.6236
  176MOL0     H23746   3.998  11.286   3.040  1.7064 -2.7586  0.1404
  176MOL0     H23747   4.210  11.309   3.140  0.1802 -1.9767 -0.6907
  176MOL0     H23748   4.579  11.637   3.053  0.7525  3.2120  2.6345
  176MOL0     H23749   4.757  11.755   3.174 -0.9825  0.4366 -1.4916
  176MOL0     H23750   4.905  11.599   3.554 -0.3300  0.0886 -0.8867
  176MOL0     H23751   5.012  11.499   3.452 -2.4463 -0.9205 -0.8290
  176MOL0     H23752   5.111  11.675   3.632  5.4418  0.8418 -0.4053
  176MOL0     H23753   5.065  11.785   3.511 -1.3897  0.0148  1.3303
  176MOL0     H23754   5.224  11.656   3.348 -1.5409  2.1623 -0.1450
  176MOL0     H23755   5.243  11.536   3.471 -2.6267 -0.5535  0.3242
  176MOL0     H23756   5.375  11.688   3.610  2.0510  1.1420 -0.5323
  176MOL0     H23757   5.297  11.829   3.530  1.5422  0.3155  1.4670
  176MOL0     H23758   5.658  11.773   3.326 -0.1550 -0.2715 -0.5491
  176MOL0     H23759   4.852  11.394   3.398 -0.4895  1.5402  1.2219
  176MOL0     H23760   4.669  11.290   3.317  0.1941  0.0473  0.3411
  177MOL0     O23761   7.705   1.150   4.881 -0.1368 -0.2273 -0.4823
  177MOL0     C23762   7.768   1.126   4.774  0.3854 -0.2702 -0.0267
  177MOL0     O23763   7.711   1.148   4.647  0.5510 -0.1503  0.1479
  177MOL0     C23764   7.583   1.191   4.641  0.3267  0.2885  0.2061
  177MOL0     C23765   7.493   1.110   4.580 -0.6611 -0.2744 -0.2930
  177MOL0     C23766   7.374   1.165   4.545  0.5908  0.1410 -0.1823
  177MOL0     C23767   7.334   1.290   4.580  0.1802  0.8933  0.5706
  177MOL0     O23768   7.211   1.335   4.538  0.0685  1.1504  0.5344
  177MOL0     C23769   7.161   1.466   4.561  1.0517 -0.1724 -0.5222
  177MOL0     C23770   7.016   1.484   4.504  0.4173  0.3781  0.4792
  177MOL0     C23771   6.916   1.390   4.570  1.0411  0.0748  0.4319
  177MOL0     C23772   6.779   1.373   4.496  0.0538  0.6610 -0.0836
  177MOL0     C23773   6.689   1.264   4.563  0.3387 -0.0120 -1.0010
  177MOL0     C23774   6.558   1.245   4.489  0.0471  0.2687 -0.1020
  177MOL0     C23775   6.582   1.188   4.347 -0.4639 -0.1057 -0.0461
  177MOL0     C23776   6.463   1.137   4.287 -0.0185 -0.4084 -0.1136
  177MOL0     N23777   6.376   1.242   4.237  0.0119  0.2859 -0.2807
  177MOL0     C23778   6.300   1.324   4.312 -0.6709 -0.3800  0.1337
  177MOL0     C23779   6.224   1.395   4.228 -0.4457 -1.0905  0.5622
  177MOL0     C23780   6.135   1.509   4.268 -0.7517 -0.1370 -0.2958
  177MOL0     C23781   6.002   1.466   4.337  0.5493  0.3478  0.4842
  177MOL0     C23782   5.935   1.356   4.256 -0.0174  0.0101 -0.4122
  177MOL0     C23783   5.798   1.349   4.311  0.5184 -0.2288  0.7159
  177MOL0     O23784   5.751   1.223   4.281  0.4319  0.9356  0.1230
  177MOL0     C23785   5.618   1.196   4.299  0.0195 -0.6631 -0.7307
  177MOL0     C23786   5.573   1.085   4.239  1.0890  0.1741 -0.4846
  177MOL0     C23787   5.449   1.032   4.264  0.0273  0.0447  0.0269
  177MOL0     C23788   5.421   0.899   4.199 -0.2711  0.7875 -0.2031
  177MOL0     C23789   5.364   1.103   4.352 -0.6694 -0.7436 -0.2778
  177MOL0     C23790   5.222   1.073   4.364 -0.0728 -0.6607 -0.3435
  177MOL0     O23791   5.173   1.096   4.484  0.6716 -0.4376 -0.5407
  177MOL0     C23792   5.040   1.079   4.509  0.5897  0.4469  0.0082
  177MOL0     C23793   4.973   0.957   4.492  0.0352  0.4428 -0.1763
  177MOL0     C23794   4.834   0.943   4.504 -0.7725  0.0444 -1.3308
  177MOL0     C23795   4.760   1.062   4.533  0.6119  1.3769  0.3325
  177MOL0     O23796   4.621   1.045   4.545  0.6993  0.1361 -0.5234
  177MOL0     C23797   4.528   1.150   4.587 -0.2004 -0.9230 -0.6075
  177MOL0     C23798   4.394   1.079   4.596 -0.4304  0.7160  0.6123
  177MOL0     C23799   4.272   1.168   4.632 -0.2381  0.6225 -0.7344
  177MOL0     C23800   4.147   1.084   4.621  0.6379 -0.2099 -0.9502
  177MOL0     C23801   4.020   1.162   4.651 -0.4459  0.6404  0.2501
  177MOL0     C23802   3.896   1.075   4.680 -0.2508 -0.7256 -0.1531
  177MOL0     C23803   3.771   1.169   4.696 -0.5342 -0.0987  0.0540
  177MOL0     C23804   3.645   1.102   4.737  0.1347 -0.4122  0.3092
  177MOL0    Cl23805   3.672   1.012   4.877 -0.2130 -0.2190 -0.0575
  177MOL0     C23806   4.826   1.184   4.546  0.4901  0.5037  0.7770
  177MOL0     C23807   4.964   1.193   4.535  0.0513  0.2709 -1.3673
  177MOL0     O23808   5.157   1.027   4.264 -0.0699  0.3407 -0.2930
  177MOL0     C23809   5.420   1.214   4.428  0.2898 -0.6528  0.7601
  177MOL0     C23810   5.545   1.261   4.399  0.3938 -0.2890 -0.6310
  177MOL0     N23811   6.265   1.362   4.100  0.4981 -0.2574  0.0669
  177MOL0     N23812   6.353   1.272   4.107  0.0968 -0.0772  0.6676
  177MOL0     C23813   7.416   1.368   4.649  0.6995  0.1789  0.1746
  177MOL0     C23814   7.547   1.323   4.671  0.0644 -0.2199  0.7088
  177MOL0     C23815   7.907   1.081   4.782  0.5850  0.1785  0.4731
  177MOL0     C23816   7.979   1.082   4.669  0.2519  0.1122 -0.3987
  177MOL0     C23817   8.109   1.048   4.663  0.3190  0.8317  0.2782
  177MOL0     C23818   8.176   1.005   4.784 -0.2708  0.4566  0.2123
  177MOL0     O23819   8.304   0.954   4.769 -0.0345  0.1280  0.4066
  177MOL0     C23820   8.385   0.944   4.889  0.1280 -0.3690  0.3924
  177MOL0     C23821   8.539   0.932   4.871  0.0935 -0.0348  0.6300
  177MOL0     C23822   8.594   1.067   4.831 -0.4265  0.4726 -0.0688
  177MOL0     C23823   8.734   1.065   4.769 -0.0244  0.2436  0.1185
  177MOL0     C23824   8.843   1.044   4.872 -0.1791  0.5205 -0.4912
  177MOL0     C23825   8.933   1.033   4.945 -0.6141  0.5419 -0.9167
  177MOL0     C23826   8.092   1.001   4.902 -0.4814 -0.3308 -0.5123
  177MOL0     C23827   7.963   1.044   4.912 -0.4110  0.3000  0.2541
  177MOL0     H23828   7.515   1.004   4.566  1.2293 -0.2769  1.9430
  177MOL0     H23829   7.301   1.106   4.491  0.8372  0.5483 -0.9776
  177MOL0     H23830   7.152   1.490   4.667 -1.3529 -0.7405 -0.5243
  177MOL0     H23831   7.224   1.540   4.511  1.8401 -0.3023  0.2596
  177MOL0     H23832   6.988   1.589   4.514 -0.2563  0.3082 -0.5270
  177MOL0     H23833   7.016   1.458   4.398  0.5559  3.0822 -0.2607
  177MOL0     H23834   6.968   1.293   4.574  1.2285  0.2170  2.4203
  177MOL0     H23835   6.897   1.410   4.675  0.1355 -1.9905  0.7162
  177MOL0     H23836   6.714   1.460   4.500 -2.8115 -1.2273 -1.6011
  177MOL0     H23837   6.812   1.360   4.393 -0.4681  2.9540 -0.5940
  177MOL0     H23838   6.748   1.172   4.570  0.4251  0.0756 -0.4982
  177MOL0     H23839   6.665   1.293   4.666  0.4679 -1.9797 -0.3746
  177MOL0     H23840   6.490   1.178   4.542  1.0748  0.8157  2.0471
  177MOL0     H23841   6.502   1.336   4.465 -1.7338 -1.1846 -1.7504
  177MOL0     H23842   6.623   1.263   4.278 -1.1856 -1.9421 -2.5913
  177MOL0     H23843   6.657   1.109   4.355  0.5736  0.5593 -2.3133
  177MOL0     H23844   6.412   1.063   4.348 -1.0067  0.9180  0.7265
  177MOL0     H23845   6.490   1.070   4.205 -1.9000 -1.7211  0.2989
  177MOL0     H23846   6.294   1.325   4.421  0.7647 -1.0351  0.2397
  177MOL0     H23847   6.194   1.566   4.341  0.8218  1.1644 -2.4815
  177MOL0     H23848   6.109   1.568   4.180 -0.4086  2.2281  1.0916
  177MOL0     H23849   5.929   1.547   4.342 -0.0535 -0.1115 -0.6166
  177MOL0     H23850   6.021   1.430   4.439 -0.7151  0.5234  0.7910
  177MOL0     H23851   5.982   1.258   4.264 -0.7146 -0.3231 -0.4132
  177MOL0     H23852   5.930   1.386   4.151 -2.4522  0.1759 -0.2983
  177MOL0     H23853   5.734   1.432   4.278 -1.6914 -1.6608  1.2067
  177MOL0     H23854   5.795   1.353   4.420 -4.3108 -2.1249  0.9036
  177MOL0     H23855   5.644   1.028   4.179  1.1165  1.1602 -1.4092
  177MOL0     H23856   5.397   0.810   4.258 -1.4841 -0.9721 -3.1161
  177MOL0     H23857   5.350   0.913   4.117 -1.4416  1.2568  0.8691
  177MOL0     H23858   5.508   0.858   4.147  0.8775  0.3850  1.8977
  177MOL0     H23859   5.030   0.866   4.480 -0.0321  0.5070 -1.0093
  177MOL0     H23860   4.777   0.853   4.484 -0.3380 -0.4495 -0.4318
  177MOL0     H23861   4.547   1.184   4.688  0.1022  0.6517 -1.1725
  177MOL0     H23862   4.525   1.227   4.509 -1.0992 -1.7925 -1.4696
  177MOL0     H23863   4.383   1.039   4.495 -1.0577 -5.6963  2.7174
  177MOL0     H23864   4.406   0.996   4.667  0.8874  0.7626  0.4744
  177MOL0     H23865   4.281   1.259   4.572  0.0493 -0.2659 -2.0816
  177MOL0     H23866   4.276   1.204   4.735  1.3348  2.6635 -1.4327
  177MOL0     H23867   4.150   1.025   4.528 -2.6618 -1.1460 -0.5974
  177MOL0     H23868   4.148   1.013   4.705 -2.3702 -0.8789 -1.3662
  177MOL0     H23869   3.990   1.220   4.563  1.7100  1.7383  0.1630
  177MOL0     H23870   4.042   1.229   4.735 -0.0070 -0.6478  1.1941
  177MOL0     H23871   3.880   1.001   4.601  0.9555  1.6390 -2.7794
  177MOL0     H23872   3.912   1.028   4.777 -1.3398 -2.0149 -0.5744
  177MOL0     H23873   3.759   1.220   4.600  3.1319  1.9991  0.5191
  177MOL0     H23874   3.792   1.249   4.768  0.0605 -1.3893  1.3725
  177MOL0     H23875   3.613   1.040   4.653  1.9325 -0.4991 -0.3637
  177MOL0     H23876   3.567   1.172   4.769  0.1957 -0.4645  0.5800
  177MOL0     H23877   4.772   1.275   4.572  1.9778  1.5807  0.2242
  177MOL0     H23878   5.015   1.282   4.570 -0.0225 -0.1750 -0.0723
  177MOL0     H23879   5.363   1.256   4.510 -1.6251 -2.3754  0.4071
  177MOL0     H23880   5.583   1.350   4.449 -1.1943 -0.2063  0.5487
  177MOL0     H23881   7.387   1.464   4.689 -0.2790 -1.1178  2.7663
  177MOL0     H23882   7.622   1.378   4.726 -1.0406  0.2614  1.7876
  177MOL0     H23883   7.937   1.135   4.584  2.4125  2.0467 -0.3477
  177MOL0     H23884   8.162   1.068   4.571  0.5896  0.3021  0.3187
  177MOL0     H23885   8.368   1.021   4.964 -1.1119 -0.3806  0.1438
  177MOL0     H23886   8.355   0.853   4.942  0.3814 -0.7578 -0.1173
  177MOL0     H23887   8.544   0.867   4.783 -2.8483  0.1886  0.2064
  177MOL0     H23888   8.591   0.887   4.955  2.6960  0.8520 -0.3783
  177MOL0     H23889   8.587   1.128   4.921 -3.1388 -0.8696  0.7322
  177MOL0     H23890   8.528   1.096   4.749  0.5198  2.4125 -0.2078
  177MOL0     H23891   8.769   1.159   4.725  2.8461 -0.7073  0.1739
  177MOL0     H23892   8.738   0.982   4.698  1.7097 -1.2989  1.9261
  177MOL0     H23893   9.013   1.020   5.015 -1.9355  0.1567  0.5817
  177MOL0     H23894   8.143   0.961   4.989  2.1840  3.7468  0.1094
  177MOL0     H23895   7.892   1.032   4.993 -1.4271 -2.4871 -0.9112
  178MOL0     O23896   5.042   4.633   0.347 -0.0315  0.6583  0.0436
  178MOL0     C23897   5.076   4.566   0.449 -0.8933  0.7090  0.7547
  178MOL0     O23898   5.001   4.485   0.528 -0.0756 -0.3975  0.2130
  178MOL0     C23899   4.867   4.469   0.509  0.1569  0.2960  0.7420
  178MOL0     C23900   4.806   4.465   0.379  0.9905  0.4838  0.2909
  178MOL0     C23901   4.664   4.440   0.372 -0.2760  0.0905 -0.4249
  178MOL0     C23902   4.586   4.424   0.488 -0.0242  0.2466 -0.4028
  178MOL0     O23903   4.449   4.394   0.497  0.1938 -0.2184  0.6330
  178MOL0     C23904   4.380   4.361   0.370 -0.0993  0.1039 -0.5369
  178MOL0     C23905   4.235   4.320   0.391  0.2796  0.0680 -0.1081
  178MOL0     C23906   4.157   4.415   0.477 -0.0727  0.7042 -0.6573
  178MOL0     C23907   4.007   4.414   0.453  0.0982 -0.5318 -0.0621
  178MOL0     C23908   3.916   4.475   0.568 -0.3845 -0.5975 -0.2372
  178MOL0     C23909   3.939   4.410   0.703 -0.3482 -0.4647  0.8704
  178MOL0     C23910   3.912   4.262   0.707 -1.0452 -0.1960  0.5198
  178MOL0     C23911   3.876   4.218   0.853 -0.1386  0.3555 -0.2967
  178MOL0     N23912   3.756   4.281   0.926  0.5774 -0.4876 -0.2878
  178MOL0     C23913   3.752   4.325   1.055  0.3641 -1.0039 -0.5246
  178MOL0     C23914   3.621   4.356   1.083 -0.7509  0.0214  0.0454
  178MOL0     C23915   3.564   4.380   1.224 -0.0917  0.4880  0.1795
  178MOL0     C23916   3.444   4.470   1.215  0.7060 -0.1431  0.2982
  178MOL0     C23917   3.351   4.465   1.333  0.5275 -0.3483  0.0071
  178MOL0     C23918   3.239   4.582   1.340  0.2041  0.3411  0.4705
  178MOL0     O23919   3.305   4.708   1.323  0.2274 -0.2561  0.4798
  178MOL0     C23920   3.222   4.817   1.326  0.0822 -0.5763  0.1058
  178MOL0     C23921   3.090   4.818   1.368 -0.2680  0.3810 -0.3921
  178MOL0     C23922   3.016   4.930   1.385 -1.5245  0.9672 -0.3920
  178MOL0     C23923   2.876   4.917   1.433  0.5073  0.1054 -0.4600
  178MOL0     C23924   3.077   5.055   1.354 -0.0503  0.5039  0.3257
  178MOL0     C23925   3.006   5.182   1.342 -0.0505 -0.4834 -0.1705
  178MOL0     O23926   2.870   5.179   1.333 -0.3033  0.1628  0.0041
  178MOL0     C23927   2.777   5.282   1.356 -0.0872 -0.6057 -0.6441
  178MOL0     C23928   2.667   5.278   1.275 -0.4420  0.2192 -0.4014
  178MOL0     C23929   2.567   5.373   1.301  0.7796  0.2178  0.5472
  178MOL0     C23930   2.586   5.483   1.375  0.1148 -0.6859 -0.8838
  178MOL0     O23931   2.488   5.578   1.399 -0.4160  0.6799  0.5490
  178MOL0     C23932   2.370   5.575   1.325  0.2947  0.2318  0.1984
  178MOL0     C23933   2.278   5.683   1.369 -0.6540  0.2884  0.0470
  178MOL0     C23934   2.194   5.630   1.490  0.0695  0.0574  0.0511
  178MOL0     C23935   2.103   5.732   1.555 -0.2103  0.1794  0.9086
  178MOL0     C23936   1.991   5.676   1.637 -0.6436 -0.7599  0.0096
  178MOL0     C23937   1.910   5.778   1.715 -0.5059  0.0391  0.4971
  178MOL0     C23938   2.005   5.878   1.788 -0.6681  0.2570  0.5866
  178MOL0     C23939   1.943   5.938   1.909 -0.1760 -0.1404  0.2896
  178MOL0    Cl23940   1.846   6.084   1.866  0.2270  0.1162 -0.3931
  178MOL0     C23941   2.704   5.488   1.450  0.1825 -0.4192  0.6811
  178MOL0     C23942   2.807   5.399   1.446 -0.2632  0.3586  0.1563
  178MOL0     O23943   3.075   5.282   1.365 -0.1078 -0.2523  0.5943
  178MOL0     C23944   3.216   5.059   1.341  0.5019 -1.0388 -0.0595
  178MOL0     C23945   3.289   4.943   1.325  0.4607  0.4059  0.3210
  178MOL0     N23946   3.550   4.345   0.964  0.5235  0.0362  0.1194
  178MOL0     N23947   3.626   4.289   0.881  0.3167  0.3938 -0.2200
  178MOL0     C23948   4.652   4.439   0.612  0.4152 -0.0603 -0.6060
  178MOL0     C23949   4.792   4.461   0.627 -0.2061 -0.1187  0.7565
  178MOL0     C23950   5.220   4.594   0.496  0.9447 -1.1475  0.4433
  178MOL0     C23951   5.296   4.707   0.443 -0.8934 -1.5569 -0.2210
  178MOL0     C23952   5.429   4.738   0.484  0.5937  0.5381 -0.0639
  178MOL0     C23953   5.497   4.648   0.568  0.7550 -0.1116  0.3178
  178MOL0     O23954   5.627   4.670   0.610 -0.1452  0.0819 -0.7974
  178MOL0     C23955   5.701   4.555   0.644 -0.0433 -0.4541 -0.5894
  178MOL0     C23956   5.844   4.559   0.594  0.4812 -0.1503  0.2900
  178MOL0     C23957   5.845   4.544   0.439  0.3359 -0.5707 -0.4669
  178MOL0     C23958   5.963   4.623   0.370  0.7319  0.0199 -0.0322
  178MOL0     C23959   6.087   4.608   0.441  0.3955  0.2123  0.3612
  178MOL0     C23960   6.187   4.568   0.508  1.0163 -1.0606  0.3125
  178MOL0     C23961   5.423   4.533   0.605 -0.0972 -0.1769 -0.3163
  178MOL0     C23962   5.293   4.510   0.576 -0.3465  0.3095 -0.0392
  178MOL0     H23963   4.873   4.467   0.294  0.6803 -0.2218  0.0279
  178MOL0     H23964   4.610   4.417   0.281  1.0732 -3.6099 -0.4903
  178MOL0     H23965   4.377   4.458   0.320 -2.5539  1.5545  2.1106
  178MOL0     H23966   4.428   4.285   0.309 -0.9430  0.2813 -1.4347
  178MOL0     H23967   4.185   4.312   0.294 -0.1684  1.5801 -0.0238
  178MOL0     H23968   4.244   4.217   0.427  0.0631 -0.9700 -2.7712
  178MOL0     H23969   4.191   4.398   0.579  0.7059  1.3680 -0.7948
  178MOL0     H23970   4.201   4.507   0.435  1.6277  0.2011 -0.0616
  178MOL0     H23971   3.988   4.470   0.360 -1.1177  0.4746  0.7532
  178MOL0     H23972   3.972   4.313   0.430  0.9112 -0.9544  0.5204
  178MOL0     H23973   3.944   4.579   0.584  0.2657 -0.9503  1.0334
  178MOL0     H23974   3.811   4.479   0.536  0.6085 -0.7963 -3.9723
  178MOL0     H23975   4.040   4.430   0.740  0.0722  1.9229 -1.2836
  178MOL0     H23976   3.870   4.453   0.776 -0.6155 -1.6739  1.3462
  178MOL0     H23977   3.830   4.234   0.640 -0.1024  0.4720 -0.9645
  178MOL0     H23978   4.002   4.212   0.671 -2.1221 -1.7150 -0.1885
  178MOL0     H23979   3.969   4.208   0.911  0.3585 -1.0074 -1.2586
  178MOL0     H23980   3.835   4.117   0.843  0.7071  0.1046 -1.5004
  178MOL0     H23981   3.837   4.324   1.122  1.3046  3.4991 -1.2933
  178MOL0     H23982   3.533   4.280   1.255  0.6039 -0.1459 -1.0986
  178MOL0     H23983   3.636   4.416   1.299 -0.6120  2.7579 -0.3445
  178MOL0     H23984   3.381   4.452   1.127  1.3219 -0.1375 -0.1482
  178MOL0     H23985   3.486   4.570   1.201 -0.6400  0.3044 -0.7739
  178MOL0     H23986   3.400   4.472   1.431 -0.2681  1.8395  0.2976
  178MOL0     H23987   3.285   4.378   1.328  1.7938 -1.3017 -0.7572
  178MOL0     H23988   3.191   4.595   1.438  0.0020  2.8339  0.1152
  178MOL0     H23989   3.173   4.567   1.253  1.1746 -1.6112  0.0080
  178MOL0     H23990   3.045   4.723   1.396  0.4396 -0.1218 -0.9120
  178MOL0     H23991   2.835   5.000   1.492  0.1492  0.0579 -0.6333
  178MOL0     H23992   2.812   4.897   1.346  1.4805  2.4438 -1.8225
  178MOL0     H23993   2.857   4.827   1.491 -1.9059 -0.4310 -1.9302
  178MOL0     H23994   2.638   5.192   1.215 -0.9876 -0.5045  0.8512
  178MOL0     H23995   2.467   5.362   1.259 -0.0308  2.4598  1.7561
  178MOL0     H23996   2.384   5.580   1.216 -3.8592 -0.0093 -0.4862
  178MOL0     H23997   2.318   5.480   1.340  0.0098  0.4252  0.4302
  178MOL0     H23998   2.335   5.773   1.394 -1.2369  0.1158  2.1664
  178MOL0     H23999   2.213   5.710   1.285  1.7973  3.3187 -1.0932
  178MOL0     H24000   2.264   5.602   1.570 -0.9401  3.4582  2.3497
  178MOL0     H24001   2.132   5.546   1.458  0.8997 -0.7315  0.4738
  178MOL0     H24002   2.163   5.804   1.613  0.0304 -0.9207  2.0651
  178MOL0     H24003   2.057   5.797   1.480  0.3782 -0.7379 -0.2829
  178MOL0     H24004   2.038   5.615   1.715  1.4382  0.9107  0.1539
  178MOL0     H24005   1.929   5.614   1.571  1.2236 -3.1426  0.3697
  178MOL0     H24006   1.847   5.840   1.651  0.2021  2.3997  1.9355
  178MOL0     H24007   1.850   5.721   1.787  2.3676 -3.9880  0.0762
  178MOL0     H24008   2.052   5.957   1.728  3.0226 -2.7951 -0.9985
  178MOL0     H24009   2.088   5.819   1.830  0.5137 -0.7156 -2.7847
  178MOL0     H24010   2.026   5.981   1.966  0.0065  0.5413 -0.4594
  178MOL0     H24011   1.887   5.868   1.970 -0.7061  0.8813  1.0050
  178MOL0     H24012   2.698   5.568   1.523 -3.2670 -0.8505  0.9992
  178MOL0     H24013   2.889   5.419   1.513  0.5841  0.5537 -0.9116
  178MOL0     H24014   3.267   5.153   1.322  1.0230 -1.7103 -2.2492
  178MOL0     H24015   3.386   4.952   1.276  0.5266 -0.1756  0.3440
  178MOL0     H24016   4.600   4.430   0.706 -0.8050 -0.2089 -1.2666
  178MOL0     H24017   4.845   4.478   0.720 -0.3046  3.7027  0.2729
  178MOL0     H24018   5.254   4.779   0.373  0.3508 -0.3838  0.2048
  178MOL0     H24019   5.474   4.825   0.436  0.1250  1.1816  0.6226
  178MOL0     H24020   5.696   4.549   0.753 -1.1894  3.3858 -0.2889
  178MOL0     H24021   5.662   4.468   0.591 -0.8896  0.8288 -2.1875
  178MOL0     H24022   5.901   4.483   0.648  3.4018  1.8798  0.2796
  178MOL0     H24023   5.889   4.654   0.624  0.6427 -0.7506  2.0700
  178MOL0     H24024   5.749   4.569   0.394  0.1146  2.4382  1.4084
  178MOL0     H24025   5.863   4.438   0.415  1.5816 -0.4101 -0.3202
  178MOL0     H24026   5.940   4.729   0.356  0.8189  0.0938  0.3498
  178MOL0     H24027   5.981   4.579   0.271  2.3972 -0.5856  0.5004
  178MOL0     H24028   6.275   4.538   0.560  0.9705  1.1090  1.7488
  178MOL0     H24029   5.471   4.465   0.674 -2.1630  0.2527  1.6774
  178MOL0     H24030   5.249   4.414   0.601  0.5421  0.2349  1.2988
  179MOL0     O24031   9.517  10.161   5.992  0.5863  0.1293  0.5651
  179MOL0     C24032   9.601  10.072   6.014 -0.3808  0.0901 -0.8687
  179MOL0     O24033   9.578   9.946   6.059  0.4700 -0.3815 -0.4243
  179MOL0     C24034   9.450   9.913   6.102 -0.8310 -0.2277 -0.2467
  179MOL0     C24035   9.367   9.991   6.180 -0.3781 -0.8230  0.5759
  179MOL0     C24036   9.245   9.944   6.216 -0.2622  0.0008  0.7239
  179MOL0     C24037   9.203   9.811   6.181  0.8847  0.0392 -0.5270
  179MOL0     O24038   9.071   9.785   6.212 -0.3936  0.4921  0.4303
  179MOL0     C24039   9.034   9.649   6.233  0.6800 -0.5724  0.1510
  179MOL0     C24040   8.923   9.638   6.332  0.3098  1.0960  0.0359
  179MOL0     C24041   8.872   9.500   6.350 -0.0664 -0.6495 -0.0359
  179MOL0     C24042   8.770   9.449   6.243  0.9839 -0.5699  0.0764
  179MOL0     C24043   8.634   9.516   6.232 -0.0758 -0.4879 -0.1093
  179MOL0     C24044   8.531   9.468   6.336 -0.2760 -0.1091  0.3615
  179MOL0     C24045   8.395   9.517   6.289  0.3641 -0.2531 -1.8683
  179MOL0     C24046   8.280   9.494   6.394  0.0129 -0.3868  0.3455
  179MOL0     N24047   8.221   9.367   6.386  0.1884  0.6686 -0.2209
  179MOL0     C24048   8.211   9.276   6.486 -0.3641  0.6704 -0.1790
  179MOL0     C24049   8.133   9.173   6.437  0.2936  0.8769 -0.0514
  179MOL0     C24050   8.084   9.055   6.512 -0.6374 -0.6864 -0.5857
  179MOL0     C24051   7.935   9.051   6.566  0.4749 -0.2885 -0.0971
  179MOL0     C24052   7.898   8.925   6.643 -0.0632  0.3168 -0.3287
  179MOL0     C24053   7.752   8.917   6.690 -0.1055  0.5898 -0.9291
  179MOL0     O24054   7.683   8.920   6.566 -0.3305  0.1585 -0.1043
  179MOL0     C24055   7.552   8.934   6.571 -0.3939  0.5765 -0.3871
  179MOL0     C24056   7.472   8.956   6.682 -0.4433 -0.6100 -0.4805
  179MOL0     C24057   7.332   8.992   6.672  0.1464  0.0582  0.4115
  179MOL0     C24058   7.260   9.038   6.795 -0.0861  0.9026  0.3867
  179MOL0     C24059   7.274   8.996   6.551  0.4055  0.1105  0.7309
  179MOL0     C24060   7.125   9.018   6.527 -0.2630  0.1355 -0.1877
  179MOL0     O24061   7.089   9.108   6.423  0.5460  0.7131  0.6813
  179MOL0     C24062   6.955   9.129   6.390 -0.3342  0.1712  0.1540
  179MOL0     C24063   6.856   9.141   6.486  0.9631 -0.8233 -0.7649
  179MOL0     C24064   6.726   9.178   6.439 -0.0529 -0.6462 -0.1854
  179MOL0     C24065   6.691   9.206   6.310  0.2071 -1.2986  0.0015
  179MOL0     O24066   6.568   9.269   6.287  0.3452  0.2470  0.9218
  179MOL0     C24067   6.537   9.321   6.158  0.3575 -0.3658  0.3153
  179MOL0     C24068   6.390   9.377   6.151 -0.1106 -0.4815 -0.3360
  179MOL0     C24069   6.291   9.291   6.236  1.5207 -0.2938  0.3055
  179MOL0     C24070   6.147   9.309   6.168  0.2143 -0.1284 -0.0573
  179MOL0     C24071   6.037   9.277   6.270 -0.2555 -0.6691 -0.1911
  179MOL0     C24072   5.895   9.291   6.216 -0.3510 -0.1542 -0.5534
  179MOL0     C24073   5.792   9.321   6.329  0.1714  0.4064 -0.2367
  179MOL0     C24074   5.655   9.292   6.274  0.5662 -0.2881  0.0478
  179MOL0    Cl24075   5.630   9.413   6.142  0.6609 -0.0876 -0.3105
  179MOL0     C24076   6.797   9.196   6.218 -0.7608 -0.0040  0.6384
  179MOL0     C24077   6.930   9.158   6.253 -0.4281  0.5005  0.2349
  179MOL0     O24078   7.053   8.963   6.610 -1.0194 -0.1472  0.2258
  179MOL0     C24079   7.349   8.980   6.436 -0.7375  0.3880  0.3636
  179MOL0     C24080   7.489   8.943   6.449 -0.4851  0.0254  0.6671
  179MOL0     N24081   8.104   9.197   6.303  0.5198 -0.8589 -0.0900
  179MOL0     N24082   8.150   9.316   6.284  0.0037  0.4136  0.6479
  179MOL0     C24083   9.287   9.732   6.107  0.7657  0.1558 -0.6281
  179MOL0     C24084   9.409   9.783   6.070  0.0283 -0.0497 -0.0075
  179MOL0     C24085   9.741  10.103   5.985 -0.1665  0.4268  0.8421
  179MOL0     C24086   9.845  10.051   6.067  0.2171  0.2478  0.1872
  179MOL0     C24087   9.969  10.106   6.047  0.4767  0.7393 -0.4410
  179MOL0     C24088  10.006  10.176   5.938 -0.5374  0.3198 -0.1003
  179MOL0     O24089  10.140  10.199   5.924  0.2155 -0.1494 -0.1734
  179MOL0     C24090  10.192  10.281   5.817 -0.0023  0.2135 -0.1951
  179MOL0     C24091  10.343  10.276   5.821  1.0415  0.1351  0.0003
  179MOL0     C24092  10.404  10.337   5.950 -0.0845 -0.5904 -0.5063
  179MOL0     C24093  10.561  10.368   5.943 -0.2967  0.3805 -0.6603
  179MOL0     C24094  10.609  10.434   6.064 -0.1712  0.2310  0.6064
  179MOL0     C24095  10.625  10.482   6.177 -0.0929  0.0288  0.1898
  179MOL0     C24096   9.916  10.227   5.848  0.5959 -0.3560 -0.2675
  179MOL0     C24097   9.779  10.188   5.871  0.1251  0.1249 -1.0741
  179MOL0     H24098   9.386  10.096   6.201 -0.0683 -0.7126 -0.1964
  179MOL0     H24099   9.177   9.998   6.280  0.7116  0.6742  1.2069
  179MOL0     H24100   9.012   9.611   6.132  2.6532  2.1143 -1.4172
  179MOL0     H24101   9.119   9.595   6.276  0.2318 -1.5533 -0.1545
  179MOL0     H24102   8.950   9.677   6.431  1.5013  0.9918 -0.2292
  179MOL0     H24103   8.841   9.702   6.297  1.2284  2.3447  0.1129
  179MOL0     H24104   8.955   9.429   6.356 -1.0917 -1.8044  0.9912
  179MOL0     H24105   8.820   9.495   6.445  1.0505 -0.8179  0.5869
  179MOL0     H24106   8.825   9.471   6.151 -1.0898 -0.4236 -1.1822
  179MOL0     H24107   8.770   9.340   6.239  1.1798 -0.5537 -0.4413
  179MOL0     H24108   8.639   9.625   6.237  1.8055 -0.5806  1.0090
  179MOL0     H24109   8.608   9.487   6.130  1.6584  1.3159 -1.1457
  179MOL0     H24110   8.519   9.359   6.337 -2.6768  0.1025  1.0671
  179MOL0     H24111   8.552   9.503   6.438 -2.0552  2.5030 -0.0780
  179MOL0     H24112   8.386   9.623   6.266 -0.1927 -0.0782 -0.8646
  179MOL0     H24113   8.367   9.471   6.193  0.1064 -1.0059 -1.4440
  179MOL0     H24114   8.205   9.569   6.368  0.2815 -0.6950 -1.4377
  179MOL0     H24115   8.309   9.515   6.497 -0.1338  1.8119 -0.0168
  179MOL0     H24116   8.236   9.292   6.590 -0.6947 -1.8180  0.3460
  179MOL0     H24117   8.099   8.972   6.442 -1.2678 -1.7360  0.4890
  179MOL0     H24118   8.148   9.039   6.599  0.8234 -0.0810 -1.5173
  179MOL0     H24119   7.859   9.083   6.494 -1.8247  1.7832  2.9567
  179MOL0     H24120   7.928   9.126   6.646 -0.2441 -1.4317  0.9580
  179MOL0     H24121   7.959   8.910   6.733 -2.2871  1.1337  1.4098
  179MOL0     H24122   7.914   8.845   6.570 -0.7416  0.4933 -0.6813
  179MOL0     H24123   7.721   9.002   6.751 -0.7499  0.6189 -1.2899
  179MOL0     H24124   7.742   8.826   6.750  0.0550  1.9838  1.3277
  179MOL0     H24125   7.515   8.948   6.782  1.1118 -0.3767 -1.1061
  179MOL0     H24126   7.323   9.051   6.883 -0.4276  1.7109  0.5264
  179MOL0     H24127   7.214   9.136   6.775 -0.4910  0.1858 -2.6677
  179MOL0     H24128   7.177   8.973   6.823 -0.1683  0.6817 -0.3475
  179MOL0     H24129   6.870   9.118   6.592  1.5737 -0.7729 -0.8309
  179MOL0     H24130   6.635   9.190   6.497 -0.0548  1.0337 -0.5023
  179MOL0     H24131   6.608   9.398   6.124 -1.8407  2.2203  1.2409
  179MOL0     H24132   6.546   9.231   6.097 -0.9071 -1.7483  2.0693
  179MOL0     H24133   6.381   9.479   6.188 -1.4331 -0.6409 -0.1783
  179MOL0     H24134   6.362   9.375   6.045 -0.1224  0.6100 -0.3601
  179MOL0     H24135   6.280   9.330   6.338 -0.5180 -2.4073  0.9886
  179MOL0     H24136   6.310   9.184   6.227 -2.6256 -1.1230 -1.1104
  179MOL0     H24137   6.132   9.407   6.121 -0.8028 -0.8658 -1.3340
  179MOL0     H24138   6.143   9.236   6.086 -0.8695 -0.2939  0.1383
  179MOL0     H24139   6.051   9.366   6.333  1.8293  0.7663 -2.5056
  179MOL0     H24140   6.059   9.188   6.331  1.2871  0.9657  1.7945
  179MOL0     H24141   5.893   9.373   6.143 -0.3972  1.5696  1.2984
  179MOL0     H24142   5.866   9.202   6.160  0.2967  0.1711 -1.4284
  179MOL0     H24143   5.805   9.421   6.371  1.4616  0.0294  0.3165
  179MOL0     H24144   5.812   9.256   6.415 -1.5604 -1.9399 -1.4980
  179MOL0     H24145   5.584   9.306   6.356 -0.9759 -2.6367 -0.8032
  179MOL0     H24146   5.635   9.191   6.237 -2.4752  0.0837  0.4550
  179MOL0     H24147   6.797   9.223   6.113  0.1037  0.3435  0.7153
  179MOL0     H24148   7.019   9.155   6.192 -1.1387 -0.8856 -0.7834
  179MOL0     H24149   7.306   9.002   6.338  0.2491 -0.7611 -0.3496
  179MOL0     H24150   7.546   8.938   6.357 -0.0714  0.4656  0.8956
  179MOL0     H24151   9.257   9.633   6.073 -2.7185  0.9169 -0.2077
  179MOL0     H24152   9.487   9.732   6.014 -1.9017 -1.4388 -1.5835
  179MOL0     H24153   9.830   9.979   6.147 -1.4816 -0.2610 -0.5361
  179MOL0     H24154  10.040  10.071   6.121 -1.0475  2.4312  2.0272
  179MOL0     H24155  10.164  10.235   5.722  1.1636 -1.0197  0.0296
  179MOL0     H24156  10.154  10.383   5.833  1.5145  0.6395  0.9464
  179MOL0     H24157  10.386  10.318   5.730 -1.0013  1.7372 -0.3022
  179MOL0     H24158  10.366  10.169   5.815 -2.9515 -1.0111  1.4917
  179MOL0     H24159  10.375  10.264   6.027 -2.0143 -0.4224 -1.0137
  179MOL0     H24160  10.354  10.433   5.964 -0.1923 -0.6761 -0.2933
  179MOL0     H24161  10.572  10.427   5.851  2.7792  1.7865  0.4469
  179MOL0     H24162  10.610  10.272   5.928 -1.9535 -0.7907  1.0826
  179MOL0     H24163  10.648  10.506   6.279  1.2565 -0.5258  0.0420
  179MOL0     H24164   9.950  10.280   5.760 -0.7878  1.7003  0.3818
  179MOL0     H24165   9.699  10.219   5.805 -0.0013  1.9717 -0.1362
  180MOL0     O24166   6.551   8.213   4.102  0.3489 -0.3111  0.1915
  180MOL0     C24167   6.590   8.125   4.182 -0.2887 -0.5331  0.7196
  180MOL0     O24168   6.509   8.043   4.266  0.4690 -0.4383  0.3494
  180MOL0     C24169   6.374   8.044   4.262  0.7239 -0.1027 -0.1627
  180MOL0     C24170   6.314   7.925   4.295  0.6373  0.5731  0.2495
  180MOL0     C24171   6.177   7.923   4.305 -0.1403  0.0966 -0.3092
  180MOL0     C24172   6.100   8.039   4.287  0.0498  0.4389 -0.7084
  180MOL0     O24173   5.969   8.033   4.313  0.8017 -0.2717  0.0429
  180MOL0     C24174   5.907   7.958   4.422 -1.4497 -0.0347  0.4900
  180MOL0     C24175   5.763   7.998   4.441 -0.6123  0.0444 -0.2676
  180MOL0     C24176   5.679   7.986   4.315  0.7734 -0.3304 -0.2177
  180MOL0     C24177   5.555   8.071   4.332 -0.4288  0.1117  1.0547
  180MOL0     C24178   5.464   8.053   4.204 -0.0710 -0.4328 -0.1352
  180MOL0     C24179   5.334   8.132   4.223 -1.0343  0.1239  0.0878
  180MOL0     C24180   5.235   8.116   4.103  0.3488 -0.5418 -0.1820
  180MOL0     C24181   5.096   8.163   4.137  0.2806 -0.1364  0.0233
  180MOL0     N24182   5.039   8.090   4.253  0.0703  0.2469  0.5777
  180MOL0     C24183   5.001   7.952   4.255  0.0498  0.7964 -0.2828
  180MOL0     C24184   4.931   7.940   4.366  0.5449  1.1035 -0.1473
  180MOL0     C24185   4.855   7.811   4.406 -0.1029  0.2257  0.1219
  180MOL0     C24186   4.746   7.785   4.296  0.1737 -0.2878  0.2481
  180MOL0     C24187   4.652   7.917   4.286  0.0300  0.2912 -0.3494
  180MOL0     C24188   4.537   7.884   4.192 -0.0162  0.2862  0.3581
  180MOL0     O24189   4.464   8.000   4.185  0.8334  0.1747  0.4521
  180MOL0     C24190   4.362   8.008   4.097  0.2157  0.0668 -1.0623
  180MOL0     C24191   4.301   7.900   4.030  0.1599 -0.9883  0.2770
  180MOL0     C24192   4.181   7.915   3.960 -0.8048 -0.2857 -0.4090
  180MOL0     C24193   4.119   7.791   3.916  0.3420  0.6840  0.4817
  180MOL0     C24194   4.128   8.043   3.946 -0.2023  0.1611  0.9360
  180MOL0     C24195   4.013   8.083   3.865 -0.2879  0.2487  0.6470
  180MOL0     O24196   3.933   8.189   3.899  0.0823 -0.4699 -0.0707
  180MOL0     C24197   3.796   8.178   3.877  0.3427 -0.5121 -0.3493
  180MOL0     C24198   3.737   8.303   3.854 -0.0633 -0.2780 -0.2128
  180MOL0     C24199   3.595   8.308   3.839 -0.1816  0.2819 -0.4988
  180MOL0     C24200   3.520   8.189   3.858 -0.5928  0.4871  0.2342
  180MOL0     O24201   3.387   8.180   3.843  0.0157  0.4651 -0.1985
  180MOL0     C24202   3.329   8.233   3.724  0.3923  0.8135  0.1161
  180MOL0     C24203   3.212   8.143   3.683  0.8973 -0.4978 -0.5162
  180MOL0     C24204   3.096   8.178   3.783  0.1569  0.3086  0.4617
  180MOL0     C24205   2.972   8.089   3.776  0.4764  0.4149  0.3086
  180MOL0     C24206   2.857   8.152   3.849 -0.1353  0.7532 -0.0353
  180MOL0     C24207   2.721   8.070   3.831  0.6066  0.4350  0.1301
  180MOL0     C24208   2.612   8.162   3.876 -0.6336 -0.8446 -0.5284
  180MOL0     C24209   2.475   8.091   3.884  1.0242 -0.2152 -0.0662
  180MOL0    Cl24210   2.343   8.218   3.899 -0.1503  0.3241  0.5428
  180MOL0     C24211   3.588   8.067   3.892  0.8709 -0.6030  0.2293
  180MOL0     C24212   3.723   8.062   3.897 -0.0548 -0.5310 -0.1457
  180MOL0     O24213   3.990   8.009   3.765  0.4529 -0.2080 -0.6829
  180MOL0     C24214   4.192   8.150   4.014  0.4562  0.7209  0.1731
  180MOL0     C24215   4.309   8.131   4.091 -0.7395 -1.1373  0.5725
  180MOL0     N24216   4.936   8.058   4.432 -0.4160 -0.4217 -1.0924
  180MOL0     N24217   5.005   8.146   4.366 -0.3983 -0.3298 -0.2730
  180MOL0     C24218   6.158   8.158   4.259  0.3682  0.4824  0.1846
  180MOL0     C24219   6.296   8.159   4.254  0.3479 -0.0440  0.8106
  180MOL0     C24220   6.741   8.111   4.198 -0.1407 -0.6752  0.0552
  180MOL0     C24221   6.800   8.013   4.276  0.7153 -0.3542 -0.6405
  180MOL0     C24222   6.937   7.993   4.285 -0.1483 -0.2072 -0.3610
  180MOL0     C24223   7.023   8.081   4.213  0.5178  1.1953 -0.3751
  180MOL0     O24224   7.154   8.039   4.212 -0.4624  0.1438 -0.1435
  180MOL0     C24225   7.244   8.135   4.156 -0.0387 -0.0464 -0.5249
  180MOL0     C24226   7.370   8.058   4.148  0.9745 -0.4714  0.3970
  180MOL0     C24227   7.431   8.023   4.277  0.6418 -0.4917 -0.6312
  180MOL0     C24228   7.574   7.969   4.280  0.5481 -0.3702 -0.3196
  180MOL0     C24229   7.596   7.841   4.215 -0.3009 -0.3287 -0.2580
  180MOL0     C24230   7.602   7.727   4.172 -0.6727  0.4414 -0.9151
  180MOL0     C24231   6.964   8.180   4.138 -0.6312 -0.7776  0.0879
  180MOL0     C24232   6.830   8.197   4.131  1.0329 -0.9694 -0.4626
  180MOL0     H24233   6.375   7.845   4.333 -1.0227 -1.0976 -0.4319
  180MOL0     H24234   6.115   7.837   4.328  0.3071 -0.2244 -0.2905
  180MOL0     H24235   5.906   7.852   4.394 -0.0873 -0.2524  1.2023
  180MOL0     H24236   5.970   7.963   4.511 -0.2101 -4.1748  0.0560
  180MOL0     H24237   5.719   7.923   4.508  1.4486 -1.9589 -1.0373
  180MOL0     H24238   5.753   8.100   4.480 -0.8828  0.6283 -1.7908
  180MOL0     H24239   5.738   8.023   4.231 -3.1095  0.7064 -2.7706
  180MOL0     H24240   5.655   7.881   4.296  2.1046 -1.2641  2.6959
  180MOL0     H24241   5.498   8.046   4.422  0.5916  0.0090  1.6888
  180MOL0     H24242   5.584   8.176   4.344 -0.7789  0.0385  2.8773
  180MOL0     H24243   5.531   8.087   4.125 -0.4060  1.8146  0.4878
  180MOL0     H24244   5.450   7.944   4.199  1.7245 -0.6507 -1.3960
  180MOL0     H24245   5.288   8.108   4.319 -0.3115  0.2356  0.4662
  180MOL0     H24246   5.352   8.239   4.235  2.8444 -0.3610 -0.0251
  180MOL0     H24247   5.263   8.181   4.020 -0.9765 -0.6016 -0.6954
  180MOL0     H24248   5.246   8.012   4.071  3.2879  0.2405 -2.1154
  180MOL0     H24249   5.036   8.163   4.046  2.0875  4.0050 -1.4397
  180MOL0     H24250   5.091   8.270   4.161 -1.4628 -0.2790  0.4268
  180MOL0     H24251   5.007   7.877   4.176 -2.1723 -0.8458  0.9870
  180MOL0     H24252   4.919   7.723   4.420  1.1898  1.2766  1.1355
  180MOL0     H24253   4.818   7.833   4.507  0.1490  0.4043  0.1767
  180MOL0     H24254   4.687   7.696   4.322 -1.3884  0.3890 -0.8314
  180MOL0     H24255   4.791   7.767   4.197 -0.5687  2.4382 -0.6555
  180MOL0     H24256   4.705   8.009   4.258 -1.8228  2.1244  1.7765
  180MOL0     H24257   4.619   7.955   4.383  3.8772  2.9579  0.1579
  180MOL0     H24258   4.471   7.807   4.235  1.1134  0.1269  1.8821
  180MOL0     H24259   4.579   7.850   4.097  2.3860  0.1178  1.4060
  180MOL0     H24260   4.340   7.799   4.044 -1.1759 -1.3313  1.8691
  180MOL0     H24261   4.163   7.710   3.975  2.1389  0.9117 -0.4762
  180MOL0     H24262   4.011   7.780   3.927  0.6186 -1.1830  1.7964
  180MOL0     H24263   4.149   7.769   3.814  0.1898  2.7131 -0.0507
  180MOL0     H24264   3.800   8.389   3.834 -0.9312 -0.0071 -1.9125
  180MOL0     H24265   3.557   8.403   3.802  1.1832  0.4822 -1.4442
  180MOL0     H24266   3.299   8.337   3.736 -2.1358  0.1885 -0.1776
  180MOL0     H24267   3.397   8.231   3.638  0.6086  0.8258  0.2869
  180MOL0     H24268   3.171   8.175   3.587 -2.5375 -0.4893  0.8277
  180MOL0     H24269   3.246   8.040   3.697  0.4067 -0.3131  2.8798
  180MOL0     H24270   3.068   8.281   3.761 -1.3231 -0.4563 -1.5650
  180MOL0     H24271   3.125   8.170   3.888 -1.2818 -0.8441  0.8060
  180MOL0     H24272   2.948   8.070   3.671 -0.0661  0.8216  0.3526
  180MOL0     H24273   3.004   7.999   3.828  0.2544  0.4084  0.4357
  180MOL0     H24274   2.850   8.254   3.808 -1.3318  1.5190  1.9632
  180MOL0     H24275   2.895   8.146   3.951  0.0384 -2.0277 -0.1916
  180MOL0     H24276   2.705   8.036   3.728 -0.5671 -1.1172  0.7904
  180MOL0     H24277   2.722   7.987   3.902 -1.3827  0.3915  0.1738
  180MOL0     H24278   2.607   8.253   3.815  0.7106  0.3741  1.0686
  180MOL0     H24279   2.638   8.201   3.975 -0.5069  0.7539 -1.1546
  180MOL0     H24280   2.466   8.029   3.974 -2.0599 -0.9891 -0.8126
  180MOL0     H24281   2.451   8.028   3.799 -1.4403 -1.1327  1.2338
  180MOL0     H24282   3.514   7.988   3.899  0.2676 -0.0244  0.5194
  180MOL0     H24283   3.768   7.971   3.936  1.1740 -1.4268 -3.3909
  180MOL0     H24284   4.148   8.248   3.997 -0.4765  0.1654 -0.7967
  180MOL0     H24285   4.349   8.219   4.141 -0.2240 -1.5320  0.8714
  180MOL0     H24286   6.095   8.239   4.225 -0.2948 -0.3259 -0.5735
  180MOL0     H24287   6.349   8.250   4.231 -1.1101  0.8904  1.0070
  180MOL0     H24288   6.742   7.934   4.324 -2.1916  0.7617 -2.0281
  180MOL0     H24289   6.978   7.917   4.352  0.6768  1.9288  1.6904
  180MOL0     H24290   7.222   8.189   4.064  2.8050  0.9964 -0.6972
  180MOL0     H24291   7.244   8.216   4.229 -2.7581 -1.2181  0.9172
  180MOL0     H24292   7.438   8.119   4.088 -0.5781  1.3124  0.3642
  180MOL0     H24293   7.354   7.966   4.091 -0.8785 -1.5866  2.5761
  180MOL0     H24294   7.373   7.947   4.330 -0.6989  1.4242  0.8196
  180MOL0     H24295   7.431   8.110   4.344  1.3165 -1.0780  0.1541
  180MOL0     H24296   7.596   7.955   4.387 -1.9835 -2.9570 -0.0063
  180MOL0     H24297   7.643   8.041   4.236  0.4521 -1.3467 -2.1784
  180MOL0     H24298   7.621   7.632   4.127  0.0986  0.6627 -1.0680
  180MOL0     H24299   7.028   8.249   4.084  0.9734 -1.1827  1.4189
  180MOL0     H24300   6.794   8.287   4.082 -1.0239  0.7208  3.6681
  181MOL0     O24301  10.469   1.689   7.300  0.3851  0.4997  0.4305
  181MOL0     C24302  10.529   1.613   7.225  0.3103  0.1929 -0.7455
  181MOL0     O24303  10.474   1.505   7.162  0.0667 -0.1266 -0.0628
  181MOL0     C24304  10.350   1.459   7.212 -0.3773  0.0133  0.5021
  181MOL0     C24305  10.338   1.407   7.342  0.4651 -0.2423 -0.8404
  181MOL0     C24306  10.213   1.367   7.395  0.2454  0.4827 -0.0227
  181MOL0     C24307  10.103   1.369   7.302  0.5113  1.0658  0.1162
  181MOL0     O24308   9.989   1.325   7.363 -0.0851  0.4124 -0.3017
  181MOL0     C24309   9.871   1.299   7.288 -0.3791 -0.0375 -0.7229
  181MOL0     C24310   9.763   1.239   7.387  0.0620  0.5594 -1.1677
  181MOL0     C24311   9.624   1.220   7.317 -0.3108  0.6318  0.2230
  181MOL0     C24312   9.550   1.362   7.306 -0.4489 -0.0333 -0.4879
  181MOL0     C24313   9.407   1.344   7.314  0.2972 -0.3069  0.0864
  181MOL0     C24314   9.330   1.472   7.278  0.4829  0.3508 -0.1651
  181MOL0     C24315   9.180   1.464   7.282  0.6922  0.3072 -0.0354
  181MOL0     C24316   9.123   1.599   7.236 -1.3681  0.6918 -0.3337
  181MOL0     N24317   8.979   1.600   7.232 -0.7675  0.4545  0.3127
  181MOL0     C24318   8.898   1.512   7.170 -0.5897  0.2830 -0.1240
  181MOL0     C24319   8.779   1.582   7.171 -0.5919 -0.3113 -0.4745
  181MOL0     C24320   8.644   1.507   7.163 -0.5831  0.2867 -0.2724
  181MOL0     C24321   8.551   1.554   7.054 -0.4594 -0.8269 -0.3382
  181MOL0     C24322   8.407   1.509   7.082  0.0481  0.7306 -0.7889
  181MOL0     C24323   8.314   1.617   7.071  0.5408  0.2617 -0.5527
  181MOL0     O24324   8.298   1.647   6.936 -0.3491 -0.3131  0.4729
  181MOL0     C24325   8.203   1.743   6.905  0.1291  0.6368 -0.2333
  181MOL0     C24326   8.185   1.788   6.776  0.6341  0.4718  1.2667
  181MOL0     C24327   8.105   1.906   6.739  0.3460  0.2884  0.0153
  181MOL0     C24328   8.098   1.939   6.591 -0.0212  0.0578 -0.3474
  181MOL0     C24329   8.035   1.971   6.840  0.4348 -0.5529 -0.1830
  181MOL0     C24330   7.946   2.091   6.811  0.1171 -0.7817 -0.7873
  181MOL0     O24331   7.858   2.129   6.908  0.8977  0.1659  1.6197
  181MOL0     C24332   7.740   2.194   6.872 -0.6826 -0.6969  0.2793
  181MOL0     C24333   7.705   2.306   6.952  0.6291  0.3306  0.1763
  181MOL0     C24334   7.584   2.372   6.918  0.1225 -0.3794  0.7200
  181MOL0     C24335   7.493   2.329   6.823 -0.3983  0.1595  1.0314
  181MOL0     O24336   7.376   2.389   6.788  0.0982 -0.1112 -0.0192
  181MOL0     C24337   7.337   2.510   6.853  0.1340 -0.3329 -0.0892
  181MOL0     C24338   7.188   2.542   6.828 -0.1231 -0.1910  0.6644
  181MOL0     C24339   7.161   2.577   6.682 -0.6599  0.2586  0.1043
  181MOL0     C24340   7.038   2.506   6.621  0.3397 -0.5013 -0.0204
  181MOL0     C24341   7.016   2.561   6.480 -0.7369  0.1869 -0.9671
  181MOL0     C24342   6.894   2.499   6.411 -0.6779 -0.0806  0.1325
  181MOL0     C24343   6.878   2.531   6.267 -0.5547 -0.2471  0.4097
  181MOL0     C24344   6.816   2.418   6.184  0.1442 -0.2005  0.7219
  181MOL0    Cl24345   6.685   2.316   6.249 -0.1479 -0.0374  0.3516
  181MOL0     C24346   7.532   2.221   6.747 -0.3350  1.0027  1.1769
  181MOL0     C24347   7.656   2.159   6.766 -0.5521 -0.3381  0.9755
  181MOL0     O24348   7.961   2.155   6.708 -0.1765  0.2426 -0.6229
  181MOL0     C24349   8.046   1.919   6.967 -0.3273 -0.2633 -0.2373
  181MOL0     C24350   8.134   1.814   7.004 -0.3108 -0.4955 -0.3040
  181MOL0     N24351   8.792   1.713   7.218 -0.4575  0.6022 -0.3551
  181MOL0     N24352   8.911   1.720   7.254  0.2307 -0.0955 -0.4190
  181MOL0     C24353  10.117   1.409   7.178 -0.0572  0.8898  0.5764
  181MOL0     C24354  10.236   1.457   7.121  0.4542  0.2044 -1.1165
  181MOL0     C24355  10.672   1.651   7.198 -0.5708 -0.3029 -0.6788
  181MOL0     C24356  10.742   1.756   7.260  0.2530  0.0468 -0.3895
  181MOL0     C24357  10.884   1.777   7.237  0.0963  0.1749 -0.2638
  181MOL0     C24358  10.941   1.705   7.129  0.2028 -0.6528 -0.1860
  181MOL0     O24359  11.071   1.719   7.095 -0.9842 -0.7307  0.6203
  181MOL0     C24360  11.170   1.797   7.161  0.1810 -0.6186  0.4290
  181MOL0     C24361  11.308   1.745   7.122 -0.1792  1.0754  0.3040
  181MOL0     C24362  11.339   1.777   6.972 -0.4586 -0.0508 -0.2958
  181MOL0     C24363  11.466   1.712   6.916 -0.3709 -0.3571  0.6757
  181MOL0     C24364  11.451   1.570   6.910  0.3579  1.1284 -0.2262
  181MOL0     C24365  11.432   1.445   6.905 -0.3013 -0.4379  0.4984
  181MOL0     C24366  10.868   1.612   7.062 -0.2815 -0.8777 -0.0928
  181MOL0     C24367  10.743   1.579   7.100  0.0951  0.4147 -0.8085
  181MOL0     H24368  10.427   1.415   7.403  1.9522  2.2386 -3.0945
  181MOL0     H24369  10.198   1.342   7.499 -1.9289  0.8361 -0.1944
  181MOL0     H24370   9.845   1.396   7.245  1.2840  0.2866 -1.0578
  181MOL0     H24371   9.879   1.226   7.206 -0.9099  0.6680 -1.4231
  181MOL0     H24372   9.798   1.140   7.416 -2.6739 -0.4164 -0.9443
  181MOL0     H24373   9.759   1.304   7.475  3.0796  0.6967 -1.0277
  181MOL0     H24374   9.631   1.168   7.221 -1.6918  1.4121 -0.3243
  181MOL0     H24375   9.574   1.158   7.392  1.5282 -1.1658  0.0521
  181MOL0     H24376   9.571   1.426   7.391  0.1941  1.3538 -1.6566
  181MOL0     H24377   9.592   1.408   7.216  0.5335  1.2124  0.5847
  181MOL0     H24378   9.374   1.272   7.240 -0.6227 -0.3784  0.5488
  181MOL0     H24379   9.376   1.305   7.412  0.2764  0.1794  0.2768
  181MOL0     H24380   9.363   1.550   7.347  0.2727  1.0079 -0.7852
  181MOL0     H24381   9.354   1.510   7.178 -0.4083 -0.6220 -0.7690
  181MOL0     H24382   9.136   1.388   7.216  1.5533  1.0841 -1.5540
  181MOL0     H24383   9.144   1.432   7.380  0.6007 -1.7686 -0.6794
  181MOL0     H24384   9.168   1.620   7.138 -1.4734 -0.4801 -0.6488
  181MOL0     H24385   9.156   1.675   7.307 -1.2321 -0.2929  0.6940
  181MOL0     H24386   8.914   1.408   7.145 -0.3340  0.6995 -1.8591
  181MOL0     H24387   8.668   1.400   7.153 -3.1502 -0.3886  0.1080
  181MOL0     H24388   8.589   1.510   7.258  0.6609 -0.9170  0.5244
  181MOL0     H24389   8.583   1.514   6.957  0.7217 -0.9810  0.0994
  181MOL0     H24390   8.548   1.662   7.036 -0.9390 -0.3768  2.0817
  181MOL0     H24391   8.401   1.448   7.173 -0.9271 -0.7798 -1.8245
  181MOL0     H24392   8.386   1.432   7.007 -1.0777 -1.1815  1.3815
  181MOL0     H24393   8.343   1.709   7.122  2.7227  1.0225 -2.9432
  181MOL0     H24394   8.220   1.572   7.106  1.5716 -0.7480  1.0353
  181MOL0     H24395   8.236   1.743   6.691  0.5427  1.8734  0.4323
  181MOL0     H24396   8.129   1.852   6.532  1.0457  0.8875 -1.0563
  181MOL0     H24397   7.994   1.932   6.559  0.1932 -2.2801 -0.6579
  181MOL0     H24398   8.143   2.036   6.568 -1.4464  0.6700 -0.6688
  181MOL0     H24399   7.763   2.349   7.033 -0.9155  1.1202  0.9278
  181MOL0     H24400   7.567   2.459   6.980  2.1088  1.7518 -1.5514
  181MOL0     H24401   7.356   2.498   6.960  2.2907 -3.3907 -0.6888
  181MOL0     H24402   7.396   2.600   6.832  0.1680  0.2631  2.2784
  181MOL0     H24403   7.123   2.461   6.863  0.2336  0.0776  1.9943
  181MOL0     H24404   7.154   2.624   6.891 -0.9677 -1.3822  1.8130
  181MOL0     H24405   7.246   2.570   6.613 -1.2366  0.8064 -0.6747
  181MOL0     H24406   7.146   2.685   6.682  1.1975  0.5747 -1.5217
  181MOL0     H24407   7.046   2.397   6.623 -2.8159 -1.0379 -4.0189
  181MOL0     H24408   6.948   2.534   6.676  2.4509  4.4965  1.4491
  181MOL0     H24409   7.110   2.535   6.429 -0.8656 -0.9700 -0.6423
  181MOL0     H24410   7.004   2.670   6.481  1.2619  0.4535 -0.3931
  181MOL0     H24411   6.909   2.392   6.424 -1.5029 -0.5880 -2.5414
  181MOL0     H24412   6.804   2.530   6.463 -1.8542 -1.5554 -0.9477
  181MOL0     H24413   6.968   2.566   6.215 -1.0338 -0.5470 -0.6333
  181MOL0     H24414   6.806   2.613   6.271 -2.1703 -1.5976  4.3745
  181MOL0     H24415   6.898   2.348   6.167  0.9429  0.3401  2.0900
  181MOL0     H24416   6.793   2.462   6.087  0.8892  0.3861  0.7994
  181MOL0     H24417   7.455   2.186   6.680 -0.3609  1.4482  0.9668
  181MOL0     H24418   7.692   2.082   6.699  0.1843 -1.1375  2.2441
  181MOL0     H24419   7.997   1.968   7.051 -0.6831 -1.4838  0.2943
  181MOL0     H24420   8.143   1.791   7.109  2.4368  1.2635 -0.0619
  181MOL0     H24421  10.028   1.427   7.118  0.2424  0.0935 -0.1236
  181MOL0     H24422  10.256   1.489   7.019 -1.9940  3.5993 -0.7190
  181MOL0     H24423  10.698   1.825   7.331  1.0553  0.4090 -0.2262
  181MOL0     H24424  10.937   1.860   7.283 -0.7087 -0.0903  1.1839
  181MOL0     H24425  11.157   1.901   7.128  0.3401 -0.1082  1.8860
  181MOL0     H24426  11.161   1.780   7.268  0.7786  1.3588  0.8297
  181MOL0     H24427  11.322   1.640   7.149  2.0443  1.2686  0.1104
  181MOL0     H24428  11.376   1.800   7.187 -1.8627 -0.2457  3.3723
  181MOL0     H24429  11.340   1.887   6.966  1.7851  0.1188  1.6748
  181MOL0     H24430  11.266   1.748   6.895 -2.2895 -0.8600  1.6666
  181MOL0     H24431  11.557   1.731   6.972  0.3674  0.9498 -0.8923
  181MOL0     H24432  11.493   1.739   6.814  1.3694  0.5922  1.3567
  181MOL0     H24433  11.423   1.338   6.909  0.2985 -0.6227 -1.5397
  181MOL0     H24434  10.925   1.565   6.982  2.3945 -0.3956  1.4309
  181MOL0     H24435  10.697   1.498   7.043 -0.5734 -0.9835  1.5890
  182MOL0     O24436   8.849   7.568   0.612 -1.0954 -0.2757 -0.6075
  182MOL0     C24437   8.870   7.547   0.732 -0.3369  0.1434 -1.0154
  182MOL0     O24438   8.770   7.554   0.828 -0.2931 -0.1423  0.2415
  182MOL0     C24439   8.637   7.562   0.784 -0.1701  0.1897  0.3465
  182MOL0     C24440   8.540   7.471   0.829  0.3307  0.2470  0.5504
  182MOL0     C24441   8.407   7.486   0.794  0.1048  0.1532 -0.9315
  182MOL0     C24442   8.362   7.594   0.720 -0.6098  0.2284 -0.2499
  182MOL0     O24443   8.233   7.611   0.688 -0.7518  0.1441 -0.0276
  182MOL0     C24444   8.139   7.591   0.797  0.6328 -0.0537 -0.0758
  182MOL0     C24445   8.005   7.653   0.767  0.7208  0.0244  0.0465
  182MOL0     C24446   7.916   7.572   0.679  0.5762 -0.9546 -0.4703
  182MOL0     C24447   7.774   7.615   0.699  0.6773 -0.4281  0.2176
  182MOL0     C24448   7.717   7.691   0.578  0.5144 -0.7172 -0.4471
  182MOL0     C24449   7.580   7.759   0.623  0.1331 -0.1029  0.9011
  182MOL0     C24450   7.483   7.749   0.509 -0.4515 -0.5244 -0.0745
  182MOL0     C24451   7.352   7.802   0.541  0.5120 -0.0645 -0.2616
  182MOL0     N24452   7.277   7.805   0.416 -0.8219 -0.0157 -0.3543
  182MOL0     C24453   7.253   7.913   0.345 -0.4476  0.0863 -0.8027
  182MOL0     C24454   7.165   7.884   0.245 -0.5291  0.4494 -0.6106
  182MOL0     C24455   7.122   7.999   0.153  0.8379  0.0569 -0.2724
  182MOL0     C24456   6.983   8.056   0.192  0.3224  0.7715 -0.0953
  182MOL0     C24457   6.869   7.961   0.180  0.0313 -0.3789 -0.2706
  182MOL0     C24458   6.747   8.026   0.240  0.3278 -0.1073  0.8227
  182MOL0     O24459   6.710   8.162   0.189 -0.8971 -0.8518 -0.3893
  182MOL0     C24460   6.589   8.211   0.224  0.2874 -0.3161 -0.0069
  182MOL0     C24461   6.522   8.162   0.328  0.1473  0.0958 -0.3058
  182MOL0     C24462   6.386   8.201   0.349  0.5115  0.1648 -0.9039
  182MOL0     C24463   6.312   8.140   0.463  0.2683 -0.5718 -0.9751
  182MOL0     C24464   6.316   8.286   0.250 -0.3771 -0.4173 -0.1772
  182MOL0     C24465   6.170   8.319   0.264 -0.4128 -0.7959 -0.5481
  182MOL0     O24466   6.089   8.210   0.276 -0.4500 -0.4847 -0.2480
  182MOL0     C24467   5.956   8.221   0.290  0.3774 -0.3594  1.2395
  182MOL0     C24468   5.876   8.148   0.199  0.0068 -0.5511 -0.4999
  182MOL0     C24469   5.738   8.150   0.228  0.1959  0.3608 -1.1650
  182MOL0     C24470   5.684   8.226   0.335  0.1257 -0.1084  0.2040
  182MOL0     O24471   5.550   8.228   0.345 -0.0530  0.6530 -0.3100
  182MOL0     C24472   5.491   8.233   0.477  0.4305 -0.0326  0.0083
  182MOL0     C24473   5.337   8.188   0.462 -0.1117  0.3329  0.0790
  182MOL0     C24474   5.247   8.256   0.570  0.7914 -0.3464 -0.5495
  182MOL0     C24475   5.295   8.223   0.717 -0.2495 -0.3928 -0.3188
  182MOL0     C24476   5.194   8.262   0.825  0.4341 -0.1180 -0.6442
  182MOL0     C24477   5.266   8.235   0.951 -0.1056  0.0348 -0.0292
  182MOL0     C24478   5.187   8.283   1.070  0.6060  0.6393 -0.6542
  182MOL0     C24479   5.247   8.218   1.198 -0.0181 -0.3350 -0.9663
  182MOL0    Cl24480   5.190   8.046   1.213 -0.0654 -0.0307  0.1224
  182MOL0     C24481   5.765   8.296   0.428  0.4552  0.2397  0.2426
  182MOL0     C24482   5.904   8.287   0.405 -0.6005  0.3541  0.0631
  182MOL0     O24483   6.129   8.440   0.263  0.0717  0.4838 -0.4040
  182MOL0     C24484   6.393   8.341   0.148  0.4396 -0.6681 -0.0122
  182MOL0     C24485   6.525   8.302   0.132 -0.3554  0.3660 -0.1105
  182MOL0     N24486   7.130   7.751   0.258  0.3344 -0.5498  0.2830
  182MOL0     N24487   7.203   7.702   0.357  0.2712  1.3015 -0.5709
  182MOL0     C24488   8.463   7.678   0.664  0.2983 -0.1497 -0.3998
  182MOL0     C24489   8.600   7.666   0.701  0.2186 -0.0778  1.0837
  182MOL0     C24490   9.007   7.520   0.781  0.0445 -0.6960 -0.1742
  182MOL0     C24491   9.035   7.516   0.916  1.0264 -0.2965 -0.1553
  182MOL0     C24492   9.162   7.499   0.961 -0.1880  1.0346 -0.6450
  182MOL0     C24493   9.274   7.482   0.877 -0.0590  0.3489  0.5772
  182MOL0     O24494   9.403   7.470   0.919 -0.1215 -0.4958 -0.6008
  182MOL0     C24495   9.463   7.339   0.880  0.3805 -0.8251 -0.1099
  182MOL0     C24496   9.550   7.285   0.982  0.2410 -0.2715  0.3873
  182MOL0     C24497   9.671   7.372   1.017 -0.0236 -0.1736 -0.8520
  182MOL0     C24498   9.732   7.325   1.145 -0.1505  0.7909 -0.8152
  182MOL0     C24499   9.868   7.382   1.167 -0.5271 -1.0263 -0.1838
  182MOL0     C24500   9.980   7.426   1.175  0.6656 -0.8874 -0.4650
  182MOL0     C24501   9.247   7.488   0.735  0.5002 -0.2553  0.2690
  182MOL0     C24502   9.112   7.499   0.692  1.1195  0.1536  0.2377
  182MOL0     H24503   8.567   7.384   0.887 -0.0590 -0.0708  0.2650
  182MOL0     H24504   8.349   7.406   0.838  3.3422 -0.4031  2.8501
  182MOL0     H24505   8.135   7.484   0.822 -1.7193 -0.3830 -1.4982
  182MOL0     H24506   8.179   7.648   0.881  0.2733  3.5080 -2.1378
  182MOL0     H24507   7.948   7.665   0.860  0.0436 -2.5351  0.0452
  182MOL0     H24508   8.017   7.753   0.725  0.2545  0.5525  1.1233
  182MOL0     H24509   7.951   7.576   0.575  1.2949  1.2938 -0.2075
  182MOL0     H24510   7.928   7.468   0.710 -0.0940 -0.9455 -0.1689
  182MOL0     H24511   7.702   7.534   0.708 -2.3555  2.0142 -0.2377
  182MOL0     H24512   7.754   7.677   0.787 -2.1101  1.4804 -1.6028
  182MOL0     H24513   7.793   7.768   0.561  0.6513 -0.9852 -1.0855
  182MOL0     H24514   7.713   7.624   0.491 -0.3056 -3.6388  1.6815
  182MOL0     H24515   7.537   7.705   0.708 -0.4838 -0.4955  0.3470
  182MOL0     H24516   7.587   7.863   0.657 -1.7408  0.0746  0.8277
  182MOL0     H24517   7.536   7.802   0.429  0.6450 -0.5011  0.6457
  182MOL0     H24518   7.466   7.643   0.489 -3.5876 -0.2671  0.6699
  182MOL0     H24519   7.357   7.898   0.593  1.5643  0.1629 -0.7531
  182MOL0     H24520   7.304   7.736   0.614 -0.1163 -0.7742 -1.2859
  182MOL0     H24521   7.297   8.011   0.365 -0.3477 -0.3066  1.1808
  182MOL0     H24522   7.195   8.080   0.143  1.8453 -0.7814  0.1254
  182MOL0     H24523   7.113   7.950   0.056 -2.0615  0.4056 -0.2841
  182MOL0     H24524   6.963   8.147   0.134 -0.6901  0.0870 -0.8650
  182MOL0     H24525   6.994   8.085   0.297 -1.3027  4.1663 -0.7412
  182MOL0     H24526   6.890   7.867   0.232  0.0913 -1.3587 -1.9939
  182MOL0     H24527   6.856   7.942   0.073  0.7314  1.3335 -0.7037
  182MOL0     H24528   6.754   8.042   0.348  0.9221  1.3371  0.5870
  182MOL0     H24529   6.660   7.963   0.219  1.5066 -0.7193 -2.8948
  182MOL0     H24530   6.567   8.093   0.398  1.9713  1.2667 -0.2456
  182MOL0     H24531   6.244   8.215   0.504  0.5200  0.7633 -2.8736
  182MOL0     H24532   6.255   8.051   0.433 -1.4704  0.0148  0.4154
  182MOL0     H24533   6.370   8.111   0.551  0.0822  0.8805 -0.3385
  182MOL0     H24534   5.919   8.091   0.118  0.4220  2.3463 -2.4563
  182MOL0     H24535   5.665   8.102   0.163 -2.4378  1.2541  0.9888
  182MOL0     H24536   5.542   8.168   0.549  0.4906 -0.4854 -0.4344
  182MOL0     H24537   5.496   8.340   0.499  3.6127 -0.6117  3.0619
  182MOL0     H24538   5.310   8.227   0.363  0.2654  1.8324  0.5380
  182MOL0     H24539   5.322   8.080   0.465 -0.2746  0.3688  2.6018
  182MOL0     H24540   5.145   8.218   0.562  0.1453  1.5810 -2.1194
  182MOL0     H24541   5.238   8.365   0.557 -2.1189 -0.5450 -0.7415
  182MOL0     H24542   5.310   8.115   0.728 -1.2457 -0.5594 -0.5535
  182MOL0     H24543   5.392   8.270   0.736 -1.3253  2.0393 -0.4855
  182MOL0     H24544   5.100   8.208   0.810 -1.2851  1.8144  2.1848
  182MOL0     H24545   5.170   8.368   0.820  2.7990  0.4579 -1.1531
  182MOL0     H24546   5.277   8.127   0.954 -1.8630 -0.3098 -2.4349
  182MOL0     H24547   5.365   8.282   0.953 -0.2268  0.4152  3.9545
  182MOL0     H24548   5.081   8.259   1.063  0.7546 -0.3212  0.1487
  182MOL0     H24549   5.192   8.392   1.073 -1.2946  0.7251  0.1490
  182MOL0     H24550   5.210   8.274   1.285  1.0795  0.6108 -1.0805
  182MOL0     H24551   5.355   8.221   1.211 -0.2274 -0.6934  1.3089
  182MOL0     H24552   5.725   8.353   0.511 -0.1847  1.7901 -1.1026
  182MOL0     H24553   5.982   8.335   0.462  1.5403 -2.3640 -0.3862
  182MOL0     H24554   6.353   8.413   0.078 -0.9886 -0.5231  0.9034
  182MOL0     H24555   6.583   8.335   0.046  1.3047  2.7158  1.7936
  182MOL0     H24556   8.421   7.759   0.605  0.7539 -0.2963 -0.9414
  182MOL0     H24557   8.668   7.744   0.667 -1.5730  0.7112 -0.9219
  182MOL0     H24558   8.967   7.533   0.999  1.6434  1.1568  0.0874
  182MOL0     H24559   9.178   7.487   1.068  2.4266 -0.7011 -1.1291
  182MOL0     H24560   9.388   7.262   0.860  0.6745 -1.2187  0.2802
  182MOL0     H24561   9.528   7.359   0.794  2.2736 -2.8865  0.7306
  182MOL0     H24562   9.582   7.186   0.948  0.2565 -0.5142  1.1058
  182MOL0     H24563   9.488   7.268   1.071 -2.7811  1.8484 -1.1002
  182MOL0     H24564   9.631   7.473   1.023  0.6046  0.0420 -0.1652
  182MOL0     H24565   9.745   7.383   0.936  0.8532  1.1992  0.0970
  182MOL0     H24566   9.737   7.216   1.147 -0.1708  0.7792  1.0364
  182MOL0     H24567   9.670   7.351   1.232  1.5583  0.1251  0.6712
  182MOL0     H24568  10.077   7.469   1.186  0.0570  0.3245  0.2554
  182MOL0     H24569   9.326   7.489   0.661 -1.2145  0.2688 -1.6579
  182MOL0     H24570   9.103   7.490   0.584  1.4570 -0.6380  0.2666
  183MOL0     O24571   9.558   0.179   4.817 -0.4040 -0.5302 -0.2807
  183MOL0     C24572   9.625   0.275   4.867 -0.0863  0.7336 -0.2328
  183MOL0     O24573   9.574   0.394   4.897  0.3706  0.3332  0.6796
  183MOL0     C24574   9.463   0.435   4.834  0.5831  0.0616  0.1436
  183MOL0     C24575   9.418   0.398   4.702  0.4262 -0.2200 -0.0673
  183MOL0     C24576   9.306   0.454   4.649 -0.8663  0.3278  1.0026
  183MOL0     C24577   9.238   0.562   4.708  0.6130 -0.2745  0.3256
  183MOL0     O24578   9.138   0.630   4.639  0.0663  0.1530 -0.0132
  183MOL0     C24579   9.052   0.717   4.700  0.4370 -0.0376 -0.9240
  183MOL0     C24580   8.960   0.658   4.794  0.9888 -0.1906  0.2279
  183MOL0     C24581   8.837   0.596   4.717 -0.4079  0.3485  0.1859
  183MOL0     C24582   8.741   0.531   4.809  0.4634  0.1257 -1.2155
  183MOL0     C24583   8.620   0.464   4.742  0.1408  0.1802 -0.5592
  183MOL0     C24584   8.539   0.572   4.661  0.1201 -0.5793  0.5360
  183MOL0     C24585   8.401   0.522   4.612  0.4813 -0.1537  0.3937
  183MOL0     C24586   8.420   0.407   4.515  0.3404  1.3371  0.0870
  183MOL0     N24587   8.278   0.364   4.475 -0.9107 -0.0982 -0.6603
  183MOL0     C24588   8.232   0.359   4.349  0.3161  0.1053  0.0164
  183MOL0     C24589   8.100   0.319   4.363  0.0249  0.2170 -0.1739
  183MOL0     C24590   7.992   0.287   4.262 -0.2095 -0.5926 -0.1799
  183MOL0     C24591   7.855   0.266   4.332 -0.7844 -0.0717  0.1397
  183MOL0     C24592   7.721   0.270   4.242 -0.6882 -0.2880  0.2189
  183MOL0     C24593   7.610   0.169   4.287 -0.2101  0.6976  0.9541
  183MOL0     O24594   7.551   0.197   4.412 -1.0970 -0.1184 -0.2431
  183MOL0     C24595   7.421   0.157   4.422  0.2360  0.3575  0.0457
  183MOL0     C24596   7.331   0.233   4.491  0.7372  0.4857  0.1672
  183MOL0     C24597   7.200   0.194   4.508  0.0614 -0.3757 -0.2425
  183MOL0     C24598   7.121   0.297   4.583  0.1310  0.5499 -0.1835
  183MOL0     C24599   7.153   0.063   4.472  0.3800 -0.3733 -0.3618
  183MOL0     C24600   7.014   0.015   4.475  0.1378 -0.1706  0.1318
  183MOL0     O24601   6.932   0.073   4.566  0.1563  0.1767  0.4566
  183MOL0     C24602   6.799   0.077   4.547 -0.9346 -0.2589  0.0267
  183MOL0     C24603   6.736   0.070   4.421  0.1015  0.8113 -0.2208
  183MOL0     C24604   6.597   0.081   4.413 -0.3900 -0.0824 -0.7043
  183MOL0     C24605   6.516   0.086   4.526 -0.3711 -0.8583  0.1787
  183MOL0     O24606   6.377   0.080   4.523 -0.0178  0.1393 -0.3908
  183MOL0     C24607   6.325   0.066   4.391  0.4907  0.5308 -0.1876
  183MOL0     C24608   6.176   0.078   4.394 -0.5341  0.1820  0.0789
  183MOL0     C24609   6.111  -0.049   4.447  0.2256  0.2290 -0.2788
  183MOL0     C24610   5.959  -0.036   4.436 -0.4928 -0.0055 -0.0263
  183MOL0     C24611   5.910  -0.167   4.495  0.2207  0.6169  0.3981
  183MOL0     C24612   5.754  -0.157   4.518 -0.7514  0.0942  0.0898
  183MOL0     C24613   5.695  -0.285   4.568  0.5318 -0.0702 -0.7566
  183MOL0     C24614   5.544  -0.279   4.560 -0.8860  0.0532 -0.5318
  183MOL0    Cl24615   5.484  -0.199   4.706  0.1475  0.4737  0.0789
  183MOL0     C24616   6.577   0.091   4.645 -0.9358  1.2366 -0.3086
  183MOL0     C24617   6.718   0.088   4.660  0.9703 -0.1760  0.3015
  183MOL0     O24618   6.988  -0.089   4.414  0.3780 -0.1845  0.2796
  183MOL0     C24619   7.257  -0.013   4.406  0.1975 -0.2236 -0.0238
  183MOL0     C24620   7.386   0.026   4.395  0.8830 -0.2682  0.9061
  183MOL0     N24621   8.073   0.305   4.504  0.2169 -0.1813  0.1438
  183MOL0     N24622   8.182   0.333   4.555 -0.5284 -0.0476 -0.3181
  183MOL0     C24623   9.279   0.603   4.836 -0.0359 -0.1916  0.2614
  183MOL0     C24624   9.385   0.538   4.900  0.0039 -0.4506 -0.0629
  183MOL0     C24625   9.761   0.242   4.914 -0.0292 -0.4698  0.5446
  183MOL0     C24626   9.831   0.350   4.971 -0.6301 -0.4416  0.5533
  183MOL0     C24627   9.963   0.326   5.010 -1.7471 -0.6093  0.5307
  183MOL0     C24628  10.024   0.204   4.979 -0.0604 -0.0908 -0.2643
  183MOL0     O24629  10.164   0.181   4.992  0.4189  0.2171  0.5649
  183MOL0     C24630  10.246   0.278   5.055  0.5865 -0.8781 -0.2420
  183MOL0     C24631  10.383   0.214   5.070 -0.0538  0.2066  0.3061
  183MOL0     C24632  10.499   0.299   5.113  0.2061 -0.7644 -0.1079
  183MOL0     C24633  10.560   0.378   5.003 -0.0943 -0.1107  0.1231
  183MOL0     C24634  10.530   0.525   5.010  0.6240 -0.0236  1.7153
  183MOL0     C24635  10.515   0.646   5.015 -0.1324  0.5277  0.0609
  183MOL0     C24636   9.950   0.094   4.933  0.8531 -0.5238  0.2751
  183MOL0     C24637   9.814   0.114   4.899 -0.7430  1.1813 -0.1072
  183MOL0     H24638   9.479   0.337   4.636  0.3781 -0.4840  0.1335
  183MOL0     H24639   9.297   0.431   4.543 -3.8657 -0.2570  1.3051
  183MOL0     H24640   9.110   0.794   4.754  1.3424  1.0448 -3.3161
  183MOL0     H24641   8.993   0.767   4.623 -0.4946  0.4539  0.0740
  183MOL0     H24642   9.010   0.577   4.850  2.8029 -0.5848 -1.8349
  183MOL0     H24643   8.929   0.724   4.876 -0.9913 -1.1000  0.2842
  183MOL0     H24644   8.779   0.671   4.664 -0.2367 -0.5046 -1.2444
  183MOL0     H24645   8.876   0.528   4.641  0.1908  0.8550  0.0394
  183MOL0     H24646   8.787   0.459   4.877  1.6313  1.0713 -0.9808
  183MOL0     H24647   8.697   0.602   4.880 -0.7762 -2.3463  0.6700
  183MOL0     H24648   8.648   0.379   4.679  4.2928  0.3457  0.7846
  183MOL0     H24649   8.552   0.432   4.821 -0.9311  2.5451 -0.4178
  183MOL0     H24650   8.530   0.666   4.716  0.5565 -1.2143  1.7459
  183MOL0     H24651   8.591   0.612   4.574  0.9719  1.4911  1.9305
  183MOL0     H24652   8.337   0.498   4.697 -1.1953  4.8625  0.8780
  183MOL0     H24653   8.348   0.594   4.550 -0.4343 -1.1430 -0.0135
  183MOL0     H24654   8.478   0.325   4.559  0.1953  0.7551 -0.7721
  183MOL0     H24655   8.460   0.441   4.419  1.0681 -2.7365 -1.2415
  183MOL0     H24656   8.292   0.376   4.260  0.6540  2.1366  0.5710
  183MOL0     H24657   7.976   0.377   4.201  0.9928  0.4782  1.0057
  183MOL0     H24658   8.020   0.206   4.195 -0.0301 -0.8313  0.1829
  183MOL0     H24659   7.844   0.340   4.412  1.6098  0.1714  0.3268
  183MOL0     H24660   7.865   0.167   4.378  3.8299 -0.0416 -0.3168
  183MOL0     H24661   7.756   0.254   4.139  0.5226  0.9281  0.4142
  183MOL0     H24662   7.685   0.373   4.238 -0.2098 -0.0702  1.2090
  183MOL0     H24663   7.652   0.068   4.288 -0.9070  0.2863 -2.2024
  183MOL0     H24664   7.532   0.160   4.212  0.4030 -4.7626  0.5419
  183MOL0     H24665   7.367   0.332   4.520  1.3993  0.4399 -0.4611
  183MOL0     H24666   7.025   0.290   4.532  1.6423 -0.0727 -3.2047
  183MOL0     H24667   7.118   0.281   4.691  2.1674  3.4850  0.4213
  183MOL0     H24668   7.157   0.399   4.571 -0.9619  0.9196 -0.4448
  183MOL0     H24669   6.788   0.048   4.329  0.3154 -0.1742  0.1209
  183MOL0     H24670   6.554   0.086   4.313  0.7208  2.9129 -1.1240
  183MOL0     H24671   6.350   0.149   4.324 -1.9997  0.1387 -1.7433
  183MOL0     H24672   6.357  -0.029   4.346 -0.9931  0.1596 -0.5039
  183MOL0     H24673   6.140   0.163   4.453  3.4205  0.7058  2.0084
  183MOL0     H24674   6.131   0.090   4.295 -0.3191  0.6837  0.0372
  183MOL0     H24675   6.142  -0.047   4.552 -1.2646  0.6937  0.1820
  183MOL0     H24676   6.150  -0.134   4.392 -0.7748  1.0827 -2.4272
  183MOL0     H24677   5.942   0.054   4.496  2.0705  0.4925  0.0665
  183MOL0     H24678   5.922  -0.012   4.336 -0.6070  0.7968  0.1949
  183MOL0     H24679   5.967  -0.189   4.586  0.4226 -3.7355 -0.5646
  183MOL0     H24680   5.943  -0.247   4.428 -1.3934  0.4329 -0.2207
  183MOL0     H24681   5.717  -0.073   4.577 -3.5520 -0.6396 -0.4324
  183MOL0     H24682   5.704  -0.142   4.422 -1.4148 -1.0816  0.2284
  183MOL0     H24683   5.730  -0.287   4.671  0.3608  1.8750 -0.6215
  183MOL0     H24684   5.732  -0.365   4.503  1.2017  0.1390 -0.6357
  183MOL0     H24685   5.506  -0.382   4.556 -0.9314  0.0901 -1.2025
  183MOL0     H24686   5.513  -0.235   4.465  1.8184 -1.8271 -2.4445
  183MOL0     H24687   6.524   0.103   4.739  0.4476  1.6677  0.4395
  183MOL0     H24688   6.759   0.085   4.760 -0.3861 -4.0319  0.8936
  183MOL0     H24689   7.230  -0.116   4.388  0.1992 -0.2144 -0.0772
  183MOL0     H24690   7.461  -0.041   4.355  0.6648 -0.1034  0.2190
  183MOL0     H24691   9.230   0.677   4.898 -0.9107 -0.4917 -0.0452
  183MOL0     H24692   9.409   0.556   5.004  1.8936 -1.5345 -0.2607
  183MOL0     H24693   9.785   0.443   5.002 -1.2021 -0.0396 -1.4051
  183MOL0     H24694  10.020   0.411   5.046 -1.1272 -1.8494  2.6477
  183MOL0     H24695  10.253   0.373   5.001 -3.8801 -0.4259 -0.3767
  183MOL0     H24696  10.210   0.314   5.152 -1.1423 -0.2456 -1.0809
  183MOL0     H24697  10.403   0.169   4.973 -4.8647 -1.7207 -0.0692
  183MOL0     H24698  10.369   0.143   5.152 -0.0054 -0.2693 -0.0940
  183MOL0     H24699  10.571   0.230   5.159  0.2450 -0.7180 -0.1004
  183MOL0     H24700  10.461   0.367   5.190 -0.8099  0.3623 -1.5370
  183MOL0     H24701  10.530   0.338   4.906 -3.4548  2.8477 -0.2643
  183MOL0     H24702  10.669   0.374   5.012 -0.1574 -0.9203  0.5575
  183MOL0     H24703  10.495   0.749   5.037  2.0077  0.5764  2.3289
  183MOL0     H24704   9.999   0.001   4.909 -1.9771 -1.2568 -3.5052
  183MOL0     H24705   9.765   0.040   4.836  0.2153 -0.2111  0.7341
  184MOL0     O24706   3.974   1.157   7.844 -0.1250  0.5916 -0.6339
  184MOL0     C24707   4.028   1.262   7.827 -0.2773 -0.1618  0.6006
  184MOL0     O24708   3.967   1.385   7.841  0.2176 -0.2429 -0.4009
  184MOL0     C24709   3.828   1.400   7.829 -0.4738 -0.0346  0.1780
  184MOL0     C24710   3.734   1.305   7.790  0.4976  0.5848 -0.1677
  184MOL0     C24711   3.596   1.329   7.790 -0.3313  0.6505 -0.1892
  184MOL0     C24712   3.546   1.460   7.820 -0.5382 -0.6932 -0.1119
  184MOL0     O24713   3.418   1.502   7.827  0.1834  0.5392  0.4731
  184MOL0     C24714   3.325   1.424   7.742  0.1960  0.3900  0.7090
  184MOL0     C24715   3.206   1.517   7.724  0.5939 -0.1493  0.5762
  184MOL0     C24716   3.078   1.439   7.687  1.3631 -0.5082 -0.6146
  184MOL0     C24717   2.964   1.531   7.650  0.1270 -0.3628 -0.0618
  184MOL0     C24718   2.842   1.469   7.577 -0.3938  0.2715  0.1001
  184MOL0     C24719   2.768   1.345   7.641  0.0979  0.4372  0.6812
  184MOL0     C24720   2.627   1.306   7.581 -0.4602  0.5728  0.2236
  184MOL0     C24721   2.632   1.256   7.435  1.1294  0.9276  0.7265
  184MOL0     N24722   2.498   1.225   7.384  0.5267 -0.2274 -0.1489
  184MOL0     C24723   2.435   1.101   7.403 -0.3050 -0.2117 -0.2467
  184MOL0     C24724   2.307   1.127   7.364 -0.0648  0.2934 -0.1501
  184MOL0     C24725   2.171   1.051   7.372 -0.6598 -0.6835  0.3423
  184MOL0     C24726   2.165   0.915   7.316  0.6135  0.2079 -0.2256
  184MOL0     C24727   2.016   0.858   7.293 -0.3566  0.7053 -0.0312
  184MOL0     C24728   1.931   0.873   7.412  0.4996  0.7591  0.2840
  184MOL0     O24729   1.879   1.005   7.428  0.1215 -0.3143  0.3660
  184MOL0     C24730   1.762   1.051   7.369  0.6823 -0.1513 -0.3640
  184MOL0     C24731   1.725   1.179   7.407  0.2184 -0.4772  0.6677
  184MOL0     C24732   1.598   1.238   7.372 -0.6611  1.6334  0.0371
  184MOL0     C24733   1.575   1.380   7.416  0.6057 -0.6013 -0.3340
  184MOL0     C24734   1.513   1.160   7.288 -0.2183 -0.0917 -0.1558
  184MOL0     C24735   1.391   1.214   7.231  0.5217  0.2990  0.3945
  184MOL0     O24736   1.333   1.139   7.142  0.4232 -0.1569  0.6194
  184MOL0     C24737   1.194   1.123   7.138 -0.5040 -0.7983  0.2618
  184MOL0     C24738   1.133   1.170   7.027 -0.0441 -0.3267 -0.0971
  184MOL0     C24739   1.001   1.133   7.005 -1.1627 -0.2939  0.5134
  184MOL0     C24740   0.920   1.071   7.104 -0.7617  0.1366 -0.0764
  184MOL0     O24741   0.788   1.047   7.088  0.2945  0.3897  0.4737
  184MOL0     C24742   0.708   1.113   7.184  0.4543  0.1941 -0.3148
  184MOL0     C24743   0.562   1.126   7.162 -0.0761  0.2204 -0.3232
  184MOL0     C24744   0.537   1.156   7.008  1.2408 -0.1468 -0.1219
  184MOL0     C24745   0.617   1.280   6.955 -0.1064 -0.3152 -0.3101
  184MOL0     C24746   0.554   1.321   6.825 -0.6111  0.3875 -0.1222
  184MOL0     C24747   0.615   1.449   6.770 -0.5929 -0.1380 -0.7625
  184MOL0     C24748   0.556   1.575   6.834  0.2664 -0.1720  0.2661
  184MOL0     C24749   0.642   1.695   6.798 -0.0308  0.3816 -0.5579
  184MOL0    Cl24750   0.598   1.844   6.886 -0.4443 -0.1339  0.3403
  184MOL0     C24751   0.988   1.021   7.218 -0.5796 -0.7451 -0.2628
  184MOL0     C24752   1.125   1.050   7.238 -0.5177  0.1731 -0.5021
  184MOL0     O24753   1.342   1.324   7.269 -0.4626 -0.6865 -0.0244
  184MOL0     C24754   1.551   1.027   7.251  0.0783  0.5971 -0.2661
  184MOL0     C24755   1.673   0.971   7.295 -0.1952 -0.3771  0.1244
  184MOL0     N24756   2.291   1.263   7.326 -0.7431 -0.7613 -0.1579
  184MOL0     N24757   2.407   1.321   7.337 -0.5392 -0.5256  0.1627
  184MOL0     C24758   3.639   1.558   7.849  0.9783  0.3438 -0.1914
  184MOL0     C24759   3.774   1.528   7.857 -0.8584  0.5958 -0.9703
  184MOL0     C24760   4.175   1.266   7.794 -0.0606  0.8509 -0.0228
  184MOL0     C24761   4.236   1.386   7.755  0.1607  0.4492 -0.0707
  184MOL0     C24762   4.376   1.393   7.745  0.4186 -1.2225  0.3527
  184MOL0     C24763   4.450   1.283   7.767 -0.4277  0.0657  0.1371
  184MOL0     O24764   4.589   1.282   7.747  0.6488 -0.0945  0.6763
  184MOL0     C24765   4.667   1.401   7.715 -0.6947 -0.5597  0.0584
  184MOL0     C24766   4.821   1.385   7.728 -0.2384  0.6307 -0.2457
  184MOL0     C24767   4.866   1.284   7.830 -0.9941  0.1170 -0.7371
  184MOL0     C24768   5.016   1.301   7.861  0.4996  0.0072 -0.3384
  184MOL0     C24769   5.064   1.203   7.959  0.6242 -0.4189  1.7739
  184MOL0     C24770   5.103   1.134   8.053  0.3914 -0.5039  0.0116
  184MOL0     C24771   4.388   1.161   7.779  0.7688 -0.3260 -0.5127
  184MOL0     C24772   4.257   1.150   7.801  0.0459  0.7682 -1.1964
  184MOL0     H24773   3.765   1.208   7.753 -0.0325  0.8542 -1.3722
  184MOL0     H24774   3.531   1.249   7.757  0.1691  0.2673 -0.2616
  184MOL0     H24775   3.368   1.416   7.641 -0.6588  0.3265  0.3396
  184MOL0     H24776   3.293   1.327   7.781  1.7028 -0.3863  0.1317
  184MOL0     H24777   3.183   1.574   7.815  0.0143 -0.5884  0.7073
  184MOL0     H24778   3.219   1.580   7.635  1.4688 -1.4805 -0.2666
  184MOL0     H24779   3.099   1.369   7.605  3.1089  0.2173 -0.8329
  184MOL0     H24780   3.051   1.379   7.775  0.7644 -0.5831 -0.8454
  184MOL0     H24781   2.926   1.587   7.736  0.5962  0.8873 -0.6459
  184MOL0     H24782   3.006   1.609   7.585 -3.3771  0.7829 -1.1483
  184MOL0     H24783   2.768   1.548   7.560 -0.7145 -0.3866 -1.7867
  184MOL0     H24784   2.888   1.443   7.481 -0.1833  1.7584 -0.2202
  184MOL0     H24785   2.839   1.262   7.646  0.4697  0.8455  2.7548
  184MOL0     H24786   2.731   1.370   7.740 -2.2161 -0.9726  0.2425
  184MOL0     H24787   2.594   1.225   7.646  0.8422  1.2539  1.8033
  184MOL0     H24788   2.553   1.386   7.589 -2.0820 -1.0551  3.0092
  184MOL0     H24789   2.694   1.167   7.423 -1.8469 -1.0111 -1.4744
  184MOL0     H24790   2.676   1.332   7.369 -0.4558  1.6146  0.4268
  184MOL0     H24791   2.478   1.011   7.447 -1.3007 -0.7867 -0.4266
  184MOL0     H24792   2.139   1.040   7.476  0.7819 -0.7952  0.7957
  184MOL0     H24793   2.098   1.127   7.343  3.0851  2.9239 -0.4948
  184MOL0     H24794   2.218   0.841   7.377  1.6119 -0.0724 -1.3818
  184MOL0     H24795   2.222   0.918   7.222 -2.5995 -1.5183 -2.4249
  184MOL0     H24796   2.020   0.750   7.279 -3.0090  0.6142 -0.5679
  184MOL0     H24797   1.972   0.905   7.205 -0.8136  0.1745 -0.0892
  184MOL0     H24798   1.992   0.843   7.498  2.5919 -1.9473 -1.9630
  184MOL0     H24799   1.855   0.795   7.407  1.2702  0.0059  0.1148
  184MOL0     H24800   1.788   1.230   7.479  0.3843  0.3889 -0.0755
  184MOL0     H24801   1.544   1.438   7.328 -1.6466  0.6465  1.2054
  184MOL0     H24802   1.488   1.371   7.481 -1.7790  2.4281 -2.7608
  184MOL0     H24803   1.657   1.431   7.468 -1.1681  1.5715  0.5131
  184MOL0     H24804   1.193   1.224   6.954  0.4802 -1.2072 -0.3323
  184MOL0     H24805   0.955   1.171   6.914  0.4796  1.2179  0.2476
  184MOL0     H24806   0.719   1.067   7.282  0.7763  2.6946  0.9028
  184MOL0     H24807   0.741   1.217   7.191 -1.1166  0.8149 -1.4609
  184MOL0     H24808   0.511   1.032   7.186  2.4040 -0.6410  1.9639
  184MOL0     H24809   0.528   1.208   7.226 -0.3910 -1.9296  2.4579
  184MOL0     H24810   0.428   1.163   7.000  1.2405 -0.8523 -0.8498
  184MOL0     H24811   0.558   1.071   6.942  2.2318  0.6358 -0.8323
  184MOL0     H24812   0.598   1.355   7.032 -3.5814 -2.1846  0.8679
  184MOL0     H24813   0.723   1.255   6.943 -0.0268  0.0350 -0.3566
  184MOL0     H24814   0.446   1.336   6.830 -0.5005  1.2558 -0.0452
  184MOL0     H24815   0.562   1.239   6.754  1.6315  2.0659 -1.9684
  184MOL0     H24816   0.723   1.444   6.789 -0.5902 -0.2160 -0.7959
  184MOL0     H24817   0.608   1.450   6.661  1.8192  0.1702 -0.9731
  184MOL0     H24818   0.563   1.560   6.942  2.4452  1.5505  0.4358
  184MOL0     H24819   0.453   1.602   6.807  0.7546  1.3979 -0.1604
  184MOL0     H24820   0.643   1.726   6.693 -1.3792  0.4736 -0.5560
  184MOL0     H24821   0.742   1.656   6.821 -0.7492 -2.6445 -1.9843
  184MOL0     H24822   0.938   0.967   7.298 -2.7996 -2.3578 -2.6026
  184MOL0     H24823   1.177   1.022   7.329 -1.3251 -0.0332 -0.0990
  184MOL0     H24824   1.482   0.977   7.183  2.1063 -3.7652  0.5413
  184MOL0     H24825   1.706   0.872   7.267  1.0614  0.0363  0.0903
  184MOL0     H24826   3.613   1.663   7.855 -0.1300  0.2248 -2.0488
  184MOL0     H24827   3.835   1.616   7.873  2.8003 -1.6127 -1.7944
  184MOL0     H24828   4.174   1.473   7.739  1.0393  0.9278 -0.9810
  184MOL0     H24829   4.397   1.495   7.714 -0.6585 -0.9978  0.2908
  184MOL0     H24830   4.649   1.437   7.614  1.9896 -1.9633 -1.0232
  184MOL0     H24831   4.638   1.478   7.788  2.1059  1.7582 -1.1037
  184MOL0     H24832   4.867   1.485   7.737  2.1083 -0.5206  2.0764
  184MOL0     H24833   4.846   1.348   7.629  0.3809 -0.3884  0.2727
  184MOL0     H24834   4.856   1.185   7.784 -1.3328  0.3207 -1.0956
  184MOL0     H24835   4.800   1.285   7.917 -1.8016 -0.3418 -1.3349
  184MOL0     H24836   5.043   1.399   7.902  0.1498 -0.1124  0.1874
  184MOL0     H24837   5.060   1.298   7.761 -1.7560 -1.1036 -1.3778
  184MOL0     H24838   5.130   1.062   8.126  1.1159 -0.1780  0.0708
  184MOL0     H24839   4.455   1.076   7.779 -0.8196 -1.6223  0.3873
  184MOL0     H24840   4.206   1.055   7.815 -0.6473  1.4540  1.6218
  185MOL0     O24841   1.408   0.289   0.102  0.6260  0.0808  0.0137
  185MOL0     C24842   1.481   0.387   0.106  0.2519  0.3769  0.1334
  185MOL0     O24843   1.455   0.497   0.173  0.3653 -0.7594  0.0057
  185MOL0     C24844   1.329   0.510   0.234  0.1592 -0.2266 -0.1902
  185MOL0     C24845   1.251   0.617   0.195  0.3473  0.2336  0.0319
  185MOL0     C24846   1.122   0.641   0.250  1.2965 -0.9744  0.2471
  185MOL0     C24847   1.065   0.559   0.353  0.3314 -0.8733  0.0848
  185MOL0     O24848   0.936   0.577   0.396 -0.5702 -0.4224 -1.0549
  185MOL0     C24849   0.878   0.460   0.462 -0.2901 -0.3591  0.4374
  185MOL0     C24850   0.722   0.463   0.452  0.0719  0.1191 -0.0788
  185MOL0     C24851   0.662   0.583   0.524  0.4503 -0.2188 -0.2670
  185MOL0     C24852   0.514   0.614   0.494 -0.6606 -0.2240 -0.1102
  185MOL0     C24853   0.409   0.517   0.542  0.2778 -0.0172  0.3721
  185MOL0     C24854   0.427   0.469   0.687 -0.8601  0.1403 -0.3602
  185MOL0     C24855   0.330   0.362   0.739  0.8652 -0.5233  0.9416
  185MOL0     C24856   0.358   0.327   0.887  0.5685 -0.7563 -0.0318
  185MOL0     N24857   0.499   0.296   0.905  0.2056 -0.2551 -0.7016
  185MOL0     C24858   0.584   0.377   0.979 -0.6697 -0.1316  0.0126
  185MOL0     C24859   0.685   0.296   1.011 -0.6618 -0.3624 -0.3613
  185MOL0     C24860   0.803   0.338   1.103  0.1043  0.9247 -0.0586
  185MOL0     C24861   0.934   0.330   1.027  0.4376 -0.6455  0.1639
  185MOL0     C24862   0.935   0.427   0.909  0.5606 -0.5616  0.3170
  185MOL0     C24863   1.077   0.459   0.874 -0.4470 -0.3561  1.0735
  185MOL0     O24864   1.145   0.332   0.847  0.6010  1.1921  0.7057
  185MOL0     C24865   1.262   0.335   0.783 -0.4252 -0.2448 -0.2227
  185MOL0     C24866   1.310   0.223   0.707  0.4788 -1.4679 -0.3521
  185MOL0     C24867   1.428   0.233   0.633  0.2210  0.8842 -0.1469
  185MOL0     C24868   1.465   0.099   0.564  0.8071  0.7809  0.2848
  185MOL0     C24869   1.508   0.341   0.644  0.6539  0.1846  0.0013
  185MOL0     C24870   1.638   0.351   0.580 -0.0765 -0.1900 -0.2409
  185MOL0     O24871   1.720   0.238   0.586  0.1422 -0.1230 -0.5407
  185MOL0     C24872   1.831   0.245   0.518 -0.5133  0.6490 -0.3155
  185MOL0     C24873   1.946   0.275   0.587 -0.5848 -0.0122 -0.0836
  185MOL0     C24874   2.068   0.302   0.527 -0.7024 -0.0066 -0.3253
  185MOL0     C24875   2.079   0.285   0.389  0.1223  0.4438 -0.4402
  185MOL0     O24876   2.191   0.263   0.320 -0.8060 -0.0825 -1.1314
  185MOL0     C24877   2.321   0.270   0.375 -0.5062 -0.0503  0.2733
  185MOL0     C24878   2.424   0.267   0.265  0.0976 -0.0337 -0.6217
  185MOL0     C24879   2.569   0.283   0.330 -0.1999  0.3589 -0.0944
  185MOL0     C24880   2.669   0.364   0.247  0.3742 -0.4046 -0.1684
  185MOL0     C24881   2.819   0.363   0.287 -0.3834  0.0101 -0.4766
  185MOL0     C24882   2.904   0.459   0.197 -0.5972  0.1069 -0.7377
  185MOL0     C24883   3.049   0.478   0.243  0.4136 -0.1572  0.4878
  185MOL0     C24884   3.131   0.576   0.161  0.1610 -0.6558  0.2776
  185MOL0    Cl24885   3.061   0.743   0.171 -0.2913 -0.4612  0.3688
  185MOL0     C24886   1.961   0.252   0.310 -0.0937  0.2967 -0.7124
  185MOL0     C24887   1.840   0.227   0.379  0.0409 -0.9856  0.1202
  185MOL0     O24888   1.668   0.465   0.536  0.3871  0.1766 -0.5704
  185MOL0     C24889   1.469   0.450   0.720  0.5854 -0.0977 -0.4635
  185MOL0     C24890   1.347   0.445   0.794  0.9288  0.8647  0.6780
  185MOL0     N24891   0.669   0.174   0.945 -0.8409 -0.3073  0.0851
  185MOL0     N24892   0.552   0.171   0.891 -0.5079 -0.7381 -0.2479
  185MOL0     C24893   1.151   0.459   0.401  0.7312 -0.8342  0.6668
  185MOL0     C24894   1.276   0.430   0.336  0.0288  0.7510  0.2519
  185MOL0     C24895   1.620   0.370   0.047  0.9750 -0.7051 -0.4425
  185MOL0     C24896   1.721   0.448   0.093  0.4950 -0.6046  0.2605
  185MOL0     C24897   1.843   0.443   0.026 -0.3864 -0.1903 -0.1678
  185MOL0     C24898   1.872   0.346  -0.074  0.8276  0.2300  0.5621
  185MOL0     O24899   1.987   0.323  -0.141  0.2485 -0.0493 -0.6756
  185MOL0     C24900   2.106   0.366  -0.066 -0.3305 -0.5206 -0.3952
  185MOL0     C24901   2.219   0.333  -0.172  0.5458 -0.6036 -0.2840
  185MOL0     C24902   2.361   0.350  -0.115 -1.0119 -0.0828 -0.7340
  185MOL0     C24903   2.467   0.297  -0.210 -0.7713  0.6953  0.1015
  185MOL0     C24904   2.600   0.352  -0.173 -0.9431 -0.0277  0.4962
  185MOL0     C24905   2.712   0.384  -0.147  0.2261 -1.2866 -0.0745
  185MOL0     C24906   1.768   0.257  -0.097 -0.5322  1.3697  1.4918
  185MOL0     C24907   1.643   0.277  -0.053  0.6279  1.1909  0.1597
  185MOL0     H24908   1.282   0.678   0.110 -0.1493  1.5449  0.7482
  185MOL0     H24909   1.059   0.723   0.215  0.7186 -0.3134  2.6640
  185MOL0     H24910   0.914   0.369   0.414  0.3062  1.4388 -2.8771
  185MOL0     H24911   0.904   0.466   0.568  1.5845 -0.3323 -0.0002
  185MOL0     H24912   0.695   0.466   0.346 -0.2957  2.2297  0.0310
  185MOL0     H24913   0.678   0.370   0.490 -1.4057  0.8614  0.0965
  185MOL0     H24914   0.666   0.572   0.633  1.6144 -0.2474 -0.3017
  185MOL0     H24915   0.723   0.671   0.501  0.8525  0.0192  1.5376
  185MOL0     H24916   0.494   0.713   0.535  1.8511  0.1196  0.4564
  185MOL0     H24917   0.510   0.633   0.386  1.1058  3.8080  0.3403
  185MOL0     H24918   0.312   0.567   0.531 -0.9259 -2.2312  0.4062
  185MOL0     H24919   0.424   0.435   0.471 -0.0546  0.1545  0.1004
  185MOL0     H24920   0.529   0.434   0.705 -0.3821  1.9778  0.7177
  185MOL0     H24921   0.418   0.544   0.766 -3.0419 -0.8719  0.4351
  185MOL0     H24922   0.232   0.409   0.730  1.8711  1.3782 -2.1262
  185MOL0     H24923   0.337   0.272   0.678  0.3834 -0.6596  1.0907
  185MOL0     H24924   0.299   0.243   0.924  1.8609 -1.7482 -0.1697
  185MOL0     H24925   0.332   0.412   0.950  0.9948 -0.0085 -0.8407
  185MOL0     H24926   0.564   0.479   1.011 -0.9490  0.1366 -0.9776
  185MOL0     H24927   0.797   0.440   1.140  1.4312  1.4339 -1.1501
  185MOL0     H24928   0.805   0.263   1.183  0.3664  0.6057 -0.3604
  185MOL0     H24929   0.944   0.230   0.983  0.7511  0.4087 -2.3048
  185MOL0     H24930   1.016   0.355   1.095 -0.2297 -2.2019  1.6146
  185MOL0     H24931   0.874   0.516   0.930  0.0304 -0.0449 -2.8476
  185MOL0     H24932   0.894   0.378   0.821 -0.1908 -1.4972  1.1700
  185MOL0     H24933   1.120   0.508   0.962 -2.4830  2.1343  0.8108
  185MOL0     H24934   1.077   0.534   0.795  4.2328 -0.3031  0.8399
  185MOL0     H24935   1.254   0.130   0.710 -0.3498 -0.9826  2.4341
  185MOL0     H24936   1.388   0.080   0.488  1.6275 -0.5807 -0.2570
  185MOL0     H24937   1.560   0.104   0.510 -0.6100 -2.0822 -2.8795
  185MOL0     H24938   1.473   0.016   0.635  0.0423 -0.5448 -1.1231
  185MOL0     H24939   1.933   0.294   0.693 -3.8671 -0.9727 -0.2040
  185MOL0     H24940   2.156   0.335   0.582  1.5278  1.8794 -4.5370
  185MOL0     H24941   2.339   0.363   0.429 -2.6148  1.2433 -1.0990
  185MOL0     H24942   2.344   0.181   0.435 -2.0892  0.8964  2.4256
  185MOL0     H24943   2.428   0.180   0.199 -0.1671  0.6273 -1.5211
  185MOL0     H24944   2.413   0.351   0.196  0.0531  0.4091 -0.0902
  185MOL0     H24945   2.614   0.184   0.345 -2.6352 -1.1173 -1.8424
  185MOL0     H24946   2.562   0.339   0.424 -3.5393 -0.4078  0.2304
  185MOL0     H24947   2.661   0.325   0.145  2.4272 -1.2757 -0.0462
  185MOL0     H24948   2.649   0.471   0.247  0.6617 -0.3443 -0.7787
  185MOL0     H24949   2.857   0.260   0.282 -1.1897 -0.3212 -0.0152
  185MOL0     H24950   2.823   0.394   0.392  3.3502 -0.3255 -0.3738
  185MOL0     H24951   2.917   0.417   0.097  1.0381 -2.8153  0.5568
  185MOL0     H24952   2.863   0.560   0.199 -0.7105  0.0632 -0.8321
  185MOL0     H24953   3.095   0.379   0.230  0.5219  0.0837 -1.2693
  185MOL0     H24954   3.054   0.510   0.347 -1.7548  0.7787  0.3512
  185MOL0     H24955   3.148   0.539   0.060  0.4454 -0.2009  0.1549
  185MOL0     H24956   3.231   0.579   0.204  0.0829 -1.5932  0.5512
  185MOL0     H24957   1.978   0.245   0.203 -0.2274  0.1885 -0.7267
  185MOL0     H24958   1.748   0.213   0.322 -0.1824 -1.1500  0.5191
  185MOL0     H24959   1.529   0.540   0.708 -1.1745  1.0051 -1.3556
  185MOL0     H24960   1.315   0.532   0.852 -2.4963  1.4764 -1.8453
  185MOL0     H24961   1.129   0.398   0.488 -4.3938  0.3094  0.4674
  185MOL0     H24962   1.330   0.342   0.368 -1.4856  0.0870  1.0428
  185MOL0     H24963   1.710   0.521   0.172 -1.9059 -0.6968  0.0851
  185MOL0     H24964   1.925   0.503   0.063 -0.2434 -1.0435  0.9418
  185MOL0     H24965   2.104   0.474  -0.048 -0.2958 -0.7566  1.1046
  185MOL0     H24966   2.125   0.318   0.030  3.3704  0.6245 -0.3921
  185MOL0     H24967   2.222   0.404  -0.255  3.5856 -0.2089  0.0358
  185MOL0     H24968   2.205   0.230  -0.206 -0.7187 -0.6213  0.2608
  185MOL0     H24969   2.370   0.290  -0.024 -0.1938  0.0407 -0.7218
  185MOL0     H24970   2.373   0.456  -0.091 -1.4969 -0.5503  1.9138
  185MOL0     H24971   2.435   0.328  -0.310 -3.6159  0.6515  0.8967
  185MOL0     H24972   2.465   0.188  -0.219 -0.0563  0.7003 -0.1918
  185MOL0     H24973   2.802   0.424  -0.106  0.2011 -0.1056 -1.1014
  185MOL0     H24974   1.770   0.187  -0.180 -1.1888  1.8242  1.0814
  185MOL0     H24975   1.559   0.222  -0.095  1.7713  0.5785 -1.4050
  186MOL0     O24976   6.845   3.420   1.850 -0.4861 -0.7973  0.0223
  186MOL0     C24977   6.853   3.520   1.917 -0.3246 -0.8939  0.1386
  186MOL0     O24978   6.774   3.635   1.913 -0.0830 -0.6563  0.3089
  186MOL0     C24979   6.682   3.639   1.823  0.3190  0.5394 -0.9987
  186MOL0     C24980   6.708   3.640   1.682  0.0188  0.2688  0.0214
  186MOL0     C24981   6.602   3.660   1.596 -0.0128 -0.1915  0.2912
  186MOL0     C24982   6.472   3.661   1.634  0.1062  0.7846  0.3929
  186MOL0     O24983   6.368   3.698   1.561 -0.0685 -0.1517 -0.3067
  186MOL0     C24984   6.383   3.666   1.430 -0.4037  0.4565 -0.0821
  186MOL0     C24985   6.241   3.658   1.382 -0.6623 -0.5215 -0.3998
  186MOL0     C24986   6.181   3.797   1.368 -0.4345  0.7649  0.2830
  186MOL0     C24987   6.031   3.789   1.368  0.2423 -0.1246 -0.5637
  186MOL0     C24988   5.965   3.917   1.420  0.8327  0.2550  0.1171
  186MOL0     C24989   5.814   3.889   1.426 -0.5508  0.5845 -0.1187
  186MOL0     C24990   5.721   4.010   1.446  0.1219 -0.0563  0.5981
  186MOL0     C24991   5.662   4.051   1.311 -0.7006  0.1126 -0.0939
  186MOL0     N24992   5.621   4.195   1.324  0.3726  0.1599 -0.2058
  186MOL0     C24993   5.524   4.239   1.414  0.2307  0.7007  0.2263
  186MOL0     C24994   5.501   4.366   1.372 -0.0798 -0.0626  0.4546
  186MOL0     C24995   5.403   4.468   1.418  0.0530  0.9811  0.0072
  186MOL0     C24996   5.377   4.472   1.573  0.5876 -0.0979  0.7303
  186MOL0     C24997   5.273   4.577   1.597 -0.0106 -0.0176 -0.3973
  186MOL0     C24998   5.229   4.586   1.744  1.1423 -0.1226 -0.1944
  186MOL0     O24999   5.163   4.464   1.778 -0.6924 -1.0707 -0.2034
  186MOL0     C25000   5.028   4.460   1.772  0.3042  0.4897  0.3952
  186MOL0     C25001   4.972   4.333   1.789  0.7612 -0.0381 -0.7977
  186MOL0     C25002   4.840   4.305   1.796  0.9472 -0.0953  0.0527
  186MOL0     C25003   4.818   4.154   1.815  0.2192 -0.5561 -0.0657
  186MOL0     C25004   4.744   4.410   1.783  0.2914 -0.4615  0.6372
  186MOL0     C25005   4.602   4.410   1.808  0.1043  0.1485  0.5845
  186MOL0     O25006   4.569   4.318   1.897  0.2584  0.2282 -0.2504
  186MOL0     C25007   4.434   4.302   1.909  0.3802  0.2531 -0.8353
  186MOL0     C25008   4.377   4.404   1.987  0.6117  0.2955 -0.0733
  186MOL0     C25009   4.241   4.402   2.031 -0.4324 -0.1869  0.5618
  186MOL0     C25010   4.161   4.293   1.995 -0.4818 -0.0033  0.1973
  186MOL0     O25011   4.028   4.276   2.037 -0.0277  0.3554 -0.1767
  186MOL0     C25012   3.982   4.350   2.149 -0.2939  0.1024 -0.1518
  186MOL0     C25013   3.930   4.490   2.099  0.2159  0.0402 -0.0848
  186MOL0     C25014   3.817   4.484   1.999  0.2853 -0.0449 -1.0244
  186MOL0     C25015   3.683   4.457   2.072  0.0228  0.7368 -0.2515
  186MOL0     C25016   3.570   4.487   1.979  0.3200  0.5746 -0.6983
  186MOL0     C25017   3.430   4.506   2.044 -0.2529 -0.0702 -0.3057
  186MOL0     C25018   3.379   4.392   2.130 -0.2494 -1.1833 -0.4031
  186MOL0     C25019   3.344   4.279   2.049  0.3734 -0.3525 -0.2114
  186MOL0    Cl25020   3.234   4.182   2.140 -0.5563  0.0731  0.2909
  186MOL0     C25021   4.220   4.197   1.912 -0.2285  0.1099  0.3765
  186MOL0     C25022   4.351   4.201   1.860 -0.0022 -0.4521 -0.0242
  186MOL0     O25023   4.524   4.483   1.743  0.3328 -0.3716  0.2550
  186MOL0     C25024   4.799   4.538   1.753  0.2284  0.1586  0.3239
  186MOL0     C25025   4.935   4.557   1.739 -0.1417 -1.0995 -0.5948
  186MOL0     N25026   5.592   4.397   1.273 -0.5318  0.3152 -0.5880
  186MOL0     N25027   5.670   4.293   1.250 -0.0530 -0.2573  0.2854
  186MOL0     C25028   6.443   3.655   1.771  0.1953  0.3117  0.0187
  186MOL0     C25029   6.548   3.648   1.864 -0.2889  0.6617  0.1640
  186MOL0     C25030   6.964   3.527   2.019 -0.0908 -0.8252  0.6232
  186MOL0     C25031   6.967   3.647   2.100  0.4488 -0.4217  0.9024
  186MOL0     C25032   7.084   3.675   2.177  0.2694  1.0923 -0.6043
  186MOL0     C25033   7.191   3.583   2.176 -0.2381 -0.0795  0.1750
  186MOL0     O25034   7.300   3.584   2.248 -0.3703  0.0078 -0.1041
  186MOL0     C25035   7.346   3.710   2.316  0.2542  0.2050  0.4169
  186MOL0     C25036   7.460   3.674   2.400 -0.4425  0.3786 -0.7655
  186MOL0     C25037   7.597   3.716   2.331 -0.1096  0.0893 -0.5070
  186MOL0     C25038   7.625   3.643   2.196 -0.0804  0.0095  0.1168
  186MOL0     C25039   7.757   3.691   2.151 -0.0928  0.2542 -0.4025
  186MOL0     C25040   7.867   3.732   2.132 -0.3565 -0.8872  0.5651
  186MOL0     C25041   7.182   3.467   2.100 -0.4292  0.4825 -0.1024
  186MOL0     C25042   7.075   3.443   2.025  0.5258  0.6849 -0.3386
  186MOL0     H25043   6.809   3.633   1.644  0.7018  0.7742  1.6361
  186MOL0     H25044   6.609   3.665   1.488 -1.0099  0.0642  0.2329
  186MOL0     H25045   6.438   3.742   1.374 -1.4478  2.1381  1.1190
  186MOL0     H25046   6.424   3.566   1.408  0.5754  1.2163 -1.9275
  186MOL0     H25047   6.248   3.611   1.283  2.8788  0.9355 -0.9938
  186MOL0     H25048   6.183   3.590   1.444 -3.7229  1.4209 -0.9446
  186MOL0     H25049   6.217   3.882   1.428 -0.1656  0.6691  0.2631
  186MOL0     H25050   6.215   3.829   1.269  0.3132 -4.1088 -1.3077
  186MOL0     H25051   5.985   3.779   1.269 -0.7585 -2.5631  0.0547
  186MOL0     H25052   5.999   3.706   1.431 -1.3485  0.1530 -0.9620
  186MOL0     H25053   5.997   3.941   1.521 -1.4965 -0.7975  1.2003
  186MOL0     H25054   5.992   4.001   1.355 -1.4800  2.0053  1.2646
  186MOL0     H25055   5.795   3.847   1.327  3.8422  0.8215 -1.2572
  186MOL0     H25056   5.796   3.810   1.500  1.3813  0.9302  0.7938
  186MOL0     H25057   5.635   3.989   1.511 -1.1227  0.5809 -0.7949
  186MOL0     H25058   5.771   4.093   1.497  1.8265 -1.2656  1.0076
  186MOL0     H25059   5.583   3.988   1.269 -2.7275  1.2604  1.8266
  186MOL0     H25060   5.741   4.043   1.235  1.0176 -0.7949  1.6772
  186MOL0     H25061   5.480   4.189   1.500  1.7048  1.5824  1.5392
  186MOL0     H25062   5.430   4.571   1.391 -0.2439  1.6234  2.0232
  186MOL0     H25063   5.311   4.450   1.360  0.9117  1.5009 -1.5765
  186MOL0     H25064   5.472   4.500   1.618  0.3046  4.2762 -0.9625
  186MOL0     H25065   5.346   4.377   1.619  0.7079  0.9520  3.1188
  186MOL0     H25066   5.187   4.575   1.530 -0.8215 -2.0622  0.6437
  186MOL0     H25067   5.326   4.670   1.574  1.5421 -0.8519 -0.3500
  186MOL0     H25068   5.180   4.680   1.771  0.5274 -0.7402  0.9562
  186MOL0     H25069   5.326   4.586   1.795  1.5663  0.9757 -0.9605
  186MOL0     H25070   5.042   4.249   1.793  0.8472  0.0757  0.5906
  186MOL0     H25071   4.896   4.121   1.884 -1.0040 -0.5241  1.3984
  186MOL0     H25072   4.724   4.125   1.864  0.2101 -2.4719 -1.1117
  186MOL0     H25073   4.817   4.097   1.722  0.0581  0.5016 -0.7361
  186MOL0     H25074   4.438   4.478   2.038 -1.5587  2.1668  0.0104
  186MOL0     H25075   4.209   4.470   2.110  1.8435 -0.5376  1.8467
  186MOL0     H25076   3.902   4.289   2.191 -1.8128  1.6907 -0.6204
  186MOL0     H25077   4.058   4.357   2.227 -0.2383 -2.0761  0.0652
  186MOL0     H25078   3.903   4.540   2.192 -1.4066 -1.1412  0.1123
  186MOL0     H25079   4.015   4.545   2.056 -0.5918  1.2974 -0.1440
  186MOL0     H25080   3.824   4.415   1.915  1.5518 -0.2095 -0.7947
  186MOL0     H25081   3.819   4.584   1.956  1.2830 -0.4543 -1.9674
  186MOL0     H25082   3.677   4.354   2.110  1.6577 -0.0635 -1.9925
  186MOL0     H25083   3.681   4.522   2.160  1.6371  1.1345 -0.4724
  186MOL0     H25084   3.561   4.402   1.911 -1.2506 -0.8985  1.2364
  186MOL0     H25085   3.593   4.582   1.930 -0.2525  1.7155  1.1444
  186MOL0     H25086   3.437   4.598   2.102 -0.7126  1.7965 -2.9866
  186MOL0     H25087   3.351   4.525   1.970 -1.7728 -1.4136  0.9128
  186MOL0     H25088   3.293   4.428   2.186  1.3326  1.0119  0.7938
  186MOL0     H25089   3.452   4.363   2.207 -1.5789 -2.7497  0.3260
  186MOL0     H25090   3.439   4.238   2.013  1.0771  2.3647 -1.7427
  186MOL0     H25091   3.298   4.308   1.954 -1.8938  0.9792  1.1950
  186MOL0     H25092   4.154   4.118   1.876 -0.2702  0.7674 -1.0282
  186MOL0     H25093   4.394   4.123   1.798  0.7532 -1.2545  1.4634
  186MOL0     H25094   4.733   4.624   1.743  0.4637  0.0478 -5.3616
  186MOL0     H25095   4.971   4.657   1.720  0.4712 -1.1941  0.0219
  186MOL0     H25096   6.342   3.653   1.811  0.9495  0.9864  2.0662
  186MOL0     H25097   6.525   3.675   1.967 -0.9242  0.6216  0.0397
  186MOL0     H25098   6.896   3.730   2.097  2.4984  1.4180 -1.7827
  186MOL0     H25099   7.089   3.759   2.246 -0.4579 -0.7914  1.8859
  186MOL0     H25100   7.370   3.788   2.244  1.3751 -1.6597 -1.3216
  186MOL0     H25101   7.261   3.754   2.368 -0.6879 -0.6139 -0.3899
  186MOL0     H25102   7.461   3.567   2.425 -0.2404  1.2336  3.6171
  186MOL0     H25103   7.461   3.726   2.496  0.6423 -0.5507 -0.2448
  186MOL0     H25104   7.670   3.679   2.404 -0.7079 -2.4599 -1.1201
  186MOL0     H25105   7.613   3.822   2.310  0.8406  0.0269 -0.1282
  186MOL0     H25106   7.543   3.668   2.129 -1.0860  2.8801  2.2316
  186MOL0     H25107   7.631   3.534   2.198  3.4773  0.0415 -0.7775
  186MOL0     H25108   7.966   3.771   2.122 -1.0616  0.3565 -3.1049
  186MOL0     H25109   7.266   3.398   2.102 -1.9347 -1.5091  3.0427
  186MOL0     H25110   7.087   3.360   1.956 -1.2670  0.8786 -0.9378
  187MOL0     O25111  10.637   2.486  10.476 -0.1073  0.7570  0.1167
  187MOL0     C25112  10.687   2.445  10.368  0.4181  0.4543 -0.2550
  187MOL0     O25113  10.620   2.371  10.270 -0.0665  0.2067 -0.0422
  187MOL0     C25114  10.504   2.312  10.312 -0.1526  0.9075  0.3272
  187MOL0     C25115  10.514   2.222  10.420 -0.3879 -0.1607  0.4326
  187MOL0     C25116  10.402   2.152  10.467  0.6626  0.1683 -0.1111
  187MOL0     C25117  10.275   2.187  10.414  0.0258  0.0747  0.0068
  187MOL0     O25118  10.157   2.123  10.415  0.0370 -0.1418  0.0044
  187MOL0     C25119  10.164   1.988  10.457 -0.1008 -0.1694 -0.4788
  187MOL0     C25120  10.030   1.918  10.450  0.6813  0.0607  0.7916
  187MOL0     C25121   9.913   1.992  10.375 -0.0909  0.6124  0.1086
  187MOL0     C25122   9.796   1.904  10.345  0.3333  0.4452  0.5438
  187MOL0     C25123   9.679   1.991  10.307  0.0416 -0.6619 -0.3030
  187MOL0     C25124   9.574   1.897  10.253  0.6650 -0.1170 -0.0889
  187MOL0     C25125   9.452   1.982  10.222  0.6265  0.4833 -0.4305
  187MOL0     C25126   9.370   2.015  10.346 -0.1061 -0.5424 -0.1132
  187MOL0     N25127   9.263   2.110  10.308 -0.3961  0.6773 -0.3584
  187MOL0     C25128   9.266   2.242  10.336 -0.4127 -0.4345 -0.1329
  187MOL0     C25129   9.135   2.275  10.350  0.2594 -0.3222  0.2922
  187MOL0     C25130   9.094   2.415  10.402  0.0610  0.6976 -0.5411
  187MOL0     C25131   8.976   2.465  10.321  0.2463  0.2568  0.1303
  187MOL0     C25132   9.020   2.561  10.207 -0.0086 -0.5720 -0.5373
  187MOL0     C25133   8.907   2.625  10.132 -0.6401  0.4934  0.4712
  187MOL0     O25134   8.831   2.684  10.229 -0.0138 -0.3144  0.1281
  187MOL0     C25135   8.705   2.714  10.194 -0.7775 -0.5348  0.4610
  187MOL0     C25136   8.662   2.706  10.051 -0.2702 -0.1468 -0.6126
  187MOL0     C25137   8.533   2.746  10.023 -0.3633  0.1182  0.1246
  187MOL0     C25138   8.484   2.749   9.880 -0.0824 -0.1649  0.0725
  187MOL0     C25139   8.443   2.794  10.131  0.1837 -0.7801  0.5605
  187MOL0     C25140   8.300   2.819  10.112 -0.6790  0.0464 -1.0610
  187MOL0     O25141   8.240   2.901  10.205  0.3717 -0.1900 -0.0141
  187MOL0     C25142   8.123   2.956  10.172  0.1885  0.1851 -0.0188
  187MOL0     C25143   8.036   2.981  10.282 -0.3207 -1.0419 -0.1303
  187MOL0     C25144   7.910   3.029  10.252 -1.1561 -0.3296 -0.4726
  187MOL0     C25145   7.877   3.074  10.127 -0.0983 -0.4436 -0.0016
  187MOL0     O25146   7.758   3.130  10.097 -0.1151 -0.4839  0.9223
  187MOL0     C25147   7.693   3.074   9.979 -0.2349 -0.1712 -0.3225
  187MOL0     C25148   7.542   3.086  10.005  0.0690 -0.2954 -0.3153
  187MOL0     C25149   7.450   3.053   9.885  0.6750  0.1786 -0.0819
  187MOL0     C25150   7.303   3.029   9.915  0.1202  0.3861  1.1010
  187MOL0     C25151   7.215   3.016   9.784 -0.5765 -0.4597 -0.1163
  187MOL0     C25152   7.062   2.987   9.819  0.1836 -0.8102 -0.0781
  187MOL0     C25153   6.982   2.987   9.684 -0.7737  0.5480  0.4363
  187MOL0     C25154   6.826   3.005   9.712 -0.8072  0.2374  0.1707
  187MOL0    Cl25155   6.738   3.010   9.549  0.1364 -0.2417  0.3447
  187MOL0     C25156   7.969   3.060  10.028 -0.0335 -0.3372 -0.3759
  187MOL0     C25157   8.092   3.009  10.050  0.6749 -0.1495  0.8236
  187MOL0     O25158   8.244   2.770  10.021  0.1541  0.0010 -0.2287
  187MOL0     C25159   8.497   2.823  10.255 -0.3380  0.6465 -0.0280
  187MOL0     C25160   8.619   2.767  10.290  0.4229  0.5664  1.1610
  187MOL0     N25161   9.056   2.167  10.324  0.1341 -0.3207 -0.1660
  187MOL0     N25162   9.135   2.069  10.301  0.6185  0.0877  0.4664
  187MOL0     C25163  10.272   2.272  10.309  0.6749 -0.3141  0.0276
  187MOL0     C25164  10.382   2.335  10.254  0.3358  0.6067  0.1212
  187MOL0     C25165  10.834   2.463  10.352 -0.6410  0.2467 -0.4047
  187MOL0     C25166  10.908   2.524  10.462  0.3949  0.2293  0.3061
  187MOL0     C25167  11.053   2.526  10.457  0.2013 -0.2738 -0.3058
  187MOL0     C25168  11.125   2.483  10.345 -0.4607 -0.1793 -0.8877
  187MOL0     O25169  11.262   2.492  10.325 -0.1161  0.1688 -0.6951
  187MOL0     C25170  11.342   2.512  10.436 -0.3123  0.0270 -0.8510
  187MOL0     C25171  11.485   2.515  10.385 -0.5354 -0.5546 -0.2582
  187MOL0     C25172  11.541   2.655  10.334 -0.0422 -0.3928  0.1167
  187MOL0     C25173  11.691   2.677  10.322  0.6390 -0.9179  0.9238
  187MOL0     C25174  11.762   2.566  10.253  1.5587 -0.6442 -0.3135
  187MOL0     C25175  11.827   2.472  10.210 -0.0958 -0.3126  0.3594
  187MOL0     C25176  11.049   2.438  10.238  0.0278 -0.1906  0.3750
  187MOL0     C25177  10.902   2.433  10.235  0.2937 -0.9065 -0.0407
  187MOL0     H25178  10.606   2.193  10.470 -0.9755  1.2221  2.3982
  187MOL0     H25179  10.428   2.083  10.547 -0.4752 -1.6978 -1.2669
  187MOL0     H25180  10.246   1.956  10.393  1.4538 -0.6298  1.6571
  187MOL0     H25181  10.188   1.983  10.564 -2.3578  0.7980  0.1331
  187MOL0     H25182  10.050   1.830  10.388 -1.6912 -0.4064  0.5659
  187MOL0     H25183   9.987   1.875  10.541 -3.6777  1.7325 -0.2229
  187MOL0     H25184   9.875   2.076  10.434 -1.8999  1.0735 -1.5978
  187MOL0     H25185   9.949   2.029  10.278  0.0858 -0.0101 -0.0672
  187MOL0     H25186   9.825   1.844  10.259  0.7644  1.6103 -0.1377
  187MOL0     H25187   9.767   1.845  10.433 -0.1118  4.6843  3.5380
  187MOL0     H25188   9.644   2.038  10.399 -2.9083 -1.0040 -1.1277
  187MOL0     H25189   9.716   2.071  10.242  3.7796 -2.0922 -0.1617
  187MOL0     H25190   9.609   1.838  10.168 -0.2241 -1.0947  0.2053
  187MOL0     H25191   9.552   1.825  10.331  1.3906  0.3701  0.5776
  187MOL0     H25192   9.474   2.081  10.182 -0.8979  1.0896  0.1531
  187MOL0     H25193   9.396   1.931  10.143  2.6270 -1.3211 -0.7895
  187MOL0     H25194   9.431   2.047  10.431  3.2466 -0.0229 -2.5331
  187MOL0     H25195   9.329   1.923  10.389  0.3494  0.3178  2.3791
  187MOL0     H25196   9.355   2.304  10.341  0.0723 -1.1112 -0.1937
  187MOL0     H25197   9.076   2.407  10.510 -0.8458 -1.5984 -0.8019
  187MOL0     H25198   9.183   2.477  10.387 -0.0627  0.9865 -0.0891
  187MOL0     H25199   8.908   2.506  10.396  0.1009 -3.4730  2.2892
  187MOL0     H25200   8.908   2.385  10.290 -0.4850 -0.2625  2.8129
  187MOL0     H25201   9.087   2.509  10.138  1.0534  0.2644 -0.1556
  187MOL0     H25202   9.071   2.641  10.260  0.1461 -2.7712  2.9288
  187MOL0     H25203   8.864   2.542  10.075 -0.1334  0.9907 -0.6599
  187MOL0     H25204   8.945   2.693  10.056  0.5529 -0.4487  0.1742
  187MOL0     H25205   8.724   2.660   9.974 -1.2395  0.1262 -1.5813
  187MOL0     H25206   8.440   2.653   9.852  0.6413 -0.0684 -1.5086
  187MOL0     H25207   8.410   2.827   9.861  1.1234  1.3979  1.4611
  187MOL0     H25208   8.567   2.775   9.815 -0.6283  0.0410 -0.5503
  187MOL0     H25209   8.070   2.947  10.380  0.1950 -2.1288 -0.6669
  187MOL0     H25210   7.830   3.033  10.326 -2.0770 -2.4507 -1.2833
  187MOL0     H25211   7.721   3.135   9.893  0.4223  0.2131  0.1597
  187MOL0     H25212   7.709   2.970   9.949  1.6087 -0.1405  0.4673
  187MOL0     H25213   7.514   3.024  10.091  1.1705  0.9869  1.0136
  187MOL0     H25214   7.535   3.190  10.038  2.4003 -0.3425  0.5175
  187MOL0     H25215   7.496   2.964   9.842 -1.2043 -1.6304  1.4761
  187MOL0     H25216   7.458   3.133   9.811  0.2877 -0.8564 -1.2780
  187MOL0     H25217   7.303   2.928   9.959  2.5426 -1.6775 -2.9695
  187MOL0     H25218   7.271   3.105   9.986  0.0274  1.2086  0.1950
  187MOL0     H25219   7.260   2.940   9.720  3.0243  1.2246  0.1450
  187MOL0     H25220   7.214   3.110   9.727 -0.5845  0.8905  2.0162
  187MOL0     H25221   7.056   2.889   9.869  2.2722 -0.9899 -0.1037
  187MOL0     H25222   7.028   3.065   9.888  2.0574 -1.9209  2.2351
  187MOL0     H25223   6.993   2.891   9.634 -1.6474 -0.3102  1.8432
  187MOL0     H25224   7.021   3.058   9.611  0.4353 -0.3264  0.2167
  187MOL0     H25225   6.808   3.097   9.767 -1.4875  1.1442 -1.4722
  187MOL0     H25226   6.792   2.923   9.776  2.2767 -1.1051  0.2748
  187MOL0     H25227   7.943   3.086   9.926 -1.4656  1.3503  0.3643
  187MOL0     H25228   8.161   3.002   9.967  0.1473  3.5895 -0.0814
  187MOL0     H25229   8.440   2.867  10.336 -1.1089  1.3223 -0.9210
  187MOL0     H25230   8.657   2.762  10.391 -0.2630  1.4733  1.4738
  187MOL0     H25231  10.172   2.285  10.267  0.5586 -1.7120 -0.1623
  187MOL0     H25232  10.377   2.399  10.167  0.4483  2.1884  1.2264
  187MOL0     H25233  10.846   2.559  10.544 -0.0907 -1.8018  0.8699
  187MOL0     H25234  11.095   2.563  10.550 -2.4117 -2.4201  1.9163
  187MOL0     H25235  11.320   2.606  10.489  3.3054  0.7541 -0.3751
  187MOL0     H25236  11.335   2.434  10.512 -1.8015 -0.2540 -1.2447
  187MOL0     H25237  11.488   2.442  10.303  0.2754 -0.3243 -0.4446
  187MOL0     H25238  11.560   2.480  10.456 -0.6971 -2.6120 -1.0265
  187MOL0     H25239  11.511   2.738  10.398 -0.1389 -1.0195  0.8878
  187MOL0     H25240  11.511   2.663  10.229  1.9715 -0.0663 -0.4926
  187MOL0     H25241  11.733   2.682  10.423  1.5487 -0.1966  0.5249
  187MOL0     H25242  11.712   2.772  10.272  0.8719 -0.9620  0.9353
  187MOL0     H25243  11.902   2.402  10.182  0.6578  0.3501  0.6706
  187MOL0     H25244  11.094   2.419  10.141 -0.5904  1.2285 -0.2220
  187MOL0     H25245  10.844   2.386  10.156  0.3807 -0.3995 -0.4082
  188MOL0     O25246   1.240   9.110   3.671 -1.1170  0.8277  0.2291
  188MOL0     C25247   1.209   9.125   3.556 -0.3358 -0.1378  0.0409
  188MOL0     O25248   1.096   9.088   3.497  0.5359 -0.3211 -0.4988
  188MOL0     C25249   0.994   9.014   3.556  0.6800  0.3198  0.6678
  188MOL0     C25250   0.914   8.933   3.471  0.1372  0.3948 -0.4560
  188MOL0     C25251   0.800   8.865   3.523 -0.4032  0.2375  0.4739
  188MOL0     C25252   0.770   8.854   3.655 -0.0968  0.2229 -0.0234
  188MOL0     O25253   0.659   8.777   3.666  0.0381  0.1671  0.6674
  188MOL0     C25254   0.648   8.715   3.794 -0.0740  0.0429 -0.0228
  188MOL0     C25255   0.544   8.781   3.893  0.7256  0.1421 -0.0269
  188MOL0     C25256   0.403   8.751   3.850 -0.3423 -0.3988 -0.2850
  188MOL0     C25257   0.310   8.818   3.940 -0.7896 -0.0253 -0.0263
  188MOL0     C25258   0.173   8.794   3.898  0.3592  0.6110  0.9475
  188MOL0     C25259   0.076   8.890   3.973 -0.7038  0.1944 -0.3141
  188MOL0     C25260   0.089   9.044   3.939  0.3732 -0.0348 -0.4309
  188MOL0     C25261   0.022   9.131   4.054 -0.1105  0.0756 -0.8288
  188MOL0     N25262  -0.124   9.092   4.062  0.1243  0.2887 -0.4525
  188MOL0     C25263  -0.227   9.132   3.977 -0.2785 -0.5744 -1.3892
  188MOL0     C25264  -0.343   9.073   4.028 -0.2999  1.3695 -0.1363
  188MOL0     C25265  -0.489   9.081   3.979 -0.5228 -0.4684  0.0673
  188MOL0     C25266  -0.567   9.174   4.068  0.4149 -0.8911  0.1785
  188MOL0     C25267  -0.714   9.191   4.009 -0.9143 -0.2794  0.2574
  188MOL0     C25268  -0.726   9.279   3.881 -0.3741 -0.0048  0.4074
  188MOL0     O25269  -0.832   9.234   3.809  0.1169 -0.8431 -0.3920
  188MOL0     C25270  -0.962   9.258   3.843  0.3459 -0.1687  0.4809
  188MOL0     C25271  -1.042   9.212   3.737 -0.4979  0.6841 -0.5869
  188MOL0     C25272  -1.176   9.227   3.739  0.5419  0.5581 -0.1064
  188MOL0     C25273  -1.263   9.178   3.623 -0.5074  0.2409  0.0389
  188MOL0     C25274  -1.241   9.298   3.851 -0.3985  0.0935  0.3383
  188MOL0     C25275  -1.391   9.315   3.864  0.4801  0.2564 -0.4127
  188MOL0     O25276  -1.436   9.382   3.972 -0.1264  0.5894  0.1020
  188MOL0     C25277  -1.567   9.416   3.996  0.4718  0.4105 -0.5158
  188MOL0     C25278  -1.680   9.338   3.960  0.4269  0.5143 -0.7499
  188MOL0     C25279  -1.814   9.375   3.986  0.2313  0.0853  0.5555
  188MOL0     C25280  -1.839   9.496   4.055  0.2791 -0.3990  0.3799
  188MOL0     O25281  -1.970   9.537   4.065 -0.0981 -1.0137 -1.0021
  188MOL0     C25282  -1.999   9.648   4.149 -0.5044  0.4559 -0.4375
  188MOL0     C25283  -2.137   9.642   4.201 -0.1168 -0.6086 -0.2228
  188MOL0     C25284  -2.162   9.758   4.305  0.4687  0.7514  0.0847
  188MOL0     C25285  -2.313   9.784   4.309 -0.0698 -0.1359 -0.2120
  188MOL0     C25286  -2.382   9.665   4.376  0.1890 -0.8431  0.9996
  188MOL0     C25287  -2.372   9.651   4.527 -0.5226 -0.0733 -0.0819
  188MOL0     C25288  -2.430   9.513   4.584 -0.0503 -0.0992  0.2562
  188MOL0     C25289  -2.310   9.429   4.648  0.1278  0.4492  0.3644
  188MOL0    Cl25290  -2.248   9.527   4.794 -0.1270 -0.0688  0.2956
  188MOL0     C25291  -1.724   9.564   4.095  0.3987  0.1277  0.0110
  188MOL0     C25292  -1.598   9.534   4.064  0.1627 -0.1145  0.2328
  188MOL0     O25293  -1.471   9.268   3.785 -0.2671  0.3224  0.5467
  188MOL0     C25294  -1.155   9.346   3.952  0.1571 -0.8284  0.5867
  188MOL0     C25295  -1.016   9.324   3.950  0.3905  0.5352 -0.1168
  188MOL0     N25296  -0.302   8.994   4.133 -0.2234  0.7502  0.6634
  188MOL0     N25297  -0.179   9.012   4.154  0.0518  0.0575 -0.8934
  188MOL0     C25298   0.855   8.917   3.741  0.4557 -0.1967  0.1070
  188MOL0     C25299   0.960   9.005   3.694 -0.0128 -0.1473 -0.8368
  188MOL0     C25300   1.293   9.196   3.459  0.0983  0.3882  0.1661
  188MOL0     C25301   1.254   9.231   3.328  0.4635 -0.1558 -0.8436
  188MOL0     C25302   1.344   9.305   3.246 -0.2035 -0.3156  0.5407
  188MOL0     C25303   1.478   9.345   3.292  1.5561  0.3230 -0.9077
  188MOL0     O25304   1.572   9.398   3.213 -0.3020  0.3009  0.5603
  188MOL0     C25305   1.541   9.428   3.072 -0.3388 -0.4071 -0.6786
  188MOL0     C25306   1.655   9.465   2.976 -0.0229 -1.0313 -0.1657
  188MOL0     C25307   1.670   9.616   2.969  0.1338 -0.2381  0.3036
  188MOL0     C25308   1.759   9.648   2.850 -0.3100  1.0035 -0.1146
  188MOL0     C25309   1.900   9.631   2.891  0.4060  0.9428  0.2195
  188MOL0     C25310   2.020   9.625   2.917 -0.3202 -0.1711  0.6225
  188MOL0     C25311   1.507   9.317   3.422  0.2144 -0.1749 -0.2065
  188MOL0     C25312   1.421   9.243   3.508 -0.5537  0.0579  0.1627
  188MOL0     H25313   0.939   8.936   3.366 -2.3754 -0.0102 -1.1215
  188MOL0     H25314   0.744   8.807   3.450  3.6927 -1.1314 -1.9542
  188MOL0     H25315   0.611   8.613   3.776  0.0760  0.3977 -2.7553
  188MOL0     H25316   0.742   8.711   3.850 -0.7562 -0.2900  1.1359
  188MOL0     H25317   0.540   8.734   3.991  0.1722  1.2300  0.4846
  188MOL0     H25318   0.559   8.889   3.904 -0.2996  0.8669 -3.9461
  188MOL0     H25319   0.380   8.786   3.749  0.8483  2.6326  0.3952
  188MOL0     H25320   0.373   8.647   3.870 -1.6685 -0.4274 -2.1327
  188MOL0     H25321   0.334   8.790   4.044  1.2716  2.7274  0.3394
  188MOL0     H25322   0.328   8.925   3.929  1.4183 -0.1350  1.7104
  188MOL0     H25323   0.157   8.819   3.793 -2.7136 -3.1394  0.3205
  188MOL0     H25324   0.143   8.691   3.917 -2.3961  1.5325  2.2620
  188MOL0     H25325  -0.025   8.858   3.946 -0.1047 -0.8237 -1.4833
  188MOL0     H25326   0.100   8.873   4.078 -0.4358  1.4635 -0.1583
  188MOL0     H25327   0.193   9.078   3.943  0.7161 -1.1375  2.5691
  188MOL0     H25328   0.039   9.066   3.844 -4.3697 -0.4831  1.6932
  188MOL0     H25329   0.036   9.238   4.039 -0.1666  0.0944 -0.7489
  188MOL0     H25330   0.061   9.100   4.151 -3.0025  1.2595  0.8410
  188MOL0     H25331  -0.226   9.193   3.887 -0.2635  0.5995 -0.6072
  188MOL0     H25332  -0.487   9.135   3.884 -0.4159  1.2954  1.0373
  188MOL0     H25333  -0.536   8.982   3.979  0.2759 -0.8540 -0.8163
  188MOL0     H25334  -0.524   9.274   4.073 -0.5003 -0.4876  0.1879
  188MOL0     H25335  -0.566   9.138   4.171  3.1271 -0.4036  0.3924
  188MOL0     H25336  -0.783   9.237   4.080 -1.1435  0.8696 -0.6790
  188MOL0     H25337  -0.744   9.090   3.979  0.4554 -0.1746 -1.6482
  188MOL0     H25338  -0.640   9.271   3.813 -0.8551  2.6182 -0.6617
  188MOL0     H25339  -0.732   9.386   3.904 -1.2991  0.2166 -0.7251
  188MOL0     H25340  -0.992   9.168   3.652 -2.3276 -0.7401 -1.0010
  188MOL0     H25341  -1.206   9.127   3.544 -0.5328  1.9525 -1.1342
  188MOL0     H25342  -1.323   9.099   3.669 -1.2337  1.7221  1.7057
  188MOL0     H25343  -1.333   9.252   3.583 -0.8858 -0.7998 -1.3327
  188MOL0     H25344  -1.681   9.240   3.915 -2.5090 -0.4892  1.1888
  188MOL0     H25345  -1.900   9.321   3.946  0.8167  0.1041 -0.7445
  188MOL0     H25346  -1.933   9.678   4.231 -0.3992  1.8532 -0.9943
  188MOL0     H25347  -1.992   9.744   4.096 -0.5313  0.7450  0.0690
  188MOL0     H25348  -2.209   9.644   4.118 -2.7789  0.7266  1.9473
  188MOL0     H25349  -2.156   9.550   4.257 -0.5070  0.6835  1.8947
  188MOL0     H25350  -2.114   9.850   4.270 -0.8016  2.2730  2.0654
  188MOL0     H25351  -2.126   9.729   4.404 -2.2002 -2.1922  0.3523
  188MOL0     H25352  -2.335   9.873   4.368  0.3404 -1.4356  2.0322
  188MOL0     H25353  -2.344   9.793   4.204  2.0826 -0.1006 -0.8838
  188MOL0     H25354  -2.348   9.570   4.334 -0.6487 -1.4107  1.5627
  188MOL0     H25355  -2.487   9.666   4.346  0.4721  1.3648 -0.1655
  188MOL0     H25356  -2.270   9.669   4.562 -0.1590  4.0968 -2.6164
  188MOL0     H25357  -2.429   9.725   4.583 -1.0447 -1.7059  1.6534
  188MOL0     H25358  -2.465   9.444   4.507  1.7628 -2.3214  1.3133
  188MOL0     H25359  -2.509   9.523   4.659 -1.1947 -0.0086 -0.9349
  188MOL0     H25360  -2.234   9.394   4.578  0.3767 -0.8896  1.2540
  188MOL0     H25361  -2.363   9.339   4.682 -1.1901  1.4210  1.0155
  188MOL0     H25362  -1.732   9.658   4.149  1.6615  0.2783 -0.0326
  188MOL0     H25363  -1.519   9.599   4.101  0.9294 -0.4759 -0.7036
  188MOL0     H25364  -1.203   9.402   4.032 -2.2105 -2.0082  0.0944
  188MOL0     H25365  -0.967   9.354   4.041  0.5577  1.2347 -0.4336
  188MOL0     H25366   0.826   8.915   3.846 -0.2156 -2.3430 -0.0636
  188MOL0     H25367   1.019   9.047   3.775 -0.3832 -0.6539 -0.2955
  188MOL0     H25368   1.164   9.188   3.285 -0.3285  1.1317 -0.5020
  188MOL0     H25369   1.309   9.323   3.145  0.9758  0.0616  0.1800
  188MOL0     H25370   1.480   9.347   3.031 -1.0015  0.2965 -1.1153
  188MOL0     H25371   1.466   9.507   3.084 -1.2093 -1.5057  1.6795
  188MOL0     H25372   1.636   9.422   2.877  1.9622  0.1667 -1.1620
  188MOL0     H25373   1.743   9.407   3.005 -0.3516 -1.1822  0.5494
  188MOL0     H25374   1.698   9.668   3.061 -0.2196  3.7353 -1.6469
  188MOL0     H25375   1.574   9.661   2.944  0.8538  1.2500  0.1420
  188MOL0     H25376   1.752   9.750   2.809 -1.1659 -0.1352 -3.0216
  188MOL0     H25377   1.732   9.581   2.768 -0.3466  3.7133 -2.4641
  188MOL0     H25378   2.127   9.625   2.924 -0.2068  1.5452 -0.6539
  188MOL0     H25379   1.604   9.347   3.461 -0.0597 -0.5800  0.8378
  188MOL0     H25380   1.457   9.227   3.609  0.5980  0.2706 -0.2028
  189MOL0     O25381   4.673   1.782  10.630 -0.3499  0.1966 -0.2876
  189MOL0     C25382   4.750   1.774  10.722 -0.1786 -0.0367 -0.3426
  189MOL0     O25383   4.737   1.697  10.830 -0.1801  0.0274 -0.1339
  189MOL0     C25384   4.629   1.618  10.845  0.0301 -0.7237  1.1039
  189MOL0     C25385   4.648   1.478  10.839 -0.2527 -0.0595  0.6594
  189MOL0     C25386   4.534   1.394  10.839 -0.6293 -0.1474  0.8152
  189MOL0     C25387   4.412   1.446  10.856  0.6959 -0.3108 -0.0647
  189MOL0     O25388   4.297   1.368  10.854 -0.4941 -0.5121 -0.0610
  189MOL0     C25389   4.292   1.241  10.788 -0.7089 -0.5027 -0.2504
  189MOL0     C25390   4.156   1.183  10.807 -0.4584  0.7229 -0.6903
  189MOL0     C25391   4.133   1.051  10.722 -0.8244 -0.5780  0.0559
  189MOL0     C25392   3.995   0.990  10.727  0.0128 -0.9439 -0.8053
  189MOL0     C25393   3.992   0.854  10.654 -0.2473  0.5349 -1.0152
  189MOL0     C25394   3.859   0.773  10.659 -0.6278 -0.9130 -0.9578
  189MOL0     C25395   3.864   0.637  10.586 -0.4122 -0.2929 -0.0024
  189MOL0     C25396   3.735   0.565  10.604 -0.6165 -0.3615 -0.2552
  189MOL0     N25397   3.607   0.616  10.562 -0.4604  0.3194 -0.4389
  189MOL0     C25398   3.556   0.608  10.437  0.7554 -0.2223  0.0901
  189MOL0     C25399   3.438   0.678  10.442  0.2206  1.0592  0.0783
  189MOL0     C25400   3.364   0.708  10.311 -0.6876  0.3946  0.5232
  189MOL0     C25401   3.315   0.570  10.244 -0.0230 -0.7395  0.5734
  189MOL0     C25402   3.201   0.506  10.317  0.2267 -0.0687 -0.2146
  189MOL0     C25403   3.077   0.585  10.352 -0.0273 -0.2470  0.5450
  189MOL0     O25404   3.005   0.500  10.437 -0.5904  0.2686  0.3583
  189MOL0     C25405   2.875   0.538  10.464  0.1441 -0.5658 -0.0343
  189MOL0     C25406   2.808   0.462  10.561 -0.0333  0.4107 -0.9202
  189MOL0     C25407   2.674   0.475  10.607 -0.5846  0.3605 -0.8272
  189MOL0     C25408   2.625   0.378  10.709  0.1584 -0.4265  0.4637
  189MOL0     C25409   2.604   0.580  10.543  0.1621 -0.9500  0.0349
  189MOL0     C25410   2.460   0.618  10.566  0.0752 -0.6494 -0.4649
  189MOL0     O25411   2.416   0.746  10.519 -0.2538  0.0086  0.5096
  189MOL0     C25412   2.283   0.772  10.527  0.3414  0.1120  0.0078
  189MOL0     C25413   2.244   0.853  10.632 -0.7845 -0.4780 -0.4023
  189MOL0     C25414   2.109   0.876  10.650 -0.2190 -0.1610  0.5094
  189MOL0     C25415   2.017   0.829  10.562 -0.5199 -0.6075 -0.5760
  189MOL0     O25416   1.888   0.870  10.586  0.6825 -0.8889 -0.0543
  189MOL0     C25417   1.780   0.792  10.516 -0.4989 -0.4037  0.7116
  189MOL0     C25418   1.650   0.810  10.595 -0.1301 -0.3587  0.1880
  189MOL0     C25419   1.613   0.952  10.605  0.3021  0.6479 -0.6705
  189MOL0     C25420   1.474   0.974  10.669 -0.7771 -0.1224 -0.2246
  189MOL0     C25421   1.345   0.910  10.603 -0.1886 -0.5368 -0.6422
  189MOL0     C25422   1.336   0.956  10.460  0.7120  0.0714  0.0479
  189MOL0     C25423   1.197   0.942  10.397 -0.3745 -0.1493 -0.5155
  189MOL0     C25424   1.214   0.954  10.241 -0.0199  0.2463  0.1481
  189MOL0    Cl25425   1.065   1.009  10.148 -0.2805 -0.0302 -0.0149
  189MOL0     C25426   2.056   0.751  10.456 -0.4395 -0.1969 -0.7979
  189MOL0     C25427   2.189   0.723  10.440 -0.6120 -0.2047  0.3791
  189MOL0     O25428   2.383   0.532  10.615  0.2595 -0.2107 -0.1021
  189MOL0     C25429   2.675   0.667  10.456  0.1345 -0.3195 -0.0356
  189MOL0     C25430   2.807   0.648  10.417  0.1702 -0.8651  0.1180
  189MOL0     N25431   3.413   0.717  10.572 -0.4568 -0.0789  0.8040
  189MOL0     N25432   3.520   0.695  10.644  0.0199  0.5899 -0.0530
  189MOL0     C25433   4.400   1.582  10.868 -0.3740 -0.6949 -0.3742
  189MOL0     C25434   4.509   1.672  10.878 -0.5208  0.4038  0.5175
  189MOL0     C25435   4.877   1.851  10.715  0.1594 -0.3121 -0.1547
  189MOL0     C25436   4.892   1.956  10.620  0.2776  0.9124  0.6895
  189MOL0     C25437   5.017   2.032  10.617 -0.4064 -0.1438  0.6523
  189MOL0     C25438   5.126   2.001  10.694  0.1371 -0.0564 -0.7855
  189MOL0     O25439   5.237   2.074  10.675  0.4943 -0.5822 -0.4589
  189MOL0     C25440   5.353   2.042  10.751  0.1456  0.6731 -0.3097
  189MOL0     C25441   5.471   2.097  10.681  0.9068  0.4502  0.0215
  189MOL0     C25442   5.509   2.009  10.548 -0.3704  0.1507 -0.2494
  189MOL0     C25443   5.596   2.095  10.454  0.5002 -0.2056 -0.1500
  189MOL0     C25444   5.727   2.104  10.507  0.1186  0.2571 -0.2023
  189MOL0     C25445   5.839   2.116  10.554  0.6506 -0.6168 -0.2757
  189MOL0     C25446   5.108   1.901  10.789  0.1131 -0.1742  0.6296
  189MOL0     C25447   4.984   1.824  10.799 -0.7810 -0.4245  0.9486
  189MOL0     H25448   4.749   1.447  10.816 -1.5648 -2.9085 -1.9492
  189MOL0     H25449   4.538   1.286  10.827  1.0184 -0.0844  0.5378
  189MOL0     H25450   4.306   1.240  10.680 -1.1922 -2.9508 -0.3330
  189MOL0     H25451   4.365   1.176  10.838  0.3852 -0.5763 -1.8636
  189MOL0     H25452   4.137   1.168  10.913 -2.4683  3.0127 -0.6367
  189MOL0     H25453   4.077   1.251  10.773 -0.2142  0.0137 -2.8796
  189MOL0     H25454   4.170   1.066  10.620  2.1652  0.5780  1.2084
  189MOL0     H25455   4.196   0.970  10.760 -0.7110 -0.5094  0.0140
  189MOL0     H25456   3.963   0.959  10.827 -1.8084 -0.4118 -1.1817
  189MOL0     H25457   3.922   1.062  10.691  0.8036 -0.0305 -0.6308
  189MOL0     H25458   4.015   0.876  10.549 -0.4392  1.6028 -0.8514
  189MOL0     H25459   4.067   0.787  10.696 -0.7116  0.6425  0.0166
  189MOL0     H25460   3.846   0.757  10.766 -0.4542  0.0120 -0.7890
  189MOL0     H25461   3.774   0.834  10.627 -0.4207  1.2511  2.1949
  189MOL0     H25462   3.871   0.645  10.477 -0.4656 -2.1437 -0.1777
  189MOL0     H25463   3.945   0.580  10.634  0.4592 -0.7664 -1.9216
  189MOL0     H25464   3.726   0.527  10.706  1.1198  1.8277  0.8023
  189MOL0     H25465   3.748   0.479  10.537  0.2408 -1.2448  1.0048
  189MOL0     H25466   3.601   0.556  10.352  0.1516  0.3454 -0.5932
  189MOL0     H25467   3.286   0.781  10.334  0.5757  1.5639  1.2760
  189MOL0     H25468   3.433   0.756  10.241 -0.7113 -0.7690 -0.3179
  189MOL0     H25469   3.397   0.499  10.254 -0.1367 -1.0225 -0.4466
  189MOL0     H25470   3.291   0.590  10.139  1.3421  0.5640  0.4724
  189MOL0     H25471   3.251   0.471  10.408  0.8202  1.4978  0.0945
  189MOL0     H25472   3.166   0.421  10.258  1.4791 -2.1221  1.8320
  189MOL0     H25473   3.019   0.616  10.265 -2.2975  1.2155  2.4516
  189MOL0     H25474   3.113   0.681  10.391  3.5850 -0.3790 -1.8703
  189MOL0     H25475   2.865   0.379  10.601 -1.0615  0.8993  1.7536
  189MOL0     H25476   2.621   0.430  10.805  0.5380 -0.0290  0.2676
  189MOL0     H25477   2.520   0.356  10.686  0.0412  2.4219 -2.5332
  189MOL0     H25478   2.687   0.288  10.716 -0.4772 -0.9769 -0.5947
  189MOL0     H25479   2.322   0.889  10.698 -2.1747  1.9443  0.0453
  189MOL0     H25480   2.081   0.942  10.731  0.0737  2.8619 -1.6761
  189MOL0     H25481   1.763   0.814  10.411 -1.8024  0.0250  0.9852
  189MOL0     H25482   1.807   0.686  10.524 -0.7708 -0.3464  4.4267
  189MOL0     H25483   1.574   0.746  10.548  0.3817 -1.6990  1.1304
  189MOL0     H25484   1.678   0.772  10.694  0.7288  2.1228  0.9688
  189MOL0     H25485   1.599   0.991  10.504 -0.1085 -0.1074 -0.9132
  189MOL0     H25486   1.686   1.019  10.652  1.7240 -1.3602  0.1007
  189MOL0     H25487   1.488   0.943  10.773  0.5759 -0.2438 -0.4245
  189MOL0     H25488   1.473   1.083  10.661  0.4366 -0.1426 -0.9890
  189MOL0     H25489   1.263   0.947  10.664  0.4742 -0.8800  0.4713
  189MOL0     H25490   1.353   0.801  10.593  3.6783 -0.2548 -2.4457
  189MOL0     H25491   1.351   1.064  10.469 -2.0882  0.4532  1.0772
  189MOL0     H25492   1.411   0.904  10.400 -2.8854 -1.2071 -3.8340
  189MOL0     H25493   1.136   1.026  10.431  0.5360  1.1766 -1.9815
  189MOL0     H25494   1.158   0.843  10.423  1.2175 -0.7447 -0.2996
  189MOL0     H25495   1.262   0.860  10.211 -0.1488 -0.8190  2.9969
  189MOL0     H25496   1.286   1.034  10.222  3.0700 -1.9294  1.7617
  189MOL0     H25497   1.988   0.715  10.379 -0.2839  2.1463 -2.1440
  189MOL0     H25498   2.219   0.659  10.358 -3.3115 -0.0954 -0.8039
  189MOL0     H25499   2.623   0.754  10.419 -0.1620 -1.0651 -1.4273
  189MOL0     H25500   2.854   0.727  10.360  1.7656 -1.7187  0.2152
  189MOL0     H25501   4.309   1.638  10.886 -0.2855 -0.6169 -0.1688
  189MOL0     H25502   4.493   1.777  10.900  0.9293  0.8884 -0.5660
  189MOL0     H25503   4.819   1.982  10.544 -1.9210 -0.5480  2.1827
  189MOL0     H25504   5.041   2.118  10.555 -0.1375 -1.2723 -0.8528
  189MOL0     H25505   5.353   2.074  10.856 -3.4589 -2.3263  0.8281
  189MOL0     H25506   5.375   1.935  10.760  1.6173  0.9109 -0.6843
  189MOL0     H25507   5.561   2.093  10.743  1.9883 -0.8613 -1.5333
  189MOL0     H25508   5.441   2.200  10.659 -1.8675 -0.2555  0.1239
  189MOL0     H25509   5.414   1.972  10.509 -0.9878 -0.0990  1.4027
  189MOL0     H25510   5.559   1.914  10.567 -1.7596 -0.4714  0.4180
  189MOL0     H25511   5.552   2.194  10.449 -0.9794 -0.8329  0.0777
  189MOL0     H25512   5.611   2.058  10.352 -2.9427  2.2803 -1.7240
  189MOL0     H25513   5.934   2.141  10.596  0.8923  1.7153 -2.0194
  189MOL0     H25514   5.190   1.876  10.856  0.2047 -1.9820 -0.0990
  189MOL0     H25515   4.972   1.749  10.878 -2.1180  0.8784  2.0384
  190MOL0     O25516   8.130   3.295   4.784 -0.4898 -0.3357  0.0661
  190MOL0     C25517   8.162   3.376   4.697  0.0673 -0.4575 -0.2942
  190MOL0     O25518   8.087   3.477   4.655  0.6701  0.6180 -0.6803
  190MOL0     C25519   7.963   3.511   4.714 -0.2409  0.3500 -0.5571
  190MOL0     C25520   7.942   3.579   4.841 -0.0206 -0.9773  0.0740
  190MOL0     C25521   7.818   3.621   4.889  1.0967 -0.0067 -0.6379
  190MOL0     C25522   7.704   3.591   4.808 -0.0319  0.3766 -0.0876
  190MOL0     O25523   7.585   3.618   4.861  0.0211 -0.0401 -0.9891
  190MOL0     C25524   7.468   3.545   4.816  0.7660 -0.3570 -0.0105
  190MOL0     C25525   7.367   3.571   4.931  0.1581  0.0434 -0.1770
  190MOL0     C25526   7.228   3.514   4.897 -1.1529  0.2616  0.2716
  190MOL0     C25527   7.166   3.609   4.801 -0.7510  0.3142 -0.1299
  190MOL0     C25528   7.025   3.575   4.776  0.5450 -0.0653 -0.5929
  190MOL0     C25529   7.003   3.459   4.668 -0.1831 -1.1225 -0.4882
  190MOL0     C25530   6.862   3.479   4.619 -0.2437  0.2544 -1.2294
  190MOL0     C25531   6.832   3.351   4.541  1.1125  0.5768 -0.2983
  190MOL0     N25532   6.694   3.363   4.491 -0.4089  0.9114  0.1603
  190MOL0     C25533   6.589   3.282   4.524 -0.2181  0.0616 -0.0143
  190MOL0     C25534   6.484   3.319   4.447  0.0904  0.0341  0.2539
  190MOL0     C25535   6.345   3.246   4.452 -0.9634 -0.4158  0.4073
  190MOL0     C25536   6.360   3.097   4.484  0.4830  0.1328  0.5476
  190MOL0     C25537   6.234   3.021   4.444  0.5286  1.0919 -0.3032
  190MOL0     C25538   6.113   3.046   4.537  0.2957  0.1552  0.2456
  190MOL0     O25539   5.989   3.006   4.479  0.1438 -0.1929 -0.0118
  190MOL0     C25540   5.957   2.875   4.471 -1.1127 -0.7553  0.7207
  190MOL0     C25541   5.838   2.850   4.404  0.3515 -0.2614 -0.1049
  190MOL0     C25542   5.779   2.722   4.402 -0.0203  0.0416  0.3765
  190MOL0     C25543   5.664   2.708   4.308 -0.1726  0.1811  0.0832
  190MOL0     C25544   5.842   2.618   4.473 -0.1369  0.7677  0.2131
  190MOL0     C25545   5.776   2.484   4.491  0.3878  0.5082  0.4266
  190MOL0     O25546   5.644   2.482   4.513 -0.2330  0.0941 -0.5100
  190MOL0     C25547   5.568   2.374   4.528  0.1469  0.0151  0.0025
  190MOL0     C25548   5.444   2.396   4.591 -0.3235  0.5433  0.0016
  190MOL0     C25549   5.349   2.295   4.595  0.1661  0.5648 -0.8628
  190MOL0     C25550   5.382   2.165   4.571 -0.0789 -0.4845 -0.4390
  190MOL0     O25551   5.278   2.074   4.589 -0.3960  0.0024  0.1058
  190MOL0     C25552   5.315   1.936   4.576  0.4147  0.5796  1.1358
  190MOL0     C25553   5.198   1.840   4.590 -0.5615  0.1953 -0.6642
  190MOL0     C25554   5.113   1.833   4.459  0.3748  0.6870  0.4136
  190MOL0     C25555   5.046   1.967   4.431  0.2059  0.2671  0.6766
  190MOL0     C25556   4.945   1.940   4.318  0.4103 -0.6286  0.5750
  190MOL0     C25557   4.860   2.062   4.278 -0.0400 -0.4759  0.6233
  190MOL0     C25558   4.768   2.112   4.383 -1.0692  0.9241 -0.2965
  190MOL0     C25559   4.693   2.229   4.322  0.6374  0.2298  0.2899
  190MOL0    Cl25560   4.578   2.183   4.183 -0.1967  0.0335 -0.4483
  190MOL0     C25561   5.511   2.134   4.526 -0.2981 -0.0108 -0.3373
  190MOL0     C25562   5.599   2.238   4.496  0.5732 -0.5382  0.0525
  190MOL0     O25563   5.851   2.382   4.508 -0.4156  0.0480 -0.2987
  190MOL0     C25564   5.974   2.634   4.521 -0.0439  0.3814 -0.7783
  190MOL0     C25565   6.032   2.762   4.516  0.1954 -0.5218  0.5365
  190MOL0     N25566   6.525   3.415   4.362  0.0980 -0.1289 -0.0914
  190MOL0     N25567   6.653   3.444   4.391  0.4660 -0.6255  0.2291
  190MOL0     C25568   7.721   3.541   4.679  0.5344 -0.0468 -0.2321
  190MOL0     C25569   7.847   3.503   4.635  0.0486 -0.2580  1.0430
  190MOL0     C25570   8.301   3.356   4.639  0.7267  0.0610 -0.0637
  190MOL0     C25571   8.350   3.432   4.540  0.1321 -0.3773 -0.1283
  190MOL0     C25572   8.466   3.400   4.475  0.8679  0.2088  0.1478
  190MOL0     C25573   8.550   3.298   4.506 -0.0497  0.5521 -0.3078
  190MOL0     O25574   8.667   3.261   4.445 -0.1112  0.3529  0.1019
  190MOL0     C25575   8.727   3.360   4.360 -0.3113 -0.6504  0.3504
  190MOL0     C25576   8.858   3.311   4.299 -0.0762 -0.7134  0.1697
  190MOL0     C25577   8.951   3.288   4.422  0.1199 -0.0959  0.0945
  190MOL0     C25578   9.101   3.289   4.384  1.0541 -0.7233  0.4992
  190MOL0     C25579   9.180   3.254   4.501 -1.7751  0.2514 -0.6511
  190MOL0     C25580   9.253   3.207   4.587 -0.3732  0.1992  0.2782
  190MOL0     C25581   8.510   3.231   4.625  0.2849  0.8413  0.3945
  190MOL0     C25582   8.383   3.251   4.678  0.5735 -0.7874 -0.6819
  190MOL0     H25583   8.029   3.598   4.903 -0.9604  2.8115  0.4441
  190MOL0     H25584   7.816   3.654   4.993  1.0181 -1.6884 -0.0671
  190MOL0     H25585   7.430   3.589   4.723 -1.0859 -1.9247 -0.0557
  190MOL0     H25586   7.474   3.436   4.807 -1.4237 -0.6535  1.3723
  190MOL0     H25587   7.408   3.505   5.009 -1.0929  0.6107  1.0003
  190MOL0     H25588   7.355   3.674   4.966  2.5230  0.5817 -0.7588
  190MOL0     H25589   7.232   3.422   4.838  0.6586 -0.0855  0.8730
  190MOL0     H25590   7.163   3.496   4.984  1.1057 -0.8960  1.8275
  190MOL0     H25591   7.161   3.706   4.851  1.7105 -0.3556  1.6139
  190MOL0     H25592   7.215   3.626   4.704 -0.9236  0.3536 -0.2111
  190MOL0     H25593   6.976   3.551   4.871  2.3929 -0.2383  0.3610
  190MOL0     H25594   6.972   3.665   4.744 -1.3413 -0.7688  0.3428
  190MOL0     H25595   7.065   3.475   4.579 -0.4447  0.5110 -0.4035
  190MOL0     H25596   7.019   3.367   4.725 -1.7261 -0.0597  1.7586
  190MOL0     H25597   6.796   3.489   4.706  1.3704  0.9323 -0.0342
  190MOL0     H25598   6.845   3.567   4.557 -2.6875  0.6904 -0.0578
  190MOL0     H25599   6.844   3.257   4.596  1.8729  1.2115  0.6511
  190MOL0     H25600   6.899   3.362   4.455 -1.5431  3.8301 -2.1948
  190MOL0     H25601   6.607   3.195   4.586 -0.8210  1.1400  1.7763
  190MOL0     H25602   6.284   3.297   4.528  0.9906  4.6645 -1.0220
  190MOL0     H25603   6.297   3.262   4.355  0.6529  0.7228 -0.2429
  190MOL0     H25604   6.393   3.085   4.587  0.3236  2.8895  0.9982
  190MOL0     H25605   6.440   3.062   4.418  0.3402 -2.0336  1.4448
  190MOL0     H25606   6.261   2.915   4.445  0.2704  1.0111  1.3829
  190MOL0     H25607   6.204   3.039   4.340 -1.2603 -0.4199 -0.1110
  190MOL0     H25608   6.105   3.155   4.550  0.0565  0.1110  0.4719
  190MOL0     H25609   6.132   3.010   4.639 -5.0696 -1.0592  1.1185
  190MOL0     H25610   5.780   2.930   4.359  0.0666 -1.1396 -1.3654
  190MOL0     H25611   5.629   2.605   4.300 -2.3179  0.9953 -1.6693
  190MOL0     H25612   5.574   2.762   4.339  0.5839  1.6639 -0.1965
  190MOL0     H25613   5.678   2.755   4.210 -1.8878  0.5999  0.0181
  190MOL0     H25614   5.416   2.497   4.620 -0.4191  0.7594 -0.8178
  190MOL0     H25615   5.253   2.306   4.644  0.1297 -2.3339 -0.0571
  190MOL0     H25616   5.344   1.921   4.471 -3.7837 -0.2386 -0.0788
  190MOL0     H25617   5.392   1.908   4.648  0.4533  2.0464  1.7005
  190MOL0     H25618   5.219   1.743   4.636 -1.4172  1.1224  1.9035
  190MOL0     H25619   5.136   1.887   4.667  2.3755  0.9054  1.4417
  190MOL0     H25620   5.034   1.764   4.490  1.0530  0.0888  0.8589
  190MOL0     H25621   5.169   1.795   4.374 -1.2339  0.3237 -0.5284
  190MOL0     H25622   4.989   2.003   4.516 -0.1658 -1.2329  1.0943
  190MOL0     H25623   5.116   2.043   4.397 -0.4131  0.6440  0.2283
  190MOL0     H25624   4.879   1.861   4.355  1.5651 -1.2502  1.3755
  190MOL0     H25625   4.997   1.909   4.227 -0.2643  0.1985 -0.0998
  190MOL0     H25626   4.926   2.146   4.256 -0.4129  0.0888  1.5825
  190MOL0     H25627   4.816   2.028   4.184  0.1043 -0.1509  0.4379
  190MOL0     H25628   4.830   2.149   4.465  0.7900 -0.3046 -1.0765
  190MOL0     H25629   4.693   2.043   4.423 -2.0707  2.1496  0.0171
  190MOL0     H25630   4.762   2.309   4.293  1.3467 -0.3650  0.3026
  190MOL0     H25631   4.625   2.270   4.397  1.0746  1.0847  0.2312
  190MOL0     H25632   5.547   2.032   4.538  0.2018  0.2933  0.8730
  190MOL0     H25633   5.695   2.212   4.453  1.8383  2.1740  0.9846
  190MOL0     H25634   6.028   2.546   4.555  0.7032 -0.4579 -3.7701
  190MOL0     H25635   6.129   2.784   4.559  0.8640 -3.1125  0.5528
  190MOL0     H25636   7.637   3.518   4.614  2.3821 -3.4514 -1.6446
  190MOL0     H25637   7.869   3.468   4.534 -2.1162 -0.4595  0.5883
  190MOL0     H25638   8.287   3.511   4.500 -0.7715 -1.2989 -0.5891
  190MOL0     H25639   8.491   3.477   4.403  0.7275  1.9449  1.8730
  190MOL0     H25640   8.656   3.391   4.283 -0.4417 -0.3385  0.5934
  190MOL0     H25641   8.753   3.448   4.419  0.9289 -1.0873  0.5011
  190MOL0     H25642   8.892   3.399   4.243  0.5326 -0.3948  1.0101
  190MOL0     H25643   8.851   3.227   4.230  0.6876 -0.1963 -0.5564
  190MOL0     H25644   8.926   3.190   4.465  1.1963 -1.9522 -3.1361
  190MOL0     H25645   8.936   3.363   4.500 -0.9439 -1.3388  1.1341
  190MOL0     H25646   9.130   3.384   4.339  1.1191 -2.2051 -2.9534
  190MOL0     H25647   9.119   3.222   4.299 -0.5614 -0.8940  0.2739
  190MOL0     H25648   9.324   3.170   4.658  1.5796  1.2926 -1.0095
  190MOL0     H25649   8.584   3.161   4.662  1.9172  1.7804 -0.9672
  190MOL0     H25650   8.351   3.180   4.754 -1.4524  3.4089  2.8363
  191MOL0     O25651   0.543   9.296   8.569 -0.3248  0.2113 -0.9984
  191MOL0     C25652   0.516   9.394   8.499 -0.0925 -0.0290 -0.4923
  191MOL0     O25653   0.383   9.442   8.472  0.2723  0.0960  0.1289
  191MOL0     C25654   0.272   9.369   8.527  0.4759  0.1754 -0.4119
  191MOL0     C25655   0.152   9.442   8.545  0.3975 -0.1277  0.1615
  191MOL0     C25656   0.032   9.374   8.587  0.9947 -0.0549 -0.5490
  191MOL0     C25657   0.027   9.236   8.618  0.5441 -0.9461 -0.6411
  191MOL0     O25658  -0.093   9.176   8.664 -0.3508  0.8050 -0.5950
  191MOL0     C25659  -0.088   9.033   8.702  0.0178 -0.7656 -0.2038
  191MOL0     C25660  -0.212   8.989   8.787 -0.4996  0.2440 -0.3666
  191MOL0     C25661  -0.343   9.018   8.713  0.1009 -0.5452  0.2905
  191MOL0     C25662  -0.463   8.958   8.801 -0.1000  0.0928  0.1969
  191MOL0     C25663  -0.606   9.002   8.756 -0.1029 -0.4221  0.0924
  191MOL0     C25664  -0.697   8.941   8.864 -0.1117  0.5680 -0.9892
  191MOL0     C25665  -0.838   8.969   8.823  0.4231 -0.3508 -0.3204
  191MOL0     C25666  -0.936   8.895   8.913 -0.0981  0.3862  0.1842
  191MOL0     N25667  -1.080   8.930   8.886 -0.3574  0.2123 -0.0258
  191MOL0     C25668  -1.177   8.833   8.872 -0.3954 -0.8234 -0.1642
  191MOL0     C25669  -1.291   8.904   8.859  0.4416 -0.3606 -0.3523
  191MOL0     C25670  -1.427   8.832   8.866 -0.2390 -0.3064 -0.1962
  191MOL0     C25671  -1.445   8.785   9.011 -0.1905  0.7359  0.3352
  191MOL0     C25672  -1.594   8.736   9.031 -0.0410 -0.3345 -0.1018
  191MOL0     C25673  -1.604   8.672   9.168 -0.1988  0.3837  0.1307
  191MOL0     O25674  -1.728   8.601   9.191 -0.4609  0.0854 -0.2685
  191MOL0     C25675  -1.739   8.517   9.300  0.0309  0.3074  0.1493
  191MOL0     C25676  -1.639   8.484   9.388 -0.2623  0.0521 -0.4145
  191MOL0     C25677  -1.656   8.399   9.499 -0.3266 -1.3109 -0.5164
  191MOL0     C25678  -1.541   8.360   9.588  0.0591  0.0234  0.2639
  191MOL0     C25679  -1.786   8.349   9.528  0.1812  0.2474 -0.1981
  191MOL0     C25680  -1.824   8.252   9.633 -0.4137  0.3252 -0.1662
  191MOL0     O25681  -1.956   8.241   9.660  1.0856 -0.0856 -0.2670
  191MOL0     C25682  -1.987   8.181   9.782 -0.0990 -0.7346 -0.2388
  191MOL0     C25683  -2.097   8.101   9.792  0.7440  0.6574 -0.6554
  191MOL0     C25684  -2.130   8.034   9.916 -0.4198 -0.0134 -0.1800
  191MOL0     C25685  -2.058   8.070  10.030 -0.1110  0.4717 -0.2140
  191MOL0     O25686  -2.096   7.993  10.132 -0.3609 -0.3097 -0.4158
  191MOL0     C25687  -2.010   7.982  10.245 -0.4129 -0.4862  0.9041
  191MOL0     C25688  -2.086   7.913  10.359  0.5525 -0.5068 -0.2902
  191MOL0     C25689  -2.189   8.007  10.425 -0.1102  0.2034 -0.5273
  191MOL0     C25690  -2.272   7.936  10.532  0.3344 -0.2782  0.2741
  191MOL0     C25691  -2.375   8.019  10.618 -0.0729  0.3306  0.0271
  191MOL0     C25692  -2.309   8.101  10.728  0.4983 -0.1131  0.3531
  191MOL0     C25693  -2.418   8.170  10.819 -0.2545  0.1963  0.4263
  191MOL0     C25694  -2.345   8.218  10.934 -0.0277 -0.3600 -0.6512
  191MOL0    Cl25695  -2.207   8.326  10.908 -0.4265 -0.0932  0.5854
  191MOL0     C25696  -1.956   8.164  10.025 -0.1431  0.3431 -1.2800
  191MOL0     C25697  -1.924   8.214   9.900 -0.2163 -0.2190  0.0624
  191MOL0     O25698  -1.733   8.192   9.689  0.6865  0.6046  0.1879
  191MOL0     C25699  -1.893   8.391   9.447 -0.1659  0.0555 -0.5171
  191MOL0     C25700  -1.870   8.471   9.330  0.1662 -0.1482  0.0991
  191MOL0     N25701  -1.264   9.036   8.847  0.2166 -0.3174  0.3259
  191MOL0     N25702  -1.136   9.052   8.879 -0.0392  0.1933  0.5057
  191MOL0     C25703   0.148   9.168   8.606  0.4950  0.1511  0.7020
  191MOL0     C25704   0.272   9.234   8.568  0.0710  0.1841 -0.8838
  191MOL0     C25705   0.627   9.471   8.462 -0.7840 -0.6990  0.4172
  191MOL0     C25706   0.612   9.615   8.468 -0.3510  0.8020  0.6464
  191MOL0     C25707   0.715   9.704   8.432 -0.5063  0.2707  0.4175
  191MOL0     C25708   0.846   9.651   8.401 -0.3912  0.2833  0.1968
  191MOL0     O25709   0.947   9.733   8.377  0.0156  0.5934 -0.0407
  191MOL0     C25710   1.068   9.725   8.453  0.1223  0.2223  0.1937
  191MOL0     C25711   1.129   9.861   8.440  0.1115 -0.6847  0.3675
  191MOL0     C25712   1.251   9.871   8.536 -0.1681 -0.3394 -0.7689
  191MOL0     C25713   1.314  10.012   8.520  0.1479  0.5371  0.0039
  191MOL0     C25714   1.434  10.028   8.607  0.4006 -0.0889 -1.3633
  191MOL0     C25715   1.523  10.036   8.687 -0.1582  0.2878 -0.7712
  191MOL0     C25716   0.861   9.514   8.396  0.4303 -0.0786  0.2979
  191MOL0     C25717   0.754   9.431   8.425 -0.8430 -0.2005 -0.1391
  191MOL0     H25718   0.156   9.547   8.520  1.5111 -0.8697 -3.2766
  191MOL0     H25719  -0.062   9.425   8.601  0.1208 -0.7585 -3.2856
  191MOL0     H25720  -0.082   8.969   8.613 -1.0127 -1.0213 -0.0933
  191MOL0     H25721   0.007   9.014   8.753  0.0553 -1.7022 -0.5979
  191MOL0     H25722  -0.217   8.885   8.820  0.5861  0.4661  0.5606
  191MOL0     H25723  -0.204   9.049   8.878  2.0190  1.3370 -1.2127
  191MOL0     H25724  -0.359   9.125   8.700  1.6818 -0.5260 -2.0048
  191MOL0     H25725  -0.341   8.969   8.615  0.9096  0.6644 -0.3242
  191MOL0     H25726  -0.462   8.849   8.796 -1.0878  0.1328 -1.0637
  191MOL0     H25727  -0.437   8.994   8.901 -2.2761  1.6524  0.2600
  191MOL0     H25728  -0.615   9.111   8.757 -3.2689 -0.6036  0.7241
  191MOL0     H25729  -0.627   8.957   8.659  0.2674 -4.6977  1.7382
  191MOL0     H25730  -0.696   8.831   8.862 -2.2109  0.4991 -2.4124
  191MOL0     H25731  -0.663   8.979   8.960  1.0371  0.0330 -1.1660
  191MOL0     H25732  -0.863   9.076   8.827  0.1820 -0.4260  0.3556
  191MOL0     H25733  -0.858   8.937   8.721  0.7958 -1.6995  0.0192
  191MOL0     H25734  -0.910   8.902   9.019  1.0180 -2.4543  0.1924
  191MOL0     H25735  -0.922   8.790   8.884  0.9759  0.6944 -0.4486
  191MOL0     H25736  -1.165   8.728   8.897 -0.7451 -0.9053 -0.3318
  191MOL0     H25737  -1.502   8.903   8.830  2.8270  3.1420 -0.3523
  191MOL0     H25738  -1.417   8.734   8.819  0.7488 -0.6097  0.5961
  191MOL0     H25739  -1.414   8.858   9.086 -0.3099 -0.7964  1.9566
  191MOL0     H25740  -1.383   8.698   9.035 -2.3375 -0.7168  0.9412
  191MOL0     H25741  -1.608   8.657   8.957  0.7031  0.8204 -1.5156
  191MOL0     H25742  -1.659   8.821   9.006  2.4522  1.2178 -1.7091
  191MOL0     H25743  -1.578   8.749   9.242 -0.8842  1.7623 -1.0057
  191MOL0     H25744  -1.523   8.599   9.174 -1.4628 -1.1957 -1.0502
  191MOL0     H25745  -1.536   8.515   9.374 -0.1091 -0.0854  0.3766
  191MOL0     H25746  -1.578   8.353   9.691 -1.4430  1.0135 -0.1755
  191MOL0     H25747  -1.501   8.262   9.559  0.3092  0.1915  0.0387
  191MOL0     H25748  -1.461   8.433   9.576  0.2523  0.0393  1.4888
  191MOL0     H25749  -2.158   8.082   9.704 -1.8255  1.0424  0.9425
  191MOL0     H25750  -2.206   7.956   9.917  0.3291 -0.7962 -1.8774
  191MOL0     H25751  -1.925   7.919  10.217  0.4584  0.6291  0.9469
  191MOL0     H25752  -1.974   8.079  10.279  1.6094  1.5382 -5.4766
  191MOL0     H25753  -2.138   7.826  10.320  0.1757 -0.9682  1.1562
  191MOL0     H25754  -2.007   7.884  10.430  3.3103 -0.0629 -2.9655
  191MOL0     H25755  -2.255   8.033  10.342 -1.8067  0.9467  0.9830
  191MOL0     H25756  -2.137   8.096  10.463  0.2160  0.2652 -1.0981
  191MOL0     H25757  -2.325   7.858  10.476  2.2872 -2.0901  0.8485
  191MOL0     H25758  -2.212   7.869  10.593  0.0227 -1.2174 -0.4272
  191MOL0     H25759  -2.456   7.954  10.651  0.1277 -0.4699 -1.0100
  191MOL0     H25760  -2.421   8.088  10.546  0.2673  1.7032  1.0761
  191MOL0     H25761  -2.241   8.035  10.784 -1.4937 -1.6229  1.1068
  191MOL0     H25762  -2.244   8.175  10.682  0.7974 -0.4476  0.2291
  191MOL0     H25763  -2.489   8.089  10.841  0.5677 -1.6265 -3.0774
  191MOL0     H25764  -2.467   8.253  10.767  1.5093  0.6046 -0.6265
  191MOL0     H25765  -2.311   8.138  11.001 -0.3222  2.4850  3.3069
  191MOL0     H25766  -2.411   8.278  10.998 -0.0100  0.0942 -1.0516
  191MOL0     H25767  -1.901   8.206  10.109 -0.3644 -0.6932 -0.5977
  191MOL0     H25768  -1.864   8.305   9.895 -1.4738  0.7154  1.2865
  191MOL0     H25769  -1.996   8.358   9.457 -0.1142  0.4599  2.0086
  191MOL0     H25770  -1.945   8.508   9.260 -0.7790 -0.1457  1.0780
  191MOL0     H25771   0.148   9.061   8.623  0.0399  0.1223  0.5381
  191MOL0     H25772   0.358   9.172   8.546  0.9222 -0.0474  2.5633
  191MOL0     H25773   0.514   9.653   8.496 -2.7483 -2.8271 -1.8838
  191MOL0     H25774   0.685   9.808   8.419  1.7671  0.7102 -2.0087
  191MOL0     H25775   1.051   9.682   8.553  0.0559  0.4566  0.2836
  191MOL0     H25776   1.133   9.654   8.401 -0.3045  0.2053 -0.3236
  191MOL0     H25777   1.059   9.936   8.476 -0.3826  0.4481 -2.6845
  191MOL0     H25778   1.142   9.874   8.332 -1.6808 -3.2082 -0.2505
  191MOL0     H25779   1.312   9.783   8.516 -2.3878 -1.9468 -0.7593
  191MOL0     H25780   1.222   9.873   8.641  0.7423 -0.6896 -0.5057
  191MOL0     H25781   1.240  10.090   8.539 -1.8126 -0.9380 -1.2576
  191MOL0     H25782   1.352  10.034   8.420 -0.1341 -0.9789 -0.4583
  191MOL0     H25783   1.603  10.061   8.753  0.1365 -1.0065 -0.6228
  191MOL0     H25784   0.957   9.473   8.365  0.2562 -0.2601 -0.0006
  191MOL0     H25785   0.785   9.327   8.419  1.3122  0.4698 -4.2234
  192MOL0     O25786   2.008   3.657   3.829  0.1812  0.7089 -0.7983
  192MOL0     C25787   2.056   3.615   3.934  0.0000 -0.2800  1.0714
  192MOL0     O25788   1.991   3.532   4.023  0.5375  0.3528 -0.4340
  192MOL0     C25789   1.856   3.517   4.018 -0.0450  0.9990  0.3867
  192MOL0     C25790   1.800   3.446   3.913  0.3862 -0.6056  0.5029
  192MOL0     C25791   1.660   3.424   3.910 -0.5698 -0.5261  0.0160
  192MOL0     C25792   1.583   3.477   4.010  0.4290 -0.2811  0.2908
  192MOL0     O25793   1.454   3.456   3.993 -0.1496  0.2016  0.4295
  192MOL0     C25794   1.367   3.494   4.099  0.0553 -0.5165  0.0665
  192MOL0     C25795   1.234   3.419   4.072 -1.1283  0.1142  0.3470
  192MOL0     C25796   1.133   3.492   4.166 -0.0477  0.3236  0.6571
  192MOL0     C25797   0.992   3.435   4.137  0.7490 -0.6708  0.0683
  192MOL0     C25798   0.984   3.293   4.200  0.4391 -0.8345  0.3050
  192MOL0     C25799   0.851   3.221   4.157 -0.7085  0.2191 -0.2145
  192MOL0     C25800   0.726   3.299   4.200  0.1767  0.1376  0.3806
  192MOL0     C25801   0.590   3.219   4.196 -0.4281 -0.7013  0.5958
  192MOL0     N25802   0.543   3.194   4.062 -0.4040  0.2609  0.1477
  192MOL0     C25803   0.522   3.073   3.993  0.4748 -0.2327 -0.5775
  192MOL0     C25804   0.464   3.109   3.866 -0.8944  0.2770 -0.5979
  192MOL0     C25805   0.423   3.009   3.763  0.3318  0.2474  0.0924
  192MOL0     C25806   0.279   3.025   3.732  0.1265  0.1580 -0.6020
  192MOL0     C25807   0.185   2.975   3.845  0.0348 -0.7907 -0.0485
  192MOL0     C25808   0.044   3.029   3.810  0.0085  1.1358 -0.0255
  192MOL0     O25809   0.000   2.959   3.697  0.5188  0.1016  0.0222
  192MOL0     C25810  -0.130   2.982   3.656 -0.3208 -1.0191  0.7442
  192MOL0     C25811  -0.183   2.893   3.563  0.2340 -1.0738  0.0758
  192MOL0     C25812  -0.319   2.890   3.519 -0.2562  0.2778  0.8893
  192MOL0     C25813  -0.350   2.787   3.415  0.2454  0.0934 -0.2713
  192MOL0     C25814  -0.410   2.990   3.573  0.1840  0.0412  1.2112
  192MOL0     C25815  -0.558   2.997   3.539 -0.0020  0.0861  0.3218
  192MOL0     O25816  -0.616   2.906   3.453 -0.8775 -0.4162  0.1457
  192MOL0     C25817  -0.750   2.890   3.423  0.4553 -0.2441 -0.1600
  192MOL0     C25818  -0.840   2.998   3.393 -0.1433 -0.9063  0.3974
  192MOL0     C25819  -0.974   2.981   3.389  0.7860  0.2104 -0.2799
  192MOL0     C25820  -1.039   2.857   3.408  0.2718  0.2578 -0.1843
  192MOL0     O25821  -1.173   2.829   3.389  0.2269 -0.1530 -0.1831
  192MOL0     C25822  -1.261   2.912   3.467  0.0952 -0.4488  0.3377
  192MOL0     C25823  -1.247   2.912   3.618 -0.3996  0.2104 -1.3674
  192MOL0     C25824  -1.338   3.016   3.688  0.5469  0.3034 -0.0702
  192MOL0     C25825  -1.305   3.044   3.836  0.7645  0.8300 -0.6196
  192MOL0     C25826  -1.316   2.915   3.916 -0.1246  0.4930 -0.2511
  192MOL0     C25827  -1.335   2.933   4.069  0.3230 -0.2032 -0.4548
  192MOL0     C25828  -1.332   2.801   4.142  0.0701 -0.3455  1.3063
  192MOL0     C25829  -1.285   2.809   4.286 -0.6227  0.1776 -0.2925
  192MOL0    Cl25830  -1.111   2.804   4.268  0.3346 -0.0697 -0.2118
  192MOL0     C25831  -0.949   2.746   3.424  1.0071 -0.3375  0.1065
  192MOL0     C25832  -0.812   2.761   3.432 -0.8661 -0.2108  0.2249
  192MOL0     O25833  -0.623   3.095   3.591 -0.6463  0.5091  0.2339
  192MOL0     C25834  -0.356   3.086   3.657  0.1310 -0.9549 -0.5870
  192MOL0     C25835  -0.219   3.078   3.708 -0.2176 -0.4429  0.3037
  192MOL0     N25836   0.465   3.250   3.873 -0.1055  0.0299 -0.0690
  192MOL0     N25837   0.506   3.295   3.986 -0.2538 -0.4850  0.1839
  192MOL0     C25838   1.644   3.563   4.105 -0.6470 -0.0028  0.4937
  192MOL0     C25839   1.777   3.574   4.114 -0.3282 -0.0523  0.1895
  192MOL0     C25840   2.188   3.661   3.972  0.2656 -0.4170 -1.3100
  192MOL0     C25841   2.236   3.635   4.102  0.3582 -0.0765 -0.7140
  192MOL0     C25842   2.371   3.661   4.126 -0.0615 -0.1436 -1.6573
  192MOL0     C25843   2.455   3.720   4.038 -0.5205  0.7121  0.2334
  192MOL0     O25844   2.590   3.733   4.043 -0.0801  0.4745 -0.1372
  192MOL0     C25845   2.662   3.619   4.091 -0.0308  0.5610 -0.4345
  192MOL0     C25846   2.786   3.602   4.001  0.4338 -0.7084  0.0568
  192MOL0     C25847   2.890   3.506   4.059  0.1339 -1.3331 -0.6150
  192MOL0     C25848   2.993   3.469   3.962  0.1425 -0.4845  0.2246
  192MOL0     C25849   3.094   3.373   4.012  0.2775  1.2921  0.5100
  192MOL0     C25850   3.187   3.302   4.047 -0.2044 -0.2393  0.5045
  192MOL0     C25851   2.403   3.753   3.912  0.7241  1.3716 -1.5409
  192MOL0     C25852   2.274   3.717   3.876  0.7705  0.6037  0.9474
  192MOL0     H25853   1.861   3.421   3.827  0.6810 -0.7593  0.7517
  192MOL0     H25854   1.612   3.369   3.829 -0.7030  2.0596 -1.8025
  192MOL0     H25855   1.411   3.477   4.197  3.3135  4.6264 -0.1274
  192MOL0     H25856   1.353   3.601   4.076  2.8550 -0.6275 -2.9044
  192MOL0     H25857   1.200   3.429   3.968  1.4897  1.7391 -0.4360
  192MOL0     H25858   1.247   3.318   4.113 -0.6347 -0.5049 -1.2670
  192MOL0     H25859   1.156   3.491   4.273 -1.5061  3.1572  1.1164
  192MOL0     H25860   1.139   3.597   4.135 -1.0572 -0.2714 -1.7736
  192MOL0     H25861   0.918   3.496   4.190  0.3903 -1.2165  0.2070
  192MOL0     H25862   0.946   3.425   4.038  0.0007  2.8338 -0.0675
  192MOL0     H25863   1.064   3.231   4.158  0.9192 -0.9100  1.2796
  192MOL0     H25864   0.990   3.306   4.309  0.5277  0.3486  0.1739
  192MOL0     H25865   0.849   3.209   4.048  1.6930 -0.1162 -0.2886
  192MOL0     H25866   0.854   3.120   4.197  0.1308  0.1796 -0.3490
  192MOL0     H25867   0.734   3.340   4.301 -2.0750  0.2141  0.5823
  192MOL0     H25868   0.723   3.387   4.134 -0.2251  0.2093  0.4908
  192MOL0     H25869   0.521   3.284   4.251  0.7482  1.0316  0.0972
  192MOL0     H25870   0.609   3.117   4.231  1.5935 -0.2792  0.8608
  192MOL0     H25871   0.537   2.974   4.036  0.9945  1.5683  3.8321
  192MOL0     H25872   0.472   3.026   3.667  0.3227  0.7032  0.1681
  192MOL0     H25873   0.450   2.906   3.789  2.8495  0.2204 -2.2483
  192MOL0     H25874   0.255   2.965   3.643  2.3824 -0.4990 -0.8267
  192MOL0     H25875   0.258   3.130   3.708 -0.4997  0.2942  0.4645
  192MOL0     H25876   0.217   3.005   3.945  3.4716  2.8058 -1.9583
  192MOL0     H25877   0.172   2.866   3.845 -1.1087 -0.6819  1.3800
  192MOL0     H25878   0.042   3.136   3.784 -1.1622  0.6858 -1.9748
  192MOL0     H25879  -0.006   3.000   3.902  1.2902 -1.4141 -0.0546
  192MOL0     H25880  -0.113   2.828   3.511 -1.7631 -0.5069 -3.6889
  192MOL0     H25881  -0.424   2.718   3.456 -0.2249  0.7208 -0.0430
  192MOL0     H25882  -0.407   2.830   3.332 -0.8371 -2.2383 -0.8349
  192MOL0     H25883  -0.260   2.733   3.385  0.4189 -0.3604  1.0284
  192MOL0     H25884  -0.811   3.102   3.382 -1.1552 -0.7075 -0.6085
  192MOL0     H25885  -1.040   3.067   3.391 -1.3793 -1.2912  3.1442
  192MOL0     H25886  -1.253   3.014   3.430 -2.3309  0.6144  2.4355
  192MOL0     H25887  -1.363   2.881   3.446 -0.1749  0.2381  0.6190
  192MOL0     H25888  -1.276   2.818   3.666 -1.9806  2.6857  3.0739
  192MOL0     H25889  -1.141   2.931   3.640 -0.6919  0.2874  0.0600
  192MOL0     H25890  -1.441   2.982   3.677  1.6259 -2.6348 -2.6981
  192MOL0     H25891  -1.337   3.115   3.642 -0.3981  0.5326  0.3662
  192MOL0     H25892  -1.205   3.087   3.836  0.6433  1.2351  1.4437
  192MOL0     H25893  -1.377   3.117   3.874  0.1489  0.3474 -0.8313
  192MOL0     H25894  -1.231   2.848   3.898  0.6995  0.6950  2.4305
  192MOL0     H25895  -1.408   2.864   3.888 -0.7224  0.7750  1.1364
  192MOL0     H25896  -1.256   3.000   4.106 -1.9166  1.9400  0.7482
  192MOL0     H25897  -1.428   2.988   4.089  0.1441 -0.8613  0.6104
  192MOL0     H25898  -1.264   2.735   4.088 -1.1578 -1.3995  1.0102
  192MOL0     H25899  -1.420   2.737   4.133  0.5857 -1.0569  1.2156
  192MOL0     H25900  -1.318   2.723   4.345 -0.7926 -3.0692 -4.6154
  192MOL0     H25901  -1.322   2.897   4.340 -0.1731 -0.2460  0.7308
  192MOL0     H25902  -0.990   2.646   3.437 -1.8993  0.9750  2.1174
  192MOL0     H25903  -0.747   2.679   3.460  0.2606  1.4362  2.9533
  192MOL0     H25904  -0.409   3.171   3.699 -0.3701 -1.3110 -0.4870
  192MOL0     H25905  -0.186   3.148   3.785  1.1790  0.5217 -1.1190
  192MOL0     H25906   1.585   3.617   4.178 -0.8611 -0.2485  0.5045
  192MOL0     H25907   1.821   3.632   4.195 -1.2856  0.7045  0.1923
  192MOL0     H25908   2.173   3.588   4.177  0.1653  0.3563 -0.6047
  192MOL0     H25909   2.423   3.619   4.212 -2.2006 -0.4485 -0.4538
  192MOL0     H25910   2.685   3.649   4.193  3.0671  0.8094 -1.1052
  192MOL0     H25911   2.601   3.529   4.078  1.8416 -0.4929 -2.7227
  192MOL0     H25912   2.828   3.703   3.991 -0.2710 -0.6085 -2.4948
  192MOL0     H25913   2.754   3.572   3.901  1.8247  0.5291 -0.8092
  192MOL0     H25914   2.842   3.415   4.096  0.5437 -1.2605  0.1220
  192MOL0     H25915   2.940   3.557   4.142 -1.2723  1.3222 -1.2907
  192MOL0     H25916   3.046   3.553   3.917 -1.3286 -0.0566 -0.7928
  192MOL0     H25917   2.936   3.424   3.880  1.8463  0.1209 -1.3609
  192MOL0     H25918   3.272   3.256   4.093 -0.3556  0.3753  1.4179
  192MOL0     H25919   2.479   3.790   3.843  1.2307  2.3665 -0.4920
  192MOL0     H25920   2.236   3.742   3.777  1.6017  0.6159  0.6241
  193MOL0     O25921   9.957   3.525   5.061 -0.7648  0.4034 -0.5862
  193MOL0     C25922   9.979   3.644   5.093  0.7011 -0.3918 -0.0881
  193MOL0     O25923   9.882   3.733   5.129 -0.1115 -0.2984  0.5363
  193MOL0     C25924   9.755   3.708   5.098 -0.4059 -0.0690 -0.4535
  193MOL0     C25925   9.703   3.667   4.971 -0.3906 -0.8310 -0.1984
  193MOL0     C25926   9.567   3.665   4.953 -0.3450  0.4018  0.1450
  193MOL0     C25927   9.475   3.684   5.054  0.3609 -0.6395  0.4654
  193MOL0     O25928   9.346   3.677   5.024  0.3389 -0.1133 -0.3345
  193MOL0     C25929   9.255   3.672   5.138  0.9779 -0.4237 -0.4270
  193MOL0     C25930   9.115   3.640   5.086 -0.0440 -0.2072  0.1011
  193MOL0     C25931   9.008   3.658   5.193 -0.8570 -0.0787  0.3091
  193MOL0     C25932   8.858   3.653   5.160 -0.3720  0.0898 -0.9690
  193MOL0     C25933   8.813   3.508   5.143  0.6761  0.0230  0.6197
  193MOL0     C25934   8.665   3.516   5.097 -0.2555 -0.1132 -0.6246
  193MOL0     C25935   8.616   3.370   5.075 -0.0358 -0.0109  0.6979
  193MOL0     C25936   8.476   3.359   4.999 -0.3955  0.0346  0.2225
  193MOL0     N25937   8.371   3.430   5.069  0.0575 -0.0207  0.1190
  193MOL0     C25938   8.301   3.376   5.174 -0.2493 -0.0012  0.6941
  193MOL0     C25939   8.214   3.473   5.209  0.4587 -0.1180 -0.3301
  193MOL0     C25940   8.113   3.479   5.329 -1.1806 -0.5615  0.8438
  193MOL0     C25941   7.993   3.399   5.291  0.2512  0.5046 -0.0345
  193MOL0     C25942   7.911   3.475   5.179  0.1363  0.2681  0.0946
  193MOL0     C25943   7.769   3.408   5.148 -0.1223  0.1385  0.4874
  193MOL0     O25944   7.796   3.323   5.033  0.2140  0.5581 -0.8068
  193MOL0     C25945   7.700   3.239   4.979 -1.0021  0.1139  0.6518
  193MOL0     C25946   7.740   3.121   4.909 -0.5411  0.2103  0.3805
  193MOL0     C25947   7.644   3.038   4.854 -0.2318  0.9203  0.4702
  193MOL0     C25948   7.695   2.909   4.781 -0.1783 -0.4638  0.2818
  193MOL0     C25949   7.503   3.071   4.866  0.0960  0.3419  0.4230
  193MOL0     C25950   7.395   2.990   4.801 -0.6036  0.4048  0.8939
  193MOL0     O25951   7.270   3.037   4.818 -0.2777  0.1363  0.0334
  193MOL0     C25952   7.162   2.982   4.761  0.2751  0.5551 -0.4697
  193MOL0     C25953   7.091   3.048   4.660 -0.9924 -0.4826 -0.5105
  193MOL0     C25954   6.989   2.983   4.600  0.3263  1.1973  0.1147
  193MOL0     C25955   6.937   2.860   4.648 -0.6366 -0.2265  0.0930
  193MOL0     O25956   6.835   2.806   4.582  0.2266  0.1601 -0.6133
  193MOL0     C25957   6.840   2.666   4.564 -0.2279  0.3346  0.3009
  193MOL0     C25958   6.752   2.604   4.465  0.9640 -0.1626  0.0626
  193MOL0     C25959   6.744   2.456   4.491 -0.5552  0.7185 -0.4518
  193MOL0     C25960   6.614   2.428   4.571  0.8175  0.4950 -0.7631
  193MOL0     C25961   6.607   2.285   4.627 -0.0881 -0.3357  0.5009
  193MOL0     C25962   6.594   2.188   4.504 -0.1604  0.4291  0.3270
  193MOL0     C25963   6.550   2.044   4.539  0.8961  0.5412  0.2429
  193MOL0     C25964   6.546   1.956   4.414  0.0197  0.0945  0.4225
  193MOL0    Cl25965   6.450   1.814   4.432 -0.1638 -0.3259  0.2698
  193MOL0     C25966   7.003   2.800   4.755 -0.3094  0.8091 -0.8297
  193MOL0     C25967   7.114   2.855   4.815 -0.1061  0.0416  0.2535
  193MOL0     O25968   7.428   2.896   4.732  0.2672 -0.0841  0.1384
  193MOL0     C25969   7.460   3.184   4.947  0.3191  0.0888  0.8542
  193MOL0     C25970   7.563   3.263   4.998  0.0561  0.1114  0.8659
  193MOL0     N25971   8.244   3.585   5.129 -0.4506 -0.0475 -0.2966
  193MOL0     N25972   8.332   3.554   5.039  0.2765 -0.4628 -0.6810
  193MOL0     C25973   9.526   3.723   5.183 -0.2561 -0.7088 -0.3743
  193MOL0     C25974   9.664   3.749   5.199  0.5661 -0.3157  0.6133
  193MOL0     C25975  10.119   3.680   5.129 -0.2083  0.4586 -0.0609
  193MOL0     C25976  10.220   3.597   5.084  0.0136  0.8196 -0.4147
  193MOL0     C25977  10.352   3.634   5.114 -0.0822 -0.1470 -0.6669
  193MOL0     C25978  10.381   3.745   5.190 -0.5391 -0.5098 -0.3545
  193MOL0     O25979  10.511   3.778   5.205  0.6416 -0.0483  0.1223
  193MOL0     C25980  10.566   3.733   5.327  0.7945  0.0052 -0.2805
  193MOL0     C25981  10.685   3.636   5.323 -0.3105  0.2318 -1.1163
  193MOL0     C25982  10.806   3.685   5.235 -0.2936 -0.6037 -0.9695
  193MOL0     C25983  10.764   3.712   5.087 -0.7062  0.1831 -0.8503
  193MOL0     C25984  10.882   3.737   5.000 -0.3790  0.2672 -0.4859
  193MOL0     C25985  10.983   3.748   4.937 -0.4640 -0.2201  0.1163
  193MOL0     C25986  10.283   3.826   5.240  0.1602  0.2119  0.5791
  193MOL0     C25987  10.149   3.794   5.210 -0.4772  0.0797 -0.1994
  193MOL0     H25988   9.777   3.653   4.893 -0.6196 -1.9534 -0.2243
  193MOL0     H25989   9.515   3.635   4.862 -2.5484  1.4379  0.9778
  193MOL0     H25990   9.281   3.588   5.203 -0.7493  1.1567  2.5253
  193MOL0     H25991   9.255   3.759   5.204  0.6191 -0.9637  0.3082
  193MOL0     H25992   9.092   3.706   5.002 -1.3065 -0.8520 -0.0896
  193MOL0     H25993   9.114   3.537   5.051  0.4908 -0.4015  0.6358
  193MOL0     H25994   9.040   3.593   5.275 -1.3853  1.4669  1.8116
  193MOL0     H25995   9.019   3.759   5.234 -1.5882  0.0306  0.2464
  193MOL0     H25996   8.796   3.692   5.242 -1.1583 -3.2274  0.1468
  193MOL0     H25997   8.834   3.712   5.071  0.4353  2.3966  0.2553
  193MOL0     H25998   8.871   3.459   5.064 -3.4916 -3.6574 -0.5811
  193MOL0     H25999   8.836   3.447   5.231  3.0232 -0.6893 -0.4125
  193MOL0     H26000   8.597   3.566   5.166  1.8483  0.8993  0.8258
  193MOL0     H26001   8.664   3.572   5.003  0.4041 -0.2426 -0.7109
  193MOL0     H26002   8.690   3.313   5.019  1.7170  1.9953  0.8541
  193MOL0     H26003   8.601   3.320   5.171 -2.2113 -0.0905  0.3710
  193MOL0     H26004   8.467   3.252   4.981  1.4450 -0.0813 -0.1975
  193MOL0     H26005   8.489   3.412   4.904 -4.1645  2.8779  1.0692
  193MOL0     H26006   8.318   3.287   5.234 -1.5757 -0.0011  1.1053
  193MOL0     H26007   8.154   3.436   5.421  1.6366 -0.4540 -0.2457
  193MOL0     H26008   8.092   3.585   5.346  0.3460  0.0629 -0.8219
  193MOL0     H26009   7.938   3.400   5.386  1.5407  0.8582  0.7314
  193MOL0     H26010   8.023   3.302   5.251  1.7893  0.9763 -0.0720
  193MOL0     H26011   7.969   3.469   5.086 -1.5941 -1.3026 -0.9506
  193MOL0     H26012   7.893   3.580   5.204 -1.5183 -0.1108  0.5958
  193MOL0     H26013   7.705   3.494   5.129 -0.2600 -0.0344  0.1705
  193MOL0     H26014   7.729   3.348   5.230  0.3783  1.7708  1.9991
  193MOL0     H26015   7.846   3.100   4.901 -0.6307 -0.0459 -0.1511
  193MOL0     H26016   7.690   2.914   4.672  1.4552 -4.9297 -0.1884
  193MOL0     H26017   7.799   2.888   4.806  0.8211  2.5284 -0.9638
  193MOL0     H26018   7.641   2.818   4.810  1.4432 -1.2590  0.9351
  193MOL0     H26019   7.133   3.136   4.613 -2.7564  0.1036 -1.1059
  193MOL0     H26020   6.945   3.029   4.513  0.2842  2.9643  1.0199
  193MOL0     H26021   6.942   2.632   4.546  0.4781  2.7407 -0.6212
  193MOL0     H26022   6.822   2.626   4.664 -0.8125  0.6474  0.3272
  193MOL0     H26023   6.650   2.644   4.467  1.2196  0.5201 -0.1505
  193MOL0     H26024   6.792   2.616   4.364  3.8313 -2.2771  0.8010
  193MOL0     H26025   6.830   2.424   4.550 -0.4044  2.4110  0.3165
  193MOL0     H26026   6.734   2.410   4.393  0.3977  0.4639 -0.4373
  193MOL0     H26027   6.598   2.500   4.652 -2.7092 -1.0316  0.0642
  193MOL0     H26028   6.530   2.443   4.503  1.1005  0.0495 -1.2155
  193MOL0     H26029   6.512   2.276   4.680  0.6883 -0.9311  1.8450
  193MOL0     H26030   6.690   2.267   4.696  0.6330  0.0852 -0.2300
  193MOL0     H26031   6.523   2.227   4.429 -0.2253 -0.5210 -0.1126
  193MOL0     H26032   6.684   2.166   4.447 -0.6129 -3.3578  0.8069
  193MOL0     H26033   6.447   2.067   4.565  1.4798  1.5524  1.8143
  193MOL0     H26034   6.600   2.003   4.627 -1.2747 -0.0862  1.2413
  193MOL0     H26035   6.642   1.929   4.369 -0.5473  0.4391 -1.0430
  193MOL0     H26036   6.493   2.008   4.335  0.9835 -1.5379 -1.3828
  193MOL0     H26037   6.968   2.701   4.781  2.1389 -1.0147 -3.7545
  193MOL0     H26038   7.166   2.810   4.899  4.2927  0.1800 -2.1026
  193MOL0     H26039   7.353   3.198   4.957  0.1588 -1.5399  1.9358
  193MOL0     H26040   7.527   3.348   5.054 -4.7747 -2.1354  1.6885
  193MOL0     H26041   9.454   3.760   5.256  1.4035  2.5569 -0.2296
  193MOL0     H26042   9.697   3.789   5.294  1.1439  1.2253 -0.2071
  193MOL0     H26043  10.199   3.515   5.015  1.5810  2.2694 -2.7228
  193MOL0     H26044  10.431   3.570   5.075 -0.3368 -2.4259  2.1746
  193MOL0     H26045  10.590   3.818   5.391 -0.4953 -0.3960  0.7666
  193MOL0     H26046  10.490   3.672   5.377  0.7349 -0.0683 -0.4580
  193MOL0     H26047  10.653   3.541   5.280  1.4685 -1.6999  1.5251
  193MOL0     H26048  10.721   3.613   5.424  0.1938  1.2586 -1.0546
  193MOL0     H26049  10.884   3.609   5.230  3.5254  3.0323 -1.7730
  193MOL0     H26050  10.838   3.781   5.277 -1.7836 -1.2174  1.8992
  193MOL0     H26051  10.706   3.805   5.087  1.2194  1.4544 -0.3036
  193MOL0     H26052  10.708   3.627   5.045  0.8131 -2.2467  1.7202
  193MOL0     H26053  11.073   3.753   4.880  0.0983 -0.2515  0.9890
  193MOL0     H26054  10.311   3.909   5.304 -1.3968  1.4936 -0.3443
  193MOL0     H26055  10.070   3.861   5.241 -0.3774 -0.5591  1.5259
  194MOL0     O26056   6.023   5.418   0.719 -0.0527  0.8625  0.5422
  194MOL0     C26057   6.096   5.354   0.635  0.3445  0.2492 -0.4299
  194MOL0     O26058   6.050   5.273   0.543 -0.0764 -0.1735  0.0761
  194MOL0     C26059   5.912   5.271   0.520 -0.3602  0.2820 -0.2020
  194MOL0     C26060   5.838   5.383   0.482  0.3601  0.4435 -0.3426
  194MOL0     C26061   5.699   5.363   0.460  0.3431 -0.3554 -1.0013
  194MOL0     C26062   5.632   5.241   0.474  1.1523 -0.5563  0.8265
  194MOL0     O26063   5.499   5.221   0.458  0.8149 -0.5269 -0.3662
  194MOL0     C26064   5.415   5.332   0.471  0.4187 -0.5899  0.3696
  194MOL0     C26065   5.273   5.280   0.479  0.1837 -0.2073  0.7099
  194MOL0     C26066   5.238   5.212   0.612  0.0806 -0.3785  0.3243
  194MOL0     C26067   5.121   5.120   0.589 -0.1076 -0.2984  0.7591
  194MOL0     C26068   5.093   5.025   0.711 -0.3686  0.0565  0.4713
  194MOL0     C26069   5.195   4.905   0.713 -0.6184 -0.3503  0.3604
  194MOL0     C26070   5.191   4.820   0.841 -0.2350  0.1629 -0.0137
  194MOL0     C26071   5.268   4.889   0.954 -0.1294  0.4644  0.1906
  194MOL0     N26072   5.237   4.824   1.081 -0.3964 -0.1834 -0.7682
  194MOL0     C26073   5.112   4.826   1.140  0.0385  0.9928 -0.5877
  194MOL0     C26074   5.114   4.756   1.256 -0.0242  0.3062  0.3783
  194MOL0     C26075   4.996   4.731   1.350 -0.3941  0.2445 -0.2584
  194MOL0     C26076   4.886   4.818   1.313 -0.0732 -0.3466  0.5489
  194MOL0     C26077   4.776   4.827   1.427 -0.7964  1.1833 -0.2143
  194MOL0     C26078   4.821   4.909   1.554 -0.1829 -0.5089  0.4788
  194MOL0     O26079   4.744   4.872   1.672 -0.2972  0.1554 -0.6713
  194MOL0     C26080   4.619   4.915   1.683  0.5675 -0.3876 -0.2180
  194MOL0     C26081   4.560   4.875   1.798 -0.6099  0.7032 -0.3064
  194MOL0     C26082   4.435   4.912   1.844 -0.0263 -0.3539  0.6086
  194MOL0     C26083   4.367   4.832   1.952 -0.0351 -0.6510  1.7345
  194MOL0     C26084   4.364   5.001   1.754 -0.3041 -0.7395 -0.0581
  194MOL0     C26085   4.216   5.034   1.771 -0.4524  0.5534  0.9095
  194MOL0     O26086   4.172   5.128   1.683  0.0448  0.0821 -0.1990
  194MOL0     C26087   4.047   5.181   1.700  0.2506 -0.2442  0.3984
  194MOL0     C26088   3.948   5.134   1.616 -0.8641 -0.1333  0.4998
  194MOL0     C26089   3.816   5.166   1.612 -0.4613 -0.4628  0.0040
  194MOL0     C26090   3.764   5.258   1.715 -1.0465  0.4694  0.4506
  194MOL0     O26091   3.636   5.284   1.741  0.1319 -1.0021 -0.8813
  194MOL0     C26092   3.535   5.219   1.658  0.3209  0.2253 -0.3559
  194MOL0     C26093   3.396   5.254   1.729 -0.0828  0.4686  0.0135
  194MOL0     C26094   3.276   5.203   1.657  0.5069 -0.1990  0.1416
  194MOL0     C26095   3.154   5.190   1.750 -0.0602 -0.0269 -0.1195
  194MOL0     C26096   3.021   5.170   1.682 -0.5838 -0.0399  0.2383
  194MOL0     C26097   2.898   5.148   1.776 -0.1133 -0.0253 -0.7952
  194MOL0     C26098   2.846   5.287   1.823 -0.6138  0.0810  0.1127
  194MOL0     C26099   2.760   5.281   1.950 -0.2518 -0.2617  0.4487
  194MOL0    Cl26100   2.577   5.245   1.935 -0.0287 -0.0524 -0.2434
  194MOL0     C26101   3.868   5.312   1.802  0.5619  0.5855 -0.1997
  194MOL0     C26102   4.003   5.277   1.798 -0.2290  0.1658 -0.7393
  194MOL0     O26103   4.144   4.978   1.856  0.0940 -0.5861  0.4323
  194MOL0     C26104   4.432   5.057   1.647 -0.0472  0.0340 -0.7845
  194MOL0     C26105   4.554   5.010   1.603  0.3682  0.2034 -0.2343
  194MOL0     N26106   5.246   4.710   1.271 -0.5472 -0.1488  0.5088
  194MOL0     N26107   5.316   4.750   1.170 -0.0517  0.3387  0.6061
  194MOL0     C26108   5.705   5.131   0.510 -1.1302  0.1711  0.1530
  194MOL0     C26109   5.847   5.143   0.531 -0.7437 -0.8356  0.2553
  194MOL0     C26110   6.245   5.366   0.646 -0.2909 -0.2011 -0.6319
  194MOL0     C26111   6.309   5.385   0.775  0.5222 -0.1210  1.1102
  194MOL0     C26112   6.445   5.407   0.781  0.2319 -0.4636 -0.3772
  194MOL0     C26113   6.527   5.389   0.666 -0.1916 -0.4128 -0.0809
  194MOL0     O26114   6.663   5.420   0.676 -0.0897  0.6330 -0.8919
  194MOL0     C26115   6.758   5.415   0.577 -0.8079  0.0480 -0.6892
  194MOL0     C26116   6.795   5.275   0.529  0.5218  0.1334  1.0485
  194MOL0     C26117   6.864   5.200   0.650  0.5923 -0.3092  0.5617
  194MOL0     C26118   6.989   5.261   0.704 -0.5273  0.2205 -0.0870
  194MOL0     C26119   7.099   5.277   0.605 -0.1861  0.1208  0.2304
  194MOL0     C26120   7.186   5.296   0.525 -0.2340 -0.4515  0.3211
  194MOL0     C26121   6.465   5.361   0.543 -0.6703  0.3980 -0.5783
  194MOL0     C26122   6.325   5.347   0.535 -0.0985 -0.7973  0.1231
  194MOL0     H26123   5.876   5.484   0.471  3.7474 -0.5143  1.1392
  194MOL0     H26124   5.647   5.454   0.431 -0.9891 -0.3886  1.1175
  194MOL0     H26125   5.430   5.386   0.565 -1.6659 -1.2153  1.1214
  194MOL0     H26126   5.434   5.393   0.383  1.8176  0.1749  1.1682
  194MOL0     H26127   5.199   5.359   0.466 -0.0156 -0.6622 -1.2032
  194MOL0     H26128   5.252   5.219   0.391 -0.7963  1.1420 -0.0217
  194MOL0     H26129   5.325   5.155   0.647 -0.5884 -1.2081  0.6817
  194MOL0     H26130   5.220   5.291   0.685 -1.4429  1.2596 -1.7042
  194MOL0     H26131   5.030   5.178   0.572  0.9163  1.4431  0.9717
  194MOL0     H26132   5.144   5.062   0.499 -0.8403  1.1807 -0.4197
  194MOL0     H26133   5.110   5.077   0.806  0.2261 -0.1132  0.4669
  194MOL0     H26134   4.992   4.985   0.706 -1.3194  2.2501  1.2221
  194MOL0     H26135   5.176   4.841   0.626  2.2448 -0.5284 -0.2355
  194MOL0     H26136   5.298   4.936   0.697  0.1748 -2.6831  0.6489
  194MOL0     H26137   5.088   4.791   0.866  0.9580 -2.2596  2.7356
  194MOL0     H26138   5.248   4.727   0.829  0.1977  0.3210  0.7272
  194MOL0     H26139   5.243   4.995   0.948  4.3300  1.7141  0.6200
  194MOL0     H26140   5.376   4.885   0.936 -0.4431 -1.6235 -1.7052
  194MOL0     H26141   5.021   4.874   1.107  0.6747 -0.5217 -5.1638
  194MOL0     H26142   4.948   4.633   1.345 -2.3680  1.2401 -3.3194
  194MOL0     H26143   5.024   4.750   1.454 -1.8044 -0.3148  0.2463
  194MOL0     H26144   4.835   4.780   1.224 -1.0594  1.2146  0.4078
  194MOL0     H26145   4.928   4.916   1.292  2.9936 -1.5216  0.6133
  194MOL0     H26146   4.743   4.725   1.452 -1.8342  1.1134 -1.7734
  194MOL0     H26147   4.689   4.875   1.383 -1.2741 -1.2192 -2.1134
  194MOL0     H26148   4.816   5.016   1.533  0.0697 -0.1180  2.2543
  194MOL0     H26149   4.924   4.887   1.584 -0.0916  0.8137  1.2457
  194MOL0     H26150   4.605   4.802   1.864 -4.3206 -1.1465  0.5013
  194MOL0     H26151   4.300   4.887   2.018 -2.0980  0.2652 -0.9110
  194MOL0     H26152   4.313   4.749   1.905 -1.3622  1.1814 -0.1701
  194MOL0     H26153   4.435   4.784   2.022 -0.7069 -2.0445  1.4780
  194MOL0     H26154   3.983   5.074   1.532  1.9179 -0.1436  1.5594
  194MOL0     H26155   3.749   5.111   1.547  0.9040 -2.3896  0.1406
  194MOL0     H26156   3.547   5.258   1.557 -0.3031 -1.1599 -0.9980
  194MOL0     H26157   3.547   5.111   1.647  4.1732  0.4032  0.7342
  194MOL0     H26158   3.400   5.217   1.831 -3.7989  0.9468  0.4605
  194MOL0     H26159   3.390   5.363   1.727 -0.6385  0.4395  0.0175
  194MOL0     H26160   3.300   5.102   1.622 -1.9804 -0.5292 -0.8173
  194MOL0     H26161   3.256   5.267   1.571 -1.1171  2.4083  2.2854
  194MOL0     H26162   3.160   5.101   1.814 -1.7985 -0.7197 -0.8470
  194MOL0     H26163   3.158   5.274   1.820 -0.7522  0.5761 -0.7898
  194MOL0     H26164   3.036   5.080   1.623  3.0739  0.9536 -0.6119
  194MOL0     H26165   3.009   5.253   1.612  1.4790  1.1883  1.2452
  194MOL0     H26166   2.819   5.106   1.713 -0.0406 -0.6527 -0.4781
  194MOL0     H26167   2.917   5.073   1.854 -0.4257 -0.1160 -0.8052
  194MOL0     H26168   2.792   5.331   1.738 -1.2038  1.3914  1.1238
  194MOL0     H26169   2.928   5.357   1.844 -0.2610 -0.5745  0.9551
  194MOL0     H26170   2.758   5.386   1.982  2.2532  0.3050 -0.9247
  194MOL0     H26171   2.815   5.235   2.032 -0.7436  1.7780  1.9996
  194MOL0     H26172   3.833   5.381   1.878 -0.0921  0.2454 -0.1861
  194MOL0     H26173   4.079   5.305   1.870  0.5427 -1.8455 -0.7186
  194MOL0     H26174   4.393   5.131   1.578  3.3527  0.5489 -2.4037
  194MOL0     H26175   4.603   5.058   1.519  2.6917  0.2471  1.0793
  194MOL0     H26176   5.647   5.040   0.523  1.0994 -1.2056  0.8732
  194MOL0     H26177   5.915   5.062   0.555  0.5643  0.3744  0.7199
  194MOL0     H26178   6.252   5.386   0.867  0.2441 -2.0920  0.9991
  194MOL0     H26179   6.487   5.434   0.878  0.3885 -2.8141  0.2590
  194MOL0     H26180   6.728   5.471   0.487  2.4246 -2.7989 -3.8459
  194MOL0     H26181   6.842   5.471   0.619 -1.0495  0.3089 -0.5490
  194MOL0     H26182   6.860   5.285   0.441  0.0679  1.3578  0.8385
  194MOL0     H26183   6.712   5.216   0.488  2.3403 -0.8387 -1.5318
  194MOL0     H26184   6.897   5.100   0.623  0.7111 -0.5025  1.3908
  194MOL0     H26185   6.799   5.188   0.737 -0.0840  0.1139  0.1270
  194MOL0     H26186   7.020   5.193   0.784  5.0066 -0.8721 -2.6864
  194MOL0     H26187   6.973   5.361   0.745  0.9108  0.9214 -1.1753
  194MOL0     H26188   7.275   5.302   0.465 -1.1617 -3.0822 -1.4547
  194MOL0     H26189   6.524   5.354   0.452  0.8218  1.1865  0.2852
  194MOL0     H26190   6.287   5.336   0.433 -1.9794  1.0306  0.5642
  195MOL0     O26191   7.872  11.116   3.868  0.1342  0.2376  0.3276
  195MOL0     C26192   7.908  11.024   3.793  0.3755  0.7154  0.0407
  195MOL0     O26193   7.827  10.968   3.695 -0.4321  0.7232  0.2969
  195MOL0     C26194   7.693  11.004   3.696  0.3096 -0.5902  0.0042
  195MOL0     C26195   7.636  11.054   3.575 -1.0035 -0.2087 -0.9896
  195MOL0     C26196   7.501  11.066   3.566 -0.0684  0.1660  0.5883
  195MOL0     C26197   7.407  11.019   3.659  0.0191  0.2537 -0.1503
  195MOL0     O26198   7.272  11.037   3.646  0.4713 -0.3726 -0.1732
  195MOL0     C26199   7.229  11.001   3.513  0.2135  0.4656 -0.1723
  195MOL0     C26200   7.079  11.010   3.504 -0.7921 -0.2535  0.5631
  195MOL0     C26201   7.023  11.143   3.547  0.0308 -0.3182 -0.1030
  195MOL0     C26202   6.889  11.113   3.602  0.2352 -0.0959  0.0043
  195MOL0     C26203   6.812  11.239   3.645  0.4850  0.0460  0.5827
  195MOL0     C26204   6.773  11.337   3.532  0.2222  0.2710  0.1314
  195MOL0     C26205   6.689  11.275   3.408 -0.0774  0.2454 -0.9597
  195MOL0     C26206   6.554  11.204   3.449 -0.5557 -0.0113  0.3171
  195MOL0     N26207   6.477  11.306   3.516 -0.2089 -0.1822 -0.7115
  195MOL0     C26208   6.442  11.425   3.453  0.0150 -0.6146 -0.1636
  195MOL0     C26209   6.370  11.502   3.538 -0.5317 -0.2833 -0.9410
  195MOL0     C26210   6.307  11.631   3.502 -0.6710 -0.5659 -0.3397
  195MOL0     C26211   6.211  11.689   3.607  0.1562  0.0766 -0.2794
  195MOL0     C26212   6.300  11.769   3.707  0.4224 -0.0892 -0.5695
  195MOL0     C26213   6.219  11.838   3.818 -0.2523  0.3424  0.5456
  195MOL0     O26214   6.105  11.914   3.759  0.4176  0.8912  0.7024
  195MOL0     C26215   5.987  11.919   3.834  0.1758 -0.7496  0.4690
  195MOL0     C26216   5.865  11.908   3.768  0.6002  0.3132 -0.6959
  195MOL0     C26217   5.742  11.894   3.833 -0.2430  0.2246 -0.4205
  195MOL0     C26218   5.620  11.910   3.753  0.5979 -0.5463 -0.4426
  195MOL0     C26219   5.736  11.909   3.977 -0.3270  0.4994  0.8549
  195MOL0     C26220   5.612  11.880   4.053 -0.3510  0.1550 -0.5964
  195MOL0     O26221   5.496  11.840   3.985 -0.0072  0.2697 -0.4603
  195MOL0     C26222   5.378  11.810   4.043 -0.5710  0.5045  0.2060
  195MOL0     C26223   5.276  11.794   3.957  1.1883 -0.5047  0.2304
  195MOL0     C26224   5.149  11.754   4.009 -0.7669  0.2806 -0.1252
  195MOL0     C26225   5.132  11.721   4.141 -0.1704 -0.6552  0.1130
  195MOL0     O26226   5.015  11.675   4.183  0.9632  0.5159  0.9569
  195MOL0     C26227   4.981  11.705   4.320 -0.3523  0.5297  0.4681
  195MOL0     C26228   4.835  11.672   4.353  0.0053 -0.4584  0.6111
  195MOL0     C26229   4.729  11.722   4.255  0.0566  0.0860 -0.9134
  195MOL0     C26230   4.706  11.865   4.303  0.4824 -0.1717 -0.5705
  195MOL0     C26231   4.596  11.944   4.220  0.0204  0.7372  0.1713
  195MOL0     C26232   4.502  12.036   4.294 -0.2936 -0.0329  0.8291
  195MOL0     C26233   4.389  12.073   4.204  0.8430 -0.0005  0.1657
  195MOL0     C26234   4.281  12.146   4.288  0.3254 -0.3024  0.0175
  195MOL0    Cl26235   4.122  12.134   4.213  0.0221  0.0752  0.5248
  195MOL0     C26236   5.247  11.730   4.234  0.1436 -0.0210 -0.2535
  195MOL0     C26237   5.370  11.768   4.177 -0.1508 -0.7870 -0.4677
  195MOL0     O26238   5.624  11.896   4.176  0.0403 -0.1523  0.2884
  195MOL0     C26239   5.861  11.921   4.040  0.4542 -0.0653  0.0404
  195MOL0     C26240   5.983  11.912   3.975  1.0092 -0.7147  0.4012
  195MOL0     N26241   6.346  11.422   3.649 -0.5779  0.2472 -0.2480
  195MOL0     N26242   6.409  11.313   3.633  0.1987  0.3103  0.3336
  195MOL0     C26243   7.461  10.960   3.771 -0.5786 -0.6623  0.8388
  195MOL0     C26244   7.605  10.958   3.787  0.0419  0.0462  0.0072
  195MOL0     C26245   8.039  10.972   3.823  0.1469 -0.0105  0.1317
  195MOL0     C26246   8.108  10.884   3.729 -0.2929  0.2240 -0.6852
  195MOL0     C26247   8.242  10.843   3.765  0.0945  0.2734  0.5413
  195MOL0     C26248   8.303  10.868   3.888 -0.1443  0.0763  0.3061
  195MOL0     O26249   8.424  10.810   3.925 -0.0050  0.4858 -0.0646
  195MOL0     C26250   8.482  10.832   4.058  0.0819  0.3872  0.3249
  195MOL0     C26251   8.595  10.927   4.041  0.1337  0.0696  0.1344
  195MOL0     C26252   8.693  10.886   3.926  0.2601 -0.4200 -0.1145
  195MOL0     C26253   8.842  10.863   3.954 -0.8023 -0.6339 -0.8704
  195MOL0     C26254   8.926  10.864   3.830  0.9780 -0.6227  0.9647
  195MOL0     C26255   9.003  10.854   3.735  0.2909 -0.6738  0.6876
  195MOL0     C26256   8.225  10.937   3.983  0.7100  0.5762  0.1124
  195MOL0     C26257   8.104  10.996   3.945 -0.2646 -0.4221 -0.6042
  195MOL0     H26258   7.694  11.068   3.485 -3.3721  2.4947 -2.2742
  195MOL0     H26259   7.459  11.117   3.480 -1.6257  1.9518  2.3140
  195MOL0     H26260   7.277  11.071   3.444  3.8300 -0.1733  1.4837
  195MOL0     H26261   7.260  10.899   3.489 -0.6519  0.0551  0.4100
  195MOL0     H26262   7.056  11.005   3.398 -0.9672  1.0789  0.5255
  195MOL0     H26263   7.030  10.926   3.555  0.0118 -0.1864  1.4795
  195MOL0     H26264   7.085  11.202   3.616 -0.7825  2.3731 -1.5055
  195MOL0     H26265   7.017  11.219   3.468 -1.8804  4.3794  4.0122
  195MOL0     H26266   6.838  11.059   3.522  2.9429 -0.4659 -1.6114
  195MOL0     H26267   6.896  11.052   3.692  0.4423  1.0253  0.7574
  195MOL0     H26268   6.718  11.210   3.692  0.5282  1.1023  1.3701
  195MOL0     H26269   6.863  11.290   3.727  0.6552 -1.5970  1.5415
  195MOL0     H26270   6.726  11.424   3.579  0.4161  0.8354 -0.6948
  195MOL0     H26271   6.866  11.382   3.495  0.5255  0.0144  0.5700
  195MOL0     H26272   6.667  11.356   3.338 -1.6018 -0.5175 -1.4066
  195MOL0     H26273   6.753  11.199   3.363 -1.4513 -1.1259 -0.6839
  195MOL0     H26274   6.576  11.112   3.503 -0.5166 -1.7717 -2.4879
  195MOL0     H26275   6.505  11.178   3.355  2.0307 -2.4707 -0.4989
  195MOL0     H26276   6.448  11.454   3.348 -0.3577 -0.1979 -0.0746
  195MOL0     H26277   6.381  11.704   3.468  0.1043 -2.0724 -2.0258
  195MOL0     H26278   6.252  11.610   3.409 -0.9540  0.8151 -0.5033
  195MOL0     H26279   6.148  11.616   3.658  1.3078 -0.5329  0.3115
  195MOL0     H26280   6.148  11.759   3.551  0.5602 -0.8290 -1.9430
  195MOL0     H26281   6.361  11.849   3.665 -0.2270  2.3118  2.6793
  195MOL0     H26282   6.372  11.698   3.750  1.6345  1.9289  0.9051
  195MOL0     H26283   6.282  11.914   3.864  1.4505  1.5042 -3.3154
  195MOL0     H26284   6.183  11.764   3.891  0.5374  0.4295  1.0322
  195MOL0     H26285   5.866  11.910   3.660 -0.3826 -2.0809 -0.8281
  195MOL0     H26286   5.551  11.979   3.804  0.5933  0.0712 -1.2544
  195MOL0     H26287   5.629  11.965   3.658  1.3504 -1.0911 -0.6957
  195MOL0     H26288   5.575  11.811   3.743  0.7265 -0.5993 -0.5097
  195MOL0     H26289   5.271  11.818   3.851 -0.0594 -3.5109 -0.5118
  195MOL0     H26290   5.072  11.750   3.932 -3.1837 -0.6479  2.1910
  195MOL0     H26291   5.035  11.641   4.391 -1.2469  1.1392  1.7163
  195MOL0     H26292   4.999  11.808   4.350  1.8251  0.7003 -1.1796
  195MOL0     H26293   4.830  11.563   4.343  0.1908 -0.5271  1.2164
  195MOL0     H26294   4.811  11.699   4.456  1.8398  0.8432  0.7457
  195MOL0     H26295   4.639  11.659   4.262  0.1631  0.1096  1.8159
  195MOL0     H26296   4.766  11.722   4.152 -3.4864  1.5777 -2.3684
  195MOL0     H26297   4.674  11.856   4.407 -0.4326 -1.0792 -0.9064
  195MOL0     H26298   4.786  11.938   4.315 -0.2351  0.2177  2.7412
  195MOL0     H26299   4.538  11.866   4.171  2.2660 -1.6328  1.0458
  195MOL0     H26300   4.652  12.003   4.147  1.9115 -0.5981  0.4475
  195MOL0     H26301   4.471  11.986   4.386 -0.0370  1.4187  1.7462
  195MOL0     H26302   4.570  12.116   4.325  3.2018 -2.9609  1.3133
  195MOL0     H26303   4.344  11.980   4.168  1.0515 -0.0554  0.0421
  195MOL0     H26304   4.424  12.131   4.118 -0.5727 -1.5820 -1.5641
  195MOL0     H26305   4.301  12.254   4.293  1.1912 -0.3749 -1.2575
  195MOL0     H26306   4.267  12.111   4.390 -0.9556  1.2518  0.4178
  195MOL0     H26307   5.248  11.696   4.337  1.6010 -2.7466 -1.0654
  195MOL0     H26308   5.451  11.772   4.249 -1.5134 -2.4015  1.2768
  195MOL0     H26309   5.865  11.936   4.148 -0.0304  2.2389 -0.1935
  195MOL0     H26310   6.075  11.928   4.030  1.4617  2.7720 -1.1486
  195MOL0     H26311   7.394  10.916   3.844 -0.7293 -3.7934 -1.0204
  195MOL0     H26312   7.658  10.922   3.875 -0.4450  0.6107  0.5418
  195MOL0     H26313   8.070  10.860   3.630  0.2077 -2.0526 -0.3923
  195MOL0     H26314   8.298  10.784   3.692  0.3494  1.5885 -0.3776
  195MOL0     H26315   8.408  10.849   4.137 -1.4995 -1.5420 -0.6534
  195MOL0     H26316   8.531  10.738   4.086 -2.1828 -0.0100  3.4637
  195MOL0     H26317   8.657  10.927   4.132  0.6769 -0.3967 -0.2300
  195MOL0     H26318   8.554  11.028   4.032 -5.1371 -1.5861  1.7643
  195MOL0     H26319   8.682  10.963   3.849 -1.5106  0.6047  1.0999
  195MOL0     H26320   8.670  10.792   3.874  3.6171 -0.7016 -1.3803
  195MOL0     H26321   8.862  10.768   4.004  1.1920  0.9498  1.6215
  195MOL0     H26322   8.877  10.936   4.028 -0.4111 -0.5559 -1.1300
  195MOL0     H26323   9.080  10.846   3.662 -0.8124  0.2156 -0.6232
  195MOL0     H26324   8.243  10.950   4.089 -1.2171  0.0867  0.5566
  195MOL0     H26325   8.053  11.054   4.022  2.4953  0.6199  0.5535
  196MOL0     O26326  10.936   0.612   2.854  0.5336  0.0707  0.1294
  196MOL0     C26327  10.999   0.718   2.867  0.0410  0.4217 -0.5460
  196MOL0     O26328  10.952   0.828   2.924 -0.6289 -0.5357  0.5789
  196MOL0     C26329  10.825   0.837   2.971  0.1225  0.3813  0.1437
  196MOL0     C26330  10.810   0.839   3.111 -0.3708  0.3815 -1.0540
  196MOL0     C26331  10.688   0.852   3.173  0.0848 -0.8783 -0.1956
  196MOL0     C26332  10.576   0.851   3.096 -0.2398  0.4488 -0.1981
  196MOL0     O26333  10.453   0.865   3.160 -0.3566  0.7249 -0.4686
  196MOL0     C26334  10.335   0.864   3.085  0.0662 -0.0179  0.4046
  196MOL0     C26335  10.227   0.889   3.192  0.1849 -0.3752 -0.1317
  196MOL0     C26336  10.096   0.946   3.124 -0.4938 -0.7812  0.1618
  196MOL0     C26337   9.980   0.966   3.226  0.0797  0.1047  0.6561
  196MOL0     C26338   9.859   1.033   3.149 -0.1753  0.0044 -0.3558
  196MOL0     C26339   9.894   1.169   3.096 -0.1029  0.0576  0.0274
  196MOL0     C26340   9.776   1.259   3.053  0.1284 -0.1164 -0.1821
  196MOL0     C26341   9.838   1.400   3.019 -0.4044  0.8429  0.1107
  196MOL0     N26342   9.734   1.490   2.971  0.0941  0.1101 -0.4838
  196MOL0     C26343   9.736   1.624   2.997  0.6727  0.6323 -1.0364
  196MOL0     C26344   9.622   1.666   2.956  0.5720  0.1440  0.0329
  196MOL0     C26345   9.572   1.808   2.949 -0.8104  0.2252  0.5764
  196MOL0     C26346   9.678   1.901   2.883  0.7719  0.8598  0.6178
  196MOL0     C26347   9.720   1.857   2.740 -0.5676 -0.9249 -0.5381
  196MOL0     C26348   9.587   1.858   2.654  0.1000  0.4357 -0.6089
  196MOL0     O26349   9.615   1.862   2.511  0.6515 -0.1650  0.8574
  196MOL0     C26350   9.501   1.871   2.426 -0.8337 -0.2814 -0.4792
  196MOL0     C26351   9.369   1.826   2.463  0.0343  0.2923 -0.3614
  196MOL0     C26352   9.267   1.816   2.364  0.0076  0.1221 -0.5528
  196MOL0     C26353   9.134   1.754   2.396 -0.9675  0.8950  0.7221
  196MOL0     C26354   9.296   1.861   2.235  0.2760 -0.3716  0.8089
  196MOL0     C26355   9.191   1.880   2.131 -0.7696  0.3254  1.0762
  196MOL0     O26356   9.228   1.856   2.001  0.2603  0.2067 -0.2804
  196MOL0     C26357   9.128   1.835   1.902 -0.1574 -0.1675  0.4857
  196MOL0     C26358   9.149   1.883   1.773 -0.4423 -0.9953  0.0488
  196MOL0     C26359   9.047   1.862   1.670  0.2798  1.0007  0.2810
  196MOL0     C26360   8.934   1.786   1.702 -0.3552 -0.4424  0.9606
  196MOL0     O26361   8.833   1.767   1.611 -0.1704 -1.0587  0.9336
  196MOL0     C26362   8.733   1.856   1.623  0.4973  0.7009 -0.5243
  196MOL0     C26363   8.708   1.952   1.497  0.1127 -0.3064  0.1833
  196MOL0     C26364   8.575   2.029   1.529 -0.6773 -0.1247 -0.0772
  196MOL0     C26365   8.546   2.128   1.413 -0.6004  0.2032  0.5555
  196MOL0     C26366   8.418   2.206   1.445 -1.3038  0.1621 -0.2499
  196MOL0     C26367   8.395   2.305   1.335 -0.4081  0.3677  0.1221
  196MOL0     C26368   8.271   2.385   1.363  0.5869 -0.4896 -0.6467
  196MOL0     C26369   8.267   2.506   1.268  0.0597 -0.2708 -0.1684
  196MOL0    Cl26370   8.120   2.615   1.287  0.1995 -0.2423  0.2888
  196MOL0     C26371   8.916   1.737   1.829  0.4639  0.1405  0.2364
  196MOL0     C26372   9.012   1.751   1.927  0.1850 -0.0529  0.4648
  196MOL0     O26373   9.074   1.907   2.166  0.1418 -0.1440 -0.4131
  196MOL0     C26374   9.423   1.904   2.197  0.1409 -0.1665 -0.0222
  196MOL0     C26375   9.528   1.905   2.289 -0.0412 -0.4267 -0.5091
  196MOL0     N26376   9.556   1.566   2.894  0.2796 -0.4111 -0.5517
  196MOL0     N26377   9.610   1.455   2.921  0.6506  0.2061 -0.2066
  196MOL0     C26378  10.584   0.833   2.953  0.0295 -0.1347 -0.3254
  196MOL0     C26379  10.713   0.819   2.889 -0.6383  0.2573 -0.5194
  196MOL0     C26380  11.137   0.717   2.815  1.0399 -1.2016 -0.4245
  196MOL0     C26381  11.226   0.824   2.839 -0.4545 -0.1910 -0.8838
  196MOL0     C26382  11.354   0.844   2.780  0.5013 -1.0243  0.0005
  196MOL0     C26383  11.397   0.750   2.690  0.3013  0.2510 -0.1107
  196MOL0     O26384  11.517   0.745   2.621 -0.5903 -0.1592 -0.3417
  196MOL0     C26385  11.632   0.814   2.681 -0.1029 -0.0180  0.4599
  196MOL0     C26386  11.759   0.757   2.621 -0.1615 -0.7399  0.4027
  196MOL0     C26387  11.896   0.812   2.669 -1.1979  0.5995  0.0205
  196MOL0     C26388  11.906   0.962   2.697  0.5538  0.6074  0.1880
  196MOL0     C26389  11.842   0.989   2.821  0.6420  0.5852  0.7022
  196MOL0     C26390  11.804   0.993   2.936 -0.1360  1.1102 -0.5395
  196MOL0     C26391  11.321   0.629   2.674 -0.1095 -0.6577 -0.1141
  196MOL0     C26392  11.190   0.620   2.737  0.7057  0.0272  0.8607
  196MOL0     H26393  10.902   0.842   3.169 -2.0523  1.9197  1.7468
  196MOL0     H26394  10.674   0.861   3.281  0.8033 -0.1810 -0.1428
  196MOL0     H26395  10.336   0.949   3.016  1.1002 -0.6067 -0.3333
  196MOL0     H26396  10.324   0.768   3.034  1.4586  0.1400 -0.2494
  196MOL0     H26397  10.208   0.797   3.247  0.9618 -0.7003 -0.4020
  196MOL0     H26398  10.261   0.962   3.266 -1.1311 -0.3409  0.4800
  196MOL0     H26399  10.123   1.038   3.071  0.6572  0.5495  2.8387
  196MOL0     H26400  10.076   0.868   3.050  0.8191 -0.3449 -0.6950
  196MOL0     H26401   9.948   0.869   3.265 -2.4704  1.0909  1.1625
  196MOL0     H26402  10.015   1.034   3.304  0.5829  0.5769  0.0342
  196MOL0     H26403   9.830   0.958   3.075 -1.1917 -2.5038  2.3669
  196MOL0     H26404   9.777   1.046   3.220  0.2568 -0.5820  0.2578
  196MOL0     H26405   9.943   1.218   3.181 -2.8391 -1.4494  2.6364
  196MOL0     H26406   9.958   1.159   3.008 -0.2028  2.3258 -0.3662
  196MOL0     H26407   9.729   1.211   2.967  1.7214 -0.9247 -0.6456
  196MOL0     H26408   9.695   1.271   3.126 -1.8205  0.6571 -2.3318
  196MOL0     H26409   9.920   1.390   2.948  0.1510 -0.9378  0.9326
  196MOL0     H26410   9.875   1.441   3.113 -2.1154  1.8578  0.3884
  196MOL0     H26411   9.823   1.667   3.045 -0.6373 -0.4656  2.7102
  196MOL0     H26412   9.475   1.811   2.899 -0.3386  1.1279 -0.3154
  196MOL0     H26413   9.564   1.838   3.054  0.8494  0.1298  0.7575
  196MOL0     H26414   9.764   1.913   2.949  1.3497 -1.8431  0.4911
  196MOL0     H26415   9.630   1.999   2.875 -0.8407  0.1602  1.2757
  196MOL0     H26416   9.761   1.756   2.742 -0.9151 -1.1251 -1.9549
  196MOL0     H26417   9.803   1.921   2.706 -1.5444  0.9551  0.4358
  196MOL0     H26418   9.536   1.949   2.687  1.0553 -0.2645  3.1741
  196MOL0     H26419   9.522   1.780   2.695  1.2150  0.7989  2.0309
  196MOL0     H26420   9.346   1.813   2.569 -1.4843  1.3062 -0.5433
  196MOL0     H26421   9.057   1.831   2.390 -0.9028  1.2628  3.2099
  196MOL0     H26422   9.105   1.686   2.315 -0.9505 -0.0872  1.5143
  196MOL0     H26423   9.131   1.703   2.493  1.1253 -2.3897 -0.7501
  196MOL0     H26424   9.240   1.939   1.752 -1.7633  0.7657 -1.3038
  196MOL0     H26425   9.058   1.917   1.578 -0.6051  0.8289  0.0619
  196MOL0     H26426   8.638   1.803   1.637 -0.0530  1.4965 -1.1217
  196MOL0     H26427   8.744   1.921   1.710  0.2867 -1.1438  0.9356
  196MOL0     H26428   8.800   2.009   1.483  1.1492 -2.0817 -0.6254
  196MOL0     H26429   8.696   1.902   1.400 -2.3158  0.3110  0.0914
  196MOL0     H26430   8.594   2.096   1.613  1.1079 -0.2099 -0.3813
  196MOL0     H26431   8.495   1.960   1.559 -1.6398 -0.8951 -3.8689
  196MOL0     H26432   8.626   2.202   1.401  1.2488 -1.5942  1.1475
  196MOL0     H26433   8.546   2.075   1.318  0.4026  0.8136  0.2019
  196MOL0     H26434   8.434   2.268   1.533 -1.0377  1.3831 -1.1180
  196MOL0     H26435   8.337   2.137   1.467 -0.3483 -0.7762  0.4250
  196MOL0     H26436   8.480   2.372   1.322  0.2540 -0.4362  0.2201
  196MOL0     H26437   8.380   2.249   1.242 -0.9164 -2.2264  1.6542
  196MOL0     H26438   8.270   2.419   1.467  0.8307 -0.6790 -0.5838
  196MOL0     H26439   8.181   2.323   1.359  0.3755 -0.2490  0.2395
  196MOL0     H26440   8.276   2.475   1.164  0.4468 -0.0471 -0.2017
  196MOL0     H26441   8.360   2.561   1.283  1.8042 -2.8820 -0.7650
  196MOL0     H26442   8.823   1.692   1.862  1.6343 -1.0460  2.0697
  196MOL0     H26443   8.991   1.715   2.027 -3.8759  2.7979  0.8798
  196MOL0     H26444   9.440   1.916   2.091 -1.4047 -1.1448 -0.4180
  196MOL0     H26445   9.621   1.950   2.255  1.2755  0.2669  3.4935
  196MOL0     H26446  10.497   0.828   2.889 -0.4903 -0.5506  0.4100
  196MOL0     H26447  10.712   0.810   2.781 -0.4841  1.9201 -0.6840
  196MOL0     H26448  11.186   0.904   2.900  0.2590  0.5023 -1.3032
  196MOL0     H26449  11.403   0.937   2.809  1.6953 -0.8214 -2.3869
  196MOL0     H26450  11.638   0.921   2.659  3.1164 -0.5571 -1.9990
  196MOL0     H26451  11.639   0.806   2.790 -4.9686  2.7174  1.2882
  196MOL0     H26452  11.750   0.766   2.512 -0.8151 -0.8535  0.4442
  196MOL0     H26453  11.760   0.650   2.645  1.4828 -0.7439  0.4187
  196MOL0     H26454  11.972   0.787   2.594 -2.2450  0.3928 -1.0009
  196MOL0     H26455  11.927   0.759   2.760  3.0843 -0.3777 -1.7374
  196MOL0     H26456  11.857   1.011   2.612  1.7041 -2.5111 -2.4942
  196MOL0     H26457  12.005   1.007   2.685 -0.3133  2.4419 -0.3765
  196MOL0     H26458  11.781   0.998   3.040 -0.3192 -2.9230 -0.2431
  196MOL0     H26459  11.346   0.544   2.611 -0.9612  0.3018 -1.8031
  196MOL0     H26460  11.134   0.528   2.737  1.1329 -0.3166 -2.1838
  197MOL0     O26461   9.434   2.183   6.984  0.6041  0.0221  0.0790
  197MOL0     C26462   9.526   2.103   6.968  0.4481 -0.3095 -0.3228
  197MOL0     O26463   9.515   1.974   6.913 -0.5799  0.1624  0.2466
  197MOL0     C26464   9.396   1.942   6.868  1.0197  0.2242 -0.2481
  197MOL0     C26465   9.347   1.989   6.746 -0.1647 -1.0846 -0.4901
  197MOL0     C26466   9.212   1.968   6.702 -0.5767  0.2391 -0.5897
  197MOL0     C26467   9.134   1.886   6.778 -0.3560  0.6184 -1.2809
  197MOL0     O26468   9.007   1.863   6.740 -0.2050 -0.2110 -0.2016
  197MOL0     C26469   8.896   1.922   6.818 -0.5614 -0.0143  0.8733
  197MOL0     C26470   8.854   2.050   6.745  0.5740  0.1084 -0.0768
  197MOL0     C26471   8.715   2.102   6.798  0.2548  0.7031  0.5434
  197MOL0     C26472   8.595   2.022   6.727 -0.4060 -0.1421  0.4378
  197MOL0     C26473   8.452   2.094   6.741  0.1906  0.0971  0.0148
  197MOL0     C26474   8.444   2.208   6.655  0.6327 -0.8750 -0.1796
  197MOL0     C26475   8.317   2.288   6.693 -0.0427  0.2826 -0.0097
  197MOL0     C26476   8.310   2.411   6.596  0.2492 -0.1517  0.5031
  197MOL0     N26477   8.348   2.392   6.452  0.5390 -0.7456 -0.2272
  197MOL0     C26478   8.294   2.309   6.359 -0.3667 -0.7622 -0.1498
  197MOL0     C26479   8.361   2.331   6.239  0.0899  0.6704 -0.1670
  197MOL0     C26480   8.317   2.264   6.108 -0.2738  0.3842 -0.5212
  197MOL0     C26481   8.223   2.356   6.036  0.8043 -0.3216 -0.4287
  197MOL0     C26482   8.150   2.284   5.912 -0.0438 -0.3748 -0.1775
  197MOL0     C26483   8.057   2.376   5.836  0.0844  0.1246  0.8024
  197MOL0     O26484   7.948   2.398   5.928 -0.4661  0.0550  0.0302
  197MOL0     C26485   7.830   2.454   5.874 -0.5363  0.2769  0.0325
  197MOL0     C26486   7.815   2.489   5.745 -0.1007 -0.1057  0.7420
  197MOL0     C26487   7.686   2.523   5.690 -0.7823  0.7094 -0.0715
  197MOL0     C26488   7.688   2.567   5.546 -0.0170 -0.2509 -0.3487
  197MOL0     C26489   7.568   2.526   5.772  0.4213 -0.2381 -0.2934
  197MOL0     C26490   7.428   2.548   5.721  0.2320 -1.0235 -0.2719
  197MOL0     O26491   7.326   2.531   5.817 -0.2029 -0.0958  0.2143
  197MOL0     C26492   7.194   2.535   5.786  0.9296  0.8378 -0.1762
  197MOL0     C26493   7.135   2.500   5.664 -0.4027 -0.1507 -0.3489
  197MOL0     C26494   7.004   2.529   5.645  0.6089 -0.7918 -0.2350
  197MOL0     C26495   6.918   2.584   5.743  0.4822  0.6912 -1.3382
  197MOL0     O26496   6.780   2.608   5.729  0.0691  0.0013 -0.3582
  197MOL0     C26497   6.726   2.659   5.608 -0.2242  0.3452  0.2772
  197MOL0     C26498   6.595   2.743   5.635 -0.0101 -0.6833 -0.4167
  197MOL0     C26499   6.536   2.778   5.497  0.8825  0.4218 -0.1765
  197MOL0     C26500   6.400   2.833   5.516  0.7614 -0.1325 -0.4921
  197MOL0     C26501   6.275   2.743   5.530 -0.2183 -0.1227  0.1481
  197MOL0     C26502   6.251   2.663   5.409  0.1582  0.1917 -0.1173
  197MOL0     C26503   6.112   2.578   5.416 -0.4144 -0.2262 -0.5677
  197MOL0     C26504   6.116   2.472   5.311  0.8812  0.3182 -0.5392
  197MOL0    Cl26505   5.967   2.390   5.368 -0.0724  0.1118 -0.0633
  197MOL0     C26506   6.974   2.586   5.871  0.5294 -0.0052 -0.2879
  197MOL0     C26507   7.110   2.561   5.897  0.9385 -0.9771 -0.1760
  197MOL0     O26508   7.408   2.552   5.600 -0.0596 -0.9121 -0.1448
  197MOL0     C26509   7.587   2.491   5.909 -0.7819  0.5402  1.1983
  197MOL0     C26510   7.717   2.454   5.958 -0.4089 -0.3897  0.8482
  197MOL0     N26511   8.465   2.412   6.276  0.0002 -0.2762  0.5405
  197MOL0     N26512   8.447   2.461   6.394  0.2209 -0.1113  0.1698
  197MOL0     C26513   9.187   1.828   6.896 -0.3882  0.2125  0.7322
  197MOL0     C26514   9.312   1.865   6.940 -1.0891 -0.5029  0.3406
  197MOL0     C26515   9.658   2.155   7.015  0.2308 -1.0998 -0.5872
  197MOL0     C26516   9.781   2.100   6.969  0.1398 -0.5451  0.1098
  197MOL0     C26517   9.902   2.167   6.993 -0.1735 -0.0870 -0.0467
  197MOL0     C26518   9.904   2.281   7.076  0.1017  0.0893  1.0361
  197MOL0     O26519  10.020   2.348   7.111 -1.0053 -0.1416 -0.0640
  197MOL0     C26520  10.142   2.278   7.114  0.0769  0.0772  0.6210
  197MOL0     C26521  10.255   2.381   7.110  0.3462  0.2840 -0.2050
  197MOL0     C26522  10.258   2.461   6.978  0.0437 -0.0367 -0.1731
  197MOL0     C26523  10.374   2.570   6.962  0.4203  0.7530  0.3007
  197MOL0     C26524  10.491   2.534   7.043  0.0807 -0.0049 -0.1488
  197MOL0     C26525  10.575   2.494   7.122 -0.4311  0.0608 -0.4872
  197MOL0     C26526   9.788   2.331   7.118 -0.1539  0.2735 -0.1210
  197MOL0     C26527   9.665   2.277   7.095 -0.3792 -0.2961 -0.7249
  197MOL0     H26528   9.418   2.051   6.691  3.5803 -0.2599  4.5885
  197MOL0     H26529   9.178   2.016   6.611 -0.8080 -0.2879 -0.7859
  197MOL0     H26530   8.809   1.856   6.825 -1.0103  0.7003  2.5367
  197MOL0     H26531   8.931   1.970   6.910  2.3283  6.7279 -2.9887
  197MOL0     H26532   8.932   2.124   6.761  0.7772  0.1454 -1.1358
  197MOL0     H26533   8.841   2.031   6.638 -0.0711 -0.3333  0.0726
  197MOL0     H26534   8.712   2.103   6.908  0.7580  1.7932  0.5643
  197MOL0     H26535   8.708   2.208   6.773 -1.7402  0.4930  0.0615
  197MOL0     H26536   8.612   2.013   6.619 -3.4780 -2.1527  0.0130
  197MOL0     H26537   8.608   1.921   6.769  2.5395  0.7315  1.9062
  197MOL0     H26538   8.368   2.025   6.725 -0.1281  0.3635  0.4810
  197MOL0     H26539   8.456   2.114   6.849  2.3902 -1.8250  0.3521
  197MOL0     H26540   8.528   2.277   6.664  0.2735 -0.4788  0.2138
  197MOL0     H26541   8.433   2.178   6.550 -1.4330 -1.3991  0.1291
  197MOL0     H26542   8.229   2.226   6.675 -0.0225 -0.2060  1.4792
  197MOL0     H26543   8.319   2.325   6.796 -1.3268  1.6705 -0.4513
  197MOL0     H26544   8.379   2.489   6.629 -1.3111  1.0000  1.2043
  197MOL0     H26545   8.211   2.459   6.602  0.8778  1.0563  2.0854
  197MOL0     H26546   8.208   2.248   6.387  1.1840 -2.0227  2.2245
  197MOL0     H26547   8.403   2.249   6.042 -0.3384  0.9897 -0.7474
  197MOL0     H26548   8.264   2.172   6.131 -0.3925  0.2473 -1.3283
  197MOL0     H26549   8.279   2.442   5.999  1.3201 -0.6076 -0.3269
  197MOL0     H26550   8.152   2.396   6.109  3.1401 -0.8080  2.2583
  197MOL0     H26551   8.090   2.202   5.952 -1.3468  0.4475 -0.3567
  197MOL0     H26552   8.231   2.245   5.850  1.6887 -0.6083  2.1266
  197MOL0     H26553   8.027   2.316   5.750 -1.6214  1.1220  0.6511
  197MOL0     H26554   8.096   2.470   5.797  0.3195 -1.0177 -1.9415
  197MOL0     H26555   7.898   2.486   5.675 -2.0652 -1.3030 -1.6847
  197MOL0     H26556   7.679   2.481   5.479  2.0165 -2.3848  1.8955
  197MOL0     H26557   7.605   2.634   5.521  0.3039 -0.4613 -2.0655
  197MOL0     H26558   7.783   2.621   5.539  1.1211 -0.8374  5.3757
  197MOL0     H26559   7.192   2.463   5.580  2.0007  1.5660  0.4210
  197MOL0     H26560   6.964   2.497   5.549  0.2508 -2.1766  0.3544
  197MOL0     H26561   6.796   2.725   5.556 -2.7081  1.4662 -1.7989
  197MOL0     H26562   6.706   2.570   5.547  0.0678 -0.2233  0.9906
  197MOL0     H26563   6.521   2.679   5.685  0.0428 -1.1278 -0.8987
  197MOL0     H26564   6.607   2.840   5.685 -2.4294 -0.7782  0.5121
  197MOL0     H26565   6.533   2.683   5.443 -0.4907  0.3253  0.0277
  197MOL0     H26566   6.590   2.855   5.441 -0.1598  1.3226  0.0233
  197MOL0     H26567   6.410   2.893   5.607 -1.1109 -0.1831 -0.2248
  197MOL0     H26568   6.381   2.905   5.436  4.3227  2.8779  1.0815
  197MOL0     H26569   6.191   2.809   5.550 -2.1722 -2.6547  0.9297
  197MOL0     H26570   6.287   2.671   5.612  0.3814  0.9724  1.0489
  197MOL0     H26571   6.223   2.726   5.324 -1.0957 -0.5235 -0.2654
  197MOL0     H26572   6.337   2.603   5.379 -0.2103 -1.0000  1.1161
  197MOL0     H26573   6.027   2.647   5.411 -0.1645  0.1192 -0.1525
  197MOL0     H26574   6.114   2.517   5.507  1.2652 -0.5166 -0.7657
  197MOL0     H26575   6.199   2.401   5.306 -1.6094 -2.6883 -2.0978
  197MOL0     H26576   6.109   2.523   5.214  1.8068 -2.0241 -1.9289
  197MOL0     H26577   6.901   2.621   5.943  0.0034 -1.9188  0.1564
  197MOL0     H26578   7.142   2.567   6.000  3.6493 -5.1739 -0.4898
  197MOL0     H26579   7.512   2.475   5.986  1.8562 -2.1197  3.4947
  197MOL0     H26580   7.729   2.411   6.057 -1.5027 -0.9580  0.7451
  197MOL0     H26581   9.129   1.755   6.953 -1.1654 -0.0203 -0.3262
  197MOL0     H26582   9.355   1.833   7.035  0.4109  0.0707 -0.1070
  197MOL0     H26583   9.777   2.020   6.896  2.2514  1.7258 -2.7072
  197MOL0     H26584   9.993   2.124   6.952 -1.0025 -2.1175  0.1059
  197MOL0     H26585  10.148   2.226   7.211  0.7532 -1.1356 -0.0441
  197MOL0     H26586  10.151   2.199   7.038  0.0507 -0.1620  0.8643
  197MOL0     H26587  10.348   2.328   7.132 -1.5226 -2.2861  2.1369
  197MOL0     H26588  10.242   2.452   7.192  0.5268  0.4635 -0.3307
  197MOL0     H26589  10.164   2.515   6.961 -0.1799 -1.1089 -2.8580
  197MOL0     H26590  10.258   2.390   6.894 -1.2697  0.3097 -0.4999
  197MOL0     H26591  10.332   2.665   6.994  3.5216  2.1442  0.5999
  197MOL0     H26592  10.399   2.583   6.857 -1.0796  0.2323 -0.1416
  197MOL0     H26593  10.652   2.475   7.194 -0.2427  2.4997  0.0359
  197MOL0     H26594   9.787   2.424   7.175  0.3501  0.5446 -0.5485
  197MOL0     H26595   9.578   2.335   7.121 -1.2732 -0.9615 -2.0803
  198MOL0     O26596   4.452   2.022   5.145  0.0090 -0.4001  0.1585
  198MOL0     C26597   4.502   1.917   5.177  0.1337 -0.7161 -0.8565
  198MOL0     O26598   4.444   1.791   5.176  0.3242 -0.5212  0.6257
  198MOL0     C26599   4.314   1.770   5.152  0.5971 -0.0192  0.4176
  198MOL0     C26600   4.226   1.858   5.081 -0.2158  0.2493  0.1037
  198MOL0     C26601   4.086   1.829   5.067 -0.5022 -0.4846 -0.6317
  198MOL0     C26602   4.032   1.707   5.112 -0.2078 -0.6639  0.1530
  198MOL0     O26603   3.903   1.694   5.079  0.2207 -0.9692 -0.0827
  198MOL0     C26604   3.839   1.567   5.113  0.7897 -0.8364 -0.0255
  198MOL0     C26605   3.685   1.570   5.085  0.7060  0.4044 -0.2473
  198MOL0     C26606   3.640   1.425   5.062  0.6628 -0.1408  0.3161
  198MOL0     C26607   3.487   1.396   5.049  0.5965 -0.1011 -0.5078
  198MOL0     C26608   3.418   1.446   4.918 -0.2459 -0.3315 -0.2325
  198MOL0     C26609   3.270   1.396   4.883 -0.5260 -1.4684  0.0098
  198MOL0     C26610   3.178   1.432   5.000 -0.5526 -0.2960 -0.4213
  198MOL0     C26611   3.178   1.578   5.025 -0.2971 -1.1633  0.3185
  198MOL0     N26612   3.070   1.618   5.108 -0.4377 -0.5745  0.6058
  198MOL0     C26613   3.016   1.547   5.214  0.9345 -0.3248 -0.3385
  198MOL0     C26614   2.895   1.609   5.238  0.0180 -0.3283 -0.0070
  198MOL0     C26615   2.796   1.547   5.340 -0.7349 -0.5700 -0.4574
  198MOL0     C26616   2.672   1.639   5.369 -0.1657  0.2353  0.2022
  198MOL0     C26617   2.564   1.651   5.252 -0.5888  0.0187 -0.2775
  198MOL0     C26618   2.436   1.694   5.315 -0.0927 -0.4128 -0.1350
  198MOL0     O26619   2.341   1.719   5.212  0.8515  0.2041  0.2059
  198MOL0     C26620   2.220   1.767   5.247  1.1786  0.1042  0.2039
  198MOL0     C26621   2.128   1.796   5.143 -0.1115  0.5179  0.2587
  198MOL0     C26622   2.000   1.854   5.154 -0.8359  0.5988 -0.0883
  198MOL0     C26623   1.930   1.896   5.026 -0.0040  0.4911 -0.4827
  198MOL0     C26624   1.947   1.871   5.289  0.1721 -0.7820 -0.3450
  198MOL0     C26625   1.813   1.934   5.316 -0.1289  0.2082  0.1806
  198MOL0     O26626   1.723   1.947   5.211  0.1506 -0.6637  0.5038
  198MOL0     C26627   1.617   2.029   5.230  0.0885  0.0362 -0.4813
  198MOL0     C26628   1.613   2.162   5.193 -0.1771  0.8341  0.4272
  198MOL0     C26629   1.501   2.242   5.213 -0.2836  0.4266  0.3538
  198MOL0     C26630   1.389   2.192   5.280 -0.7244  0.0925 -0.1645
  198MOL0     O26631   1.284   2.282   5.308 -0.1522 -0.1986 -1.0768
  198MOL0     C26632   1.293   2.424   5.277 -0.1211 -0.1666 -0.0869
  198MOL0     C26633   1.170   2.499   5.325  0.7015 -0.0058  0.5603
  198MOL0     C26634   1.184   2.648   5.296  0.1704  0.4811 -0.0201
  198MOL0     C26635   1.060   2.732   5.321  0.1688 -0.8525  0.2278
  198MOL0     C26636   1.093   2.880   5.313 -0.4151  0.6946 -0.5290
  198MOL0     C26637   1.110   2.928   5.172  0.0204  0.0111  0.3307
  198MOL0     C26638   1.152   3.072   5.186 -0.2976  0.2097 -1.0555
  198MOL0     C26639   1.169   3.137   5.040 -0.4377 -0.3483  0.2606
  198MOL0    Cl26640   1.298   3.068   4.943 -0.2265  0.0272  0.6810
  198MOL0     C26641   1.390   2.057   5.312  0.0706 -0.4171 -0.4906
  198MOL0     C26642   1.499   1.975   5.291  0.1273  0.0912 -0.6708
  198MOL0     O26643   1.788   1.980   5.428  0.0187  0.6270  0.0431
  198MOL0     C26644   2.033   1.838   5.389 -0.2758  0.4657  0.3224
  198MOL0     C26645   2.168   1.792   5.372 -0.1086  0.5370  0.6327
  198MOL0     N26646   2.878   1.709   5.147  0.2099  0.1511 -0.5857
  198MOL0     N26647   2.980   1.715   5.072  0.2395  0.7651 -0.2450
  198MOL0     C26648   4.121   1.617   5.172  0.4380  0.9765  0.1305
  198MOL0     C26649   4.254   1.653   5.199 -1.0492  0.3908 -0.1921
  198MOL0     C26650   4.641   1.928   5.239  0.0254  1.1231  0.5812
  198MOL0     C26651   4.709   2.050   5.247  0.9022  0.6983 -0.6135
  198MOL0     C26652   4.837   2.043   5.306  0.1325  0.5328 -0.5364
  198MOL0     C26653   4.908   1.927   5.351  0.3225 -0.3193 -0.1087
  198MOL0     O26654   5.043   1.937   5.401  0.6283  0.2880  0.3706
  198MOL0     C26655   5.110   1.819   5.458  0.4961 -0.6121 -0.5056
  198MOL0     C26656   5.198   1.868   5.570  0.5209 -0.0861  0.4374
  198MOL0     C26657   5.324   1.782   5.584  0.9100 -0.8787 -0.4719
  198MOL0     C26658   5.388   1.818   5.723 -0.5992  0.3825  0.0496
  198MOL0     C26659   5.520   1.749   5.736  0.0172  0.6417  0.3717
  198MOL0     C26660   5.622   1.684   5.719  0.3122 -0.2115  0.6946
  198MOL0     C26661   4.826   1.815   5.356  0.3795  0.0572 -0.3569
  198MOL0     C26662   4.697   1.812   5.301 -0.5992 -0.5308  0.1222
  198MOL0     H26663   4.268   1.941   5.026  0.0133 -0.7347 -1.2649
  198MOL0     H26664   4.034   1.905   5.011  0.4452  1.0278  0.4651
  198MOL0     H26665   3.879   1.484   5.055 -0.6230 -1.2701 -0.4380
  198MOL0     H26666   3.858   1.550   5.219  0.7896 -2.2242 -0.2270
  198MOL0     H26667   3.630   1.616   5.167  2.8400  1.2383  0.7922
  198MOL0     H26668   3.675   1.619   4.987  0.5141 -1.6150 -1.2856
  198MOL0     H26669   3.692   1.363   4.988 -0.7124 -2.0468  0.8888
  198MOL0     H26670   3.668   1.374   5.155 -1.2508  0.2151  1.1336
  198MOL0     H26671   3.479   1.287   5.060  1.8731 -0.0635  1.0933
  198MOL0     H26672   3.429   1.449   5.125 -0.3442  1.7096 -2.3802
  198MOL0     H26673   3.424   1.555   4.919 -1.9831 -0.0690  4.4115
  198MOL0     H26674   3.477   1.408   4.833 -1.3132 -1.7894 -0.3613
  198MOL0     H26675   3.244   1.436   4.785  1.2926 -0.1550 -0.0042
  198MOL0     H26676   3.277   1.288   4.866  0.8265 -1.3115 -0.6026
  198MOL0     H26677   3.078   1.397   4.972 -2.3907  2.2857  2.2089
  198MOL0     H26678   3.202   1.390   5.098 -0.0494  3.3752  1.1919
  198MOL0     H26679   3.171   1.633   4.931 -1.1994 -1.6673  0.0755
  198MOL0     H26680   3.270   1.612   5.073 -0.7651  0.4097  0.1374
  198MOL0     H26681   3.060   1.466   5.271  1.9123  0.2704 -0.2276
  198MOL0     H26682   2.760   1.453   5.297 -1.6990  0.3426 -1.7130
  198MOL0     H26683   2.851   1.523   5.431 -0.2746 -0.0631 -0.5928
  198MOL0     H26684   2.714   1.735   5.400  0.9141 -0.2549  0.3162
  198MOL0     H26685   2.631   1.595   5.460  0.8814 -1.4741 -0.1122
  198MOL0     H26686   2.556   1.553   5.204  0.5712  0.4185 -1.3503
  198MOL0     H26687   2.592   1.720   5.172  0.6069 -1.3151 -1.0422
  198MOL0     H26688   2.449   1.789   5.367  1.0864 -0.8132  0.3313
  198MOL0     H26689   2.410   1.614   5.384 -1.9242 -1.0461 -1.4603
  198MOL0     H26690   2.158   1.766   5.043 -1.4874  0.2099 -0.0855
  198MOL0     H26691   2.001   1.889   4.943  2.1326 -1.3190  1.3783
  198MOL0     H26692   1.849   1.824   5.013 -1.0644  1.0367  2.4736
  198MOL0     H26693   1.873   1.988   5.039  0.0819  0.5728 -0.6792
  198MOL0     H26694   1.699   2.193   5.133  2.0417 -1.3693  2.2707
  198MOL0     H26695   1.521   2.346   5.189 -0.4564  0.1142 -1.2651
  198MOL0     H26696   1.375   2.461   5.339  0.8250 -0.1006 -1.3480
  198MOL0     H26697   1.293   2.435   5.168 -1.5264 -0.6661 -0.1637
  198MOL0     H26698   1.095   2.465   5.254  1.7967 -0.4788 -0.4133
  198MOL0     H26699   1.143   2.473   5.428  0.9882 -1.2426  0.3428
  198MOL0     H26700   1.212   2.650   5.191 -0.5074  0.4449 -0.2084
  198MOL0     H26701   1.267   2.681   5.359  1.6452  0.7716 -2.0441
  198MOL0     H26702   0.987   2.717   5.241 -0.4453 -2.0782  0.9868
  198MOL0     H26703   1.015   2.711   5.418 -0.4653 -0.9096 -0.0708
  198MOL0     H26704   1.189   2.904   5.360 -1.5186  2.0023  1.1653
  198MOL0     H26705   1.013   2.938   5.361 -3.1764 -1.6954 -1.9072
  198MOL0     H26706   1.195   2.875   5.128  0.5752  1.4195 -0.3772
  198MOL0     H26707   1.026   2.908   5.105  0.9870 -0.7568 -0.6926
  198MOL0     H26708   1.243   3.071   5.248 -0.6147  0.9403 -0.5716
  198MOL0     H26709   1.076   3.129   5.239  0.4371 -0.5504  0.9198
  198MOL0     H26710   1.184   3.243   5.066 -0.8042  0.0258 -1.0034
  198MOL0     H26711   1.076   3.122   4.986  0.9489  1.4156 -2.9107
  198MOL0     H26712   1.307   2.016   5.368  0.8669 -0.3187  0.7754
  198MOL0     H26713   1.514   1.877   5.335  0.8248  0.9345  1.0801
  198MOL0     H26714   1.996   1.839   5.491 -1.9024  2.4444 -0.2519
  198MOL0     H26715   2.231   1.769   5.457  1.2089 -0.9457 -0.6569
  198MOL0     H26716   4.083   1.524   5.212  2.2064  0.7239  1.3385
  198MOL0     H26717   4.318   1.576   5.240 -1.4554  1.9409  3.7588
  198MOL0     H26718   4.675   2.143   5.203 -0.6991  0.1979 -0.5023
  198MOL0     H26719   4.894   2.136   5.304 -1.0040  1.2828 -3.0564
  198MOL0     H26720   5.033   1.749   5.493 -0.8262 -0.3605 -2.6692
  198MOL0     H26721   5.160   1.761   5.380  0.8299 -0.8082 -0.1444
  198MOL0     H26722   5.140   1.879   5.663  0.3662  0.4804  0.2755
  198MOL0     H26723   5.233   1.966   5.539 -0.6306 -0.1934 -1.3011
  198MOL0     H26724   5.390   1.811   5.501 -0.4031 -1.4539 -1.7669
  198MOL0     H26725   5.301   1.675   5.581 -0.5265 -0.5831 -3.4992
  198MOL0     H26726   5.318   1.804   5.806 -1.8997  0.3453 -1.0178
  198MOL0     H26727   5.413   1.924   5.720 -0.0464  0.2254 -1.2265
  198MOL0     H26728   5.706   1.626   5.685  0.1893  0.3753 -0.6996
  198MOL0     H26729   4.870   1.723   5.392 -1.6625 -0.7249  0.2830
  198MOL0     H26730   4.634   1.723   5.306  1.3071 -1.9868 -0.8229
  199MOL0     O26731   4.733   9.250   6.037  0.4069 -0.0889 -0.4667
  199MOL0     C26732   4.763   9.192   5.933 -0.1070  0.4292  0.5103
  199MOL0     O26733   4.686   9.172   5.825 -0.0280 -0.1330  0.0173
  199MOL0     C26734   4.573   9.245   5.805 -0.4825 -0.6466 -0.5097
  199MOL0     C26735   4.450   9.184   5.840 -0.6008 -0.0742  0.7656
  199MOL0     C26736   4.327   9.252   5.821  0.4553 -0.0871  0.1422
  199MOL0     C26737   4.327   9.387   5.785 -0.6326 -0.2147  0.0198
  199MOL0     O26738   4.214   9.464   5.776  0.0598 -0.3763  0.3187
  199MOL0     C26739   4.087   9.395   5.770  0.1337 -0.0446 -0.3434
  199MOL0     C26740   3.990   9.508   5.778 -0.3718 -0.2928 -0.1286
  199MOL0     C26741   3.845   9.480   5.748 -0.2207  0.8973  0.1069
  199MOL0     C26742   3.750   9.608   5.756 -0.0705  0.5935 -0.6866
  199MOL0     C26743   3.620   9.585   5.693 -0.8785  0.0970  0.6582
  199MOL0     C26744   3.527   9.713   5.714  0.3447  0.2274 -0.1734
  199MOL0     C26745   3.387   9.687   5.661 -0.2005  0.2296 -0.8022
  199MOL0     C26746   3.305   9.824   5.661  0.5535 -0.6377  0.0566
  199MOL0     N26747   3.349   9.906   5.551  0.1503 -0.9963  0.0452
  199MOL0     C26748   3.305   9.900   5.416 -0.0291 -0.3774  0.8157
  199MOL0     C26749   3.373   9.985   5.339 -0.2407  0.1005 -0.5184
  199MOL0     C26750   3.370   9.992   5.187  0.9267  0.3983  0.1858
  199MOL0     C26751   3.238  10.048   5.129  0.1041 -0.6985  0.6798
  199MOL0     C26752   3.245  10.086   4.979  0.5209 -0.3948 -0.4156
  199MOL0     C26753   3.213  10.230   4.940 -0.2724 -0.2530  0.2129
  199MOL0     O26754   3.074  10.255   4.958 -0.4507  0.4762  0.4923
  199MOL0     C26755   2.981  10.238   4.859  0.4857 -0.4212  0.6428
  199MOL0     C26756   2.846  10.281   4.888 -0.2887 -0.2983  0.7155
  199MOL0     C26757   2.746  10.277   4.788 -0.4089  0.4539 -0.3724
  199MOL0     C26758   2.618  10.336   4.811  0.2669  0.9324 -0.0082
  199MOL0     C26759   2.775  10.201   4.672  0.1454 -0.0293  0.6191
  199MOL0     C26760   2.670  10.172   4.572 -0.1287 -0.8555  0.0904
  199MOL0     O26761   2.545  10.126   4.615  0.4664 -0.1182  0.5297
  199MOL0     C26762   2.439  10.111   4.535  0.3023 -0.1571 -0.2350
  199MOL0     C26763   2.413  10.193   4.420  0.1050 -0.2303  0.0404
  199MOL0     C26764   2.317  10.157   4.327  0.7341 -0.1609  0.6932
  199MOL0     C26765   2.228  10.050   4.346 -0.0521 -0.6429 -0.4069
  199MOL0     O26766   2.108  10.033   4.292  0.2400  0.4296 -0.2566
  199MOL0     C26767   2.097  10.065   4.149  0.0194  0.2855 -0.7193
  199MOL0     C26768   2.032  10.194   4.120  0.1278 -1.0710  0.1771
  199MOL0     C26769   2.013  10.212   3.969 -0.2621  0.0254 -0.5917
  199MOL0     C26770   2.145  10.212   3.887 -0.0120 -0.1250  0.4048
  199MOL0     C26771   2.153  10.262   3.744  0.0269 -0.4137  0.2321
  199MOL0     C26772   2.062  10.385   3.720 -0.4519 -0.1075 -0.6657
  199MOL0     C26773   2.059  10.434   3.574 -0.1093  0.0096  0.1208
  199MOL0     C26774   1.938  10.530   3.547  0.2159 -0.3654 -0.0009
  199MOL0    Cl26775   1.794  10.426   3.508 -0.2597  0.0794 -0.1745
  199MOL0     C26776   2.249   9.972   4.456  0.0149 -0.4575 -0.1543
  199MOL0     C26777   2.362   9.992   4.548 -0.2888  0.0316  0.7866
  199MOL0     O26778   2.703  10.183   4.454 -0.4192 -0.6399 -0.0775
  199MOL0     C26779   2.900  10.148   4.653  0.6529 -0.0657  0.3009
  199MOL0     C26780   3.009  10.176   4.740  0.8254  0.2449 -0.0548
  199MOL0     N26781   3.460  10.044   5.422 -0.1682 -0.0289 -0.7156
  199MOL0     N26782   3.456  10.000   5.545  0.4954 -0.4911 -0.1439
  199MOL0     C26783   4.450   9.448   5.755  0.0766  0.3420 -0.5026
  199MOL0     C26784   4.575   9.375   5.768  0.0289  0.0563 -0.1609
  199MOL0     C26785   4.893   9.131   5.917  0.5636  0.2097 -1.1233
  199MOL0     C26786   4.944   9.106   5.793 -1.2473  0.0222  1.1567
  199MOL0     C26787   5.068   9.043   5.769  1.1146 -0.6185  0.7663
  199MOL0     C26788   5.137   8.987   5.874 -0.4079  0.1549  1.0509
  199MOL0     O26789   5.257   8.923   5.868  0.1717 -0.3367 -0.5964
  199MOL0     C26790   5.354   8.997   5.798 -0.7791  0.0445 -0.3154
  199MOL0     C26791   5.482   8.975   5.873  0.0170 -0.1401  0.1053
  199MOL0     C26792   5.608   9.004   5.789 -0.6976 -0.0527 -0.8009
  199MOL0     C26793   5.736   8.939   5.849  0.6042 -0.3285 -0.7395
  199MOL0     C26794   5.853   9.027   5.844  0.3017  0.6780  0.9454
  199MOL0     C26795   5.950   9.091   5.818  0.4243  0.0018  0.0285
  199MOL0     C26796   5.086   9.010   6.002 -0.5385  0.5851  0.3141
  199MOL0     C26797   4.969   9.084   6.024  0.0290  0.5883 -0.2771
  199MOL0     H26798   4.433   9.081   5.868 -2.8902 -0.6134 -2.0921
  199MOL0     H26799   4.234   9.200   5.840 -0.2858  1.9377  2.5246
  199MOL0     H26800   4.090   9.338   5.677  2.7957  1.9702 -1.6152
  199MOL0     H26801   4.068   9.332   5.858 -0.0139 -1.0855 -1.1044
  199MOL0     H26802   4.001   9.570   5.867  0.0413  1.0978 -1.1268
  199MOL0     H26803   4.022   9.578   5.701  1.4882 -3.0300 -2.0444
  199MOL0     H26804   3.821   9.440   5.649 -3.8541  2.4373  0.2292
  199MOL0     H26805   3.807   9.402   5.813 -0.9458 -1.3630 -2.8327
  199MOL0     H26806   3.740   9.643   5.859 -1.2715  3.1625 -1.5864
  199MOL0     H26807   3.806   9.688   5.706  0.3329  1.6920  1.4170
  199MOL0     H26808   3.631   9.572   5.585 -2.8336  1.6869  0.1990
  199MOL0     H26809   3.574   9.492   5.726 -0.7950 -0.5806 -0.9944
  199MOL0     H26810   3.528   9.733   5.822  2.8309  0.5845 -0.1971
  199MOL0     H26811   3.564   9.809   5.675  2.4169 -0.9711 -1.3164
  199MOL0     H26812   3.386   9.646   5.559 -1.5093 -3.4925  0.5145
  199MOL0     H26813   3.339   9.609   5.722 -2.5321  0.9824 -1.5600
  199MOL0     H26814   3.323   9.878   5.754 -0.0381 -1.8616  0.9170
  199MOL0     H26815   3.201   9.789   5.660  0.8329 -1.5423  0.7347
  199MOL0     H26816   3.232   9.831   5.375 -1.5549  2.5640 -1.8681
  199MOL0     H26817   3.452  10.053   5.150  1.4935  0.2038  1.0949
  199MOL0     H26818   3.374   9.888   5.152 -2.0880 -0.6291  2.4452
  199MOL0     H26819   3.209  10.135   5.189  1.8397 -0.0912  0.7095
  199MOL0     H26820   3.161   9.971   5.136  0.0989 -0.9965 -1.7695
  199MOL0     H26821   3.184  10.025   4.911  0.9333 -0.8906 -0.3465
  199MOL0     H26822   3.347  10.055   4.958  0.5074 -1.2954  0.7684
  199MOL0     H26823   3.251  10.256   4.840  0.4446  0.1839  0.5844
  199MOL0     H26824   3.272  10.292   5.009  0.0652  0.1004 -0.3839
  199MOL0     H26825   2.838  10.341   4.978  2.7844  0.4944  0.5526
  199MOL0     H26826   2.619  10.395   4.903  1.6588 -0.6502  1.0505
  199MOL0     H26827   2.591  10.393   4.722 -2.4959  0.5004  0.4715
  199MOL0     H26828   2.534  10.266   4.819  2.2174 -1.5838 -0.2170
  199MOL0     H26829   2.474  10.282   4.403  0.2411 -0.4186 -0.4767
  199MOL0     H26830   2.292  10.223   4.244 -0.1426 -0.5154  0.6679
  199MOL0     H26831   2.196  10.060   4.103 -0.7299 -0.3002 -2.3095
  199MOL0     H26832   2.041   9.979   4.113 -1.9337  0.7017  1.1325
  199MOL0     H26833   1.944  10.199   4.184  1.5995 -2.0928  2.4244
  199MOL0     H26834   2.097  10.273   4.161  0.4073 -2.1061  1.8434
  199MOL0     H26835   1.943  10.294   3.950 -0.9881 -0.2975  0.5676
  199MOL0     H26836   1.957  10.125   3.933 -2.9640  1.8601 -1.1823
  199MOL0     H26837   2.204  10.282   3.946  1.0545  0.1885 -0.9776
  199MOL0     H26838   2.195  10.115   3.888  0.3081  0.0233 -0.1631
  199MOL0     H26839   2.121  10.180   3.679  1.0797 -0.3365 -0.4124
  199MOL0     H26840   2.257  10.282   3.717  0.5366 -0.7681  1.8436
  199MOL0     H26841   1.959  10.354   3.743  0.3328 -4.8996 -2.3306
  199MOL0     H26842   2.083  10.463   3.793 -0.6570 -0.2366 -0.4659
  199MOL0     H26843   2.057  10.353   3.500 -2.0716  0.1664 -0.0685
  199MOL0     H26844   2.150  10.494   3.564 -0.2101  1.0085  3.7914
  199MOL0     H26845   1.940  10.595   3.459  1.1806 -0.7354 -0.2570
  199MOL0     H26846   1.927  10.594   3.636 -1.1836 -1.2674  0.5122
  199MOL0     H26847   2.174   9.894   4.465 -0.6959 -0.2770 -3.4083
  199MOL0     H26848   2.379   9.914   4.621  1.7826  0.0470  0.3827
  199MOL0     H26849   2.912  10.086   4.564 -0.0046  0.6628 -0.3158
  199MOL0     H26850   3.109  10.143   4.715  1.3011  0.1566  1.8286
  199MOL0     H26851   4.449   9.552   5.721 -1.2949  0.2405 -0.8061
  199MOL0     H26852   4.666   9.433   5.758 -1.8028  3.3828  1.0982
  199MOL0     H26853   4.892   9.143   5.705 -1.1887  1.8501  1.8365
  199MOL0     H26854   5.108   9.052   5.669 -3.4412  0.7647 -1.2115
  199MOL0     H26855   5.357   8.956   5.696 -0.8659  0.6466 -0.5635
  199MOL0     H26856   5.338   9.105   5.794  0.1060  0.1620 -1.3362
  199MOL0     H26857   5.496   8.873   5.911  0.3939  0.1904  0.8706
  199MOL0     H26858   5.485   9.050   5.953 -0.5565 -0.1253  0.1140
  199MOL0     H26859   5.618   9.113   5.790  0.4284 -0.0922 -2.6669
  199MOL0     H26860   5.593   8.968   5.687 -0.7236 -0.4042 -0.6765
  199MOL0     H26861   5.755   8.847   5.792  1.9623 -0.3296 -0.3109
  199MOL0     H26862   5.713   8.912   5.953  1.2227  1.8998  0.0150
  199MOL0     H26863   6.034   9.156   5.799  0.8802 -0.4027  0.6451
  199MOL0     H26864   5.155   8.971   6.076 -1.3446 -0.0342  0.7497
  199MOL0     H26865   4.940   9.124   6.120  2.3666  3.1745 -0.4904
  200MOL0     O26866   9.283  10.015   2.655  0.0127  0.0305 -1.6273
  200MOL0     C26867   9.358   9.961   2.738 -0.0705  0.0551  0.1910
  200MOL0     O26868   9.314   9.883   2.847  0.6736 -0.4750  0.0150
  200MOL0     C26869   9.178   9.888   2.882 -0.2079 -0.6995 -0.2992
  200MOL0     C26870   9.095   9.783   2.851 -0.3667  0.1559  0.7396
  200MOL0     C26871   8.959   9.778   2.884 -0.4449 -0.4411  0.6653
  200MOL0     C26872   8.911   9.892   2.949 -0.0796 -0.4049 -0.7040
  200MOL0     O26873   8.784   9.919   2.995  0.0256 -0.2843  1.1306
  200MOL0     C26874   8.688   9.816   2.980  1.2651  0.4324 -0.6503
  200MOL0     C26875   8.550   9.860   3.036 -0.1850  0.0075  0.1532
  200MOL0     C26876   8.457   9.737   3.027  0.0210  0.1398  0.4790
  200MOL0     C26877   8.314   9.778   3.080  0.2192 -0.2831  0.0070
  200MOL0     C26878   8.226   9.661   3.080  0.2290  0.3470  0.1220
  200MOL0     C26879   8.072   9.674   3.109 -0.0980 -0.0557  0.5059
  200MOL0     C26880   8.055   9.719   3.258 -0.4563  0.5435  0.1791
  200MOL0     C26881   8.087   9.608   3.362  0.4181  0.7911 -0.4159
  200MOL0     N26882   8.049   9.661   3.487  0.8562 -0.6198  0.5218
  200MOL0     C26883   8.092   9.774   3.544  0.0238  0.3576 -0.1268
  200MOL0     C26884   8.041   9.778   3.667 -0.1875  0.1235  0.2335
  200MOL0     C26885   8.057   9.894   3.769  0.3648  0.0145 -0.3444
  200MOL0     C26886   7.918   9.950   3.815 -0.4556  0.8436  0.5346
  200MOL0     C26887   7.924  10.089   3.892  0.6543  0.9040  0.0816
  200MOL0     C26888   7.777  10.140   3.915 -0.8346 -0.6830 -0.2867
  200MOL0     O26889   7.797  10.256   3.998 -0.2520  0.1369  0.5197
  200MOL0     C26890   7.679  10.303   4.064 -0.2794  0.0626 -0.5514
  200MOL0     C26891   7.692  10.360   4.197 -1.0842 -0.2234  0.9702
  200MOL0     C26892   7.579  10.379   4.277 -0.7173 -0.8675 -0.9472
  200MOL0     C26893   7.605  10.438   4.417  0.3591  0.2789 -0.7617
  200MOL0     C26894   7.446  10.344   4.230  0.3694  1.0537  0.2767
  200MOL0     C26895   7.313  10.365   4.290 -0.5514  0.2511 -0.7472
  200MOL0     O26896   7.208  10.322   4.220 -0.1147 -0.3149 -0.2781
  200MOL0     C26897   7.088  10.365   4.267 -0.0954  0.4065  0.3653
  200MOL0     C26898   7.004  10.449   4.190  0.3904 -0.5256  0.1775
  200MOL0     C26899   6.871  10.464   4.213  1.3611  0.2175  0.2047
  200MOL0     C26900   6.812  10.400   4.331  0.4084  0.1442 -0.4806
  200MOL0     O26901   6.677  10.391   4.368 -0.4222 -0.2111  1.0034
  200MOL0     C26902   6.593  10.482   4.298 -0.3463  0.6529 -0.0281
  200MOL0     C26903   6.452  10.464   4.354 -0.0463 -0.5572 -0.1902
  200MOL0     C26904   6.423  10.341   4.441  0.3573 -0.0409 -0.2541
  200MOL0     C26905   6.276  10.332   4.486 -0.4183  0.5739 -0.2287
  200MOL0     C26906   6.276  10.202   4.575  0.0141 -0.0987 -0.1794
  200MOL0     C26907   6.145  10.204   4.654 -0.3249  0.6677 -0.7036
  200MOL0     C26908   6.028  10.165   4.570  0.1037 -0.1285  0.1267
  200MOL0     C26909   5.938  10.279   4.562 -0.2515  0.4767  0.8374
  200MOL0    Cl26910   5.800  10.228   4.458  0.2279  0.4803  0.0904
  200MOL0     C26911   6.899  10.320   4.413  0.7389 -0.4472 -0.4759
  200MOL0     C26912   7.030  10.310   4.379  0.4370  0.1092 -0.3617
  200MOL0     O26913   7.312  10.435   4.392 -0.1083 -0.5473 -0.3797
  200MOL0     C26914   7.441  10.287   4.101 -0.3716 -0.6867 -0.6827
  200MOL0     C26915   7.544  10.283   4.016 -0.0102 -0.2140 -0.6127
  200MOL0     N26916   7.951   9.670   3.677  0.3468  0.2343 -0.2906
  200MOL0     N26917   7.959   9.602   3.570 -0.4160 -0.4486  0.0094
  200MOL0     C26918   8.995   9.996   2.995 -0.2573  0.1597 -0.3623
  200MOL0     C26919   9.127   9.993   2.950  0.3428  0.2548  0.1041
  200MOL0     C26920   9.502   9.943   2.698  0.6466 -0.0013  0.8972
  200MOL0     C26921   9.561  10.020   2.587  0.7262  0.4388  0.2837
  200MOL0     C26922   9.695  10.005   2.567 -0.3993 -0.5502  0.2614
  200MOL0     C26923   9.785   9.921   2.640 -0.6040 -0.6400  0.2573
  200MOL0     O26924   9.921   9.913   2.616 -0.7682 -0.3350 -0.1142
  200MOL0     C26925   9.988   9.993   2.514 -0.1369 -0.2855  0.5832
  200MOL0     C26926  10.137   9.978   2.520 -0.4210 -0.5619 -0.1141
  200MOL0     C26927  10.166   9.829   2.513 -0.8487  0.3457  0.5034
  200MOL0     C26928  10.308   9.800   2.453 -0.0718 -0.7853 -0.5227
  200MOL0     C26929  10.428   9.854   2.527  0.0906  0.2462  0.3802
  200MOL0     C26930  10.523   9.904   2.577  0.5790 -0.1465 -0.6522
  200MOL0     C26931   9.720   9.851   2.740  0.1892  0.7071  0.0181
  200MOL0     C26932   9.586   9.858   2.773  0.1760  0.5286  0.0856
  200MOL0     H26933   9.132   9.697   2.795 -1.0732 -1.6262  2.8672
  200MOL0     H26934   8.893   9.694   2.863  0.0598 -1.0827  1.5843
  200MOL0     H26935   8.677   9.790   2.875 -2.4341  1.2986 -0.6275
  200MOL0     H26936   8.712   9.731   3.044  0.5204 -0.1458 -1.1231
  200MOL0     H26937   8.561   9.897   3.139  0.9975 -1.8927  0.7456
  200MOL0     H26938   8.511   9.940   2.972 -1.8240 -0.8932 -0.0263
  200MOL0     H26939   8.463   9.691   2.928  2.0539 -3.3173  2.0039
  200MOL0     H26940   8.503   9.654   3.081 -0.8557 -0.1469  0.8028
  200MOL0     H26941   8.314   9.811   3.184  2.5113  1.3202 -0.4363
  200MOL0     H26942   8.269   9.855   3.017 -1.3543 -2.0745 -1.1526
  200MOL0     H26943   8.231   9.614   2.981  1.2166 -2.9564  1.5875
  200MOL0     H26944   8.276   9.585   3.141  0.4844 -0.7677 -1.4083
  200MOL0     H26945   8.034   9.757   3.049 -1.2387 -0.4154  0.6934
  200MOL0     H26946   8.007   9.589   3.087  0.3180 -0.4152  0.6548
  200MOL0     H26947   8.109   9.810   3.286 -1.1877  1.3361 -0.9156
  200MOL0     H26948   7.948   9.742   3.266 -0.0949  1.9993  1.1108
  200MOL0     H26949   8.193   9.583   3.371 -0.5155 -3.0264  2.2612
  200MOL0     H26950   8.040   9.511   3.343 -0.2660  1.3686 -1.8375
  200MOL0     H26951   8.163   9.838   3.493  1.5184 -3.4088 -3.3519
  200MOL0     H26952   8.116   9.859   3.854 -0.7304  0.6106  0.6841
  200MOL0     H26953   8.119   9.970   3.720 -0.4940  1.7197  1.1184
  200MOL0     H26954   7.895   9.878   3.894  3.6772 -1.3217  0.0478
  200MOL0     H26955   7.854   9.947   3.726  1.6413 -1.3224 -1.0243
  200MOL0     H26956   7.984  10.161   3.835  2.0696 -0.1432  0.2041
  200MOL0     H26957   7.972  10.097   3.990  1.5084 -0.0001 -0.2468
  200MOL0     H26958   7.704  10.069   3.955 -2.3778  0.2107 -1.4248
  200MOL0     H26959   7.746  10.156   3.811  0.7826 -3.4193 -1.2983
  200MOL0     H26960   7.788  10.402   4.225 -0.3852 -1.5173  0.5753
  200MOL0     H26961   7.606  10.356   4.489  0.6800  2.1360  1.5027
  200MOL0     H26962   7.703  10.488   4.416  0.7636 -0.3849  1.0903
  200MOL0     H26963   7.534  10.515   4.448  0.5932 -0.3509  1.5478
  200MOL0     H26964   7.043  10.502   4.104 -0.9184  1.6337  0.8394
  200MOL0     H26965   6.813  10.531   4.150  0.2960  0.0185  0.9460
  200MOL0     H26966   6.617  10.588   4.287 -0.2974  0.5515 -0.9388
  200MOL0     H26967   6.584  10.443   4.197  0.7637  2.5139 -0.8835
  200MOL0     H26968   6.430  10.547   4.421 -3.5987 -1.8054  0.4288
  200MOL0     H26969   6.377  10.479   4.277 -1.7677 -2.2359  1.0600
  200MOL0     H26970   6.485  10.345   4.531 -0.9799  2.5285  0.6481
  200MOL0     H26971   6.444  10.252   4.380 -0.3054 -1.0536  0.9448
  200MOL0     H26972   6.257  10.425   4.539 -1.6601  1.2582 -1.7880
  200MOL0     H26973   6.215  10.327   4.395  3.9253  2.3003 -3.6154
  200MOL0     H26974   6.362  10.195   4.642  0.8613  2.0059 -0.9822
  200MOL0     H26975   6.266  10.117   4.507 -3.2936  0.5792 -0.7285
  200MOL0     H26976   6.146  10.128   4.733 -0.7546  1.2189 -0.1537
  200MOL0     H26977   6.131  10.301   4.702 -0.4513  0.3017  0.0132
  200MOL0     H26978   5.985  10.075   4.613 -1.2148 -0.2172 -1.2854
  200MOL0     H26979   6.065  10.135   4.471 -1.0613 -3.2612  0.5595
  200MOL0     H26980   5.997  10.360   4.517  0.8626  0.0824  1.5377
  200MOL0     H26981   5.909  10.311   4.663  0.5416  2.7217  0.4186
  200MOL0     H26982   6.862  10.272   4.503 -1.2784  0.9505 -0.5048
  200MOL0     H26983   7.081  10.238   4.444 -0.6434  0.8141  1.3470
  200MOL0     H26984   7.347  10.255   4.058  0.2300 -2.6605 -0.6423
  200MOL0     H26985   7.528  10.242   3.917 -1.2331 -0.7053 -0.2200
  200MOL0     H26986   8.955  10.078   3.054 -1.7332 -1.5156  1.0896
  200MOL0     H26987   9.196  10.076   2.962 -0.2854  0.5707  1.8771
  200MOL0     H26988   9.502  10.087   2.525 -0.0235  1.3832  1.9523
  200MOL0     H26989   9.736  10.066   2.487 -1.7502  1.3778  0.9698
  200MOL0     H26990   9.956   9.966   2.413 -0.1563  1.7541 -0.0106
  200MOL0     H26991   9.961  10.099   2.526 -1.1006 -0.7057  2.5485
  200MOL0     H26992  10.179  10.021   2.611 -0.1845  0.1801 -0.5622
  200MOL0     H26993  10.188  10.032   2.439  1.3870 -0.4997  1.0010
  200MOL0     H26994  10.094   9.771   2.455 -0.8750  1.6842 -0.8784
  200MOL0     H26995  10.157   9.787   2.613 -2.9210 -1.3303 -0.3203
  200MOL0     H26996  10.319   9.841   2.352  3.0966 -1.6563 -0.6467
  200MOL0     H26997  10.315   9.691   2.443 -0.2641 -0.8646  0.1142
  200MOL0     H26998  10.601   9.959   2.626  0.2132  0.6609 -0.9665
  200MOL0     H26999   9.781   9.789   2.805 -2.4028 -1.8114  0.2328
  200MOL0     H27000   9.555   9.800   2.859  5.1054  0.0091  1.7999
  201MOL0     O27001  11.061   1.715   9.245 -1.1136 -0.6460  0.3886
  201MOL0     C27002  11.095   1.664   9.350  1.1991  0.1560  0.1652
  201MOL0     O27003  11.020   1.580   9.418 -0.1341 -0.0058 -0.2008
  201MOL0     C27004  10.889   1.551   9.384 -0.3889  0.4820  0.3114
  201MOL0     C27005  10.803   1.524   9.481 -0.4869  1.0571 -1.2548
  201MOL0     C27006  10.665   1.493   9.460 -0.5991 -0.6895  0.0660
  201MOL0     C27007  10.612   1.496   9.329 -0.1654  0.1155 -0.0340
  201MOL0     O27008  10.483   1.495   9.303  0.2073 -0.1886 -0.2198
  201MOL0     C27009  10.433   1.413   9.194  0.1104  0.5125  0.1542
  201MOL0     C27010  10.291   1.369   9.235  0.6948 -0.1500  0.2223
  201MOL0     C27011  10.180   1.479   9.215 -1.2203  0.3447  0.5775
  201MOL0     C27012  10.048   1.447   9.291  0.7595 -0.5342 -0.3716
  201MOL0     C27013   9.934   1.554   9.297 -0.6651 -0.0942  0.3726
  201MOL0     C27014   9.811   1.486   9.355  0.3998 -0.9416 -0.0498
  201MOL0     C27015   9.713   1.603   9.388  0.6355  0.1322  0.0498
  201MOL0     C27016   9.593   1.567   9.468  0.3764  0.1044  0.4267
  201MOL0     N27017   9.509   1.472   9.399  0.1627 -1.1044 -0.5733
  201MOL0     C27018   9.382   1.507   9.350  0.4401 -0.3488  0.4468
  201MOL0     C27019   9.343   1.397   9.287 -0.0438 -0.4261  0.9156
  201MOL0     C27020   9.200   1.396   9.232 -0.0631 -0.2288 -0.2608
  201MOL0     C27021   9.139   1.258   9.224 -0.4908 -0.4933 -0.8169
  201MOL0     C27022   9.101   1.179   9.350  0.6040  0.5260  0.9093
  201MOL0     C27023   9.001   1.071   9.336 -0.1525 -0.8900 -0.1567
  201MOL0     O27024   8.959   1.032   9.469  0.3535  0.6621 -0.2429
  201MOL0     C27025   8.825   0.987   9.481  0.8191 -0.9590 -0.1025
  201MOL0     C27026   8.757   1.014   9.597 -0.6461  0.8012  0.9551
  201MOL0     C27027   8.625   0.968   9.624 -0.4440 -0.6322  0.0907
  201MOL0     C27028   8.578   0.993   9.766 -0.4522  0.3659 -0.1326
  201MOL0     C27029   8.557   0.893   9.521  0.2155  0.1282  1.1187
  201MOL0     C27030   8.427   0.827   9.530 -0.1581 -0.0067 -0.9788
  201MOL0     O27031   8.384   0.746   9.427 -0.7030  1.1044 -0.4270
  201MOL0     C27032   8.250   0.722   9.405 -0.6202  0.0236  0.3502
  201MOL0     C27033   8.163   0.820   9.353 -0.3527  0.1290 -0.1342
  201MOL0     C27034   8.038   0.785   9.296  1.1698  0.9795 -0.0820
  201MOL0     C27035   7.993   0.652   9.308  0.0065 -0.8704  0.4433
  201MOL0     O27036   7.875   0.622   9.249  0.6518 -0.2249  0.0525
  201MOL0     C27037   7.794   0.517   9.299  0.6808  0.1675  0.0623
  201MOL0     C27038   7.647   0.530   9.240 -0.6008  0.7277 -0.3343
  201MOL0     C27039   7.559   0.428   9.312  0.1346  0.4729  0.0070
  201MOL0     C27040   7.423   0.447   9.242 -0.1352  0.0412  0.6246
  201MOL0     C27041   7.318   0.379   9.325 -0.5461  0.3164  0.1307
  201MOL0     C27042   7.187   0.364   9.238 -0.0021 -0.7344 -0.4787
  201MOL0     C27043   7.077   0.298   9.313  0.0791 -0.7619 -0.0518
  201MOL0     C27044   6.957   0.259   9.235  0.2460  0.2563  0.2498
  201MOL0    Cl27045   6.814   0.256   9.350  0.0741 -0.2937 -0.1450
  201MOL0     C27046   8.070   0.551   9.359  0.0127 -0.4608  0.1474
  201MOL0     C27047   8.197   0.589   9.420  0.7099  0.0465  0.6358
  201MOL0     O27048   8.350   0.853   9.622  0.2600  0.1636 -1.0673
  201MOL0     C27049   8.625   0.870   9.395 -0.8727 -0.6145  0.1550
  201MOL0     C27050   8.757   0.913   9.378 -0.0046 -0.6442 -0.3477
  201MOL0     N27051   9.438   1.299   9.296  0.2565  0.1705  0.1876
  201MOL0     N27052   9.543   1.349   9.352  0.3292 -0.1520  0.5646
  201MOL0     C27053  10.707   1.524   9.223  0.7016  0.4632 -0.2377
  201MOL0     C27054  10.840   1.549   9.249  1.0423 -0.3699 -0.2517
  201MOL0     C27055  11.232   1.681   9.405 -0.6337  0.5731 -0.8418
  201MOL0     C27056  11.273   1.630   9.529 -0.2450  0.4003  0.1978
  201MOL0     C27057  11.409   1.647   9.573  0.3787 -0.1478  0.1075
  201MOL0     C27058  11.500   1.699   9.477  0.1854 -0.0541 -0.3371
  201MOL0     O27059  11.635   1.711   9.490  0.6440 -0.7476  0.3367
  201MOL0     C27060  11.715   1.657   9.603  0.2602  0.9152 -0.2158
  201MOL0     C27061  11.714   1.752   9.728 -0.0782  0.5677  0.1884
  201MOL0     C27062  11.757   1.901   9.706 -0.5552  0.0915 -0.1711
  201MOL0     C27063  11.901   1.921   9.647 -0.1325 -0.1736  0.6959
  201MOL0     C27064  12.005   1.844   9.719 -0.8667 -0.2891  0.4902
  201MOL0     C27065  12.091   1.782   9.780  0.0678 -0.7587 -0.2155
  201MOL0     C27066  11.462   1.746   9.352 -0.7023 -0.3476  0.2169
  201MOL0     C27067  11.328   1.743   9.324 -0.0367 -0.4634  0.3201
  201MOL0     H27068  10.835   1.526   9.585 -4.3480 -2.5660  0.3061
  201MOL0     H27069  10.601   1.463   9.543 -0.1384 -0.8222  0.3744
  201MOL0     H27070  10.418   1.462   9.097 -4.3160 -0.8820 -0.0770
  201MOL0     H27071  10.496   1.324   9.183  0.4112  0.8206 -0.7186
  201MOL0     H27072  10.266   1.280   9.177 -0.6544 -1.5202  2.7642
  201MOL0     H27073  10.298   1.338   9.340  1.7186  0.1641  0.2591
  201MOL0     H27074  10.215   1.575   9.252  1.4133 -0.5164  0.5339
  201MOL0     H27075  10.161   1.482   9.108  0.1202 -1.1134  0.2680
  201MOL0     H27076  10.013   1.353   9.248 -0.8911 -0.4130  0.6471
  201MOL0     H27077  10.083   1.418   9.391  1.4012 -3.2720 -1.3067
  201MOL0     H27078   9.966   1.639   9.358  0.1498 -0.3566  0.3326
  201MOL0     H27079   9.915   1.581   9.193 -0.0251 -1.4230 -0.1142
  201MOL0     H27080   9.766   1.420   9.280  0.2953 -0.7925 -0.1179
  201MOL0     H27081   9.841   1.436   9.447  0.7776  0.3036  0.5277
  201MOL0     H27082   9.772   1.672   9.449 -0.7844  3.2205 -1.8317
  201MOL0     H27083   9.676   1.654   9.299 -2.9459 -2.2712 -0.0087
  201MOL0     H27084   9.529   1.654   9.485 -0.2178  0.1005 -1.5541
  201MOL0     H27085   9.629   1.518   9.559 -0.7730  0.0986  0.9012
  201MOL0     H27086   9.323   1.598   9.355  1.2913  0.4336 -2.0715
  201MOL0     H27087   9.133   1.454   9.297 -1.1395 -1.5734 -0.1006
  201MOL0     H27088   9.195   1.426   9.127  0.8816  1.4861  0.1546
  201MOL0     H27089   9.206   1.188   9.173  1.1949 -1.9697  3.0211
  201MOL0     H27090   9.043   1.266   9.173 -0.2745  0.3935 -1.0930
  201MOL0     H27091   9.066   1.245   9.430  0.6824 -0.4946  1.8197
  201MOL0     H27092   9.191   1.127   9.384  1.9035  0.7879 -1.8966
  201MOL0     H27093   9.054   0.993   9.281  2.8676  2.1420 -1.9400
  201MOL0     H27094   8.910   1.106   9.287 -2.0333 -4.0218  0.7760
  201MOL0     H27095   8.807   1.073   9.673  0.8701 -0.7237  1.1887
  201MOL0     H27096   8.480   1.042   9.762 -0.1002  1.4338  2.3148
  201MOL0     H27097   8.565   0.899   9.820 -1.2475  0.5420 -0.0025
  201MOL0     H27098   8.647   1.061   9.817  0.2326 -1.2843  1.2027
  201MOL0     H27099   8.210   0.915   9.332  0.9938  0.6571  4.2263
  201MOL0     H27100   7.974   0.857   9.245  0.7750 -0.5976 -1.9386
  201MOL0     H27101   7.841   0.420   9.283  0.8282  0.3686 -0.7820
  201MOL0     H27102   7.786   0.537   9.406  1.3765  1.9335 -0.1843
  201MOL0     H27103   7.602   0.629   9.249 -3.0227 -0.4175  1.3008
  201MOL0     H27104   7.656   0.488   9.140  1.1106 -1.0479  0.4900
  201MOL0     H27105   7.561   0.445   9.420  1.1054  1.6944 -0.1832
  201MOL0     H27106   7.596   0.327   9.294 -0.2926  0.4271 -0.6287
  201MOL0     H27107   7.396   0.553   9.236  0.7847  0.2386 -0.2594
  201MOL0     H27108   7.436   0.404   9.143  1.8211  0.4456  0.6654
  201MOL0     H27109   7.299   0.429   9.420  1.6654  4.3301 -1.2783
  201MOL0     H27110   7.350   0.277   9.349 -1.2702  0.3949  1.5307
  201MOL0     H27111   7.159   0.460   9.195 -0.8520 -0.1727  1.2030
  201MOL0     H27112   7.221   0.293   9.162  1.0264 -1.5481  0.6953
  201MOL0     H27113   7.047   0.365   9.394  0.1860  0.4209 -0.9697
  201MOL0     H27114   7.109   0.206   9.363  0.8478  0.5350  1.9804
  201MOL0     H27115   6.988   0.163   9.191  2.0378  0.0365  1.8680
  201MOL0     H27116   6.945   0.332   9.154  2.4000  0.6677  0.2530
  201MOL0     H27117   8.037   0.448   9.347  1.0424 -0.7667 -0.1779
  201MOL0     H27118   8.264   0.511   9.454  0.9712  0.3899  0.9048
  201MOL0     H27119   8.583   0.800   9.323  0.1121  1.4075 -2.5325
  201MOL0     H27120   8.807   0.889   9.285  1.7806 -0.8162  0.6140
  201MOL0     H27121  10.671   1.527   9.121 -0.0531 -0.0039  0.0097
  201MOL0     H27122  10.907   1.574   9.167  0.0389 -1.8297 -1.5770
  201MOL0     H27123  11.198   1.572   9.583 -1.4687  2.4010  0.7726
  201MOL0     H27124  11.442   1.594   9.662  1.0000 -1.4933 -0.8887
  201MOL0     H27125  11.689   1.555   9.632  0.3954  0.9960  0.1989
  201MOL0     H27126  11.816   1.644   9.564 -0.8050  0.2840 -3.0309
  201MOL0     H27127  11.780   1.707   9.801 -0.9915 -4.6428 -1.7957
  201MOL0     H27128  11.614   1.750   9.772 -0.9605  1.3598 -1.6562
  201MOL0     H27129  11.747   1.946   9.804 -2.8962 -0.7214  0.0337
  201MOL0     H27130  11.679   1.954   9.650 -0.5466  2.1158  1.6142
  201MOL0     H27131  11.932   2.025   9.662  1.8944 -0.3942 -1.5191
  201MOL0     H27132  11.903   1.902   9.540 -1.6552  1.1428  0.3963
  201MOL0     H27133  12.174   1.729   9.823  0.0700 -1.9964 -1.6388
  201MOL0     H27134  11.540   1.783   9.287  0.7821 -0.9706  1.5593
  201MOL0     H27135  11.294   1.774   9.226 -1.5437 -3.7264 -0.3090
  202MOL0     O27136   0.466   7.756   3.967 -0.0737  0.2130  0.1873
  202MOL0     C27137   0.494   7.850   4.042  0.0320  0.8585 -0.4580
  202MOL0     O27138   0.403   7.928   4.103 -0.0473  0.1525  0.4249
  202MOL0     C27139   0.270   7.901   4.087 -0.3943  0.3430 -0.1885
  202MOL0     C27140   0.195   8.016   4.055  0.4121 -0.5154  0.5080
  202MOL0     C27141   0.061   8.007   4.021  0.1476  0.1164 -0.4517
  202MOL0     C27142   0.003   7.877   4.021 -0.3648  0.0833 -1.2505
  202MOL0     O27143  -0.132   7.858   4.007  0.3253 -0.3896  0.1959
  202MOL0     C27144  -0.192   7.913   3.891 -0.9544  0.3799 -0.1703
  202MOL0     C27145  -0.342   7.868   3.895 -0.6811 -0.1523 -0.7424
  202MOL0     C27146  -0.416   7.916   3.768  0.7303  0.3606 -0.0953
  202MOL0     C27147  -0.559   7.861   3.772  1.5613 -0.1270  0.0344
  202MOL0     C27148  -0.634   7.901   3.649 -0.0513  0.2187 -0.8826
  202MOL0     C27149  -0.779   7.870   3.671  0.2602 -0.4150 -0.6307
  202MOL0     C27150  -0.863   7.899   3.547 -0.0266  0.3288 -0.4405
  202MOL0     C27151  -1.011   7.911   3.580  0.4519 -0.2658 -0.0186
  202MOL0     N27152  -1.096   7.916   3.466 -0.5036 -0.3419  0.6147
  202MOL0     C27153  -1.169   8.027   3.437 -0.3380  1.2203  0.6779
  202MOL0     C27154  -1.244   7.983   3.324  0.9294 -0.5064 -0.6179
  202MOL0     C27155  -1.350   8.081   3.264 -0.5011  0.4557  0.4000
  202MOL0     C27156  -1.483   8.020   3.255 -0.1371  0.0326 -0.6086
  202MOL0     C27157  -1.580   8.098   3.184  0.0256  0.1681 -0.6712
  202MOL0     C27158  -1.723   8.042   3.187 -0.1342  0.4289 -0.4232
  202MOL0     O27159  -1.799   8.116   3.093  0.1746 -0.5643 -0.0316
  202MOL0     C27160  -1.921   8.073   3.054 -0.3782 -0.2070 -0.1012
  202MOL0     C27161  -1.986   7.959   3.099  0.3771 -0.0024  0.3227
  202MOL0     C27162  -2.122   7.933   3.059 -0.3050  0.5992  0.6165
  202MOL0     C27163  -2.189   7.820   3.126  0.0920 -0.2088  0.0493
  202MOL0     C27164  -2.183   8.003   2.945 -0.9221 -0.6489  0.1138
  202MOL0     C27165  -2.319   7.982   2.893  0.3130  0.3681  0.2527
  202MOL0     O27166  -2.345   8.040   2.763  0.6582  0.5501 -0.2331
  202MOL0     C27167  -2.474   8.031   2.710  0.1428  0.3305 -0.7630
  202MOL0     C27168  -2.504   8.122   2.606  0.3653 -0.2361  0.3585
  202MOL0     C27169  -2.620   8.121   2.538 -0.2545  0.1209 -0.6901
  202MOL0     C27170  -2.718   8.021   2.574  0.2292 -0.0212 -0.2840
  202MOL0     O27171  -2.834   8.008   2.507 -0.1311 -0.5282  0.1945
  202MOL0     C27172  -2.818   8.017   2.358  0.1312  0.4889 -0.1250
  202MOL0     C27173  -2.944   7.973   2.289  0.1513  0.4484 -0.1856
  202MOL0     C27174  -3.055   8.075   2.301  0.0378 -0.4553  0.1420
  202MOL0     C27175  -3.173   8.029   2.212 -0.5601  0.3472 -0.2169
  202MOL0     C27176  -3.287   8.143   2.193 -0.5187 -0.1528 -0.3400
  202MOL0     C27177  -3.418   8.078   2.158 -0.6666 -0.6409 -0.0858
  202MOL0     C27178  -3.429   8.048   2.007 -0.7685  0.5093  0.3736
  202MOL0     C27179  -3.564   7.980   1.985 -0.2090  0.0025 -0.4297
  202MOL0    Cl27180  -3.706   8.085   2.023 -0.1993 -0.4500  0.1631
  202MOL0     C27181  -2.687   7.916   2.667 -0.5228 -0.6492  0.8392
  202MOL0     C27182  -2.567   7.925   2.737  0.1725  0.7332 -0.4900
  202MOL0     O27183  -2.401   7.937   2.964  0.6914 -0.3426  0.3458
  202MOL0     C27184  -2.102   8.109   2.898 -0.7178 -0.0779 -0.5012
  202MOL0     C27185  -1.978   8.146   2.953 -0.1755  0.2247  1.1968
  202MOL0     N27186  -1.226   7.852   3.299 -0.2788  0.2401 -0.2521
  202MOL0     N27187  -1.138   7.814   3.387  0.4003 -0.4406  1.3444
  202MOL0     C27188   0.069   7.768   4.065  0.0918 -0.0338  0.1026
  202MOL0     C27189   0.205   7.776   4.101  0.1364 -0.0383 -0.1079
  202MOL0     C27190   0.634   7.883   4.063  0.0241 -0.9211 -0.5737
  202MOL0     C27191   0.738   7.795   4.026  0.3332 -0.3385 -0.9270
  202MOL0     C27192   0.869   7.837   4.044  0.1496 -0.4639  0.0355
  202MOL0     C27193   0.905   7.961   4.096 -0.0323 -0.2090 -0.4166
  202MOL0     O27194   1.031   8.002   4.105  0.5475  0.3723  0.3040
  202MOL0     C27195   1.098   8.028   3.981 -0.6239 -0.0105 -0.3223
  202MOL0     C27196   1.026   8.124   3.882 -0.1783  0.4490  0.7635
  202MOL0     C27197   1.129   8.184   3.787  0.2279  0.4184 -0.4811
  202MOL0     C27198   1.063   8.283   3.689  0.6337 -0.0348  0.0918
  202MOL0     C27199   1.024   8.402   3.759 -0.2542 -0.7050 -0.1874
  202MOL0     C27200   0.982   8.506   3.807 -0.2041  0.1724  0.4261
  202MOL0     C27201   0.805   8.046   4.144 -0.1183  0.1366 -0.6638
  202MOL0     C27202   0.668   8.010   4.130  0.1289  0.6794 -0.3523
  202MOL0     H27203   0.240   8.114   4.048 -0.8629 -0.0428 -1.5878
  202MOL0     H27204   0.004   8.095   3.996 -0.5356 -0.4964 -1.0949
  202MOL0     H27205  -0.192   8.022   3.875 -2.3029  0.4264 -0.0307
  202MOL0     H27206  -0.158   7.859   3.802  0.8096 -1.2210  1.4005
  202MOL0     H27207  -0.340   7.759   3.905  2.4862 -0.4044 -2.7432
  202MOL0     H27208  -0.381   7.916   3.985  1.7483  1.8688 -0.6470
  202MOL0     H27209  -0.411   8.023   3.751 -1.4667 -0.0834 -4.9749
  202MOL0     H27210  -0.381   7.872   3.674  0.2072 -1.5676  0.5491
  202MOL0     H27211  -0.546   7.753   3.771  0.1294 -0.3353 -1.8048
  202MOL0     H27212  -0.609   7.899   3.862  0.7858  0.0902 -0.4797
  202MOL0     H27213  -0.629   8.008   3.624 -0.5960  0.2315 -0.9443
  202MOL0     H27214  -0.584   7.846   3.569  1.4473 -0.7688  0.6541
  202MOL0     H27215  -0.791   7.766   3.705 -0.2157 -0.7688 -1.8234
  202MOL0     H27216  -0.800   7.939   3.752  1.7839  0.9580 -1.3488
  202MOL0     H27217  -0.844   7.996   3.499 -3.1154  0.3082 -1.8965
  202MOL0     H27218  -0.841   7.826   3.469 -0.5548  1.2809 -1.5114
  202MOL0     H27219  -1.009   8.003   3.640  1.6158 -0.0583 -0.3497
  202MOL0     H27220  -1.026   7.820   3.638 -0.1418 -1.5882 -2.1448
  202MOL0     H27221  -1.170   8.128   3.478 -0.7399  0.9595  1.3237
  202MOL0     H27222  -1.360   8.171   3.325  3.6065  1.4494 -0.0787
  202MOL0     H27223  -1.307   8.103   3.165 -0.5567 -2.7252 -0.4590
  202MOL0     H27224  -1.504   7.999   3.360 -1.9715 -3.2370 -1.5112
  202MOL0     H27225  -1.474   7.929   3.194  1.8609  1.5888 -2.8339
  202MOL0     H27226  -1.544   8.110   3.081  0.2620 -3.3252 -1.1138
  202MOL0     H27227  -1.585   8.200   3.223 -0.9598 -0.1700  0.1256
  202MOL0     H27228  -1.769   8.050   3.286 -0.2014 -0.4119 -0.3779
  202MOL0     H27229  -1.725   7.936   3.159 -0.4054  0.0645  0.8754
  202MOL0     H27230  -1.945   7.908   3.186  0.8463  1.2554  0.8612
  202MOL0     H27231  -2.272   7.867   3.179 -0.0876 -1.5954  1.0634
  202MOL0     H27232  -2.214   7.735   3.062  0.8602 -0.2757 -0.1713
  202MOL0     H27233  -2.115   7.779   3.196  1.7034  1.2063 -0.7507
  202MOL0     H27234  -2.438   8.208   2.603  0.3143 -0.1705  0.9627
  202MOL0     H27235  -2.648   8.207   2.478  0.5533 -0.2389 -1.6141
  202MOL0     H27236  -2.798   8.121   2.329 -0.1583  0.8683  0.9813
  202MOL0     H27237  -2.744   7.941   2.330 -0.5466 -0.5661  0.8517
  202MOL0     H27238  -2.933   7.955   2.181 -1.0468 -0.8560 -0.1119
  202MOL0     H27239  -2.972   7.879   2.336  0.7709  0.3142 -0.0771
  202MOL0     H27240  -3.012   8.172   2.275 -2.0341  0.7327  0.8693
  202MOL0     H27241  -3.096   8.089   2.402  2.1757  2.8857  0.7039
  202MOL0     H27242  -3.125   8.006   2.116  2.9098 -1.9242  1.8494
  202MOL0     H27243  -3.216   7.942   2.261  0.1296  0.6114  0.8916
  202MOL0     H27244  -3.258   8.219   2.119 -0.2802  2.1554  2.0005
  202MOL0     H27245  -3.308   8.208   2.278  0.0462 -0.3891 -0.0178
  202MOL0     H27246  -3.420   7.981   2.208 -1.0186 -0.7199 -0.2442
  202MOL0     H27247  -3.507   8.129   2.197  0.4292  1.6899 -0.4742
  202MOL0     H27248  -3.355   7.974   1.975 -1.6178  0.3311 -1.2763
  202MOL0     H27249  -3.423   8.127   1.931  1.0454  0.5622  0.5279
  202MOL0     H27250  -3.575   7.896   2.055  0.3750  2.8148  3.4103
  202MOL0     H27251  -3.571   7.955   1.879  0.8134 -0.6620 -0.3594
  202MOL0     H27252  -2.751   7.829   2.679  3.3838 -3.5887  2.4951
  202MOL0     H27253  -2.537   7.852   2.812 -1.1800 -1.8586 -2.2987
  202MOL0     H27254  -2.147   8.178   2.828 -1.0950 -0.0074 -0.1966
  202MOL0     H27255  -1.922   8.235   2.924 -0.2218 -0.3506 -0.8156
  202MOL0     H27256   0.015   7.673   4.061 -1.8585  1.0620 -1.7274
  202MOL0     H27257   0.261   7.689   4.133 -0.3415 -1.9462 -3.8537
  202MOL0     H27258   0.717   7.704   3.971  0.0476 -0.3984 -0.7204
  202MOL0     H27259   0.950   7.770   4.017  0.0630 -0.0968 -1.2360
  202MOL0     H27260   1.190   8.074   4.019 -1.5216  1.4307  0.1820
  202MOL0     H27261   1.117   7.934   3.928 -0.8642 -1.6466  2.2910
  202MOL0     H27262   0.998   8.201   3.954  0.4713  1.2492  0.1802
  202MOL0     H27263   0.944   8.073   3.830  2.6014 -1.1792 -2.4582
  202MOL0     H27264   1.176   8.105   3.728 -0.6243 -0.4094 -0.0726
  202MOL0     H27265   1.204   8.236   3.846  1.5653 -1.8883 -0.0406
  202MOL0     H27266   0.974   8.233   3.649 -1.4371  2.6907  0.9686
  202MOL0     H27267   1.125   8.314   3.604 -0.2174 -0.1444 -0.5836
  202MOL0     H27268   0.933   8.595   3.843 -1.6728 -0.6920  0.6371
  202MOL0     H27269   0.847   8.136   4.188  0.1667 -0.4642  0.3317
  202MOL0     H27270   0.589   8.079   4.156 -0.8664 -0.4328 -0.3713
  203MOL0     O27271   3.619   1.262   9.596 -0.4021 -0.8909  0.4186
  203MOL0     C27272   3.635   1.151   9.543 -1.1007  0.0862 -0.4185
  203MOL0     O27273   3.554   1.082   9.454 -0.4358  0.5034  0.1702
  203MOL0     C27274   3.426   1.119   9.440  0.0301 -1.1010 -0.9775
  203MOL0     C27275   3.382   1.240   9.374  0.4238 -0.2272 -0.0941
  203MOL0     C27276   3.241   1.252   9.352 -0.2244 -0.0832  0.5353
  203MOL0     C27277   3.148   1.161   9.404 -0.3575 -0.1769 -0.4387
  203MOL0     O27278   3.019   1.175   9.371  0.2807  0.1257  0.3053
  203MOL0     C27279   2.914   1.142   9.471  0.4278  0.1684 -0.6751
  203MOL0     C27280   2.922   1.228   9.594 -0.1920  0.1888 -1.2414
  203MOL0     C27281   2.801   1.201   9.689 -0.4414  0.1792 -0.0049
  203MOL0     C27282   2.690   1.286   9.639  0.1425 -0.5447 -0.5912
  203MOL0     C27283   2.553   1.266   9.706  0.0292  0.4109 -0.7316
  203MOL0     C27284   2.532   1.126   9.759  0.3750  0.2427  0.3220
  203MOL0     C27285   2.393   1.128   9.818 -0.4637  0.2913 -0.1763
  203MOL0     C27286   2.337   0.992   9.829 -0.6620  0.4389 -0.1403
  203MOL0     N27287   2.216   0.987   9.912  0.1440  0.5305 -0.8270
  203MOL0     C27288   2.219   1.001  10.048 -0.6688 -0.0600 -0.3156
  203MOL0     C27289   2.092   0.986  10.081 -0.2427  0.1479 -0.3702
  203MOL0     C27290   2.067   0.974  10.224  1.0085 -0.0278 -0.2641
  203MOL0     C27291   1.950   1.068  10.263 -0.4274  0.1772 -0.1903
  203MOL0     C27292   1.993   1.136  10.397 -0.6449  0.4656  0.4945
  203MOL0     C27293   1.872   1.194  10.472 -0.7480  0.2071  0.2905
  203MOL0     O27294   1.792   1.276  10.389 -0.1046 -0.3145 -0.4503
  203MOL0     C27295   1.667   1.309  10.434  0.0898  0.3090  0.4569
  203MOL0     C27296   1.645   1.335  10.566  0.3261 -0.7302 -0.1306
  203MOL0     C27297   1.509   1.348  10.609 -0.2291  0.4702 -0.5962
  203MOL0     C27298   1.486   1.383  10.752 -0.3828 -0.0694 -0.8200
  203MOL0     C27299   1.406   1.343  10.508  0.6543 -1.0163  0.2119
  203MOL0     C27300   1.257   1.360  10.528 -0.1639  0.3684 -0.4207
  203MOL0     O27301   1.172   1.324  10.422 -0.9081 -0.0278 -0.7609
  203MOL0     C27302   1.038   1.293  10.437  0.1112 -0.1588 -0.1035
  203MOL0     C27303   0.953   1.275  10.551  0.9388 -0.0298 -0.0111
  203MOL0     C27304   0.815   1.225  10.545  0.3179  0.1025 -0.3998
  203MOL0     C27305   0.756   1.188  10.421 -0.7012 -0.1882 -0.0164
  203MOL0     O27306   0.645   1.112  10.405  0.5230  0.0812 -0.6881
  203MOL0     C27307   0.540   1.126  10.500 -0.3535  0.1067 -0.2263
  203MOL0     C27308   0.528   0.988  10.573 -0.4750 -0.2285  0.7005
  203MOL0     C27309   0.443   0.882  10.491  0.2370 -0.1935 -0.4025
  203MOL0     C27310   0.304   0.883  10.547  0.3828  0.1719 -0.1246
  203MOL0     C27311   0.230   0.761  10.485 -0.0044  0.2572  0.3618
  203MOL0     C27312   0.099   0.748  10.550  1.0749 -0.0311  0.5158
  203MOL0     C27313   0.016   0.633  10.487  0.3634  0.1345 -0.1553
  203MOL0     C27314  -0.126   0.624  10.542 -0.2144  0.4150  0.3517
  203MOL0    Cl27315  -0.115   0.632  10.727  0.5828 -0.1043  0.5664
  203MOL0     C27316   0.842   1.218  10.302  0.2915 -0.7524 -0.3274
  203MOL0     C27317   0.973   1.278  10.309  0.2532 -0.4962 -0.7676
  203MOL0     O27318   1.222   1.381  10.646  0.9559 -0.3091  0.8986
  203MOL0     C27319   1.438   1.331  10.371  0.5322 -0.4105  0.5583
  203MOL0     C27320   1.569   1.310  10.342  1.0330  0.2516  0.2372
  203MOL0     N27321   2.015   0.937   9.972 -0.7588 -0.3994 -0.1659
  203MOL0     N27322   2.100   0.937   9.870  0.4688 -0.4897  0.0816
  203MOL0     C27323   3.198   1.043   9.460  1.0983  0.7154  0.8282
  203MOL0     C27324   3.337   1.024   9.490 -0.2578 -0.7408  0.3838
  203MOL0     C27325   3.762   1.084   9.583  0.2651 -0.1825 -0.2445
  203MOL0     C27326   3.863   1.159   9.658  1.0683  0.7184  0.9967
  203MOL0     C27327   3.976   1.092   9.703 -1.1419 -0.8398  0.3946
  203MOL0     C27328   4.003   0.961   9.660  0.2728  0.9940 -0.5810
  203MOL0     O27329   4.103   0.876   9.706  0.0689 -0.3148 -0.8019
  203MOL0     C27330   4.187   0.936   9.801 -0.6360 -0.4965  0.1275
  203MOL0     C27331   4.301   0.835   9.826 -1.0126 -1.3736  1.2402
  203MOL0     C27332   4.374   0.805   9.688 -0.0471  0.1879 -0.4015
  203MOL0     C27333   4.431   0.664   9.678 -0.4669  0.0178  0.1352
  203MOL0     C27334   4.541   0.669   9.770  0.1908  0.1035 -0.3696
  203MOL0     C27335   4.628   0.675   9.847 -0.7295  0.0020  0.2748
  203MOL0     C27336   3.917   0.896   9.571 -0.2877 -0.3353  0.9882
  203MOL0     C27337   3.791   0.952   9.535 -0.4741  0.1915 -1.0546
  203MOL0     H27338   3.442   1.325   9.344  0.1353  0.8096  2.1215
  203MOL0     H27339   3.202   1.333   9.290  0.4110  0.4447  0.8071
  203MOL0     H27340   2.818   1.157   9.421 -0.5255  0.6181  1.1964
  203MOL0     H27341   2.919   1.038   9.506 -0.9839 -0.6125 -2.6265
  203MOL0     H27342   3.014   1.211   9.651  0.2146  2.0835 -1.2769
  203MOL0     H27343   2.921   1.333   9.563 -1.2090  1.2503  2.0174
  203MOL0     H27344   2.780   1.093   9.691 -2.5925  0.5455  2.0981
  203MOL0     H27345   2.829   1.237   9.788 -0.2956  1.0257 -0.3477
  203MOL0     H27346   2.716   1.391   9.653 -0.7594 -0.3479 -0.2853
  203MOL0     H27347   2.681   1.270   9.531 -1.2664 -1.8425 -0.3200
  203MOL0     H27348   2.539   1.338   9.787 -2.5837  0.1502 -0.8643
  203MOL0     H27349   2.472   1.291   9.637 -0.0748  0.3300 -0.6391
  203MOL0     H27350   2.537   1.058   9.674  0.5183  0.9994 -0.2843
  203MOL0     H27351   2.594   1.094   9.843 -1.4012  0.2159  1.6802
  203MOL0     H27352   2.411   1.159   9.922  4.4586 -0.7718 -0.4545
  203MOL0     H27353   2.322   1.202   9.780 -2.1889 -1.1759  0.1044
  203MOL0     H27354   2.407   0.914   9.862 -2.9518 -2.4697 -1.7093
  203MOL0     H27355   2.301   0.956   9.732 -0.7002 -0.1518  0.0936
  203MOL0     H27356   2.304   1.018  10.114 -0.3028  0.6559 -0.9471
  203MOL0     H27357   2.022   0.875  10.241 -0.6923  1.0040  1.7597
  203MOL0     H27358   2.154   0.994  10.286  0.6246  0.7221  0.0462
  203MOL0     H27359   1.850   1.023  10.263 -0.0167 -0.7771  0.9828
  203MOL0     H27360   1.946   1.147  10.188 -1.3578 -1.1750 -1.6188
  203MOL0     H27361   2.074   1.207  10.374  0.1214 -0.7286 -0.6584
  203MOL0     H27362   2.029   1.057  10.463 -1.4527 -1.1077 -0.8831
  203MOL0     H27363   1.909   1.248  10.560  1.3663 -2.1597  1.0115
  203MOL0     H27364   1.809   1.112  10.506 -2.7603  2.3242  1.9706
  203MOL0     H27365   1.726   1.337  10.638 -2.6673  0.9253  3.5067
  203MOL0     H27366   1.584   1.380  10.800 -0.6714  2.2858  0.0677
  203MOL0     H27367   1.444   1.484  10.756  2.7813  1.3135  0.9671
  203MOL0     H27368   1.416   1.312  10.796  0.0845  0.5088  0.9155
  203MOL0     H27369   0.995   1.267  10.651  1.6805 -4.6805 -0.4799
  203MOL0     H27370   0.762   1.205  10.638 -1.3627  1.9150 -0.9011
  203MOL0     H27371   0.555   1.212  10.567  1.9423  0.7782 -1.4860
  203MOL0     H27372   0.447   1.139  10.443  1.3730 -0.9194 -3.5300
  203MOL0     H27373   0.627   0.946  10.588  0.1437  1.4834  1.6193
  203MOL0     H27374   0.485   1.004  10.673  1.1162  0.1705  1.3448
  203MOL0     H27375   0.500   0.788  10.496 -1.6225 -1.2896  2.5987
  203MOL0     H27376   0.440   0.902  10.383  1.1424  0.6100 -0.2919
  203MOL0     H27377   0.300   0.885  10.656 -1.2250  0.2731 -0.1572
  203MOL0     H27378   0.240   0.967  10.518 -0.8986 -0.7170  0.0680
  203MOL0     H27379   0.282   0.664  10.487 -3.8581 -1.9922  0.8306
  203MOL0     H27380   0.218   0.780  10.378 -0.2950  2.1387  0.7043
  203MOL0     H27381   0.113   0.744  10.659  1.0531  0.3024  0.5325
  203MOL0     H27382   0.042   0.840  10.532  1.6235 -0.0369 -1.4128
  203MOL0     H27383   0.061   0.538  10.516  0.1644 -0.2737 -1.1628
  203MOL0     H27384   0.019   0.641  10.378 -2.8516  0.4625 -0.3013
  203MOL0     H27385  -0.166   0.529  10.503  2.6978  0.1806 -2.5052
  203MOL0     H27386  -0.185   0.709  10.506  1.6951  1.5807 -0.1438
  203MOL0     H27387   0.796   1.199  10.206 -0.3931 -0.9578  0.0356
  203MOL0     H27388   1.032   1.297  10.220  0.8216 -1.6571 -0.6654
  203MOL0     H27389   1.364   1.318  10.293  0.0336 -1.0174  1.1320
  203MOL0     H27390   1.590   1.294  10.237 -1.7791 -0.2825 -0.3335
  203MOL0     H27391   3.123   0.964   9.459 -0.7741  2.3864 -1.8155
  203MOL0     H27392   3.376   0.930   9.528 -1.4278 -0.5836  2.0476
  203MOL0     H27393   3.851   1.260   9.697  1.1873  2.0889 -2.2586
  203MOL0     H27394   4.038   1.143   9.776  0.4868 -1.4021 -0.5379
  203MOL0     H27395   4.216   1.036   9.766 -0.4999  0.5974  3.0811
  203MOL0     H27396   4.140   0.952   9.898 -3.4158  1.4066 -1.3645
  203MOL0     H27397   4.279   0.751   9.892  1.6746 -2.6246  0.6520
  203MOL0     H27398   4.369   0.891   9.890  1.2362 -1.2283 -1.1312
  203MOL0     H27399   4.448   0.883   9.669  1.1996 -1.0839 -0.8750
  203MOL0     H27400   4.301   0.820   9.607 -2.3808  3.3471  2.0401
  203MOL0     H27401   4.469   0.644   9.577 -1.1539  0.6447 -0.2656
  203MOL0     H27402   4.358   0.589   9.710 -1.2529  1.5099  2.0191
  203MOL0     H27403   4.700   0.666   9.926 -0.0544 -0.9621 -0.4298
  203MOL0     H27404   3.934   0.791   9.553  1.5253  0.0247  0.4599
  203MOL0     H27405   3.726   0.892   9.472 -1.3966 -0.5375  0.5410
  204MOL0     O27406   9.148   8.010  11.112 -0.1415  0.6086 -0.7905
  204MOL0     C27407   9.180   7.955  11.214  0.2205  0.2956 -0.0877
  204MOL0     O27408   9.123   7.969  11.338  0.6653 -0.3087 -0.1943
  204MOL0     C27409   9.056   8.089  11.356  0.4481  0.7345  0.6712
  204MOL0     C27410   8.923   8.083  11.400  0.1882  0.4616  0.8359
  204MOL0     C27411   8.848   8.206  11.425 -0.6889 -0.3378 -0.8547
  204MOL0     C27412   8.908   8.328  11.381 -0.5551  0.7584 -0.0009
  204MOL0     O27413   8.857   8.456  11.390  0.7547  0.6739 -0.1851
  204MOL0     C27414   8.717   8.470  11.400  0.7157 -0.3928 -0.1104
  204MOL0     C27415   8.676   8.602  11.330  0.4023 -0.2068 -0.4015
  204MOL0     C27416   8.536   8.658  11.373  0.3500  0.0462 -0.3707
  204MOL0     C27417   8.424   8.576  11.319  0.1217 -0.4868 -0.1138
  204MOL0     C27418   8.290   8.651  11.349 -0.3840 -0.3793  0.4002
  204MOL0     C27419   8.177   8.590  11.269  0.2276 -0.7331 -0.1762
  204MOL0     C27420   8.042   8.651  11.310  0.3232  0.0045 -0.5213
  204MOL0     C27421   7.996   8.770  11.223 -0.0700  0.5311 -0.3757
  204MOL0     N27422   7.860   8.797  11.255 -0.1113 -0.3540 -0.0290
  204MOL0     C27423   7.757   8.756  11.182  0.3825 -0.1221  0.4835
  204MOL0     C27424   7.642   8.789  11.243  0.4291  0.3881  0.2772
  204MOL0     C27425   7.505   8.772  11.190  0.5458 -0.4299 -0.6119
  204MOL0     C27426   7.400   8.858  11.268  0.3844  1.0395 -0.3132
  204MOL0     C27427   7.268   8.791  11.223  0.3242  0.3250  0.2068
  204MOL0     C27428   7.149   8.858  11.290 -0.0920  0.7026 -1.5136
  204MOL0     O27429   7.038   8.778  11.260  0.1360  0.2850 -0.2869
  204MOL0     C27430   6.922   8.776  11.337  0.1468  0.0716 -0.2125
  204MOL0     C27431   6.893   8.837  11.460 -0.2177  0.4174 -0.0513
  204MOL0     C27432   6.769   8.833  11.518  0.0697  0.0234  0.2499
  204MOL0     C27433   6.752   8.904  11.651 -0.0423  0.9291  0.0156
  204MOL0     C27434   6.668   8.761  11.454  1.1978 -0.2950  0.1285
  204MOL0     C27435   6.523   8.751  11.494  0.0889  0.7027 -0.3881
  204MOL0     O27436   6.501   8.779  11.629  0.4521  0.1856  0.9380
  204MOL0     C27437   6.376   8.801  11.677  0.1957  0.6391 -0.6135
  204MOL0     C27438   6.266   8.713  11.658 -0.1235 -0.6972  0.3758
  204MOL0     C27439   6.136   8.752  11.685 -0.7393 -0.0108  0.3478
  204MOL0     C27440   6.113   8.878  11.731  0.4824 -0.2961  0.1863
  204MOL0     O27441   5.980   8.910  11.750 -0.3853  0.6492  0.2794
  204MOL0     C27442   5.945   9.030  11.809 -0.2751  0.3595  0.0670
  204MOL0     C27443   5.819   8.997  11.890 -0.6934 -0.5344  0.5950
  204MOL0     C27444   5.832   8.879  11.988  0.3097  0.3457 -0.8884
  204MOL0     C27445   5.715   8.872  12.091 -0.7239  0.2509  0.3537
  204MOL0     C27446   5.724   8.751  12.184 -0.3440  0.7863  0.5036
  204MOL0     C27447   5.667   8.627  12.114 -0.3981  0.2254  0.4935
  204MOL0     C27448   5.685   8.512  12.210  0.4916  0.8725  0.4282
  204MOL0     C27449   5.632   8.382  12.141 -0.2379  0.8620  0.5363
  204MOL0    Cl27450   5.650   8.247  12.262  0.5586  0.2972  0.1708
  204MOL0     C27451   6.219   8.969  11.751 -0.0123  0.0208  0.0665
  204MOL0     C27452   6.351   8.929  11.734  0.0068 -0.0478 -0.1731
  204MOL0     O27453   6.438   8.739  11.409 -0.4448 -0.1321 -0.3469
  204MOL0     C27454   6.695   8.698  11.326  0.5898  0.4304 -0.1825
  204MOL0     C27455   6.823   8.696  11.275 -0.2208  0.0290  0.2233
  204MOL0     N27456   7.670   8.850  11.360 -0.1919  0.1997 -0.3903
  204MOL0     N27457   7.800   8.856  11.363 -0.0149  0.3339 -0.5250
  204MOL0     C27458   9.043   8.328  11.339 -0.3749 -0.3685 -0.0879
  204MOL0     C27459   9.116   8.215  11.330 -0.2749 -0.9322 -0.0977
  204MOL0     C27460   9.295   7.874  11.198  0.6502 -0.2263 -0.0803
  204MOL0     C27461   9.292   7.743  11.241 -0.8534  0.0437 -0.1717
  204MOL0     C27462   9.400   7.654  11.204  0.1089 -0.1738 -0.4054
  204MOL0     C27463   9.519   7.703  11.155  0.1907  0.0509  0.0187
  204MOL0     O27464   9.616   7.611  11.154  1.1568  0.4378  0.3593
  204MOL0     C27465   9.735   7.658  11.092 -0.3850 -0.7452  0.1729
  204MOL0     C27466   9.853   7.567  11.100 -0.0023  0.3883  0.3393
  204MOL0     C27467   9.959   7.597  10.991  0.7137  0.2397  0.0262
  204MOL0     C27468  10.082   7.526  11.019 -0.6218  0.2111 -0.2505
  204MOL0     C27469  10.154   7.604  11.121 -0.0200 -0.0143  0.1672
  204MOL0     C27470  10.228   7.666  11.192 -0.2088  0.5047  0.3651
  204MOL0     C27471   9.517   7.835  11.112  0.0310 -0.3789 -0.5466
  204MOL0     C27472   9.403   7.921  11.131 -0.0536  0.1337  0.3813
  204MOL0     H27473   8.876   7.985  11.403 -2.2207  1.3611 -2.1608
  204MOL0     H27474   8.744   8.200  11.455 -0.3003 -1.3597  0.4275
  204MOL0     H27475   8.659   8.387  11.360 -0.1405 -0.2819  0.8761
  204MOL0     H27476   8.696   8.464  11.507  0.3508 -0.6728 -0.1991
  204MOL0     H27477   8.744   8.681  11.362  0.2952 -0.1888 -0.2185
  204MOL0     H27478   8.680   8.600  11.220 -0.3899  0.2845 -0.4510
  204MOL0     H27479   8.525   8.676  11.481 -1.3709  2.4946 -0.8685
  204MOL0     H27480   8.518   8.753  11.323 -4.0106  0.4876  1.5934
  204MOL0     H27481   8.434   8.576  11.210  1.4483  3.1158 -0.1295
  204MOL0     H27482   8.425   8.472  11.354  1.8333 -0.7456 -0.8335
  204MOL0     H27483   8.257   8.646  11.453  0.0866 -1.9556  0.4915
  204MOL0     H27484   8.302   8.758  11.328  0.7513 -0.7861 -1.1483
  204MOL0     H27485   8.207   8.593  11.164 -0.5829 -1.9915 -0.4685
  204MOL0     H27486   8.167   8.483  11.290  1.0179 -0.7047  0.4035
  204MOL0     H27487   7.971   8.571  11.288  1.1929 -0.6688 -0.9279
  204MOL0     H27488   8.044   8.685  11.414  3.1418  2.1856 -1.1706
  204MOL0     H27489   8.009   8.748  11.117  2.9080 -1.1113  0.2108
  204MOL0     H27490   8.061   8.854  11.248  0.9546 -0.1833 -0.5481
  204MOL0     H27491   7.769   8.703  11.087  0.4308  1.9969 -0.7438
  204MOL0     H27492   7.500   8.801  11.085  0.8691  2.2291  0.0404
  204MOL0     H27493   7.469   8.669  11.201 -1.0996 -0.0955 -2.2177
  204MOL0     H27494   7.415   8.958  11.226  1.1523  1.0024 -0.1400
  204MOL0     H27495   7.413   8.852  11.376  1.4197 -0.4805 -0.4881
  204MOL0     H27496   7.264   8.684  11.246  1.0939  0.0974 -0.6293
  204MOL0     H27497   7.245   8.787  11.116 -3.6635 -2.2276  0.9416
  204MOL0     H27498   7.134   8.963  11.261 -0.3028  0.2565 -3.1071
  204MOL0     H27499   7.166   8.862  11.398 -3.5107  2.7593 -0.8964
  204MOL0     H27500   6.980   8.890  11.498  0.8257 -2.8693  2.6782
  204MOL0     H27501   6.657   8.958  11.659 -1.2321 -1.0981  0.1380
  204MOL0     H27502   6.755   8.826  11.727 -2.1830 -2.7068 -3.2686
  204MOL0     H27503   6.842   8.963  11.667  1.7260 -0.8710 -2.4561
  204MOL0     H27504   6.281   8.622  11.601 -3.9644 -1.1157 -0.1975
  204MOL0     H27505   6.053   8.685  11.664  1.1074 -1.6940 -2.1874
  204MOL0     H27506   6.024   9.056  11.880 -0.5255  1.3284 -0.0082
  204MOL0     H27507   5.928   9.104  11.731 -2.1387 -1.8547 -1.7859
  204MOL0     H27508   5.794   9.087  11.947 -0.1472  1.1081 -1.6305
  204MOL0     H27509   5.738   8.978  11.819 -0.2701 -2.2955  0.5215
  204MOL0     H27510   5.930   8.879  12.037 -0.7736 -0.2545  1.4135
  204MOL0     H27511   5.828   8.786  11.930  1.1853 -0.7546  0.7175
  204MOL0     H27512   5.718   8.965  12.149  1.5265 -0.1607  0.9788
  204MOL0     H27513   5.620   8.870  12.036  0.0535 -1.2401 -1.0327
  204MOL0     H27514   5.673   8.771  12.279  0.3508 -0.2310  1.1127
  204MOL0     H27515   5.825   8.726  12.219 -1.1546  1.4114  3.6732
  204MOL0     H27516   5.559   8.637  12.100 -0.7508 -1.1724  1.8644
  204MOL0     H27517   5.725   8.591  12.029  0.7932 -1.0069  1.7764
  204MOL0     H27518   5.621   8.537  12.294  2.2078  1.6627  1.5606
  204MOL0     H27519   5.783   8.503  12.259  1.1231  2.3045 -0.5011
  204MOL0     H27520   5.688   8.376  12.047 -0.1435  2.2097  0.4888
  204MOL0     H27521   5.525   8.389  12.118  0.2680  2.6508 -1.7110
  204MOL0     H27522   6.203   9.076  11.762 -0.2202  0.0355 -0.3644
  204MOL0     H27523   6.432   9.000  11.717 -0.2002 -0.3186 -2.7836
  204MOL0     H27524   6.615   8.654  11.268 -1.2848  1.6082  1.3497
  204MOL0     H27525   6.847   8.638  11.186 -1.7673 -0.5149  0.1290
  204MOL0     H27526   9.093   8.419  11.305 -0.8312 -0.3647 -0.7728
  204MOL0     H27527   9.219   8.226  11.301 -0.7066  0.5031 -1.2171
  204MOL0     H27528   9.207   7.691  11.286 -1.5071  0.8732 -0.4348
  204MOL0     H27529   9.387   7.553  11.243 -0.3938 -0.4983 -1.3719
  204MOL0     H27530   9.714   7.682  10.988  0.9116 -0.8383 -0.1191
  204MOL0     H27531   9.759   7.750  11.146 -0.3922 -1.2351  1.0365
  204MOL0     H27532   9.823   7.462  11.093  1.4848  0.0202 -1.0726
  204MOL0     H27533   9.898   7.585  11.198  2.5682 -2.4796 -0.1815
  204MOL0     H27534   9.967   7.706  11.001 -3.7067  0.5945  2.0498
  204MOL0     H27535   9.922   7.570  10.892  3.5091 -1.9238 -0.5545
  204MOL0     H27536  10.134   7.514  10.923 -1.8263  0.9543 -1.0299
  204MOL0     H27537  10.069   7.423  11.055 -0.1335 -1.7012 -4.7655
  204MOL0     H27538  10.297   7.720  11.253 -0.5324 -0.9067  2.0750
  204MOL0     H27539   9.605   7.875  11.064  0.1145  0.3821  0.2029
  204MOL0     H27540   9.404   8.021  11.087  3.2708  0.9415  1.9121
  205MOL0     O27541   0.424  11.063   3.637 -0.0076  0.9324 -0.0163
  205MOL0     C27542   0.485  11.101   3.733 -0.0136 -0.2727  0.3882
  205MOL0     O27543   0.455  11.098   3.863 -0.3305  0.6102 -0.3635
  205MOL0     C27544   0.357  11.006   3.900  0.5478  0.7046  0.1320
  205MOL0     C27545   0.404  10.892   3.971  0.6581 -0.5899  0.0186
  205MOL0     C27546   0.315  10.790   4.001  0.6187  0.0351 -0.1561
  205MOL0     C27547   0.179  10.795   3.966 -0.8049 -0.8082  0.4584
  205MOL0     O27548   0.084  10.705   3.982  0.1197  0.0941 -0.1242
  205MOL0     C27549   0.138  10.574   3.963  0.6982  0.1281 -0.5895
  205MOL0     C27550   0.025  10.475   3.931 -0.4164 -0.9056 -0.2185
  205MOL0     C27551  -0.056  10.522   3.806 -0.5777  0.7653  0.1136
  205MOL0     C27552  -0.174  10.434   3.777  0.4310  0.2337 -1.2573
  205MOL0     C27553  -0.298  10.484   3.853 -0.3311 -0.2710 -0.8908
  205MOL0     C27554  -0.420  10.403   3.831  0.5623 -0.1483 -0.2412
  205MOL0     C27555  -0.555  10.456   3.876  0.3698  0.2755  0.6243
  205MOL0     C27556  -0.675  10.367   3.837  0.7405  0.4400 -0.2730
  205MOL0     N27557  -0.697  10.313   3.703  0.0316 -0.3838 -0.0404
  205MOL0     C27558  -0.794  10.219   3.661 -0.2727  0.3468 -0.8961
  205MOL0     C27559  -0.787  10.230   3.522  0.8179  0.6975  0.5729
  205MOL0     C27560  -0.887  10.159   3.428  1.4728  0.1354  0.0461
  205MOL0     C27561  -1.025  10.209   3.432 -0.5088 -1.2751 -0.1972
  205MOL0     C27562  -1.035  10.349   3.365  0.1662  0.0844  0.2710
  205MOL0     C27563  -1.179  10.409   3.365  0.6437  0.1403  0.2735
  205MOL0     O27564  -1.282  10.310   3.358 -0.1377  0.1668  1.0506
  205MOL0     C27565  -1.411  10.346   3.362  0.4242  0.1659 -0.5823
  205MOL0     C27566  -1.468  10.470   3.379  0.3587  0.1437 -0.2777
  205MOL0     C27567  -1.607  10.494   3.398  0.1148 -0.7273  0.2198
  205MOL0     C27568  -1.658  10.638   3.404  0.2196 -0.3398 -0.0605
  205MOL0     C27569  -1.691  10.381   3.396  0.3077 -0.7063 -0.5800
  205MOL0     C27570  -1.837  10.399   3.415  0.8542  0.9994 -0.6036
  205MOL0     O27571  -1.908  10.318   3.341 -0.0297  0.4070  0.3565
  205MOL0     C27572  -2.038  10.309   3.346  0.4037  0.4541 -0.2619
  205MOL0     C27573  -2.111  10.332   3.228  0.2471  0.0079  0.2338
  205MOL0     C27574  -2.250  10.329   3.228 -0.4932  0.0521  0.6030
  205MOL0     C27575  -2.319  10.280   3.339  0.1133  0.5115 -0.0312
  205MOL0     O27576  -2.455  10.273   3.352  0.8382 -0.0812 -0.7326
  205MOL0     C27577  -2.530  10.252   3.239  0.8892 -0.2449 -0.2792
  205MOL0     C27578  -2.656  10.167   3.272 -0.7036  0.8679 -0.1142
  205MOL0     C27579  -2.776  10.232   3.344  0.4689 -0.1919  0.0309
  205MOL0     C27580  -2.908  10.156   3.362  1.0244 -0.7660 -0.2876
  205MOL0     C27581  -2.895  10.040   3.464  0.0113  0.3236  0.1748
  205MOL0     C27582  -2.901  10.083   3.609 -0.4745  0.1261  0.0980
  205MOL0     C27583  -2.873   9.979   3.715 -0.1420 -0.1336  0.0828
  205MOL0     C27584  -2.818  10.025   3.846  0.2933 -0.2249 -0.6618
  205MOL0    Cl27585  -2.643  10.071   3.835 -0.0745 -0.0886  0.1445
  205MOL0     C27586  -2.246  10.246   3.452  0.1328  0.7482 -0.0517
  205MOL0     C27587  -2.104  10.264   3.465 -0.0248 -0.2436  0.9908
  205MOL0     O27588  -1.879  10.488   3.489  0.6309  0.0507 -0.5966
  205MOL0     C27589  -1.639  10.254   3.370  0.9767  0.4241  0.6694
  205MOL0     C27590  -1.501  10.239   3.347 -0.7662 -0.7889 -1.4081
  205MOL0     N27591  -0.685  10.316   3.495  1.0602 -0.4666 -0.5267
  205MOL0     N27592  -0.632  10.365   3.599 -0.0918 -0.5344 -0.3291
  205MOL0     C27593   0.136  10.918   3.910  0.2420 -0.0486  0.2604
  205MOL0     C27594   0.222  11.021   3.872 -0.2520 -0.7319 -0.1267
  205MOL0     C27595   0.607  11.181   3.702 -0.5243  0.2008  0.6664
  205MOL0     C27596   0.670  11.249   3.810  0.2067  0.0389  0.3988
  205MOL0     C27597   0.781  11.327   3.784 -0.5191 -0.6797 -0.5163
  205MOL0     C27598   0.821  11.352   3.655  0.1495 -0.7451 -0.1221
  205MOL0     O27599   0.923  11.447   3.639 -0.3992  0.2125 -0.3560
  205MOL0     C27600   0.978  11.484   3.509  0.1084 -0.6056 -0.3996
  205MOL0     C27601   1.032  11.625   3.519 -1.2370  1.4487  0.5169
  205MOL0     C27602   1.145  11.639   3.619 -0.4814 -0.1856 -0.4196
  205MOL0     C27603   1.282  11.569   3.580  0.8045 -0.2441  0.4937
  205MOL0     C27604   1.390  11.621   3.655 -0.1153 -0.2805 -0.0047
  205MOL0     C27605   1.489  11.656   3.711 -0.0580 -0.0373 -1.7085
  205MOL0     C27606   0.770  11.277   3.548 -0.1742 -1.1568  1.1778
  205MOL0     C27607   0.669  11.182   3.572 -0.3193  0.5597 -0.3790
  205MOL0     H27608   0.509  10.873   3.992  0.1851 -2.9594  0.4579
  205MOL0     H27609   0.357  10.701   4.046  0.2927 -1.9340 -3.4303
  205MOL0     H27610   0.214  10.570   3.885  1.5111 -1.8238  0.2315
  205MOL0     H27611   0.193  10.540   4.051 -1.5048  0.9498  1.2162
  205MOL0     H27612   0.065  10.375   3.912  0.6489 -0.5117 -0.1231
  205MOL0     H27613  -0.046  10.469   4.014  1.8518 -0.7505  1.8698
  205MOL0     H27614  -0.090  10.625   3.815 -0.1082  1.2223 -2.4463
  205MOL0     H27615   0.015  10.519   3.722  1.3396  2.4993  1.5530
  205MOL0     H27616  -0.200  10.440   3.671 -0.2498  2.0480 -1.0199
  205MOL0     H27617  -0.142  10.334   3.808  2.6777  1.8085  2.1686
  205MOL0     H27618  -0.288  10.488   3.962 -1.4545  1.1573 -0.8094
  205MOL0     H27619  -0.319  10.583   3.813  0.8235  1.1084  1.6783
  205MOL0     H27620  -0.427  10.374   3.726 -0.6311 -2.4595  0.3866
  205MOL0     H27621  -0.404  10.310   3.887  0.6330  0.6750  1.1617
  205MOL0     H27622  -0.565  10.462   3.984 -0.8782 -1.4551  0.6432
  205MOL0     H27623  -0.571  10.552   3.825  2.8312  0.7978  0.7202
  205MOL0     H27624  -0.761  10.433   3.845  1.3382  1.2544 -0.4334
  205MOL0     H27625  -0.683  10.285   3.909  0.9045  0.4269 -0.2695
  205MOL0     H27626  -0.861  10.153   3.716  1.4795 -0.9844 -0.2602
  205MOL0     H27627  -0.858  10.166   3.323 -1.7801  2.2774 -0.8522
  205MOL0     H27628  -0.891  10.054   3.459 -0.5628  0.5852  1.5700
  205MOL0     H27629  -1.051  10.220   3.538  2.2091 -1.2404  0.5575
  205MOL0     H27630  -1.090  10.137   3.382 -0.6785 -1.0721 -0.2684
  205MOL0     H27631  -0.997  10.342   3.263  0.1360  1.4052  0.1580
  205MOL0     H27632  -0.955  10.407   3.413 -0.0313  0.1553  0.5195
  205MOL0     H27633  -1.190  10.481   3.284  1.5623 -2.0289 -1.8680
  205MOL0     H27634  -1.186  10.460   3.462  1.4731  0.0420  0.3917
  205MOL0     H27635  -1.402  10.555   3.366  0.6243  0.6635  3.3426
  205MOL0     H27636  -1.578  10.712   3.398 -1.0725  1.0241 -1.2270
  205MOL0     H27637  -1.730  10.658   3.324 -1.4646 -1.2115  1.1723
  205MOL0     H27638  -1.704  10.662   3.500 -0.8270 -0.8698 -0.4153
  205MOL0     H27639  -2.056  10.370   3.142 -1.2021  0.2399 -0.6179
  205MOL0     H27640  -2.302  10.347   3.134  0.3977  0.4759  0.1801
  205MOL0     H27641  -2.576  10.343   3.200  1.3200  1.2013  2.3283
  205MOL0     H27642  -2.486  10.191   3.160 -1.8279 -0.5750 -1.6638
  205MOL0     H27643  -2.695  10.127   3.178  1.1025  0.4969 -0.7470
  205MOL0     H27644  -2.616  10.079   3.326 -1.1762 -0.4528 -1.8298
  205MOL0     H27645  -2.805  10.320   3.285 -1.1568 -1.1087 -0.5990
  205MOL0     H27646  -2.743  10.276   3.438 -1.2579 -0.0983  0.6259
  205MOL0     H27647  -2.986  10.225   3.394  1.1544 -0.2122 -1.1483
  205MOL0     H27648  -2.945  10.109   3.271  1.1697 -1.5266  0.0380
  205MOL0     H27649  -2.801   9.986   3.452  0.3529  0.9610 -0.0651
  205MOL0     H27650  -2.978   9.974   3.437  2.2921 -2.1962 -1.1603
  205MOL0     H27651  -2.826  10.162   3.622 -2.7583  2.6629 -1.2220
  205MOL0     H27652  -3.001  10.125   3.620 -0.3068  0.0138  2.6656
  205MOL0     H27653  -2.805   9.904   3.674  2.9548  2.7192 -0.4329
  205MOL0     H27654  -2.964   9.920   3.734  2.5150 -3.5243  3.7702
  205MOL0     H27655  -2.826   9.945   3.919  1.0391 -0.4801 -0.8432
  205MOL0     H27656  -2.881  10.107   3.880  1.2106 -0.1690  0.9952
  205MOL0     H27657  -2.305  10.207   3.534  0.3214  1.1417  0.2792
  205MOL0     H27658  -2.056  10.219   3.551 -0.3358  3.6047  3.4240
  205MOL0     H27659  -1.700  10.164   3.364  1.5284  0.0846 -0.0232
  205MOL0     H27660  -1.477  10.135   3.327  2.7896 -1.0010  2.5143
  205MOL0     H27661   0.030  10.912   3.889  0.0659  0.2939  0.9950
  205MOL0     H27662   0.197  11.113   3.820 -2.0685 -0.8411  0.4863
  205MOL0     H27663   0.631  11.233   3.910  0.7116  0.4562  0.6669
  205MOL0     H27664   0.829  11.375   3.868 -0.7768 -2.3528  0.6366
  205MOL0     H27665   1.053  11.410   3.480 -0.5411 -1.3190 -0.3021
  205MOL0     H27666   0.904  11.493   3.428  0.0749  1.1268 -0.2005
  205MOL0     H27667   0.958  11.702   3.540 -1.5464  1.5220 -0.7656
  205MOL0     H27668   1.067  11.653   3.419 -0.2019  1.0804  0.7633
  205MOL0     H27669   1.119  11.593   3.714 -0.5549 -0.7619 -0.7176
  205MOL0     H27670   1.153  11.747   3.638 -2.1797  0.2441 -1.8138
  205MOL0     H27671   1.294  11.585   3.472  3.2698 -0.1748  0.7131
  205MOL0     H27672   1.280  11.460   3.588  1.9641 -0.4805 -1.7610
  205MOL0     H27673   1.586  11.692   3.741 -0.2890  1.0854 -2.2673
  205MOL0     H27674   0.816  11.275   3.450  3.2924 -1.1080  2.6612
  205MOL0     H27675   0.630  11.131   3.484  1.8225  2.7637 -2.8050
  206MOL0     O27676  10.301   5.787   2.400 -0.0984 -0.3011 -0.3329
  206MOL0     C27677  10.369   5.882   2.370 -0.8451 -0.5419 -0.6029
  206MOL0     O27678  10.346   6.012   2.410 -0.1924 -0.3213 -0.4448
  206MOL0     C27679  10.222   6.030   2.474  0.3281 -0.5090 -0.1819
  206MOL0     C27680  10.095   6.006   2.409 -0.4427 -0.4945  0.1493
  206MOL0     C27681   9.976   6.047   2.473  0.1194 -0.3459  0.1065
  206MOL0     C27682   9.971   6.092   2.606 -0.8679  0.2702  0.2020
  206MOL0     O27683   9.857   6.114   2.680  0.6073  0.0586 -0.0148
  206MOL0     C27684   9.792   6.236   2.662 -0.0562 -0.0424 -0.2201
  206MOL0     C27685   9.694   6.230   2.543 -0.3985  0.3193 -0.3265
  206MOL0     C27686   9.570   6.138   2.573 -1.1503 -0.2039 -0.2166
  206MOL0     C27687   9.475   6.217   2.667 -0.3028 -0.3531 -0.7002
  206MOL0     C27688   9.362   6.130   2.717  0.6979  0.8258 -0.5786
  206MOL0     C27689   9.272   6.069   2.609  0.8804  0.2140 -0.4438
  206MOL0     C27690   9.131   6.048   2.654 -0.0197  0.4247  0.1428
  206MOL0     C27691   9.043   6.179   2.646 -0.5690 -0.2528  0.0414
  206MOL0     N27692   8.898   6.152   2.656  0.2506  0.4742  0.4045
  206MOL0     C27693   8.842   6.042   2.730  0.4704 -0.2518  0.3333
  206MOL0     C27694   8.705   6.059   2.721 -0.3274 -0.9215  0.7026
  206MOL0     C27695   8.598   5.994   2.803  0.1432 -0.0499  0.1960
  206MOL0     C27696   8.527   5.882   2.730  0.2338 -0.2100  0.0501
  206MOL0     C27697   8.444   5.932   2.605 -0.0461  0.5748  0.1986
  206MOL0     C27698   8.362   5.824   2.535  0.1603  0.2840  0.2140
  206MOL0     O27699   8.281   5.760   2.628  0.4415  0.2060 -0.4497
  206MOL0     C27700   8.161   5.824   2.676 -0.4860 -0.2675  0.1968
  206MOL0     C27701   8.113   5.951   2.636  0.5002  0.1805 -0.1343
  206MOL0     C27702   8.001   6.010   2.697  0.8470 -0.2505  0.3109
  206MOL0     C27703   7.969   6.150   2.639 -0.2033  0.3431 -0.1011
  206MOL0     C27704   7.915   5.938   2.786  0.3441 -0.1852 -0.2285
  206MOL0     C27705   7.802   5.991   2.857  0.0094 -0.1389  0.6874
  206MOL0     O27706   7.764   6.125   2.846  0.1646 -0.2314 -0.4607
  206MOL0     C27707   7.655   6.190   2.911  0.7140  0.7378 -0.2779
  206MOL0     C27708   7.603   6.303   2.856  0.3079 -0.2491  0.8137
  206MOL0     C27709   7.490   6.360   2.901  0.0985  0.5023  0.2434
  206MOL0     C27710   7.431   6.321   3.022 -0.3255  0.1572 -0.4404
  206MOL0     O27711   7.324   6.374   3.079 -0.3386 -0.4520 -0.4214
  206MOL0     C27712   7.294   6.511   3.083 -0.5810 -0.4945 -1.0035
  206MOL0     C27713   7.194   6.554   2.970  0.2503  0.1386 -0.9731
  206MOL0     C27714   7.063   6.474   2.960  0.7231  0.0855 -0.2378
  206MOL0     C27715   6.994   6.531   2.827 -0.6291 -0.0959  0.4686
  206MOL0     C27716   6.896   6.433   2.769  1.0104 -0.1919  0.9886
  206MOL0     C27717   6.840   6.495   2.639  0.2644 -0.4292 -0.3126
  206MOL0     C27718   6.748   6.389   2.590 -0.8065 -0.5474 -0.3182
  206MOL0     C27719   6.646   6.450   2.487 -0.1648  0.1359  1.3504
  206MOL0    Cl27720   6.528   6.563   2.548  0.0862 -0.1170  0.2287
  206MOL0     C27721   7.475   6.208   3.085 -1.0317  0.2169  0.1756
  206MOL0     C27722   7.586   6.139   3.030  0.3304  0.2236  0.6425
  206MOL0     O27723   7.744   5.905   2.919  0.4805  0.0080 -0.4310
  206MOL0     C27724   7.966   5.811   2.823  0.4916  0.5729  0.5163
  206MOL0     C27725   8.083   5.758   2.770 -0.5031  0.0537  0.9955
  206MOL0     N27726   8.683   6.169   2.637 -0.1428 -0.1816 -0.0390
  206MOL0     N27727   8.794   6.220   2.599 -0.2934 -0.4773  0.3828
  206MOL0     C27728  10.094   6.106   2.670  0.9736  0.1810  0.1210
  206MOL0     C27729  10.216   6.078   2.607 -0.1408  0.1527  0.1162
  206MOL0     C27730  10.490   5.847   2.287 -0.5518  0.4731 -0.0868
  206MOL0     C27731  10.609   5.923   2.290  0.9277 -0.0596 -0.4948
  206MOL0     C27732  10.723   5.885   2.214 -0.6901 -0.6927 -0.4260
  206MOL0     C27733  10.717   5.779   2.126  0.1588  0.5365  0.3233
  206MOL0     O27734  10.831   5.741   2.072 -0.6304 -0.3172  0.1156
  206MOL0     C27735  10.899   5.635   2.142  0.0515 -0.0353 -0.0264
  206MOL0     C27736  10.892   5.513   2.059 -0.0665  0.5482 -0.4977
  206MOL0     C27737  10.975   5.531   1.926 -0.0375 -0.5955  0.1908
  206MOL0     C27738  10.993   5.404   1.849  0.5605 -0.4308  0.3206
  206MOL0     C27739  11.092   5.436   1.751  0.9501 -0.1628  0.4481
  206MOL0     C27740  11.184   5.464   1.669  0.0189 -0.0507  0.2724
  206MOL0     C27741  10.598   5.703   2.118  0.5533  0.0614  0.1940
  206MOL0     C27742  10.492   5.737   2.196 -1.1789  0.4768 -0.1850
  206MOL0     H27743  10.100   5.977   2.304  3.4118  0.1744  0.0237
  206MOL0     H27744   9.885   6.035   2.415 -0.1984 -0.2847  0.5865
  206MOL0     H27745   9.740   6.277   2.749  0.5848  3.3489 -1.2896
  206MOL0     H27746   9.860   6.321   2.647  2.1676 -1.1060  2.9145
  206MOL0     H27747   9.665   6.332   2.515  1.3978  0.6734 -0.9997
  206MOL0     H27748   9.729   6.192   2.447 -1.0157 -2.9196  0.5956
  206MOL0     H27749   9.515   6.108   2.483 -2.3514  1.7058 -0.1702
  206MOL0     H27750   9.606   6.045   2.619 -0.1377 -0.3877 -1.3115
  206MOL0     H27751   9.518   6.241   2.765 -0.0893  2.1412 -1.3480
  206MOL0     H27752   9.430   6.301   2.615 -3.2968  0.0403  2.1597
  206MOL0     H27753   9.404   6.049   2.777 -0.5989  2.5579  2.9658
  206MOL0     H27754   9.315   6.184   2.799  2.4688 -0.9142  1.7140
  206MOL0     H27755   9.269   6.133   2.521  0.6968 -0.9422 -1.2975
  206MOL0     H27756   9.320   5.978   2.571 -0.0960  0.2001 -1.6909
  206MOL0     H27757   9.087   5.972   2.589  1.0821  0.1536 -0.2916
  206MOL0     H27758   9.126   6.016   2.759  0.6056  0.2980  0.1335
  206MOL0     H27759   9.066   6.221   2.547  0.3326 -0.7515  0.0330
  206MOL0     H27760   9.070   6.255   2.719 -0.7609 -1.0547  0.9618
  206MOL0     H27761   8.900   5.972   2.789  0.6391  0.4450  1.0166
  206MOL0     H27762   8.650   5.966   2.895  4.2150  0.2605 -1.7591
  206MOL0     H27763   8.516   6.064   2.820 -0.0554  0.1289 -1.3557
  206MOL0     H27764   8.460   5.835   2.803  1.6534 -1.6569  0.4775
  206MOL0     H27765   8.597   5.809   2.689  0.0401 -1.1911  1.3928
  206MOL0     H27766   8.503   5.978   2.526  2.7459  0.0903  1.8733
  206MOL0     H27767   8.377   6.008   2.647 -0.6665  0.4672 -0.5729
  206MOL0     H27768   8.421   5.737   2.506 -1.7027 -0.6728 -0.8746
  206MOL0     H27769   8.315   5.871   2.448  1.6026  0.7983 -0.3164
  206MOL0     H27770   8.163   6.008   2.559  0.5105  2.6385  1.5685
  206MOL0     H27771   8.010   6.168   2.540  5.5108  0.0315  1.8701
  206MOL0     H27772   7.863   6.176   2.630 -0.4407  0.0397  1.4235
  206MOL0     H27773   8.018   6.220   2.706  1.7388 -1.0121 -0.0325
  206MOL0     H27774   7.648   6.344   2.766 -0.2252 -1.3184  0.0293
  206MOL0     H27775   7.446   6.440   2.842 -1.5130 -1.0924 -0.8202
  206MOL0     H27776   7.246   6.540   3.177  1.4916  2.2924 -0.6647
  206MOL0     H27777   7.386   6.570   3.085  0.7721 -2.5451 -0.0572
  206MOL0     H27778   7.169   6.656   3.000 -2.0110 -0.6958  0.1588
  206MOL0     H27779   7.252   6.555   2.877 -0.5282  0.7940 -1.4654
  206MOL0     H27780   6.998   6.484   3.048 -1.9042  2.7826 -2.2693
  206MOL0     H27781   7.071   6.366   2.948 -2.1614 -0.0560 -1.7250
  206MOL0     H27782   6.937   6.623   2.845  0.7377  0.6724  0.9899
  206MOL0     H27783   7.073   6.558   2.757 -0.2379  0.6856  1.1968
  206MOL0     H27784   6.814   6.410   2.838  0.3251 -0.6266  0.0469
  206MOL0     H27785   6.958   6.346   2.745 -0.4771 -1.1462  0.5004
  206MOL0     H27786   6.779   6.585   2.656 -0.9333 -1.3634  0.5284
  206MOL0     H27787   6.926   6.510   2.574 -1.2316 -1.2253 -2.5967
  206MOL0     H27788   6.696   6.332   2.667 -2.2873 -0.5052 -1.2369
  206MOL0     H27789   6.801   6.313   2.532 -2.3256 -1.5561 -0.4390
  206MOL0     H27790   6.597   6.356   2.460 -1.7228  1.1724  0.3921
  206MOL0     H27791   6.697   6.485   2.397 -3.0810 -0.1992 -0.5595
  206MOL0     H27792   7.443   6.161   3.177  3.7532  0.2191  2.1023
  206MOL0     H27793   7.632   6.053   3.076 -2.3225 -3.1325 -2.3607
  206MOL0     H27794   7.917   5.748   2.896 -2.0937 -0.0050 -1.5921
  206MOL0     H27795   8.116   5.657   2.794  1.3622 -0.2246 -2.2313
  206MOL0     H27796  10.092   6.145   2.771  0.4847  0.2726  0.0791
  206MOL0     H27797  10.306   6.095   2.664 -1.6670 -0.8626  3.0516
  206MOL0     H27798  10.620   6.007   2.357 -2.0233  0.2226 -0.2329
  206MOL0     H27799  10.818   5.934   2.232 -0.3727 -1.7733  1.0262
  206MOL0     H27800  11.004   5.661   2.158 -0.4119 -0.0629  4.2512
  206MOL0     H27801  10.849   5.610   2.236 -1.3539 -1.9703 -1.2224
  206MOL0     H27802  10.788   5.484   2.038  0.3592 -0.6365 -1.0093
  206MOL0     H27803  10.940   5.442   2.127  0.4935  3.4158  2.3833
  206MOL0     H27804  11.067   5.587   1.947 -1.5227  1.5531  1.3597
  206MOL0     H27805  10.925   5.593   1.851  1.5232 -1.0375 -1.2755
  206MOL0     H27806  10.897   5.382   1.800  0.8625 -2.3712  0.5001
  206MOL0     H27807  11.027   5.321   1.910  0.3646  0.5864  1.8586
  206MOL0     H27808  11.266   5.488   1.605 -1.2296  0.7183 -1.1135
  206MOL0     H27809  10.604   5.613   2.058 -1.2454  0.7680 -1.1075
  206MOL0     H27810  10.407   5.670   2.198 -2.7408  2.3558  1.2461
  207MOL0     O27811   5.206   8.520   8.688 -0.0494  0.8069  0.0675
  207MOL0     C27812   5.316   8.544   8.731 -0.1829 -0.7955 -0.4355
  207MOL0     O27813   5.347   8.591   8.856 -0.3944  0.3125 -0.1289
  207MOL0     C27814   5.239   8.614   8.939  0.3073 -0.2438  0.2598
  207MOL0     C27815   5.222   8.744   8.984  0.2368 -0.2561  1.1895
  207MOL0     C27816   5.120   8.772   9.079  0.4253  0.2005 -0.1466
  207MOL0     C27817   5.024   8.675   9.116  0.0822  0.2700  0.4600
  207MOL0     O27818   4.914   8.691   9.202  0.5437 -0.2882  0.4875
  207MOL0     C27819   4.877   8.817   9.257 -0.3201 -0.6020  1.0456
  207MOL0     C27820   4.775   8.879   9.160 -0.2780 -0.4806  0.0485
  207MOL0     C27821   4.651   8.783   9.159  0.1343  0.1431  0.4033
  207MOL0     C27822   4.566   8.831   9.040 -0.2023 -0.4347  0.2786
  207MOL0     C27823   4.425   8.775   9.026 -0.4214  0.1738  0.4358
  207MOL0     C27824   4.345   8.842   8.914 -0.7875 -0.6538 -0.1515
  207MOL0     C27825   4.208   8.776   8.908 -0.4882 -0.0312 -0.2288
  207MOL0     C27826   4.133   8.852   8.802  0.6997 -0.4366 -0.2781
  207MOL0     N27827   4.000   8.794   8.773 -0.0080  0.8402  0.3221
  207MOL0     C27828   3.887   8.802   8.842  0.2881  0.4563 -0.1669
  207MOL0     C27829   3.789   8.744   8.771 -0.6640 -0.2581 -0.7461
  207MOL0     C27830   3.639   8.728   8.778  0.1873 -0.5127  0.8406
  207MOL0     C27831   3.601   8.700   8.926 -0.4135 -0.2928  1.0644
  207MOL0     C27832   3.452   8.676   8.930  0.3427 -0.9063 -0.5406
  207MOL0     C27833   3.412   8.686   9.078 -1.0865 -0.2304  0.4751
  207MOL0     O27834   3.273   8.655   9.098  0.1807 -0.7673 -1.1118
  207MOL0     C27835   3.173   8.756   9.105 -0.1123  0.7957 -0.4257
  207MOL0     C27836   3.191   8.891   9.086 -0.0323  0.0454  0.6250
  207MOL0     C27837   3.088   8.973   9.072  0.3267 -1.0344  0.1274
  207MOL0     C27838   3.119   9.124   9.045  0.3698  0.4282 -0.5054
  207MOL0     C27839   2.957   8.935   9.114 -0.0016 -0.1552 -0.7056
  207MOL0     C27840   2.835   9.028   9.111  0.4032  0.3462 -0.3550
  207MOL0     O27841   2.731   8.982   9.187  0.1364  0.3226  0.5898
  207MOL0     C27842   2.617   9.062   9.200 -1.0368  0.4395 -0.0777
  207MOL0     C27843   2.625   9.197   9.244 -0.6799  0.7240  0.0376
  207MOL0     C27844   2.507   9.278   9.246 -0.0192 -0.2696 -0.3533
  207MOL0     C27845   2.382   9.206   9.236  0.2021 -0.0968 -0.0264
  207MOL0     O27846   2.256   9.266   9.250  0.2073  0.6980 -0.8041
  207MOL0     C27847   2.241   9.395   9.317  0.0008 -0.1485  0.3576
  207MOL0     C27848   2.093   9.420   9.342  0.7692 -0.2503  0.5688
  207MOL0     C27849   2.000   9.383   9.230  0.2667 -0.5915 -0.1735
  207MOL0     C27850   1.862   9.434   9.258  0.0950  0.2124  0.0261
  207MOL0     C27851   1.753   9.368   9.172 -0.1913  0.0468 -0.2292
  207MOL0     C27852   1.608   9.402   9.196  0.6803 -0.9260  0.4051
  207MOL0     C27853   1.513   9.333   9.097 -0.3984 -0.0665  0.2424
  207MOL0     C27854   1.374   9.383   9.108  0.9115  0.1504 -0.4341
  207MOL0    Cl27855   1.263   9.284   9.018 -0.3445  0.1692 -0.2461
  207MOL0     C27856   2.380   9.072   9.198  0.0197 -0.3107  0.2511
  207MOL0     C27857   2.500   8.999   9.191  0.5986  0.3440  0.6349
  207MOL0     O27858   2.831   9.130   9.036  0.1287  0.8506  0.5013
  207MOL0     C27859   2.941   8.801   9.154 -0.4929  0.8204  0.2807
  207MOL0     C27860   3.046   8.702   9.144 -0.2953  0.0712  1.0046
  207MOL0     N27861   3.850   8.700   8.650 -0.8281 -0.1358 -0.5777
  207MOL0     N27862   3.980   8.724   8.663 -0.2393  0.0206 -0.2454
  207MOL0     C27863   5.032   8.551   9.060 -0.5673 -0.1946  0.0937
  207MOL0     C27864   5.140   8.521   8.975  0.3157  0.1252  0.4437
  207MOL0     C27865   5.422   8.525   8.644 -0.8289  0.6405  0.1489
  207MOL0     C27866   5.396   8.482   8.515 -0.6957  0.6184  0.8606
  207MOL0     C27867   5.496   8.452   8.422  0.1209  0.6562 -0.1717
  207MOL0     C27868   5.631   8.460   8.461 -1.1842  0.1887 -0.6181
  207MOL0     O27869   5.735   8.436   8.375 -0.4463  0.0164 -0.3012
  207MOL0     C27870   5.728   8.488   8.241  0.0992  0.0599 -0.0317
  207MOL0     C27871   5.793   8.624   8.224  0.5726  0.6791  0.1026
  207MOL0     C27872   5.700   8.734   8.269 -0.8713  0.7737  0.1214
  207MOL0     C27873   5.565   8.740   8.195  0.4610  0.2543  0.3332
  207MOL0     C27874   5.455   8.776   8.284  0.4331 -0.2676  0.5991
  207MOL0     C27875   5.352   8.805   8.340 -0.5222 -1.3062  0.4134
  207MOL0     C27876   5.661   8.502   8.594 -0.8508  0.5864  0.2523
  207MOL0     C27877   5.554   8.536   8.682 -0.4459  0.1182 -0.9634
  207MOL0     H27878   5.305   8.809   8.958  0.6903 -1.6516 -1.2158
  207MOL0     H27879   5.105   8.875   9.110 -0.9148 -0.6969  2.5252
  207MOL0     H27880   4.829   8.795   9.353  1.7112 -2.6664  1.6931
  207MOL0     H27881   4.958   8.890   9.265 -1.7402  1.2957 -0.9766
  207MOL0     H27882   4.739   8.976   9.194 -1.4026 -0.3914 -1.2917
  207MOL0     H27883   4.816   8.893   9.060  1.1394 -0.1824  0.6474
  207MOL0     H27884   4.679   8.680   9.133 -2.2949 -0.9137  1.6105
  207MOL0     H27885   4.588   8.778   9.249 -1.1026 -2.4301 -0.4889
  207MOL0     H27886   4.558   8.939   9.053 -2.8792 -0.7237  1.8281
  207MOL0     H27887   4.626   8.807   8.952 -0.9724 -3.4070  0.4571
  207MOL0     H27888   4.420   8.670   8.996 -0.7635  0.8197 -2.0360
  207MOL0     H27889   4.368   8.793   9.117 -2.4761 -0.6657 -0.6011
  207MOL0     H27890   4.357   8.948   8.937  1.2458 -0.3823 -2.1446
  207MOL0     H27891   4.399   8.830   8.820 -0.3312  2.5546 -0.3987
  207MOL0     H27892   4.226   8.677   8.867 -0.8060  1.2453 -3.7875
  207MOL0     H27893   4.163   8.782   9.008  1.1745  1.9741  0.4721
  207MOL0     H27894   4.193   8.858   8.711 -0.8511  0.8811 -1.2713
  207MOL0     H27895   4.131   8.953   8.843  0.7999 -0.8392  0.7438
  207MOL0     H27896   3.863   8.861   8.930  2.2064  2.9919 -1.2492
  207MOL0     H27897   3.586   8.819   8.750  0.8340 -0.5154 -0.4567
  207MOL0     H27898   3.602   8.650   8.711 -2.2971  0.8895  0.4868
  207MOL0     H27899   3.622   8.795   8.976 -2.2069  0.9659 -0.4219
  207MOL0     H27900   3.665   8.619   8.961  1.6007  0.6174 -0.3564
  207MOL0     H27901   3.435   8.572   8.901  3.2661 -1.9963  1.1937
  207MOL0     H27902   3.392   8.749   8.875 -0.2077 -0.3728  0.7460
  207MOL0     H27903   3.419   8.789   9.113 -0.5676  0.1451 -0.6991
  207MOL0     H27904   3.477   8.618   9.134 -2.0102 -1.3575  0.2329
  207MOL0     H27905   3.290   8.923   9.055 -0.0637 -0.0785  0.3937
  207MOL0     H27906   3.223   9.155   9.059  0.5560  0.3028 -1.4982
  207MOL0     H27907   3.081   9.150   8.946 -2.6563  0.2737  0.5232
  207MOL0     H27908   3.071   9.193   9.114 -0.8832 -1.6326  0.7944
  207MOL0     H27909   2.727   9.231   9.261  0.0446 -1.1710 -0.1773
  207MOL0     H27910   2.520   9.385   9.254  1.4414 -0.4346 -0.1757
  207MOL0     H27911   2.292   9.390   9.413  2.9810  2.6730 -0.9102
  207MOL0     H27912   2.278   9.479   9.258  3.0813 -0.2594  1.9622
  207MOL0     H27913   2.071   9.358   9.429 -0.6195 -1.1795 -0.4061
  207MOL0     H27914   2.080   9.525   9.371 -0.2275  0.3176 -1.7309
  207MOL0     H27915   1.986   9.274   9.233 -1.4633 -0.4084 -0.4404
  207MOL0     H27916   2.034   9.412   9.130 -1.2429 -2.1069 -1.1900
  207MOL0     H27917   1.835   9.416   9.363  0.4543 -0.8655 -0.0534
  207MOL0     H27918   1.869   9.541   9.236  2.7554  0.7180  2.5836
  207MOL0     H27919   1.766   9.262   9.198 -0.0308  0.7948  3.2426
  207MOL0     H27920   1.779   9.390   9.068  0.1953  0.5268 -0.0354
  207MOL0     H27921   1.586   9.361   9.295  3.5447 -3.0794  0.2804
  207MOL0     H27922   1.595   9.510   9.192  0.4966 -0.9466  0.4496
  207MOL0     H27923   1.520   9.226   9.117 -3.2615 -0.1757  1.0799
  207MOL0     H27924   1.531   9.356   8.992 -1.6376 -0.1711 -0.0061
  207MOL0     H27925   1.373   9.482   9.061 -3.5469  0.0662 -1.0085
  207MOL0     H27926   1.333   9.389   9.209 -0.8434 -0.6157 -1.0507
  207MOL0     H27927   2.281   9.027   9.187 -1.0741  1.3421  2.4810
  207MOL0     H27928   2.497   8.891   9.182 -1.1859  0.2738  1.7473
  207MOL0     H27929   2.845   8.755   9.178  0.6013 -2.0014 -0.3245
  207MOL0     H27930   3.034   8.597   9.169  3.3716 -0.9868 -0.9417
  207MOL0     H27931   4.961   8.477   9.095  0.1481 -0.0883  1.9031
  207MOL0     H27932   5.150   8.424   8.929 -1.0763  0.7553 -1.2837
  207MOL0     H27933   5.293   8.480   8.482 -0.7143 -3.3893  0.6690
  207MOL0     H27934   5.472   8.430   8.318 -3.0046  0.4132  0.5065
  207MOL0     H27935   5.781   8.417   8.176  1.3390  2.3442 -1.6417
  207MOL0     H27936   5.622   8.494   8.214  0.4782  2.4828 -1.2132
  207MOL0     H27937   5.811   8.627   8.116 -2.1171 -4.2319 -0.7546
  207MOL0     H27938   5.890   8.626   8.273  1.9723 -0.4023 -2.4274
  207MOL0     H27939   5.756   8.827   8.255  0.5330  0.2169  1.7713
  207MOL0     H27940   5.696   8.726   8.378  0.5994  2.0948  0.3059
  207MOL0     H27941   5.528   8.651   8.143 -1.7612  0.1876  1.8715
  207MOL0     H27942   5.566   8.818   8.118  1.5879  0.7602  0.8437
  207MOL0     H27943   5.268   8.826   8.403  0.2867 -0.6875  1.3102
  207MOL0     H27944   5.763   8.514   8.628 -0.3036 -0.5273 -0.8905
  207MOL0     H27945   5.574   8.553   8.788  0.7893 -1.7238 -0.8389
  208MOL0     O27946   9.231   4.114   3.905 -0.0919  0.4944  0.4318
  208MOL0     C27947   9.270   4.024   3.834 -0.0523 -0.1048  0.0278
  208MOL0     O27948   9.209   3.903   3.827 -0.9141  0.6584  0.6547
  208MOL0     C27949   9.099   3.877   3.904 -0.5353 -0.1238  0.4666
  208MOL0     C27950   9.111   3.774   3.989  0.8475 -0.0748 -0.3569
  208MOL0     C27951   9.000   3.733   4.066 -0.4388 -0.3655 -0.1323
  208MOL0     C27952   8.870   3.796   4.047  0.1302 -0.0368 -0.5988
  208MOL0     O27953   8.755   3.763   4.109  0.0181  0.2736 -0.3599
  208MOL0     C27954   8.761   3.720   4.249 -0.3256 -0.5860  0.3387
  208MOL0     C27955   8.620   3.703   4.300  0.1851 -0.0549  0.8328
  208MOL0     C27956   8.525   3.825   4.287 -0.4905  0.4444 -0.2308
  208MOL0     C27957   8.396   3.792   4.369  0.2721  0.7087  0.3415
  208MOL0     C27958   8.314   3.926   4.376 -0.6519 -0.1594 -0.4538
  208MOL0     C27959   8.179   3.885   4.433  0.2263  0.7390  0.0760
  208MOL0     C27960   8.185   3.861   4.582  0.5640 -0.1727  0.1863
  208MOL0     C27961   8.041   3.856   4.652  0.2195 -0.3624 -0.1607
  208MOL0     N27962   7.980   3.992   4.663  0.1951  0.8719 -0.0616
  208MOL0     C27963   7.851   4.020   4.683  0.0279  0.8438  0.3808
  208MOL0     C27964   7.836   4.151   4.691  0.2654 -0.1988 -0.1341
  208MOL0     C27965   7.698   4.214   4.683 -0.2350 -0.6523  0.7354
  208MOL0     C27966   7.692   4.332   4.777 -0.4194 -0.3211  0.4372
  208MOL0     C27967   7.552   4.389   4.761 -0.3984 -0.0101  0.8285
  208MOL0     C27968   7.519   4.486   4.871 -0.3527 -0.4546  0.2597
  208MOL0     O27969   7.500   4.409   4.990 -0.3205  0.5099 -0.7004
  208MOL0     C27970   7.370   4.360   5.017 -0.5127 -0.4925  0.8808
  208MOL0     C27971   7.345   4.326   5.152 -0.0710 -0.4069 -1.2096
  208MOL0     C27972   7.215   4.294   5.195  0.0584 -0.3271  0.6738
  208MOL0     C27973   7.202   4.283   5.348  0.0310 -0.3415 -0.2138
  208MOL0     C27974   7.106   4.284   5.101 -0.6046 -0.0918 -0.1177
  208MOL0     C27975   6.967   4.242   5.127 -0.5394  0.8945  0.5658
  208MOL0     O27976   6.902   4.207   5.010  0.5095 -0.2120  0.7885
  208MOL0     C27977   6.766   4.193   5.000  0.3622 -0.4885  0.8936
  208MOL0     C27978   6.678   4.296   5.017 -0.4519 -0.4433  1.0032
  208MOL0     C27979   6.535   4.283   5.006  0.4131  0.2140 -0.4410
  208MOL0     C27980   6.481   4.155   4.985  1.0321 -0.0718  0.5781
  208MOL0     O27981   6.347   4.147   4.982 -0.3397  0.2545  0.0549
  208MOL0     C27982   6.273   4.027   4.941 -0.5686  0.5298  0.0990
  208MOL0     C27983   6.125   4.054   4.922 -0.0402 -0.0208 -0.2266
  208MOL0     C27984   6.051   4.104   5.044 -0.3320 -0.0620 -0.7384
  208MOL0     C27985   5.902   4.132   5.015  0.1872 -0.1622 -0.6310
  208MOL0     C27986   5.814   4.193   5.133 -0.3702 -0.2644  0.5183
  208MOL0     C27987   5.669   4.182   5.096  0.1454  0.2982  0.1911
  208MOL0     C27988   5.618   4.035   5.111  0.0549 -0.1999 -0.8394
  208MOL0     C27989   5.470   4.016   5.069  0.1985  0.3235  0.4645
  208MOL0    Cl27990   5.357   4.154   5.106 -0.3162  0.2054  0.2009
  208MOL0     C27991   6.568   4.051   4.979  0.2008  0.4082  0.3773
  208MOL0     C27992   6.708   4.068   4.986 -0.4513  0.3588  0.4974
  208MOL0     O27993   6.924   4.233   5.242  0.7632 -0.4726 -0.3285
  208MOL0     C27994   7.136   4.322   4.966  0.7713 -0.0343 -0.0372
  208MOL0     C27995   7.258   4.353   4.923 -0.4335 -0.0579 -0.5405
  208MOL0     N27996   7.960   4.206   4.696  0.1531 -0.3556 -0.1976
  208MOL0     N27997   8.040   4.109   4.685  0.0967  0.3000  0.8063
  208MOL0     C27998   8.861   3.904   3.957 -0.2318  0.3026  0.4437
  208MOL0     C27999   8.977   3.946   3.889 -0.5178 -0.0343 -0.7393
  208MOL0     C28000   9.401   4.038   3.772 -0.5448  0.3293  0.1777
  208MOL0     C28001   9.439   3.935   3.683  0.1193 -0.8729  0.2747
  208MOL0     C28002   9.565   3.939   3.610 -0.0437 -0.0720 -0.9319
  208MOL0     C28003   9.654   4.048   3.628  0.2567  0.2146 -0.1856
  208MOL0     O28004   9.769   4.079   3.558 -0.0475  0.1207 -0.2777
  208MOL0     C28005   9.853   3.981   3.508 -0.9839  0.2198 -0.0580
  208MOL0     C28006   9.978   4.044   3.440 -0.0044 -0.5106  0.2562
  208MOL0     C28007  10.064   4.135   3.532  0.1772  0.5692  0.4764
  208MOL0     C28008  10.200   4.163   3.466  0.7620  1.0169  0.4290
  208MOL0     C28009  10.280   4.044   3.459 -0.0521  0.6914 -0.2131
  208MOL0     C28010  10.359   3.942   3.452  0.5886  0.0487 -0.0064
  208MOL0     C28011   9.610   4.150   3.712  0.5810  0.7777 -0.1170
  208MOL0     C28012   9.491   4.143   3.787 -0.2417  0.3249 -0.5304
  208MOL0     H28013   9.202   3.715   3.997  1.1245  0.1609 -1.5913
  208MOL0     H28014   9.014   3.652   4.137  1.1035  1.5763  1.9400
  208MOL0     H28015   8.803   3.619   4.252 -0.3607 -0.6145 -0.1174
  208MOL0     H28016   8.818   3.786   4.315  0.6462  0.5531 -1.5369
  208MOL0     H28017   8.576   3.621   4.244  0.1686 -0.1977  1.0558
  208MOL0     H28018   8.625   3.669   4.404  1.7079 -0.4370  0.6590
  208MOL0     H28019   8.571   3.913   4.333 -1.3225  1.4147 -1.2078
  208MOL0     H28020   8.514   3.858   4.184  0.0645  0.7763 -0.1868
  208MOL0     H28021   8.342   3.709   4.322  0.4528  0.6250  0.2854
  208MOL0     H28022   8.417   3.758   4.471 -2.8739  1.7330  1.4718
  208MOL0     H28023   8.368   4.000   4.436 -0.4494  1.8818 -2.9820
  208MOL0     H28024   8.299   3.962   4.274 -1.7119  0.9027  0.0582
  208MOL0     H28025   8.105   3.962   4.407 -0.9946 -0.8713 -1.3917
  208MOL0     H28026   8.129   3.796   4.394  0.7925  0.6483 -0.4581
  208MOL0     H28027   8.234   3.765   4.594  1.9417  0.2839 -1.4188
  208MOL0     H28028   8.242   3.942   4.629  0.0982 -0.2517  0.9194
  208MOL0     H28029   8.047   3.821   4.756 -2.9949  2.5074  1.1985
  208MOL0     H28030   7.978   3.789   4.592 -0.1109 -2.2359  2.1454
  208MOL0     H28031   7.771   3.946   4.685  0.2937  0.4727  3.5420
  208MOL0     H28032   7.675   4.251   4.583  0.0186 -1.0239  0.5350
  208MOL0     H28033   7.627   4.136   4.710  0.0342 -1.1386  0.0651
  208MOL0     H28034   7.767   4.407   4.750 -1.0290  0.0428 -0.2852
  208MOL0     H28035   7.699   4.297   4.880  1.2351  0.0511  0.4703
  208MOL0     H28036   7.473   4.313   4.758  0.6017 -1.0550 -0.0414
  208MOL0     H28037   7.554   4.444   4.666 -0.4292  0.0632  0.8703
  208MOL0     H28038   7.431   4.550   4.857 -1.2919 -2.0533 -1.6672
  208MOL0     H28039   7.606   4.552   4.884 -0.1611 -0.6454 -0.0424
  208MOL0     H28040   7.424   4.340   5.225 -0.4676  3.2932 -1.3231
  208MOL0     H28041   7.128   4.208   5.377 -0.3576  0.5199  1.1247
  208MOL0     H28042   7.294   4.252   5.397  1.4412  1.0866 -1.8050
  208MOL0     H28043   7.164   4.370   5.403  0.1408  0.1295 -0.8634
  208MOL0     H28044   6.724   4.393   5.037  0.7777 -0.8678  0.3621
  208MOL0     H28045   6.479   4.375   5.020  0.2703 -0.0543  0.8526
  208MOL0     H28046   6.314   3.999   4.843 -0.6526  1.3670 -0.1800
  208MOL0     H28047   6.282   3.946   5.014 -0.8678  0.4022 -0.0044
  208MOL0     H28048   6.113   4.131   4.846  0.5188  0.9326  0.6394
  208MOL0     H28049   6.069   3.964   4.895  0.4727 -0.4914  0.2498
  208MOL0     H28050   6.108   4.190   5.082 -0.2672  0.4325 -1.9239
  208MOL0     H28051   6.067   4.030   5.123 -1.0568  0.3709 -0.1806
  208MOL0     H28052   5.888   4.198   4.929  1.8526 -0.7882 -1.4346
  208MOL0     H28053   5.852   4.038   4.987 -1.8286  0.5578  0.3475
  208MOL0     H28054   5.839   4.299   5.147  1.1306 -0.6522  0.9545
  208MOL0     H28055   5.838   4.135   5.223  0.2994 -0.7911  0.0144
  208MOL0     H28056   5.605   4.250   5.153 -1.6332  1.3231 -2.7583
  208MOL0     H28057   5.665   4.219   4.992 -1.8250  1.5709  0.6587
  208MOL0     H28058   5.620   4.016   5.219 -1.7420  0.2809 -0.6847
  208MOL0     H28059   5.678   3.960   5.059  1.4769  1.5022 -1.7417
  208MOL0     H28060   5.425   3.925   5.110  0.1319  0.3227  0.3912
  208MOL0     H28061   5.463   3.998   4.962 -1.6619  4.9354 -0.4315
  208MOL0     H28062   6.536   3.949   4.957 -0.0439  1.1308 -3.2573
  208MOL0     H28063   6.762   3.975   4.990  1.1320  1.2175 -0.2064
  208MOL0     H28064   7.054   4.327   4.895  1.6156 -2.3735 -1.3108
  208MOL0     H28065   7.271   4.360   4.816  1.5849 -1.7157 -0.4546
  208MOL0     H28066   8.768   3.951   3.927 -2.0409 -4.1583 -1.8292
  208MOL0     H28067   8.972   4.036   3.828 -0.6275  0.7030  0.3252
  208MOL0     H28068   9.371   3.853   3.661  0.4484 -0.9089 -0.6710
  208MOL0     H28069   9.596   3.865   3.538 -1.8240  0.7983 -2.6924
  208MOL0     H28070   9.895   3.925   3.592 -2.0122  2.6578  2.2213
  208MOL0     H28071   9.802   3.911   3.441 -1.0565 -0.8663  1.0885
  208MOL0     H28072   9.955   4.098   3.348  1.2487 -0.4648 -0.0564
  208MOL0     H28073  10.040   3.960   3.405  0.8840  0.7007 -1.1741
  208MOL0     H28074  10.082   4.081   3.626  0.2473  2.0209  1.3296
  208MOL0     H28075  10.008   4.226   3.556 -3.7958 -1.2980 -0.9187
  208MOL0     H28076  10.255   4.230   3.531  1.4693  1.0049 -0.1422
  208MOL0     H28077  10.185   4.210   3.368  2.8740  1.5503  0.3144
  208MOL0     H28078  10.431   3.862   3.449 -0.9702 -1.3979 -0.7079
  208MOL0     H28079   9.677   4.233   3.732  2.0103 -0.8283  2.2791
  208MOL0     H28080   9.459   4.213   3.863 -1.9245 -0.3842 -0.5435
  209MOL0     O28081   4.680   3.405   8.896 -0.0113  0.1718 -0.1787
  209MOL0     C28082   4.640   3.518   8.881  0.4302  0.1446  0.4762
  209MOL0     O28083   4.509   3.557   8.888 -0.6003 -0.2704  0.3234
  209MOL0     C28084   4.399   3.463   8.888 -0.3846  0.0548 -0.0988
  209MOL0     C28085   4.397   3.334   8.943  0.1118 -0.0920  0.2796
  209MOL0     C28086   4.276   3.262   8.939  0.5453 -0.1497  0.4075
  209MOL0     C28087   4.153   3.322   8.901  0.5047  0.2441  0.0378
  209MOL0     O28088   4.020   3.272   8.904  0.4034  0.1726  0.1526
  209MOL0     C28089   4.000   3.215   9.029  0.0830 -0.2333 -0.0995
  209MOL0     C28090   3.860   3.141   9.035 -0.7009 -0.3370  0.2300
  209MOL0     C28091   3.742   3.235   9.014  0.6635  0.8244 -0.3584
  209MOL0     C28092   3.603   3.158   9.035 -1.1716 -0.2837  0.4630
  209MOL0     C28093   3.490   3.255   9.018  0.4510  0.8005 -0.5344
  209MOL0     C28094   3.354   3.189   9.030 -0.0706 -0.5446 -1.1273
  209MOL0     C28095   3.243   3.293   9.039  0.2633  0.3023 -0.1619
  209MOL0     C28096   3.110   3.225   9.027 -0.1456  0.2438 -0.3921
  209MOL0     N28097   2.990   3.312   9.061 -0.6934 -0.2413  0.6220
  209MOL0     C28098   2.921   3.380   8.962 -0.4481  0.8520 -0.6401
  209MOL0     C28099   2.836   3.463   9.022  0.0804 -0.9944  0.4271
  209MOL0     C28100   2.745   3.571   8.961 -0.4841 -0.2552  0.6040
  209MOL0     C28101   2.642   3.521   8.856 -0.1590 -0.5353  0.0559
  209MOL0     C28102   2.553   3.413   8.909  0.7070  0.3621  0.7549
  209MOL0     C28103   2.483   3.449   9.046 -0.7391 -0.0335  0.5956
  209MOL0     O28104   2.437   3.587   9.038 -0.5076 -0.2565 -0.2740
  209MOL0     C28105   2.309   3.626   9.050  0.1021 -0.3878 -0.5483
  209MOL0     C28106   2.275   3.757   9.011  0.4531  0.2450  0.1547
  209MOL0     C28107   2.143   3.800   9.007 -0.2700  0.1677 -0.3199
  209MOL0     C28108   2.132   3.944   8.946  0.4133  1.1031 -0.5114
  209MOL0     C28109   2.032   3.710   9.052 -0.7508  0.0945 -0.1829
  209MOL0     C28110   1.889   3.748   9.068  0.4711  0.6040 -0.4017
  209MOL0     O28111   1.811   3.678   9.151  0.1808  0.6760  0.1905
  209MOL0     C28112   1.674   3.699   9.140 -0.2272  0.6933  0.3418
  209MOL0     C28113   1.612   3.684   9.020  0.6579  0.2749 -0.3272
  209MOL0     C28114   1.471   3.699   9.007  0.0135  0.6145 -0.0387
  209MOL0     C28115   1.394   3.739   9.123  0.5580  0.1353  0.1568
  209MOL0     O28116   1.261   3.757   9.117  0.3025  0.3956  0.5188
  209MOL0     C28117   1.186   3.816   9.224 -0.8767  0.5770  0.1924
  209MOL0     C28118   1.052   3.846   9.164  0.7213 -0.2814  0.6276
  209MOL0     C28119   0.928   3.810   9.243  1.1123  0.3188 -0.4060
  209MOL0     C28120   0.798   3.865   9.193  0.1389  0.1629 -0.1999
  209MOL0     C28121   0.688   3.772   9.245  0.1247 -0.0414  0.0864
  209MOL0     C28122   0.565   3.801   9.158 -0.9524 -0.4994  0.4088
  209MOL0     C28123   0.441   3.752   9.221  0.2972 -0.2742  0.4809
  209MOL0     C28124   0.317   3.809   9.153 -0.0694  0.3437 -0.1086
  209MOL0    Cl28125   0.354   3.826   8.968 -0.4381 -0.4473  0.2963
  209MOL0     C28126   1.465   3.740   9.247  0.0940 -0.0903 -0.0048
  209MOL0     C28127   1.604   3.721   9.254  0.5705  0.2164 -0.1583
  209MOL0     O28128   1.845   3.832   8.993  0.0826  0.0235 -0.2372
  209MOL0     C28129   2.075   3.584   9.093  0.3149 -0.8777  0.5799
  209MOL0     C28130   2.207   3.542   9.100  0.5477 -0.5524  0.5149
  209MOL0     N28131   2.843   3.440   9.156  0.5126  0.5874 -0.3548
  209MOL0     N28132   2.927   3.343   9.172 -0.7376  0.7137 -0.1894
  209MOL0     C28133   4.161   3.449   8.852  0.5532  0.7733  0.1101
  209MOL0     C28134   4.282   3.518   8.842  0.4552  0.4324 -0.5956
  209MOL0     C28135   4.739   3.619   8.848 -0.2008  0.3560 -0.4105
  209MOL0     C28136   4.693   3.737   8.782  0.2408  0.8542  0.1860
  209MOL0     C28137   4.780   3.844   8.748  0.0402 -1.1200 -0.6487
  209MOL0     C28138   4.921   3.832   8.782  0.1557  0.2138 -0.3454
  209MOL0     O28139   5.005   3.936   8.763 -0.3031  0.2412  0.4967
  209MOL0     C28140   5.055   3.963   8.627 -0.3185 -0.8502  0.3098
  209MOL0     C28141   5.186   3.876   8.594  0.6809  1.1298  0.0406
  209MOL0     C28142   5.291   3.872   8.697 -0.0594 -0.5109 -0.3772
  209MOL0     C28143   5.427   3.865   8.619  0.3855  0.0844 -0.1234
  209MOL0     C28144   5.536   3.833   8.716  0.2435 -0.4699  0.4524
  209MOL0     C28145   5.635   3.810   8.785 -0.0890  0.4216  0.0423
  209MOL0     C28146   4.963   3.714   8.851 -0.4923 -0.6607 -0.3656
  209MOL0     C28147   4.877   3.609   8.877  0.3750  0.7197  0.3875
  209MOL0     H28148   4.488   3.283   8.974  0.1371 -0.9503 -1.0875
  209MOL0     H28149   4.291   3.162   8.978  0.1699 -0.2090  0.4026
  209MOL0     H28150   4.077   3.138   9.041  2.7110  1.7933 -2.4845
  209MOL0     H28151   4.021   3.284   9.111  1.8656  0.6961 -1.2638
  209MOL0     H28152   3.865   3.063   8.958 -0.6219 -1.9082  1.7763
  209MOL0     H28153   3.855   3.105   9.138 -0.3294 -0.0296  0.3582
  209MOL0     H28154   3.751   3.325   9.075  0.9847  1.5611 -1.4656
  209MOL0     H28155   3.752   3.259   8.907  3.7818 -3.7744 -1.3987
  209MOL0     H28156   3.602   3.072   8.967  2.0826 -0.5259  0.5359
  209MOL0     H28157   3.605   3.113   9.135 -1.8379  0.1216  0.6612
  209MOL0     H28158   3.502   3.337   9.089  0.6875  0.7355 -0.4987
  209MOL0     H28159   3.484   3.302   8.920  1.5917  1.4246 -0.3182
  209MOL0     H28160   3.329   3.132   8.940  2.3459 -4.0632  0.2206
  209MOL0     H28161   3.353   3.131   9.122  2.4023  2.3144  0.9183
  209MOL0     H28162   3.254   3.355   9.129  0.2398 -0.4301  0.3534
  209MOL0     H28163   3.250   3.364   8.957  0.7239  0.5697  0.1020
  209MOL0     H28164   3.117   3.143   9.100 -1.1304  1.1911  0.8186
  209MOL0     H28165   3.098   3.182   8.928  0.2515  1.5868 -1.0472
  209MOL0     H28166   2.948   3.372   8.857  0.3717 -0.4851 -0.3546
  209MOL0     H28167   2.709   3.634   9.043  0.5372  3.0426 -1.2670
  209MOL0     H28168   2.819   3.631   8.907  2.0699 -1.7554  2.2287
  209MOL0     H28169   2.691   3.473   8.771  0.1838  0.5492 -0.3750
  209MOL0     H28170   2.580   3.607   8.830 -0.7303 -1.1405 -0.6511
  209MOL0     H28171   2.610   3.321   8.920  0.4346  0.1946  0.7697
  209MOL0     H28172   2.486   3.398   8.823  0.9998 -1.2482  0.7857
  209MOL0     H28173   2.563   3.429   9.117  2.6093  1.3908 -2.4992
  209MOL0     H28174   2.403   3.379   9.074 -1.2547 -0.1928 -1.1289
  209MOL0     H28175   2.356   3.818   8.972 -1.6635  3.7146  0.7403
  209MOL0     H28176   2.098   3.936   8.843 -2.4295  1.7868  0.2865
  209MOL0     H28177   2.048   3.998   8.991 -1.1222 -2.4984  1.3529
  209MOL0     H28178   2.225   4.000   8.956  0.2332  1.2741  0.3435
  209MOL0     H28179   1.670   3.648   8.935  1.9756  0.6049  0.3979
  209MOL0     H28180   1.415   3.680   8.916 -2.3428 -0.5913  1.5643
  209MOL0     H28181   1.173   3.760   9.317  1.6867  2.9451  2.1582
  209MOL0     H28182   1.241   3.907   9.250  0.6241 -0.2080 -0.0660
  209MOL0     H28183   1.050   3.954   9.150  1.5027 -0.4163 -0.7478
  209MOL0     H28184   1.048   3.802   9.063  0.5672 -0.1179  0.5615
  209MOL0     H28185   0.934   3.846   9.346 -2.7280  0.6917 -0.1375
  209MOL0     H28186   0.920   3.701   9.250 -2.0161  0.5438  1.7069
  209MOL0     H28187   0.783   3.968   9.226  2.4670  0.6136 -0.3893
  209MOL0     H28188   0.818   3.875   9.086  0.9980  1.8722  0.0824
  209MOL0     H28189   0.672   3.798   9.350  1.9085  2.4342 -0.1678
  209MOL0     H28190   0.719   3.668   9.226 -0.5728 -0.6900  2.2547
  209MOL0     H28191   0.550   3.909   9.151  0.4961 -0.1945  1.4940
  209MOL0     H28192   0.591   3.761   9.059 -2.5765 -1.3690  0.3056
  209MOL0     H28193   0.445   3.785   9.325  2.2278  0.6089  0.1596
  209MOL0     H28194   0.444   3.644   9.207 -0.1432 -0.6927  3.1965
  209MOL0     H28195   0.292   3.912   9.182  0.0012 -0.1232  1.7462
  209MOL0     H28196   0.228   3.749   9.172 -2.1824  3.5290  0.8329
  209MOL0     H28197   1.410   3.762   9.339 -1.8940 -1.1905 -0.8610
  209MOL0     H28198   1.649   3.713   9.352 -0.6164 -1.1561  0.3129
  209MOL0     H28199   2.001   3.517   9.135  0.9394 -4.4174 -3.3205
  209MOL0     H28200   2.226   3.456   9.164 -1.2057 -0.9193  0.5898
  209MOL0     H28201   4.085   3.504   8.799  1.8675  1.4178 -1.1718
  209MOL0     H28202   4.278   3.616   8.796 -3.8604  0.3871 -0.6970
  209MOL0     H28203   4.588   3.745   8.758 -0.1543 -0.2308  1.4449
  209MOL0     H28204   4.735   3.923   8.689 -0.2215 -0.4495  0.4224
  209MOL0     H28205   4.976   3.964   8.551 -0.7011  2.3168  0.5927
  209MOL0     H28206   5.100   4.063   8.620  2.8943 -2.0586  1.8499
  209MOL0     H28207   5.229   3.914   8.501 -3.1588  2.6168 -1.3264
  209MOL0     H28208   5.155   3.775   8.564  1.7519  1.2039 -1.4499
  209MOL0     H28209   5.276   3.786   8.763  2.3751  0.0238  0.9873
  209MOL0     H28210   5.301   3.964   8.755 -0.1982 -1.4462  1.1671
  209MOL0     H28211   5.451   3.961   8.572 -0.5477  0.5691  0.3671
  209MOL0     H28212   5.428   3.784   8.545  1.4385  0.9253 -1.0466
  209MOL0     H28213   5.713   3.782   8.853  0.3833 -0.7192 -0.9211
  209MOL0     H28214   5.063   3.720   8.893 -0.2766  0.8905 -1.0140
  209MOL0     H28215   4.919   3.522   8.927 -0.8821 -0.2640 -0.2104
  210MOL0     O28216   0.316   9.337   2.436  0.6882  0.5926 -0.5627
  210MOL0     C28217   0.307   9.426   2.356 -0.0691 -0.0479 -0.7383
  210MOL0     O28218   0.188   9.488   2.315  0.2139 -0.7987 -0.5930
  210MOL0     C28219   0.071   9.470   2.386  0.8622  0.8075 -0.3937
  210MOL0     C28220  -0.044   9.438   2.313 -0.5529 -0.9351 -0.0028
  210MOL0     C28221  -0.167   9.416   2.379  0.1087 -0.1778 -0.1721
  210MOL0     C28222  -0.172   9.429   2.524  0.0818  0.2867 -0.4596
  210MOL0     O28223  -0.278   9.391   2.610  0.2089 -0.5203 -0.3395
  210MOL0     C28224  -0.419   9.398   2.575 -0.3810  0.0929  0.0425
  210MOL0     C28225  -0.501   9.405   2.712 -0.4298 -0.5748 -0.1691
  210MOL0     C28226  -0.642   9.454   2.692  0.0593 -0.5593  0.5026
  210MOL0     C28227  -0.697   9.524   2.810 -0.0243  0.5398 -0.2879
  210MOL0     C28228  -0.848   9.560   2.806  0.4938 -0.2157  0.3611
  210MOL0     C28229  -0.933   9.446   2.829  0.0907  0.0908  0.3692
  210MOL0     C28230  -1.077   9.484   2.863 -0.1255 -0.4502  0.0713
  210MOL0     C28231  -1.157   9.370   2.909 -0.2438 -0.4049 -0.2199
  210MOL0     N28232  -1.303   9.389   2.932 -0.3474 -0.0079 -0.0908
  210MOL0     C28233  -1.391   9.286   2.903 -0.4315 -0.1213 -0.2783
  210MOL0     C28234  -1.514   9.346   2.879 -0.2080  1.3129  0.5240
  210MOL0     C28235  -1.635   9.273   2.842 -0.2255  0.2146 -0.6445
  210MOL0     C28236  -1.741   9.255   2.949 -0.3158  0.9290 -0.2045
  210MOL0     C28237  -1.810   9.373   3.010  0.1303 -0.4406  0.8871
  210MOL0     C28238  -1.854   9.473   2.904 -0.0316  0.8320  0.2541
  210MOL0     O28239  -1.944   9.410   2.810 -0.0184 -0.0724  0.4220
  210MOL0     C28240  -2.076   9.413   2.839  0.8219 -0.1021 -0.0171
  210MOL0     C28241  -2.160   9.374   2.740  0.7273 -0.7946  0.1696
  210MOL0     C28242  -2.296   9.380   2.742  0.1372  0.1634 -0.2192
  210MOL0     C28243  -2.375   9.339   2.627  0.4389  0.0121  0.7555
  210MOL0     C28244  -2.362   9.421   2.860  0.1432  0.1317  0.3251
  210MOL0     C28245  -2.510   9.413   2.881 -0.2955  0.2905  0.9141
  210MOL0     O28246  -2.587   9.344   2.792  0.0086 -0.3468 -0.0541
  210MOL0     C28247  -2.723   9.363   2.800 -0.4015  0.9225  0.0602
  210MOL0     C28248  -2.794   9.280   2.893 -0.6143 -0.2648 -0.0515
  210MOL0     C28249  -2.930   9.308   2.915  0.1040 -0.0707 -0.0740
  210MOL0     C28250  -3.000   9.405   2.835  0.3521 -0.2877  0.9202
  210MOL0     O28251  -3.135   9.400   2.849 -0.5226  0.3066 -0.2200
  210MOL0     C28252  -3.203   9.459   2.738 -0.5344 -0.3826  0.0780
  210MOL0     C28253  -3.346   9.427   2.772 -0.1655  0.1015 -0.1372
  210MOL0     C28254  -3.427   9.472   2.653 -0.3594 -0.7506  0.1427
  210MOL0     C28255  -3.559   9.396   2.659  0.5555  0.7392 -0.7013
  210MOL0     C28256  -3.668   9.456   2.570 -1.1132 -0.1610  0.3799
  210MOL0     C28257  -3.803   9.399   2.614 -0.6394 -0.7333 -0.5167
  210MOL0     C28258  -3.914   9.442   2.518  0.7967  0.0896 -0.3787
  210MOL0     C28259  -4.045   9.405   2.589  0.6899  0.3712  0.3008
  210MOL0    Cl28260  -4.182   9.405   2.462 -0.4725 -0.0645  0.1702
  210MOL0     C28261  -2.925   9.484   2.742  0.0415 -0.7423  0.6611
  210MOL0     C28262  -2.783   9.462   2.728 -0.1815  0.2834 -0.0991
  210MOL0     O28263  -2.548   9.489   2.973 -0.2364 -0.5846 -0.2101
  210MOL0     C28264  -2.273   9.446   2.970 -0.7748 -0.4840 -0.2118
  210MOL0     C28265  -2.132   9.443   2.959 -0.1629 -0.0967  0.6327
  210MOL0     N28266  -1.492   9.478   2.891  0.1502  0.7791  0.4389
  210MOL0     N28267  -1.369   9.506   2.924  0.0189  0.6053 -0.2126
  210MOL0     C28268  -0.057   9.478   2.587 -0.4530  0.7626 -0.9252
  210MOL0     C28269   0.061   9.489   2.521  0.5048  0.1938 -0.4740
  210MOL0     C28270   0.432   9.460   2.300  0.2615 -0.6466 -0.0276
  210MOL0     C28271   0.556   9.472   2.376  0.6511 -1.0380 -0.5340
  210MOL0     C28272   0.680   9.506   2.320 -0.1381 -0.5761  0.1586
  210MOL0     C28273   0.684   9.542   2.179 -1.3005  0.2873 -0.0005
  210MOL0     O28274   0.794   9.584   2.115  0.0360 -0.2702 -0.3892
  210MOL0     C28275   0.845   9.706   2.157  0.2622 -0.9935  0.4829
  210MOL0     C28276   0.979   9.747   2.102  0.1339 -0.2635  0.2311
  210MOL0     C28277   0.970   9.811   1.965 -0.0130  0.8760  0.5037
  210MOL0     C28278   1.102   9.869   1.914  0.1682  0.2759  0.1231
  210MOL0     C28279   1.192   9.757   1.874  0.5083 -0.2408  0.9300
  210MOL0     C28280   1.261   9.676   1.817 -0.0164  0.8944 -0.3651
  210MOL0     C28281   0.563   9.546   2.108  0.1061 -0.9058 -0.8954
  210MOL0     C28282   0.441   9.498   2.165  0.0220  0.6315  0.0376
  210MOL0     H28283  -0.033   9.432   2.205  3.8039 -0.2318  0.2072
  210MOL0     H28284  -0.249   9.375   2.321 -0.1316 -0.5265  0.4126
  210MOL0     H28285  -0.433   9.486   2.511 -0.1488  0.6723  0.7808
  210MOL0     H28286  -0.451   9.308   2.521  1.0800 -0.2467 -0.3031
  210MOL0     H28287  -0.509   9.305   2.755  0.3604 -1.1769 -1.3507
  210MOL0     H28288  -0.453   9.476   2.780  0.2942 -1.2357  0.0237
  210MOL0     H28289  -0.645   9.522   2.606 -3.1334 -0.8106  0.2860
  210MOL0     H28290  -0.705   9.367   2.672  0.2870 -0.5814 -0.1325
  210MOL0     H28291  -0.679   9.462   2.899 -2.2194  3.0200  2.0682
  210MOL0     H28292  -0.650   9.622   2.823 -2.4909  1.7787 -0.3056
  210MOL0     H28293  -0.865   9.641   2.877  0.0851  0.9319 -1.0005
  210MOL0     H28294  -0.871   9.600   2.707 -0.9337  0.7534  1.0525
  210MOL0     H28295  -0.929   9.376   2.744 -0.1241  1.7795 -1.0873
  210MOL0     H28296  -0.899   9.390   2.916  0.9518 -0.6311 -0.4117
  210MOL0     H28297  -1.068   9.553   2.948 -2.4295 -0.7318  0.6047
  210MOL0     H28298  -1.118   9.535   2.776 -0.8855  2.0263  1.7490
  210MOL0     H28299  -1.127   9.334   3.008  0.0516 -3.2652 -1.2422
  210MOL0     H28300  -1.140   9.285   2.842  0.1148 -4.0483  4.0115
  210MOL0     H28301  -1.390   9.178   2.912 -0.3666 -0.3175 -2.2535
  210MOL0     H28302  -1.670   9.315   2.747  1.1364  0.4371 -1.0627
  210MOL0     H28303  -1.614   9.170   2.814 -2.1100 -1.3620  3.0230
  210MOL0     H28304  -1.701   9.205   3.038 -1.8433  0.6858  0.3749
  210MOL0     H28305  -1.814   9.184   2.908 -0.1005  0.4393  0.2503
  210MOL0     H28306  -1.734   9.419   3.072  0.4146  3.6798 -2.1323
  210MOL0     H28307  -1.897   9.332   3.063  1.8617 -0.5713  3.7816
  210MOL0     H28308  -1.773   9.514   2.843  0.6386  0.2449  0.7287
  210MOL0     H28309  -1.895   9.558   2.960 -2.9434 -0.9117  0.9967
  210MOL0     H28310  -2.112   9.350   2.646 -2.1347  0.5697 -1.7920
  210MOL0     H28311  -2.409   9.237   2.645 -0.1529 -0.5149 -2.6798
  210MOL0     H28312  -2.457   9.408   2.606  0.0836 -0.1200  1.6508
  210MOL0     H28313  -2.314   9.335   2.536  0.6024 -0.3842  0.8806
  210MOL0     H28314  -2.741   9.205   2.951 -2.1958 -0.2362  1.5378
  210MOL0     H28315  -2.997   9.249   2.977 -0.2971 -1.6121 -1.8583
  210MOL0     H28316  -3.200   9.567   2.727 -1.5971 -0.4594 -1.2418
  210MOL0     H28317  -3.165   9.402   2.653  1.1645 -2.6750  2.2171
  210MOL0     H28318  -3.361   9.319   2.780  0.1142  0.1929  2.2356
  210MOL0     H28319  -3.375   9.459   2.872 -0.1834  0.8357 -0.3691
  210MOL0     H28320  -3.381   9.465   2.553  0.1219 -0.5597  0.3445
  210MOL0     H28321  -3.454   9.577   2.670  0.9798  0.0263 -2.0058
  210MOL0     H28322  -3.544   9.293   2.626  1.1513  0.6904 -0.2948
  210MOL0     H28323  -3.599   9.397   2.760 -0.0536 -1.1778 -0.8720
  210MOL0     H28324  -3.646   9.447   2.464 -0.2466  2.5113  0.2425
  210MOL0     H28325  -3.661   9.564   2.588  0.2454  0.0590 -1.2150
  210MOL0     H28326  -3.792   9.291   2.602 -0.1569 -0.6224 -1.1332
  210MOL0     H28327  -3.828   9.418   2.719 -1.7869 -1.2294 -0.6896
  210MOL0     H28328  -3.913   9.389   2.422 -2.9355 -2.6853  0.8486
  210MOL0     H28329  -3.906   9.547   2.489 -2.9873  0.4417 -0.6410
  210MOL0     H28330  -4.055   9.478   2.670 -2.0568 -1.7840  2.0905
  210MOL0     H28331  -4.032   9.304   2.628  3.0939 -0.6954 -2.8712
  210MOL0     H28332  -2.969   9.556   2.673  1.4618 -1.7477 -1.3989
  210MOL0     H28333  -2.726   9.514   2.653  0.1802  0.9647  0.6404
  210MOL0     H28334  -2.314   9.471   3.067  2.2444  1.9082  0.6012
  210MOL0     H28335  -2.072   9.477   3.043 -1.3507 -2.6791  2.6324
  210MOL0     H28336  -0.070   9.492   2.694  0.0643  1.1110 -0.9011
  210MOL0     H28337   0.149   9.507   2.582  0.1420 -0.0980  0.1487
  210MOL0     H28338   0.553   9.445   2.481  1.5818 -1.8558 -0.7008
  210MOL0     H28339   0.772   9.506   2.377  0.0389  2.0719 -0.0241
  210MOL0     H28340   0.769   9.783   2.141  0.5228 -0.7759  0.2843
  210MOL0     H28341   0.855   9.704   2.266 -0.7763  0.6804  0.6528
  210MOL0     H28342   1.060   9.674   2.092  2.6935  2.3432  0.4657
  210MOL0     H28343   1.020   9.822   2.169 -0.6453  0.9144 -0.5656
  210MOL0     H28344   0.899   9.894   1.974 -1.4823 -0.1588 -0.8767
  210MOL0     H28345   0.929   9.740   1.892  1.0599 -0.7468  1.4091
  210MOL0     H28346   1.152   9.927   1.992  0.2764 -1.0740  1.0935
  210MOL0     H28347   1.084   9.932   1.827 -1.6035  0.5258  0.6177
  210MOL0     H28348   1.327   9.605   1.772  1.6656  0.6931  2.2250
  210MOL0     H28349   0.568   9.571   2.003  3.5261 -3.5869 -1.5394
  210MOL0     H28350   0.350   9.485   2.107  1.1974 -1.8475 -1.3820
  211MOL0     O28351   6.068   0.931   1.585  0.0676 -0.0467  0.1688
  211MOL0     C28352   6.147   0.988   1.509  0.1627 -0.1984  1.5228
  211MOL0     O28353   6.116   1.077   1.415 -0.3587 -0.4063 -0.7376
  211MOL0     C28354   5.979   1.096   1.394  0.0222 -0.8404  0.2709
  211MOL0     C28355   5.920   1.214   1.449  1.9417 -0.0627 -0.7480
  211MOL0     C28356   5.779   1.235   1.426 -0.0371 -0.6567 -0.5286
  211MOL0     C28357   5.710   1.152   1.334  0.1960  0.2964  0.2777
  211MOL0     O28358   5.579   1.169   1.301  0.0972 -0.6520 -0.7315
  211MOL0     C28359   5.497   1.258   1.380 -0.3345 -0.0166 -0.1896
  211MOL0     C28360   5.348   1.269   1.347 -0.1751 -0.3113  0.2757
  211MOL0     C28361   5.271   1.127   1.345  0.4647  0.3331 -1.0559
  211MOL0     C28362   5.126   1.152   1.359 -0.3162  0.8921 -0.3550
  211MOL0     C28363   5.048   1.015   1.371 -0.7618 -0.7942  0.1227
  211MOL0     C28364   4.895   1.045   1.366  0.5232  0.8637  0.5503
  211MOL0     C28365   4.813   0.911   1.362  0.6624 -0.1845 -0.5700
  211MOL0     C28366   4.664   0.942   1.342  0.3995  1.1001 -0.5975
  211MOL0     N28367   4.581   0.830   1.352  0.1056  0.5244  0.3857
  211MOL0     C28368   4.530   0.756   1.244 -0.3665 -0.2797 -0.3912
  211MOL0     C28369   4.443   0.668   1.306  0.1402  0.1245  0.1919
  211MOL0     C28370   4.363   0.562   1.232 -0.0596  0.3100 -0.5879
  211MOL0     C28371   4.212   0.591   1.254 -0.0256  0.0050  0.2184
  211MOL0     C28372   4.123   0.498   1.172 -0.1889  0.2708  0.5064
  211MOL0     C28373   3.981   0.530   1.216 -0.4442 -0.7649 -0.4484
  211MOL0     O28374   3.881   0.455   1.142 -0.1903 -0.5608  1.2818
  211MOL0     C28375   3.749   0.453   1.179  0.0384 -0.0760  0.1495
  211MOL0     C28376   3.672   0.341   1.131 -1.4219 -0.5641 -0.5126
  211MOL0     C28377   3.542   0.323   1.164 -0.0379 -0.0587  0.3216
  211MOL0     C28378   3.468   0.207   1.090 -1.0706  0.5275  0.1702
  211MOL0     C28379   3.470   0.409   1.250 -0.1172  0.4216 -0.4721
  211MOL0     C28380   3.328   0.391   1.293 -0.1182 -0.4689 -0.4778
  211MOL0     O28381   3.288   0.499   1.365  0.8177  0.0034  0.1852
  211MOL0     C28382   3.157   0.544   1.365 -0.1073  0.4422  0.3062
  211MOL0     C28383   3.073   0.515   1.252  0.9369 -0.0328 -0.2936
  211MOL0     C28384   2.936   0.554   1.261  0.5528 -0.8289 -0.2411
  211MOL0     C28385   2.885   0.637   1.369 -0.7748 -0.2095  0.2061
  211MOL0     O28386   2.748   0.656   1.385  0.0606 -0.8236 -0.4720
  211MOL0     C28387   2.711   0.698   1.520 -0.5140 -0.0966 -0.9801
  211MOL0     C28388   2.567   0.712   1.533  0.7040  0.2726  0.0800
  211MOL0     C28389   2.496   0.575   1.527  0.8541 -0.0939  0.6517
  211MOL0     C28390   2.346   0.602   1.549 -0.5687 -0.8544  0.1260
  211MOL0     C28391   2.269   0.474   1.560  0.9153  0.1252 -0.0383
  211MOL0     C28392   2.129   0.497   1.614 -1.0173 -0.5722  0.1548
  211MOL0     C28393   2.039   0.368   1.600 -0.3110 -0.5016 -0.0874
  211MOL0     C28394   1.923   0.382   1.702 -0.5103  0.1727 -0.0061
  211MOL0    Cl28395   1.989   0.333   1.859 -0.0451  0.3817  0.0021
  211MOL0     C28396   2.986   0.674   1.467  0.3848  0.0373  0.0199
  211MOL0     C28397   3.115   0.630   1.470 -1.5413  0.5177  0.8375
  211MOL0     O28398   3.260   0.294   1.277  0.0862 -0.1565  0.7264
  211MOL0     C28399   3.546   0.522   1.296  0.0411  0.1388 -0.0261
  211MOL0     C28400   3.684   0.539   1.271 -0.4425  0.2818  0.0777
  211MOL0     N28401   4.441   0.693   1.439  0.1122  0.0667 -0.1423
  211MOL0     N28402   4.515   0.792   1.466 -0.8169  0.5039  0.7960
  211MOL0     C28403   5.773   1.034   1.290 -1.1756 -0.4234  0.1939
  211MOL0     C28404   5.906   1.000   1.318 -0.4897 -0.6223 -0.8974
  211MOL0     C28405   6.289   0.974   1.539  0.2940  0.3631 -0.2876
  211MOL0     C28406   6.377   1.062   1.477  0.0892 -0.4828 -0.3083
  211MOL0     C28407   6.520   1.045   1.501  0.1149  0.3589 -0.3738
  211MOL0     C28408   6.569   0.938   1.580 -0.4800  0.5647 -0.4174
  211MOL0     O28409   6.708   0.926   1.601 -0.0712  0.4937 -0.2891
  211MOL0     C28410   6.762   0.806   1.660  0.4672  0.3586  0.0093
  211MOL0     C28411   6.914   0.823   1.672 -0.4966 -1.2527  0.9801
  211MOL0     C28412   6.975   0.911   1.561  0.0315  0.8431 -0.3107
  211MOL0     C28413   7.128   0.902   1.533  0.5657  0.1474 -0.1888
  211MOL0     C28414   7.161   0.963   1.405  1.1175  0.4446  0.7688
  211MOL0     C28415   7.178   1.023   1.295 -0.1567 -0.0301 -0.1520
  211MOL0     C28416   6.477   0.847   1.638 -0.5096 -0.0332  0.8653
  211MOL0     C28417   6.335   0.870   1.616 -0.9628 -0.2217  0.3212
  211MOL0     H28418   5.983   1.289   1.496  0.6238 -0.1316  1.2188
  211MOL0     H28419   5.741   1.325   1.475  1.1883 -0.7729  0.7080
  211MOL0     H28420   5.520   1.236   1.485  3.8346 -0.8497 -1.0709
  211MOL0     H28421   5.544   1.356   1.371  1.0406 -0.3059  2.7430
  211MOL0     H28422   5.307   1.336   1.424 -0.0002 -1.8227  1.7403
  211MOL0     H28423   5.340   1.319   1.250  0.5625 -0.8670 -0.0790
  211MOL0     H28424   5.296   1.080   1.249  0.9559  1.0794 -1.3008
  211MOL0     H28425   5.305   1.067   1.429  0.0301  0.3534 -0.8645
  211MOL0     H28426   5.114   1.205   1.454  0.1835 -1.8010  1.3418
  211MOL0     H28427   5.088   1.212   1.276 -1.2635 -0.8477 -1.2491
  211MOL0     H28428   5.063   0.957   1.280  2.5046 -0.5527  0.3995
  211MOL0     H28429   5.075   0.955   1.459 -1.8241 -1.9703 -0.3254
  211MOL0     H28430   4.879   1.097   1.461  1.9704  0.9619  0.7642
  211MOL0     H28431   4.867   1.118   1.289 -0.5957  1.9087  1.8680
  211MOL0     H28432   4.850   0.840   1.289  2.3194  1.7742 -1.7224
  211MOL0     H28433   4.817   0.865   1.462 -0.5190  2.6184  0.8982
  211MOL0     H28434   4.656   0.979   1.239 -0.6346  0.9330 -0.5900
  211MOL0     H28435   4.630   1.012   1.420  0.5348 -1.4281  1.8789
  211MOL0     H28436   4.564   0.772   1.143  1.0527 -0.3828  0.0499
  211MOL0     H28437   4.394   0.560   1.127  1.4345 -1.7241 -0.1663
  211MOL0     H28438   4.380   0.461   1.269  2.2923 -0.0947 -2.5029
  211MOL0     H28439   4.189   0.693   1.223 -1.9296 -0.6944 -0.8611
  211MOL0     H28440   4.200   0.579   1.362  2.2745 -1.5008  0.3804
  211MOL0     H28441   4.150   0.393   1.186 -0.2825  0.0524 -0.8429
  211MOL0     H28442   4.139   0.518   1.066 -1.3157 -0.1421  0.2389
  211MOL0     H28443   3.965   0.636   1.194 -0.2634 -0.6411 -0.0006
  211MOL0     H28444   3.968   0.505   1.322  3.7597 -0.7135  0.2715
  211MOL0     H28445   3.724   0.272   1.064 -1.6956 -1.2928  0.0063
  211MOL0     H28446   3.473   0.116   1.150  1.8435  0.4298 -0.0852
  211MOL0     H28447   3.365   0.233   1.063 -1.0940  0.4127  0.1500
  211MOL0     H28448   3.528   0.189   1.001  2.0596  2.2499  1.7506
  211MOL0     H28449   3.092   0.458   1.161  0.3285 -0.8936  0.1114
  211MOL0     H28450   2.867   0.536   1.180 -0.4320 -1.3495  0.6948
  211MOL0     H28451   2.751   0.624   1.590 -0.7258  0.4464 -0.2752
  211MOL0     H28452   2.747   0.798   1.547  1.9015 -1.7127  2.3934
  211MOL0     H28453   2.542   0.763   1.626 -0.1701 -0.4305  0.2493
  211MOL0     H28454   2.529   0.777   1.453  0.2169  1.7056  1.4134
  211MOL0     H28455   2.532   0.509   1.606  1.0159  1.4487  1.9080
  211MOL0     H28456   2.510   0.529   1.428  0.5504 -1.2267  1.1194
  211MOL0     H28457   2.341   0.661   1.641  0.5963 -0.0355 -0.3118
  211MOL0     H28458   2.313   0.663   1.465  1.5672  1.6511  0.9515
  211MOL0     H28459   2.321   0.397   1.618  2.3718 -2.3640 -4.1490
  211MOL0     H28460   2.260   0.434   1.458 -1.2178 -0.2620  0.2644
  211MOL0     H28461   2.138   0.533   1.717  0.5653 -0.1311 -0.1011
  211MOL0     H28462   2.094   0.578   1.549  0.8601 -0.2127 -0.4695
  211MOL0     H28463   2.102   0.279   1.612 -0.5558 -0.7197 -0.3939
  211MOL0     H28464   2.001   0.350   1.499 -0.2982 -1.6800  0.1030
  211MOL0     H28465   1.848   0.312   1.664 -1.1286  1.3472 -1.0268
  211MOL0     H28466   1.888   0.484   1.714 -0.7514  0.1905 -0.8152
  211MOL0     H28467   2.953   0.740   1.547 -2.8622 -0.7139 -0.5557
  211MOL0     H28468   3.184   0.659   1.548  0.0842  1.0187 -0.7271
  211MOL0     H28469   3.503   0.592   1.367  1.9324 -0.6067  1.9820
  211MOL0     H28470   3.741   0.618   1.319 -2.9219  2.6589 -0.6457
  211MOL0     H28471   5.716   0.954   1.245 -0.1305 -0.5647 -0.9179
  211MOL0     H28472   5.954   0.908   1.284 -0.2925 -0.4297 -1.1497
  211MOL0     H28473   6.354   1.141   1.407  0.6221 -1.1150 -1.2255
  211MOL0     H28474   6.590   1.112   1.453  0.8739 -0.8907 -1.0727
  211MOL0     H28475   6.719   0.785   1.758  0.3744  3.7346  0.8127
  211MOL0     H28476   6.740   0.721   1.595  2.2209  0.8364 -1.2805
  211MOL0     H28477   6.962   0.725   1.662 -0.0060 -0.9453  0.1547
  211MOL0     H28478   6.937   0.867   1.769  1.4549  0.9134 -0.3510
  211MOL0     H28479   6.960   1.018   1.579 -0.9414  1.3728 -3.6052
  211MOL0     H28480   6.919   0.893   1.468 -0.1960 -1.2012  0.1730
  211MOL0     H28481   7.158   0.797   1.526  2.8939  0.8081 -0.8587
  211MOL0     H28482   7.174   0.950   1.619  0.0131  0.8818 -0.2977
  211MOL0     H28483   7.197   1.052   1.193 -0.6747  1.4937  0.1615
  211MOL0     H28484   6.520   0.766   1.696  1.5086  0.5138  0.2231
  211MOL0     H28485   6.264   0.805   1.666 -1.4637  0.7693  0.9320
  212MOL0     O28486   8.758  10.921   5.272 -0.4949  0.4122  0.3963
  212MOL0     C28487   8.735  11.034   5.235 -0.5553  0.2363  0.4572
  212MOL0     O28488   8.635  11.077   5.148 -0.7436  0.0064 -0.2569
  212MOL0     C28489   8.544  10.984   5.110  0.2582 -0.7200  0.6956
  212MOL0     C28490   8.547  10.954   4.971 -0.2748  0.7320 -0.2754
  212MOL0     C28491   8.456  10.864   4.919  0.5943 -0.0917  0.1789
  212MOL0     C28492   8.357  10.800   4.996  0.8680 -0.9034 -0.2700
  212MOL0     O28493   8.272  10.701   4.955  0.3939  0.2296  0.1299
  212MOL0     C28494   8.245  10.694   4.816  0.0225 -0.2773 -0.6217
  212MOL0     C28495   8.118  10.611   4.791 -0.3124 -0.2668  0.5065
  212MOL0     C28496   8.103  10.577   4.637 -0.1860 -0.3818 -0.0472
  212MOL0     C28497   8.060  10.431   4.623  0.0512 -0.0464  0.2476
  212MOL0     C28498   8.078  10.396   4.467  0.3680 -0.5198 -0.5826
  212MOL0     C28499   8.069  10.250   4.427  0.8464 -0.1265  0.5547
  212MOL0     C28500   7.928  10.189   4.457 -0.1398 -0.0029 -0.2170
  212MOL0     C28501   7.919  10.047   4.416 -0.6095 -0.6370  0.3513
  212MOL0     N28502   7.795   9.997   4.455  0.4008 -0.4269 -0.5080
  212MOL0     C28503   7.682  10.016   4.380  0.0913 -0.0668 -0.3095
  212MOL0     C28504   7.592   9.946   4.446 -0.6440  0.5395  0.0915
  212MOL0     C28505   7.453   9.932   4.388 -0.1589  0.7913 -1.0471
  212MOL0     C28506   7.352   9.965   4.507  0.3435 -0.4707  0.1542
  212MOL0     C28507   7.368  10.101   4.587 -0.0695  0.3311  0.6491
  212MOL0     C28508   7.323  10.073   4.739 -0.2665 -0.0187  0.7135
  212MOL0     O28509   7.185  10.089   4.741  0.2111 -0.4739 -0.0195
  212MOL0     C28510   7.127  10.089   4.868 -0.2538  0.4653 -0.2046
  212MOL0     C28511   7.194  10.077   4.993 -0.1480 -0.3752 -0.1040
  212MOL0     C28512   7.133  10.095   5.120  0.1610  0.5069  0.4027
  212MOL0     C28513   7.220  10.104   5.248 -0.5393 -0.8158  0.6055
  212MOL0     C28514   6.991  10.114   5.122  0.1691  0.0489 -0.2906
  212MOL0     C28515   6.896  10.124   5.236 -1.2158  0.8414  0.5137
  212MOL0     O28516   6.770  10.145   5.210 -0.0385  0.2675 -0.5970
  212MOL0     C28517   6.681  10.138   5.315  0.2068  0.1847 -0.0526
  212MOL0     C28518   6.607  10.016   5.343 -0.4998 -0.2011  0.5202
  212MOL0     C28519   6.521  10.015   5.450 -0.2948 -0.1796 -0.0562
  212MOL0     C28520   6.482  10.133   5.522  0.5253  0.4303 -0.1065
  212MOL0     O28521   6.375  10.146   5.617  0.5152 -0.1940 -0.2416
  212MOL0     C28522   6.268  10.044   5.610  0.7082  0.3311 -0.4800
  212MOL0     C28523   6.148  10.075   5.514  0.3365 -0.4630  0.1891
  212MOL0     C28524   6.134  10.220   5.488  0.4654 -0.4828 -0.1775
  212MOL0     C28525   6.008  10.246   5.404 -0.3011 -0.6659 -0.3131
  212MOL0     C28526   6.029  10.214   5.256 -0.1352  0.0705 -0.1940
  212MOL0     C28527   5.906  10.231   5.177  0.3001 -0.9531 -0.8756
  212MOL0     C28528   5.944  10.224   5.027 -0.7284  0.0650  0.6300
  212MOL0     C28529   5.825  10.220   4.935  0.1278 -0.2536 -0.0169
  212MOL0    Cl28530   5.767  10.388   4.905  0.2873 -0.5585 -0.0744
  212MOL0     C28531   6.544  10.255   5.481 -0.3784  0.3111 -0.4373
  212MOL0     C28532   6.651  10.261   5.382  0.4528  0.1376  0.4572
  212MOL0     O28533   6.949  10.123   5.351 -0.0869 -0.3035 -0.1375
  212MOL0     C28534   6.925  10.131   4.991  0.7090 -0.2164  0.8768
  212MOL0     C28535   6.987  10.119   4.868 -0.2687  0.7429 -0.0487
  212MOL0     N28536   7.651   9.877   4.559  0.0850 -1.1768 -0.3173
  212MOL0     N28537   7.770   9.918   4.563 -0.2446 -0.0224 -0.6614
  212MOL0     C28538   8.355  10.831   5.134 -0.1055 -0.0768 -0.4317
  212MOL0     C28539   8.449  10.921   5.194 -0.6169  0.0601 -1.1359
  212MOL0     C28540   8.817  11.134   5.290  0.0154 -0.6126 -0.1518
  212MOL0     C28541   8.825  11.263   5.230 -0.0672 -0.7048 -0.8979
  212MOL0     C28542   8.915  11.360   5.279  0.6511 -0.6559 -0.3759
  212MOL0     C28543   8.988  11.332   5.393 -0.0121 -0.6166 -0.2842
  212MOL0     O28544   9.066  11.437   5.438  1.0790  0.6034  0.0723
  212MOL0     C28545   9.164  11.417   5.542  1.0462  0.1749 -0.0401
  212MOL0     C28546   9.286  11.352   5.478 -0.6698  0.0153  0.3468
  212MOL0     C28547   9.418  11.395   5.541  0.3518  0.4031  1.3923
  212MOL0     C28548   9.464  11.534   5.488 -0.1165 -0.6218 -0.5347
  212MOL0     C28549   9.520  11.516   5.350 -0.3198 -0.7120 -0.0052
  212MOL0     C28550   9.589  11.496   5.255 -0.7864  0.6863 -0.3972
  212MOL0     C28551   8.989  11.203   5.448  0.3371  0.4833  0.1935
  212MOL0     C28552   8.904  11.106   5.394 -0.6642 -0.0054  0.3037
  212MOL0     H28553   8.626  10.985   4.903 -0.1694  0.1764 -0.4142
  212MOL0     H28554   8.465  10.830   4.817  2.9730  1.6532 -0.2590
  212MOL0     H28555   8.228  10.798   4.784  1.2701  0.1615  0.0770
  212MOL0     H28556   8.331  10.661   4.758 -0.8356 -1.0470 -1.5011
  212MOL0     H28557   8.127  10.519   4.850  2.9075  0.2023  0.9458
  212MOL0     H28558   8.033  10.668   4.829 -0.5044  0.4537 -0.9492
  212MOL0     H28559   8.027  10.635   4.585  0.0680 -1.0668 -1.2201
  212MOL0     H28560   8.200  10.600   4.592  1.6971  0.2315  3.8875
  212MOL0     H28561   8.121  10.358   4.676 -1.6249 -2.1166 -0.5118
  212MOL0     H28562   7.955  10.423   4.655 -0.4566  2.6752 -0.5186
  212MOL0     H28563   7.999  10.456   4.420  0.8705 -1.9899 -3.5954
  212MOL0     H28564   8.173  10.435   4.428 -0.0767  2.1462  0.7575
  212MOL0     H28565   8.084  10.236   4.320 -3.4176  2.4175 -0.6264
  212MOL0     H28566   8.149  10.198   4.480  0.7241  0.0767  0.9443
  212MOL0     H28567   7.916  10.193   4.566  0.7357 -0.1617 -0.1084
  212MOL0     H28568   7.846  10.249   4.415 -1.6942  1.0646  3.8037
  212MOL0     H28569   8.001   9.994   4.465 -0.3150  2.1030  3.1831
  212MOL0     H28570   7.930  10.030   4.309  0.4501  1.6906  0.0271
  212MOL0     H28571   7.663  10.073   4.290  0.9419  0.8710  0.0854
  212MOL0     H28572   7.432   9.999   4.304  1.6450 -0.3358 -2.4825
  212MOL0     H28573   7.430   9.829   4.358 -2.0255  0.8483  0.0521
  212MOL0     H28574   7.342   9.883   4.578 -0.0277  0.0887  0.7600
  212MOL0     H28575   7.246   9.968   4.478  0.2551  2.7842  0.4674
  212MOL0     H28576   7.321  10.189   4.541  1.4101 -0.0138 -1.7172
  212MOL0     H28577   7.473  10.131   4.593 -0.2249  0.7627  1.3203
  212MOL0     H28578   7.374  10.140   4.809  0.4682  1.5679 -1.2254
  212MOL0     H28579   7.348   9.970   4.764 -0.8575 -0.4282 -0.3164
  212MOL0     H28580   7.301  10.065   5.006 -0.1212 -1.3214 -1.0552
  212MOL0     H28581   7.246  10.005   5.286  1.4864 -1.1028 -1.2820
  212MOL0     H28582   7.312  10.150   5.210 -1.2835  1.3373  1.2752
  212MOL0     H28583   7.183  10.160   5.334  1.1454  0.2466  0.6895
  212MOL0     H28584   6.626   9.925   5.286 -0.1710 -0.3526  0.8602
  212MOL0     H28585   6.484   9.920   5.488  2.7373 -0.4845  2.5594
  212MOL0     H28586   6.308   9.945   5.585  0.5858 -0.6584  2.7866
  212MOL0     H28587   6.237  10.043   5.715  1.2037  2.7649 -0.2516
  212MOL0     H28588   6.174  10.022   5.421 -0.6880  0.2859 -0.5400
  212MOL0     H28589   6.058  10.032   5.558 -0.2316 -0.7167 -1.1874
  212MOL0     H28590   6.221  10.261   5.437 -1.4308  2.9112 -0.9588
  212MOL0     H28591   6.116  10.271   5.583  3.5908 -1.4390  1.0780
  212MOL0     H28592   5.919  10.193   5.440 -0.4355 -0.8112 -0.8593
  212MOL0     H28593   5.972  10.349   5.413 -0.5150 -0.9374  3.7246
  212MOL0     H28594   6.056  10.108   5.252  3.9573  0.9583 -0.5093
  212MOL0     H28595   6.116  10.270   5.220 -1.4192  2.0388 -0.3541
  212MOL0     H28596   5.827  10.159   5.202 -0.7972  0.6713  0.6329
  212MOL0     H28597   5.867  10.332   5.194  2.5898  0.1215 -1.6872
  212MOL0     H28598   6.015  10.142   5.009 -1.9105 -0.6590 -1.0221
  212MOL0     H28599   5.996  10.314   4.992 -0.7155 -1.1603 -2.8554
  212MOL0     H28600   5.744  10.162   4.981 -0.6255  2.5301  2.5416
  212MOL0     H28601   5.865  10.184   4.840 -1.5003 -0.4972 -0.6419
  212MOL0     H28602   6.498  10.343   5.524 -2.5420 -1.1052  0.2923
  212MOL0     H28603   6.690  10.357   5.349 -3.4804  2.1206  0.9250
  212MOL0     H28604   6.824  10.170   4.986  1.8775  3.3218  1.5608
  212MOL0     H28605   6.929  10.128   4.776 -2.7360 -0.5937  1.2550
  212MOL0     H28606   8.279  10.784   5.196  0.6235 -2.3167 -1.1540
  212MOL0     H28607   8.455  10.944   5.300 -1.4293  0.5251 -1.1836
  212MOL0     H28608   8.769  11.289   5.141  1.9886  0.0940 -2.0048
  212MOL0     H28609   8.916  11.458   5.232  1.0602  0.3260  1.5833
  212MOL0     H28610   9.184  11.521   5.569  3.4118 -0.8878  2.8170
  212MOL0     H28611   9.123  11.359   5.625  0.1953  0.2198 -0.4170
  212MOL0     H28612   9.285  11.364   5.369  0.5902 -1.9661  0.0770
  212MOL0     H28613   9.261  11.246   5.493 -0.3981  0.0001  0.6856
  212MOL0     H28614   9.496  11.323   5.515 -2.9795 -3.4196  0.9913
  212MOL0     H28615   9.409  11.399   5.650 -0.8192 -1.0993  1.3881
  212MOL0     H28616   9.543  11.572   5.554 -1.3538  1.2080 -0.0263
  212MOL0     H28617   9.381  11.603   5.472 -0.6979 -1.4380 -1.1327
  212MOL0     H28618   9.646  11.493   5.165 -0.8710  2.1454 -0.5228
  212MOL0     H28619   9.048  11.178   5.535 -1.5676  1.0003  1.6973
  212MOL0     H28620   8.911  11.008   5.438  0.1649  1.1204  2.8518
  213MOL0     O28621   8.551   5.559  11.104  0.3153 -0.5971 -0.2771
  213MOL0     C28622   8.598   5.667  11.078 -0.7060  1.1380 -0.3924
  213MOL0     O28623   8.543   5.762  10.999  0.3537  0.3029  0.0802
  213MOL0     C28624   8.413   5.741  10.953 -0.1412  0.6610  0.0315
  213MOL0     C28625   8.315   5.840  10.974  0.1069  0.4620 -0.5496
  213MOL0     C28626   8.187   5.832  10.908  0.6424  0.7160  0.4763
  213MOL0     C28627   8.145   5.719  10.834 -0.0817 -1.0187 -0.5600
  213MOL0     O28628   8.019   5.710  10.786  0.5296 -0.3272  0.1104
  213MOL0     C28629   7.991   5.609  10.681 -0.1994  0.9815 -0.5827
  213MOL0     C28630   7.842   5.639  10.636  0.3214 -0.4158  0.9643
  213MOL0     C28631   7.813   5.757  10.544 -0.3140 -0.0948  0.1188
  213MOL0     C28632   7.877   5.754  10.401  0.5110 -1.1399  0.3975
  213MOL0     C28633   7.833   5.894  10.334  0.6362  0.1001 -0.6376
  213MOL0     C28634   7.890   5.910  10.200 -0.4293  0.3756  0.5256
  213MOL0     C28635   7.917   6.054  10.163  0.0187 -0.3989  0.1981
  213MOL0     C28636   8.019   6.083  10.050 -0.2962 -0.4929  0.4997
  213MOL0     N28637   7.958   6.060   9.918 -0.4997  0.2092 -0.4575
  213MOL0     C28638   7.864   6.139   9.862 -0.8415  0.1569  0.7884
  213MOL0     C28639   7.832   6.082   9.742  0.3414  0.2941  0.3622
  213MOL0     C28640   7.716   6.116   9.651  0.0227 -0.5060 -0.3555
  213MOL0     C28641   7.775   6.163   9.519 -0.4742 -0.6178  0.0504
  213MOL0     C28642   7.691   6.257   9.435  0.1290 -1.3546  0.2595
  213MOL0     C28643   7.749   6.280   9.293  0.5498  0.3545 -0.3505
  213MOL0     O28644   7.654   6.348   9.215 -0.1170  0.7464  0.2523
  213MOL0     C28645   7.694   6.380   9.085  0.0002 -0.7325  0.8298
  213MOL0     C28646   7.590   6.413   8.997 -0.3819  0.3567  0.4408
  213MOL0     C28647   7.608   6.408   8.858 -0.9024 -0.5896 -0.2314
  213MOL0     C28648   7.479   6.409   8.781 -0.3582  0.8332  0.0464
  213MOL0     C28649   7.740   6.392   8.803  0.3447 -0.8271  0.2094
  213MOL0     C28650   7.778   6.393   8.661 -0.1097  1.0785  0.3416
  213MOL0     O28651   7.673   6.410   8.576 -0.1439 -0.0856 -0.6850
  213MOL0     C28652   7.692   6.452   8.446  0.9782  0.2585 -0.1278
  213MOL0     C28653   7.590   6.531   8.390  0.1858 -1.4097  0.2665
  213MOL0     C28654   7.583   6.559   8.253  0.2978  0.5991  0.0805
  213MOL0     C28655   7.680   6.519   8.164 -0.6731  0.5572  0.0680
  213MOL0     O28656   7.673   6.529   8.029  0.4634 -0.6472  0.7423
  213MOL0     C28657   7.587   6.637   7.971 -1.3557  1.0123 -0.4735
  213MOL0     C28658   7.626   6.656   7.819  0.2586 -0.3179 -0.0020
  213MOL0     C28659   7.609   6.526   7.740 -0.1611 -0.0241  0.1444
  213MOL0     C28660   7.621   6.555   7.586 -0.7093 -0.0824 -0.5163
  213MOL0     C28661   7.595   6.421   7.508 -0.4097 -0.5797 -1.6293
  213MOL0     C28662   7.730   6.338   7.517  0.7286 -0.4661  0.4066
  213MOL0     C28663   7.726   6.207   7.437 -0.6683 -0.1963  0.6291
  213MOL0     C28664   7.818   6.210   7.309  0.3215  0.2513  0.7083
  213MOL0    Cl28665   7.988   6.241   7.335 -0.0760 -0.0968  0.0415
  213MOL0     C28666   7.784   6.436   8.214  0.2192 -0.1758 -0.0157
  213MOL0     C28667   7.789   6.403   8.350  0.2490 -0.0013 -0.3338
  213MOL0     O28668   7.896   6.379   8.630  0.5313 -0.0037 -0.6725
  213MOL0     C28669   7.841   6.365   8.888 -0.6681  0.2536 -0.6926
  213MOL0     C28670   7.824   6.356   9.031  0.3967 -0.1286 -0.6090
  213MOL0     N28671   7.910   5.965   9.728 -0.6155  0.1262 -0.4092
  213MOL0     N28672   7.998   5.959   9.831  0.4311 -0.2627  0.2305
  213MOL0     C28673   8.241   5.617  10.816  0.4847 -0.2491 -0.2738
  213MOL0     C28674   8.372   5.630  10.874 -0.2584  0.0023  0.1624
  213MOL0     C28675   8.739   5.687  11.107  0.6137  0.4755 -0.9297
  213MOL0     C28676   8.801   5.806  11.085 -0.3142  0.1104 -0.2927
  213MOL0     C28677   8.934   5.823  11.112 -1.2044 -0.5537  0.1412
  213MOL0     C28678   9.015   5.728  11.172 -0.3626 -0.6063  0.5459
  213MOL0     O28679   9.148   5.748  11.199 -0.0282  0.1643 -0.4415
  213MOL0     C28680   9.167   5.852  11.300  0.6178  0.4492  0.0539
  213MOL0     C28681   9.315   5.867  11.342 -0.7468 -0.0624 -0.6359
  213MOL0     C28682   9.327   5.982  11.437 -0.3792  0.5938 -0.9736
  213MOL0     C28683   9.456   5.975  11.519 -0.0008  0.3673  0.5696
  213MOL0     C28684   9.573   5.984  11.429 -0.0963  0.1150  0.9671
  213MOL0     C28685   9.673   5.995  11.371 -0.0336  0.0687  0.0412
  213MOL0     C28686   8.952   5.612  11.197 -0.3837  0.5895 -0.2592
  213MOL0     C28687   8.817   5.579  11.166 -0.6619  0.2317 -0.2422
  213MOL0     H28688   8.355   5.923  11.031 -2.6911  1.1819  0.4823
  213MOL0     H28689   8.121   5.917  10.925  0.2468  0.0259  2.7667
  213MOL0     H28690   8.054   5.629  10.593  0.4880  2.1899  0.1474
  213MOL0     H28691   8.007   5.512  10.727 -2.1635  0.8433 -0.1153
  213MOL0     H28692   7.793   5.554  10.588  0.0095  0.3074 -0.0304
  213MOL0     H28693   7.786   5.662  10.727 -0.7035  0.7487  0.0804
  213MOL0     H28694   7.706   5.764  10.523 -1.1670  0.1705  3.8676
  213MOL0     H28695   7.848   5.847  10.597  0.2206  0.2966 -0.8728
  213MOL0     H28696   7.984   5.736  10.413  0.2963 -3.0937 -0.2279
  213MOL0     H28697   7.846   5.677  10.330  1.4797  2.2119 -4.1336
  213MOL0     H28698   7.724   5.893  10.326  0.6202 -2.2616 -0.9019
  213MOL0     H28699   7.852   5.978  10.401 -2.9494 -1.2687  2.4508
  213MOL0     H28700   7.975   5.843  10.185 -0.3869  0.6578 -0.5786
  213MOL0     H28701   7.822   5.874  10.121 -1.5669  0.8172  1.2762
  213MOL0     H28702   7.824   6.111  10.158  0.6918  0.6250 -1.0887
  213MOL0     H28703   7.975   6.095  10.246  2.5109 -3.2010 -0.0053
  213MOL0     H28704   8.106   6.016  10.043  1.1176  1.1878  1.1608
  213MOL0     H28705   8.046   6.189  10.050 -0.6047 -0.4124  0.9705
  213MOL0     H28706   7.814   6.224   9.908 -1.1301 -0.4342  1.5958
  213MOL0     H28707   7.657   6.026   9.633 -1.1444  0.4003 -1.2601
  213MOL0     H28708   7.656   6.196   9.696  0.0317  1.1951 -3.1136
  213MOL0     H28709   7.812   6.084   9.453 -0.0849 -0.4230  0.0304
  213MOL0     H28710   7.862   6.226   9.538 -0.8244 -0.0814 -0.0977
  213MOL0     H28711   7.671   6.354   9.482  1.0481  0.3853 -2.7012
  213MOL0     H28712   7.591   6.215   9.418 -0.2548 -1.0189  1.5592
  213MOL0     H28713   7.756   6.181   9.247 -1.2826  1.0125 -2.2084
  213MOL0     H28714   7.841   6.340   9.295  0.6347  0.3412  3.6468
  213MOL0     H28715   7.495   6.413   9.050  0.6009 -0.1708  2.2977
  213MOL0     H28716   7.393   6.396   8.847  1.4871  1.7373  2.7892
  213MOL0     H28717   7.463   6.498   8.719 -2.8415 -1.1679 -2.4500
  213MOL0     H28718   7.488   6.320   8.718 -2.7177  1.0627 -0.7078
  213MOL0     H28719   7.509   6.555   8.458 -0.0718 -2.1735  0.2292
  213MOL0     H28720   7.504   6.620   8.209 -1.4564 -1.6107 -0.0121
  213MOL0     H28721   7.484   6.599   7.975 -0.5211 -1.3963 -0.3532
  213MOL0     H28722   7.604   6.734   8.019 -2.5726  1.7575 -1.4886
  213MOL0     H28723   7.569   6.737   7.773  0.2470 -0.9806 -1.1948
  213MOL0     H28724   7.724   6.702   7.808  0.3811 -0.4884  0.3624
  213MOL0     H28725   7.513   6.475   7.756 -0.7210 -0.3135 -3.3138
  213MOL0     H28726   7.686   6.454   7.767  0.5520  1.3601  2.0044
  213MOL0     H28727   7.558   6.639   7.558  0.1473  2.0487  3.1992
  213MOL0     H28728   7.721   6.582   7.550 -1.2982 -0.8135 -2.8192
  213MOL0     H28729   7.566   6.422   7.402 -0.1740 -1.6254 -1.7174
  213MOL0     H28730   7.513   6.369   7.558  0.7833  0.0153  1.0974
  213MOL0     H28731   7.811   6.399   7.475 -0.9735  0.0444 -2.4163
  213MOL0     H28732   7.754   6.315   7.621  0.7436 -0.2597  0.4501
  213MOL0     H28733   7.622   6.187   7.411 -0.7264 -1.7060  1.8449
  213MOL0     H28734   7.766   6.125   7.497 -2.1164 -0.5391  1.1727
  213MOL0     H28735   7.772   6.273   7.232  3.4242  1.3286 -0.4328
  213MOL0     H28736   7.815   6.114   7.257  0.3134  1.5868 -1.9764
  213MOL0     H28737   7.852   6.402   8.138  0.6475 -1.2987  0.8422
  213MOL0     H28738   7.859   6.336   8.400 -2.6219 -1.8442  1.5658
  213MOL0     H28739   7.947   6.369   8.863 -0.5461  0.1098 -0.2199
  213MOL0     H28740   7.915   6.332   9.085  1.3854  1.3223 -1.5506
  213MOL0     H28741   8.220   5.525  10.762  2.1952  0.3063 -1.9908
  213MOL0     H28742   8.437   5.548  10.845 -1.3357 -0.7014 -0.3581
  213MOL0     H28743   8.748   5.895  11.050 -1.4055  0.0880  1.2189
  213MOL0     H28744   8.985   5.911  11.074  1.1044 -2.7017 -2.0329
  213MOL0     H28745   9.128   5.947  11.264  0.5416  0.0251 -1.0114
  213MOL0     H28746   9.103   5.821  11.384 -1.2054 -0.1234 -1.4944
  213MOL0     H28747   9.368   5.901  11.253  2.7141  1.6539  1.8417
  213MOL0     H28748   9.359   5.773  11.379  0.9720  0.9554  0.0437
  213MOL0     H28749   9.249   5.978  11.513  1.1716 -1.6086  0.6433
  213MOL0     H28750   9.318   6.071  11.374  1.3358 -0.1543 -2.3678
  213MOL0     H28751   9.461   5.882  11.576  0.8916  0.7969  1.2054
  213MOL0     H28752   9.444   6.058  11.589  0.2248  0.7889  0.1186
  213MOL0     H28753   9.771   5.996  11.329 -0.6285  3.4359 -1.6063
  213MOL0     H28754   9.009   5.541  11.256 -1.7637 -0.3348  0.0102
  213MOL0     H28755   8.770   5.484  11.189 -0.8737  0.2026 -0.7844
  214MOL0     O28756   2.365   4.012   5.615  0.6317  0.4820 -0.1247
  214MOL0     C28757   2.357   4.049   5.499 -1.1555 -0.4685 -0.1543
  214MOL0     O28758   2.343   4.180   5.458  0.1972 -0.3870  0.5275
  214MOL0     C28759   2.352   4.282   5.553 -0.4444  0.4768  0.6203
  214MOL0     C28760   2.232   4.331   5.608 -0.2213  0.6391 -0.0870
  214MOL0     C28761   2.227   4.441   5.695  0.3946 -0.1940  0.5067
  214MOL0     C28762   2.350   4.510   5.733  0.0678  0.1912  0.4464
  214MOL0     O28763   2.357   4.630   5.808  0.2402 -0.2787  0.3165
  214MOL0     C28764   2.244   4.717   5.790 -0.8357  0.1234  0.0219
  214MOL0     C28765   2.140   4.693   5.901 -0.0790 -0.1926  1.1520
  214MOL0     C28766   2.184   4.742   6.046  0.1606 -0.4471 -0.5284
  214MOL0     C28767   2.089   4.820   6.138  0.3587  0.5857  0.0765
  214MOL0     C28768   2.136   4.851   6.279  0.5107  0.7750 -0.2867
  214MOL0     C28769   2.218   4.986   6.278  0.0556  0.0494 -0.3657
  214MOL0     C28770   2.309   5.009   6.390 -0.6370 -0.0021  0.1675
  214MOL0     C28771   2.385   5.145   6.380  0.1994 -0.8128 -0.1830
  214MOL0     N28772   2.516   5.133   6.319  0.0867 -0.0174 -0.4449
  214MOL0     C28773   2.628   5.102   6.386 -0.4390 -0.0674 -0.1061
  214MOL0     C28774   2.729   5.091   6.300  0.1187 -0.4888  0.6659
  214MOL0     C28775   2.869   5.060   6.333 -0.4650  0.1417  0.1956
  214MOL0     C28776   2.972   5.073   6.220 -0.4381 -0.5368  0.2052
  214MOL0     C28777   3.117   5.079   6.286  0.5140 -0.6556  0.3333
  214MOL0     C28778   3.221   5.111   6.184 -0.3759  0.4591  0.8741
  214MOL0     O28779   3.201   5.015   6.076  0.1352 -1.0950 -0.1227
  214MOL0     C28780   3.313   4.970   6.006  0.3409  0.1705 -0.0467
  214MOL0     C28781   3.287   4.969   5.869 -0.4405  0.1122 -0.3976
  214MOL0     C28782   3.381   4.916   5.775 -0.1759  0.5110  0.3386
  214MOL0     C28783   3.345   4.917   5.634 -0.2827 -0.1747 -0.1024
  214MOL0     C28784   3.504   4.865   5.827 -0.3285  0.4137 -0.0365
  214MOL0     C28785   3.614   4.796   5.752 -0.2552 -0.4283 -1.0020
  214MOL0     O28786   3.728   4.772   5.821 -0.2925  1.3236 -0.5350
  214MOL0     C28787   3.843   4.746   5.767  0.5362  0.6047  0.9136
  214MOL0     C28788   3.868   4.712   5.634 -0.6303  0.0353  0.3763
  214MOL0     C28789   4.003   4.711   5.594  0.2882  0.3877 -0.6689
  214MOL0     C28790   4.110   4.726   5.682 -0.6876  0.4655  0.9497
  214MOL0     O28791   4.236   4.692   5.631  0.1860 -0.0785 -0.1424
  214MOL0     C28792   4.350   4.715   5.716 -0.3523 -0.2879 -0.0803
  214MOL0     C28793   4.467   4.669   5.634 -0.3423  0.3673  0.6429
  214MOL0     C28794   4.599   4.659   5.711 -0.1950  0.5445 -0.4958
  214MOL0     C28795   4.710   4.616   5.616 -0.3254 -0.1601  0.6762
  214MOL0     C28796   4.800   4.728   5.561 -0.8843 -0.6207  0.1776
  214MOL0     C28797   4.909   4.671   5.474  1.2502 -0.1317  0.6217
  214MOL0     C28798   5.025   4.592   5.542 -0.2103 -0.2658 -1.1252
  214MOL0     C28799   5.065   4.654   5.681  0.1679  0.0744 -0.0200
  214MOL0    Cl28800   5.210   4.572   5.746  0.0572 -0.7345 -0.2279
  214MOL0     C28801   4.086   4.773   5.812  0.7329  0.6097  0.0119
  214MOL0     C28802   3.953   4.779   5.853  0.7787 -0.5718  0.2038
  214MOL0     O28803   3.591   4.780   5.634  0.5485 -0.3640  0.2187
  214MOL0     C28804   3.530   4.894   5.969  0.0449 -0.4332  0.4579
  214MOL0     C28805   3.434   4.941   6.056  0.4492 -0.0898 -0.6987
  214MOL0     N28806   2.666   5.127   6.175 -0.0816 -0.7515  0.0220
  214MOL0     N28807   2.539   5.155   6.191  0.4981  0.5738 -0.4843
  214MOL0     C28808   2.474   4.451   5.672  0.9413  0.0280  1.1860
  214MOL0     C28809   2.473   4.346   5.581  0.5934  1.0783 -0.7629
  214MOL0     C28810   2.347   3.942   5.391 -0.3008 -0.5011  0.7722
  214MOL0     C28811   2.395   3.808   5.418  0.1266 -0.7053  0.9116
  214MOL0     C28812   2.383   3.704   5.324  0.1588  0.3621  0.0545
  214MOL0     C28813   2.333   3.734   5.192 -0.3963 -0.3429 -0.4122
  214MOL0     O28814   2.350   3.637   5.096 -0.1214 -0.4738  0.2762
  214MOL0     C28815   2.336   3.675   4.961 -0.2662  0.3096  0.4395
  214MOL0     C28816   2.405   3.569   4.870  0.4334  0.0287  0.6821
  214MOL0     C28817   2.555   3.559   4.892 -0.1419 -0.4925 -0.4345
  214MOL0     C28818   2.633   3.700   4.883  0.5039  0.2145 -0.7380
  214MOL0     C28819   2.773   3.679   4.903 -0.2292  0.8011  0.6940
  214MOL0     C28820   2.895   3.649   4.930  0.1085 -0.5470 -0.6389
  214MOL0     C28821   2.281   3.867   5.167  0.2008 -0.0103 -0.2302
  214MOL0     C28822   2.296   3.966   5.264  0.2134  0.5027 -0.5786
  214MOL0     H28823   2.141   4.284   5.570 -0.8613 -0.3431  2.4415
  214MOL0     H28824   2.126   4.475   5.716  0.7994  1.1179  0.4347
  214MOL0     H28825   2.287   4.817   5.797 -1.3216  0.7036 -3.5588
  214MOL0     H28826   2.207   4.695   5.690  0.3966 -2.7142  0.1083
  214MOL0     H28827   2.050   4.754   5.885  0.0353 -0.0699  0.9675
  214MOL0     H28828   2.113   4.588   5.909  0.1418 -0.6767 -2.7972
  214MOL0     H28829   2.234   4.665   6.106  2.2510  0.1453 -1.4000
  214MOL0     H28830   2.268   4.807   6.019  1.4959 -2.2075 -0.7896
  214MOL0     H28831   2.072   4.911   6.079 -1.7358 -0.6149 -1.3097
  214MOL0     H28832   1.988   4.779   6.151 -0.1053  1.5909 -0.2456
  214MOL0     H28833   2.050   4.866   6.344 -0.5454 -1.3692 -1.1134
  214MOL0     H28834   2.204   4.772   6.311  1.4750  1.6530 -0.0856
  214MOL0     H28835   2.288   4.981   6.194  1.9218 -3.1681  1.1928
  214MOL0     H28836   2.143   5.067   6.274  0.8301  0.8473  0.6434
  214MOL0     H28837   2.249   4.993   6.480 -3.3956 -1.4071 -1.7721
  214MOL0     H28838   2.377   4.923   6.383  2.2195  2.2147 -5.4807
  214MOL0     H28839   2.398   5.193   6.478  0.6815 -0.6773 -0.3120
  214MOL0     H28840   2.321   5.211   6.321  2.1265 -0.1633 -1.6473
  214MOL0     H28841   2.625   5.095   6.495 -0.8548  0.5373 -0.0735
  214MOL0     H28842   2.895   5.117   6.422 -1.7900 -0.6912  1.1725
  214MOL0     H28843   2.880   4.957   6.369  0.4487  0.6343  1.3746
  214MOL0     H28844   2.953   5.164   6.162 -0.5554 -1.1744 -0.7869
  214MOL0     H28845   2.960   4.982   6.161 -1.5824 -0.2313 -0.0626
  214MOL0     H28846   3.130   4.982   6.335  0.3306 -1.3727 -0.9746
  214MOL0     H28847   3.109   5.165   6.353  2.1560  1.2440 -1.7556
  214MOL0     H28848   3.321   5.112   6.227  0.1536  1.2753 -0.3124
  214MOL0     H28849   3.196   5.212   6.151  1.5518  0.4927 -0.6700
  214MOL0     H28850   3.187   5.002   5.843  0.5391  3.4236 -0.3683
  214MOL0     H28851   3.333   4.817   5.590  0.9067  0.3529 -1.7438
  214MOL0     H28852   3.247   4.960   5.611 -1.6830 -1.7236  2.4847
  214MOL0     H28853   3.422   4.971   5.577  0.8792 -1.5016  0.1480
  214MOL0     H28854   3.803   4.679   5.553  3.4319 -0.1158 -3.1801
  214MOL0     H28855   4.027   4.677   5.493 -1.4300 -0.0853 -0.9579
  214MOL0     H28856   4.367   4.813   5.762 -0.5616 -1.1463  1.9413
  214MOL0     H28857   4.351   4.645   5.800  2.3375 -1.8820 -1.2780
  214MOL0     H28858   4.445   4.568   5.599 -2.0829  0.4001  1.5745
  214MOL0     H28859   4.483   4.740   5.552 -1.8667  0.1668  0.1390
  214MOL0     H28860   4.586   4.584   5.789 -2.0439 -0.3739 -1.6328
  214MOL0     H28861   4.632   4.751   5.761  0.5565 -1.1760  2.3653
  214MOL0     H28862   4.776   4.546   5.668 -0.2268 -0.3332  0.3164
  214MOL0     H28863   4.666   4.564   5.531 -0.8384  0.8945  0.2851
  214MOL0     H28864   4.844   4.785   5.643 -3.0138  0.0746  0.9169
  214MOL0     H28865   4.731   4.798   5.513 -0.0349  1.3216  1.6677
  214MOL0     H28866   4.859   4.605   5.404 -0.9338  1.9815  0.0759
  214MOL0     H28867   4.953   4.745   5.406  1.4062  0.2208  1.0978
  214MOL0     H28868   5.109   4.606   5.474  1.1533 -0.6106  0.4119
  214MOL0     H28869   5.005   4.485   5.545 -2.7506  0.1671 -0.7108
  214MOL0     H28870   4.981   4.638   5.750  0.6051  0.3537  0.5860
  214MOL0     H28871   5.087   4.761   5.670  0.9872 -0.1496 -0.6463
  214MOL0     H28872   4.159   4.800   5.888 -0.0053 -0.3115  1.0829
  214MOL0     H28873   3.918   4.823   5.945 -0.4337  1.1827 -1.0328
  214MOL0     H28874   3.627   4.865   6.007  0.7972  2.0469  0.5778
  214MOL0     H28875   3.453   4.937   6.163 -2.4113  0.6564 -0.0788
  214MOL0     H28876   2.573   4.488   5.695  0.7280  2.3281 -1.1226
  214MOL0     H28877   2.561   4.320   5.523  1.2986 -0.3059  0.8225
  214MOL0     H28878   2.424   3.795   5.522 -1.9450 -3.0350  1.2873
  214MOL0     H28879   2.395   3.601   5.356 -0.1264  0.4292  0.3829
  214MOL0     H28880   2.230   3.689   4.937  0.5894  2.2735 -2.8122
  214MOL0     H28881   2.387   3.771   4.956 -2.7654  1.8435  2.1146
  214MOL0     H28882   2.390   3.597   4.765  1.1283  0.2128  0.6275
  214MOL0     H28883   2.354   3.474   4.889  1.3672 -0.4674  0.7100
  214MOL0     H28884   2.607   3.490   4.826 -0.3177  0.3157 -1.4419
  214MOL0     H28885   2.580   3.524   4.993  1.5205  0.1704 -0.5866
  214MOL0     H28886   2.590   3.773   4.952 -0.0045 -1.6895  1.0627
  214MOL0     H28887   2.616   3.738   4.782 -3.0558 -0.5309 -0.5248
  214MOL0     H28888   2.999   3.625   4.937  0.0103 -1.8363 -2.7813
  214MOL0     H28889   2.245   3.874   5.065  1.8506 -2.4481 -1.0746
  214MOL0     H28890   2.266   4.069   5.248 -3.3320 -0.4936 -1.1227
  215MOL0     O28891   5.649   9.826   7.171  0.1168 -0.3437 -0.4174
  215MOL0     C28892   5.728   9.912   7.148 -0.3867  1.0036  0.2292
  215MOL0     O28893   5.713  10.047   7.161 -0.2098 -0.4159  0.4595
  215MOL0     C28894   5.589  10.090   7.195 -0.0665 -0.5595  0.0043
  215MOL0     C28895   5.579  10.185   7.289  0.3272 -0.1041 -0.3388
  215MOL0     C28896   5.449  10.246   7.310 -0.2162  0.5957 -0.0659
  215MOL0     C28897   5.337  10.193   7.251  0.1385  0.1583 -0.6109
  215MOL0     O28898   5.217  10.255   7.278 -0.2901 -0.4052 -0.4793
  215MOL0     C28899   5.091  10.190   7.252  0.2285  0.3891  0.2739
  215MOL0     C28900   4.992  10.292   7.296  0.2355  0.2389  0.6099
  215MOL0     C28901   4.844  10.267   7.248 -0.5457  0.0537 -0.0081
  215MOL0     C28902   4.789  10.373   7.158  0.4376 -0.6143 -0.0805
  215MOL0     C28903   4.647  10.335   7.104  0.5474 -0.5974 -0.5519
  215MOL0     C28904   4.537  10.413   7.175 -0.9136 -0.1077 -0.1235
  215MOL0     C28905   4.409  10.398   7.094  0.5296  0.6307 -0.0813
  215MOL0     C28906   4.281  10.462   7.164 -0.4799 -0.7182 -0.4528
  215MOL0     N28907   4.166  10.424   7.085  0.0508  0.1963  0.6198
  215MOL0     C28908   4.058  10.372   7.141 -0.0663  0.5471  0.3659
  215MOL0     C28909   3.974  10.343   7.039 -0.7085 -0.1696 -0.4293
  215MOL0     C28910   3.852  10.262   7.046  0.7966  0.2387 -0.0744
  215MOL0     C28911   3.729  10.348   7.053  0.0667 -0.6460  0.0890
  215MOL0     C28912   3.607  10.259   7.028  0.2809  0.2203 -0.0305
  215MOL0     C28913   3.490  10.364   7.007 -0.3754 -0.8576  0.2858
  215MOL0     O28914   3.461  10.435   7.130 -0.8959  0.0678 -0.5179
  215MOL0     C28915   3.344  10.495   7.158 -0.3469  0.6502 -0.3065
  215MOL0     C28916   3.251  10.531   7.063  0.0032  0.5679  0.4676
  215MOL0     C28917   3.138  10.616   7.094 -0.2731  0.5592 -0.1660
  215MOL0     C28918   3.053  10.671   6.979 -0.5545  0.2684  0.1816
  215MOL0     C28919   3.112  10.642   7.230  0.0307 -0.0040  0.5872
  215MOL0     C28920   2.996  10.712   7.276 -0.3961 -0.5166  0.0095
  215MOL0     O28921   3.007  10.782   7.399  0.3497 -0.4705  0.6625
  215MOL0     C28922   2.899  10.779   7.483  0.3682  0.4399 -0.0217
  215MOL0     C28923   2.829  10.661   7.513 -0.3713  0.5144  0.1508
  215MOL0     C28924   2.740  10.650   7.614 -0.5128  0.0645 -0.6351
  215MOL0     C28925   2.696  10.757   7.693 -0.5073  0.1619 -0.1228
  215MOL0     O28926   2.623  10.732   7.807  0.5418  0.2164 -0.9550
  215MOL0     C28927   2.541  10.828   7.876 -0.5889 -0.4756 -0.2836
  215MOL0     C28928   2.472  10.768   7.995 -0.3456  0.0642  0.4108
  215MOL0     C28929   2.376  10.655   7.959  0.5300 -0.1336 -0.1635
  215MOL0     C28930   2.295  10.613   8.077 -0.0414 -0.7080  0.5464
  215MOL0     C28931   2.217  10.478   8.071 -0.0068 -0.2102  0.8077
  215MOL0     C28932   2.139  10.451   7.936  0.7435 -0.1130 -0.2648
  215MOL0     C28933   1.989  10.499   7.943  0.8151 -0.6000  0.1346
  215MOL0     C28934   1.927  10.493   7.808  0.2145 -0.3263 -0.0239
  215MOL0    Cl28935   1.761  10.529   7.853  0.1910 -0.4330  0.1835
  215MOL0     C28936   2.769  10.876   7.665  0.0730 -0.2968 -0.1358
  215MOL0     C28937   2.871  10.886   7.565 -0.0486  0.2807  0.4395
  215MOL0     O28938   2.901  10.702   7.201  0.0941 -0.7271 -0.2344
  215MOL0     C28939   3.207  10.603   7.328  0.6856 -0.1819  0.0151
  215MOL0     C28940   3.320  10.528   7.295 -1.1891  0.4408  0.6812
  215MOL0     N28941   4.031  10.392   6.924  0.0185 -0.1600  0.3740
  215MOL0     N28942   4.149  10.447   6.952 -0.3143 -0.1276  0.1453
  215MOL0     C28943   5.347  10.100   7.150  0.4407 -0.5484 -0.2418
  215MOL0     C28944   5.469  10.052   7.128 -0.0163  0.2791 -0.2261
  215MOL0     C28945   5.853   9.870   7.082 -0.1469  0.5009  0.3341
  215MOL0     C28946   5.883   9.732   7.058  0.1233 -0.0843  0.1696
  215MOL0     C28947   6.014   9.695   7.008  0.3139  0.4696 -0.5172
  215MOL0     C28948   6.113   9.784   6.973  0.2936 -0.0643 -0.1075
  215MOL0     O28949   6.239   9.743   6.933 -0.1481  0.4822 -0.2602
  215MOL0     C28950   6.308   9.644   7.019  0.2086  0.1032 -1.2265
  215MOL0     C28951   6.331   9.700   7.164 -0.4418  0.6052 -0.2062
  215MOL0     C28952   6.400   9.601   7.251  0.1753 -0.4991 -0.4440
  215MOL0     C28953   6.430   9.668   7.385 -0.7388  0.0165 -0.3731
  215MOL0     C28954   6.520   9.580   7.466 -0.8504 -0.2219  0.0695
  215MOL0     C28955   6.607   9.505   7.512  0.0647  0.3200 -1.0035
  215MOL0     C28956   6.080   9.920   6.986  0.1948 -0.1363 -0.2233
  215MOL0     C28957   5.959   9.958   7.045  0.5756  0.3173 -0.2400
  215MOL0     H28958   5.671  10.216   7.337  2.5246 -2.0480 -2.9699
  215MOL0     H28959   5.440  10.332   7.375 -1.0625  2.3328 -2.3544
  215MOL0     H28960   5.079  10.146   7.153  2.0762  0.7190 -0.1434
  215MOL0     H28961   5.089  10.101   7.315  0.5436 -0.2273 -0.5798
  215MOL0     H28962   4.998  10.312   7.403 -0.0053  0.7805  0.5251
  215MOL0     H28963   5.030  10.378   7.239 -0.3904  0.8136  1.0426
  215MOL0     H28964   4.849  10.170   7.197  0.5723 -0.4436  1.0007
  215MOL0     H28965   4.784  10.251   7.339 -0.1142  2.5686  0.8036
  215MOL0     H28966   4.794  10.474   7.199 -1.3458 -0.1663 -0.8706
  215MOL0     H28967   4.855  10.375   7.071 -1.8155  1.5767 -1.8742
  215MOL0     H28968   4.649  10.347   6.995  4.0935  1.8192 -0.3716
  215MOL0     H28969   4.627  10.231   7.132  3.2743 -0.8469  0.7925
  215MOL0     H28970   4.524  10.365   7.273 -3.9144 -2.6113 -1.5581
  215MOL0     H28971   4.563  10.519   7.182 -1.6006  0.2717 -2.5271
  215MOL0     H28972   4.427  10.451   7.000 -0.2534  0.9808 -0.0390
  215MOL0     H28973   4.388  10.293   7.072  2.3261  0.1509  0.2755
  215MOL0     H28974   4.300  10.570   7.156  0.5910 -0.8450  0.0893
  215MOL0     H28975   4.281  10.425   7.266  1.7206 -0.8531 -0.4400
  215MOL0     H28976   4.043  10.343   7.245 -0.2515  0.6837  0.3760
  215MOL0     H28977   3.847  10.207   6.951 -1.6215 -1.0893  0.7305
  215MOL0     H28978   3.854  10.184   7.123 -0.5938 -0.8249 -1.0667
  215MOL0     H28979   3.740  10.426   6.977 -1.8326 -1.4499 -1.0819
  215MOL0     H28980   3.734  10.391   7.154 -1.9870  3.6982 -1.4308
  215MOL0     H28981   3.589  10.196   7.115 -1.0813  1.0408  0.3019
  215MOL0     H28982   3.612  10.203   6.934  1.7594  3.2179 -1.9122
  215MOL0     H28983   3.408  10.313   6.957 -3.4221  4.7726 -1.3638
  215MOL0     H28984   3.525  10.430   6.927 -0.4031 -0.6421  0.4492
  215MOL0     H28985   3.272  10.523   6.956  1.0901 -2.8459  0.8281
  215MOL0     H28986   3.035  10.774   7.010  1.1094  0.8807 -0.7539
  215MOL0     H28987   3.114  10.658   6.888  0.3800  0.5036  0.7605
  215MOL0     H28988   2.961  10.613   6.973 -1.0638  1.0746  0.1145
  215MOL0     H28989   2.845  10.564   7.469  1.6343  0.6550  0.4831
  215MOL0     H28990   2.694  10.557   7.649  0.1716  0.9350  2.9619
  215MOL0     H28991   2.603  10.909   7.914 -0.0131 -0.0109 -2.1313
  215MOL0     H28992   2.467  10.864   7.804  0.9510  2.2902 -0.6135
  215MOL0     H28993   2.544  10.732   8.069  0.1556  0.2733  0.0339
  215MOL0     H28994   2.413  10.846   8.043 -2.0983  1.6389 -3.8369
  215MOL0     H28995   2.427  10.566   7.921  0.4780  0.8229 -2.6813
  215MOL0     H28996   2.316  10.698   7.879  0.9519 -0.4274 -0.6456
  215MOL0     H28997   2.354  10.604   8.169  0.7075  1.2017  0.2889
  215MOL0     H28998   2.220  10.691   8.093  0.5450  0.0863 -0.4638
  215MOL0     H28999   2.159  10.462   8.162 -1.2978 -2.7425 -0.3385
  215MOL0     H29000   2.294  10.400   8.077 -1.3110 -1.5231  0.8805
  215MOL0     H29001   2.185  10.495   7.847  1.5842 -1.7143 -0.6616
  215MOL0     H29002   2.149  10.342   7.932 -0.4044 -0.3518  1.7922
  215MOL0     H29003   1.994  10.603   7.979  0.4467 -0.4854 -0.1418
  215MOL0     H29004   1.924  10.444   8.011 -2.1754  0.2668 -1.8364
  215MOL0     H29005   1.943  10.391   7.772  1.0490  0.4961 -2.1531
  215MOL0     H29006   1.966  10.571   7.742 -0.4503 -1.8282 -2.3360
  215MOL0     H29007   2.732  10.967   7.712 -0.9066  0.1857 -1.7664
  215MOL0     H29008   2.926  10.979   7.552  2.7528 -1.1075  1.5985
  215MOL0     H29009   3.195  10.612   7.435 -3.1186 -2.5722 -0.0181
  215MOL0     H29010   3.394  10.491   7.365 -0.2583 -0.7483 -0.8807
  215MOL0     H29011   5.266  10.069   7.085 -0.1786 -0.9363  0.6911
  215MOL0     H29012   5.479   9.975   7.053 -0.6607 -0.1783  0.1548
  215MOL0     H29013   5.809   9.659   7.089 -2.1376  2.8547  2.3572
  215MOL0     H29014   6.039   9.589   7.006  3.7633  1.1876 -1.2340
  215MOL0     H29015   6.245   9.555   7.027  0.9335 -0.3035  0.5163
  215MOL0     H29016   6.399   9.603   6.974  1.7340 -0.4384  2.0722
  215MOL0     H29017   6.231   9.723   7.199 -1.2822 -0.0145 -2.0445
  215MOL0     H29018   6.394   9.788   7.145  1.1251 -0.7256 -1.5924
  215MOL0     H29019   6.494   9.557   7.216  0.7268 -0.5209  1.0270
  215MOL0     H29020   6.324   9.523   7.265 -1.3552  1.2042  1.1671
  215MOL0     H29021   6.341   9.675   7.447  0.6205 -2.1287  2.0151
  215MOL0     H29022   6.462   9.769   7.358 -0.5612 -0.7385 -3.3435
  215MOL0     H29023   6.682   9.440   7.552 -1.9435 -2.8362 -1.9908
  215MOL0     H29024   6.150  10.001   6.967 -0.4280  1.0563  2.0796
  215MOL0     H29025   5.949  10.064   7.066  1.8346  0.7541 -1.6731
  216MOL0     O29026   1.250   5.966   3.993 -0.1804  0.7119 -0.0170
  216MOL0     C29027   1.270   5.941   3.874 -0.0698 -0.9811 -0.5522
  216MOL0     O29028   1.183   5.890   3.789 -0.3549 -0.0100  0.2669
  216MOL0     C29029   1.061   5.855   3.838 -0.1971  0.4547  0.3690
  216MOL0     C29030   0.950   5.941   3.830 -0.7320  0.5854 -0.1712
  216MOL0     C29031   0.827   5.903   3.883  0.5886 -0.6164 -0.5142
  216MOL0     C29032   0.807   5.779   3.936  0.2975 -0.2215 -0.7585
  216MOL0     O29033   0.675   5.736   3.971 -0.3887  0.4125  0.3438
  216MOL0     C29034   0.635   5.788   4.102 -0.3773  0.0348  0.4524
  216MOL0     C29035   0.497   5.725   4.143 -0.0584  0.2577  0.2319
  216MOL0     C29036   0.509   5.568   4.149  0.9332 -0.6951 -0.2524
  216MOL0     C29037   0.370   5.512   4.150 -0.2855  0.3378  0.1156
  216MOL0     C29038   0.286   5.566   4.269 -0.3151 -0.5997  0.4174
  216MOL0     C29039   0.171   5.467   4.283 -0.8688 -0.6898  0.5046
  216MOL0     C29040   0.074   5.509   4.400 -0.0694  0.3443  0.7411
  216MOL0     C29041  -0.011   5.394   4.452  0.0970  0.2866 -0.0604
  216MOL0     N29042  -0.102   5.337   4.352  0.2480  0.6684  0.1513
  216MOL0     C29043  -0.209   5.393   4.297  0.0199  0.1899  0.2799
  216MOL0     C29044  -0.254   5.300   4.203 -0.9031  0.4755 -0.7432
  216MOL0     C29045  -0.365   5.309   4.105  0.5099  0.2860 -0.4817
  216MOL0     C29046  -0.500   5.337   4.166  0.2855 -0.7757  0.6762
  216MOL0     C29047  -0.604   5.349   4.046  0.0838 -0.6378  1.3886
  216MOL0     C29048  -0.619   5.499   4.000  0.1194 -0.0830  0.1432
  216MOL0     O29049  -0.714   5.571   4.086 -1.1146 -0.4768 -0.0370
  216MOL0     C29050  -0.772   5.681   4.035  0.2792 -0.5007 -0.1980
  216MOL0     C29051  -0.731   5.751   3.909  0.1382 -0.3164  0.2752
  216MOL0     C29052  -0.790   5.870   3.870  0.8292  0.0640 -0.1180
  216MOL0     C29053  -0.741   5.923   3.736 -0.3659 -0.2640  0.7120
  216MOL0     C29054  -0.887   5.937   3.953  0.6220  0.3826  0.4833
  216MOL0     C29055  -0.971   6.052   3.904  0.6700 -1.1864 -0.2705
  216MOL0     O29056  -1.072   6.094   3.981 -0.2686  0.1512  0.3498
  216MOL0     C29057  -1.155   6.189   3.930 -0.6705 -0.2151  1.0127
  216MOL0     C29058  -1.284   6.141   3.909  0.4912  0.6671  0.7048
  216MOL0     C29059  -1.391   6.220   3.873 -0.8041 -0.1331 -0.0758
  216MOL0     C29060  -1.371   6.362   3.879 -0.0290  0.0711 -0.0418
  216MOL0     O29061  -1.462   6.461   3.858 -0.9388 -0.2571 -0.3459
  216MOL0     C29062  -1.596   6.419   3.859  0.1449  0.6752 -0.2762
  216MOL0     C29063  -1.692   6.542   3.846 -0.0109  0.1258 -0.4659
  216MOL0     C29064  -1.834   6.483   3.861 -0.0750  0.3792  0.3464
  216MOL0     C29065  -1.926   6.585   3.913 -0.0438 -0.1114  0.3518
  216MOL0     C29066  -2.065   6.517   3.929 -0.8575  0.7829  0.9771
  216MOL0     C29067  -2.165   6.620   3.983 -0.1059  0.4416  0.5991
  216MOL0     C29068  -2.316   6.581   3.958 -0.6116 -0.4750  0.2171
  216MOL0     C29069  -2.403   6.697   4.013 -0.2468 -0.8214  0.1753
  216MOL0    Cl29070  -2.575   6.670   3.967  0.2310 -0.0901 -0.0992
  216MOL0     C29071  -1.244   6.413   3.901  0.0223  0.4485 -0.5935
  216MOL0     C29072  -1.131   6.330   3.918 -0.3534 -0.4282 -0.4956
  216MOL0     O29073  -0.909   6.126   3.829  0.2229 -0.3035 -0.0802
  216MOL0     C29074  -0.921   5.880   4.079 -0.0011 -0.0464 -0.4284
  216MOL0     C29075  -0.861   5.753   4.118 -0.2114  0.3611 -0.2162
  216MOL0     N29076  -0.167   5.188   4.205  0.1300  0.2174  0.1372
  216MOL0     N29077  -0.073   5.216   4.289  0.1414  0.4563  0.2979
  216MOL0     C29078   0.918   5.695   3.941  1.0770 -1.1001 -0.5936
  216MOL0     C29079   1.038   5.732   3.895 -1.3923  0.1244  0.9904
  216MOL0     C29080   1.413   5.949   3.841  1.2304  0.5926 -0.2049
  216MOL0     C29081   1.510   6.003   3.925 -0.6765  1.1790  0.0041
  216MOL0     C29082   1.646   5.993   3.907 -0.2704 -0.1163 -0.0197
  216MOL0     C29083   1.690   5.923   3.794 -1.0629 -0.1883 -0.4173
  216MOL0     O29084   1.827   5.899   3.775 -0.0680  0.2819 -0.5162
  216MOL0     C29085   1.930   5.946   3.860 -0.4494  0.1806 -0.4705
  216MOL0     C29086   2.069   5.927   3.799 -0.3447  0.0548 -0.1264
  216MOL0     C29087   2.179   5.972   3.892 -0.0130 -0.3074 -0.0543
  216MOL0     C29088   2.317   5.946   3.843  0.7134 -0.7064 -0.5062
  216MOL0     C29089   2.421   6.016   3.925  0.8787 -0.7195 -0.0391
  216MOL0     C29090   2.505   6.078   3.983 -0.4943 -1.4355  0.3982
  216MOL0     C29091   1.600   5.866   3.706  0.7142  0.2966  0.2752
  216MOL0     C29092   1.458   5.874   3.730 -0.1146 -0.7367  0.0477
  216MOL0     H29093   0.961   6.037   3.780 -0.5883 -0.3331 -1.9988
  216MOL0     H29094   0.744   5.970   3.859  1.2347 -0.4657 -2.5307
  216MOL0     H29095   0.707   5.760   4.179 -1.8991 -2.3247  1.1393
  216MOL0     H29096   0.640   5.897   4.091  0.6275  0.0673  1.1272
  216MOL0     H29097   0.477   5.766   4.242  0.7346  1.5338 -0.1028
  216MOL0     H29098   0.425   5.761   4.069 -0.0239 -1.5080 -0.7121
  216MOL0     H29099   0.562   5.525   4.064 -0.6219 -2.2943 -0.4764
  216MOL0     H29100   0.572   5.548   4.236  0.6582 -0.1332  0.0854
  216MOL0     H29101   0.332   5.529   4.049  4.1268 -2.3401 -2.3663
  216MOL0     H29102   0.380   5.403   4.162  1.5472  0.4479 -0.1967
  216MOL0     H29103   0.349   5.565   4.359  1.5306  0.0574 -0.8120
  216MOL0     H29104   0.246   5.667   4.255  1.3589 -0.0394 -0.6548
  216MOL0     H29105   0.111   5.467   4.192 -0.6570  2.3695  0.2750
  216MOL0     H29106   0.212   5.367   4.301 -0.5859 -0.8015 -0.6954
  216MOL0     H29107   0.135   5.554   4.480  0.3381 -0.8903  1.1423
  216MOL0     H29108   0.006   5.587   4.364 -0.6270 -0.5359 -0.1478
  216MOL0     H29109  -0.067   5.423   4.541 -1.3884  0.7141 -1.1039
  216MOL0     H29110   0.062   5.319   4.485 -0.0185  0.5016  0.7045
  216MOL0     H29111  -0.247   5.492   4.320 -2.1134 -1.1018  2.7906
  216MOL0     H29112  -0.347   5.389   4.032 -0.9422 -0.2332 -1.4660
  216MOL0     H29113  -0.384   5.213   4.055  0.3509  0.8286 -1.4848
  216MOL0     H29114  -0.493   5.434   4.216  0.3752 -0.2166 -0.3840
  216MOL0     H29115  -0.524   5.253   4.231  1.9424  0.1119  2.5084
  216MOL0     H29116  -0.701   5.321   4.089 -1.0103  0.9627  0.0693
  216MOL0     H29117  -0.585   5.278   3.965  0.3332  1.8655 -0.8758
  216MOL0     H29118  -0.660   5.489   3.899 -1.0660 -1.0404  0.6836
  216MOL0     H29119  -0.524   5.553   3.999 -0.8660  1.9363  2.6709
  216MOL0     H29120  -0.658   5.708   3.841  1.7076  1.5218  0.6967
  216MOL0     H29121  -0.713   6.029   3.741 -0.0503 -0.4070  2.9949
  216MOL0     H29122  -0.664   5.864   3.685 -1.1268  0.5802 -1.5532
  216MOL0     H29123  -0.828   5.925   3.670  1.5744  0.8745 -2.0472
  216MOL0     H29124  -1.307   6.035   3.914 -0.9099  0.9385  0.3827
  216MOL0     H29125  -1.493   6.185   3.860 -0.6545  0.2727 -2.9028
  216MOL0     H29126  -1.620   6.350   3.778  0.8364  2.5642 -2.1833
  216MOL0     H29127  -1.632   6.372   3.951  1.8293 -3.6821 -1.5852
  216MOL0     H29128  -1.670   6.607   3.931 -1.8798 -0.4722  0.5348
  216MOL0     H29129  -1.664   6.598   3.757  2.3141  1.4173  0.9703
  216MOL0     H29130  -1.848   6.392   3.921 -0.7006 -0.2176 -0.6655
  216MOL0     H29131  -1.878   6.454   3.765 -1.6717  0.8240  0.9153
  216MOL0     H29132  -1.898   6.617   4.014 -1.2390  0.2990  0.5661
  216MOL0     H29133  -1.918   6.679   3.859  2.0286  0.6603  1.8760
  216MOL0     H29134  -2.061   6.431   3.996 -0.3693  0.7499  0.9042
  216MOL0     H29135  -2.091   6.484   3.828  0.9222  0.0245  0.7446
  216MOL0     H29136  -2.155   6.632   4.091  1.1018 -2.0629  0.8417
  216MOL0     H29137  -2.143   6.712   3.928  2.0621 -2.0495 -3.1015
  216MOL0     H29138  -2.346   6.487   4.007 -0.3067 -0.8172 -0.2444
  216MOL0     H29139  -2.336   6.571   3.851 -1.5921  2.2006  0.0815
  216MOL0     H29140  -2.374   6.799   3.986 -1.0836 -0.3188  1.0908
  216MOL0     H29141  -2.390   6.699   4.122 -1.5716 -0.5782  0.3567
  216MOL0     H29142  -1.231   6.521   3.893  0.1201  0.5421  0.5661
  216MOL0     H29143  -1.031   6.371   3.930 -0.3998 -0.1018 -1.1973
  216MOL0     H29144  -0.998   5.923   4.143 -0.9559  0.9744 -2.2032
  216MOL0     H29145  -0.876   5.718   4.220  0.6553  0.1763 -0.1385
  216MOL0     H29146   0.898   5.595   3.979 -1.8400  0.2364  1.8622
  216MOL0     H29147   1.113   5.654   3.897 -2.4098 -1.2446 -3.2959
  216MOL0     H29148   1.468   6.044   4.016  0.5683 -0.3928  1.3564
  216MOL0     H29149   1.712   6.027   3.987  1.0073 -0.3163 -0.9598
  216MOL0     H29150   1.917   6.055   3.868 -0.0028  0.1858  0.3652
  216MOL0     H29151   1.914   5.898   3.957 -0.3825 -1.0539 -1.0561
  216MOL0     H29152   2.085   5.970   3.700  1.7283  0.1380  0.1972
  216MOL0     H29153   2.086   5.819   3.788 -3.5982 -0.3665 -2.4381
  216MOL0     H29154   2.170   5.917   3.987 -0.4698 -0.8262 -0.3881
  216MOL0     H29155   2.172   6.079   3.913 -1.4893 -0.5665  0.9888
  216MOL0     H29156   2.322   5.981   3.740 -0.1968 -2.9230 -1.3690
  216MOL0     H29157   2.341   5.839   3.851  2.3036 -0.2571  1.6366
  216MOL0     H29158   2.582   6.139   4.026  0.3124  1.2583 -4.1913
  216MOL0     H29159   1.630   5.802   3.624 -0.7836 -1.5769  1.1074
  216MOL0     H29160   1.388   5.833   3.658  2.2191 -3.0632 -1.0503
  217MOL0     O29161   2.621   3.524   5.528  0.1112 -0.3728 -0.5291
  217MOL0     C29162   2.738   3.479   5.515  0.5781 -0.3564  0.1709
  217MOL0     O29163   2.785   3.355   5.566  0.8176 -0.2164  0.7712
  217MOL0     C29164   2.698   3.267   5.634  0.0512 -0.5920  0.1415
  217MOL0     C29165   2.692   3.133   5.596 -0.4719  0.7947  0.6384
  217MOL0     C29166   2.592   3.050   5.646  0.2747 -0.1245  0.8887
  217MOL0     C29167   2.490   3.098   5.726 -1.2167  0.4867  0.2419
  217MOL0     O29168   2.407   3.005   5.782 -0.6477 -0.3882  0.4549
  217MOL0     C29169   2.274   3.034   5.751 -0.6841  0.2080  0.1753
  217MOL0     C29170   2.190   2.905   5.773  0.0159 -0.5335  0.3681
  217MOL0     C29171   2.040   2.918   5.770 -0.2061 -0.4347 -0.6199
  217MOL0     C29172   1.945   2.798   5.807 -0.3570  0.0005 -0.2549
  217MOL0     C29173   1.931   2.784   5.964  0.2558  0.0739 -0.3795
  217MOL0     C29174   1.876   2.648   5.995  0.0667  0.0856  0.3719
  217MOL0     C29175   1.850   2.631   6.147 -0.3763 -0.6527 -0.4935
  217MOL0     C29176   1.799   2.495   6.178  0.1849 -0.3486  0.2425
  217MOL0     N29177   1.671   2.457   6.110  0.3873  0.8131  0.1282
  217MOL0     C29178   1.552   2.524   6.120 -0.4519 -0.7908 -0.4143
  217MOL0     C29179   1.464   2.444   6.058  0.6340  0.4927  0.4285
  217MOL0     C29180   1.316   2.489   6.040 -0.4933 -0.0654 -0.8667
  217MOL0     C29181   1.246   2.400   5.926 -0.0951 -0.2631  0.5387
  217MOL0     C29182   1.100   2.448   5.908 -0.1998 -0.0291 -0.0151
  217MOL0     C29183   1.013   2.346   5.979 -0.3501 -0.3025  0.1180
  217MOL0     O29184   1.012   2.216   5.925 -0.1410  0.2219  0.4569
  217MOL0     C29185   0.903   2.140   5.957 -0.2451 -0.0410 -0.1571
  217MOL0     C29186   0.837   2.052   5.870  0.1381  0.1984 -0.1951
  217MOL0     C29187   0.720   1.980   5.897 -0.0953  0.0573  0.6703
  217MOL0     C29188   0.675   1.883   5.797  0.2548  0.3846 -0.3230
  217MOL0     C29189   0.649   2.007   6.019  0.4613 -0.1189  0.5583
  217MOL0     C29190   0.513   1.961   6.053 -0.3858  0.0254 -0.5080
  217MOL0     O29191   0.447   1.882   5.960 -0.1031  0.7440  0.9806
  217MOL0     C29192   0.328   1.833   5.993 -0.6092  0.6507  0.6265
  217MOL0     C29193   0.313   1.694   6.026 -0.0461  0.4410 -0.7769
  217MOL0     C29194   0.188   1.648   6.070  0.5899  0.1239  0.0428
  217MOL0     C29195   0.071   1.735   6.064 -0.4675  0.8425 -0.4658
  217MOL0     O29196  -0.044   1.673   6.100  0.1491 -0.7197 -0.3289
  217MOL0     C29197  -0.167   1.750   6.075  0.6033  0.1023  0.3237
  217MOL0     C29198  -0.286   1.652   6.097  0.7528 -0.3629 -0.4046
  217MOL0     C29199  -0.419   1.713   6.050  0.0058  0.3948  0.5124
  217MOL0     C29200  -0.541   1.612   6.051  0.3175 -0.7924 -0.6977
  217MOL0     C29201  -0.666   1.668   5.994  0.5132  0.0821  0.0072
  217MOL0     C29202  -0.788   1.571   6.017  0.4152 -0.2729 -0.4956
  217MOL0     C29203  -0.906   1.650   5.952 -0.6967 -0.0802  0.1094
  217MOL0     C29204  -1.036   1.605   6.012  0.2739 -0.2779 -0.0356
  217MOL0    Cl29205  -1.043   1.682   6.180 -0.3627 -0.1995  0.0243
  217MOL0     C29206   0.094   1.869   6.028  0.0167  0.2217 -0.4465
  217MOL0     C29207   0.219   1.918   5.979 -0.4243 -0.2627  0.2317
  217MOL0     O29208   0.469   1.982   6.169  0.1400  0.1569  0.3140
  217MOL0     C29209   0.722   2.082   6.114 -0.5211 -1.0373 -0.1383
  217MOL0     C29210   0.842   2.156   6.083  0.0247  0.0571  0.2728
  217MOL0     N29211   1.518   2.333   6.003 -0.1778  0.4235  0.5249
  217MOL0     N29212   1.648   2.346   6.020  0.4279 -0.3231  0.2069
  217MOL0     C29213   2.492   3.234   5.762 -1.2726  0.2906  0.0531
  217MOL0     C29214   2.597   3.319   5.714 -0.3686  0.6282  0.6047
  217MOL0     C29215   2.847   3.550   5.443 -0.3774  0.3134  0.7196
  217MOL0     C29216   2.977   3.489   5.436  0.1834  0.1195 -0.1586
  217MOL0     C29217   3.081   3.545   5.361 -0.6920 -0.6547 -0.6307
  217MOL0     C29218   3.066   3.670   5.297 -0.3827  0.5701  0.1695
  217MOL0     O29219   3.181   3.713   5.238 -0.2208 -0.3240  0.2595
  217MOL0     C29220   3.175   3.822   5.154  0.8766  0.0767  0.2971
  217MOL0     C29221   3.310   3.858   5.106 -0.6490 -0.5378  0.0781
  217MOL0     C29222   3.346   3.754   4.998 -0.0836 -0.3963 -0.4811
  217MOL0     C29223   3.467   3.801   4.916  0.5646 -0.5045  0.1046
  217MOL0     C29224   3.581   3.850   4.983 -0.0599  0.2114  0.0530
  217MOL0     C29225   3.663   3.916   5.039 -0.6169  0.5122 -1.0636
  217MOL0     C29226   2.938   3.731   5.304 -0.2892  0.0089  0.7907
  217MOL0     C29227   2.823   3.671   5.367 -0.7730 -0.7529 -0.2726
  217MOL0     H29228   2.763   3.088   5.528  1.0803  1.8539  1.4926
  217MOL0     H29229   2.597   2.945   5.619  2.0040 -0.5805  2.7848
  217MOL0     H29230   2.246   3.109   5.826  1.4663  1.1294  0.1087
  217MOL0     H29231   2.271   3.073   5.649  0.1295 -0.6337 -0.1885
  217MOL0     H29232   2.220   2.817   5.716  0.7847 -0.2184  0.2713
  217MOL0     H29233   2.208   2.877   5.877 -0.8047  0.9542  0.9358
  217MOL0     H29234   2.021   3.003   5.836  1.5153  1.9702 -3.0047
  217MOL0     H29235   2.021   2.951   5.667  0.6828  0.6747 -0.4462
  217MOL0     H29236   1.844   2.814   5.770  0.9038  2.7558 -2.9768
  217MOL0     H29237   1.979   2.712   5.749  0.1829  0.1593 -0.1804
  217MOL0     H29238   2.029   2.801   6.011  0.2865 -1.1796  0.0383
  217MOL0     H29239   1.861   2.850   6.015 -1.2658 -4.5765  4.4793
  217MOL0     H29240   1.775   2.633   5.956  0.3857  0.0005 -0.4500
  217MOL0     H29241   1.944   2.568   5.962  0.3224  0.4590 -0.0086
  217MOL0     H29242   1.941   2.653   6.203 -0.2323 -0.8324 -0.6543
  217MOL0     H29243   1.779   2.707   6.184 -0.2440 -1.4541  1.5352
  217MOL0     H29244   1.792   2.472   6.285 -1.9710  2.9491  0.9532
  217MOL0     H29245   1.881   2.428   6.151  3.0762  2.8965  0.3142
  217MOL0     H29246   1.529   2.609   6.183 -0.6005 -2.0022  1.2347
  217MOL0     H29247   1.262   2.479   6.134  0.8266 -0.6081 -0.1374
  217MOL0     H29248   1.320   2.596   6.018  0.9742  1.0024  3.5506
  217MOL0     H29249   1.247   2.292   5.940 -3.8325 -0.6382 -0.9059
  217MOL0     H29250   1.296   2.412   5.830 -0.1042 -2.2041  0.2574
  217MOL0     H29251   1.075   2.443   5.802 -3.9959  2.5718  0.5497
  217MOL0     H29252   1.074   2.548   5.945 -0.3598 -0.2610  0.5147
  217MOL0     H29253   0.910   2.381   5.975 -0.4711 -0.7476 -0.7548
  217MOL0     H29254   1.041   2.343   6.085  0.8965  3.8886  0.1131
  217MOL0     H29255   0.883   2.033   5.774  0.0719 -0.1651 -0.1560
  217MOL0     H29256   0.581   1.909   5.747 -0.7461 -2.2868  0.0090
  217MOL0     H29257   0.746   1.884   5.713  1.8401  0.0244  0.9541
  217MOL0     H29258   0.666   1.786   5.846 -1.2846  0.5603 -0.2133
  217MOL0     H29259   0.395   1.625   6.006  0.8072  1.3623 -0.5471
  217MOL0     H29260   0.178   1.543   6.098 -1.3360 -0.4143 -2.2813
  217MOL0     H29261  -0.179   1.821   6.158  0.4565 -0.7501  1.0560
  217MOL0     H29262  -0.177   1.797   5.977  1.0226 -3.4521 -1.5757
  217MOL0     H29263  -0.267   1.572   6.025 -1.8729 -1.9151  0.4928
  217MOL0     H29264  -0.274   1.613   6.198  3.4181 -3.0067 -1.5732
  217MOL0     H29265  -0.409   1.730   5.943  3.1305  0.7310  0.7800
  217MOL0     H29266  -0.442   1.811   6.094  3.2725  1.7713 -0.5763
  217MOL0     H29267  -0.515   1.518   6.001  0.4035 -0.1797 -1.8511
  217MOL0     H29268  -0.549   1.583   6.156  0.3636 -0.1907 -0.5212
  217MOL0     H29269  -0.647   1.686   5.888  0.0686  0.4312 -0.0205
  217MOL0     H29270  -0.691   1.767   6.034 -1.7983 -0.6661  0.6052
  217MOL0     H29271  -0.777   1.473   5.971 -1.4818 -0.5598 -0.4124
  217MOL0     H29272  -0.815   1.553   6.121  0.5722 -2.2345 -0.7630
  217MOL0     H29273  -0.910   1.624   5.846  2.1330  0.3766 -0.1910
  217MOL0     H29274  -0.902   1.759   5.948  1.1605 -0.0959  0.8594
  217MOL0     H29275  -1.041   1.495   6.016  0.1876 -0.3094 -0.8838
  217MOL0     H29276  -1.128   1.638   5.964  0.8639  1.6187  0.0904
  217MOL0     H29277   0.013   1.941   6.025 -0.2142  0.2602  2.7592
  217MOL0     H29278   0.226   2.016   5.933 -0.2377  1.0813  2.9233
  217MOL0     H29279   0.676   2.103   6.210  0.7802  1.7044 -0.0201
  217MOL0     H29280   0.894   2.213   6.159 -0.5205 -1.5059  1.8941
  217MOL0     H29281   2.413   3.272   5.827 -0.0435  1.7912  0.7389
  217MOL0     H29282   2.585   3.425   5.736 -1.7102  0.9705 -1.5250
  217MOL0     H29283   3.005   3.395   5.483  1.8041 -0.3789 -1.9872
  217MOL0     H29284   3.177   3.495   5.356 -0.9999 -1.3853  0.2939
  217MOL0     H29285   3.112   3.804   5.067  0.5755 -3.8953  1.1502
  217MOL0     H29286   3.137   3.908   5.211  2.8538  1.3784 -0.2547
  217MOL0     H29287   3.386   3.857   5.184  0.2263 -0.6650 -0.7512
  217MOL0     H29288   3.293   3.961   5.072  1.5569 -0.6577 -1.6878
  217MOL0     H29289   3.263   3.728   4.931 -1.5574  2.2879  0.1373
  217MOL0     H29290   3.377   3.667   5.056  0.8584  0.4894  0.3690
  217MOL0     H29291   3.439   3.882   4.848  1.3500 -2.4411 -2.6654
  217MOL0     H29292   3.496   3.719   4.851  1.0602 -1.2973  1.2932
  217MOL0     H29293   3.745   3.973   5.078  0.1315 -1.5780  0.6295
  217MOL0     H29294   2.919   3.815   5.238  0.2960 -0.1429  0.4206
  217MOL0     H29295   2.721   3.708   5.356  0.0810  1.1007 -2.8829
  218MOL0     O29296   6.296   6.233   9.674 -0.3883 -0.1889  0.1709
  218MOL0     C29297   6.350   6.152   9.596  0.5330 -0.0896  0.3409
  218MOL0     O29298   6.276   6.069   9.517 -0.1030 -0.0331  0.1105
  218MOL0     C29299   6.144   6.045   9.537  0.2230  0.5502  0.4986
  218MOL0     C29300   6.059   6.010   9.435 -0.1012 -0.2048  1.1244
  218MOL0     C29301   5.923   5.988   9.442 -0.2552 -0.0694  0.6526
  218MOL0     C29302   5.864   5.991   9.568 -0.8331 -0.0075 -0.7872
  218MOL0     O29303   5.725   5.976   9.582  0.2814 -0.5921  0.0038
  218MOL0     C29304   5.640   6.024   9.472  0.5093  0.1754  0.3268
  218MOL0     C29305   5.503   6.036   9.537 -0.8344 -0.3657  0.0787
  218MOL0     C29306   5.415   5.915   9.562 -0.5307  0.4693 -0.4429
  218MOL0     C29307   5.290   5.944   9.633  0.2195 -0.3780 -0.8506
  218MOL0     C29308   5.197   5.818   9.651  0.8776  0.7796 -0.4757
  218MOL0     C29309   5.071   5.803   9.559 -0.3098 -0.1421  1.1909
  218MOL0     C29310   5.062   5.660   9.496 -0.6009 -0.3834  0.4550
  218MOL0     C29311   4.947   5.645   9.397  0.8967 -0.6698 -0.0296
  218MOL0     N29312   4.818   5.647   9.467  0.4526 -0.3436  0.0092
  218MOL0     C29313   4.724   5.750   9.464  0.0076  0.2670  0.2570
  218MOL0     C29314   4.631   5.721   9.560  1.1750  0.1487  0.2320
  218MOL0     C29315   4.504   5.803   9.592 -0.1176  0.4128  0.6040
  218MOL0     C29316   4.513   5.886   9.717  0.2244 -0.0348  0.3433
  218MOL0     C29317   4.376   5.937   9.754 -0.2692  0.2347  0.0815
  218MOL0     C29318   4.368   5.985   9.900  0.1308 -0.2328 -0.9644
  218MOL0     O29319   4.242   6.044   9.928 -0.0709  0.2353  0.3090
  218MOL0     C29320   4.128   5.973   9.906 -0.6210  0.2418  0.0705
  218MOL0     C29321   4.119   5.832   9.894 -1.1929 -0.0719 -0.4190
  218MOL0     C29322   3.999   5.760   9.875 -0.7487 -0.5192 -0.6125
  218MOL0     C29323   4.016   5.618   9.833 -0.6489 -0.1452 -0.4733
  218MOL0     C29324   3.877   5.826   9.891 -0.4149 -0.4415  0.3786
  218MOL0     C29325   3.745   5.750   9.887 -0.6374 -0.1092  0.3886
  218MOL0     O29326   3.648   5.817   9.839  0.4175  0.7273 -0.2813
  218MOL0     C29327   3.525   5.763   9.833 -0.6174 -0.4036  0.1482
  218MOL0     C29328   3.501   5.642   9.766  0.0865  0.0873  0.7253
  218MOL0     C29329   3.369   5.602   9.729 -0.2467  0.4324 -0.5170
  218MOL0     C29330   3.259   5.661   9.789  0.2803 -0.5319  0.1251
  218MOL0     O29331   3.137   5.615   9.772  0.5610  0.0262 -0.0730
  218MOL0     C29332   3.052   5.620   9.887 -0.5837  0.2699  0.1547
  218MOL0     C29333   2.964   5.496   9.891  0.5020  0.9361  0.1259
  218MOL0     C29334   2.844   5.515   9.802 -0.2256 -1.1358 -0.0975
  218MOL0     C29335   2.746   5.395   9.807 -0.0755 -0.4555 -0.6981
  218MOL0     C29336   2.665   5.405   9.940 -0.6985  0.0602  0.3077
  218MOL0     C29337   2.567   5.291   9.942 -0.3089  0.0969  0.4382
  218MOL0     C29338   2.513   5.259  10.088  0.0385  0.3673  0.1050
  218MOL0     C29339   2.430   5.368  10.139  0.1515  0.0237 -0.4726
  218MOL0    Cl29340   2.332   5.307  10.281 -0.0122 -0.4036  0.3172
  218MOL0     C29341   3.288   5.779   9.867  0.3530 -0.5326 -0.2538
  218MOL0     C29342   3.416   5.832   9.887  0.2904 -0.2720 -0.4667
  218MOL0     O29343   3.742   5.633   9.927  0.1080  0.4799 -0.5079
  218MOL0     C29344   3.877   5.970   9.906  0.1209 -0.1187 -0.1411
  218MOL0     C29345   4.000   6.045   9.903  0.4137 -0.2126  0.0774
  218MOL0     N29346   4.661   5.602   9.620 -0.0637  0.2592 -0.6614
  218MOL0     N29347   4.772   5.561   9.562  0.1514  1.2001 -0.2488
  218MOL0     C29348   5.952   6.000   9.679 -0.0934  0.3885  0.1074
  218MOL0     C29349   6.086   6.029   9.664 -0.5225 -0.1696  0.2191
  218MOL0     C29350   6.491   6.164   9.570 -0.9257  0.4142  0.9547
  218MOL0     C29351   6.522   6.229   9.443  0.0651 -0.5596 -0.9401
  218MOL0     C29352   6.651   6.233   9.403 -0.3943 -0.7204  0.0211
  218MOL0     C29353   6.755   6.177   9.473  0.3006  0.3376 -0.0151
  218MOL0     O29354   6.884   6.170   9.421  0.8230  0.0027  0.1210
  218MOL0     C29355   6.971   6.065   9.443 -0.2820  0.0351  0.0840
  218MOL0     C29356   7.079   6.069   9.336  0.0917 -0.0793  0.4584
  218MOL0     C29357   7.173   6.188   9.342 -0.2684  0.4354 -0.2147
  218MOL0     C29358   7.232   6.219   9.473  0.2075  0.6025 -0.6586
  218MOL0     C29359   7.313   6.109   9.517 -0.3771 -0.6899 -0.0128
  218MOL0     C29360   7.377   6.017   9.557 -0.4928 -0.2104  0.0328
  218MOL0     C29361   6.723   6.101   9.595  0.5508 -0.3497 -0.7680
  218MOL0     C29362   6.594   6.102   9.650  0.1566 -0.6566  0.5512
  218MOL0     H29363   6.108   6.010   9.338  2.9930 -0.2970  2.5811
  218MOL0     H29364   5.872   5.967   9.349 -0.8721  2.1793  0.4377
  218MOL0     H29365   5.664   6.120   9.425 -0.8401  0.6156  0.4862
  218MOL0     H29366   5.638   5.949   9.392 -0.0583 -0.8143  1.2402
  218MOL0     H29367   5.527   6.079   9.635  0.9222 -0.0112 -0.4724
  218MOL0     H29368   5.446   6.119   9.493  0.4137  1.1347  1.1756
  218MOL0     H29369   5.380   5.874   9.467 -2.5717  1.5467 -0.2153
  218MOL0     H29370   5.470   5.838   9.617 -1.8976 -0.3701 -0.2112
  218MOL0     H29371   5.315   5.974   9.736  0.1245 -1.7153 -0.4269
  218MOL0     H29372   5.244   6.034   9.589 -3.2145 -1.6559 -0.2380
  218MOL0     H29373   5.258   5.727   9.654  0.1061  0.1698  4.3678
  218MOL0     H29374   5.151   5.824   9.750  1.1168 -3.6846  0.1143
  218MOL0     H29375   4.988   5.822   9.627 -1.9098 -3.7853  0.4601
  218MOL0     H29376   5.077   5.872   9.474 -0.9941 -1.1829  0.2711
  218MOL0     H29377   5.154   5.649   9.437  0.0594 -0.6619  1.5101
  218MOL0     H29378   5.053   5.577   9.566  0.2754 -1.2385 -0.4149
  218MOL0     H29379   4.970   5.550   9.349  1.6733 -0.4253 -0.1652
  218MOL0     H29380   4.954   5.719   9.317 -0.1322 -0.4533  0.0680
  218MOL0     H29381   4.725   5.836   9.398 -4.4194 -0.8920 -1.7111
  218MOL0     H29382   4.499   5.871   9.507  3.5193  2.2339  1.6204
  218MOL0     H29383   4.420   5.734   9.580 -1.7395  2.7227 -3.1065
  218MOL0     H29384   4.580   5.970   9.697 -0.5050  0.7158  0.9486
  218MOL0     H29385   4.560   5.828   9.797  0.6637  0.1249  0.2034
  218MOL0     H29386   4.303   5.860   9.727 -0.4298 -0.2415  1.7465
  218MOL0     H29387   4.364   6.025   9.690 -2.2471 -0.3513 -0.4355
  218MOL0     H29388   4.445   6.055   9.932 -1.4655  1.5654 -0.8882
  218MOL0     H29389   4.384   5.898   9.964 -1.0272  0.3179  0.1221
  218MOL0     H29390   4.210   5.776   9.915 -2.0516 -1.4847 -0.3724
  218MOL0     H29391   3.963   5.596   9.740  0.3434 -2.3853 -0.5796
  218MOL0     H29392   4.120   5.602   9.802  0.7870  0.6168  3.3839
  218MOL0     H29393   3.995   5.546   9.913  0.5485  0.4677  0.4183
  218MOL0     H29394   3.569   5.569   9.722 -2.3719 -2.1541  0.3888
  218MOL0     H29395   3.356   5.503   9.685 -0.2737 -0.3368  1.1638
  218MOL0     H29396   3.111   5.625   9.979 -0.2148  1.5786 -0.1336
  218MOL0     H29397   2.985   5.706   9.879  0.8007  1.1592 -3.2244
  218MOL0     H29398   3.021   5.406   9.868 -0.8673 -1.0128  3.5221
  218MOL0     H29399   2.926   5.473   9.991 -4.2592 -0.5260 -1.7422
  218MOL0     H29400   2.869   5.535   9.698 -3.5123  1.7457 -0.5024
  218MOL0     H29401   2.801   5.610   9.838  3.8156  1.1715 -0.6455
  218MOL0     H29402   2.684   5.396   9.716  0.7521  0.1065 -1.2665
  218MOL0     H29403   2.806   5.303   9.801  0.8784  0.0903  0.1858
  218MOL0     H29404   2.613   5.501   9.945 -2.4927 -0.6832 -2.0754
  218MOL0     H29405   2.740   5.412  10.020  1.5331 -0.6413 -1.6003
  218MOL0     H29406   2.476   5.319   9.888 -0.9500 -0.7416  1.0497
  218MOL0     H29407   2.616   5.199   9.910  1.4977  2.0002 -2.7467
  218MOL0     H29408   2.591   5.237  10.161  0.9471 -1.9180 -1.4552
  218MOL0     H29409   2.456   5.166  10.085  0.9349 -0.1838 -0.2346
  218MOL0     H29410   2.355   5.398  10.066 -1.9150 -0.8770  1.1639
  218MOL0     H29411   2.485   5.459  10.166  0.9386  0.0842 -2.1475
  218MOL0     H29412   3.197   5.834   9.891  1.0157 -0.1924  1.6576
  218MOL0     H29413   3.423   5.930   9.931  0.6648  0.5065 -2.1795
  218MOL0     H29414   3.781   6.016   9.928 -2.1930 -5.2181  2.0786
  218MOL0     H29415   4.002   6.153   9.889 -2.6297 -0.1342 -0.5223
  218MOL0     H29416   5.907   6.000   9.777 -2.1496  1.6605 -0.7807
  218MOL0     H29417   6.164   6.022   9.740 -0.1330  1.0950 -0.0399
  218MOL0     H29418   6.446   6.278   9.383 -0.9043  1.0427  1.4225
  218MOL0     H29419   6.681   6.295   9.319  1.3245  0.9865  1.7530
  218MOL0     H29420   7.019   6.065   9.542  0.3697  0.0891 -0.2253
  218MOL0     H29421   6.910   5.974   9.440  0.6487 -0.6237  0.7366
  218MOL0     H29422   7.031   6.073   9.238  1.5519 -0.1180 -0.2799
  218MOL0     H29423   7.140   5.978   9.337  0.3366  0.0742 -0.0138
  218MOL0     H29424   7.109   6.275   9.322 -1.4113 -0.0079  1.3663
  218MOL0     H29425   7.246   6.187   9.260  0.8275 -0.6818  0.7434
  218MOL0     H29426   7.151   6.239   9.545 -0.0428 -1.1744 -0.3985
  218MOL0     H29427   7.297   6.305   9.456  2.2239 -1.0596 -1.7230
  218MOL0     H29428   7.449   5.941   9.577 -1.1753 -1.1423 -0.9632
  218MOL0     H29429   6.806   6.046   9.639  0.5098  0.3601  0.2320
  218MOL0     H29430   6.576   6.060   9.749  0.4091 -0.8448  0.5156
  219MOL0     O29431   2.911  10.990   1.193 -0.2605 -0.1820  0.0524
  219MOL0     C29432   2.814  11.066   1.203  0.0157  0.0013  0.5476
  219MOL0     O29433   2.732  11.103   1.095 -0.0222  0.0573  0.3722
  219MOL0     C29434   2.765  11.071   0.965  0.4041  0.0927 -0.3814
  219MOL0     C29435   2.681  11.006   0.876 -0.0165 -0.0867 -0.1662
  219MOL0     C29436   2.735  10.969   0.751  0.3430  0.5254 -0.1892
  219MOL0     C29437   2.862  10.998   0.711 -0.4613  0.3320  0.0486
  219MOL0     O29438   2.907  10.951   0.584  0.4044 -0.2077  0.3289
  219MOL0     C29439   3.029  11.003   0.545 -0.0466 -0.3777 -0.1536
  219MOL0     C29440   3.058  10.967   0.401 -0.7256  0.1118 -1.0739
  219MOL0     C29441   2.968  11.031   0.296  0.0714 -0.5478 -0.3017
  219MOL0     C29442   3.017  11.010   0.147 -0.2973 -0.1216  0.4736
  219MOL0     C29443   2.942  11.080   0.029  0.7860 -0.5706 -0.1319
  219MOL0     C29444   2.797  11.022   0.017 -0.2955 -0.5042 -0.4433
  219MOL0     C29445   2.713  11.078  -0.107  0.7204 -0.6109 -0.3222
  219MOL0     C29446   2.660  11.221  -0.093 -0.5888 -0.8252 -0.2257
  219MOL0     N29447   2.517  11.224  -0.070  0.5102 -0.8587 -0.4434
  219MOL0     C29448   2.417  11.177  -0.156  0.0106  0.0948  0.1800
  219MOL0     C29449   2.304  11.193  -0.081  0.4333  0.4240  0.8255
  219MOL0     C29450   2.172  11.163  -0.146  0.5353 -1.1484  0.7892
  219MOL0     C29451   2.065  11.133  -0.043  0.5750 -0.1770  0.2055
  219MOL0     C29452   1.997  11.266  -0.003 -0.2513 -0.6318  0.5523
  219MOL0     C29453   1.889  11.261   0.111 -0.2398  0.0832 -0.5688
  219MOL0     O29454   1.797  11.153   0.089  0.4381  0.5332 -0.4884
  219MOL0     C29455   1.665  11.159   0.145  0.2187 -0.2094 -0.6021
  219MOL0     C29456   1.593  11.041   0.149  0.5013 -0.3597 -0.0799
  219MOL0     C29457   1.452  11.030   0.187  0.1775 -0.3147  0.0068
  219MOL0     C29458   1.387  10.887   0.211 -0.1072 -0.0757 -0.1755
  219MOL0     C29459   1.388  11.150   0.219  1.1515 -0.2076 -0.0942
  219MOL0     C29460   1.239  11.176   0.248  0.0044  0.2372  0.3213
  219MOL0     O29461   1.193  11.302   0.246  0.5300  0.2566 -0.6116
  219MOL0     C29462   1.055  11.332   0.269  0.3600  0.0996  0.0114
  219MOL0     C29463   0.998  11.440   0.205  0.2152  0.4010  0.7897
  219MOL0     C29464   0.867  11.474   0.214  0.0983 -0.3436  0.7888
  219MOL0     C29465   0.777  11.398   0.286 -0.4786 -0.0472  0.3825
  219MOL0     O29466   0.642  11.421   0.287 -0.3887  0.5695  0.3531
  219MOL0     C29467   0.594  11.496   0.172 -0.1730  1.0296 -0.4169
  219MOL0     C29468   0.440  11.487   0.168  0.0485 -0.1248  0.1718
  219MOL0     C29469   0.386  11.514   0.027  0.2849  0.8244  0.0841
  219MOL0     C29470   0.239  11.464   0.021 -0.5905 -0.6446  0.5526
  219MOL0     C29471   0.172  11.481  -0.114  0.1609  0.0845 -0.8216
  219MOL0     C29472   0.180  11.616  -0.178 -0.2879  0.6796  0.1861
  219MOL0     C29473   0.136  11.634  -0.319  0.4366 -0.1067 -0.1378
  219MOL0     C29474   0.071  11.775  -0.340 -0.4382 -0.3382  0.1134
  219MOL0    Cl29475   0.180  11.904  -0.299 -0.0097 -0.0106  0.4292
  219MOL0     C29476   0.825  11.289   0.350 -0.1672 -1.2420  0.0045
  219MOL0     C29477   0.960  11.259   0.346  0.2422  0.5236  0.4336
  219MOL0     O29478   1.171  11.072   0.266 -0.0848  0.0699 -0.1809
  219MOL0     C29479   1.464  11.269   0.226  0.4218  0.2248  0.0430
  219MOL0     C29480   1.596  11.276   0.176  0.3868 -0.4179 -0.6548
  219MOL0     N29481   2.331  11.247   0.046 -0.2623 -0.2504  0.3863
  219MOL0     N29482   2.456  11.268   0.048  0.1998  1.0067 -0.2896
  219MOL0     C29483   2.942  11.066   0.804 -0.3495 -0.6324  0.0310
  219MOL0     C29484   2.895  11.107   0.925 -0.0312  0.0597 -0.0852
  219MOL0     C29485   2.769  11.097   1.335  0.2319 -0.9171  0.2516
  219MOL0     C29486   2.855  11.095   1.444 -0.2082 -0.9032 -0.2076
  219MOL0     C29487   2.802  11.109   1.573 -0.5300 -0.2063 -0.3398
  219MOL0     C29488   2.668  11.136   1.598 -0.3626  0.5644  1.3123
  219MOL0     O29489   2.609  11.142   1.723  0.0308 -0.1411  0.1442
  219MOL0     C29490   2.701  11.143   1.840  0.0609  0.3860 -0.2134
  219MOL0     C29491   2.731  10.995   1.884 -0.3123 -0.4997  0.5812
  219MOL0     C29492   2.608  10.916   1.930  0.2453 -0.4659 -0.3347
  219MOL0     C29493   2.651  10.810   2.029  0.6945  0.8478  0.4338
  219MOL0     C29494   2.536  10.751   2.106 -0.0052  0.1369  0.7718
  219MOL0     C29495   2.440  10.707   2.160  0.1351  0.3416 -0.0593
  219MOL0     C29496   2.591  11.155   1.486 -0.0628  0.0330 -0.2127
  219MOL0     C29497   2.636  11.131   1.358  0.8319 -0.3796 -0.4039
  219MOL0     H29498   2.584  10.977   0.916 -1.1039  0.8602 -1.9827
  219MOL0     H29499   2.666  10.910   0.692  0.3008 -1.2840  1.5158
  219MOL0     H29500   3.038  11.111   0.558 -0.1887 -0.4472  0.5766
  219MOL0     H29501   3.115  10.972   0.605  0.7075  0.2769 -0.8607
  219MOL0     H29502   3.160  11.004   0.385 -0.2168 -0.7823 -0.0056
  219MOL0     H29503   3.065  10.859   0.385  3.2215 -0.0356  0.5344
  219MOL0     H29504   2.870  10.990   0.322  0.7548 -2.2736 -0.3515
  219MOL0     H29505   2.967  11.139   0.317 -0.8892 -0.9510  2.0357
  219MOL0     H29506   3.119  11.050   0.142 -0.2542 -0.2782  0.1402
  219MOL0     H29507   3.020  10.906   0.115  0.3904  0.8286 -2.9866
  219MOL0     H29508   2.927  11.181   0.069 -0.1260 -1.6606  2.5646
  219MOL0     H29509   3.007  11.081  -0.058 -1.4807  1.0668 -1.9217
  219MOL0     H29510   2.806  10.913   0.018  0.9914 -0.4092 -0.0068
  219MOL0     H29511   2.742  11.040   0.110 -1.4496 -0.2278 -1.1660
  219MOL0     H29512   2.764  11.063  -0.202  2.1939  0.1218  0.3147
  219MOL0     H29513   2.627  11.011  -0.101  0.1971 -0.0701 -1.5195
  219MOL0     H29514   2.698  11.285  -0.173  1.9387 -1.0610  0.7046
  219MOL0     H29515   2.710  11.280  -0.016 -0.8373  0.8704 -1.3119
  219MOL0     H29516   2.424  11.138  -0.257 -2.2654 -0.6507  0.2524
  219MOL0     H29517   2.139  11.245  -0.210 -0.7419 -4.0284 -2.6263
  219MOL0     H29518   2.199  11.087  -0.220  0.6070 -0.1233 -0.2597
  219MOL0     H29519   2.110  11.074   0.038  0.0037 -0.1402  0.5581
  219MOL0     H29520   1.992  11.067  -0.091 -1.2777  0.8841  1.4150
  219MOL0     H29521   1.959  11.296  -0.101  2.0896  1.3394  0.1463
  219MOL0     H29522   2.076  11.337   0.024 -1.8460  0.8262  1.5583
  219MOL0     H29523   1.844  11.360   0.112  1.0491  0.6923  0.0762
  219MOL0     H29524   1.931  11.239   0.210 -2.3084 -0.1854  0.2940
  219MOL0     H29525   1.657  10.957   0.123  0.0972 -1.7402  2.9187
  219MOL0     H29526   1.305  10.892   0.139 -1.6117 -1.6961  1.3046
  219MOL0     H29527   1.473  10.822   0.191  1.0910  0.9382  1.4062
  219MOL0     H29528   1.349  10.878   0.313  0.7174  1.5446  0.3173
  219MOL0     H29529   1.065  11.513   0.161 -1.0581  1.7447  0.9765
  219MOL0     H29530   0.834  11.566   0.167 -0.7986 -0.2930  1.4961
  219MOL0     H29531   0.614  11.602   0.189 -0.3192  0.6274  2.9008
  219MOL0     H29532   0.640  11.460   0.080 -1.8161 -2.3977 -0.0636
  219MOL0     H29533   0.418  11.385   0.202 -0.3938  0.0356  0.3801
  219MOL0     H29534   0.397  11.566   0.231 -0.6645  0.1234 -0.6135
  219MOL0     H29535   0.437  11.455  -0.049 -0.4833 -0.1353  0.2942
  219MOL0     H29536   0.396  11.621   0.004  0.9314  0.9135  0.7713
  219MOL0     H29537   0.238  11.359   0.052 -0.4393 -0.1864  2.1965
  219MOL0     H29538   0.181  11.513   0.099 -2.3900 -1.7124 -0.0531
  219MOL0     H29539   0.065  11.473  -0.093  0.4828  0.7699  1.2833
  219MOL0     H29540   0.203  11.406  -0.188  4.6843  2.0805 -1.3136
  219MOL0     H29541   0.118  11.680  -0.114 -0.0042 -1.1281  2.3989
  219MOL0     H29542   0.283  11.652  -0.179 -0.7738  2.1084 -1.0414
  219MOL0     H29543   0.063  11.558  -0.349 -1.1761  1.2890  0.0632
  219MOL0     H29544   0.227  11.614  -0.376 -0.1955 -2.4814 -0.4235
  219MOL0     H29545  -0.023  11.779  -0.283  0.6424 -1.4232  2.0782
  219MOL0     H29546   0.052  11.784  -0.447 -2.4747  2.4338  0.5960
  219MOL0     H29547   0.769  11.234   0.425  1.4918 -0.6977  1.7288
  219MOL0     H29548   0.990  11.191   0.426 -1.2023  0.0522  0.5960
  219MOL0     H29549   1.422  11.362   0.264  2.0300  0.5860  1.0097
  219MOL0     H29550   1.655  11.366   0.168  1.5219 -1.0397  0.3942
  219MOL0     H29551   3.042  11.094   0.770 -1.2286  1.1162 -1.2390
  219MOL0     H29552   2.954  11.160   0.999 -0.8305 -0.6075  1.0518
  219MOL0     H29553   2.958  11.061   1.432  0.1080 -0.0123 -0.1198
  219MOL0     H29554   2.877  11.075   1.644  0.5516  1.1922 -0.7578
  219MOL0     H29555   2.793  11.199   1.824  0.3386  0.5541  1.7363
  219MOL0     H29556   2.650  11.194   1.923  0.2830 -0.8671  0.7263
  219MOL0     H29557   2.805  11.013   1.962  0.6058 -2.8117  0.3259
  219MOL0     H29558   2.785  10.943   1.805 -2.1511 -0.6098 -0.6526
  219MOL0     H29559   2.570  10.878   1.835  1.8800  1.9465 -2.0585
  219MOL0     H29560   2.537  10.984   1.978  0.8380  0.5610 -0.8867
  219MOL0     H29561   2.725  10.852   2.097 -0.5059  0.2057  2.2077
  219MOL0     H29562   2.712  10.735   1.977  2.7993  2.3455  0.6393
  219MOL0     H29563   2.348  10.656   2.180  1.3040 -3.0927 -2.5711
  219MOL0     H29564   2.488  11.181   1.507 -0.7786 -2.0433 -0.9119
  219MOL0     H29565   2.559  11.132   1.281  0.6551 -0.4275 -0.2290
  220MOL0     O29566   3.298   1.887  10.389  0.3371  0.0060  0.6496
  220MOL0     C29567   3.228   1.921  10.490 -0.2165  0.1235 -0.5535
  220MOL0     O29568   3.097   1.947  10.486  0.4297 -0.3282  0.5909
  220MOL0     C29569   3.042   1.958  10.368  0.6524 -0.7440  0.6452
  220MOL0     C29570   3.092   2.037  10.265  0.4808 -0.1267  0.0967
  220MOL0     C29571   3.029   2.036  10.143  0.3127  0.0832  0.1723
  220MOL0     C29572   2.902   1.991  10.128 -0.1931  0.4514  0.4382
  220MOL0     O29573   2.823   2.024  10.022 -0.0609 -0.9128  0.2395
  220MOL0     C29574   2.892   2.046   9.900  0.4202  0.1545 -0.3398
  220MOL0     C29575   2.775   2.029   9.806  0.1108 -0.2091 -0.6094
  220MOL0     C29576   2.817   2.061   9.664  0.4898 -0.6515 -0.3870
  220MOL0     C29577   2.720   2.011   9.559 -0.1509  0.6930 -0.0770
  220MOL0     C29578   2.791   2.018   9.421  0.2811 -0.7010  0.2289
  220MOL0     C29579   2.704   1.949   9.317  0.2713 -0.1058  1.0066
  220MOL0     C29580   2.762   1.961   9.174  0.1032  0.0799 -0.6861
  220MOL0     C29581   2.686   2.077   9.096 -1.1826 -0.3428  0.7258
  220MOL0     N29582   2.750   2.202   9.114 -0.8604  0.0490  0.3264
  220MOL0     C29583   2.872   2.236   9.058  0.2656 -0.1218 -0.4686
  220MOL0     C29584   2.900   2.358   9.099 -0.8956  0.1538 -0.4985
  220MOL0     C29585   3.021   2.445   9.052  0.1799 -0.2952  0.1323
  220MOL0     C29586   3.151   2.364   9.045 -0.3431 -0.8783  0.2537
  220MOL0     C29587   3.266   2.466   9.040 -0.1330 -0.4125  0.0435
  220MOL0     C29588   3.400   2.392   9.042  0.2018  0.7150  0.3250
  220MOL0     O29589   3.511   2.482   9.072  0.2587  0.1223 -0.3358
  220MOL0     C29590   3.628   2.425   9.104  0.4712  0.3156  0.5548
  220MOL0     C29591   3.654   2.289   9.111  0.5265 -0.3527  0.2099
  220MOL0     C29592   3.780   2.234   9.132 -0.0113  0.0343 -0.0381
  220MOL0     C29593   3.790   2.084   9.147  0.6292  0.5119  0.4545
  220MOL0     C29594   3.884   2.328   9.165 -0.1260 -1.1374 -0.4076
  220MOL0     C29595   4.019   2.293   9.206  0.3419  1.2838 -0.9026
  220MOL0     O29596   4.071   2.359   9.304  0.5836 -0.2307 -0.9976
  220MOL0     C29597   4.199   2.322   9.333  0.1981  0.5512 -0.0099
  220MOL0     C29598   4.313   2.363   9.258  0.5371  0.1182  0.2010
  220MOL0     C29599   4.448   2.332   9.296  0.6552 -0.3623  0.2109
  220MOL0     C29600   4.476   2.266   9.414  0.0605 -0.4892 -0.5501
  220MOL0     O29601   4.603   2.235   9.452  0.2424  0.6725 -0.2743
  220MOL0     C29602   4.695   2.200   9.357 -1.0149  0.5006  0.6630
  220MOL0     C29603   4.833   2.211   9.426  0.0443 -0.0314 -0.1440
  220MOL0     C29604   4.863   2.085   9.518  1.6201  0.3801 -0.1911
  220MOL0     C29605   4.947   2.120   9.643 -0.1178 -1.0275  0.4648
  220MOL0     C29606   5.096   2.168   9.600  0.4723  0.2816 -0.5045
  220MOL0     C29607   5.193   2.195   9.715  0.1041  0.0939  0.4565
  220MOL0     C29608   5.326   2.237   9.652 -0.4260  0.1730 -0.5147
  220MOL0     C29609   5.419   2.258   9.772  0.3382  0.2705  0.6711
  220MOL0    Cl29610   5.562   2.338   9.693 -0.2618  0.1040  0.0525
  220MOL0     C29611   4.372   2.231   9.494 -0.3269 -0.9928 -0.1675
  220MOL0     C29612   4.231   2.273   9.465  0.1362 -0.0967  0.0151
  220MOL0     O29613   4.063   2.191   9.156 -0.6134 -0.2569 -0.0957
  220MOL0     C29614   3.854   2.467   9.158  0.5213 -0.9812 -0.0149
  220MOL0     C29615   3.730   2.515   9.124 -0.5912 -0.6758  0.3192
  220MOL0     N29616   2.798   2.392   9.192  0.9068 -0.7999 -0.0719
  220MOL0     N29617   2.711   2.300   9.201 -0.1164  0.6135  0.7135
  220MOL0     C29618   2.840   1.924  10.235 -0.3814 -0.6440  0.4204
  220MOL0     C29619   2.914   1.905  10.357 -0.2716 -0.5866  0.7238
  220MOL0     C29620   3.299   1.945  10.615 -0.3838 -0.1286  0.0826
  220MOL0     C29621   3.438   1.940  10.633  0.1937 -0.0704  0.2048
  220MOL0     C29622   3.503   1.972  10.751  0.3825  0.0300 -0.3208
  220MOL0     C29623   3.425   2.006  10.867  0.7681  0.0854 -0.5354
  220MOL0     O29624   3.479   2.032  10.992 -0.5266  0.6818 -0.2944
  220MOL0     C29625   3.615   2.074  11.005 -0.1028  0.0273  0.7737
  220MOL0     C29626   3.643   2.209  10.945 -0.2003 -0.4664  0.0579
  220MOL0     C29627   3.796   2.225  10.948 -0.0968 -0.7121  0.2430
  220MOL0     C29628   3.844   2.366  10.903 -0.2110  0.9036  0.0426
  220MOL0     C29629   3.804   2.402  10.765  0.6292 -0.0248 -0.2468
  220MOL0     C29630   3.752   2.420  10.652 -0.5914  0.0698 -0.1262
  220MOL0     C29631   3.288   1.990  10.857  0.9121  0.2869 -0.1311
  220MOL0     C29632   3.226   1.963  10.735 -0.4469 -0.5109  0.0927
  220MOL0     H29633   3.193   2.077  10.272  2.6284 -4.5526 -1.2791
  220MOL0     H29634   3.079   2.102  10.072 -1.8212  2.0948  0.4264
  220MOL0     H29635   2.931   2.148   9.895 -1.7868  1.2213  1.7125
  220MOL0     H29636   2.967   1.969   9.886  0.8766  0.6252 -0.5092
  220MOL0     H29637   2.741   1.926   9.810 -2.4768  0.5938  2.3746
  220MOL0     H29638   2.692   2.085   9.851  1.9467  1.0905  1.3703
  220MOL0     H29639   2.823   2.170   9.656  0.2330 -0.3843  2.2953
  220MOL0     H29640   2.919   2.024   9.651  1.8559  2.5138  0.4833
  220MOL0     H29641   2.703   1.904   9.576 -0.7973  0.8731  0.4784
  220MOL0     H29642   2.617   2.046   9.551 -1.1254 -1.8242  0.4181
  220MOL0     H29643   2.799   2.125   9.401 -2.8808  0.0722  2.3033
  220MOL0     H29644   2.887   1.966   9.433  0.2575 -0.7923  0.0096
  220MOL0     H29645   2.694   1.843   9.341  0.5441 -0.4107 -0.1441
  220MOL0     H29646   2.602   1.988   9.320  1.0421  2.3608 -1.0354
  220MOL0     H29647   2.867   1.984   9.196  0.5152  1.6932 -3.7774
  220MOL0     H29648   2.762   1.876   9.105 -1.8292  0.8332 -1.6787
  220MOL0     H29649   2.585   2.088   9.139 -0.1780  1.5825  2.8004
  220MOL0     H29650   2.685   2.054   8.989 -0.5846 -1.1960  0.9000
  220MOL0     H29651   2.920   2.184   8.976 -1.3373 -1.5522 -0.5556
  220MOL0     H29652   2.985   2.481   8.955  1.2100 -0.9168 -0.4963
  220MOL0     H29653   3.040   2.531   9.117  0.7827  0.8368 -1.4585
  220MOL0     H29654   3.158   2.302   8.956  2.3874 -0.9008  0.4006
  220MOL0     H29655   3.160   2.311   9.141  4.2394  0.4722  0.8161
  220MOL0     H29656   3.269   2.533   9.127  0.7234 -0.6721  0.2255
  220MOL0     H29657   3.258   2.515   8.943 -0.0118 -1.8589 -0.7136
  220MOL0     H29658   3.403   2.325   8.956 -0.3460  0.4439  0.5059
  220MOL0     H29659   3.391   2.322   9.126 -2.1434  0.2452 -0.2419
  220MOL0     H29660   3.570   2.221   9.101  0.0366  0.2895 -0.1664
  220MOL0     H29661   3.812   2.034   9.052  1.8176  0.8528  0.5304
  220MOL0     H29662   3.879   2.053   9.203 -0.4810 -2.2014  0.8972
  220MOL0     H29663   3.707   2.046   9.207  0.4395 -1.5083 -0.9474
  220MOL0     H29664   4.287   2.420   9.169 -0.0023  1.0709  0.9352
  220MOL0     H29665   4.526   2.370   9.231  1.0320  1.7414  1.8006
  220MOL0     H29666   4.679   2.097   9.321  1.8184  0.5583 -1.0372
  220MOL0     H29667   4.698   2.268   9.271  0.9907  0.4917  0.6857
  220MOL0     H29668   4.913   2.213   9.351 -1.7907 -0.6397 -2.2432
  220MOL0     H29669   4.831   2.312   9.469 -0.4591 -0.0369 -0.1436
  220MOL0     H29670   4.928   2.018   9.462  0.8722  0.8888 -1.7282
  220MOL0     H29671   4.770   2.037   9.552  1.9214  1.4251  2.3625
  220MOL0     H29672   4.902   2.208   9.691  3.0488  1.3936 -0.7106
  220MOL0     H29673   4.949   2.040   9.718 -0.4432 -2.1666 -0.6976
  220MOL0     H29674   5.096   2.258   9.538  0.5196  1.1137  0.6625
  220MOL0     H29675   5.135   2.087   9.538 -1.7297 -0.1542 -1.3858
  220MOL0     H29676   5.155   2.275   9.779  2.9562  2.0544 -0.0882
  220MOL0     H29677   5.207   2.104   9.773  0.4503  0.0983  0.3795
  220MOL0     H29678   5.324   2.329   9.593  4.8627  2.4249  2.1881
  220MOL0     H29679   5.366   2.161   9.584  0.1319  1.5399 -1.7566
  220MOL0     H29680   5.440   2.161   9.818 -1.1053 -0.9085 -1.0023
  220MOL0     H29681   5.377   2.322   9.851  1.1111 -0.1900  1.4732
  220MOL0     H29682   4.410   2.184   9.584  1.5740 -0.3238 -0.5741
  220MOL0     H29683   4.154   2.257   9.540 -1.6070  4.2862 -0.5536
  220MOL0     H29684   3.923   2.547   9.184 -0.1453 -0.2963 -0.2903
  220MOL0     H29685   3.715   2.620   9.103  0.6699 -0.4182  0.5832
  220MOL0     H29686   2.738   1.887  10.226 -0.8891  0.3193  1.7948
  220MOL0     H29687   2.882   1.855  10.449  1.4153 -0.1436  1.5930
  220MOL0     H29688   3.508   1.924  10.551  0.1844  0.7027  0.0415
  220MOL0     H29689   3.611   1.964  10.753  0.6246  2.4821 -0.7204
  220MOL0     H29690   3.637   2.080  11.112 -1.7482 -0.3656  1.1653
  220MOL0     H29691   3.693   2.003  10.976 -1.7833 -1.1983 -1.0254
  220MOL0     H29692   3.599   2.279  11.016  0.1217 -3.3820  3.3817
  220MOL0     H29693   3.607   2.219  10.842  0.0032 -1.0571 -0.0780
  220MOL0     H29694   3.836   2.161  10.869  1.0691 -0.6674  0.7854
  220MOL0     H29695   3.834   2.208  11.049  0.2141 -0.3458  0.1914
  220MOL0     H29696   3.953   2.361  10.902 -0.1956  1.2863 -0.8584
  220MOL0     H29697   3.814   2.445  10.973 -0.4233  1.6826 -0.9040
  220MOL0     H29698   3.705   2.451  10.561  1.1769 -0.0460 -1.1102
  220MOL0     H29699   3.227   1.998  10.946 -2.5059  1.7729 -2.4278
  220MOL0     H29700   3.119   1.956  10.722 -0.2728  0.4795 -2.5714
  221MOL0     O29701   4.498   2.317   8.930  0.3264  0.5345  0.6116
  221MOL0     C29702   4.568   2.220   8.905  0.2675 -0.2611 -0.1484
  221MOL0     O29703   4.524   2.111   8.834 -0.3941  0.6379  0.9551
  221MOL0     C29704   4.386   2.087   8.808 -0.8410 -0.6900  0.2932
  221MOL0     C29705   4.362   1.994   8.704  0.9686  0.1206 -0.3864
  221MOL0     C29706   4.233   1.957   8.672 -0.4530 -0.5230 -0.1835
  221MOL0     C29707   4.129   2.005   8.750  0.1868 -0.3323 -0.1241
  221MOL0     O29708   3.999   1.980   8.732 -0.0123 -0.2097 -0.0906
  221MOL0     C29709   3.940   1.861   8.672  0.2655  0.9814  0.6167
  221MOL0     C29710   3.810   1.898   8.609 -0.2499 -0.4456 -0.0466
  221MOL0     C29711   3.718   1.970   8.717 -0.8734 -1.0986  0.8633
  221MOL0     C29712   3.565   1.939   8.693 -0.5185  0.7624  0.1900
  221MOL0     C29713   3.470   2.039   8.760 -0.0093  0.0056  0.0991
  221MOL0     C29714   3.326   1.980   8.755  0.2701 -0.0997  0.3409
  221MOL0     C29715   3.226   2.044   8.843 -0.0978  0.5436 -0.1526
  221MOL0     C29716   3.255   2.030   8.992 -1.5438 -0.1074 -0.3608
  221MOL0     N29717   3.239   1.894   9.042  0.7215  0.4696  0.1764
  221MOL0     C29718   3.324   1.789   9.020 -0.2041  0.8606 -0.1054
  221MOL0     C29719   3.260   1.682   9.075 -0.0593 -0.5620 -0.0996
  221MOL0     C29720   3.306   1.542   9.083 -0.7554  0.2481  0.3134
  221MOL0     C29721   3.369   1.498   8.951 -1.1369  0.4603  1.2678
  221MOL0     C29722   3.410   1.347   8.955  0.5850 -0.1544 -0.0479
  221MOL0     C29723   3.554   1.316   8.954 -0.5831  0.2757  0.0734
  221MOL0     O29724   3.620   1.374   9.067  0.4047 -0.1633  0.7585
  221MOL0     C29725   3.756   1.338   9.094  0.0582  0.1940 -0.4885
  221MOL0     C29726   3.805   1.368   9.216 -0.1304  0.5725 -0.3986
  221MOL0     C29727   3.943   1.343   9.264 -0.0400 -0.1242 -0.2881
  221MOL0     C29728   3.979   1.394   9.407  0.1197  0.4282 -0.0827
  221MOL0     C29729   4.023   1.288   9.165 -0.6859  0.1929 -0.3072
  221MOL0     C29730   4.170   1.279   9.178 -0.4702 -0.0153  0.4063
  221MOL0     O29731   4.233   1.213   9.082  0.5481 -0.3990  0.2901
  221MOL0     C29732   4.366   1.180   9.088  0.5484 -0.3689 -0.0131
  221MOL0     C29733   4.471   1.260   9.142  0.4720  1.1045  0.1189
  221MOL0     C29734   4.601   1.223   9.140 -0.1304 -0.1081  0.0599
  221MOL0     C29735   4.647   1.104   9.083 -0.3833 -0.6254  0.3241
  221MOL0     O29736   4.787   1.074   9.085  0.0922  0.4150 -0.2419
  221MOL0     C29737   4.814   0.929   9.082 -0.6350 -0.3320  0.1405
  221MOL0     C29738   4.771   0.854   9.211  0.3487  0.0280 -0.0569
  221MOL0     C29739   4.830   0.703   9.201 -0.4617 -1.1829  0.3878
  221MOL0     C29740   4.809   0.619   9.324 -0.3100 -0.2771  0.1161
  221MOL0     C29741   4.881   0.482   9.318  0.1522  0.3404  0.0659
  221MOL0     C29742   4.868   0.430   9.466 -0.0211 -0.1431 -0.5320
  221MOL0     C29743   4.954   0.306   9.510  0.6752  0.0113  0.3450
  221MOL0     C29744   4.924   0.165   9.442  0.3535  0.4514  0.2405
  221MOL0    Cl29745   5.075   0.077   9.476  0.3310 -0.0810 -0.2496
  221MOL0     C29746   4.540   1.019   9.032  0.0759 -0.6137 -0.1571
  221MOL0     C29747   4.408   1.058   9.033  0.5784 -0.0988 -0.4640
  221MOL0     O29748   4.228   1.331   9.271 -0.0391 -0.0897  0.4103
  221MOL0     C29749   3.970   1.242   9.047 -0.3128  0.3069 -0.2822
  221MOL0     C29750   3.836   1.267   9.012 -0.0970 -0.4472 -0.4565
  221MOL0     N29751   3.135   1.725   9.110  0.4701 -0.2951 -0.2748
  221MOL0     N29752   3.122   1.853   9.092  0.2747 -0.4241 -1.3243
  221MOL0     C29753   4.161   2.083   8.859  0.0694  0.5191  0.1896
  221MOL0     C29754   4.284   2.125   8.892  0.9066 -0.1650  0.4216
  221MOL0     C29755   4.710   2.228   8.956 -0.6205  0.0892 -0.9165
  221MOL0     C29756   4.762   2.343   9.013 -0.8015 -0.6247  0.0837
  221MOL0     C29757   4.896   2.338   9.056 -0.2206  0.2188 -0.3975
  221MOL0     C29758   4.977   2.226   9.051  0.0452  0.3617 -0.0195
  221MOL0     O29759   5.099   2.228   9.113  0.6117 -0.5568 -0.2817
  221MOL0     C29760   5.170   2.110   9.149 -0.6925 -0.7808  0.0409
  221MOL0     C29761   5.318   2.153   9.168  0.0539 -0.7592  0.3897
  221MOL0     C29762   5.338   2.222   9.304 -0.6937 -0.3525  0.0673
  221MOL0     C29763   5.479   2.296   9.299  0.6932  0.5976 -0.5084
  221MOL0     C29764   5.579   2.208   9.229  0.1331 -0.1367 -0.0988
  221MOL0     C29765   5.659   2.128   9.188  0.0034  0.5401 -0.0205
  221MOL0     C29766   4.924   2.113   8.990 -0.6897  0.3394  0.5800
  221MOL0     C29767   4.794   2.113   8.940  0.2638 -0.1023  0.5947
  221MOL0     H29768   4.436   1.949   8.640  0.3838  1.6305 -2.2006
  221MOL0     H29769   4.217   1.904   8.578  1.2967  1.9982 -2.0489
  221MOL0     H29770   4.004   1.819   8.594  0.5868  2.1551  0.2204
  221MOL0     H29771   3.921   1.796   8.758  0.9369  0.6723  0.5428
  221MOL0     H29772   3.824   1.978   8.536  0.6593 -0.3449  0.2277
  221MOL0     H29773   3.760   1.812   8.562 -0.1019 -0.5004 -0.1032
  221MOL0     H29774   3.739   1.935   8.819 -1.9472 -0.2398  1.3948
  221MOL0     H29775   3.728   2.079   8.713 -1.5876 -0.9194  2.8380
  221MOL0     H29776   3.551   1.934   8.584  1.4824  0.4610 -0.1008
  221MOL0     H29777   3.546   1.837   8.725  1.3751  0.9274  2.0612
  221MOL0     H29778   3.501   2.046   8.865 -2.6654  1.2006  0.9020
  221MOL0     H29779   3.485   2.138   8.715 -2.0059  0.3117  0.0230
  221MOL0     H29780   3.294   2.003   8.653  1.2400  2.5025  0.5527
  221MOL0     H29781   3.331   1.874   8.782 -0.8350  0.3652  2.5539
  221MOL0     H29782   3.226   2.150   8.819 -1.9343  0.4581 -0.6554
  221MOL0     H29783   3.129   2.000   8.819  1.6906 -2.8107 -2.0671
  221MOL0     H29784   3.190   2.099   9.048  0.4412  1.2664  0.3685
  221MOL0     H29785   3.353   2.069   9.021 -1.7448  0.7810 -0.8302
  221MOL0     H29786   3.426   1.801   8.984 -0.0109  0.5810  0.3509
  221MOL0     H29787   3.376   1.528   9.165 -1.5572  0.6317  1.0822
  221MOL0     H29788   3.219   1.481   9.109 -1.9408  0.9100 -1.8040
  221MOL0     H29789   3.464   1.549   8.932 -1.1352  0.5328  1.4681
  221MOL0     H29790   3.286   1.514   8.882  0.5956 -1.5915 -1.4734
  221MOL0     H29791   3.369   1.302   8.864 -0.4849  0.7701 -0.0429
  221MOL0     H29792   3.361   1.301   9.040  0.0710 -0.3533 -0.4460
  221MOL0     H29793   3.605   1.365   8.869 -1.0763  1.9783  0.7128
  221MOL0     H29794   3.562   1.207   8.950 -2.6635  0.1134 -1.1868
  221MOL0     H29795   3.734   1.413   9.285  0.8914  0.3059  0.8709
  221MOL0     H29796   3.888   1.401   9.467  0.1893 -2.6465  0.5438
  221MOL0     H29797   4.046   1.322   9.455  0.6190  0.2475 -1.0248
  221MOL0     H29798   4.029   1.491   9.402  0.5224  0.1855 -1.0280
  221MOL0     H29799   4.446   1.360   9.175  0.0419  1.0627 -0.0710
  221MOL0     H29800   4.668   1.304   9.168  0.6888 -1.3390  1.8454
  221MOL0     H29801   4.762   0.884   8.997  0.6829 -0.7648 -0.4672
  221MOL0     H29802   4.918   0.927   9.050 -1.4725  2.0404 -3.2457
  221MOL0     H29803   4.818   0.897   9.300 -1.0014 -1.5099  1.4439
  221MOL0     H29804   4.662   0.859   9.213  0.2112 -1.6358 -1.0299
  221MOL0     H29805   4.938   0.716   9.187 -0.4130 -1.7595  0.1862
  221MOL0     H29806   4.782   0.651   9.117 -3.0450  1.9050 -0.2426
  221MOL0     H29807   4.853   0.681   9.403  0.1418 -0.9420  0.3891
  221MOL0     H29808   4.703   0.606   9.347 -0.3254  1.3763  1.1740
  221MOL0     H29809   4.988   0.493   9.299  0.8230  0.2203  3.2213
  221MOL0     H29810   4.823   0.417   9.251  1.1677  2.6090 -3.2782
  221MOL0     H29811   4.896   0.513   9.532  3.4620 -0.8721 -0.8536
  221MOL0     H29812   4.763   0.412   9.489 -0.0631  0.1531 -0.4889
  221MOL0     H29813   4.948   0.301   9.619 -2.2186  1.9003  0.3707
  221MOL0     H29814   5.056   0.330   9.478 -0.1103 -0.5312 -2.8867
  221MOL0     H29815   4.908   0.174   9.334 -1.5179  0.2699  0.4612
  221MOL0     H29816   4.843   0.107   9.489  0.9733 -1.1661 -0.6220
  221MOL0     H29817   4.554   0.920   8.990  0.1777 -0.8269  0.3711
  221MOL0     H29818   4.334   0.989   8.995 -2.4250 -0.0960  4.5689
  221MOL0     H29819   4.024   1.194   8.965 -1.6690 -0.9592 -0.4792
  221MOL0     H29820   3.809   1.217   8.920  0.8889 -2.8195  0.4542
  221MOL0     H29821   4.075   2.100   8.924 -1.0304 -1.5667 -0.6403
  221MOL0     H29822   4.310   2.178   8.982  2.6483  0.7225 -0.5601
  221MOL0     H29823   4.706   2.435   9.025 -1.1255 -1.0061  1.7402
  221MOL0     H29824   4.936   2.422   9.112  3.9044 -1.8841  0.2129
  221MOL0     H29825   5.122   2.070   9.239  1.2772  0.4510  1.7619
  221MOL0     H29826   5.178   2.029   9.077 -2.8976  0.4994 -1.7848
  221MOL0     H29827   5.344   2.215   9.082 -0.8570  2.1796  2.0712
  221MOL0     H29828   5.381   2.064   9.159  0.7620 -0.0446 -3.1665
  221MOL0     H29829   5.340   2.132   9.367 -1.2863 -0.2902  0.1821
  221MOL0     H29830   5.263   2.290   9.343 -1.2301 -1.6254  1.3645
  221MOL0     H29831   5.509   2.306   9.403 -1.5694 -0.7329  0.3300
  221MOL0     H29832   5.479   2.396   9.254 -0.6204  1.2152  0.8209
  221MOL0     H29833   5.710   2.050   9.136 -0.0530 -0.2780  1.1150
  221MOL0     H29834   4.988   2.028   8.967 -0.3826  1.3572 -2.9947
  221MOL0     H29835   4.752   2.030   8.884 -1.4583 -0.6301  2.5583
  222MOL0     O29836  10.963   5.049  11.105 -0.1680  0.4273  0.0094
  222MOL0     C29837  10.937   5.097  10.996 -1.8471 -0.0431  0.4802
  222MOL0     O29838  10.817   5.116  10.928 -0.1718 -0.0907 -0.1042
  222MOL0     C29839  10.696   5.072  10.977  0.2597 -1.0825 -0.6921
  222MOL0     C29840  10.580   5.132  10.920 -0.0827  0.0714  0.4295
  222MOL0     C29841  10.448   5.095  10.943  1.1281  0.1733 -1.1309
  222MOL0     C29842  10.412   4.993  11.034 -0.0514 -0.3206 -0.2915
  222MOL0     O29843  10.282   4.948  11.057  0.0414  0.1859 -0.0356
  222MOL0     C29844  10.184   4.961  10.953  0.2340 -0.7775 -0.5428
  222MOL0     C29845  10.055   4.878  10.980  0.6041  0.4605 -0.0607
  222MOL0     C29846   9.937   4.968  11.032  0.3644 -0.5167 -0.2815
  222MOL0     C29847   9.831   4.897  11.108  0.1592  0.2463 -0.9788
  222MOL0     C29848   9.691   4.970  11.108 -0.4418  0.1145 -0.3450
  222MOL0     C29849   9.594   4.887  11.198  0.2653  0.2802 -0.0293
  222MOL0     C29850   9.457   4.954  11.214 -0.0906  0.8602 -0.1211
  222MOL0     C29851   9.394   4.950  11.072 -0.0444  0.8268 -0.7193
  222MOL0     N29852   9.244   4.980  11.099 -0.5656 -0.6367 -0.0318
  222MOL0     C29853   9.190   5.108  11.094  0.3208  1.2529  1.1108
  222MOL0     C29854   9.055   5.094  11.108 -0.4050 -0.2786 -0.2446
  222MOL0     C29855   8.960   5.217  11.111 -0.3302 -0.7996  0.1040
  222MOL0     C29856   8.818   5.186  11.060 -0.6994  0.3164 -0.8239
  222MOL0     C29857   8.802   5.139  10.924  0.3768 -0.1036 -0.0352
  222MOL0     C29858   8.665   5.070  10.894 -0.0599 -1.0925 -0.3909
  222MOL0     O29859   8.558   5.153  10.940  0.0899 -0.6389 -0.2441
  222MOL0     C29860   8.436   5.104  10.895  0.2373  0.2797  1.4668
  222MOL0     C29861   8.410   4.967  10.865  0.2210 -1.3536  0.2058
  222MOL0     C29862   8.277   4.929  10.826 -0.2828  0.1340 -0.1316
  222MOL0     C29863   8.240   4.780  10.796  0.7338 -0.3148 -0.0877
  222MOL0     C29864   8.176   5.034  10.810 -1.0862 -0.4180  0.3895
  222MOL0     C29865   8.039   5.007  10.757  0.0059 -0.4519 -0.9524
  222MOL0     O29866   8.000   4.877  10.713  0.0085  0.2808 -0.2304
  222MOL0     C29867   7.870   4.865  10.670 -0.4117 -0.3107  0.8474
  222MOL0     C29868   7.768   4.869  10.763  0.1833 -0.0189  0.4163
  222MOL0     C29869   7.630   4.873  10.730 -0.6844 -0.4389 -0.5365
  222MOL0     C29870   7.591   4.851  10.595  0.0512 -0.2166 -0.4034
  222MOL0     O29871   7.457   4.853  10.547  0.4674  0.3731 -0.3296
  222MOL0     C29872   7.352   4.861  10.649  0.1897  0.1562  0.9299
  222MOL0     C29873   7.239   4.930  10.571  0.1427  0.1837  0.4944
  222MOL0     C29874   7.114   4.938  10.660 -0.2326 -0.4767  0.3941
  222MOL0     C29875   7.016   4.820  10.653  0.1391  0.0806  0.1144
  222MOL0     C29876   6.898   4.854  10.735 -0.2765 -0.2337  0.8480
  222MOL0     C29877   6.792   4.933  10.652  0.4154  0.1251  1.1325
  222MOL0     C29878   6.670   4.970  10.747 -0.7620  1.2107 -0.6064
  222MOL0     C29879   6.582   5.051  10.657  0.1411 -0.6678  0.6739
  222MOL0    Cl29880   6.501   4.947  10.527 -0.3491  0.4758  0.0038
  222MOL0     C29881   7.697   4.836  10.496  0.4791  0.4250  0.0805
  222MOL0     C29882   7.832   4.840  10.529 -0.9246  0.3280 -0.6058
  222MOL0     O29883   7.961   5.105  10.760  0.3366 -0.2733  0.2701
  222MOL0     C29884   8.214   5.169  10.841 -0.2570 -0.2047 -0.1694
  222MOL0     C29885   8.335   5.192  10.889 -0.6675 -0.4741  0.6278
  222MOL0     N29886   9.030   4.957  11.113  0.1345 -0.2458  1.3685
  222MOL0     N29887   9.140   4.890  11.105 -0.3376  0.1598  0.4488
  222MOL0     C29888  10.526   4.949  11.108  0.4451  0.2554  0.0748
  222MOL0     C29889  10.660   4.978  11.078 -0.0754 -0.0496  0.1217
  222MOL0     C29890  11.056   5.152  10.931 -0.7728 -0.0714  0.8569
  222MOL0     C29891  11.040   5.201  10.801  0.0476  1.0264  0.1903
  222MOL0     C29892  11.163   5.259  10.738 -0.1657  0.8459  0.3254
  222MOL0     C29893  11.286   5.269  10.797  1.0381 -0.7834  0.1342
  222MOL0     O29894  11.387   5.315  10.720  0.1499 -1.0320  0.0074
  222MOL0     C29895  11.518   5.314  10.779  0.6420  0.3503 -0.3818
  222MOL0     C29896  11.616   5.321  10.667 -0.6944  0.1915  0.2049
  222MOL0     C29897  11.591   5.425  10.553  0.2518 -1.3979 -0.4271
  222MOL0     C29898  11.685   5.434  10.432  0.5759 -0.1174 -0.0152
  222MOL0     C29899  11.818   5.493  10.468  0.6778  0.8393  0.6929
  222MOL0     C29900  11.926   5.546  10.498  0.4538  0.4687  0.5940
  222MOL0     C29901  11.290   5.214  10.925 -0.6725  0.5186 -0.5269
  222MOL0     C29902  11.183   5.153  10.988  0.0574 -0.3314  0.7017
  222MOL0     H29903  10.606   5.202  10.841  3.2379 -0.7752  0.6458
  222MOL0     H29904  10.365   5.134  10.885  0.5533  0.7059  0.0184
  222MOL0     H29905  10.161   5.068  10.955  3.0239 -0.0338 -2.4781
  222MOL0     H29906  10.239   4.937  10.862  1.2923  1.2886 -0.5035
  222MOL0     H29907  10.025   4.832  10.885  1.3242 -0.7105  0.2644
  222MOL0     H29908  10.080   4.797  11.048  2.3224  0.6421 -0.4317
  222MOL0     H29909   9.992   5.039  11.094  3.1005 -2.5262 -0.2054
  222MOL0     H29910   9.899   5.027  10.948 -1.3099  4.4427  3.5020
  222MOL0     H29911   9.812   4.796  11.071  1.3344  0.4480 -2.1857
  222MOL0     H29912   9.852   4.883  11.215 -1.2922  0.2955 -0.6573
  222MOL0     H29913   9.696   5.064  11.163 -1.2589  1.9151 -3.1661
  222MOL0     H29914   9.653   4.973  11.006 -3.0020  0.0036  0.5442
  222MOL0     H29915   9.581   4.792  11.145  1.0019  1.0222 -1.6126
  222MOL0     H29916   9.647   4.874  11.292  4.2727  0.4911 -2.0342
  222MOL0     H29917   9.405   4.906  11.297 -0.9620 -0.8007 -1.5692
  222MOL0     H29918   9.474   5.060  11.238  1.2166  0.8760 -0.9821
  222MOL0     H29919   9.395   4.849  11.031 -0.3881 -1.0670  3.3710
  222MOL0     H29920   9.434   5.034  11.016  1.6223  0.3879 -0.2326
  222MOL0     H29921   9.245   5.200  11.083  1.5693  0.4688  0.5285
  222MOL0     H29922   8.945   5.233  11.218  1.0807 -0.6648  0.2910
  222MOL0     H29923   8.997   5.302  11.054 -4.4510  0.2407 -1.3897
  222MOL0     H29924   8.745   5.264  11.081 -1.9298 -1.3016  1.2688
  222MOL0     H29925   8.771   5.107  11.119  1.7761 -2.0498 -1.7722
  222MOL0     H29926   8.890   5.077  10.903  0.0104 -0.6649  0.0673
  222MOL0     H29927   8.824   5.227  10.863  2.1508 -1.4473 -1.4312
  222MOL0     H29928   8.655   4.978  10.952 -2.6453  1.5129  3.8546
  222MOL0     H29929   8.662   5.055  10.786  0.4995 -0.5699 -0.4868
  222MOL0     H29930   8.489   4.895  10.883  1.8095  1.0259  3.9643
  222MOL0     H29931   8.153   4.760  10.858  0.0954  0.5697 -0.6644
  222MOL0     H29932   8.214   4.754  10.693  0.2716 -1.6804  0.3548
  222MOL0     H29933   8.316   4.708  10.826 -0.2201 -1.5621 -0.5942
  222MOL0     H29934   7.789   4.875  10.870  0.2990  1.6911  0.3178
  222MOL0     H29935   7.559   4.884  10.811 -1.9358 -2.4392 -1.2994
  222MOL0     H29936   7.321   4.764  10.688  1.6744 -0.3710  0.8637
  222MOL0     H29937   7.378   4.930  10.730  0.9995  1.4666 -0.3948
  222MOL0     H29938   7.272   5.031  10.544  0.5251  0.0763  0.5454
  222MOL0     H29939   7.214   4.864  10.487  0.6456  0.4191  0.1545
  222MOL0     H29940   7.065   5.034  10.638  0.3012 -0.3614 -0.3194
  222MOL0     H29941   7.148   4.954  10.763 -1.5561  0.9472  0.6485
  222MOL0     H29942   6.988   4.803  10.548 -1.9427 -0.1136  0.6631
  222MOL0     H29943   7.066   4.736  10.701 -0.7252 -0.5212 -0.0178
  222MOL0     H29944   6.932   4.928  10.807 -1.2654  1.5688 -0.4589
  222MOL0     H29945   6.854   4.760  10.771 -0.7253 -0.8341 -1.1437
  222MOL0     H29946   6.838   5.028  10.624 -1.4727  1.3505  1.9225
  222MOL0     H29947   6.755   4.887  10.560 -2.2641  3.0934  0.5085
  222MOL0     H29948   6.704   5.022  10.837  1.9934 -1.5316  0.0989
  222MOL0     H29949   6.624   4.876  10.778  2.0871 -0.0515  0.1025
  222MOL0     H29950   6.636   5.131  10.606  0.4183 -0.8081  0.7485
  222MOL0     H29951   6.513   5.110  10.717  0.7823  2.1116 -1.1548
  222MOL0     H29952   7.674   4.826  10.390  0.4145 -0.3506  0.1645
  222MOL0     H29953   7.905   4.829  10.449 -0.1551 -0.0042  0.1355
  222MOL0     H29954   8.139   5.248  10.831  1.0065  1.0061 -0.4043
  222MOL0     H29955   8.356   5.296  10.912  1.7364 -0.7521 -0.0867
  222MOL0     H29956  10.501   4.869  11.178  0.8333 -0.4054 -0.5293
  222MOL0     H29957  10.734   4.921  11.134 -0.0944  1.0774  1.3549
  222MOL0     H29958  10.950   5.216  10.743  0.7272  1.1930 -0.8393
  222MOL0     H29959  11.147   5.298  10.638  0.2096  0.3294  0.0599
  222MOL0     H29960  11.539   5.407  10.833  4.0150 -0.1619 -0.6550
  222MOL0     H29961  11.542   5.227  10.840  0.3244  0.2626 -0.3811
  222MOL0     H29962  11.598   5.227  10.612 -1.5110  1.3763 -1.6585
  222MOL0     H29963  11.718   5.305  10.703 -0.5822  0.3121 -0.0535
  222MOL0     H29964  11.592   5.527  10.593 -1.1755 -0.6332 -2.1648
  222MOL0     H29965  11.486   5.412  10.523 -0.6667  2.1717  0.6884
  222MOL0     H29966  11.643   5.503  10.358  2.9404  0.9361 -0.4920
  222MOL0     H29967  11.690   5.334  10.389  1.2299 -0.2294  0.3132
  222MOL0     H29968  12.016   5.595  10.532 -1.4597  2.9492  2.5218
  222MOL0     H29969  11.385   5.218  10.977 -0.5105  0.0492 -0.7844
  222MOL0     H29970  11.203   5.106  11.084 -1.2503  0.0062  1.1459
  223MOL0     O29971  10.948   7.238   8.080 -0.0355  0.1641 -0.2101
  223MOL0     C29972  10.986   7.350   8.033 -1.1020 -0.3259  0.2645
  223MOL0     O29973  10.905   7.444   7.982 -0.2164 -0.5563  0.5979
  223MOL0     C29974  10.774   7.415   7.967  0.4280  0.9916  0.1384
  223MOL0     C29975  10.679   7.457   8.060  0.3203 -0.0481  0.1573
  223MOL0     C29976  10.544   7.434   8.031  1.0830  0.4718  0.7779
  223MOL0     C29977  10.503   7.357   7.916 -0.6239  0.0640 -1.4467
  223MOL0     O29978  10.372   7.331   7.904  1.2524  0.3533  0.1200
  223MOL0     C29979  10.316   7.353   7.773  0.6921 -0.1017 -0.6217
  223MOL0     C29980  10.163   7.341   7.774  0.1597  0.0887  1.0413
  223MOL0     C29981  10.106   7.464   7.837 -0.4710 -1.1370 -0.2564
  223MOL0     C29982   9.963   7.474   7.844 -0.6433 -0.1722  0.2260
  223MOL0     C29983   9.920   7.624   7.851 -0.0514  0.5477  0.0900
  223MOL0     C29984   9.778   7.643   7.789 -0.0472  0.2405  0.0397
  223MOL0     C29985   9.668   7.546   7.855 -0.6480  0.4088 -0.1144
  223MOL0     C29986   9.527   7.542   7.797 -0.3160 -0.2118  0.7130
  223MOL0     N29987   9.476   7.681   7.766  0.0952 -0.4841 -0.1027
  223MOL0     C29988   9.413   7.751   7.869  0.3260  0.3738 -0.0827
  223MOL0     C29989   9.385   7.876   7.807 -0.3959 -0.0175 -0.2934
  223MOL0     C29990   9.328   8.003   7.874 -0.1810 -0.2565 -0.5329
  223MOL0     C29991   9.183   8.008   7.870 -0.7874 -0.2778  0.5041
  223MOL0     C29992   9.102   7.884   7.881 -0.0035  1.3909  0.2974
  223MOL0     C29993   8.959   7.928   7.870 -0.0340  0.5971 -0.2784
  223MOL0     O29994   8.918   7.972   7.997 -0.6311 -0.0576 -0.6162
  223MOL0     C29995   8.785   7.989   8.012 -0.3749 -0.4562 -0.5767
  223MOL0     C29996   8.719   8.063   7.929  0.7444 -0.4161 -0.3220
  223MOL0     C29997   8.586   8.105   7.958  0.2712 -0.2107  0.2435
  223MOL0     C29998   8.515   8.199   7.862 -0.5914  0.8437 -1.2453
  223MOL0     C29999   8.525   8.046   8.070 -0.9528  1.1499 -1.2346
  223MOL0     C30000   8.390   8.092   8.126  0.5501 -0.3401 -0.9241
  223MOL0     O30001   8.327   8.009   8.214  0.1432 -0.1456 -0.1560
  223MOL0     C30002   8.202   8.047   8.269  0.0528  0.1255 -1.2867
  223MOL0     C30003   8.184   8.060   8.408  0.1945 -0.1570 -0.7521
  223MOL0     C30004   8.065   8.111   8.459  0.4520 -0.8798  0.4895
  223MOL0     C30005   7.959   8.153   8.376 -0.2393  0.1766 -0.2044
  223MOL0     O30006   7.847   8.206   8.436 -0.2601 -0.4551  0.1071
  223MOL0     C30007   7.716   8.182   8.385 -0.4472  0.2485  0.3357
  223MOL0     C30008   7.613   8.211   8.484  0.4381 -0.6738 -0.5702
  223MOL0     C30009   7.476   8.168   8.428  0.3135 -0.0328  0.0295
  223MOL0     C30010   7.357   8.236   8.505 -0.5874  1.1625  0.0161
  223MOL0     C30011   7.234   8.194   8.441  0.5499  0.5961  0.4021
  223MOL0     C30012   7.192   8.049   8.452 -0.0527  0.0576  0.4735
  223MOL0     C30013   7.054   8.030   8.385  0.2261  0.5233  0.3442
  223MOL0     C30014   6.999   7.893   8.408  0.6024 -0.2793 -0.3584
  223MOL0    Cl30015   7.002   7.829   8.578  0.0286  0.1101  0.0050
  223MOL0     C30016   7.979   8.136   8.238  0.1048  0.5671  0.7731
  223MOL0     C30017   8.100   8.085   8.188 -0.2619 -0.2347  0.4864
  223MOL0     O30018   8.357   8.205   8.103 -0.2448 -0.3267  0.7307
  223MOL0     C30019   8.594   7.956   8.150 -0.5679  0.2206 -0.5911
  223MOL0     C30020   8.730   7.931   8.125  0.5500 -0.1852 -0.0761
  223MOL0     N30021   9.440   7.881   7.681  0.2263  0.2699  0.0286
  223MOL0     N30022   9.496   7.761   7.659  0.0776 -0.5928  0.3412
  223MOL0     C30023  10.603   7.319   7.822 -0.1425  0.1511  0.4461
  223MOL0     C30024  10.738   7.351   7.844  0.0632 -0.6823  0.1835
  223MOL0     C30025  11.132   7.374   8.044 -0.1275 -0.4752 -0.2390
  223MOL0     C30026  11.214   7.260   8.035  0.1905 -0.3808  0.5667
  223MOL0     C30027  11.351   7.265   8.021 -0.2744  0.2184 -0.0742
  223MOL0     C30028  11.414   7.390   8.018 -0.0725 -0.4444 -0.2557
  223MOL0     O30029  11.553   7.392   7.997  0.1428 -0.3808 -0.4891
  223MOL0     C30030  11.601   7.520   7.953 -0.0526 -0.0918  0.2414
  223MOL0     C30031  11.748   7.495   7.930  0.6957  0.8400 -0.1882
  223MOL0     C30032  11.805   7.629   7.872  0.1496 -0.0785  0.8605
  223MOL0     C30033  11.952   7.656   7.912  0.8219  0.1269  0.2049
  223MOL0     C30034  12.045   7.587   7.815  0.7516 -0.1885  0.3056
  223MOL0     C30035  12.126   7.534   7.741  0.2729  0.3651 -0.2399
  223MOL0     C30036  11.334   7.511   8.029  0.1685  0.1523 -0.1694
  223MOL0     C30037  11.189   7.499   8.038 -0.0748  0.4284  0.0923
  223MOL0     H30038  10.719   7.510   8.146  0.9365  1.1856 -0.8732
  223MOL0     H30039  10.467   7.480   8.092 -1.0910 -0.3347 -1.2034
  223MOL0     H30040  10.347   7.451   7.736 -0.9573  0.9725  0.6755
  223MOL0     H30041  10.351   7.281   7.698 -1.9107  1.1961 -3.2787
  223MOL0     H30042  10.127   7.335   7.670  1.8036  1.0315  0.3759
  223MOL0     H30043  10.129   7.249   7.822 -0.6368  0.2216  0.7364
  223MOL0     H30044  10.149   7.481   7.936 -1.2290 -0.3545 -0.0428
  223MOL0     H30045  10.129   7.555   7.781  0.6589 -1.2929 -0.0620
  223MOL0     H30046   9.933   7.438   7.745  0.6135 -1.9436  0.4342
  223MOL0     H30047   9.913   7.407   7.914 -0.9721  0.4804  0.6334
  223MOL0     H30048   9.912   7.649   7.957 -0.8829 -2.5804  0.8640
  223MOL0     H30049   9.983   7.698   7.800 -1.1754  1.2416 -0.3054
  223MOL0     H30050   9.743   7.745   7.805 -0.1394  0.6492 -2.4479
  223MOL0     H30051   9.785   7.624   7.682  2.3126  0.7789  0.0313
  223MOL0     H30052   9.700   7.442   7.839  3.0712  1.4355 -0.1276
  223MOL0     H30053   9.666   7.562   7.963  1.4106 -1.6032  0.2980
  223MOL0     H30054   9.454   7.506   7.870 -1.3288  2.8651  1.3996
  223MOL0     H30055   9.531   7.480   7.708  1.5446 -0.7490  1.1105
  223MOL0     H30056   9.384   7.712   7.966 -2.5611 -0.1231 -1.0569
  223MOL0     H30057   9.369   8.021   7.974 -1.1504  1.7707 -0.4611
  223MOL0     H30058   9.366   8.093   7.824 -0.5878  1.1811  1.5933
  223MOL0     H30059   9.158   8.052   7.773 -0.0272  2.5052  1.4830
  223MOL0     H30060   9.157   8.073   7.954 -2.5218 -1.4888  0.9471
  223MOL0     H30061   9.120   7.815   7.963  2.7641  1.6858  0.0356
  223MOL0     H30062   9.126   7.823   7.792 -2.4920  1.0652 -0.2238
  223MOL0     H30063   8.902   7.840   7.840 -2.2942  1.8696  0.0498
  223MOL0     H30064   8.962   8.001   7.789 -0.1089 -0.1486 -0.9641
  223MOL0     H30065   8.774   8.109   7.848 -0.7141 -0.7801 -1.5735
  223MOL0     H30066   8.527   8.298   7.909  1.3895 -0.3620  1.0502
  223MOL0     H30067   8.559   8.214   7.763 -0.9496 -0.8335 -1.6853
  223MOL0     H30068   8.412   8.164   7.856  0.3137 -2.1664 -0.9743
  223MOL0     H30069   8.263   8.039   8.479 -0.2446 -1.9154 -0.7422
  223MOL0     H30070   8.039   8.115   8.565  1.4351 -3.1606  0.8709
  223MOL0     H30071   7.710   8.234   8.290  2.5896 -0.2930 -0.2417
  223MOL0     H30072   7.707   8.079   8.347  3.1536  0.8861 -2.8790
  223MOL0     H30073   7.633   8.138   8.563 -0.4295 -1.6079 -1.1881
  223MOL0     H30074   7.626   8.314   8.519  2.7066 -1.7700  2.2148
  223MOL0     H30075   7.476   8.059   8.440  1.4408  0.0153  0.6268
  223MOL0     H30076   7.467   8.188   8.321  1.5826  0.6829  0.0275
  223MOL0     H30077   7.358   8.215   8.612  0.2930  0.1742 -0.1556
  223MOL0     H30078   7.372   8.343   8.491 -0.4302  1.0990 -0.3444
  223MOL0     H30079   7.229   8.218   8.335  0.3121  0.1643  0.3153
  223MOL0     H30080   7.151   8.241   8.494  1.6607  0.2745  2.5400
  223MOL0     H30081   7.256   7.976   8.402 -1.0755 -1.5834  1.4630
  223MOL0     H30082   7.183   8.015   8.555  0.2558  0.2244  0.5563
  223MOL0     H30083   7.071   8.050   8.278  1.8256  4.3722  1.1657
  223MOL0     H30084   6.988   8.104   8.432  1.8689  1.9466  0.4971
  223MOL0     H30085   7.053   7.823   8.343 -2.0003 -1.2337 -1.6387
  223MOL0     H30086   6.897   7.912   8.374  0.8200 -0.1980 -0.9811
  223MOL0     H30087   7.901   8.160   8.166  0.6577  1.5288  0.4823
  223MOL0     H30088   8.102   8.077   8.080 -4.6394 -0.8629  0.2546
  223MOL0     H30089   8.557   7.912   8.242 -0.4532 -0.3017 -0.7883
  223MOL0     H30090   8.782   7.864   8.193 -1.7375 -0.6137  1.3711
  223MOL0     H30091  10.565   7.270   7.733 -0.5783 -0.8554  1.1672
  223MOL0     H30092  10.813   7.319   7.772  0.4176 -1.0245  0.6999
  223MOL0     H30093  11.168   7.162   8.036 -1.8601  0.5138  2.4844
  223MOL0     H30094  11.407   7.171   8.020 -2.8997 -1.4564 -0.7859
  223MOL0     H30095  11.562   7.564   7.861 -0.0609  1.7079  1.0541
  223MOL0     H30096  11.588   7.591   8.035  1.4619 -2.5078  2.7261
  223MOL0     H30097  11.766   7.406   7.869 -2.6452  0.2728 -0.5153
  223MOL0     H30098  11.794   7.465   8.024 -2.6333  2.0859  2.0136
  223MOL0     H30099  11.755   7.724   7.897 -0.7833  0.1257 -1.5636
  223MOL0     H30100  11.795   7.635   7.764 -1.5426  4.6231  1.0453
  223MOL0     H30101  11.976   7.618   8.012  0.4795  0.6627  0.4979
  223MOL0     H30102  11.971   7.764   7.915  1.9191  0.0561 -2.0236
  223MOL0     H30103  12.194   7.472   7.687  0.8748 -0.7920  1.7167
  223MOL0     H30104  11.371   7.613   8.035 -1.0998  0.5638  1.6118
  223MOL0     H30105  11.121   7.584   8.046  0.7627  0.9786  2.0772
  224MOL0     O30106   7.030   5.740   8.570  0.9280  0.3647  0.1610
  224MOL0     C30107   7.002   5.658   8.478 -0.9774 -0.6021 -0.7280
  224MOL0     O30108   6.880   5.642   8.410  0.4633 -0.1038 -0.2279
  224MOL0     C30109   6.777   5.717   8.453 -0.2430  0.5646 -0.5270
  224MOL0     C30110   6.783   5.854   8.464  0.7607  0.2864 -0.6146
  224MOL0     C30111   6.671   5.927   8.514  0.4503  0.7764 -0.1181
  224MOL0     C30112   6.550   5.863   8.553 -0.0071  0.4452  0.0886
  224MOL0     O30113   6.436   5.924   8.592  0.3300  0.0609 -0.1355
  224MOL0     C30114   6.432   6.068   8.591 -0.5073  0.6627  0.2567
  224MOL0     C30115   6.284   6.100   8.595  0.0972 -0.9845 -0.1346
  224MOL0     C30116   6.203   6.048   8.480  0.5492  0.3370 -0.2272
  224MOL0     C30117   6.055   6.082   8.495  0.0188 -0.4325 -0.2147
  224MOL0     C30118   5.982   6.052   8.366  0.1253 -0.5248  1.0374
  224MOL0     C30119   5.837   6.103   8.362  0.0217  0.8375  0.2634
  224MOL0     C30120   5.775   6.106   8.225  0.0862 -0.2202  1.1356
  224MOL0     C30121   5.760   5.971   8.159 -0.6131  0.2418 -0.4065
  224MOL0     N30122   5.663   5.895   8.235 -1.2426 -1.2313 -0.1426
  224MOL0     C30123   5.528   5.921   8.230 -0.2104 -0.3289  0.6683
  224MOL0     C30124   5.476   5.811   8.300  0.7563  0.0414  0.3566
  224MOL0     C30125   5.332   5.783   8.327 -0.2348 -0.0993 -0.4605
  224MOL0     C30126   5.281   5.706   8.202  0.6525  0.2499 -0.0246
  224MOL0     C30127   5.153   5.629   8.234  0.6315 -0.0196 -0.1657
  224MOL0     C30128   5.098   5.539   8.127  0.5842 -0.6708  0.3204
  224MOL0     O30129   4.957   5.578   8.102 -0.1894  0.3182  0.4635
  224MOL0     C30130   4.858   5.506   8.028 -0.0282 -0.6846  0.1721
  224MOL0     C30131   4.881   5.383   7.979 -0.4745  0.2976 -0.0641
  224MOL0     C30132   4.776   5.304   7.929  0.5568 -0.5022  0.5509
  224MOL0     C30133   4.830   5.173   7.877 -0.3693  0.1592 -0.6955
  224MOL0     C30134   4.646   5.357   7.927  0.1446  0.3069  0.0651
  224MOL0     C30135   4.525   5.285   7.868 -0.2994  0.0501  0.8020
  224MOL0     O30136   4.537   5.151   7.836 -0.4553 -0.1272 -0.5522
  224MOL0     C30137   4.443   5.102   7.753  0.0991  0.3231  0.6482
  224MOL0     C30138   4.328   5.024   7.800 -0.7300 -0.1692 -0.3305
  224MOL0     C30139   4.244   4.966   7.701 -0.0789 -0.0157  0.3123
  224MOL0     C30140   4.260   4.984   7.563 -0.0467 -0.5840  0.3609
  224MOL0     O30141   4.163   4.922   7.485 -0.0078 -0.1169 -0.0904
  224MOL0     C30142   4.189   4.887   7.346 -0.9051 -0.4557 -0.3869
  224MOL0     C30143   4.094   4.781   7.300  0.2606 -0.0864 -0.2800
  224MOL0     C30144   3.945   4.816   7.334 -0.6144 -0.4126  0.2831
  224MOL0     C30145   3.876   4.923   7.235  0.3859  0.2840 -0.5872
  224MOL0     C30146   3.730   4.929   7.281  0.0663 -0.4286 -0.3650
  224MOL0     C30147   3.658   5.034   7.189  0.6243 -0.4221  0.3863
  224MOL0     C30148   3.509   5.007   7.216 -0.4116  0.8758 -0.0490
  224MOL0     C30149   3.416   5.108   7.159  0.8526  0.4570  0.6179
  224MOL0    Cl30150   3.248   5.049   7.217  0.1404  0.1196 -0.2985
  224MOL0     C30151   4.368   5.073   7.514 -0.0407 -0.1897 -0.3119
  224MOL0     C30152   4.463   5.124   7.614  0.0060 -0.6730  0.6863
  224MOL0     O30153   4.419   5.349   7.855 -0.4419 -0.3933  0.8215
  224MOL0     C30154   4.628   5.496   7.970 -0.3249 -0.4472  0.5368
  224MOL0     C30155   4.731   5.568   8.020 -0.0431 -0.1931 -0.2395
  224MOL0     N30156   5.582   5.727   8.347  0.3016  0.9015 -0.3268
  224MOL0     N30157   5.691   5.774   8.288 -0.0267 -0.7584 -0.6649
  224MOL0     C30158   6.548   5.721   8.537 -0.8946 -0.0677  0.4166
  224MOL0     C30159   6.658   5.652   8.484 -0.6126  0.4021 -0.0333
  224MOL0     C30160   7.117   5.578   8.435 -0.5420 -0.8721 -0.3638
  224MOL0     C30161   7.101   5.456   8.368 -0.2307 -0.0759  0.1553
  224MOL0     C30162   7.207   5.385   8.306 -0.4079  0.3629 -0.7081
  224MOL0     C30163   7.336   5.432   8.331  0.5390  0.5078  0.1437
  224MOL0     O30164   7.446   5.366   8.270  1.4696 -0.6257 -0.3777
  224MOL0     C30165   7.568   5.348   8.339 -0.1212  0.1770  0.6243
  224MOL0     C30166   7.656   5.263   8.254 -0.3110  0.1232  0.3747
  224MOL0     C30167   7.752   5.349   8.164  0.3320  0.1154 -0.1535
  224MOL0     C30168   7.686   5.410   8.039 -0.8864 -0.2295  0.5893
  224MOL0     C30169   7.779   5.486   7.950  0.5968 -0.0437 -0.6271
  224MOL0     C30170   7.828   5.550   7.861 -0.4096 -0.2106  0.4331
  224MOL0     C30171   7.349   5.562   8.388  0.3052  0.6519  0.0276
  224MOL0     C30172   7.245   5.632   8.441  1.0737 -0.2201 -0.1453
  224MOL0     H30173   6.883   5.891   8.449  1.5698 -0.5854  2.1002
  224MOL0     H30174   6.691   6.031   8.534 -1.6663  0.4616  5.4109
  224MOL0     H30175   6.494   6.112   8.670 -0.0886  0.8298 -0.1620
  224MOL0     H30176   6.461   6.114   8.496  1.4316 -0.2893  0.3400
  224MOL0     H30177   6.232   6.066   8.685 -1.9232  0.1362 -0.8121
  224MOL0     H30178   6.269   6.208   8.586 -0.5011 -1.2300 -3.2250
  224MOL0     H30179   6.237   6.099   8.389 -1.1303  0.6060 -0.7356
  224MOL0     H30180   6.207   5.940   8.470  2.6838  0.2857  0.6804
  224MOL0     H30181   6.011   6.031   8.581 -2.4181 -0.5060 -1.4256
  224MOL0     H30182   6.056   6.189   8.514  0.0759 -0.4053 -0.3685
  224MOL0     H30183   6.038   6.098   8.285 -0.2401 -1.5841  0.1436
  224MOL0     H30184   5.985   5.945   8.340  2.5601 -0.4520  0.8742
  224MOL0     H30185   5.773   6.042   8.427  0.3095  1.9106  1.6058
  224MOL0     H30186   5.833   6.206   8.400  0.1902  0.7842  0.4214
  224MOL0     H30187   5.685   6.167   8.226  1.4366  1.8861  0.6739
  224MOL0     H30188   5.851   6.158   8.165  3.6974 -1.5573  4.1305
  224MOL0     H30189   5.853   5.915   8.145 -1.1438 -0.6805 -0.3370
  224MOL0     H30190   5.721   5.987   8.058 -1.1801 -0.9382 -0.3907
  224MOL0     H30191   5.476   6.005   8.184  0.0099  0.0182  1.0469
  224MOL0     H30192   5.319   5.734   8.423  0.5204  1.8888  0.7252
  224MOL0     H30193   5.289   5.884   8.327  0.2726  0.1676 -2.4575
  224MOL0     H30194   5.355   5.639   8.157  0.3405 -0.5442  0.6079
  224MOL0     H30195   5.258   5.789   8.135 -0.1229  1.0922  1.2504
  224MOL0     H30196   5.073   5.690   8.275 -0.1060 -1.4124  0.5275
  224MOL0     H30197   5.184   5.565   8.318  0.5348 -1.9585 -1.5324
  224MOL0     H30198   5.113   5.436   8.162 -1.4992 -0.8789  0.7149
  224MOL0     H30199   5.154   5.557   8.035 -1.2318 -0.3078 -0.7496
  224MOL0     H30200   4.981   5.344   7.987 -1.3911 -1.7436  3.6437
  224MOL0     H30201   4.783   5.084   7.921  0.8361 -1.1867 -2.0239
  224MOL0     H30202   4.812   5.158   7.770  0.9247 -1.8004 -0.6803
  224MOL0     H30203   4.936   5.162   7.900 -0.3907  1.1203 -0.1048
  224MOL0     H30204   4.324   5.010   7.907 -1.6746  1.7022 -0.0823
  224MOL0     H30205   4.172   4.892   7.733 -2.1977  0.8805 -2.0360
  224MOL0     H30206   4.161   4.977   7.289 -0.0360  0.2438  0.2640
  224MOL0     H30207   4.293   4.856   7.328 -0.6034 -1.5176  2.6307
  224MOL0     H30208   4.101   4.760   7.193  0.5915  0.0104 -0.2765
  224MOL0     H30209   4.119   4.683   7.341 -2.4375 -1.1381 -0.9325
  224MOL0     H30210   3.927   4.846   7.437 -1.8892  2.0204 -0.5745
  224MOL0     H30211   3.885   4.725   7.322 -1.5841  0.4230 -1.6370
  224MOL0     H30212   3.938   5.013   7.243  0.9252 -0.2062  1.3345
  224MOL0     H30213   3.878   4.889   7.131  1.1978 -1.2304 -0.1154
  224MOL0     H30214   3.728   4.955   7.387  0.7699  0.9618 -0.6647
  224MOL0     H30215   3.681   4.832   7.274 -1.0256  0.1538 -1.0528
  224MOL0     H30216   3.677   5.135   7.226  0.3111 -0.1866 -0.0819
  224MOL0     H30217   3.686   5.015   7.085  0.8578  0.8969  0.1941
  224MOL0     H30218   3.503   5.010   7.325  0.5557 -1.6379  0.1316
  224MOL0     H30219   3.484   4.907   7.180  0.4684  0.7982 -0.4634
  224MOL0     H30220   3.408   5.104   7.050 -0.7480  2.8333  0.6027
  224MOL0     H30221   3.446   5.212   7.175  1.9021  0.3895 -0.7711
  224MOL0     H30222   4.375   5.095   7.408 -1.2933  4.8593  0.3849
  224MOL0     H30223   4.556   5.172   7.587 -0.1102 -0.2628  1.0037
  224MOL0     H30224   4.534   5.549   7.971  0.0129  0.1534  1.2152
  224MOL0     H30225   4.722   5.659   8.078 -0.2357 -1.5209  1.9629
  224MOL0     H30226   6.462   5.657   8.556 -1.9233  1.0217 -0.4232
  224MOL0     H30227   6.655   5.547   8.457  2.9758  0.6776 -2.0224
  224MOL0     H30228   7.001   5.421   8.346  0.3240 -0.2298 -2.4843
  224MOL0     H30229   7.197   5.289   8.257 -2.4410 -2.4828  4.4837
  224MOL0     H30230   7.612   5.448   8.349 -0.3580  0.5915 -1.9325
  224MOL0     H30231   7.552   5.300   8.436 -0.2151  2.5587  1.8739
  224MOL0     H30232   7.594   5.202   8.190 -1.0725  1.0614  0.1956
  224MOL0     H30233   7.708   5.194   8.321  2.6903  1.0909 -0.7633
  224MOL0     H30234   7.833   5.289   8.122  0.5217  1.0716 -1.1844
  224MOL0     H30235   7.799   5.432   8.217 -3.6750  0.8571  2.6757
  224MOL0     H30236   7.602   5.473   8.069  0.4318  0.0194  4.2441
  224MOL0     H30237   7.652   5.329   7.974 -2.7172  0.9686 -0.0174
  224MOL0     H30238   7.849   5.614   7.778  2.5026  2.7563  3.1573
  224MOL0     H30239   7.445   5.612   8.396  0.4348  0.4763 -0.3884
  224MOL0     H30240   7.263   5.725   8.493 -1.7115 -0.0744  0.7342
  225MOL0     O30241   6.228   7.936   0.826  0.6891  0.8026  0.4789
  225MOL0     C30242   6.247   7.880   0.715 -0.7366 -0.0413 -0.7579
  225MOL0     O30243   6.148   7.853   0.626 -0.1297 -0.5438  0.3763
  225MOL0     C30244   6.022   7.883   0.661 -0.9372 -0.0363  0.4075
  225MOL0     C30245   5.953   7.980   0.591  0.3172  0.4958 -0.0105
  225MOL0     C30246   5.809   7.975   0.593  0.3908 -0.2028 -0.5309
  225MOL0     C30247   5.744   7.888   0.675  0.9758  0.6569  0.2154
  225MOL0     O30248   5.610   7.892   0.671 -0.0061  0.0717  0.2419
  225MOL0     C30249   5.549   7.763   0.655  0.4827  0.6643 -0.2451
  225MOL0     C30250   5.400   7.792   0.608 -0.7393  0.2913 -0.2964
  225MOL0     C30251   5.308   7.794   0.735 -0.5548 -0.0890 -0.9605
  225MOL0     C30252   5.171   7.836   0.685 -0.0028 -0.1287 -0.1479
  225MOL0     C30253   5.050   7.790   0.764 -0.2685  0.0351  0.1717
  225MOL0     C30254   5.051   7.832   0.911  0.4340 -0.1925 -0.0235
  225MOL0     C30255   4.932   7.772   0.990 -0.8524  0.0707 -1.2322
  225MOL0     C30256   4.802   7.846   0.974 -0.0897  0.1344  0.5226
  225MOL0     N30257   4.805   7.982   1.028 -0.2872  0.1823 -0.7918
  225MOL0     C30258   4.816   8.025   1.155  0.0601 -0.3338  0.4702
  225MOL0     C30259   4.814   8.165   1.148  0.0519 -0.2336  1.1923
  225MOL0     C30260   4.835   8.278   1.239  0.0743  0.1819  0.4947
  225MOL0     C30261   4.707   8.325   1.309 -1.0425 -1.0002 -0.1899
  225MOL0     C30262   4.586   8.306   1.229 -0.0914  0.2567 -0.2255
  225MOL0     C30263   4.465   8.374   1.271  0.0173 -0.4325 -0.2404
  225MOL0     O30264   4.410   8.315   1.393 -0.2344 -0.0407  0.0650
  225MOL0     C30265   4.278   8.299   1.412  0.2264 -0.2337  0.4750
  225MOL0     C30266   4.177   8.372   1.346  0.0450  0.1522 -0.5294
  225MOL0     C30267   4.040   8.353   1.364 -0.3700 -0.7013 -0.3230
  225MOL0     C30268   3.950   8.445   1.289  0.6030  0.4752 -0.8977
  225MOL0     C30269   4.001   8.254   1.459  0.6515  0.3553  0.3488
  225MOL0     C30270   3.853   8.239   1.501  0.1222 -1.0368  0.3671
  225MOL0     O30271   3.752   8.284   1.413 -0.3231  0.1286  0.7995
  225MOL0     C30272   3.633   8.312   1.468 -0.3804 -0.1992 -0.1106
  225MOL0     C30273   3.542   8.206   1.490  0.2535 -0.2187 -0.0346
  225MOL0     C30274   3.417   8.232   1.537  0.5703  0.8240  0.1150
  225MOL0     C30275   3.379   8.367   1.573 -0.3464 -0.1274  0.7603
  225MOL0     O30276   3.264   8.396   1.634 -0.9752 -0.0776  1.0034
  225MOL0     C30277   3.143   8.320   1.611  0.5010 -0.2196 -0.0619
  225MOL0     C30278   3.020   8.410   1.622 -0.3433 -0.3972  0.0661
  225MOL0     C30279   2.885   8.345   1.602  0.3996 -0.4093  0.6334
  225MOL0     C30280   2.832   8.278   1.735  0.3580 -0.3939  0.7747
  225MOL0     C30281   2.688   8.220   1.719  0.3299 -1.4049  0.5325
  225MOL0     C30282   2.580   8.332   1.698  0.2586  0.3195 -0.2446
  225MOL0     C30283   2.443   8.280   1.730  0.0162  0.5382 -0.3220
  225MOL0     C30284   2.392   8.283   1.876 -0.3063  1.0075  0.1482
  225MOL0    Cl30285   2.497   8.190   1.996 -0.3966  0.0905  0.3668
  225MOL0     C30286   3.472   8.468   1.560 -0.3692 -0.0130 -0.1973
  225MOL0     C30287   3.594   8.440   1.500 -0.6438 -0.3785 -0.5972
  225MOL0     O30288   3.833   8.207   1.617  1.0024  0.5745  0.5986
  225MOL0     C30289   4.102   8.184   1.535 -0.0606  0.7262 -0.0822
  225MOL0     C30290   4.234   8.203   1.505 -0.4793 -0.3958 -0.5967
  225MOL0     N30291   4.791   8.199   1.015  0.8804 -0.1973  0.0641
  225MOL0     N30292   4.784   8.091   0.953  0.3661 -0.5042 -0.1877
  225MOL0     C30293   5.818   7.796   0.744 -0.2220  0.0372  0.0449
  225MOL0     C30294   5.958   7.797   0.741 -0.5782  0.9060 -0.4544
  225MOL0     C30295   6.389   7.861   0.679 -0.3041  0.5843  0.3409
  225MOL0     C30296   6.496   7.937   0.725 -0.2012 -0.1213 -0.1690
  225MOL0     C30297   6.624   7.930   0.665  0.5008 -0.1889 -0.6080
  225MOL0     C30298   6.653   7.848   0.562 -0.4882  0.6195 -0.2047
  225MOL0     O30299   6.779   7.845   0.502  0.0530 -0.1919  0.6922
  225MOL0     C30300   6.860   7.736   0.550  0.3640  0.0024 -0.2512
  225MOL0     C30301   6.919   7.765   0.690 -0.6645  0.1272 -0.1610
  225MOL0     C30302   7.041   7.856   0.685  0.0252 -0.6711 -0.2129
  225MOL0     C30303   7.006   8.007   0.676  0.2598 -1.0605 -0.3997
  225MOL0     C30304   7.124   8.091   0.655  0.3088 -0.3801  0.8747
  225MOL0     C30305   7.240   8.137   0.640 -0.3138 -0.1156 -0.1387
  225MOL0     C30306   6.551   7.755   0.531 -0.3488 -0.4622  0.6443
  225MOL0     C30307   6.419   7.766   0.584 -0.6256 -0.3348 -0.4466
  225MOL0     H30308   6.001   8.046   0.520  0.7568 -0.4550 -0.6210
  225MOL0     H30309   5.750   8.046   0.534  1.0275  2.2887  1.6238
  225MOL0     H30310   5.595   7.704   0.575 -0.8380  0.5541 -0.9721
  225MOL0     H30311   5.544   7.699   0.744  1.3109  0.4906 -0.3137
  225MOL0     H30312   5.392   7.879   0.544 -5.1931  0.5024  0.2523
  225MOL0     H30313   5.366   7.705   0.551 -0.6664 -0.0354  0.1469
  225MOL0     H30314   5.300   7.699   0.788 -0.1278  0.9167  0.9947
  225MOL0     H30315   5.339   7.866   0.811 -0.8699 -1.5830  0.6354
  225MOL0     H30316   5.171   7.944   0.663  2.2383 -0.3689 -1.6977
  225MOL0     H30317   5.156   7.776   0.595  0.4985 -1.5307  0.6881
  225MOL0     H30318   4.959   7.806   0.705  1.9385 -2.0245 -4.2624
  225MOL0     H30319   5.059   7.681   0.766  0.4927 -0.0299 -2.7896
  225MOL0     H30320   5.151   7.816   0.952  1.2650  1.0099 -1.4398
  225MOL0     H30321   5.045   7.941   0.924  2.0375 -0.2867  2.0543
  225MOL0     H30322   4.911   7.669   0.961 -4.5324  0.5798 -0.9090
  225MOL0     H30323   4.957   7.783   1.096  1.1945  0.5557 -1.7172
  225MOL0     H30324   4.714   7.796   1.013 -1.5683  0.0634 -2.6074
  225MOL0     H30325   4.793   7.853   0.865  0.2473  0.8104  0.5287
  225MOL0     H30326   4.834   7.962   1.242  0.9400 -0.4286  0.2295
  225MOL0     H30327   4.920   8.248   1.301  0.3764  0.7975  0.3804
  225MOL0     H30328   4.869   8.366   1.185 -0.2377  0.0035  0.0039
  225MOL0     H30329   4.715   8.432   1.332 -3.8024 -0.6969 -0.2636
  225MOL0     H30330   4.713   8.266   1.401 -1.5321  1.5743  1.6104
  225MOL0     H30331   4.560   8.203   1.207  2.1196 -0.4162  0.0843
  225MOL0     H30332   4.607   8.348   1.130  1.3976 -2.1390 -1.0012
  225MOL0     H30333   4.383   8.362   1.200 -0.5042  1.1641  0.0626
  225MOL0     H30334   4.479   8.480   1.292  0.0824 -0.4489 -0.2022
  225MOL0     H30335   4.211   8.448   1.275 -0.5906  1.7405  0.7930
  225MOL0     H30336   3.886   8.391   1.219 -0.8599  0.7258  0.2126
  225MOL0     H30337   3.886   8.506   1.353  0.5979 -0.0664 -0.3803
  225MOL0     H30338   4.016   8.510   1.230  2.7144 -2.1787 -1.6884
  225MOL0     H30339   3.582   8.108   1.465  0.4426 -0.3243  0.6720
  225MOL0     H30340   3.345   8.154   1.562 -0.8363  2.3944  1.2384
  225MOL0     H30341   3.155   8.276   1.511  0.7746  1.9647 -1.0652
  225MOL0     H30342   3.137   8.243   1.688  3.5977  1.7140  2.4141
  225MOL0     H30343   3.024   8.452   1.723  1.9386 -0.8129  0.1984
  225MOL0     H30344   3.030   8.495   1.554 -3.1068  1.8200  2.1992
  225MOL0     H30345   2.891   8.275   1.517  3.9773 -0.7191  0.9884
  225MOL0     H30346   2.818   8.429   1.584 -1.1325 -1.3831  1.5140
  225MOL0     H30347   2.894   8.192   1.758 -2.7443 -2.9220  0.4569
  225MOL0     H30348   2.821   8.337   1.826 -0.6743  1.0188 -0.2209
  225MOL0     H30349   2.668   8.160   1.809  0.9738 -1.1630  0.8376
  225MOL0     H30350   2.697   8.152   1.633  2.1071 -0.8242  0.2200
  225MOL0     H30351   2.594   8.429   1.747  0.3422  1.2125 -1.9495
  225MOL0     H30352   2.579   8.360   1.592 -3.1940  4.4059  0.5849
  225MOL0     H30353   2.429   8.181   1.685 -3.5361  0.8925 -0.3294
  225MOL0     H30354   2.371   8.343   1.677 -1.2289 -0.9659 -0.5182
  225MOL0     H30355   2.293   8.240   1.891  0.7392 -1.1691  1.3570
  225MOL0     H30356   2.384   8.387   1.908 -2.1940  0.1433  2.7587
  225MOL0     H30357   3.447   8.568   1.595  0.7634  0.9254 -1.9169
  225MOL0     H30358   3.668   8.516   1.477 -0.8930  0.7822  2.1302
  225MOL0     H30359   4.078   8.109   1.610  1.5211  0.5646  0.2846
  225MOL0     H30360   4.307   8.156   1.571 -0.3750 -1.6778 -1.5874
  225MOL0     H30361   5.763   7.721   0.800 -1.2769  0.5410 -0.3072
  225MOL0     H30362   6.015   7.719   0.791 -2.9392 -0.8622 -0.3788
  225MOL0     H30363   6.462   8.006   0.802 -0.4856 -0.1098 -0.3027
  225MOL0     H30364   6.703   7.990   0.710  0.0675  0.3017 -0.4905
  225MOL0     H30365   6.805   7.641   0.549 -1.3837  0.9006  1.8310
  225MOL0     H30366   6.939   7.712   0.478  1.2666  0.4945  0.5433
  225MOL0     H30367   6.955   7.671   0.732  1.0797  0.3801 -0.9906
  225MOL0     H30368   6.844   7.795   0.764  0.0539  1.2633  0.1394
  225MOL0     H30369   7.095   7.827   0.594 -0.0634 -1.5499  0.0081
  225MOL0     H30370   7.108   7.837   0.770 -0.3060 -2.4417 -0.3091
  225MOL0     H30371   6.959   8.037   0.771  0.6890  2.5042 -1.1504
  225MOL0     H30372   6.945   8.034   0.589  1.4728  0.3039 -0.8553
  225MOL0     H30373   7.335   8.183   0.625 -0.2605 -0.3372 -0.4812
  225MOL0     H30374   6.570   7.683   0.452  0.6992  1.8736 -1.3529
  225MOL0     H30375   6.344   7.694   0.554 -0.5300 -1.0901  1.0621
  226MOL0     O30376   6.158  10.665   8.992  0.3076 -0.3973  0.2833
  226MOL0     C30377   6.249  10.688   8.917 -0.0804  0.6959  0.1943
  226MOL0     O30378   6.259  10.797   8.836  0.7661  0.7020  0.3397
  226MOL0     C30379   6.161  10.890   8.861 -0.1507  0.9375 -0.7653
  226MOL0     C30380   6.028  10.859   8.855  0.1541  0.5003 -0.6748
  226MOL0     C30381   5.935  10.957   8.875  0.1570 -0.0969 -0.2419
  226MOL0     C30382   5.971  11.083   8.915  0.4289  0.4040  0.2023
  226MOL0     O30383   5.879  11.189   8.935 -0.1104  0.1499  0.2720
  226MOL0     C30384   5.749  11.196   8.874  0.5038  0.1593 -0.0351
  226MOL0     C30385   5.764  11.215   8.720  0.2669  0.4998  0.2563
  226MOL0     C30386   5.631  11.242   8.653 -0.0256  0.7543  0.2591
  226MOL0     C30387   5.582  11.386   8.686 -1.0721  0.7807  0.3282
  226MOL0     C30388   5.449  11.403   8.625 -0.0748 -0.8911  0.1017
  226MOL0     C30389   5.388  11.552   8.662 -0.1028  0.8412  0.9729
  226MOL0     C30390   5.245  11.575   8.606 -0.1661 -0.4744 -0.0739
  226MOL0     C30391   5.233  11.578   8.455  0.8736 -0.0984  0.4098
  226MOL0     N30392   5.089  11.596   8.421 -0.1886 -0.2682 -0.0359
  226MOL0     C30393   5.013  11.512   8.339 -0.4652 -0.8315 -0.4686
  226MOL0     C30394   4.900  11.583   8.327  0.0319 -0.9899 -0.2638
  226MOL0     C30395   4.778  11.527   8.249 -0.6542  0.7628 -0.4837
  226MOL0     C30396   4.662  11.625   8.241  0.2227  0.0571  0.0333
  226MOL0     C30397   4.556  11.561   8.155  0.1301  0.5615  0.1602
  226MOL0     C30398   4.439  11.663   8.147  0.0221  1.1193  0.8570
  226MOL0     O30399   4.319  11.584   8.103  0.2429  0.6720  0.2603
  226MOL0     C30400   4.208  11.648   8.072  0.0915  0.3968  0.0450
  226MOL0     C30401   4.192  11.785   8.074 -0.5985 -0.3398 -0.1301
  226MOL0     C30402   4.070  11.845   8.039 -0.1672  0.2220  0.9323
  226MOL0     C30403   4.062  12.000   8.043 -0.0502 -0.8693 -0.5941
  226MOL0     C30404   3.956  11.768   7.989 -0.2603 -0.1660 -0.9707
  226MOL0     C30405   3.830  11.827   7.944  0.8217 -0.4638 -0.6468
  226MOL0     O30406   3.803  11.957   7.939 -0.2815  0.3814  0.1583
  226MOL0     C30407   3.678  12.011   7.916 -1.1692  0.2774  0.3692
  226MOL0     C30408   3.680  12.143   7.877  0.4381 -0.4358 -0.5690
  226MOL0     C30409   3.560  12.207   7.845 -0.4002 -0.0658 -0.6788
  226MOL0     C30410   3.438  12.136   7.847 -0.3721 -0.1461  0.0194
  226MOL0     O30411   3.335  12.208   7.809  0.9933  0.3603  0.0909
  226MOL0     C30412   3.247  12.263   7.914  0.7095 -0.2430 -0.6001
  226MOL0     C30413   3.103  12.261   7.874 -0.4889  0.7695 -0.4186
  226MOL0     C30414   3.003  12.326   7.977 -0.5245 -0.4263 -0.5518
  226MOL0     C30415   2.866  12.327   7.918  0.7796 -0.1762  0.6109
  226MOL0     C30416   2.765  12.407   8.004  0.5113 -0.6488  0.4568
  226MOL0     C30417   2.626  12.389   7.949  0.2586  0.3706  0.4872
  226MOL0     C30418   2.524  12.438   8.051  0.0885  0.1669 -0.3382
  226MOL0     C30419   2.388  12.382   8.009 -0.5906  0.1392  0.3846
  226MOL0    Cl30420   2.270  12.347   8.138 -0.4391  0.1318 -0.3481
  226MOL0     C30421   3.429  12.009   7.899 -0.3685  0.4823 -0.3124
  226MOL0     C30422   3.553  11.950   7.931 -0.4354  0.0371  0.0059
  226MOL0     O30423   3.743  11.744   7.915 -0.5919 -0.0048  0.0266
  226MOL0     C30424   3.973  11.634   7.987  0.2494 -0.3620  0.4092
  226MOL0     C30425   4.099  11.573   8.016 -0.2849  0.3977 -0.1941
  226MOL0     N30426   4.914  11.703   8.397 -0.2400  0.4669 -0.2854
  226MOL0     N30427   5.026  11.710   8.455  0.0603 -0.2134 -0.8863
  226MOL0     C30428   6.107  11.108   8.939 -0.6758 -0.3566  0.1577
  226MOL0     C30429   6.199  11.010   8.911 -0.9552 -0.0106  0.0589
  226MOL0     C30430   6.362  10.592   8.913 -0.2612 -0.0151 -0.4099
  226MOL0     C30431   6.490  10.628   8.868 -0.1303 -0.0730  0.0718
  226MOL0     C30432   6.590  10.530   8.878 -0.7462  0.5323 -0.3055
  226MOL0     C30433   6.571  10.397   8.918 -0.8310 -1.0325 -0.2050
  226MOL0     O30434   6.671  10.302   8.929 -0.2335 -0.2074  0.7625
  226MOL0     C30435   6.811  10.340   8.903  1.1189  0.4699 -0.0389
  226MOL0     C30436   6.888  10.211   8.917 -0.5335 -0.9012 -0.0768
  226MOL0     C30437   7.045  10.223   8.903 -0.1152  0.9143 -0.2311
  226MOL0     C30438   7.117  10.087   8.885 -0.1584 -0.2663  0.4383
  226MOL0     C30439   7.071   9.996   8.987 -0.6135  0.6623  0.5623
  226MOL0     C30440   7.035   9.918   9.073  0.0835 -0.7423 -0.3690
  226MOL0     C30441   6.447  10.371   8.978 -0.5453  0.1336  0.2250
  226MOL0     C30442   6.345  10.466   8.973 -0.1429 -0.0156 -0.9791
  226MOL0     H30443   5.996  10.762   8.819  1.8357 -1.3408  2.3480
  226MOL0     H30444   5.832  10.943   8.845 -0.6506  0.2974  2.1253
  226MOL0     H30445   5.691  11.109   8.905 -0.7945  0.2337 -2.0970
  226MOL0     H30446   5.700  11.283   8.918  0.8610  0.4643 -0.2364
  226MOL0     H30447   5.832  11.296   8.693 -0.5467  0.3970 -2.3832
  226MOL0     H30448   5.794  11.115   8.688 -0.2231 -0.2072  1.8950
  226MOL0     H30449   5.644  11.229   8.545 -1.6185  0.2583  0.0993
  226MOL0     H30450   5.557  11.168   8.684  0.3060  0.4764  0.3927
  226MOL0     H30451   5.570  11.411   8.792  1.0361  1.8133  0.3849
  226MOL0     H30452   5.647  11.461   8.640 -1.2182  0.8632  0.2569
  226MOL0     H30453   5.463  11.408   8.517 -0.4247 -0.5589  0.0712
  226MOL0     H30454   5.379  11.323   8.650  0.7873 -1.6014  0.3276
  226MOL0     H30455   5.387  11.580   8.768 -2.0239  1.7497  0.7566
  226MOL0     H30456   5.443  11.629   8.607 -2.7214  0.4242 -2.6212
  226MOL0     H30457   5.189  11.490   8.646  0.5525  0.1289  2.4586
  226MOL0     H30458   5.214  11.674   8.643  0.6220 -0.2422 -0.0210
  226MOL0     H30459   5.271  11.484   8.413 -1.4233  0.3629 -3.1437
  226MOL0     H30460   5.283  11.670   8.425  1.8495 -1.1516 -1.3543
  226MOL0     H30461   5.052  11.421   8.295 -1.1133 -2.2625  1.7643
  226MOL0     H30462   4.816  11.502   8.150 -0.2737 -0.0014 -0.1509
  226MOL0     H30463   4.752  11.436   8.304 -0.4441  0.8909 -0.1680
  226MOL0     H30464   4.692  11.721   8.197  4.0065 -1.5694 -1.4222
  226MOL0     H30465   4.620  11.634   8.342 -1.1673 -4.3032  0.0616
  226MOL0     H30466   4.523  11.465   8.195 -0.2790  1.5338  2.2705
  226MOL0     H30467   4.599  11.531   8.059 -1.2673  1.1203 -0.6694
  226MOL0     H30468   4.468  11.738   8.073 -0.3186 -1.8788 -2.5761
  226MOL0     H30469   4.414  11.702   8.246  2.2593  1.6191  1.2829
  226MOL0     H30470   4.273  11.851   8.103 -1.3256  0.7746 -0.5492
  226MOL0     H30471   3.973  12.035   8.096 -1.6133 -1.9333 -2.3782
  226MOL0     H30472   4.150  12.043   8.092 -0.4337 -2.0428  1.2188
  226MOL0     H30473   4.059  12.039   7.941 -0.5390 -0.5943 -0.4796
  226MOL0     H30474   3.771  12.199   7.862 -1.0715  1.3434 -4.4725
  226MOL0     H30475   3.569  12.312   7.817  0.7399 -0.1207 -0.5656
  226MOL0     H30476   3.267  12.223   8.014 -0.3454  5.3262  2.2263
  226MOL0     H30477   3.276  12.368   7.911 -0.5707  0.1393 -0.1510
  226MOL0     H30478   3.093  12.309   7.776 -0.5783 -0.9307 -1.2989
  226MOL0     H30479   3.080  12.155   7.855  1.0392  0.2805  0.2911
  226MOL0     H30480   3.046  12.421   8.010  0.3044 -1.7552  2.6114
  226MOL0     H30481   2.994  12.256   8.061  1.6889 -1.2185 -0.8937
  226MOL0     H30482   2.868  12.371   7.818 -0.4155 -1.8055 -0.1645
  226MOL0     H30483   2.837  12.222   7.910 -2.6463  0.6199  1.1643
  226MOL0     H30484   2.800  12.511   7.999  1.2448 -0.9203 -0.2319
  226MOL0     H30485   2.779  12.370   8.106 -1.3825 -0.4298  0.8434
  226MOL0     H30486   2.616  12.443   7.855 -2.3909  3.3009  2.2596
  226MOL0     H30487   2.603  12.283   7.934 -1.1605  1.1496 -4.6943
  226MOL0     H30488   2.512  12.546   8.064 -1.2777 -0.1664  1.5851
  226MOL0     H30489   2.550  12.398   8.149 -2.7376 -0.3592  0.2672
  226MOL0     H30490   2.407  12.289   7.955  3.6493  1.7260 -1.2499
  226MOL0     H30491   2.341  12.442   7.931 -0.2267  0.3300  0.3069
  226MOL0     H30492   3.342  11.946   7.886  0.4751 -1.1415  1.3102
  226MOL0     H30493   3.559  11.849   7.970  4.4438  0.5073  1.1756
  226MOL0     H30494   3.903  11.564   7.943 -0.8909 -0.2786  1.9839
  226MOL0     H30495   4.120  11.467   8.013  0.1117  0.3567  2.0673
  226MOL0     H30496   6.134  11.209   8.966 -1.1423  0.9479 -3.6571
  226MOL0     H30497   6.305  11.029   8.913 -0.5435 -2.0673  0.4272
  226MOL0     H30498   6.505  10.731   8.838  2.3242  0.0158  1.3579
  226MOL0     H30499   6.680  10.550   8.820 -0.9984  3.5800  0.1924
  226MOL0     H30500   6.827  10.383   8.804  2.2732  1.1731  0.4258
  226MOL0     H30501   6.849  10.418   8.971 -2.1287  3.9027 -1.7692
  226MOL0     H30502   6.848  10.129   8.856 -0.6960 -0.4425 -0.5940
  226MOL0     H30503   6.871  10.175   9.019 -1.2348  0.2952  0.2477
  226MOL0     H30504   7.088  10.264   8.995  1.9923 -2.4895  0.4749
  226MOL0     H30505   7.057  10.292   8.818 -3.0404  3.9717  1.5530
  226MOL0     H30506   7.225  10.095   8.901 -0.1311 -0.2452  0.2473
  226MOL0     H30507   7.096  10.054   8.783  1.1537 -1.2085  0.4526
  226MOL0     H30508   7.003   9.842   9.141 -0.4340  0.9971  1.4267
  226MOL0     H30509   6.432  10.269   9.012 -1.5918 -1.0670 -3.4072
  226MOL0     H30510   6.247  10.432   9.006 -0.5153  1.0077 -0.9656
  227MOL0     O30511   5.876   0.289   8.511  0.2228  0.3780  0.3997
  227MOL0     C30512   5.970   0.362   8.497  0.2690 -0.4674 -1.2956
  227MOL0     O30513   5.976   0.473   8.416  0.8312  0.1643  0.0363
  227MOL0     C30514   5.875   0.520   8.329  0.0894 -0.2593 -0.4251
  227MOL0     C30515   5.915   0.634   8.246  0.0357  0.9501  0.5860
  227MOL0     C30516   5.818   0.682   8.159 -0.7347 -0.0901  0.2767
  227MOL0     C30517   5.686   0.628   8.152  0.2469  0.2803 -0.3566
  227MOL0     O30518   5.604   0.701   8.066 -0.1882  0.7342 -0.5247
  227MOL0     C30519   5.474   0.644   8.050  0.3146 -0.7265 -0.4537
  227MOL0     C30520   5.424   0.671   7.910 -0.8538  0.5574 -0.2598
  227MOL0     C30521   5.281   0.640   7.886 -0.5828  0.1228  0.0632
  227MOL0     C30522   5.186   0.718   7.990 -0.7128 -0.0226  0.1787
  227MOL0     C30523   5.033   0.697   7.956 -0.5841  0.4152  0.6374
  227MOL0     C30524   4.937   0.722   8.068  0.2666  0.1109  0.0534
  227MOL0     C30525   4.792   0.697   8.034 -0.2654  0.9003  0.1324
  227MOL0     C30526   4.727   0.818   7.962  0.3851 -0.0169  0.8159
  227MOL0     N30527   4.595   0.797   7.915  0.2006 -0.5671 -0.1284
  227MOL0     C30528   4.549   0.776   7.784  0.1611 -0.5070 -0.1897
  227MOL0     C30529   4.409   0.760   7.809  0.2763  0.0245  0.0884
  227MOL0     C30530   4.307   0.746   7.701 -0.5025  0.2828  0.4962
  227MOL0     C30531   4.316   0.614   7.619 -0.0321 -0.3985 -0.5373
  227MOL0     C30532   4.313   0.482   7.706 -0.5081  0.1988  0.0875
  227MOL0     C30533   4.317   0.358   7.614 -0.8301  0.1406  0.6531
  227MOL0     O30534   4.431   0.351   7.530 -0.2050  0.2015  0.2498
  227MOL0     C30535   4.554   0.339   7.586 -0.1651  0.0062 -0.1211
  227MOL0     C30536   4.645   0.430   7.551 -0.1229 -0.3352  1.2972
  227MOL0     C30537   4.763   0.443   7.615 -0.6033  0.1085 -0.2045
  227MOL0     C30538   4.855   0.558   7.565  1.1326 -0.4797 -0.2691
  227MOL0     C30539   4.796   0.349   7.725  1.1075 -0.0235  0.7979
  227MOL0     C30540   4.928   0.342   7.791  0.1191 -0.4212  0.0456
  227MOL0     O30541   4.931   0.271   7.909 -0.0779 -0.3478 -0.4763
  227MOL0     C30542   5.051   0.266   7.969  0.3931 -0.8510 -0.0607
  227MOL0     C30543   5.138   0.167   7.933  0.0810 -0.3854 -0.2608
  227MOL0     C30544   5.264   0.164   7.988 -0.8356  0.1788  0.0127
  227MOL0     C30545   5.324   0.270   8.060  0.5075  0.4238  0.0597
  227MOL0     O30546   5.452   0.293   8.100 -0.0218  0.0349 -0.2956
  227MOL0     C30547   5.549   0.199   8.051 -0.8426  0.1388 -1.0107
  227MOL0     C30548   5.616   0.229   7.922  0.2775 -0.7784  0.5268
  227MOL0     C30549   5.536   0.200   7.793  0.0131 -0.0014  0.0504
  227MOL0     C30550   5.620   0.204   7.662  0.5143  1.1771 -0.1073
  227MOL0     C30551   5.677   0.339   7.611  0.3205 -0.0588 -0.2151
  227MOL0     C30552   5.568   0.443   7.590  0.2761 -1.5251  0.4897
  227MOL0     C30553   5.441   0.414   7.512 -0.9362 -0.0993  0.8832
  227MOL0     C30554   5.334   0.531   7.533  0.2575  0.0116  0.2764
  227MOL0    Cl30555   5.190   0.465   7.442  0.4447 -0.0476 -0.2982
  227MOL0     C30556   5.236   0.370   8.095  0.1382 -0.2000 -0.5184
  227MOL0     C30557   5.104   0.367   8.053 -0.2928 -0.7244  0.1824
  227MOL0     O30558   5.023   0.407   7.747 -0.0740 -0.3031 -0.4695
  227MOL0     C30559   4.704   0.241   7.757  0.3127 -0.8977 -0.6154
  227MOL0     C30560   4.581   0.244   7.688  0.1871  0.0516 -0.5827
  227MOL0     N30561   4.375   0.772   7.941 -0.6944 -0.2395  0.1892
  227MOL0     N30562   4.483   0.795   7.995  0.4277 -0.7515  0.3949
  227MOL0     C30563   5.657   0.526   8.239  0.1583  0.1404 -0.0191
  227MOL0     C30564   5.748   0.467   8.327  0.1411  0.5064 -0.1887
  227MOL0     C30565   6.095   0.338   8.576  0.3980  0.2622  0.3550
  227MOL0     C30566   6.124   0.218   8.635 -0.0363  0.1561  0.6069
  227MOL0     C30567   6.246   0.198   8.703 -0.5789 -0.1459  0.3586
  227MOL0     C30568   6.346   0.288   8.708 -0.6160 -0.2259 -0.3098
  227MOL0     O30569   6.453   0.253   8.785  0.6779  0.7063 -0.0578
  227MOL0     C30570   6.559   0.346   8.799 -0.1879  0.2426 -0.3026
  227MOL0     C30571   6.670   0.286   8.881  0.1915  0.4449 -0.0820
  227MOL0     C30572   6.711   0.144   8.826  0.3177 -0.5160 -0.6711
  227MOL0     C30573   6.854   0.095   8.873  0.8044 -0.4929 -0.7057
  227MOL0     C30574   6.959   0.195   8.881 -0.0845  0.2673  0.0336
  227MOL0     C30575   7.055   0.272   8.888  0.0864  1.2456 -0.3633
  227MOL0     C30576   6.312   0.422   8.665 -0.4787 -0.3703 -0.5169
  227MOL0     C30577   6.188   0.444   8.595 -0.1187 -0.9061 -0.0076
  227MOL0     H30578   6.016   0.672   8.247  0.3364  0.2359 -0.8332
  227MOL0     H30579   5.844   0.752   8.080 -2.0818 -1.3253 -1.3149
  227MOL0     H30580   5.472   0.536   8.070  2.5134 -0.2147  3.7269
  227MOL0     H30581   5.404   0.691   8.120  0.2122 -1.4684 -0.0484
  227MOL0     H30582   5.436   0.778   7.888 -0.1035  0.4162 -0.5970
  227MOL0     H30583   5.479   0.606   7.841 -1.8139  1.6849 -2.1959
  227MOL0     H30584   5.251   0.685   7.791 -1.3315  0.8704  0.6500
  227MOL0     H30585   5.274   0.531   7.882 -0.7962  0.1563 -0.5302
  227MOL0     H30586   5.205   0.684   8.092  1.4551 -2.6945 -0.9753
  227MOL0     H30587   5.183   0.827   7.979  1.5399 -0.1298 -3.0737
  227MOL0     H30588   5.013   0.748   7.862 -0.0191 -1.9336 -0.8462
  227MOL0     H30589   5.026   0.589   7.936 -1.1878  0.7019 -0.7377
  227MOL0     H30590   4.965   0.657   8.151  1.6771  0.8824  0.2320
  227MOL0     H30591   4.942   0.826   8.104 -1.6970 -0.1922  1.3167
  227MOL0     H30592   4.793   0.603   7.978  0.0679  1.0357 -0.0989
  227MOL0     H30593   4.732   0.673   8.122 -0.3115  1.2886  0.2066
  227MOL0     H30594   4.775   0.826   7.865  0.7322  1.3140  1.0874
  227MOL0     H30595   4.746   0.912   8.014  2.9923  0.7227 -1.2404
  227MOL0     H30596   4.606   0.784   7.692  2.5620  2.2361  1.3396
  227MOL0     H30597   4.210   0.734   7.750 -0.6915  2.7797  0.8855
  227MOL0     H30598   4.312   0.835   7.637 -0.1146 -0.5290 -0.6343
  227MOL0     H30599   4.413   0.620   7.569 -0.0423  0.4486 -0.4659
  227MOL0     H30600   4.237   0.605   7.543  1.7351  0.4698 -2.5710
  227MOL0     H30601   4.224   0.481   7.770  0.6731  1.7920  1.8700
  227MOL0     H30602   4.407   0.473   7.760 -0.2917  1.1405 -0.1180
  227MOL0     H30603   4.236   0.359   7.540  1.1545  0.2136 -1.6335
  227MOL0     H30604   4.303   0.271   7.679 -0.8978 -0.5195 -0.2197
  227MOL0     H30605   4.620   0.490   7.464  0.1300 -2.3172 -0.2049
  227MOL0     H30606   4.815   0.611   7.478 -2.0131  0.0383  1.3779
  227MOL0     H30607   4.875   0.634   7.641 -0.4569 -0.0073 -0.2988
  227MOL0     H30608   4.950   0.510   7.537  0.8258 -1.7737  0.8326
  227MOL0     H30609   5.095   0.103   7.856 -0.4125  1.6099 -1.7321
  227MOL0     H30610   5.321   0.076   7.962  0.9192  1.3896 -0.3761
  227MOL0     H30611   5.624   0.196   8.131  0.7396 -2.5117 -2.4461
  227MOL0     H30612   5.503   0.100   8.052 -0.2801 -0.1310  0.2855
  227MOL0     H30613   5.647   0.334   7.933  1.5267 -1.0918  0.1175
  227MOL0     H30614   5.703   0.164   7.913 -0.6121 -1.9275  0.0145
  227MOL0     H30615   5.451   0.269   7.788  1.5215  2.1899  2.3377
  227MOL0     H30616   5.494   0.102   7.815 -4.2739  2.2957  3.6372
  227MOL0     H30617   5.708   0.140   7.671 -0.1299 -0.2045 -2.6721
  227MOL0     H30618   5.559   0.146   7.593  1.2079  0.2313  0.0632
  227MOL0     H30619   5.722   0.318   7.513 -0.1331 -1.5909 -0.1112
  227MOL0     H30620   5.754   0.374   7.680  0.2749 -4.1195  2.1787
  227MOL0     H30621   5.534   0.487   7.685  1.8472  0.9032  0.0205
  227MOL0     H30622   5.622   0.525   7.541 -1.3369  0.0930  1.2934
  227MOL0     H30623   5.388   0.322   7.535 -0.9125 -0.3640 -0.0994
  227MOL0     H30624   5.479   0.413   7.410 -1.6102 -0.5655  0.6371
  227MOL0     H30625   5.367   0.628   7.494 -0.5250 -0.0533 -0.5889
  227MOL0     H30626   5.307   0.534   7.639 -0.2698 -0.6068  0.1724
  227MOL0     H30627   5.267   0.461   8.146  2.6659  0.6553 -3.3205
  227MOL0     H30628   5.043   0.451   8.085  2.9825  1.6165  0.7920
  227MOL0     H30629   4.729   0.165   7.830 -2.7277 -2.1587 -0.7629
  227MOL0     H30630   4.509   0.168   7.718  1.1964 -1.3124 -1.5258
  227MOL0     H30631   5.566   0.469   8.260  1.9997 -3.2059 -0.3425
  227MOL0     H30632   5.718   0.384   8.389 -0.7003  1.0122  0.1044
  227MOL0     H30633   6.053   0.135   8.629 -0.5702  0.6957 -1.0514
  227MOL0     H30634   6.275   0.101   8.742 -1.8529 -1.2591 -1.2900
  227MOL0     H30635   6.609   0.365   8.704 -0.9758  1.2391 -0.5301
  227MOL0     H30636   6.523   0.437   8.847 -0.3247  0.8345 -1.4958
  227MOL0     H30637   6.627   0.277   8.980 -1.6703  0.5303 -0.8456
  227MOL0     H30638   6.750   0.361   8.883  0.4723  0.1675 -0.5926
  227MOL0     H30639   6.707   0.148   8.717 -1.8673 -0.5627 -0.6407
  227MOL0     H30640   6.646   0.064   8.865 -0.6177  0.6361  0.2234
  227MOL0     H30641   6.879   0.019   8.798  0.9485  0.5248 -1.7147
  227MOL0     H30642   6.844   0.048   8.971  2.6401 -0.0561 -0.2821
  227MOL0     H30643   7.144   0.331   8.899  0.2603  1.2883 -1.8610
  227MOL0     H30644   6.385   0.503   8.674 -2.0639  0.8694  4.0043
  227MOL0     H30645   6.164   0.537   8.546 -3.5152 -3.6086 -4.1465
  228MOL0     O30646  10.326   4.001   5.524 -0.1790 -0.1687 -0.1018
  228MOL0     C30647  10.278   3.903   5.580  0.1099 -0.5160 -0.4671
  228MOL0     O30648  10.348   3.806   5.647  0.2461  0.2450 -0.0992
  228MOL0     C30649  10.485   3.784   5.650 -0.6953  0.7037  0.2632
  228MOL0     C30650  10.589   3.885   5.627 -0.6271 -0.2436 -0.2632
  228MOL0     C30651  10.723   3.854   5.639  0.4251 -0.1844  0.8573
  228MOL0     C30652  10.773   3.729   5.667  0.1688  0.6528  0.1657
  228MOL0     O30653  10.904   3.691   5.693 -0.1016  0.7819  0.2132
  228MOL0     C30654  11.000   3.796   5.733  0.8425  0.4941  0.0333
  228MOL0     C30655  11.085   3.871   5.625  0.1188  0.4882 -0.0065
  228MOL0     C30656  11.138   3.771   5.520 -0.7559  0.1558  0.2959
  228MOL0     C30657  11.269   3.819   5.445  0.2433  0.3498  0.0544
  228MOL0     C30658  11.300   3.717   5.327  0.1654  0.1961 -0.0798
  228MOL0     C30659  11.419   3.773   5.245  0.3837  0.0406  0.1385
  228MOL0     C30660  11.475   3.673   5.142  0.7979  0.0507 -0.0691
  228MOL0     C30661  11.564   3.736   5.032 -0.4536 -0.1556  0.8373
  228MOL0     N30662  11.485   3.812   4.937 -0.1428  0.2638  0.2714
  228MOL0     C30663  11.441   3.944   4.952  0.4128 -0.4076 -0.1713
  228MOL0     C30664  11.379   3.961   4.831 -0.9113 -0.0894  0.4560
  228MOL0     C30665  11.314   4.083   4.794  0.0941  0.2694 -0.4359
  228MOL0     C30666  11.161   4.078   4.775 -0.1458 -0.6107  0.0132
  228MOL0     C30667  11.097   4.218   4.790 -0.4657  0.1467 -0.0154
  228MOL0     C30668  10.947   4.213   4.756 -0.0977 -0.2891  0.5063
  228MOL0     O30669  10.873   4.149   4.862 -0.1704 -0.3338 -0.2899
  228MOL0     C30670  10.738   4.149   4.859  0.3738 -0.1435 -0.6191
  228MOL0     C30671  10.651   4.187   4.751 -0.2345  0.1048 -0.3925
  228MOL0     C30672  10.511   4.191   4.761 -0.4447 -0.4867  0.0420
  228MOL0     C30673  10.425   4.224   4.645 -0.3953  0.2043  0.1536
  228MOL0     C30674  10.449   4.165   4.885 -0.4878  0.3550 -0.6786
  228MOL0     C30675  10.301   4.159   4.916 -0.3340  0.1193  0.7776
  228MOL0     O30676  10.255   4.127   5.047 -0.4860 -0.4760  0.9765
  228MOL0     C30677  10.121   4.149   5.071 -0.8453  0.1313  0.0992
  228MOL0     C30678  10.090   4.273   5.128 -0.6219  0.1946 -0.6959
  228MOL0     C30679   9.964   4.300   5.172  0.8883 -0.0644 -0.2891
  228MOL0     C30680   9.859   4.204   5.151  0.0528  0.7531  0.6235
  228MOL0     O30681   9.737   4.228   5.207 -0.9263 -0.1042  0.0238
  228MOL0     C30682   9.621   4.148   5.173 -1.3638 -0.7796  0.0984
  228MOL0     C30683   9.504   4.189   5.269 -1.1427 -0.0323  0.3394
  228MOL0     C30684   9.397   4.084   5.262 -0.1862  0.0489  0.2873
  228MOL0     C30685   9.277   4.148   5.325  0.3230 -0.4866  0.8617
  228MOL0     C30686   9.167   4.050   5.347  0.2028  0.1416  0.0672
  228MOL0     C30687   9.046   4.108   5.425  0.6739  0.7400  0.6211
  228MOL0     C30688   8.922   4.012   5.411  0.4510  0.3657  0.3649
  228MOL0     C30689   8.807   4.050   5.503 -0.4449  0.6705 -0.1531
  228MOL0    Cl30690   8.750   4.223   5.487  0.3814 -0.0616 -0.0137
  228MOL0     C30691   9.894   4.081   5.080  0.7046 -0.1546  0.2496
  228MOL0     C30692  10.024   4.052   5.049  0.1958  0.5742 -0.5188
  228MOL0     O30693  10.223   4.187   4.819  0.1572 -0.8477 -0.5959
  228MOL0     C30694  10.533   4.116   4.989 -0.3281 -0.6051 -0.1613
  228MOL0     C30695  10.674   4.116   4.975  0.2436  0.4007 -0.2824
  228MOL0     N30696  11.364   3.846   4.759 -0.0645 -0.4728 -0.3015
  228MOL0     N30697  11.432   3.761   4.824 -0.3988 -0.1561  0.4039
  228MOL0     C30698  10.667   3.631   5.683  0.4014 -0.4162  0.0158
  228MOL0     C30699  10.533   3.663   5.684  0.0959  0.7475 -0.4506
  228MOL0     C30700  10.135   3.876   5.569  0.6779  0.6306  0.1789
  228MOL0     C30701  10.060   3.942   5.469  0.4863  0.1685 -0.2599
  228MOL0     C30702   9.921   3.924   5.463 -0.5763  0.2977  0.4274
  228MOL0     C30703   9.857   3.844   5.563  0.3036 -0.7580  0.1218
  228MOL0     O30704   9.717   3.835   5.557 -0.4484  0.3063  0.0773
  228MOL0     C30705   9.664   3.772   5.676  0.5383  0.4772 -0.3097
  228MOL0     C30706   9.509   3.759   5.666  0.2685  0.7410  0.0701
  228MOL0     C30707   9.466   3.619   5.595 -0.1788  0.0687 -0.1732
  228MOL0     C30708   9.325   3.627   5.546  1.2170 -0.3624 -0.2793
  228MOL0     C30709   9.231   3.676   5.645 -0.8544 -0.7965 -0.4309
  228MOL0     C30710   9.164   3.727   5.732  0.3898 -0.2970 -0.3335
  228MOL0     C30711   9.932   3.785   5.663  0.0107 -0.5586 -0.0718
  228MOL0     C30712  10.069   3.801   5.660  0.1984  0.2202  0.0294
  228MOL0     H30713  10.565   3.986   5.595  0.8601  0.1046 -0.3501
  228MOL0     H30714  10.796   3.934   5.628  1.0005 -0.8799 -0.4811
  228MOL0     H30715  10.950   3.871   5.796  0.1366  0.7815 -0.8313
  228MOL0     H30716  11.083   3.747   5.784  1.2291  1.4830  0.3690
  228MOL0     H30717  11.023   3.945   5.573  0.3540  1.1034  0.5740
  228MOL0     H30718  11.168   3.930   5.664  0.8119  0.4840 -1.3976
  228MOL0     H30719  11.162   3.679   5.574 -0.9498  0.8776  1.6575
  228MOL0     H30720  11.061   3.752   5.444 -0.9387  2.6402 -0.2110
  228MOL0     H30721  11.251   3.920   5.410 -2.4398  1.3128  3.6267
  228MOL0     H30722  11.350   3.823   5.519 -1.1581  0.4362  1.6549
  228MOL0     H30723  11.312   3.613   5.358  0.1110  0.1194 -0.3183
  228MOL0     H30724  11.214   3.718   5.260  0.0786 -1.6101 -0.0373
  228MOL0     H30725  11.384   3.865   5.198  2.5790  0.1845 -1.3591
  228MOL0     H30726  11.497   3.792   5.319 -0.5756  1.2563  0.8784
  228MOL0     H30727  11.533   3.594   5.190  0.5632 -1.7865 -2.5913
  228MOL0     H30728  11.392   3.625   5.089 -0.2870  2.1198 -0.4018
  228MOL0     H30729  11.621   3.658   4.981 -0.7235  0.2312 -0.0734
  228MOL0     H30730  11.645   3.793   5.078 -1.1379 -0.9460  3.2132
  228MOL0     H30731  11.474   4.019   5.023  0.8101 -0.0096 -0.7677
  228MOL0     H30732  11.335   4.166   4.862  0.6356  1.4747 -2.0198
  228MOL0     H30733  11.362   4.116   4.702  1.3873 -0.6152 -0.0923
  228MOL0     H30734  11.116   4.018   4.854 -2.6185  1.4554  0.3242
  228MOL0     H30735  11.136   4.035   4.678 -1.5515 -1.8981  0.9105
  228MOL0     H30736  11.151   4.287   4.724 -0.4832  0.8667  0.6966
  228MOL0     H30737  11.114   4.250   4.894  0.9057 -0.9810  0.1284
  228MOL0     H30738  10.936   4.153   4.665  1.8790 -1.6920  1.1402
  228MOL0     H30739  10.896   4.308   4.737 -1.2427 -0.8338  0.7238
  228MOL0     H30740  10.685   4.227   4.656  0.0926  0.0921 -0.2798
  228MOL0     H30741  10.374   4.321   4.651  1.0847  1.0173 -0.0627
  228MOL0     H30742  10.483   4.228   4.553 -2.3968 -1.7699 -1.2978
  228MOL0     H30743  10.347   4.148   4.632  0.0437 -0.1270 -0.5710
  228MOL0     H30744  10.180   4.330   5.147 -0.4562 -0.9078  2.5971
  228MOL0     H30745   9.948   4.394   5.224  0.9913  0.8180 -1.8103
  228MOL0     H30746   9.581   4.171   5.074 -2.7418 -0.7029  0.6488
  228MOL0     H30747   9.644   4.042   5.190  0.7395 -0.2573  0.8724
  228MOL0     H30748   9.539   4.205   5.371  4.5627  2.2093 -1.5894
  228MOL0     H30749   9.462   4.282   5.230  0.5154  1.0708  1.0617
  228MOL0     H30750   9.425   3.991   5.313  2.0639 -1.3202 -3.1012
  228MOL0     H30751   9.368   4.062   5.159  2.2882  0.9547 -0.6685
  228MOL0     H30752   9.305   4.206   5.413 -0.5129  0.6488  0.3933
  228MOL0     H30753   9.232   4.224   5.260 -1.0044  0.1629  2.4666
  228MOL0     H30754   9.205   3.959   5.393  0.0517 -1.0226 -2.0045
  228MOL0     H30755   9.128   4.013   5.252  0.6441 -1.4062  0.4712
  228MOL0     H30756   9.066   4.135   5.529  2.1301  2.1407  0.0118
  228MOL0     H30757   9.013   4.197   5.372 -1.0807  0.2407  0.8129
  228MOL0     H30758   8.966   3.914   5.431  1.6079  1.0049  1.0966
  228MOL0     H30759   8.894   4.020   5.305 -0.1343  1.7815  0.6115
  228MOL0     H30760   8.841   4.030   5.605 -0.4218 -1.9878 -0.6106
  228MOL0     H30761   8.724   3.984   5.478  0.0206  0.0898 -0.1939
  228MOL0     H30762   9.809   4.018   5.052  0.3144  0.8584 -0.9521
  228MOL0     H30763  10.056   3.963   4.997  0.3342  0.8510 -0.9047
  228MOL0     H30764  10.510   4.081   5.089  1.6102 -0.7953  0.2445
  228MOL0     H30765  10.735   4.065   5.050 -0.9253  0.3576  0.6611
  228MOL0     H30766  10.683   3.525   5.704  0.3207 -0.4424 -0.0542
  228MOL0     H30767  10.477   3.576   5.719  0.6767 -0.7204 -2.9358
  228MOL0     H30768  10.115   4.012   5.407  1.2102 -0.0436  0.1359
  228MOL0     H30769   9.856   3.977   5.394 -2.0734  0.1512  1.6541
  228MOL0     H30770   9.705   3.671   5.682  2.2175  0.9266 -2.7274
  228MOL0     H30771   9.678   3.822   5.772 -0.8270 -2.3556  1.4819
  228MOL0     H30772   9.474   3.846   5.609 -1.9881  1.6879  2.6832
  228MOL0     H30773   9.464   3.756   5.765  1.0109 -0.4512  0.3881
  228MOL0     H30774   9.478   3.538   5.668 -0.2208  1.3651  1.3109
  228MOL0     H30775   9.526   3.600   5.506 -1.0724 -0.0071 -0.7709
  228MOL0     H30776   9.286   3.527   5.526 -1.9871  0.6181  0.4038
  228MOL0     H30777   9.318   3.684   5.453 -1.5790 -0.4959 -0.2322
  228MOL0     H30778   9.102   3.773   5.806  0.4067 -0.4406 -0.2310
  228MOL0     H30779   9.891   3.729   5.746 -1.2977  0.4107 -0.0344
  228MOL0     H30780  10.124   3.757   5.743  0.6377  1.5220  0.4463
  229MOL0     O30781   1.804   0.793   1.163  0.1819 -0.0748  0.4303
  229MOL0     C30782   1.877   0.697   1.187  0.2210 -0.0770 -0.3730
  229MOL0     O30783   1.839   0.579   1.241  0.3404  0.4349 -0.9547
  229MOL0     C30784   1.701   0.544   1.259 -0.6828 -0.8737 -0.0059
  229MOL0     C30785   1.673   0.466   1.370  0.5481 -0.1878  0.9740
  229MOL0     C30786   1.542   0.415   1.385 -0.2534  0.2246 -0.2610
  229MOL0     C30787   1.443   0.447   1.298  0.2417  1.5510 -0.4428
  229MOL0     O30788   1.318   0.391   1.312  0.0877 -0.0117 -0.1413
  229MOL0     C30789   1.272   0.421   1.445  0.8528 -0.0180  0.2859
  229MOL0     C30790   1.126   0.452   1.436 -0.4032 -0.0263 -0.3549
  229MOL0     C30791   1.092   0.586   1.355  0.8904 -0.3941 -0.9295
  229MOL0     C30792   0.952   0.627   1.379 -0.8881 -0.1435 -0.4281
  229MOL0     C30793   0.933   0.741   1.279 -0.0706  0.3651  0.8244
  229MOL0     C30794   0.795   0.801   1.286  0.5923 -0.0720 -0.2136
  229MOL0     C30795   0.776   0.872   1.428 -0.2088 -0.9155 -0.1477
  229MOL0     C30796   0.661   0.975   1.416  0.6889 -0.2330 -0.6437
  229MOL0     N30797   0.527   0.920   1.396  0.2949  0.3171 -0.1051
  229MOL0     C30798   0.454   0.868   1.503  0.2911  0.0037 -0.5771
  229MOL0     C30799   0.332   0.839   1.454  0.2770 -0.5677  0.3922
  229MOL0     C30800   0.214   0.776   1.534 -0.8229 -0.6615 -0.4781
  229MOL0     C30801   0.146   0.887   1.613  0.0879  0.5795  0.3871
  229MOL0     C30802   0.061   0.981   1.520 -0.3468 -0.1010 -0.8721
  229MOL0     C30803  -0.054   0.907   1.459  0.1422  0.6576 -0.7203
  229MOL0     O30804  -0.121   0.850   1.571 -0.1896  0.0104 -0.1160
  229MOL0     C30805  -0.237   0.780   1.552 -0.0479 -0.3594  0.8919
  229MOL0     C30806  -0.318   0.795   1.436  0.3838  0.2252 -0.3817
  229MOL0     C30807  -0.441   0.724   1.424 -0.1464  0.0980  0.1483
  229MOL0     C30808  -0.532   0.754   1.308 -0.4788 -0.5203 -0.2205
  229MOL0     C30809  -0.480   0.647   1.534 -0.1813 -0.1210 -0.9613
  229MOL0     C30810  -0.625   0.609   1.550  0.5959 -0.2783  0.7296
  229MOL0     O30811  -0.718   0.700   1.504  0.0988 -0.6425  0.0336
  229MOL0     C30812  -0.847   0.654   1.504  0.6650  0.6661 -0.4662
  229MOL0     C30813  -0.925   0.632   1.628 -0.6269 -0.3235 -0.0129
  229MOL0     C30814  -1.055   0.579   1.618 -0.9077  0.5805 -0.2600
  229MOL0     C30815  -1.117   0.566   1.496 -0.9892 -0.3769  0.1864
  229MOL0     O30816  -1.243   0.531   1.476 -0.1758  0.1850 -0.0104
  229MOL0     C30817  -1.342   0.522   1.578  0.1559  0.7636 -0.5994
  229MOL0     C30818  -1.451   0.436   1.517 -0.5100 -0.5764 -0.4009
  229MOL0     C30819  -1.586   0.461   1.587 -0.0402 -0.1937 -0.4110
  229MOL0     C30820  -1.698   0.370   1.555 -0.2462  0.0849 -0.3895
  229MOL0     C30821  -1.825   0.398   1.641 -0.2570 -0.2520  1.1212
  229MOL0     C30822  -1.892   0.528   1.600 -0.3690  0.7516  0.1984
  229MOL0     C30823  -2.044   0.524   1.616  0.4280  0.0147  0.5971
  229MOL0     C30824  -2.094   0.527   1.757 -0.2259 -0.4126 -0.6463
  229MOL0    Cl30825  -2.265   0.502   1.749  0.4320 -0.0648 -0.0834
  229MOL0     C30826  -1.040   0.591   1.383  0.3337  0.4345  0.0747
  229MOL0     C30827  -0.908   0.635   1.385 -0.0160  0.1157 -0.1725
  229MOL0     O30828  -0.646   0.492   1.590  0.1816  0.2608  0.5213
  229MOL0     C30829  -0.392   0.618   1.638  0.4088 -0.1545 -0.6667
  229MOL0     C30830  -0.274   0.686   1.647 -0.4867  0.2228 -0.5092
  229MOL0     N30831   0.335   0.865   1.316 -1.2285  0.4731  0.5347
  229MOL0     N30832   0.450   0.918   1.286  0.7574 -0.3452  0.5931
  229MOL0     C30833   1.478   0.526   1.191  0.0555 -0.4524 -0.1073
  229MOL0     C30834   1.602   0.574   1.171 -0.1053 -0.8056  0.1523
  229MOL0     C30835   2.010   0.709   1.131  0.8356 -0.0055  0.0317
  229MOL0     C30836   2.055   0.830   1.080 -0.5123  0.3634  0.8198
  229MOL0     C30837   2.185   0.833   1.033  0.0164  0.2813 -0.1547
  229MOL0     C30838   2.275   0.728   1.035  0.0590  0.4077 -0.4957
  229MOL0     O30839   2.397   0.737   0.975  0.4008  0.4710  0.2651
  229MOL0     C30840   2.524   0.673   1.026  0.0710  0.9261 -0.5119
  229MOL0     C30841   2.631   0.685   0.930 -0.2521 -0.5569 -0.2897
  229MOL0     C30842   2.767   0.729   0.997 -0.7653  0.0260  0.4975
  229MOL0     C30843   2.898   0.682   0.931 -0.5178 -0.2029 -0.4285
  229MOL0     C30844   2.909   0.540   0.920 -0.0673 -0.9940 -1.1333
  229MOL0     C30845   2.920   0.423   0.921  0.4047  0.0970  0.0625
  229MOL0     C30846   2.234   0.612   1.106 -0.8239 -0.5486 -0.0123
  229MOL0     C30847   2.098   0.600   1.151 -1.3334  0.4040 -0.2783
  229MOL0     H30848   1.762   0.446   1.428  2.5309  1.0375 -1.4472
  229MOL0     H30849   1.526   0.351   1.472 -1.5174  2.7513  1.5159
  229MOL0     H30850   1.294   0.342   1.518  0.3265 -2.5417 -2.1137
  229MOL0     H30851   1.325   0.508   1.485 -1.2564  1.2191  0.5536
  229MOL0     H30852   1.076   0.365   1.393 -2.2918  0.1590  1.3317
  229MOL0     H30853   1.094   0.461   1.541 -0.3819  1.2705 -0.4459
  229MOL0     H30854   1.155   0.675   1.364 -1.1989  1.1361 -0.9080
  229MOL0     H30855   1.093   0.558   1.249 -2.5953  0.4963 -1.3057
  229MOL0     H30856   0.883   0.543   1.374  0.8287 -1.9229  2.4932
  229MOL0     H30857   0.945   0.675   1.478  1.4807  1.4907 -0.9442
  229MOL0     H30858   1.009   0.815   1.308  1.4098 -1.2214  1.1289
  229MOL0     H30859   0.967   0.710   1.180  2.4368  2.0690  1.0383
  229MOL0     H30860   0.799   0.870   1.202  0.0898  0.0160 -0.1656
  229MOL0     H30861   0.715   0.732   1.260  0.6113  0.5888 -2.1973
  229MOL0     H30862   0.759   0.791   1.500  1.8479 -2.5686 -1.4140
  229MOL0     H30863   0.868   0.921   1.461 -0.4406 -0.4712 -0.1559
  229MOL0     H30864   0.684   1.048   1.337  1.1531  1.9720  1.3867
  229MOL0     H30865   0.657   1.023   1.515 -0.2359  1.7040 -1.5745
  229MOL0     H30866   0.484   0.859   1.606  2.3602  2.8454 -0.8096
  229MOL0     H30867   0.141   0.726   1.469 -1.1103 -3.1064  1.5471
  229MOL0     H30868   0.251   0.701   1.605 -1.2217 -0.1887  0.2295
  229MOL0     H30869   0.217   0.947   1.671 -0.7872  1.0328  1.0109
  229MOL0     H30870   0.081   0.830   1.680 -0.7600 -1.4800 -2.0306
  229MOL0     H30871   0.119   1.024   1.437  1.2612 -0.2775  0.1106
  229MOL0     H30872   0.008   1.062   1.571  0.0275  1.0138 -2.1865
  229MOL0     H30873  -0.028   0.831   1.385  1.7584  0.5483 -0.0760
  229MOL0     H30874  -0.121   0.975   1.405 -3.4115 -0.4058  1.9151
  229MOL0     H30875  -0.289   0.854   1.349  3.4329 -0.6742 -0.0901
  229MOL0     H30876  -0.581   0.662   1.273  1.0823 -0.8250 -1.7269
  229MOL0     H30877  -0.610   0.828   1.330  2.3383  2.0210  2.0834
  229MOL0     H30878  -0.469   0.787   1.225  2.8955 -0.1445  2.2890
  229MOL0     H30879  -0.860   0.652   1.713 -1.9476  3.6352  0.2412
  229MOL0     H30880  -1.100   0.539   1.709  1.2584  0.2672  0.7433
  229MOL0     H30881  -1.307   0.469   1.667 -0.0146  1.6829  0.0307
  229MOL0     H30882  -1.371   0.624   1.604  2.4341  1.1666  0.6060
  229MOL0     H30883  -1.452   0.469   1.413 -0.4493  2.6142  0.4867
  229MOL0     H30884  -1.423   0.332   1.532  0.5804 -0.2943 -0.3958
  229MOL0     H30885  -1.622   0.558   1.551 -1.1071  0.0561  1.2000
  229MOL0     H30886  -1.590   0.464   1.696 -4.2027 -0.3548 -0.3816
  229MOL0     H30887  -1.709   0.375   1.446  1.4059  1.3886 -0.5361
  229MOL0     H30888  -1.657   0.273   1.583  0.1716  0.6934  1.2196
  229MOL0     H30889  -1.795   0.395   1.746  0.3395  0.6139  0.9871
  229MOL0     H30890  -1.897   0.319   1.620 -0.2571 -0.1886  0.8824
  229MOL0     H30891  -1.854   0.615   1.655  0.1009  0.5367  0.2174
  229MOL0     H30892  -1.871   0.554   1.496 -1.9099 -1.2696 -0.6732
  229MOL0     H30893  -2.081   0.434   1.567 -0.4565  0.5598  0.2523
  229MOL0     H30894  -2.089   0.607   1.561 -0.6991 -0.6919  0.4304
  229MOL0     H30895  -2.081   0.623   1.809 -0.0425 -1.3669  1.1429
  229MOL0     H30896  -2.048   0.452   1.822 -0.5534 -0.3132 -0.2989
  229MOL0     H30897  -1.092   0.584   1.288 -2.5689 -0.1044  1.5804
  229MOL0     H30898  -0.852   0.657   1.295  1.5658 -1.8049  0.2746
  229MOL0     H30899  -0.420   0.544   1.713  0.7253  0.6767  0.3016
  229MOL0     H30900  -0.214   0.670   1.737  0.1159  0.4667 -0.8605
  229MOL0     H30901   1.394   0.559   1.131 -0.2066 -1.8586 -0.5550
  229MOL0     H30902   1.621   0.632   1.081  2.4490 -1.6526  0.0769
  229MOL0     H30903   1.989   0.915   1.065  0.5615  1.3622  1.5953
  229MOL0     H30904   2.218   0.925   0.987  0.3451  0.0989 -0.2880
  229MOL0     H30905   2.544   0.735   1.114 -3.2691  1.5027 -0.0120
  229MOL0     H30906   2.499   0.567   1.042 -1.2980  1.0688 -1.5036
  229MOL0     H30907   2.598   0.758   0.856 -0.8409  0.9710  1.3979
  229MOL0     H30908   2.639   0.587   0.882  0.5943 -0.8875  0.4890
  229MOL0     H30909   2.778   0.712   1.105  0.7399  1.7463  0.6610
  229MOL0     H30910   2.760   0.838   0.987 -1.6259  0.1460  2.0439
  229MOL0     H30911   2.978   0.719   0.995  0.2959  0.3783 -1.7408
  229MOL0     H30912   2.902   0.739   0.837 -2.5311 -0.0807 -0.4997
  229MOL0     H30913   2.924   0.316   0.918  0.0471  0.0802  0.1396
  229MOL0     H30914   2.298   0.525   1.117 -1.5527 -0.8059  3.6685
  229MOL0     H30915   2.069   0.517   1.214  1.2152 -0.3347  0.0053
  230MOL0     O30916   2.621   1.924   1.491  0.4475  0.2132 -0.4650
  230MOL0     C30917   2.706   1.901   1.571 -0.6108  0.2636  0.8292
  230MOL0     O30918   2.702   1.868   1.708  0.4865  0.6267 -0.0484
  230MOL0     C30919   2.583   1.881   1.776  0.0917 -0.8872 -0.9643
  230MOL0     C30920   2.549   1.784   1.868 -0.4729  0.3155  0.3771
  230MOL0     C30921   2.426   1.791   1.928 -0.1816  0.3772 -0.1903
  230MOL0     C30922   2.332   1.897   1.898  0.0830  0.4072  0.3134
  230MOL0     O30923   2.207   1.915   1.949 -0.2729  0.0141  0.2286
  230MOL0     C30924   2.139   1.799   1.989 -0.8049  0.5772  0.4574
  230MOL0     C30925   2.007   1.824   2.051 -0.6284  0.6191 -0.2589
  230MOL0     C30926   2.019   1.910   2.176 -0.0394  0.1134 -0.6107
  230MOL0     C30927   1.912   1.891   2.271  1.0050  0.4139  0.9223
  230MOL0     C30928   1.944   1.981   2.393 -0.4847  1.3498  0.3927
  230MOL0     C30929   1.839   1.944   2.507 -0.2616 -0.7646 -0.9983
  230MOL0     C30930   1.866   2.036   2.627  0.5728 -0.6315 -0.3585
  230MOL0     C30931   1.770   2.012   2.746  1.0947  0.3500  0.2783
  230MOL0     N30932   1.623   2.029   2.702 -0.9289  0.3856  0.2424
  230MOL0     C30933   1.556   2.142   2.671  0.7087 -0.3747 -0.1505
  230MOL0     C30934   1.428   2.093   2.638 -0.4507 -0.6960  0.2114
  230MOL0     C30935   1.302   2.160   2.603  1.0913 -0.2282  0.5467
  230MOL0     C30936   1.318   2.237   2.472  1.0938 -0.1456 -0.8719
  230MOL0     C30937   1.191   2.320   2.437 -0.1010 -0.4330  0.2946
  230MOL0     C30938   1.051   2.284   2.503 -0.4374  0.4599 -0.0131
  230MOL0     O30939   0.978   2.396   2.449  0.1726  0.3636  0.1121
  230MOL0     C30940   0.844   2.395   2.493  0.3164  0.1074  0.2935
  230MOL0     C30941   0.760   2.505   2.461  0.0754 -0.2224 -0.8991
  230MOL0     C30942   0.623   2.512   2.504 -0.6238  0.3696 -0.3750
  230MOL0     C30943   0.554   2.641   2.467  0.3150  0.5193  0.3202
  230MOL0     C30944   0.565   2.402   2.573 -0.3441 -0.1093  0.5834
  230MOL0     C30945   0.427   2.406   2.621  0.2204  0.2044  0.8596
  230MOL0     O30946   0.392   2.288   2.692  0.1381  0.1258  0.2111
  230MOL0     C30947   0.290   2.280   2.788 -0.6078  1.0123  0.0495
  230MOL0     C30948   0.291   2.153   2.854  0.1911  0.2386  0.6171
  230MOL0     C30949   0.191   2.125   2.947 -0.3189  0.0934 -0.3852
  230MOL0     C30950   0.081   2.215   2.978 -0.3406 -0.0885 -1.5004
  230MOL0     O30951  -0.016   2.178   3.065 -0.1325  0.0594 -0.4793
  230MOL0     C30952  -0.048   2.040   3.074 -0.4067 -0.3630 -0.5488
  230MOL0     C30953  -0.185   2.017   3.134  0.0905 -0.1043 -0.6010
  230MOL0     C30954  -0.301   2.093   3.075  0.0028  0.0846 -0.0093
  230MOL0     C30955  -0.430   2.066   3.155 -1.2119 -0.2835 -0.7617
  230MOL0     C30956  -0.553   2.133   3.101  0.4385 -0.7804 -0.1928
  230MOL0     C30957  -0.676   2.058   3.148 -0.1463 -0.0098 -0.0065
  230MOL0     C30958  -0.799   2.103   3.064 -0.7819  0.3265  0.0519
  230MOL0     C30959  -0.925   2.041   3.139  0.6889  0.3744  0.7101
  230MOL0    Cl30960  -1.067   2.127   3.072  0.1793  0.2030 -0.1740
  230MOL0     C30961   0.083   2.341   2.914 -0.0776  0.0464 -0.2447
  230MOL0     C30962   0.191   2.372   2.822  0.6190  0.5782 -0.3998
  230MOL0     O30963   0.349   2.494   2.594 -0.3124 -0.0363 -0.1973
  230MOL0     C30964   0.654   2.291   2.598  0.0966 -0.6491  0.1789
  230MOL0     C30965   0.791   2.290   2.574 -0.7937 -0.2441  1.3291
  230MOL0     N30966   1.430   1.961   2.655  0.3870  0.3062 -0.2923
  230MOL0     N30967   1.545   1.917   2.690  0.1718 -0.0837 -0.4183
  230MOL0     C30968   2.367   1.994   1.803  0.2447  0.1962  0.9162
  230MOL0     C30969   2.492   1.990   1.748 -0.6570 -0.4221  0.0628
  230MOL0     C30970   2.848   1.927   1.534  0.1802  0.1456 -0.3257
  230MOL0     C30971   2.954   1.895   1.620 -0.2419  0.6237  0.3932
  230MOL0     C30972   3.092   1.915   1.577 -0.3760 -0.4162 -1.0485
  230MOL0     C30973   3.123   1.954   1.454  0.2195  0.0838  0.4581
  230MOL0     O30974   3.252   1.985   1.422 -0.0711 -0.0923 -0.1634
  230MOL0     C30975   3.340   1.863   1.415  0.0244  0.4463 -0.5327
  230MOL0     C30976   3.387   1.831   1.265 -0.3991 -0.2944 -0.2408
  230MOL0     C30977   3.475   1.707   1.246  0.5332 -0.3448 -0.6819
  230MOL0     C30978   3.502   1.672   1.099  0.7562 -0.1793  0.6619
  230MOL0     C30979   3.585   1.767   1.021 -0.0399 -0.4681  0.1836
  230MOL0     C30980   3.660   1.834   0.957 -0.3905 -0.9628  0.3060
  230MOL0     C30981   3.019   1.993   1.368 -0.6068  0.7839  0.2859
  230MOL0     C30982   2.883   1.973   1.399  0.1077  0.5783  0.1036
  230MOL0     H30983   2.623   1.712   1.898  1.0416  2.1466  1.2174
  230MOL0     H30984   2.400   1.713   1.998  0.1890  0.2454 -0.1979
  230MOL0     H30985   2.116   1.732   1.905 -0.3014  0.6677  0.2456
  230MOL0     H30986   2.194   1.736   2.059  2.8646  1.3606 -1.4629
  230MOL0     H30987   1.944   1.870   1.975 -2.2013 -0.2236  0.4892
  230MOL0     H30988   1.966   1.726   2.075  1.2176  0.2491  1.7996
  230MOL0     H30989   2.113   1.879   2.221 -0.6379 -0.7572  0.0739
  230MOL0     H30990   2.026   2.015   2.143  0.6623 -0.0892 -1.1357
  230MOL0     H30991   1.811   1.906   2.233 -0.2094 -2.3754  2.7286
  230MOL0     H30992   1.910   1.784   2.295 -1.3391  0.3016  0.3857
  230MOL0     H30993   2.041   1.952   2.435 -0.1668 -0.8174 -1.6038
  230MOL0     H30994   1.945   2.083   2.355  0.8537  0.7338 -1.3740
  230MOL0     H30995   1.740   1.961   2.465 -0.2450 -0.0200 -0.7500
  230MOL0     H30996   1.844   1.841   2.545 -3.2483  0.1224  2.3118
  230MOL0     H30997   1.968   2.020   2.664  0.2888 -1.3704  0.1126
  230MOL0     H30998   1.860   2.139   2.592  0.0668 -1.5354 -3.1357
  230MOL0     H30999   1.793   2.091   2.818 -3.0776  1.6022  0.5236
  230MOL0     H31000   1.789   1.914   2.791  2.1994  1.6746  2.9133
  230MOL0     H31001   1.601   2.240   2.678 -3.1769  1.5346  1.0860
  230MOL0     H31002   1.228   2.079   2.603  1.3491 -0.4639  0.7266
  230MOL0     H31003   1.269   2.241   2.669 -0.2701  0.9536 -1.4666
  230MOL0     H31004   1.324   2.171   2.385 -2.1529  0.4426 -1.6771
  230MOL0     H31005   1.406   2.303   2.478  0.9497  0.1263 -1.6385
  230MOL0     H31006   1.184   2.298   2.330  2.4508 -2.9712  0.5197
  230MOL0     H31007   1.216   2.425   2.458  0.4613 -0.7168  1.1079
  230MOL0     H31008   1.049   2.287   2.612 -0.2761 -0.1273  0.0115
  230MOL0     H31009   1.007   2.189   2.471  1.1124  0.1964 -1.5346
  230MOL0     H31010   0.813   2.579   2.401 -1.6504  0.6005 -1.4647
  230MOL0     H31011   0.624   2.693   2.402 -0.5243  0.4446 -0.6732
  230MOL0     H31012   0.456   2.629   2.419 -0.3048  0.7836  1.4750
  230MOL0     H31013   0.534   2.702   2.555 -0.6258  0.0158  0.4734
  230MOL0     H31014   0.367   2.082   2.821  0.5144  1.6085 -1.9003
  230MOL0     H31015   0.202   2.033   3.003 -1.7577 -0.1227 -0.4058
  230MOL0     H31016  -0.047   2.014   2.968 -1.0998  2.9794 -1.4868
  230MOL0     H31017   0.025   1.984   3.133 -1.3760  0.7082  1.8124
  230MOL0     H31018  -0.192   1.908   3.132 -1.1878 -0.1516  1.9730
  230MOL0     H31019  -0.193   2.031   3.243  2.7288 -1.9577 -0.0710
  230MOL0     H31020  -0.322   2.054   2.975 -0.7078 -0.3052  0.2875
  230MOL0     H31021  -0.281   2.200   3.063 -0.9370  0.2677 -0.0475
  230MOL0     H31022  -0.446   1.959   3.162 -0.5165 -0.5639 -2.8729
  230MOL0     H31023  -0.420   2.099   3.259 -1.5523  1.4152 -1.2366
  230MOL0     H31024  -0.564   2.117   2.993  1.2112 -1.0976 -0.2290
  230MOL0     H31025  -0.553   2.241   3.122 -0.5665 -0.7578 -0.2669
  230MOL0     H31026  -0.657   1.951   3.138  1.4206  0.3114 -0.8316
  230MOL0     H31027  -0.698   2.074   3.254 -0.3396 -2.3236  0.3549
  230MOL0     H31028  -0.796   2.063   2.963  3.8016 -0.1525  0.1724
  230MOL0     H31029  -0.808   2.212   3.056 -0.2236  0.4939  1.4053
  230MOL0     H31030  -0.927   2.064   3.246 -2.4277  1.3266  0.5327
  230MOL0     H31031  -0.931   1.935   3.113  1.6544  0.5662 -0.4001
  230MOL0     H31032   0.016   2.424   2.934 -0.3348 -0.2011 -0.0676
  230MOL0     H31033   0.189   2.472   2.779 -0.7528  2.7329  4.0388
  230MOL0     H31034   0.618   2.209   2.660 -3.1742  1.0926  0.8316
  230MOL0     H31035   0.843   2.200   2.605  0.3392 -0.0267  0.1641
  230MOL0     H31036   2.301   2.074   1.770 -0.5400 -0.5757  0.5685
  230MOL0     H31037   2.525   2.061   1.672 -0.5551 -1.8925 -1.3313
  230MOL0     H31038   2.929   1.830   1.704  0.9301 -0.7452 -0.2688
  230MOL0     H31039   3.165   1.895   1.655  1.5388  1.7816 -2.1777
  230MOL0     H31040   3.420   1.870   1.489 -2.4916 -0.4572  2.5143
  230MOL0     H31041   3.291   1.775   1.459 -1.0678  2.2806  2.2262
  230MOL0     H31042   3.452   1.912   1.231  1.0175 -2.3231 -2.7454
  230MOL0     H31043   3.294   1.816   1.208 -0.4224 -2.4205  0.2722
  230MOL0     H31044   3.414   1.625   1.285 -2.5437  0.4191 -3.4128
  230MOL0     H31045   3.567   1.717   1.304 -0.0165  1.0219 -0.0138
  230MOL0     H31046   3.408   1.674   1.043  1.5610 -2.1160 -0.8622
  230MOL0     H31047   3.541   1.570   1.111 -1.1924 -0.8813  1.4237
  230MOL0     H31048   3.718   1.916   0.918 -0.3658 -1.5232 -0.8626
  230MOL0     H31049   3.052   2.044   1.279 -0.9946  3.2167  1.4429
  230MOL0     H31050   2.800   2.004   1.336 -0.4843  1.6823  1.3974
  231MOL0     O31051   2.924   0.553   3.634 -0.5026 -0.1177 -0.3694
  231MOL0     C31052   2.894   0.569   3.752  0.5899  0.0009 -0.1369
  231MOL0     O31053   2.772   0.554   3.809 -0.1984 -0.2654  0.9709
  231MOL0     C31054   2.649   0.575   3.746  0.1738 -0.5539  0.4404
  231MOL0     C31055   2.637   0.603   3.603 -0.0149 -0.5509 -0.1669
  231MOL0     C31056   2.508   0.619   3.546  0.3748 -0.0684  0.1902
  231MOL0     C31057   2.394   0.595   3.622  0.5504 -0.0881 -0.5748
  231MOL0     O31058   2.268   0.597   3.566 -0.5380 -0.3970  0.1952
  231MOL0     C31059   2.237   0.699   3.466  0.5688 -0.1287 -0.0184
  231MOL0     C31060   2.087   0.686   3.436  0.6018  0.1485 -0.0655
  231MOL0     C31061   1.986   0.665   3.558  0.0801 -1.1047  0.9428
  231MOL0     C31062   1.842   0.643   3.511  0.2978 -0.0480 -0.1495
  231MOL0     C31063   1.729   0.657   3.615 -0.5637  0.0442 -0.7433
  231MOL0     C31064   1.714   0.807   3.657  0.1502  0.6366 -0.0504
  231MOL0     C31065   1.594   0.825   3.759  0.0040  0.2274  0.0935
  231MOL0     C31066   1.592   0.963   3.812  0.5567  0.0993 -0.2937
  231MOL0     N31067   1.676   0.977   3.939 -0.2560 -0.0883  0.5924
  231MOL0     C31068   1.790   1.053   3.945  0.3223 -1.0481  0.2343
  231MOL0     C31069   1.809   1.066   4.077 -0.6684 -0.0105 -0.8019
  231MOL0     C31070   1.885   1.179   4.144  0.1786 -0.2004  0.9398
  231MOL0     C31071   1.826   1.311   4.106 -0.0402  0.0196 -0.4653
  231MOL0     C31072   1.666   1.324   4.132 -0.7647 -0.5298 -0.0716
  231MOL0     C31073   1.622   1.271   4.273 -0.0224  0.5255 -0.0595
  231MOL0     O31074   1.491   1.317   4.314  0.0878  0.2276 -0.0302
  231MOL0     C31075   1.386   1.265   4.248  0.1756 -0.1943 -0.4733
  231MOL0     C31076   1.258   1.327   4.275 -0.4850 -0.2114  0.8134
  231MOL0     C31077   1.139   1.279   4.209  0.4449  0.0839 -0.0304
  231MOL0     C31078   1.019   1.356   4.258 -0.7583  0.3595  0.4389
  231MOL0     C31079   1.146   1.155   4.139  0.1760 -0.7036  0.3764
  231MOL0     C31080   1.022   1.086   4.096 -0.1226  0.7214  0.2175
  231MOL0     O31081   0.895   1.146   4.104  0.2124 -0.3140 -0.5271
  231MOL0     C31082   0.790   1.073   4.065  0.4689 -0.5156 -0.4035
  231MOL0     C31083   0.695   1.035   4.162  0.0969  0.4168  0.8050
  231MOL0     C31084   0.576   0.970   4.121  0.1289 -0.4588  0.3616
  231MOL0     C31085   0.552   0.942   3.987  0.1035 -0.0019 -0.1633
  231MOL0     O31086   0.433   0.884   3.947  0.1748 -0.8308 -0.0773
  231MOL0     C31087   0.443   0.746   3.912 -1.2414  0.1542  0.3410
  231MOL0     C31088   0.403   0.652   4.022 -0.3332 -0.4598 -0.2504
  231MOL0     C31089   0.262   0.687   4.068  0.3789 -1.0549 -0.8108
  231MOL0     C31090   0.259   0.803   4.165  0.4625 -0.9894 -0.2746
  231MOL0     C31091   0.145   0.803   4.267  0.3957 -0.3424  0.7389
  231MOL0     C31092   0.026   0.883   4.220 -0.0721 -0.2764  0.1082
  231MOL0     C31093  -0.081   0.884   4.323  0.0273 -0.3631 -0.8250
  231MOL0     C31094  -0.228   0.884   4.264 -0.3259  0.3071 -0.3246
  231MOL0    Cl31095  -0.250   0.726   4.182  0.1105 -0.0068 -0.5530
  231MOL0     C31096   0.656   0.976   3.886  0.4015  0.3541 -1.0369
  231MOL0     C31097   0.769   1.045   3.929  0.1632 -0.5717  0.2170
  231MOL0     O31098   1.039   0.976   4.046 -0.0072 -0.6153 -0.2103
  231MOL0     C31099   1.268   1.089   4.123 -0.8222  0.2484 -0.8230
  231MOL0     C31100   1.381   1.145   4.179 -0.5869  0.5652  0.3962
  231MOL0     N31101   1.713   0.990   4.142  0.2916  0.9960 -0.3072
  231MOL0     N31102   1.632   0.933   4.055  0.3072  0.0673 -0.2507
  231MOL0     C31103   2.401   0.566   3.761 -0.0473 -0.0660 -0.0650
  231MOL0     C31104   2.531   0.559   3.819  0.3459  0.3490 -0.4632
  231MOL0     C31105   3.005   0.570   3.845 -0.2094 -0.3226 -0.4191
  231MOL0     C31106   3.128   0.500   3.821 -0.2822  0.6426 -0.3680
  231MOL0     C31107   3.241   0.534   3.890  0.7390 -0.3139 -0.1949
  231MOL0     C31108   3.232   0.632   3.989  0.0992  0.6674  0.1675
  231MOL0     O31109   3.341   0.675   4.065  0.2229 -0.4125  0.4089
  231MOL0     C31110   3.435   0.576   4.090 -0.9864 -0.3600  0.0201
  231MOL0     C31111   3.504   0.603   4.220 -0.1745  0.0635 -0.4015
  231MOL0     C31112   3.624   0.510   4.247  0.1107  0.9277 -0.0199
  231MOL0     C31113   3.581   0.370   4.289  0.5126  0.0821  0.0723
  231MOL0     C31114   3.542   0.292   4.175  0.4530  0.1037  0.0902
  231MOL0     C31115   3.520   0.216   4.083  0.3059 -0.0531 -0.0866
  231MOL0     C31116   3.110   0.689   4.022 -1.2297 -0.3524  0.4743
  231MOL0     C31117   2.996   0.656   3.950  0.1169  0.7487  0.0055
  231MOL0     H31118   2.712   0.613   3.526  0.3792  1.4236  0.4256
  231MOL0     H31119   2.503   0.642   3.440  0.3072  1.2717  0.4713
  231MOL0     H31120   2.262   0.794   3.514  0.2629  0.6001 -1.2486
  231MOL0     H31121   2.300   0.692   3.376 -0.6445 -0.7128 -0.8385
  231MOL0     H31122   2.056   0.770   3.373 -1.0305 -0.6872 -0.4400
  231MOL0     H31123   2.067   0.599   3.373 -0.8513 -0.4097  1.0838
  231MOL0     H31124   2.027   0.583   3.618 -0.0682 -0.1760  2.3446
  231MOL0     H31125   1.983   0.750   3.626 -1.5249 -0.2515 -0.1310
  231MOL0     H31126   1.822   0.724   3.441 -0.0997  0.4480  0.5251
  231MOL0     H31127   1.829   0.538   3.482 -1.1175 -1.7843  5.4114
  231MOL0     H31128   1.631   0.617   3.586 -2.5424  0.1466  4.5935
  231MOL0     H31129   1.757   0.600   3.705 -0.8272 -1.7376 -1.7369
  231MOL0     H31130   1.803   0.849   3.704  0.9228 -0.8704 -0.0793
  231MOL0     H31131   1.695   0.859   3.563 -0.9672 -1.8622 -1.3153
  231MOL0     H31132   1.505   0.799   3.701  0.6817 -0.0660 -0.8479
  231MOL0     H31133   1.602   0.753   3.841 -0.2267  2.0072  1.7285
  231MOL0     H31134   1.492   0.992   3.843  0.3081  0.2310 -1.1994
  231MOL0     H31135   1.623   1.041   3.740 -0.8140  2.8966  1.9378
  231MOL0     H31136   1.834   1.103   3.859  2.4464 -2.3493  0.4945
  231MOL0     H31137   1.888   1.174   4.253  0.3178 -0.7553  0.9146
  231MOL0     H31138   1.989   1.185   4.111 -0.5998  0.8569 -1.5905
  231MOL0     H31139   1.826   1.327   3.998 -3.2161  0.1549 -0.5335
  231MOL0     H31140   1.889   1.386   4.156  2.8903 -1.3501 -1.8645
  231MOL0     H31141   1.614   1.274   4.051 -1.3144  3.7159 -2.6630
  231MOL0     H31142   1.632   1.428   4.133  0.7770  0.0055 -0.4583
  231MOL0     H31143   1.696   1.319   4.338  0.9323 -1.1167  0.1187
  231MOL0     H31144   1.639   1.164   4.286  1.1441  0.8397  1.2365
  231MOL0     H31145   1.265   1.411   4.344 -0.0169  1.0467 -0.7150
  231MOL0     H31146   1.046   1.444   4.317  1.0594 -0.2527  0.5730
  231MOL0     H31147   0.974   1.406   4.172  0.2406  3.1376  1.4306
  231MOL0     H31148   0.937   1.305   4.310 -0.9451  1.6723  1.4880
  231MOL0     H31149   0.713   1.052   4.267 -2.4950 -0.0735  1.4071
  231MOL0     H31150   0.501   0.948   4.196  1.4539 -0.1848  1.7956
  231MOL0     H31151   0.378   0.726   3.827 -0.8337 -0.2021  0.1084
  231MOL0     H31152   0.549   0.736   3.884 -0.4480 -0.7364  3.3001
  231MOL0     H31153   0.385   0.555   3.974 -2.4551 -0.3193  0.1681
  231MOL0     H31154   0.475   0.639   4.103 -0.3205  1.8436  0.1794
  231MOL0     H31155   0.215   0.595   4.102 -1.1947 -0.2439 -0.6910
  231MOL0     H31156   0.201   0.717   3.982  1.8304  0.7503 -1.2928
  231MOL0     H31157   0.343   0.787   4.233 -1.0419 -0.0058  1.9429
  231MOL0     H31158   0.257   0.895   4.106 -2.2482  0.3365  1.6773
  231MOL0     H31159   0.185   0.842   4.361  1.3603  1.0234 -0.2050
  231MOL0     H31160   0.110   0.701   4.286  1.3382 -0.8587 -0.2009
  231MOL0     H31161   0.049   0.989   4.210 -0.6338 -0.0723  0.8100
  231MOL0     H31162  -0.018   0.843   4.128  0.2922 -1.7066  0.5382
  231MOL0     H31163  -0.063   0.966   4.393  1.5101  0.0559 -1.6426
  231MOL0     H31164  -0.069   0.794   4.383 -2.0774  0.8592  1.6125
  231MOL0     H31165  -0.246   0.964   4.192  1.4117  1.0865  0.0707
  231MOL0     H31166  -0.307   0.883   4.340 -1.2575 -1.4300 -1.2514
  231MOL0     H31167   0.632   0.950   3.784 -0.1905 -2.9106 -0.1870
  231MOL0     H31168   0.847   1.055   3.854 -1.1807  0.6946 -1.0745
  231MOL0     H31169   1.267   0.986   4.090 -0.9204  0.2370 -0.7842
  231MOL0     H31170   1.462   1.073   4.177 -2.3357 -1.5009 -0.5958
  231MOL0     H31171   2.311   0.558   3.821  0.2894  1.5992  0.7225
  231MOL0     H31172   2.535   0.543   3.926  0.4239  0.4543 -0.4498
  231MOL0     H31173   3.139   0.435   3.735  0.5227  0.7525 -0.3584
  231MOL0     H31174   3.336   0.489   3.861  0.3347 -1.4078  0.1087
  231MOL0     H31175   3.380   0.481   4.094  1.1005 -1.7362 -1.6484
  231MOL0     H31176   3.510   0.566   4.011  1.2319  0.2412  1.9153
  231MOL0     H31177   3.432   0.595   4.301 -0.2839 -1.4144 -0.6070
  231MOL0     H31178   3.535   0.707   4.218 -0.6624  0.2429 -3.4799
  231MOL0     H31179   3.689   0.552   4.325  2.0423  0.0503 -1.0679
  231MOL0     H31180   3.693   0.507   4.161 -0.3398  2.7146 -0.4818
  231MOL0     H31181   3.501   0.372   4.364  1.8818  0.0701  1.5773
  231MOL0     H31182   3.666   0.320   4.336  0.2210 -0.0703  0.4459
  231MOL0     H31183   3.496   0.158   3.996 -2.6802 -2.1255  1.9038
  231MOL0     H31184   3.115   0.758   4.105  2.4960  0.0933  0.0616
  231MOL0     H31185   2.903   0.709   3.971 -0.0508  0.3247  0.3596
  232MOL0     O31186  10.029   3.227   7.604 -0.0343 -0.8457  0.0898
  232MOL0     C31187  10.076   3.226   7.487  0.5358  0.4531 -0.7813
  232MOL0     O31188  10.007   3.212   7.367 -0.8951  0.2017 -0.2774
  232MOL0     C31189   9.873   3.195   7.385 -0.7276  0.7549 -0.6478
  232MOL0     C31190   9.786   3.296   7.435 -0.1423  0.0920 -0.4806
  232MOL0     C31191   9.647   3.264   7.450 -0.1510  0.1682 -0.3626
  232MOL0     C31192   9.592   3.139   7.396 -0.4567 -0.1420 -0.5819
  232MOL0     O31193   9.458   3.136   7.408 -0.4306 -0.0483  0.3888
  232MOL0     C31194   9.428   3.028   7.504  0.7644  0.0636  0.3946
  232MOL0     C31195   9.270   3.012   7.506 -0.4139  0.0626 -0.4795
  232MOL0     C31196   9.241   2.913   7.610 -0.1425  0.9862 -0.7349
  232MOL0     C31197   9.089   2.885   7.605  0.4106 -0.5226  0.0783
  232MOL0     C31198   9.030   2.826   7.743 -0.1454  0.3420 -0.3331
  232MOL0     C31199   9.088   2.683   7.771  0.2595 -0.3807  0.1626
  232MOL0     C31200   9.048   2.637   7.913 -0.4535  0.3044 -0.7021
  232MOL0     C31201   9.102   2.498   7.956  0.1853 -0.5123  0.3052
  232MOL0     N31202   9.068   2.386   7.870 -0.6038 -0.6767  0.0797
  232MOL0     C31203   8.978   2.288   7.911  0.0794 -0.0773 -0.8018
  232MOL0     C31204   8.998   2.190   7.820 -0.1001 -0.5426 -0.4002
  232MOL0     C31205   8.941   2.063   7.816 -0.3254  0.5279  0.4626
  232MOL0     C31206   8.860   2.008   7.938  0.1274 -0.4059  0.1054
  232MOL0     C31207   8.931   1.999   8.074  0.6170  0.1053 -0.1383
  232MOL0     C31208   9.065   1.928   8.071 -0.0047  0.0411  0.4251
  232MOL0     O31209   9.160   2.027   8.018  0.0923 -0.2394 -0.2571
  232MOL0     C31210   9.287   1.993   7.991 -0.5333  0.5315  0.6100
  232MOL0     C31211   9.344   1.865   8.004 -0.7828 -0.3046 -0.4617
  232MOL0     C31212   9.478   1.841   7.976 -0.5575 -0.3629 -0.5607
  232MOL0     C31213   9.525   1.701   7.966  0.2823 -0.1009  0.2136
  232MOL0     C31214   9.564   1.957   7.954 -0.1417 -0.2002 -0.3129
  232MOL0     C31215   9.714   1.954   7.947  0.5171 -0.1072 -0.6868
  232MOL0     O31216   9.781   2.069   7.980 -0.3320  0.2477  0.2216
  232MOL0     C31217   9.916   2.068   7.984  0.3094  0.4517  0.0032
  232MOL0     C31218   9.982   2.108   8.093 -0.5391  0.4887 -0.1509
  232MOL0     C31219  10.124   2.110   8.098 -0.1698  0.2468  0.1864
  232MOL0     C31220  10.201   2.070   7.988 -0.3041  0.0743  1.0013
  232MOL0     O31221  10.335   2.070   8.000 -0.4217 -0.5000 -0.0911
  232MOL0     C31222  10.417   2.118   7.889 -0.1143  0.3334 -1.0178
  232MOL0     C31223  10.522   2.208   7.957 -0.9987  0.2398 -1.0304
  232MOL0     C31224  10.650   2.208   7.868  0.6024 -0.4635  0.4142
  232MOL0     C31225  10.759   2.268   7.955 -0.6785  0.5395 -0.3108
  232MOL0     C31226  10.835   2.376   7.883 -0.1983 -0.7287  0.1094
  232MOL0     C31227  10.921   2.309   7.777 -0.5066  0.1665 -0.0236
  232MOL0     C31228  11.035   2.400   7.735 -0.3604 -0.3668  1.2213
  232MOL0     C31229  11.024   2.539   7.652 -0.4280  0.5983 -0.2997
  232MOL0    Cl31230  10.906   2.521   7.511 -0.6662 -0.2130 -0.5686
  232MOL0     C31231  10.134   2.031   7.874  1.0230  0.0278  0.6651
  232MOL0     C31232   9.991   2.029   7.871  0.4003 -0.5716  0.6383
  232MOL0     O31233   9.767   1.843   7.943 -0.5074 -0.0076 -0.0354
  232MOL0     C31234   9.505   2.085   7.943 -0.4327  0.2288 -1.2209
  232MOL0     C31235   9.363   2.104   7.948 -0.7181 -0.2353 -0.6010
  232MOL0     N31236   9.091   2.231   7.724  0.0916 -0.0297 -0.1748
  232MOL0     N31237   9.127   2.357   7.746  0.3499  0.2599 -0.5471
  232MOL0     C31238   9.676   3.048   7.349 -1.1563 -0.7984 -0.7167
  232MOL0     C31239   9.817   3.067   7.355 -0.2169  0.3249 -0.1066
  232MOL0     C31240  10.223   3.255   7.481 -0.1455 -0.6333 -0.3439
  232MOL0     C31241  10.277   3.262   7.348  0.3008 -0.1263  0.5107
  232MOL0     C31242  10.419   3.278   7.335  0.8957  0.4387 -0.7338
  232MOL0     C31243  10.496   3.304   7.447  0.4645  0.5934  0.1419
  232MOL0     O31244  10.631   3.311   7.432 -0.4140  0.8213 -0.0632
  232MOL0     C31245  10.692   3.427   7.485 -0.4126  0.5470 -0.1518
  232MOL0     C31246  10.812   3.478   7.406  0.4077 -0.1576  0.9900
  232MOL0     C31247  10.905   3.368   7.357  0.2651 -0.7343 -0.3645
  232MOL0     C31248  11.033   3.428   7.307 -0.0904  0.0830  0.5213
  232MOL0     C31249  11.125   3.470   7.419 -0.1710 -0.6510  0.2611
  232MOL0     C31250  11.199   3.516   7.505 -0.3373  0.0685  0.8404
  232MOL0     C31251  10.439   3.304   7.574 -0.2686  0.8863  0.7693
  232MOL0     C31252  10.307   3.268   7.590  0.5923 -0.3181  0.6173
  232MOL0     H31253   9.816   3.398   7.457 -0.6815  0.8253 -2.9120
  232MOL0     H31254   9.587   3.340   7.499 -0.8454 -0.9829  0.6344
  232MOL0     H31255   9.481   2.933   7.491 -1.3255 -1.3425  1.6300
  232MOL0     H31256   9.451   3.066   7.604 -1.2600 -1.1145  1.3590
  232MOL0     H31257   9.225   3.110   7.526  2.3836  1.0864  1.3725
  232MOL0     H31258   9.240   2.970   7.409  1.0463  0.3300 -1.0619
  232MOL0     H31259   9.289   2.815   7.603 -1.6929  0.0873  0.5295
  232MOL0     H31260   9.276   2.961   7.702  3.5495  2.1031 -2.5675
  232MOL0     H31261   9.031   2.975   7.581 -0.5604 -0.9165  0.8455
  232MOL0     H31262   9.071   2.812   7.526  2.8207  0.5326 -1.5661
  232MOL0     H31263   9.055   2.884   7.832 -1.0426 -0.2889  0.3444
  232MOL0     H31264   8.922   2.817   7.728 -0.2211 -0.1396  0.4706
  232MOL0     H31265   9.035   2.614   7.705  0.2973 -0.9886  0.7563
  232MOL0     H31266   9.194   2.671   7.751  0.3538  2.2465 -1.4250
  232MOL0     H31267   9.083   2.709   7.987 -0.8751  1.3204 -1.4753
  232MOL0     H31268   8.939   2.642   7.921 -0.6363 -0.9889 -1.9976
  232MOL0     H31269   9.068   2.472   8.057  0.3559  0.5648  0.6481
  232MOL0     H31270   9.209   2.518   7.950 -0.0460  0.4214 -1.3157
  232MOL0     H31271   8.910   2.287   7.996 -1.2570  1.3027 -1.7995
  232MOL0     H31272   8.876   2.066   7.728 -2.2724  2.2726  1.8437
  232MOL0     H31273   9.017   1.989   7.788 -0.1629  0.9397 -0.2090
  232MOL0     H31274   8.810   1.913   7.913  0.5887 -0.1839 -1.8195
  232MOL0     H31275   8.778   2.079   7.949  0.3030 -0.4919  2.7961
  232MOL0     H31276   8.872   1.938   8.143  3.9617 -2.7891  0.4616
  232MOL0     H31277   8.959   2.093   8.121 -0.5514 -0.6655  2.2825
  232MOL0     H31278   9.046   1.840   8.010 -0.0101 -1.6849  2.7963
  232MOL0     H31279   9.088   1.909   8.176  1.3211  1.2988  0.4005
  232MOL0     H31280   9.286   1.787   8.052  1.4735 -2.2362 -0.6575
  232MOL0     H31281   9.585   1.677   7.878 -0.7457 -2.0270 -0.0137
  232MOL0     H31282   9.590   1.669   8.047  2.0202 -0.9783 -1.4339
  232MOL0     H31283   9.432   1.644   7.973 -0.6021  1.2674  0.0819
  232MOL0     H31284   9.923   2.140   8.179 -2.2482  0.4945 -1.2711
  232MOL0     H31285  10.182   2.160   8.175  1.3193 -1.2254  0.0749
  232MOL0     H31286  10.470   2.041   7.832  2.0754  1.3812 -0.4946
  232MOL0     H31287  10.360   2.184   7.823 -1.1751  0.0597 -0.3839
  232MOL0     H31288  10.488   2.312   7.951  0.7289  0.9521  0.5957
  232MOL0     H31289  10.540   2.171   8.058 -0.6331  0.8534 -0.8655
  232MOL0     H31290  10.634   2.245   7.766 -0.5060 -1.8982  0.0245
  232MOL0     H31291  10.671   2.105   7.838  1.0430  0.3937 -2.5140
  232MOL0     H31292  10.727   2.312   8.050  0.2409  0.4887  0.0392
  232MOL0     H31293  10.833   2.194   7.989 -1.6329  0.3330  1.3988
  232MOL0     H31294  10.893   2.445   7.946  0.9759  0.5115 -2.2074
  232MOL0     H31295  10.762   2.436   7.828 -1.5210 -2.1003  0.3234
  232MOL0     H31296  10.970   2.213   7.799  0.2349  0.7443  0.8985
  232MOL0     H31297  10.856   2.285   7.692 -0.2241  2.1078 -0.8294
  232MOL0     H31298  11.098   2.332   7.677 -2.6972 -0.4223 -1.4583
  232MOL0     H31299  11.099   2.433   7.817  1.7198  1.4150 -0.9537
  232MOL0     H31300  11.118   2.589   7.626 -2.3795  3.6499 -2.1514
  232MOL0     H31301  10.980   2.603   7.729 -0.1745  1.3280 -0.7517
  232MOL0     H31302  10.193   2.002   7.788  1.1452 -1.1018  1.1132
  232MOL0     H31303   9.933   1.995   7.786  0.8763 -3.0045  1.2227
  232MOL0     H31304   9.559   2.179   7.943 -0.7836  0.6377  3.5161
  232MOL0     H31305   9.312   2.199   7.953 -2.5392 -1.2082  2.8763
  232MOL0     H31306   9.646   2.951   7.309 -0.9764 -0.2938 -2.1391
  232MOL0     H31307   9.881   2.987   7.320 -2.3043 -0.9729 -1.1464
  232MOL0     H31308  10.224   3.245   7.254 -0.3551 -2.1324  1.1833
  232MOL0     H31309  10.466   3.276   7.237  1.9496  0.2619 -0.2244
  232MOL0     H31310  10.612   3.501   7.493 -0.9965 -0.1592  0.7594
  232MOL0     H31311  10.728   3.392   7.583 -0.7987 -2.0243 -0.8525
  232MOL0     H31312  10.863   3.558   7.460  2.0397  0.6333 -1.5469
  232MOL0     H31313  10.765   3.530   7.321  3.0933  1.9339  0.6471
  232MOL0     H31314  10.849   3.328   7.272 -1.2133 -1.4647  0.9121
  232MOL0     H31315  10.935   3.287   7.425  1.8659 -1.2841 -1.6609
  232MOL0     H31316  11.008   3.512   7.242 -1.5718 -1.4246 -0.9413
  232MOL0     H31317  11.077   3.358   7.234 -0.4492  1.1389 -0.7339
  232MOL0     H31318  11.264   3.559   7.579  0.2140  1.1143 -0.2167
  232MOL0     H31319  10.503   3.322   7.659  2.6392 -0.5338 -0.9745
  232MOL0     H31320  10.264   3.261   7.689 -0.5730 -4.3602 -0.0115
  233MOL0     O31321   8.092   8.482   1.191 -0.1231  1.3616 -0.3312
  233MOL0     C31322   8.079   8.390   1.270  0.7635  0.1121 -0.5029
  233MOL0     O31323   7.955   8.358   1.318 -0.0941  0.3041 -0.1044
  233MOL0     C31324   7.841   8.417   1.266  0.0735 -0.0260  0.6982
  233MOL0     C31325   7.808   8.552   1.309  0.8675 -0.0110  0.6560
  233MOL0     C31326   7.690   8.607   1.260  0.5541  0.1044 -0.0783
  233MOL0     C31327   7.594   8.540   1.190 -0.9545  0.1991 -0.0448
  233MOL0     O31328   7.472   8.596   1.159 -0.0627  0.5372 -0.1344
  233MOL0     C31329   7.385   8.595   1.269  1.3515 -0.4236 -0.2135
  233MOL0     C31330   7.292   8.720   1.257  0.9463 -0.7048  0.3757
  233MOL0     C31331   7.174   8.733   1.360 -0.5161 -0.8088 -0.7846
  233MOL0     C31332   7.042   8.708   1.294  1.1899 -0.9321 -0.3381
  233MOL0     C31333   6.923   8.741   1.381  0.5595 -0.0130 -0.0792
  233MOL0     C31334   6.794   8.710   1.304  0.4591  0.7569  0.0566
  233MOL0     C31335   6.681   8.763   1.390 -0.4760 -0.8090  0.5021
  233MOL0     C31336   6.652   8.675   1.512 -0.5752 -0.0092  0.0218
  233MOL0     N31337   6.518   8.705   1.562 -0.8027 -0.1569 -0.2773
  233MOL0     C31338   6.485   8.746   1.691  0.0597 -0.3521 -0.3832
  233MOL0     C31339   6.353   8.743   1.706  0.5169  0.4970  0.3245
  233MOL0     C31340   6.281   8.781   1.830 -0.4149  0.5454 -0.1969
  233MOL0     C31341   6.251   8.658   1.920 -0.2590 -0.1697  1.1852
  233MOL0     C31342   6.374   8.645   2.013  0.1390  0.3578  0.1287
  233MOL0     C31343   6.333   8.571   2.137 -0.0280 -0.0601  0.0111
  233MOL0     O31344   6.230   8.638   2.207 -0.4465 -0.3279 -0.1810
  233MOL0     C31345   6.128   8.553   2.249  1.0961 -0.3407 -0.4100
  233MOL0     C31346   6.011   8.540   2.185  0.4073 -0.2385  0.6692
  233MOL0     C31347   5.897   8.464   2.226 -0.3367  0.2717 -0.0742
  233MOL0     C31348   5.770   8.451   2.139 -0.9041 -0.6468  0.5202
  233MOL0     C31349   5.915   8.400   2.354  0.1984 -0.1765 -0.3379
  233MOL0     C31350   5.798   8.337   2.434  0.2552 -0.2693 -0.1802
  233MOL0     O31351   5.805   8.330   2.569  0.5725  0.1711  0.0785
  233MOL0     C31352   5.679   8.291   2.629 -0.0041 -0.3240 -0.7525
  233MOL0     C31353   5.676   8.168   2.701  0.2778 -0.2557  0.0760
  233MOL0     C31354   5.562   8.121   2.764  0.2860 -0.9664 -0.8101
  233MOL0     C31355   5.437   8.200   2.756  0.4856 -0.7311 -0.2420
  233MOL0     O31356   5.326   8.174   2.834  0.1336  0.0597 -0.0503
  233MOL0     C31357   5.311   8.278   2.940 -0.3371 -1.1331  0.2224
  233MOL0     C31358   5.192   8.253   3.029 -0.8255 -0.2750  0.7546
  233MOL0     C31359   5.192   8.346   3.152  0.5370  0.0310  0.6484
  233MOL0     C31360   5.258   8.279   3.268 -0.2378 -0.6883 -0.4518
  233MOL0     C31361   5.240   8.363   3.395 -0.7275 -0.9845 -0.2068
  233MOL0     C31362   5.342   8.480   3.386  0.4014  0.4539 -0.2690
  233MOL0     C31363   5.384   8.535   3.517 -0.7416 -0.0842 -1.1607
  233MOL0     C31364   5.377   8.692   3.516 -0.4915  0.0905  0.6986
  233MOL0    Cl31365   5.191   8.736   3.520 -0.3229  0.1990  0.5693
  233MOL0     C31366   5.436   8.315   2.668  0.5095  0.9867 -0.7587
  233MOL0     C31367   5.554   8.360   2.608 -0.2563  0.4138  0.1254
  233MOL0     O31368   5.708   8.295   2.371  0.6079 -0.1496  0.5905
  233MOL0     C31369   6.038   8.409   2.421 -0.0372  0.7701  0.0421
  233MOL0     C31370   6.146   8.482   2.364  0.3647  0.6730 -0.4354
  233MOL0     N31371   6.305   8.676   1.593 -0.2333 -0.0142  0.4761
  233MOL0     N31372   6.400   8.660   1.508  0.8396 -0.4658 -0.1138
  233MOL0     C31373   7.625   8.405   1.159 -0.1469 -0.4332  0.2562
  233MOL0     C31374   7.749   8.351   1.184 -1.0972 -0.0899 -0.3028
  233MOL0     C31375   8.204   8.314   1.315  0.4431 -0.7689  0.2880
  233MOL0     C31376   8.333   8.331   1.259  0.1598 -0.1504  0.0555
  233MOL0     C31377   8.445   8.268   1.317  0.0840 -0.5336 -0.6906
  233MOL0     C31378   8.436   8.178   1.427 -0.3467  0.0921  0.8341
  233MOL0     O31379   8.547   8.121   1.481  0.2929  0.4580 -0.0309
  233MOL0     C31380   8.672   8.177   1.449  0.1483  0.6945 -0.8863
  233MOL0     C31381   8.798   8.117   1.533 -0.0749 -0.5134  0.4997
  233MOL0     C31382   8.861   7.996   1.464 -0.1270  1.1127  0.3940
  233MOL0     C31383   8.920   7.886   1.551  0.0348 -0.4743 -0.6218
  233MOL0     C31384   9.018   7.943   1.639 -0.1720  0.1655 -0.1379
  233MOL0     C31385   9.087   7.998   1.725 -0.2115 -0.3190  0.4610
  233MOL0     C31386   8.301   8.139   1.472  0.1747 -0.5255  1.0818
  233MOL0     C31387   8.191   8.213   1.419  0.4108  0.4893 -0.5290
  233MOL0     H31388   7.878   8.613   1.365 -0.3662  2.2804 -0.1453
  233MOL0     H31389   7.666   8.707   1.293 -0.4480 -0.3158  0.5027
  233MOL0     H31390   7.330   8.501   1.264 -0.1061  0.2902  1.5013
  233MOL0     H31391   7.434   8.590   1.367 -1.6229 -3.0848  1.3073
  233MOL0     H31392   7.356   8.806   1.279 -0.2342  0.3568 -0.2249
  233MOL0     H31393   7.257   8.730   1.154 -1.6172 -2.2181  1.0152
  233MOL0     H31394   7.189   8.668   1.447 -1.1655 -0.3930 -0.3549
  233MOL0     H31395   7.172   8.832   1.406  0.1420 -1.0931 -0.1101
  233MOL0     H31396   7.035   8.768   1.202  0.2259 -3.3908 -1.9676
  233MOL0     H31397   7.033   8.601   1.272 -2.4503 -0.9057  0.4511
  233MOL0     H31398   6.929   8.678   1.470  0.3680 -0.0318 -0.0788
  233MOL0     H31399   6.924   8.846   1.410 -0.1619 -0.1981  0.6626
  233MOL0     H31400   6.795   8.760   1.207  2.4664 -0.6922 -0.7369
  233MOL0     H31401   6.780   8.602   1.292  3.4254  0.1421  1.1810
  233MOL0     H31402   6.700   8.867   1.416  0.1588 -0.5514 -0.9248
  233MOL0     H31403   6.594   8.773   1.324  2.3797  2.0787 -3.2509
  233MOL0     H31404   6.725   8.677   1.594 -1.4098 -0.9109  0.8139
  233MOL0     H31405   6.652   8.572   1.474  0.5791  0.7907 -2.3384
  233MOL0     H31406   6.551   8.787   1.767 -1.8528  2.6630 -0.1328
  233MOL0     H31407   6.324   8.871   1.875 -2.9971  2.2892 -0.9541
  233MOL0     H31408   6.186   8.816   1.788 -1.2075  0.8602  1.7271
  233MOL0     H31409   6.237   8.573   1.853  0.2183 -0.2507  1.1860
  233MOL0     H31410   6.162   8.670   1.983 -0.6246  0.6582  0.5338
  233MOL0     H31411   6.414   8.744   2.035 -0.0460  0.9370 -1.9291
  233MOL0     H31412   6.458   8.594   1.963  0.3350 -1.1623  1.9188
  233MOL0     H31413   6.422   8.564   2.200  2.1602 -0.0369 -2.8596
  233MOL0     H31414   6.298   8.469   2.115 -0.8419  0.0576  0.6996
  233MOL0     H31415   5.995   8.589   2.089 -0.3475 -0.7709  0.5108
  233MOL0     H31416   5.749   8.362   2.079 -1.5662 -0.8917  1.0967
  233MOL0     H31417   5.681   8.474   2.200 -1.0885  1.5262 -0.4402
  233MOL0     H31418   5.778   8.536   2.070  0.8825  0.9374  2.5474
  233MOL0     H31419   5.770   8.117   2.723 -0.2856 -1.0150  0.7837
  233MOL0     H31420   5.577   8.031   2.823  3.2646 -0.0097  0.1029
  233MOL0     H31421   5.405   8.272   2.996  1.9371 -0.2416 -3.1318
  233MOL0     H31422   5.321   8.375   2.890 -0.7583 -1.4955 -0.5939
  233MOL0     H31423   5.100   8.269   2.972 -2.1881 -0.6964  2.6970
  233MOL0     H31424   5.192   8.148   3.060  1.8649 -0.1438  1.4584
  233MOL0     H31425   5.090   8.378   3.176  0.2496 -0.8450  0.6166
  233MOL0     H31426   5.245   8.435   3.118  0.5251  0.0330  0.6353
  233MOL0     H31427   5.222   8.177   3.288  0.4726 -0.9840 -0.6379
  233MOL0     H31428   5.365   8.267   3.247  0.4097  1.5886  1.1895
  233MOL0     H31429   5.271   8.303   3.481  2.7558 -0.8325 -1.1739
  233MOL0     H31430   5.137   8.395   3.409 -0.1974  0.5538  0.3229
  233MOL0     H31431   5.436   8.448   3.339  1.2557  1.4668  0.6920
  233MOL0     H31432   5.305   8.559   3.320  0.6183  1.4238  0.7539
  233MOL0     H31433   5.489   8.505   3.521 -0.1801  1.5401 -2.5230
  233MOL0     H31434   5.320   8.507   3.601  0.8238  2.4138  1.0126
  233MOL0     H31435   5.429   8.730   3.428  0.3497 -0.5706  0.9020
  233MOL0     H31436   5.420   8.739   3.605  0.6696  1.2354 -0.4243
  233MOL0     H31437   5.344   8.370   2.653 -0.3623  0.0007  0.6810
  233MOL0     H31438   5.554   8.450   2.547 -0.6712  0.7190  0.5644
  233MOL0     H31439   6.056   8.367   2.520 -1.0785  2.3109  0.9112
  233MOL0     H31440   6.234   8.483   2.427  0.0594 -1.8503  0.1564
  233MOL0     H31441   7.544   8.345   1.118 -2.9404  0.3593  4.0492
  233MOL0     H31442   7.770   8.251   1.147  1.9662  1.6704 -4.0615
  233MOL0     H31443   8.342   8.404   1.179 -0.4622  0.2785  0.3631
  233MOL0     H31444   8.543   8.303   1.284  0.3896  1.2822  1.8525
  233MOL0     H31445   8.696   8.162   1.343  2.4883  3.3237 -0.8383
  233MOL0     H31446   8.671   8.285   1.466 -0.7717  0.9431 -2.3974
  233MOL0     H31447   8.774   8.091   1.637  2.1667  0.9297  1.4651
  233MOL0     H31448   8.879   8.190   1.541 -0.4353 -0.2100  1.7600
  233MOL0     H31449   8.942   8.022   1.396  1.4764 -0.0586  1.7641
  233MOL0     H31450   8.794   7.955   1.388  1.0701  1.3625 -0.8177
  233MOL0     H31451   8.962   7.807   1.488  0.0924 -1.5706  0.7132
  233MOL0     H31452   8.836   7.844   1.607 -1.1205  1.3695 -0.9142
  233MOL0     H31453   9.144   8.049   1.800 -0.4619 -2.4142  2.1556
  233MOL0     H31454   8.283   8.056   1.540 -0.6546 -0.0004  1.5251
  233MOL0     H31455   8.088   8.189   1.443  0.0015  1.2204 -1.4781
  234MOL0     O31456   9.185   5.523   7.046 -0.2868 -0.4687 -0.8943
  234MOL0     C31457   9.277   5.602   7.070 -0.7319  0.5762 -0.3527
  234MOL0     O31458   9.296   5.721   7.002 -0.2328 -0.0570  0.5421
  234MOL0     C31459   9.218   5.740   6.886  0.2130  0.1402  1.0756
  234MOL0     C31460   9.103   5.827   6.887 -0.2320 -0.9187 -0.2631
  234MOL0     C31461   9.037   5.845   6.764  0.5138 -0.1205  0.2431
  234MOL0     C31462   9.064   5.774   6.649 -0.0119  0.2814  0.2062
  234MOL0     O31463   8.994   5.777   6.531 -0.4489  0.2880  0.7509
  234MOL0     C31464   8.866   5.837   6.533 -0.0304 -0.4772 -0.0058
  234MOL0     C31465   8.806   5.804   6.393 -0.3249 -0.9896  0.4558
  234MOL0     C31466   8.652   5.821   6.398 -0.4636 -0.5246 -0.5153
  234MOL0     C31467   8.602   5.963   6.412  0.6165 -1.2638 -0.1328
  234MOL0     C31468   8.459   5.968   6.467 -0.3047  1.1758 -0.8957
  234MOL0     C31469   8.480   5.923   6.619  0.3185 -1.3541  1.1056
  234MOL0     C31470   8.359   5.964   6.705 -0.0608 -0.1828 -0.4043
  234MOL0     C31471   8.219   5.909   6.664 -0.4242 -0.8304  0.3917
  234MOL0     N31472   8.147   5.996   6.569 -0.9514 -0.3628  0.4767
  234MOL0     C31473   8.106   6.124   6.592 -0.9474  0.1203 -0.0055
  234MOL0     C31474   8.037   6.171   6.491  0.5460  0.6162  0.4464
  234MOL0     C31475   7.984   6.311   6.494  0.0583 -0.5349 -0.4523
  234MOL0     C31476   7.832   6.306   6.467  0.8097 -0.1299 -0.9614
  234MOL0     C31477   7.785   6.442   6.417 -0.5307 -0.5934  0.0639
  234MOL0     C31478   7.634   6.463   6.409  0.5452  0.1072 -0.4761
  234MOL0     O31479   7.601   6.522   6.283 -0.4436 -0.0445 -0.6741
  234MOL0     C31480   7.475   6.502   6.229  0.3250  1.1122 -0.5161
  234MOL0     C31481   7.444   6.551   6.098 -0.3488 -0.3989  0.0445
  234MOL0     C31482   7.323   6.551   6.044  0.4359 -0.3003 -0.1311
  234MOL0     C31483   7.316   6.620   5.911 -0.1470 -0.2804 -0.6994
  234MOL0     C31484   7.212   6.508   6.120  0.7102  0.6625  0.4765
  234MOL0     C31485   7.067   6.514   6.067 -0.8975  0.0327  0.5179
  234MOL0     O31486   6.980   6.432   6.137 -0.0036 -0.3596 -0.5171
  234MOL0     C31487   6.864   6.396   6.071  0.2545 -0.1817  0.2417
  234MOL0     C31488   6.762   6.481   6.041 -0.1617 -0.2903  0.7780
  234MOL0     C31489   6.642   6.437   5.983  0.2435  0.2795 -0.6732
  234MOL0     C31490   6.633   6.307   5.932 -0.1365 -0.4205 -0.3086
  234MOL0     O31491   6.516   6.271   5.862 -0.0563 -0.3492 -0.2394
  234MOL0     C31492   6.487   6.133   5.864 -0.0706 -0.5074 -0.3131
  234MOL0     C31493   6.345   6.119   5.818 -0.9435  0.1651  0.4088
  234MOL0     C31494   6.236   6.197   5.906 -0.3084 -0.5510  0.3874
  234MOL0     C31495   6.092   6.148   5.867  0.3481  0.3214  0.7395
  234MOL0     C31496   5.982   6.238   5.930 -0.0513 -0.5712 -0.9552
  234MOL0     C31497   5.837   6.189   5.895 -0.1467  0.0727 -0.2284
  234MOL0     C31498   5.734   6.245   5.984 -0.1121 -0.2278  0.7344
  234MOL0     C31499   5.593   6.206   5.940 -0.3518  0.4348  0.3215
  234MOL0    Cl31500   5.550   6.322   5.809 -0.2942  0.0041 -0.0702
  234MOL0     C31501   6.730   6.209   5.965  1.0979  0.3222 -0.4104
  234MOL0     C31502   6.840   6.260   6.031  0.1443  0.0778  0.2943
  234MOL0     O31503   7.033   6.577   5.965 -0.0174 -0.4391 -0.3791
  234MOL0     C31504   7.233   6.460   6.244 -0.5380  1.0799 -0.8017
  234MOL0     C31505   7.359   6.454   6.303 -0.3379 -0.5536  0.7695
  234MOL0     N31506   8.024   6.057   6.402  0.3657 -0.3671 -0.8774
  234MOL0     N31507   8.101   5.962   6.447 -0.3146  0.5194  0.6710
  234MOL0     C31508   9.176   5.694   6.655  0.0375 -0.1822 -0.8886
  234MOL0     C31509   9.253   5.679   6.771  0.8242  0.7720  0.3578
  234MOL0     C31510   9.370   5.572   7.184 -0.4898  0.0902 -0.1504
  234MOL0     C31511   9.480   5.645   7.192 -0.1260 -0.1943 -0.2109
  234MOL0     C31512   9.557   5.628   7.312  0.4035 -0.1510  1.5438
  234MOL0     C31513   9.523   5.535   7.415 -0.1867 -0.5915  0.3169
  234MOL0     O31514   9.585   5.516   7.539 -0.0057 -0.2224 -0.2628
  234MOL0     C31515   9.712   5.574   7.566 -0.0218 -0.0029  0.2861
  234MOL0     C31516   9.699   5.718   7.626 -0.1143 -0.5039  0.1306
  234MOL0     C31517   9.635   5.719   7.765  0.3550  0.5338  0.3742
  234MOL0     C31518   9.661   5.861   7.822  0.2638  0.4073  0.5100
  234MOL0     C31519   9.608   5.856   7.962 -0.3980 -0.1747 -0.6710
  234MOL0     C31520   9.577   5.841   8.077 -0.5384 -0.4648 -1.2802
  234MOL0     C31521   9.406   5.467   7.403  0.1895 -0.0474  0.5807
  234MOL0     C31522   9.331   5.483   7.291  0.2045 -0.7860  1.0332
  234MOL0     H31523   9.070   5.888   6.970 -0.6864  1.0596 -1.8207
  234MOL0     H31524   8.955   5.915   6.770  1.2917  1.1024 -2.0021
  234MOL0     H31525   8.799   5.785   6.603 -0.2894 -4.1207 -2.6666
  234MOL0     H31526   8.872   5.945   6.546 -0.0570 -0.3182 -1.2235
  234MOL0     H31527   8.848   5.869   6.316 -2.4968 -0.1600 -0.1179
  234MOL0     H31528   8.823   5.702   6.358  0.6982 -0.6404 -0.0812
  234MOL0     H31529   8.612   5.765   6.313 -1.6258 -3.1104  1.5984
  234MOL0     H31530   8.614   5.763   6.483 -1.5075  0.6270 -0.1635
  234MOL0     H31531   8.671   6.028   6.466  0.4083  0.2988 -1.6509
  234MOL0     H31532   8.587   6.008   6.313 -2.7098  0.5945  1.0460
  234MOL0     H31533   8.420   6.070   6.463  1.4338  1.9250  0.0823
  234MOL0     H31534   8.389   5.916   6.401 -0.5970 -2.0025  1.6591
  234MOL0     H31535   8.496   5.816   6.638 -0.8162 -1.7133  0.1729
  234MOL0     H31536   8.570   5.968   6.660 -1.1987  0.7128  2.3406
  234MOL0     H31537   8.375   5.929   6.807  1.5577  1.1476 -0.1509
  234MOL0     H31538   8.358   6.072   6.721 -0.0740 -0.1091 -0.8760
  234MOL0     H31539   8.155   5.914   6.753 -0.9773  2.2765 -0.0494
  234MOL0     H31540   8.231   5.809   6.621 -2.0808 -0.9255  0.0688
  234MOL0     H31541   8.141   6.185   6.675  0.6790  1.5173 -1.6328
  234MOL0     H31542   8.008   6.362   6.587 -1.2604 -1.8835  0.6844
  234MOL0     H31543   8.029   6.378   6.421  0.4131 -0.1255  0.1308
  234MOL0     H31544   7.777   6.275   6.556 -2.3841  0.6914 -2.4647
  234MOL0     H31545   7.810   6.235   6.386 -0.2749 -2.5977  1.3651
  234MOL0     H31546   7.819   6.448   6.313 -1.6107 -1.6517 -0.3707
  234MOL0     H31547   7.831   6.524   6.473  0.5899 -1.1929  0.0594
  234MOL0     H31548   7.597   6.530   6.486 -0.0744 -2.4950  1.6361
  234MOL0     H31549   7.581   6.369   6.426  1.9172 -0.6672 -0.2703
  234MOL0     H31550   7.525   6.596   6.042  0.0664 -2.9673 -1.5663
  234MOL0     H31551   7.264   6.715   5.922  1.1781  0.2127  3.0675
  234MOL0     H31552   7.417   6.631   5.871 -0.0378 -1.1453 -0.6914
  234MOL0     H31553   7.268   6.552   5.841  3.7088 -2.2707 -1.6947
  234MOL0     H31554   6.780   6.586   6.060 -4.3428  0.7370 -0.0154
  234MOL0     H31555   6.564   6.503   5.946  0.6007  0.1125 -1.7795
  234MOL0     H31556   6.555   6.083   5.794  0.1544  2.9063 -2.7494
  234MOL0     H31557   6.505   6.097   5.966  0.1927  2.1072  0.6440
  234MOL0     H31558   6.348   6.151   5.714  1.2695 -0.9499  0.0602
  234MOL0     H31559   6.322   6.012   5.826 -0.4395 -0.0544 -0.8907
  234MOL0     H31560   6.245   6.305   5.893 -1.4120 -0.5050 -0.1170
  234MOL0     H31561   6.257   6.185   6.012  1.1307  0.6219  0.2735
  234MOL0     H31562   6.080   6.148   5.758 -0.9310  0.8216  0.8622
  234MOL0     H31563   6.085   6.050   5.914 -0.1586 -0.6304 -1.2416
  234MOL0     H31564   6.001   6.336   5.886  1.8887 -1.1522 -1.4892
  234MOL0     H31565   6.004   6.241   6.038  2.4412  0.2373 -1.4215
  234MOL0     H31566   5.806   6.195   5.790  1.1074  0.0010 -0.6108
  234MOL0     H31567   5.844   6.083   5.918  1.2053 -0.0191 -0.9434
  234MOL0     H31568   5.740   6.354   5.988  1.3986 -0.3145  1.5133
  234MOL0     H31569   5.757   6.201   6.081 -1.1816 -0.1169  1.0493
  234MOL0     H31570   5.525   6.226   6.023  0.2609  0.4418  0.8297
  234MOL0     H31571   5.589   6.105   5.900  3.8351 -0.4763  1.7222
  234MOL0     H31572   6.712   6.106   5.938  0.3558  0.2827  0.1947
  234MOL0     H31573   6.910   6.177   6.041  0.3798  0.1902 -0.3681
  234MOL0     H31574   7.155   6.425   6.311 -0.1764  0.8739 -0.4797
  234MOL0     H31575   7.353   6.431   6.409 -0.7440  2.1431  1.4040
  234MOL0     H31576   9.217   5.651   6.564 -0.3413 -1.4421 -0.4810
  234MOL0     H31577   9.327   5.601   6.777 -0.7392 -0.8207 -0.1231
  234MOL0     H31578   9.501   5.717   7.114 -2.2243 -1.7321 -2.3374
  234MOL0     H31579   9.643   5.694   7.321 -0.6858  1.5805 -0.0409
  234MOL0     H31580   9.744   5.513   7.652 -1.8317  0.9066  1.6753
  234MOL0     H31581   9.785   5.572   7.484 -0.4847  1.2743 -0.1753
  234MOL0     H31582   9.644   5.772   7.549  1.4689 -0.1427 -0.7972
  234MOL0     H31583   9.793   5.773   7.631 -1.5272  1.9605  2.0305
  234MOL0     H31584   9.685   5.647   7.830 -1.5972 -0.1604  1.1520
  234MOL0     H31585   9.530   5.692   7.757  0.6490 -0.2960 -1.1765
  234MOL0     H31586   9.610   5.928   7.753  2.2709  0.2013 -1.2714
  234MOL0     H31587   9.768   5.884   7.828  0.7454 -0.5573 -2.5096
  234MOL0     H31588   9.557   5.839   8.183  0.4157  0.8874 -1.0623
  234MOL0     H31589   9.373   5.401   7.482 -0.0620 -1.5487 -0.7333
  234MOL0     H31590   9.233   5.436   7.293  0.1504 -0.7985 -0.6048
  235MOL0     O31591   9.158  10.724   6.260  0.3703 -0.6712 -0.2434
  235MOL0     C31592   9.193  10.714   6.375  0.2241  0.3602  0.0220
  235MOL0     O31593   9.106  10.698   6.488 -0.3262 -0.3513  0.2453
  235MOL0     C31594   8.970  10.701   6.475 -0.1476  0.4832 -0.2819
  235MOL0     C31595   8.896  10.769   6.380  0.1420 -0.4893 -0.0074
  235MOL0     C31596   8.754  10.743   6.380 -0.7406  0.1276 -0.5733
  235MOL0     C31597   8.694  10.657   6.476 -0.0403  0.4202 -0.1419
  235MOL0     O31598   8.562  10.610   6.473 -0.0903  0.2428 -0.4267
  235MOL0     C31599   8.469  10.630   6.360 -0.5525  0.0960  0.6405
  235MOL0     C31600   8.330  10.575   6.392  0.3356  1.0383  0.2793
  235MOL0     C31601   8.241  10.676   6.466 -0.2901 -0.2713  0.6318
  235MOL0     C31602   8.103  10.608   6.490  0.1864 -0.3884 -0.4219
  235MOL0     C31603   8.007  10.709   6.560 -0.2439 -0.8151  0.4371
  235MOL0     C31604   7.878  10.652   6.623  0.3970  0.1504 -0.3177
  235MOL0     C31605   7.897  10.559   6.747  0.4136 -0.0808  0.0032
  235MOL0     C31606   7.759  10.526   6.804 -0.7073 -0.7630  0.0323
  235MOL0     N31607   7.741  10.457   6.931 -0.5834  0.2496 -0.5268
  235MOL0     C31608   7.664  10.495   7.034  0.2503 -0.5411  0.5566
  235MOL0     C31609   7.674  10.397   7.120  0.1294  0.6476 -0.2355
  235MOL0     C31610   7.623  10.409   7.263  0.5298  0.2454 -0.1684
  235MOL0     C31611   7.494  10.336   7.285 -0.2482 -0.2358 -0.2645
  235MOL0     C31612   7.383  10.423   7.336 -0.8213  0.1710  0.5778
  235MOL0     C31613   7.328  10.504   7.222  1.3804  0.1001 -0.3202
  235MOL0     O31614   7.200  10.560   7.260  0.2292  0.3854 -0.4692
  235MOL0     C31615   7.078  10.502   7.230  1.0529 -0.3147  0.4325
  235MOL0     C31616   7.062  10.384   7.166 -0.6508  0.1856 -0.6721
  235MOL0     C31617   6.936  10.322   7.151  0.4101 -0.0076 -0.5767
  235MOL0     C31618   6.927  10.190   7.069  0.3777 -0.4289 -0.0458
  235MOL0     C31619   6.819  10.387   7.196  0.5604 -0.2122 -0.3012
  235MOL0     C31620   6.674  10.345   7.180 -0.1694  0.1139 -0.2186
  235MOL0     O31621   6.569  10.442   7.174 -0.3810  0.2690  0.7851
  235MOL0     C31622   6.443  10.395   7.138  0.2597  0.2589  0.4990
  235MOL0     C31623   6.373  10.308   7.222  0.4756 -0.0001 -0.2061
  235MOL0     C31624   6.239  10.284   7.194 -0.8759 -0.4239 -0.5073
  235MOL0     C31625   6.178  10.330   7.079  0.2454  0.2757 -0.0363
  235MOL0     O31626   6.055  10.273   7.050  0.1950  0.7799 -0.4012
  235MOL0     C31627   5.964  10.356   6.981  0.4318 -0.3052  0.7801
  235MOL0     C31628   5.817  10.329   7.028  0.0394 -0.1621  0.0932
  235MOL0     C31629   5.726  10.420   6.951 -0.9087  0.2746  0.3838
  235MOL0     C31630   5.583  10.399   7.007 -0.3060  0.6445  0.3542
  235MOL0     C31631   5.484  10.461   6.918 -0.6714  0.6025 -0.4223
  235MOL0     C31632   5.341  10.465   6.970  0.8759  0.0934 -0.0865
  235MOL0     C31633   5.253  10.513   6.851 -0.2855  1.0378 -0.3004
  235MOL0     C31634   5.108  10.501   6.893  0.4339  0.1600 -0.0484
  235MOL0    Cl31635   5.056  10.608   7.032 -0.2207  0.4127  0.3905
  235MOL0     C31636   6.245  10.419   6.992  0.1763 -0.1387 -0.2663
  235MOL0     C31637   6.382  10.461   7.031 -0.0161  0.1530 -0.1914
  235MOL0     O31638   6.655  10.226   7.169  0.1105  0.5278 -0.8896
  235MOL0     C31639   6.838  10.518   7.248 -0.3017  0.1767  0.1896
  235MOL0     C31640   6.969  10.564   7.276 -0.3163 -0.8131  0.1617
  235MOL0     N31641   7.753  10.292   7.076 -0.4330 -0.1768  0.3447
  235MOL0     N31642   7.806  10.339   6.960 -0.7676  0.3321  0.0897
  235MOL0     C31643   8.778  10.612   6.576  0.3740  0.2984  0.4942
  235MOL0     C31644   8.909  10.634   6.577  0.4501  0.1495 -0.7114
  235MOL0     C31645   9.339  10.709   6.404 -0.2321 -0.4869  0.1280
  235MOL0     C31646   9.426  10.731   6.302 -0.0670 -0.4044  0.1506
  235MOL0     C31647   9.565  10.717   6.319  0.2536  0.9223  0.0608
  235MOL0     C31648   9.616  10.691   6.448 -0.6518  0.3411 -0.6464
  235MOL0     O31649   9.758  10.680   6.456  0.7697  0.0253 -0.1262
  235MOL0     C31650   9.818  10.679   6.588 -1.1700  0.8479 -0.3549
  235MOL0     C31651   9.824  10.811   6.657 -0.4568  0.2546  0.4274
  235MOL0     C31652   9.905  10.909   6.580 -0.0368  0.2032 -0.5756
  235MOL0     C31653   9.921  11.046   6.652 -1.0583  0.0793  0.4025
  235MOL0     C31654  10.022  11.023   6.757  0.3701 -0.7235 -0.0867
  235MOL0     C31655  10.102  11.013   6.845  0.2913 -0.0128  0.1674
  235MOL0     C31656   9.535  10.673   6.554  0.0507 -0.0794 -0.6909
  235MOL0     C31657   9.397  10.675   6.530  0.5617 -0.6161 -0.4205
  235MOL0     H31658   8.946  10.835   6.310 -0.2899  1.0721  1.0902
  235MOL0     H31659   8.684  10.786   6.310 -2.6667  1.5663  2.0565
  235MOL0     H31660   8.473  10.733   6.324 -0.4909  0.1665  0.8521
  235MOL0     H31661   8.505  10.572   6.274 -1.1624  3.2189 -1.9168
  235MOL0     H31662   8.288  10.546   6.295 -0.6463  0.3302  0.9045
  235MOL0     H31663   8.348  10.486   6.452  0.7007  0.0448 -1.2411
  235MOL0     H31664   8.293  10.726   6.548  0.8388  1.4669 -1.0588
  235MOL0     H31665   8.221  10.756   6.394 -3.9225  0.1224  1.8523
  235MOL0     H31666   8.064  10.564   6.398 -0.4945 -4.5446  1.6627
  235MOL0     H31667   8.124  10.521   6.553 -1.8463 -0.0994  0.7395
  235MOL0     H31668   8.068  10.771   6.626  2.2879  0.0051 -2.4363
  235MOL0     H31669   7.977  10.782   6.484  1.0413 -0.2663  0.4443
  235MOL0     H31670   7.809  10.734   6.645  3.1451  2.1366  1.6984
  235MOL0     H31671   7.836  10.582   6.550  2.4295 -3.9808  2.0986
  235MOL0     H31672   7.943  10.466   6.712  3.6433  1.9484 -1.6615
  235MOL0     H31673   7.965  10.606   6.820 -0.4832  1.0675  0.1181
  235MOL0     H31674   7.706  10.467   6.728  2.0194 -1.5684 -1.3892
  235MOL0     H31675   7.723  10.629   6.814 -1.7956 -0.9265 -1.7882
  235MOL0     H31676   7.595  10.578   7.047 -0.8968 -1.3670 -0.0381
  235MOL0     H31677   7.696  10.368   7.333 -0.2897  1.0955  1.2536
  235MOL0     H31678   7.604  10.514   7.287 -1.0534  0.8140 -3.3833
  235MOL0     H31679   7.505  10.254   7.356 -3.4362 -2.1680 -1.7835
  235MOL0     H31680   7.452  10.272   7.207 -2.3037 -0.7328  1.1721
  235MOL0     H31681   7.413  10.490   7.418  0.3833 -0.2051  0.4679
  235MOL0     H31682   7.310  10.351   7.376  0.0116 -0.4860  0.9554
  235MOL0     H31683   7.319  10.451   7.127 -1.1532  2.3292 -1.4573
  235MOL0     H31684   7.393  10.589   7.197 -0.2362  0.9358 -1.9240
  235MOL0     H31685   7.145  10.331   7.121  0.6896  1.4830  0.2083
  235MOL0     H31686   6.900  10.123   7.151 -0.2254  0.0152  0.1299
  235MOL0     H31687   6.841  10.190   7.000 -0.0215 -0.8823  0.4461
  235MOL0     H31688   7.021  10.158   7.023 -0.4479 -3.4832  0.2193
  235MOL0     H31689   6.420  10.266   7.311 -2.6507 -1.2883  0.9925
  235MOL0     H31690   6.186  10.222   7.266  0.1406 -2.9199 -1.7787
  235MOL0     H31691   5.987  10.462   6.994 -1.3165  0.0392  1.4456
  235MOL0     H31692   5.975  10.343   6.873  1.4904  1.1736  0.6797
  235MOL0     H31693   5.791  10.224   7.011  1.4760 -0.2896 -1.6438
  235MOL0     H31694   5.800  10.349   7.134 -2.6547  1.9130 -0.6334
  235MOL0     H31695   5.736  10.411   6.842 -2.0842  0.9778  0.1958
  235MOL0     H31696   5.761  10.522   6.971 -0.0176  0.4743 -1.8313
  235MOL0     H31697   5.569  10.290   7.008  2.0260  0.2772 -0.1786
  235MOL0     H31698   5.567  10.447   7.103 -0.8510  0.1185  0.5335
  235MOL0     H31699   5.485  10.394   6.831  0.3338 -1.7089  1.2585
  235MOL0     H31700   5.515  10.565   6.901  1.3360 -0.1547 -1.8479
  235MOL0     H31701   5.319  10.360   6.992 -0.0446  0.5422  1.2854
  235MOL0     H31702   5.315  10.526   7.057  1.8419 -0.7655  0.8422
  235MOL0     H31703   5.270  10.434   6.777  0.7134 -0.7273  1.7064
  235MOL0     H31704   5.274  10.613   6.811  2.5909  0.8111  0.4338
  235MOL0     H31705   5.085  10.397   6.918 -1.2688  0.8743  1.5974
  235MOL0     H31706   5.039  10.526   6.812 -0.2226 -1.9840 -0.2060
  235MOL0     H31707   6.191  10.454   6.904  0.2097 -0.3238 -0.3624
  235MOL0     H31708   6.448  10.532   6.982 -0.1508 -0.3601 -1.1484
  235MOL0     H31709   6.759  10.588   7.273 -0.3672 -0.5295  2.0773
  235MOL0     H31710   6.980  10.646   7.346  0.3537 -1.1155  0.4297
  235MOL0     H31711   8.740  10.538   6.646  3.1467  0.0979  1.9118
  235MOL0     H31712   8.970  10.581   6.649 -0.2336  0.0939 -0.1595
  235MOL0     H31713   9.397  10.752   6.199 -2.6564 -1.6737  0.5470
  235MOL0     H31714   9.634  10.710   6.236  0.2412 -1.6690  0.1977
  235MOL0     H31715   9.761  10.616   6.658  0.4863  1.7520  1.9250
  235MOL0     H31716   9.912  10.624   6.579 -1.7202 -0.0936 -0.6259
  235MOL0     H31717   9.859  10.797   6.759  0.0006 -2.3479 -0.0231
  235MOL0     H31718   9.724  10.856   6.659 -0.2351  0.8745 -0.9754
  235MOL0     H31719   9.842  10.936   6.495 -0.2436  1.7095  0.0378
  235MOL0     H31720  10.003  10.869   6.553 -0.7041  0.1774 -3.3098
  235MOL0     H31721   9.820  11.061   6.688 -2.5232 -2.0541 -2.3672
  235MOL0     H31722   9.954  11.127   6.586 -3.5188  1.0621  0.2987
  235MOL0     H31723  10.175  11.011   6.923 -1.9255  0.2056  2.3594
  235MOL0     H31724   9.573  10.648   6.652  2.5863  0.1085 -1.5453
  235MOL0     H31725   9.343  10.649   6.620  1.3680  1.0944  0.6138
  236MOL0     O31726   6.527   8.378   8.801 -0.1942  0.4120  0.0427
  236MOL0     C31727   6.590   8.286   8.749 -0.2691  0.7550  0.8683
  236MOL0     O31728   6.537   8.198   8.664 -0.5494 -0.1764  0.0519
  236MOL0     C31729   6.404   8.191   8.645  0.0885  0.3718  0.5023
  236MOL0     C31730   6.308   8.165   8.745 -0.7486  0.1126  0.0286
  236MOL0     C31731   6.177   8.140   8.718 -0.2491  0.1904 -0.0995
  236MOL0     C31732   6.129   8.151   8.585  0.5835 -0.1035  0.3254
  236MOL0     O31733   5.999   8.125   8.565  0.5806 -0.3475 -0.5870
  236MOL0     C31734   5.939   8.113   8.432  0.8150 -0.4428 -0.0438
  236MOL0     C31735   5.794   8.051   8.441  0.7568  0.4115  0.3382
  236MOL0     C31736   5.710   8.092   8.562  0.1064  0.4664  0.0524
  236MOL0     C31737   5.561   8.050   8.545 -0.2167 -0.3242  0.4910
  236MOL0     C31738   5.488   8.045   8.669  0.2413  0.0917 -0.2945
  236MOL0     C31739   5.437   8.181   8.719  0.2052 -0.0209  0.4483
  236MOL0     C31740   5.319   8.187   8.817  0.7557 -0.4942  0.3691
  236MOL0     C31741   5.335   8.130   8.956 -0.5907  0.1071 -0.5689
  236MOL0     N31742   5.205   8.110   9.036 -0.2948  0.1651 -0.3326
  236MOL0     C31743   5.170   8.187   9.145 -0.2801 -0.2728  0.2873
  236MOL0     C31744   5.046   8.143   9.179  0.1731 -0.0658  0.0344
  236MOL0     C31745   4.964   8.195   9.295 -0.1671 -0.4459  0.0647
  236MOL0     C31746   4.811   8.186   9.292  0.0204 -0.2295  0.1764
  236MOL0     C31747   4.762   8.044   9.294 -0.3447  0.3394  0.0666
  236MOL0     C31748   4.615   8.038   9.305 -0.2607 -0.3043 -0.4200
  236MOL0     O31749   4.572   8.075   9.434  0.5629  0.1041 -0.1805
  236MOL0     C31750   4.438   8.098   9.443  0.6691  0.0852 -0.1460
  236MOL0     C31751   4.390   8.139   9.559 -0.0986  1.0920 -0.0804
  236MOL0     C31752   4.257   8.180   9.581 -0.2977  0.0410  0.4502
  236MOL0     C31753   4.206   8.217   9.720 -0.8834 -0.0695 -0.1724
  236MOL0     C31754   4.160   8.164   9.473 -0.4107 -0.5081  0.3994
  236MOL0     C31755   4.015   8.199   9.470 -0.3629  0.6194  0.7371
  236MOL0     O31756   3.940   8.107   9.396 -0.5564 -0.7809 -0.8151
  236MOL0     C31757   3.812   8.134   9.397  0.6812 -0.3020 -0.2007
  236MOL0     C31758   3.758   8.223   9.305  0.1197  1.3394  0.3394
  236MOL0     C31759   3.622   8.240   9.304 -0.3412 -0.3525  0.0623
  236MOL0     C31760   3.535   8.177   9.387 -0.2702 -0.1179  0.0772
  236MOL0     O31761   3.404   8.189   9.374  0.2383  0.0134 -0.1233
  236MOL0     C31762   3.339   8.285   9.288 -0.0579  0.4946  0.4577
  236MOL0     C31763   3.191   8.317   9.306  0.0744  0.0624 -0.7286
  236MOL0     C31764   3.106   8.181   9.311 -0.1106 -0.6872 -0.1431
  236MOL0     C31765   2.975   8.197   9.384  0.9522 -0.0413 -0.5832
  236MOL0     C31766   2.865   8.276   9.307 -0.0586  0.4176 -0.3168
  236MOL0     C31767   2.748   8.282   9.404  0.5909 -0.8697  0.2177
  236MOL0     C31768   2.634   8.344   9.326 -0.3161  0.0572  0.2744
  236MOL0     C31769   2.506   8.364   9.402  0.4858  0.0654  0.0450
  236MOL0    Cl31770   2.541   8.463   9.560 -0.0431 -0.3035  0.0173
  236MOL0     C31771   3.586   8.076   9.470  0.1395  0.3514 -0.5556
  236MOL0     C31772   3.724   8.056   9.474  0.0490  0.4131  0.3958
  236MOL0     O31773   3.969   8.295   9.528 -0.5299 -0.4165  0.1693
  236MOL0     C31774   4.206   8.102   9.357 -0.6665  0.6320 -0.7128
  236MOL0     C31775   4.340   8.072   9.343 -0.1811 -0.0042  0.2831
  236MOL0     N31776   5.012   8.045   9.084 -0.2750  0.4772 -0.4503
  236MOL0     N31777   5.103   8.036   8.996 -0.3475  0.7835  0.5279
  236MOL0     C31778   6.220   8.181   8.486 -0.7755  0.0214  0.5860
  236MOL0     C31779   6.353   8.205   8.515 -0.1459 -0.1338 -0.8164
  236MOL0     C31780   6.738   8.265   8.763  0.1317  0.1432  0.6298
  236MOL0     C31781   6.813   8.345   8.848 -0.1108 -0.0412  0.3447
  236MOL0     C31782   6.949   8.319   8.874  0.6978  0.2033  0.2432
  236MOL0     C31783   7.015   8.215   8.801  0.1774  0.6442  0.7138
  236MOL0     O31784   7.144   8.181   8.813 -0.0638 -0.1693 -0.6948
  236MOL0     C31785   7.238   8.259   8.889  0.5336 -0.8674 -0.3745
  236MOL0     C31786   7.353   8.171   8.931  0.2745  0.3245  0.3439
  236MOL0     C31787   7.312   8.031   8.987  0.0483 -0.3537  0.3428
  236MOL0     C31788   7.292   7.927   8.873  0.5870  0.0592 -0.7194
  236MOL0     C31789   7.420   7.903   8.801  0.4017  0.1777 -0.0484
  236MOL0     C31790   7.511   7.872   8.727 -0.8447 -0.1012 -0.0546
  236MOL0     C31791   6.941   8.141   8.702  0.4652  0.0836  0.2518
  236MOL0     C31792   6.805   8.166   8.693 -0.8795  0.5055  0.2404
  236MOL0     H31793   6.350   8.161   8.845 -1.4236  1.1231  0.3667
  236MOL0     H31794   6.105   8.112   8.794  0.2669  0.5791  0.5402
  236MOL0     H31795   5.931   8.219   8.404 -1.6199 -0.9855 -1.6509
  236MOL0     H31796   5.997   8.059   8.356 -1.4497 -1.0995 -1.3871
  236MOL0     H31797   5.739   8.078   8.351  0.6916  1.9042  0.7959
  236MOL0     H31798   5.806   7.943   8.442 -0.5548  0.2373  2.5798
  236MOL0     H31799   5.751   8.044   8.651 -1.9398 -0.8291  0.3501
  236MOL0     H31800   5.702   8.201   8.570  0.5021  0.4613  0.5301
  236MOL0     H31801   5.510   8.115   8.473  0.5966  1.8170  1.7753
  236MOL0     H31802   5.559   7.948   8.504  4.2731 -0.9217  1.3125
  236MOL0     H31803   5.401   7.979   8.662 -0.3773  0.9448 -0.9388
  236MOL0     H31804   5.552   7.999   8.745 -0.0245  1.9594  1.1612
  236MOL0     H31805   5.526   8.219   8.771  0.8027 -0.7565 -0.0079
  236MOL0     H31806   5.405   8.236   8.631 -0.4063 -0.5374  0.3488
  236MOL0     H31807   5.274   8.286   8.820  2.0478  0.1061  0.5665
  236MOL0     H31808   5.231   8.131   8.783 -1.1417  1.4255  1.8995
  236MOL0     H31809   5.403   8.189   9.018  0.5994 -2.0073  0.2360
  236MOL0     H31810   5.385   8.033   8.950  3.0525  1.8136 -0.5166
  236MOL0     H31811   5.220   8.269   9.196 -1.3374  0.2391  0.5257
  236MOL0     H31812   5.001   8.142   9.383  2.1621  0.4984 -0.2850
  236MOL0     H31813   4.989   8.301   9.312  0.5867 -0.7121  0.6743
  236MOL0     H31814   4.782   8.238   9.201  1.2234 -0.4060 -0.3304
  236MOL0     H31815   4.768   8.236   9.379 -3.1412 -1.3281 -0.6150
  236MOL0     H31816   4.801   7.986   9.379  3.8383 -1.2437 -2.6104
  236MOL0     H31817   4.803   8.006   9.200  3.4211 -0.0547  1.6882
  236MOL0     H31818   4.579   7.940   9.271 -3.0745  1.4649 -3.0596
  236MOL0     H31819   4.572   8.099   9.225 -0.6329  0.3544  0.2720
  236MOL0     H31820   4.459   8.135   9.642  1.8840 -3.4414 -1.6179
  236MOL0     H31821   4.275   8.193   9.801 -1.0041 -0.5976 -0.2231
  236MOL0     H31822   4.196   8.326   9.731 -2.2475  0.0149 -1.8116
  236MOL0     H31823   4.116   8.158   9.738 -0.9425  0.3804  1.0551
  236MOL0     H31824   3.820   8.285   9.240  0.2055 -0.1865 -1.0997
  236MOL0     H31825   3.586   8.314   9.232  3.6301  0.2348 -1.5747
  236MOL0     H31826   3.391   8.381   9.301  0.2723  0.3383  0.3077
  236MOL0     H31827   3.355   8.235   9.192  1.6030 -1.5089  1.6953
  236MOL0     H31828   3.179   8.370   9.401 -0.9259  0.2223 -0.9300
  236MOL0     H31829   3.143   8.385   9.235  0.1179  1.6154  0.6614
  236MOL0     H31830   3.155   8.103   9.369 -2.3129 -1.9081  0.1564
  236MOL0     H31831   3.088   8.139   9.211 -0.1252  0.3833 -0.6018
  236MOL0     H31832   2.940   8.097   9.411 -1.7387  0.1555 -2.8477
  236MOL0     H31833   2.999   8.250   9.476 -1.3085  3.7197 -1.9336
  236MOL0     H31834   2.835   8.223   9.217  1.6411 -1.1972  0.0103
  236MOL0     H31835   2.901   8.377   9.283  1.1234  0.1925  0.4070
  236MOL0     H31836   2.721   8.182   9.440  0.5900 -0.1069  2.5211
  236MOL0     H31837   2.779   8.350   9.484 -2.9771  1.0523  0.1243
  236MOL0     H31838   2.604   8.275   9.246  0.7546 -2.8077  2.1878
  236MOL0     H31839   2.671   8.438   9.283  1.9654 -2.4603 -3.9588
  236MOL0     H31840   2.464   8.265   9.421  0.1969  0.3016  0.6688
  236MOL0     H31841   2.427   8.419   9.350  0.0555  1.9218  2.4627
  236MOL0     H31842   3.525   8.009   9.529 -1.2080  2.2958  0.3624
  236MOL0     H31843   3.775   7.978   9.530  3.2298  1.1155 -1.2482
  236MOL0     H31844   4.145   8.092   9.268 -1.2716  4.2792 -0.8729
  236MOL0     H31845   4.368   8.024   9.250 -2.4275 -0.4712 -0.2038
  236MOL0     H31846   6.192   8.196   8.382  1.0544  0.9022  0.1847
  236MOL0     H31847   6.418   8.232   8.432  0.4665 -0.3987 -0.4195
  236MOL0     H31848   6.775   8.429   8.906  0.3736 -0.7446  1.7268
  236MOL0     H31849   7.005   8.376   8.948  0.8891  0.8365 -0.3788
  236MOL0     H31850   7.274   8.342   8.827 -0.0088  0.5074  1.0683
  236MOL0     H31851   7.182   8.291   8.978 -0.0558  2.0284 -1.6617
  236MOL0     H31852   7.408   8.223   9.009 -0.4620 -0.8656  1.6975
  236MOL0     H31853   7.419   8.165   8.844 -0.9364 -0.3519 -0.5724
  236MOL0     H31854   7.231   8.050   9.057 -1.3181  3.9407 -2.0348
  236MOL0     H31855   7.388   7.996   9.057 -0.3138 -0.8129  0.5145
  236MOL0     H31856   7.215   7.957   8.801 -3.2340  1.8493  3.6056
  236MOL0     H31857   7.264   7.834   8.924  1.6002  1.1238  1.9177
  236MOL0     H31858   7.587   7.854   8.654  0.4521 -1.5470  1.5307
  236MOL0     H31859   6.988   8.064   8.642  0.0505 -0.1548  0.2247
  236MOL0     H31860   6.765   8.096   8.621  3.1601 -1.0728 -0.7327
  237MOL0     O31861   6.278   8.827   7.151 -0.1487 -0.1252  0.7850
  237MOL0     C31862   6.285   8.732   7.068 -0.1254  0.1945 -0.3693
  237MOL0     O31863   6.182   8.664   7.019  0.2044 -0.3960 -0.1676
  237MOL0     C31864   6.052   8.713   7.048 -0.5891  0.1395 -0.1936
  237MOL0     C31865   6.007   8.738   7.176 -0.2531  0.5219  0.2787
  237MOL0     C31866   5.876   8.791   7.184  0.1519  0.0071  0.0994
  237MOL0     C31867   5.783   8.775   7.073 -0.7729  0.1060  0.2362
  237MOL0     O31868   5.652   8.823   7.074 -0.9572  0.1140 -0.3456
  237MOL0     C31869   5.587   8.833   7.203  0.3240  0.1706 -0.3609
  237MOL0     C31870   5.442   8.862   7.184  0.4065 -0.0049 -0.2792
  237MOL0     C31871   5.366   8.912   7.297 -0.7415 -0.1070 -0.6900
  237MOL0     C31872   5.249   8.986   7.247  0.4890 -0.8103  0.1567
  237MOL0     C31873   5.125   8.991   7.342  0.7869  0.0439 -0.2060
  237MOL0     C31874   5.015   9.064   7.270  0.9992 -0.3792 -0.7615
  237MOL0     C31875   4.894   9.080   7.368 -0.4746 -1.0663 -0.5567
  237MOL0     C31876   4.795   9.177   7.301 -0.5401 -0.8597  0.6356
  237MOL0     N31877   4.707   9.238   7.396  0.7207  0.2784 -0.5038
  237MOL0     C31878   4.603   9.329   7.365 -0.9929  0.2260  0.0215
  237MOL0     C31879   4.525   9.327   7.471 -0.0782 -0.4271  0.4830
  237MOL0     C31880   4.398   9.406   7.485  0.7215 -0.7720  0.1698
  237MOL0     C31881   4.252   9.348   7.479 -0.6114  0.2504  0.1690
  237MOL0     C31882   4.206   9.301   7.342 -0.5570  0.1824 -0.0934
  237MOL0     C31883   4.050   9.295   7.334 -0.2546 -0.0249 -0.6408
  237MOL0     O31884   4.001   9.187   7.396  0.2847  0.5547  0.3787
  237MOL0     C31885   3.869   9.165   7.390  0.1273 -1.2532 -0.0559
  237MOL0     C31886   3.778   9.251   7.321  0.4715  0.1464 -0.5078
  237MOL0     C31887   3.638   9.233   7.311  0.4374 -0.5353  0.3233
  237MOL0     C31888   3.558   9.356   7.257 -0.0654 -0.0397  0.3668
  237MOL0     C31889   3.584   9.106   7.356 -0.9913  0.4386  0.8001
  237MOL0     C31890   3.436   9.068   7.349  0.3481 -0.0593  0.1443
  237MOL0     O31891   3.402   8.937   7.375  0.9115  0.0649 -0.6957
  237MOL0     C31892   3.266   8.920   7.380 -0.8023  0.6656 -0.1541
  237MOL0     C31893   3.200   8.915   7.260 -0.3306  0.1484 -0.5200
  237MOL0     C31894   3.059   8.884   7.253 -0.1323 -0.0415 -0.2500
  237MOL0     C31895   2.976   8.857   7.364 -0.8405  0.4430  0.3449
  237MOL0     O31896   2.850   8.830   7.335 -0.6500  0.1757  0.1828
  237MOL0     C31897   2.761   8.814   7.440  0.5201 -0.2869 -0.1153
  237MOL0     C31898   2.632   8.756   7.382  1.2374  0.6456 -0.3653
  237MOL0     C31899   2.562   8.818   7.262  0.3994 -0.2571 -0.5871
  237MOL0     C31900   2.416   8.777   7.246  0.4745 -0.2755  0.0631
  237MOL0     C31901   2.349   8.834   7.123 -0.4265  0.0705  0.7789
  237MOL0     C31902   2.198   8.791   7.097 -0.3364  0.1206  0.3284
  237MOL0     C31903   2.102   8.838   7.212 -0.6268 -0.3778  0.6009
  237MOL0     C31904   1.961   8.811   7.163 -0.2190 -0.1128  0.1776
  237MOL0    Cl31905   1.933   8.627   7.133 -0.1522 -0.1038  0.4844
  237MOL0     C31906   3.046   8.860   7.483  0.0619 -0.7030  0.8409
  237MOL0     C31907   3.181   8.895   7.494 -0.2525 -0.3475 -1.5398
  237MOL0     O31908   3.362   9.161   7.339 -0.0289 -0.7277  0.2651
  237MOL0     C31909   3.676   9.019   7.414  0.7408  0.3776  0.1669
  237MOL0     C31910   3.811   9.052   7.438  0.1971  0.4850 -0.4042
  237MOL0     N31911   4.587   9.252   7.575  0.7759 -0.2190  0.1375
  237MOL0     N31912   4.691   9.203   7.527 -1.2024  0.6689 -1.0744
  237MOL0     C31913   5.834   8.733   6.953  0.0611  0.5056  0.6572
  237MOL0     C31914   5.969   8.696   6.938 -0.2064 -0.7280  0.0588
  237MOL0     C31915   6.419   8.692   7.023 -0.3791  0.2674  0.6061
  237MOL0     C31916   6.441   8.554   6.992  0.2792 -0.4392  0.8986
  237MOL0     C31917   6.554   8.516   6.924  0.2923  0.1966 -0.6447
  237MOL0     C31918   6.648   8.610   6.890 -0.1533  0.0608 -0.4136
  237MOL0     O31919   6.757   8.559   6.830  0.5101  0.3276 -0.1652
  237MOL0     C31920   6.846   8.656   6.770 -0.5256 -0.3647  0.4282
  237MOL0     C31921   6.951   8.589   6.673  0.0095 -1.3548 -0.4194
  237MOL0     C31922   7.033   8.480   6.732  0.5551  0.1132 -0.4837
  237MOL0     C31923   7.157   8.438   6.644  0.4363  0.1068  0.2247
  237MOL0     C31924   7.261   8.535   6.652 -0.8071  0.5477  0.2590
  237MOL0     C31925   7.360   8.610   6.653 -0.0092 -0.5695  0.1001
  237MOL0     C31926   6.622   8.742   6.928 -0.2203 -0.3290 -0.4806
  237MOL0     C31927   6.512   8.787   6.994  0.2761 -0.0538  0.9286
  237MOL0     H31928   6.074   8.731   7.261 -0.2822 -0.6225  0.2266
  237MOL0     H31929   5.849   8.834   7.280  2.5131 -1.5996  1.6078
  237MOL0     H31930   5.604   8.744   7.266 -0.7060 -0.4632 -0.9508
  237MOL0     H31931   5.629   8.915   7.262  0.1651 -0.2178  0.3122
  237MOL0     H31932   5.444   8.936   7.103  1.6622 -1.7491 -1.9264
  237MOL0     H31933   5.385   8.777   7.146 -3.5837  2.2719  0.0552
  237MOL0     H31934   5.337   8.835   7.369  2.0815  0.8284  1.6266
  237MOL0     H31935   5.435   8.972   7.358  0.3964 -1.0871 -0.9792
  237MOL0     H31936   5.277   9.082   7.203 -0.1958 -0.8634 -0.4036
  237MOL0     H31937   5.212   8.925   7.165 -0.6711  1.8839 -1.4422
  237MOL0     H31938   5.082   8.897   7.377 -1.6718  0.6340 -1.4729
  237MOL0     H31939   5.154   9.045   7.433 -0.4088 -0.6844  0.6393
  237MOL0     H31940   5.054   9.159   7.232  0.3243 -0.4451 -1.6536
  237MOL0     H31941   4.994   9.009   7.178 -1.7146  1.3342 -1.2687
  237MOL0     H31942   4.840   8.986   7.387  1.2360 -2.2330 -1.1516
  237MOL0     H31943   4.940   9.115   7.461 -0.1603 -1.8822 -0.3888
  237MOL0     H31944   4.733   9.122   7.230 -3.1100  1.0691  1.2195
  237MOL0     H31945   4.853   9.255   7.251  1.9355 -1.1597  2.8593
  237MOL0     H31946   4.599   9.390   7.275 -0.4447  0.1285 -0.0700
  237MOL0     H31947   4.410   9.453   7.583  1.8360 -0.7830  0.0501
  237MOL0     H31948   4.411   9.487   7.413  1.1378 -2.3500 -1.6122
  237MOL0     H31949   4.180   9.422   7.516  0.2423  1.3138 -0.2282
  237MOL0     H31950   4.256   9.258   7.540 -1.2982 -0.3219 -0.6092
  237MOL0     H31951   4.248   9.204   7.314 -1.4842 -0.9040  2.0470
  237MOL0     H31952   4.233   9.385   7.277 -2.3926  0.7451 -0.1907
  237MOL0     H31953   4.009   9.298   7.233 -1.4388 -1.6600 -0.2370
  237MOL0     H31954   4.012   9.387   7.380 -1.5183 -1.1452  0.6452
  237MOL0     H31955   3.811   9.341   7.270 -1.0310  1.0241  0.0048
  237MOL0     H31956   3.479   9.331   7.186 -0.1226 -0.3054  0.5176
  237MOL0     H31957   3.513   9.420   7.334 -1.0851  3.6046 -2.9546
  237MOL0     H31958   3.625   9.431   7.213  0.6676  0.7876  2.7137
  237MOL0     H31959   3.250   8.932   7.165  0.3896  1.1552  0.0262
  237MOL0     H31960   3.002   8.876   7.161 -2.0019 -1.8212  0.9675
  237MOL0     H31961   2.805   8.745   7.512 -1.9502 -0.3669  1.4340
  237MOL0     H31962   2.740   8.909   7.490 -2.6191 -0.8405 -0.1794
  237MOL0     H31963   2.655   8.651   7.362 -0.9976  0.1741 -0.7181
  237MOL0     H31964   2.558   8.746   7.462 -0.1035 -2.1735 -1.7952
  237MOL0     H31965   2.613   8.785   7.171  0.9707 -1.3384  0.0960
  237MOL0     H31966   2.559   8.926   7.274  1.9094 -0.2357 -0.2116
  237MOL0     H31967   2.417   8.668   7.245  1.7781 -0.3211  1.7402
  237MOL0     H31968   2.365   8.808   7.337 -0.4705  1.6585 -1.0468
  237MOL0     H31969   2.408   8.798   7.038  0.8466  2.7151  0.4369
  237MOL0     H31970   2.360   8.942   7.135 -0.0316 -0.0018  1.0617
  237MOL0     H31971   2.169   8.822   6.996  0.3688 -1.6499 -0.4592
  237MOL0     H31972   2.186   8.682   7.098  0.7423 -0.0036  1.1223
  237MOL0     H31973   2.121   8.945   7.222  1.6501 -0.5755 -0.9390
  237MOL0     H31974   2.137   8.789   7.304  2.3584  0.3697 -0.0347
  237MOL0     H31975   1.948   8.860   7.066 -0.2656  0.0494  0.2636
  237MOL0     H31976   1.878   8.847   7.225 -2.2847 -1.3391 -1.6956
  237MOL0     H31977   2.996   8.830   7.574 -2.4407  1.1313  0.1815
  237MOL0     H31978   3.231   8.895   7.590 -2.3309 -1.3322 -0.4010
  237MOL0     H31979   3.642   8.924   7.455  0.7033  0.4716  0.3519
  237MOL0     H31980   3.874   8.982   7.493 -1.0968  1.3558  2.3532
  237MOL0     H31981   5.767   8.726   6.868  1.8475 -0.0003 -0.7621
  237MOL0     H31982   6.012   8.667   6.843 -0.2640  0.2649 -0.2721
  237MOL0     H31983   6.362   8.482   7.011 -0.6326  0.3346  0.1622
  237MOL0     H31984   6.574   8.414   6.893 -3.4762 -0.7855 -0.2868
  237MOL0     H31985   6.788   8.730   6.713  1.3886 -0.9963 -2.5860
  237MOL0     H31986   6.896   8.701   6.855 -1.6420 -3.2123  2.8057
  237MOL0     H31987   7.022   8.667   6.644  1.2683 -0.7577  3.7005
  237MOL0     H31988   6.895   8.556   6.585 -2.2375  1.9135 -0.4375
  237MOL0     H31989   6.974   8.389   6.746  2.2069 -0.6621  2.0932
  237MOL0     H31990   7.053   8.513   6.834 -1.8339  5.0385 -1.3548
  237MOL0     H31991   7.128   8.405   6.544  1.5507 -1.0303  0.2412
  237MOL0     H31992   7.201   8.350   6.692 -0.2652  0.7095  2.0449
  237MOL0     H31993   7.436   8.685   6.643 -0.7180 -0.1046 -2.4277
  237MOL0     H31994   6.697   8.817   6.907 -5.6576  6.1107 -0.1330
  237MOL0     H31995   6.496   8.892   7.017  1.1869  0.8963 -2.3068
  238MOL0     O31996   8.161   9.385   0.710  0.0548  0.4859 -0.8294
  238MOL0     C31997   8.212   9.276   0.686 -0.0961 -0.6453  0.2591
  238MOL0     O31998   8.153   9.154   0.682 -0.7176 -0.8418 -0.4070
  238MOL0     C31999   8.022   9.147   0.696  0.5549 -0.5888 -0.2354
  238MOL0     C32000   7.969   9.184   0.820  0.4000 -0.1866 -0.8631
  238MOL0     C32001   7.827   9.201   0.836 -0.5846  0.2216  0.0077
  238MOL0     C32002   7.740   9.173   0.736 -0.1017  1.2199  0.0094
  238MOL0     O32003   7.604   9.198   0.755  0.9580  0.2710  0.0384
  238MOL0     C32004   7.523   9.241   0.641 -0.7949  0.3042  0.3726
  238MOL0     C32005   7.455   9.115   0.595 -0.2125 -1.0564 -0.1208
  238MOL0     C32006   7.346   9.063   0.690  0.6565 -0.8012  0.1337
  238MOL0     C32007   7.260   8.953   0.634  0.1271  0.4277 -0.4364
  238MOL0     C32008   7.152   8.917   0.739 -0.4335 -1.2257 -0.4123
  238MOL0     C32009   7.058   8.811   0.676 -0.0241  0.1943  0.0838
  238MOL0     C32010   6.936   8.787   0.773  0.1093  0.3243  0.3003
  238MOL0     C32011   6.828   8.692   0.723 -0.0866  0.8121 -0.1250
  238MOL0     N32012   6.699   8.710   0.791 -0.0395 -0.4613 -0.3374
  238MOL0     C32013   6.586   8.782   0.741 -0.3844 -1.1039 -1.5342
  238MOL0     C32014   6.502   8.784   0.858 -0.4579 -0.2908  0.9014
  238MOL0     C32015   6.361   8.847   0.866 -0.4695 -0.4253  0.0124
  238MOL0     C32016   6.257   8.738   0.838  0.4139  0.3141 -0.0550
  238MOL0     C32017   6.216   8.642   0.955 -0.5238  1.0136  0.4163
  238MOL0     C32018   6.205   8.711   1.089 -0.2059  0.1291  0.1777
  238MOL0     O32019   6.101   8.808   1.092  0.2127  0.2555 -0.4637
  238MOL0     C32020   5.979   8.773   1.144  0.2038 -0.6177 -0.3839
  238MOL0     C32021   5.902   8.891   1.185  0.5564  0.1730  0.1103
  238MOL0     C32022   5.775   8.871   1.245 -0.4814 -0.9853  0.1660
  238MOL0     C32023   5.701   8.992   1.291  1.0744 -0.4536 -0.8763
  238MOL0     C32024   5.735   8.738   1.264  1.0261  0.5190 -0.3868
  238MOL0     C32025   5.604   8.707   1.330  0.4387 -0.1762 -0.8187
  238MOL0     O32026   5.578   8.762   1.453  0.4930 -0.2874  0.5268
  238MOL0     C32027   5.476   8.690   1.520  0.2769 -0.5415 -0.5540
  238MOL0     C32028   5.340   8.716   1.493  0.1134 -0.2156 -0.7271
  238MOL0     C32029   5.235   8.636   1.533 -0.0738  0.2339  0.5194
  238MOL0     C32030   5.262   8.526   1.616 -0.7038  0.1493 -0.0414
  238MOL0     O32031   5.167   8.433   1.650 -0.0101  0.1644  0.0218
  238MOL0     C32032   5.042   8.419   1.583 -0.5637 -1.1370  0.3669
  238MOL0     C32033   4.983   8.292   1.626  0.3238  0.8186  0.4864
  238MOL0     C32034   5.042   8.159   1.580  0.1487 -0.1940  0.8610
  238MOL0     C32035   4.994   8.044   1.664 -0.0996  0.2410  0.7582
  238MOL0     C32036   5.051   7.910   1.605 -0.0610  0.2032 -0.8212
  238MOL0     C32037   4.963   7.792   1.678  0.6223 -0.3169 -0.9449
  238MOL0     C32038   4.825   7.775   1.623  0.4017  0.4858  0.5737
  238MOL0     C32039   4.776   7.642   1.679  1.2460  0.3043  0.1729
  238MOL0    Cl32040   4.603   7.613   1.626  0.4978 -0.0196  0.1065
  238MOL0     C32041   5.393   8.503   1.651 -0.7431  0.1831 -0.4612
  238MOL0     C32042   5.497   8.589   1.611  0.0219 -0.6534  0.0567
  238MOL0     O32043   5.526   8.629   1.275  0.1950  0.5654 -0.3788
  238MOL0     C32044   5.815   8.627   1.239  0.2558 -0.4151 -0.0462
  238MOL0     C32045   5.932   8.645   1.165 -0.5051  0.1433  0.3290
  238MOL0     N32046   6.567   8.729   0.969 -0.0524 -0.6800 -0.2198
  238MOL0     N32047   6.676   8.678   0.923 -0.1088 -0.0094 -0.8554
  238MOL0     C32048   7.801   9.122   0.617 -0.4684 -0.7546 -0.5334
  238MOL0     C32049   7.936   9.104   0.603  0.3791  0.3111  0.3664
  238MOL0     C32050   8.357   9.280   0.648  0.2586 -0.8331 -0.5524
  238MOL0     C32051   8.413   9.404   0.618 -0.5561 -0.6063  0.0933
  238MOL0     C32052   8.550   9.405   0.566 -0.0643 -0.4770  0.3211
  238MOL0     C32053   8.616   9.287   0.544 -0.5726 -0.6840  0.0378
  238MOL0     O32054   8.751   9.291   0.505  0.5167  0.0093 -0.2629
  238MOL0     C32055   8.777   9.236   0.378 -0.2035  0.4243 -0.1722
  238MOL0     C32056   8.934   9.236   0.366 -0.1910  0.3301  0.0153
  238MOL0     C32057   8.994   9.377   0.385  0.4269 -0.1596  1.0807
  238MOL0     C32058   9.146   9.375   0.351  0.6040 -0.4756 -0.5067
  238MOL0     C32059   9.171   9.338   0.215  0.0544 -0.0740  0.2132
  238MOL0     C32060   9.190   9.323   0.092 -0.7756 -0.3977  0.2698
  238MOL0     C32061   8.555   9.169   0.577 -0.8010  0.0388  0.2458
  238MOL0     C32062   8.422   9.159   0.624 -0.5880 -0.6845 -0.1697
  238MOL0     H32063   8.029   9.219   0.903  0.3239  2.4531 -1.8389
  238MOL0     H32064   7.777   9.229   0.928  0.3560  0.0084  0.5943
  238MOL0     H32065   7.453   9.318   0.673 -1.7523 -0.2651 -0.3269
  238MOL0     H32066   7.595   9.281   0.569  0.6815  0.0457  1.6420
  238MOL0     H32067   7.413   9.157   0.503 -1.5957 -0.3583  0.7909
  238MOL0     H32068   7.531   9.044   0.561  1.0642  0.3365 -0.2403
  238MOL0     H32069   7.389   9.019   0.780 -0.0149 -0.7958  0.4608
  238MOL0     H32070   7.285   9.144   0.731  1.0965  0.5873 -1.7962
  238MOL0     H32071   7.208   8.982   0.542 -0.1624 -2.9441 -1.4821
  238MOL0     H32072   7.312   8.859   0.612 -1.0657  0.1551 -2.3190
  238MOL0     H32073   7.198   8.873   0.828  0.4340 -0.8057 -0.6416
  238MOL0     H32074   7.097   9.003   0.778 -0.0919 -1.4390  0.5784
  238MOL0     H32075   7.013   8.838   0.580  0.9408 -0.6989 -0.6453
  238MOL0     H32076   7.117   8.719   0.669  0.3346  0.0965  3.1788
  238MOL0     H32077   6.974   8.755   0.870  0.7637 -0.5671 -0.2287
  238MOL0     H32078   6.881   8.875   0.807 -2.8616 -0.6417 -1.5779
  238MOL0     H32079   6.855   8.586   0.732  0.4040  0.9160 -0.3467
  238MOL0     H32080   6.816   8.706   0.615  1.5869  1.3346 -0.2659
  238MOL0     H32081   6.564   8.828   0.645 -1.5041 -1.4512 -1.4603
  238MOL0     H32082   6.339   8.908   0.954  0.3778 -0.0500 -0.0357
  238MOL0     H32083   6.345   8.913   0.780 -3.8575 -1.3120 -0.2038
  238MOL0     H32084   6.289   8.677   0.753  0.1368 -0.8415  0.6543
  238MOL0     H32085   6.164   8.784   0.803 -0.3732 -1.0078  0.2142
  238MOL0     H32086   6.292   8.564   0.952 -0.7192  0.7857  1.2342
  238MOL0     H32087   6.127   8.586   0.925 -0.3705 -0.9649  3.2876
  238MOL0     H32088   6.299   8.756   1.123  0.6297 -0.9894 -0.5594
  238MOL0     H32089   6.179   8.637   1.166  2.2384 -3.4455 -2.1071
  238MOL0     H32090   5.953   8.986   1.173  1.4585 -0.2638  0.4250
  238MOL0     H32091   5.727   9.080   1.232 -0.9070  0.3981 -0.5511
  238MOL0     H32092   5.593   8.971   1.289  1.0316 -0.2514 -0.6429
  238MOL0     H32093   5.723   9.005   1.397 -0.3261  0.1529 -0.6404
  238MOL0     H32094   5.316   8.794   1.422  2.0824  1.8235  0.6673
  238MOL0     H32095   5.132   8.662   1.509 -0.5212 -1.1553  0.8629
  238MOL0     H32096   4.980   8.507   1.603  0.4940 -0.7678  2.2705
  238MOL0     H32097   5.056   8.425   1.474 -1.7619 -0.1833  0.2389
  238MOL0     H32098   4.998   8.285   1.734  1.2031 -3.9299  0.2891
  238MOL0     H32099   4.880   8.276   1.592  1.9032 -0.3879 -4.6431
  238MOL0     H32100   5.151   8.164   1.585  0.0688  1.2680  1.6819
  238MOL0     H32101   5.020   8.137   1.475 -1.1005 -1.0021  1.2778
  238MOL0     H32102   5.038   8.053   1.763  0.9610  0.2775  0.2994
  238MOL0     H32103   4.885   8.037   1.663 -0.0419 -1.0875 -0.8980
  238MOL0     H32104   5.159   7.906   1.624  0.0878  3.7035 -0.2229
  238MOL0     H32105   5.041   7.899   1.497 -0.2633 -2.0055 -0.6155
  238MOL0     H32106   5.025   7.703   1.664  0.1652 -0.4373 -2.2679
  238MOL0     H32107   4.953   7.816   1.785  3.3221 -2.4758 -0.0754
  238MOL0     H32108   4.823   7.779   1.514 -1.8030  0.9099  0.5877
  238MOL0     H32109   4.762   7.858   1.654  0.4103  0.8038 -0.2326
  238MOL0     H32110   4.790   7.643   1.787  1.7939 -1.4352  0.1514
  238MOL0     H32111   4.841   7.564   1.636  1.6457  0.5896  0.2559
  238MOL0     H32112   5.425   8.422   1.714  1.8168  2.0620  0.8234
  238MOL0     H32113   5.602   8.572   1.635 -0.1601 -1.6510  0.1847
  238MOL0     H32114   5.773   8.528   1.259 -1.6167 -0.3411 -2.8842
  238MOL0     H32115   5.986   8.556   1.135  0.9382  0.9055  0.5561
  238MOL0     H32116   7.730   9.103   0.536 -0.7986  0.0971 -0.4580
  238MOL0     H32117   7.989   9.057   0.521  2.0132 -0.6133  1.8791
  238MOL0     H32118   8.363   9.498   0.640 -1.3969 -0.4288 -2.2609
  238MOL0     H32119   8.582   9.507   0.550 -0.3226  0.3031  3.9181
  238MOL0     H32120   8.747   9.132   0.362 -0.4635  0.6497 -1.2202
  238MOL0     H32121   8.739   9.308   0.305 -2.2952  2.2248  2.4720
  238MOL0     H32122   8.958   9.197   0.267  1.3080 -0.3954  0.6393
  238MOL0     H32123   8.974   9.177   0.448 -1.7336 -3.8392 -1.9357
  238MOL0     H32124   8.992   9.403   0.491  0.4886 -3.0329  1.8846
  238MOL0     H32125   8.948   9.455   0.324  2.4660  0.4886  0.2915
  238MOL0     H32126   9.187   9.309   0.428 -0.5549  2.2762  2.7272
  238MOL0     H32127   9.190   9.472   0.374  0.4623 -0.5812  0.2469
  238MOL0     H32128   9.203   9.325  -0.015  3.4010  0.9144  0.6023
  238MOL0     H32129   8.601   9.071   0.572  0.7994  0.7343  0.8771
  238MOL0     H32130   8.384   9.058   0.636  0.6179 -1.1011  0.3103
  239MOL0     O32131   7.586   4.145   2.968 -0.6036 -0.2767 -0.3017
  239MOL0     C32132   7.668   4.238   2.934 -0.6959  0.7171 -0.0103
  239MOL0     O32133   7.633   4.354   2.874 -0.8233  0.3957 -0.6308
  239MOL0     C32134   7.500   4.362   2.823  0.0690  0.1714  0.0225
  239MOL0     C32135   7.479   4.364   2.684 -0.3715  0.7218 -0.4035
  239MOL0     C32136   7.353   4.357   2.628 -0.1900  0.4297 -0.2600
  239MOL0     C32137   7.245   4.328   2.719  0.4228 -0.9978  0.2643
  239MOL0     O32138   7.115   4.307   2.691 -0.1192 -0.0822  0.8203
  239MOL0     C32139   7.068   4.315   2.554 -0.1409 -0.1582  0.0583
  239MOL0     C32140   7.035   4.465   2.530  0.6480 -0.0992  0.6084
  239MOL0     C32141   6.970   4.488   2.396 -0.1362 -0.6154  0.4066
  239MOL0     C32142   6.818   4.474   2.401  0.1820 -0.4427  0.4029
  239MOL0     C32143   6.751   4.510   2.271 -0.2714  0.6109 -0.1086
  239MOL0     C32144   6.595   4.492   2.270 -0.1907 -0.5556 -0.3762
  239MOL0     C32145   6.527   4.514   2.136 -0.6841 -0.5313  1.4075
  239MOL0     C32146   6.462   4.396   2.065 -0.2071 -0.2256 -0.8880
  239MOL0     N32147   6.336   4.436   1.997 -1.3413  0.3866  0.6220
  239MOL0     C32148   6.215   4.466   2.053 -0.2816  0.2251  0.2940
  239MOL0     C32149   6.138   4.535   1.966 -0.3908 -0.2023  0.1043
  239MOL0     C32150   6.013   4.601   2.000  0.4014 -0.2900 -0.4220
  239MOL0     C32151   5.924   4.639   1.873  0.1615  0.1677 -0.3766
  239MOL0     C32152   5.791   4.705   1.927  0.0283  0.6938 -0.6393
  239MOL0     C32153   5.691   4.762   1.837 -0.2032 -0.5826  0.6583
  239MOL0     O32154   5.586   4.828   1.912  0.1158 -0.4639  0.1116
  239MOL0     C32155   5.483   4.890   1.842  0.1909  0.0626 -0.2860
  239MOL0     C32156   5.471   4.907   1.700  0.0491 -0.9179 -0.2936
  239MOL0     C32157   5.365   4.964   1.640  1.1051 -1.1974 -0.6158
  239MOL0     C32158   5.353   4.952   1.493 -0.4282 -0.3396  0.6150
  239MOL0     C32159   5.261   5.013   1.724 -0.0530 -0.1304 -0.0378
  239MOL0     C32160   5.140   5.083   1.671 -0.1367 -0.9736  0.3008
  239MOL0     O32161   5.051   5.111   1.771 -0.3822 -0.0430 -0.0087
  239MOL0     C32162   4.944   5.189   1.743 -0.8157  0.1158  0.8380
  239MOL0     C32163   4.933   5.286   1.643 -0.5679 -0.0468 -0.2779
  239MOL0     C32164   4.810   5.359   1.626  0.1954 -0.1829 -0.8270
  239MOL0     C32165   4.701   5.331   1.710 -0.4929 -0.6621  0.7632
  239MOL0     O32166   4.580   5.391   1.691  0.4838  0.0783 -0.3910
  239MOL0     C32167   4.549   5.501   1.610 -0.0327  0.3342  0.0789
  239MOL0     C32168   4.527   5.447   1.467  0.1942 -0.1633 -0.1879
  239MOL0     C32169   4.455   5.548   1.382 -0.2871 -0.7871 -0.5407
  239MOL0     C32170   4.302   5.556   1.398 -0.1642  0.1789 -0.1917
  239MOL0     C32171   4.230   5.421   1.403  0.4879 -0.4341 -1.0641
  239MOL0     C32172   4.086   5.440   1.353  0.3193  0.1455  0.1196
  239MOL0     C32173   4.008   5.539   1.442 -0.4179 -0.3197  0.8186
  239MOL0     C32174   3.871   5.568   1.385 -0.1235  0.3228 -0.9742
  239MOL0    Cl32175   3.767   5.427   1.413 -0.1627 -0.0001 -0.1606
  239MOL0     C32176   4.713   5.235   1.809 -0.1289 -0.0391  0.0619
  239MOL0     C32177   4.837   5.162   1.823 -0.1959  0.5665 -0.6221
  239MOL0     O32178   5.128   5.105   1.552  0.2519  0.1682 -0.7399
  239MOL0     C32179   5.270   5.004   1.863  0.9012  1.1105 -0.2788
  239MOL0     C32180   5.381   4.942   1.922  0.6035 -0.5416 -0.7426
  239MOL0     N32181   6.210   4.536   1.848  0.7021 -0.7966 -0.2900
  239MOL0     N32182   6.333   4.488   1.872  0.5953 -0.4889 -0.7331
  239MOL0     C32183   7.265   4.326   2.859 -0.1256 -0.8626 -0.6130
  239MOL0     C32184   7.394   4.345   2.907  0.9374  0.2481 -0.6675
  239MOL0     C32185   7.811   4.248   2.987  0.8411 -0.1077  0.2838
  239MOL0     C32186   7.871   4.381   2.994  0.3215 -0.0530 -0.5350
  239MOL0     C32187   7.994   4.409   3.055 -0.1248 -0.9412  0.0441
  239MOL0     C32188   8.055   4.305   3.115 -0.6975 -0.0292  0.4878
  239MOL0     O32189   8.183   4.308   3.182  0.4711  0.0556 -0.0721
  239MOL0     C32190   8.273   4.417   3.165  0.8433 -0.2618 -0.5200
  239MOL0     C32191   8.402   4.380   3.231  0.0653  0.0087 -0.1511
  239MOL0     C32192   8.493   4.279   3.167  0.2194 -0.8270  0.0542
  239MOL0     C32193   8.622   4.257   3.243 -0.1876 -0.3171 -0.0157
  239MOL0     C32194   8.599   4.182   3.366 -0.4311  0.4725 -0.5930
  239MOL0     C32195   8.588   4.140   3.482  0.4045  0.6652  0.2539
  239MOL0     C32196   8.004   4.173   3.107 -0.4512 -0.0251  0.3578
  239MOL0     C32197   7.880   4.144   3.047 -0.4890 -1.1642  0.6776
  239MOL0     H32198   7.568   4.376   2.624  0.0596  1.7489  0.4233
  239MOL0     H32199   7.338   4.380   2.523 -1.4340 -0.2255 -0.2551
  239MOL0     H32200   7.147   4.279   2.488  1.4517  1.9166  0.7428
  239MOL0     H32201   6.979   4.253   2.537  1.0703 -1.5737 -1.3509
  239MOL0     H32202   6.963   4.508   2.601  0.5270 -1.6090  1.4422
  239MOL0     H32203   7.122   4.529   2.538 -0.1134  1.1748 -0.8394
  239MOL0     H32204   7.004   4.587   2.365 -0.7728 -0.8383 -1.1268
  239MOL0     H32205   7.005   4.413   2.324  2.4655  0.2252  0.7023
  239MOL0     H32206   6.781   4.377   2.434 -0.4990 -0.7388 -1.1299
  239MOL0     H32207   6.768   4.552   2.459 -1.3316  1.5051 -3.1638
  239MOL0     H32208   6.781   4.614   2.252  2.6987  0.5343  3.1593
  239MOL0     H32209   6.796   4.448   2.192 -0.2822  2.1661 -1.3976
  239MOL0     H32210   6.577   4.388   2.299 -2.1739 -0.7871 -2.2146
  239MOL0     H32211   6.542   4.554   2.343 -0.9570 -0.1284 -1.2704
  239MOL0     H32212   6.451   4.592   2.147  1.9302  2.4741  0.0800
  239MOL0     H32213   6.590   4.563   2.061 -2.2577  1.2172  1.1459
  239MOL0     H32214   6.445   4.320   2.142  0.8478  0.4283  0.0018
  239MOL0     H32215   6.536   4.353   1.997 -0.4425 -2.5099  0.1962
  239MOL0     H32216   6.204   4.445   2.159 -1.6150  2.6406  0.6830
  239MOL0     H32217   5.963   4.526   2.061 -1.5629 -0.3496 -1.9714
  239MOL0     H32218   6.027   4.690   2.063  0.6030 -0.5400 -0.1143
  239MOL0     H32219   5.901   4.541   1.830 -2.1536  0.3228  0.3993
  239MOL0     H32220   5.979   4.708   1.808 -1.3827  0.0301 -1.9146
  239MOL0     H32221   5.820   4.780   2.001 -1.5539 -2.6149  3.7526
  239MOL0     H32222   5.743   4.627   1.986 -0.5479  1.8804  0.4878
  239MOL0     H32223   5.657   4.690   1.762 -3.5157  2.3221 -0.9657
  239MOL0     H32224   5.746   4.839   1.782  0.6200  0.6611  3.0819
  239MOL0     H32225   5.546   4.863   1.635  0.2851 -3.3792  1.5050
  239MOL0     H32226   5.439   4.897   1.453  0.0463  0.9417 -0.1721
  239MOL0     H32227   5.257   4.913   1.458 -0.0335  0.2157 -1.1497
  239MOL0     H32228   5.358   5.050   1.445 -0.9550 -0.3308  0.5695
  239MOL0     H32229   5.015   5.311   1.576 -0.5587 -0.5349 -0.4487
  239MOL0     H32230   4.793   5.440   1.556  0.3344 -1.2599 -2.1517
  239MOL0     H32231   4.462   5.551   1.654 -1.0510 -1.8311  0.6253
  239MOL0     H32232   4.630   5.575   1.619 -1.0410  1.5108 -0.1544
  239MOL0     H32233   4.626   5.446   1.420  0.3473  1.9263 -0.0089
  239MOL0     H32234   4.482   5.347   1.467  1.0823 -0.5796  0.3212
  239MOL0     H32235   4.479   5.528   1.277  1.9891  0.6867 -0.3548
  239MOL0     H32236   4.492   5.650   1.389 -1.1657 -0.3509 -1.8236
  239MOL0     H32237   4.276   5.622   1.481 -2.1515 -1.2933  0.4362
  239MOL0     H32238   4.265   5.605   1.307 -0.5759  3.0682  1.4108
  239MOL0     H32239   4.234   5.378   1.503 -1.3252 -1.7773 -1.5152
  239MOL0     H32240   4.281   5.350   1.338 -1.3173 -1.7496 -1.1341
  239MOL0     H32241   4.096   5.487   1.255 -1.0442  1.4433  0.5595
  239MOL0     H32242   4.028   5.347   1.346  0.9648 -0.2029 -0.7506
  239MOL0     H32243   4.063   5.634   1.443 -3.0913  1.3285  0.4984
  239MOL0     H32244   4.000   5.483   1.536  2.5970  1.9095  2.6064
  239MOL0     H32245   3.878   5.591   1.279  0.7959 -0.7975 -1.1763
  239MOL0     H32246   3.823   5.654   1.433  0.5635 -0.3602  1.0398
  239MOL0     H32247   4.627   5.221   1.874  0.8340  1.2564  1.6968
  239MOL0     H32248   4.852   5.084   1.896  2.1857  1.6935  0.1913
  239MOL0     H32249   5.189   5.037   1.928 -0.2789 -1.0175 -0.5674
  239MOL0     H32250   5.393   4.929   2.029  1.1333 -3.2096 -1.0419
  239MOL0     H32251   7.188   4.293   2.927  0.7736  1.7627  1.9079
  239MOL0     H32252   7.410   4.335   3.013  1.9245 -0.6856 -0.8837
  239MOL0     H32253   7.823   4.475   2.966  2.3581  1.3536  0.4399
  239MOL0     H32254   8.038   4.508   3.052 -1.3089 -0.4192 -1.8217
  239MOL0     H32255   8.282   4.449   3.061  1.5253  0.5486 -0.2210
  239MOL0     H32256   8.226   4.500   3.218 -1.7298 -1.1769 -1.2231
  239MOL0     H32257   8.372   4.337   3.327  2.3518 -1.1334  0.1147
  239MOL0     H32258   8.454   4.476   3.236  0.4069 -0.1965  0.2921
  239MOL0     H32259   8.520   4.322   3.070  0.3984 -0.1005  0.4156
  239MOL0     H32260   8.436   4.187   3.153 -0.3258 -1.1000  3.3117
  239MOL0     H32261   8.667   4.356   3.256 -0.3850 -0.1169 -0.7738
  239MOL0     H32262   8.693   4.215   3.171  0.3477  1.8259 -0.8189
  239MOL0     H32263   8.573   4.110   3.584 -0.5809 -3.7063 -0.9717
  239MOL0     H32264   8.059   4.097   3.162 -0.4705  1.4961  2.6315
  239MOL0     H32265   7.840   4.044   3.037 -1.0593 -0.9029  0.3038
  240MOL0     O32266  10.010   4.478  10.684 -0.2814 -0.6667 -0.0141
  240MOL0     C32267   9.977   4.513  10.797  0.9574 -0.3024  0.2893
  240MOL0     O32268   9.846   4.525  10.839  0.5575  0.0107  0.5181
  240MOL0     C32269   9.734   4.483  10.763 -0.0021 -0.0416 -0.3849
  240MOL0     C32270   9.610   4.516  10.821 -0.4388 -0.5369  0.2071
  240MOL0     C32271   9.489   4.499  10.755  0.6221  0.1346  0.1999
  240MOL0     C32272   9.492   4.429  10.637  0.6098  0.1343 -0.8313
  240MOL0     O32273   9.370   4.396  10.582 -0.2730 -0.9544  0.1885
  240MOL0     C32274   9.337   4.285  10.504  0.0573 -0.2707 -0.3722
  240MOL0     C32275   9.203   4.227  10.549  0.3232  0.2296 -0.4697
  240MOL0     C32276   9.082   4.323  10.524 -0.6279  0.3833  0.6564
  240MOL0     C32277   8.959   4.274  10.611  0.4139 -0.4106  0.3837
  240MOL0     C32278   8.821   4.345  10.581 -0.5878  0.3218  0.0302
  240MOL0     C32279   8.713   4.303  10.675 -0.1220  0.2450 -0.6015
  240MOL0     C32280   8.597   4.402  10.680 -0.2539  0.9284  0.7381
  240MOL0     C32281   8.466   4.330  10.734  0.6947  0.8588  0.3297
  240MOL0     N32282   8.341   4.406  10.715 -0.1123 -0.0675 -0.8059
  240MOL0     C32283   8.280   4.421  10.595 -0.0843 -0.0769  0.1811
  240MOL0     C32284   8.152   4.471  10.616 -0.7845 -0.5948 -0.1797
  240MOL0     C32285   8.060   4.533  10.511  0.0575 -0.3275  0.0690
  240MOL0     C32286   8.015   4.455  10.395 -0.6254  0.2791 -0.4583
  240MOL0     C32287   7.971   4.312  10.431 -0.2488 -0.1945  0.8610
  240MOL0     C32288   7.946   4.224  10.307  0.6654  0.3970  0.1920
  240MOL0     O32289   7.824   4.260  10.240 -0.1418 -0.5533 -0.1071
  240MOL0     C32290   7.708   4.191  10.275  0.5470 -0.8731 -0.5039
  240MOL0     C32291   7.702   4.058  10.317 -0.1653  0.2615 -0.0985
  240MOL0     C32292   7.579   4.000  10.341  0.2514  0.0975  0.4936
  240MOL0     C32293   7.596   3.858  10.392  0.6610 -0.0745  0.4812
  240MOL0     C32294   7.459   4.062  10.307 -0.6171  0.0938 -0.6661
  240MOL0     C32295   7.330   3.993  10.321 -0.6806  0.5285 -0.2335
  240MOL0     O32296   7.226   4.045  10.246 -0.6723  0.3202 -1.2360
  240MOL0     C32297   7.109   3.968  10.226 -0.5280 -0.8018 -0.1779
  240MOL0     C32298   7.104   3.826  10.218 -0.4922 -1.1172 -0.2654
  240MOL0     C32299   6.985   3.755  10.221  0.4843 -0.3687 -0.0995
  240MOL0     C32300   6.862   3.824  10.208  0.5237  0.2000  0.2110
  240MOL0     O32301   6.734   3.760  10.209 -0.1627  0.5469  0.3284
  240MOL0     C32302   6.715   3.643  10.284 -0.3286 -0.5024  0.4749
  240MOL0     C32303   6.583   3.610  10.342  0.0629 -0.3062  0.0802
  240MOL0     C32304   6.467   3.614  10.238 -0.4863 -0.0308 -0.3608
  240MOL0     C32305   6.340   3.597  10.321 -0.0950 -0.3975  0.2967
  240MOL0     C32306   6.223   3.563  10.232 -0.2112 -0.3373 -0.7373
  240MOL0     C32307   6.107   3.521  10.325  0.8710 -0.3883  1.4537
  240MOL0     C32308   5.994   3.487  10.241  0.1802  0.0990  0.9916
  240MOL0     C32309   5.856   3.457  10.303  0.3565 -0.1437 -0.1167
  240MOL0    Cl32310   5.817   3.598  10.401  0.3071 -0.0381 -0.0702
  240MOL0     C32311   6.861   3.961  10.203 -0.3921 -1.3671 -0.1557
  240MOL0     C32312   6.984   4.047  10.221  0.9156  0.2299 -0.1584
  240MOL0     O32313   7.323   3.892  10.398 -0.3437 -0.3836  0.1704
  240MOL0     C32314   7.463   4.189  10.259 -0.5770  0.3357 -0.4238
  240MOL0     C32315   7.587   4.258  10.253  0.5468 -0.0628  1.1187
  240MOL0     N32316   8.135   4.470  10.753 -0.4699 -0.2162 -1.1352
  240MOL0     N32317   8.250   4.437  10.812 -0.1416 -0.0283 -0.1155
  240MOL0     C32318   9.613   4.388  10.578 -0.3167 -0.0393 -0.6786
  240MOL0     C32319   9.730   4.415  10.642  0.3125  0.0464  0.2570
  240MOL0     C32320  10.082   4.518  10.898  0.1450  0.5148  0.3442
  240MOL0     C32321  10.050   4.520  11.033  0.8084  0.8950  1.5498
  240MOL0     C32322  10.142   4.517  11.125 -0.0509 -0.5832 -0.0139
  240MOL0     C32323  10.279   4.512  11.099 -0.8295 -0.3928  0.3756
  240MOL0     O32324  10.358   4.527  11.212  0.3660 -0.2622 -0.3094
  240MOL0     C32325  10.502   4.504  11.196  0.7006  0.0005  0.3244
  240MOL0     C32326  10.564   4.509  11.339 -0.2822  0.5139 -0.0428
  240MOL0     C32327  10.550   4.382  11.421 -0.1881  0.1086  0.2190
  240MOL0     C32328  10.665   4.373  11.530 -0.4651 -1.0684 -0.6324
  240MOL0     C32329  10.790   4.369  11.464  0.1091  0.3438 -0.1607
  240MOL0     C32330  10.895   4.385  11.408 -1.0265  0.0391  0.1079
  240MOL0     C32331  10.315   4.506  10.965  0.4988 -0.1544  0.2734
  240MOL0     C32332  10.217   4.507  10.863 -0.2571 -0.0425 -0.8186
  240MOL0     H32333   9.608   4.553  10.923 -1.8246 -1.3478  0.4994
  240MOL0     H32334   9.395   4.538  10.791 -0.7651  1.1670 -3.9531
  240MOL0     H32335   9.332   4.325  10.402  1.0542  1.9795  0.4027
  240MOL0     H32336   9.412   4.206  10.511 -0.6741 -1.1366 -1.6756
  240MOL0     H32337   9.196   4.132  10.496  3.1882 -1.1267  1.3216
  240MOL0     H32338   9.191   4.204  10.655 -0.3465 -1.7319 -0.9411
  240MOL0     H32339   9.099   4.424  10.561 -1.7306 -0.4756  3.8121
  240MOL0     H32340   9.068   4.335  10.416 -1.3325  1.1889  0.8266
  240MOL0     H32341   8.958   4.165  10.599  1.5596 -0.2055 -2.6225
  240MOL0     H32342   8.980   4.292  10.716 -1.2410  1.2269  0.4945
  240MOL0     H32343   8.829   4.454  10.588 -0.5332  0.2061  3.2696
  240MOL0     H32344   8.785   4.311  10.483 -1.0075 -0.0035  0.2935
  240MOL0     H32345   8.688   4.198  10.656  1.7845 -0.5253  0.8122
  240MOL0     H32346   8.757   4.308  10.775  0.6046  0.8034 -0.9368
  240MOL0     H32347   8.625   4.487  10.743 -1.5174 -0.9656  4.1032
  240MOL0     H32348   8.583   4.453  10.585  0.9268 -0.1742 -0.0728
  240MOL0     H32349   8.483   4.306  10.839 -3.4338 -0.4222  0.8947
  240MOL0     H32350   8.447   4.239  10.676  0.1429  1.5404 -0.5923
  240MOL0     H32351   8.338   4.403  10.505  2.9744 -0.3721  2.0640
  240MOL0     H32352   7.978   4.578  10.567  0.8750  3.6123 -1.5300
  240MOL0     H32353   8.125   4.606  10.462  2.9382 -1.3449  2.0978
  240MOL0     H32354   8.107   4.457  10.336 -0.0736  0.6367  0.3944
  240MOL0     H32355   7.939   4.506  10.335 -0.9903 -0.7124 -0.8647
  240MOL0     H32356   7.873   4.324  10.479 -0.0490  0.4809  1.1050
  240MOL0     H32357   8.040   4.259  10.497  0.4598 -0.4698 -0.0852
  240MOL0     H32358   7.951   4.119  10.337 -0.5105  0.3043  0.1142
  240MOL0     H32359   8.031   4.235  10.239  1.1018  2.8209  1.0244
  240MOL0     H32360   7.793   3.999  10.327  0.2855  1.0785  0.7944
  240MOL0     H32361   7.696   3.826  10.425 -0.1495 -4.7219 -0.8779
  240MOL0     H32362   7.530   3.844  10.478  0.3862  1.4835  0.5373
  240MOL0     H32363   7.573   3.789  10.311  1.2912 -0.3951  0.5648
  240MOL0     H32364   7.194   3.764  10.219 -0.2129 -0.7313 -0.8426
  240MOL0     H32365   6.984   3.647  10.229 -0.5087 -0.2251  2.6551
  240MOL0     H32366   6.727   3.563  10.211 -0.5319 -1.1107  1.0964
  240MOL0     H32367   6.783   3.630  10.368 -1.8800 -1.6210  1.6257
  240MOL0     H32368   6.584   3.508  10.383 -0.0599 -1.2117 -2.0395
  240MOL0     H32369   6.566   3.678  10.426 -0.5124 -0.5206  0.1454
  240MOL0     H32370   6.469   3.537  10.160 -0.1626  2.0668 -2.5334
  240MOL0     H32371   6.455   3.704  10.176 -2.4576 -0.4968 -0.7301
  240MOL0     H32372   6.342   3.509  10.385 -0.5219 -0.6013  0.0313
  240MOL0     H32373   6.322   3.687  10.382  1.5397  0.2911 -0.1763
  240MOL0     H32374   6.244   3.473  10.174  1.4129 -1.3230  1.2520
  240MOL0     H32375   6.180   3.649  10.179 -0.7611 -0.1342  0.0075
  240MOL0     H32376   6.124   3.426  10.376  0.6147 -0.5403  1.2631
  240MOL0     H32377   6.077   3.601  10.393 -0.8813  0.6770 -0.4524
  240MOL0     H32378   6.026   3.401  10.181  0.7700  1.4553 -0.7096
  240MOL0     H32379   5.974   3.555  10.157  0.7285 -1.9893 -0.9361
  240MOL0     H32380   5.862   3.371  10.371  0.1978  0.1018  0.2115
  240MOL0     H32381   5.777   3.427  10.233 -0.3919 -0.4325  0.8287
  240MOL0     H32382   6.766   4.015  10.195 -0.1438 -0.9869 -0.6124
  240MOL0     H32383   6.970   4.154  10.218  0.1319  0.2460  1.8977
  240MOL0     H32384   7.374   4.244  10.231 -0.6182 -0.1505 -1.3175
  240MOL0     H32385   7.591   4.363  10.225 -4.1071  0.1583  0.4124
  240MOL0     H32386   9.606   4.342  10.480 -0.5129 -1.0541 -0.2059
  240MOL0     H32387   9.818   4.391  10.584  1.8194  0.1994  2.3670
  240MOL0     H32388   9.948   4.510  11.068  0.9418  1.5072  2.1268
  240MOL0     H32389  10.108   4.517  11.229  0.5986  2.4154  0.3051
  240MOL0     H32390  10.516   4.406  11.150  0.7779  1.8413 -3.9821
  240MOL0     H32391  10.539   4.586  11.134 -0.1942  1.8429  2.1136
  240MOL0     H32392  10.525   4.597  11.392 -1.1869  0.4637 -0.5914
  240MOL0     H32393  10.671   4.524  11.324 -0.0639 -1.1747 -0.3719
  240MOL0     H32394  10.539   4.289  11.365  0.6994  0.4529 -0.5469
  240MOL0     H32395  10.454   4.395  11.472 -0.0383  0.6703  0.3622
  240MOL0     H32396  10.647   4.288  11.597  1.4075  0.6093  2.2131
  240MOL0     H32397  10.661   4.464  11.591 -2.1452  0.1329 -2.4100
  240MOL0     H32398  10.992   4.404  11.366 -0.7688 -1.5954 -0.1085
  240MOL0     H32399  10.416   4.508  10.926  0.1552 -0.7834 -0.6826
  240MOL0     H32400  10.246   4.500  10.759  2.2125 -0.9878 -0.1401
  241MOL0     O32401   5.384  11.213   4.291  0.0428  0.3754  0.7626
  241MOL0     C32402   5.371  11.302   4.203  0.7180  0.1319  0.6772
  241MOL0     O32403   5.260  11.332   4.142 -1.0771  0.3440 -0.2762
  241MOL0     C32404   5.149  11.268   4.186  0.4112  0.2369  0.5035
  241MOL0     C32405   5.052  11.331   4.260 -0.4324  0.6022  0.3363
  241MOL0     C32406   4.951  11.262   4.330  0.0845 -0.1372  0.2499
  241MOL0     C32407   4.937  11.124   4.299  0.0059  0.0804  0.0030
  241MOL0     O32408   4.846  11.059   4.378  0.2493 -0.4178  0.6065
  241MOL0     C32409   4.793  10.945   4.328 -0.0179 -0.1302  0.9742
  241MOL0     C32410   4.674  10.894   4.405  0.3918 -0.1069  0.4525
  241MOL0     C32411   4.538  10.969   4.392 -0.3112  0.1977 -0.4294
  241MOL0     C32412   4.439  10.929   4.511 -0.4078 -0.4322 -0.0539
  241MOL0     C32413   4.310  11.000   4.467 -0.1456 -0.1642 -0.0484
  241MOL0     C32414   4.217  10.993   4.593  0.6256 -0.5395  0.3643
  241MOL0     C32415   4.081  11.059   4.553  0.6196 -0.7475 -0.1825
  241MOL0     C32416   3.958  11.034   4.642  0.6143 -0.0294  0.0806
  241MOL0     N32417   3.903  10.899   4.624  0.7374 -0.5464 -0.6504
  241MOL0     C32418   3.827  10.863   4.518 -0.6261  0.2394 -0.6540
  241MOL0     C32419   3.773  10.744   4.543  0.8750 -0.6730  0.2590
  241MOL0     C32420   3.684  10.654   4.470 -0.7081  0.5148  0.2280
  241MOL0     C32421   3.554  10.718   4.420  0.0471 -1.0474  0.8251
  241MOL0     C32422   3.434  10.634   4.451 -0.7923  0.5765  0.1541
  241MOL0     C32423   3.295  10.696   4.405  0.7005  0.3518  0.7837
  241MOL0     O32424   3.279  10.832   4.458 -0.8464  0.4231 -0.0781
  241MOL0     C32425   3.152  10.886   4.452 -0.0103 -0.1865  0.0852
  241MOL0     C32426   3.086  10.906   4.333  1.3889 -0.4248 -0.3360
  241MOL0     C32427   2.952  10.961   4.326 -0.7075  0.2307  0.0516
  241MOL0     C32428   2.882  10.944   4.192 -0.2717  0.3523 -0.2742
  241MOL0     C32429   2.899  11.003   4.450 -0.1178  0.6999  0.6628
  241MOL0     C32430   2.755  11.061   4.464 -0.3199 -0.2106 -0.1376
  241MOL0     O32431   2.696  11.103   4.347 -0.4729  0.5990 -0.5271
  241MOL0     C32432   2.570  11.144   4.349  0.2862 -0.3485 -0.0853
  241MOL0     C32433   2.461  11.058   4.372  0.5630 -0.0987  0.2800
  241MOL0     C32434   2.329  11.102   4.353 -0.1725  0.4320  0.2009
  241MOL0     C32435   2.311  11.243   4.335 -0.2185 -0.2870  0.4102
  241MOL0     O32436   2.183  11.294   4.331 -0.2088  0.1299  0.3316
  241MOL0     C32437   2.152  11.421   4.390  0.5546  0.4906 -0.0791
  241MOL0     C32438   2.016  11.473   4.354 -0.2987 -0.2248  0.2019
  241MOL0     C32439   1.901  11.413   4.441 -0.1916  0.1722  1.0686
  241MOL0     C32440   1.771  11.411   4.370 -0.5824 -0.5327 -0.3341
  241MOL0     C32441   1.693  11.552   4.370 -0.2490 -0.0331  0.0673
  241MOL0     C32442   1.543  11.552   4.330 -0.3174  0.1663  0.3334
  241MOL0     C32443   1.518  11.476   4.203 -0.6133 -0.0666  0.5652
  241MOL0     C32444   1.370  11.514   4.155 -0.4718  0.5336  0.5641
  241MOL0    Cl32445   1.324  11.444   3.999 -0.3052  0.0073  0.0350
  241MOL0     C32446   2.420  11.325   4.322 -0.3105 -0.2214  0.0925
  241MOL0     C32447   2.548  11.276   4.323  0.1195  0.4538  0.0824
  241MOL0     O32448   2.703  11.072   4.580  0.2065  0.1040 -0.2804
  241MOL0     C32449   2.969  10.996   4.565  0.2364 -0.1211 -0.2107
  241MOL0     C32450   3.090  10.930   4.570 -0.3236  0.0004 -0.1552
  241MOL0     N32451   3.826  10.711   4.664 -0.5173 -0.1698  0.1994
  241MOL0     N32452   3.894  10.805   4.721  0.3074  0.6242  0.8254
  241MOL0     C32453   5.025  11.058   4.202  0.0738 -1.1405  0.7645
  241MOL0     C32454   5.127  11.135   4.148 -0.1622  0.3755  0.2586
  241MOL0     C32455   5.490  11.356   4.142 -0.5924 -0.1597 -0.2280
  241MOL0     C32456   5.615  11.291   4.153 -0.9600  0.2695  0.3443
  241MOL0     C32457   5.733  11.336   4.086  0.5295 -0.7736 -0.0450
  241MOL0     C32458   5.734  11.459   4.019 -0.9143 -0.2930  0.0121
  241MOL0     O32459   5.847  11.495   3.956 -0.1215  0.3980 -0.4758
  241MOL0     C32460   5.849  11.517   3.820  0.0379  0.0170 -0.5696
  241MOL0     C32461   5.942  11.425   3.742  0.0270  0.3839  0.5227
  241MOL0     C32462   5.923  11.275   3.753 -0.0383  0.0621 -0.0538
  241MOL0     C32463   6.020  11.191   3.674  0.6078  0.0902 -0.7480
  241MOL0     C32464   6.006  11.215   3.536 -0.0397  0.7941  0.4214
  241MOL0     C32465   6.006  11.241   3.415  0.3138 -0.1724  0.6342
  241MOL0     C32466   5.607  11.531   4.021 -0.9284  0.4487  0.1334
  241MOL0     C32467   5.493  11.478   4.075  0.1770 -0.2027 -0.5996
  241MOL0     H32468   5.049  11.439   4.269  2.1915  0.6627  1.2335
  241MOL0     H32469   4.891  11.311   4.407  1.3706  0.2164  1.0475
  241MOL0     H32470   4.747  10.973   4.233  1.7569  0.5048  0.2587
  241MOL0     H32471   4.863  10.864   4.305  1.0388  1.2544 -0.9740
  241MOL0     H32472   4.650  10.791   4.378 -1.2471  0.2686  0.3311
  241MOL0     H32473   4.705  10.901   4.510  3.0644 -1.3706 -0.1720
  241MOL0     H32474   4.562  11.075   4.401 -0.3156  0.1537  0.1053
  241MOL0     H32475   4.487  10.935   4.301  1.7034 -0.9821 -1.1980
  241MOL0     H32476   4.419  10.821   4.506 -1.4878 -0.3534  1.7132
  241MOL0     H32477   4.469  10.949   4.614  0.6840  0.2460 -0.4815
  241MOL0     H32478   4.331  11.103   4.437  0.1546  0.0866  0.9792
  241MOL0     H32479   4.256  10.950   4.386 -1.2734 -0.4840  0.8641
  241MOL0     H32480   4.204  10.885   4.603 -2.6194 -0.5426 -1.9964
  241MOL0     H32481   4.250  11.044   4.684 -1.2705  0.5245  0.5158
  241MOL0     H32482   4.088  11.168   4.554 -2.2430 -0.3975 -2.5719
  241MOL0     H32483   4.048  11.022   4.455 -1.4418 -1.7669  0.8408
  241MOL0     H32484   3.879  11.108   4.625 -0.8681 -1.7512 -0.7512
  241MOL0     H32485   3.980  11.046   4.749 -0.6126 -0.8187  0.4385
  241MOL0     H32486   3.816  10.919   4.425 -2.5708  1.1890  0.1002
  241MOL0     H32487   3.739  10.625   4.380 -2.2474 -2.0202 -0.0008
  241MOL0     H32488   3.661  10.565   4.529 -2.6199  0.7272 -0.1292
  241MOL0     H32489   3.555  10.741   4.313  2.2055 -0.1852  0.9679
  241MOL0     H32490   3.538  10.811   4.477 -2.5616 -1.1208  0.3137
  241MOL0     H32491   3.440  10.610   4.557  0.8929  0.6754  0.1093
  241MOL0     H32492   3.444  10.543   4.392 -0.1340  1.8127 -1.7332
  241MOL0     H32493   3.210  10.633   4.436  1.9216 -1.8411 -0.0905
  241MOL0     H32494   3.288  10.692   4.296 -0.1960  0.6838  0.8214
  241MOL0     H32495   3.126  10.867   4.240  1.1276 -1.7083  0.0655
  241MOL0     H32496   2.943  10.985   4.111 -0.0511 -0.3370 -0.4622
  241MOL0     H32497   2.872  10.840   4.161 -2.1229  1.1714 -2.7584
  241MOL0     H32498   2.784  10.990   4.178 -0.0398  0.6492 -0.9653
  241MOL0     H32499   2.483  10.953   4.390 -3.3966 -1.5143 -1.7299
  241MOL0     H32500   2.238  11.043   4.359 -2.0437  2.4467 -3.9723
  241MOL0     H32501   2.153  11.407   4.499 -0.6910  1.8343  0.1376
  241MOL0     H32502   2.223  11.496   4.356  1.2900 -0.0540  0.2264
  241MOL0     H32503   2.008  11.581   4.371 -3.4909 -0.6648  2.4905
  241MOL0     H32504   1.996  11.454   4.248 -4.0875  1.2564  0.4823
  241MOL0     H32505   1.887  11.473   4.531 -0.3327 -0.0667  1.2087
  241MOL0     H32506   1.936  11.313   4.471  1.5303  0.6098  0.5876
  241MOL0     H32507   1.785  11.368   4.270 -0.5105 -0.3258 -0.4141
  241MOL0     H32508   1.707  11.345   4.428  1.6697  0.4638  3.6333
  241MOL0     H32509   1.754  11.631   4.326  0.0082  0.7609  1.7684
  241MOL0     H32510   1.691  11.580   4.476  0.6192  0.8444 -0.1345
  241MOL0     H32511   1.494  11.510   4.418  1.0345  0.7184  1.3879
  241MOL0     H32512   1.513  11.657   4.323  2.8076  1.2414  1.0705
  241MOL0     H32513   1.522  11.369   4.224 -1.4478 -0.0121  1.0145
  241MOL0     H32514   1.594  11.494   4.126 -0.3357 -0.7593  0.6684
  241MOL0     H32515   1.360  11.623   4.153  3.8083  1.0862 -0.5406
  241MOL0     H32516   1.312  11.466   4.234  0.1296 -1.5189 -0.1752
  241MOL0     H32517   2.425  11.433   4.314 -1.3790 -0.1834 -0.3136
  241MOL0     H32518   2.637  11.335   4.302 -0.0361  0.3671 -0.8786
  241MOL0     H32519   2.919  11.035   4.653 -0.3636  0.7932 -0.9453
  241MOL0     H32520   3.140  10.924   4.666 -0.2822  1.0687 -0.1014
  241MOL0     H32521   5.035  10.950   4.191  1.0766 -0.8494 -2.2492
  241MOL0     H32522   5.205  11.088   4.089 -1.0387 -1.0816  0.1881
  241MOL0     H32523   5.638  11.203   4.212  3.2701  1.3185  0.5826
  241MOL0     H32524   5.827  11.282   4.080  1.0958  0.3402 -3.4480
  241MOL0     H32525   5.747  11.504   3.784  0.1269 -2.5429 -0.1466
  241MOL0     H32526   5.876  11.623   3.816  2.5709 -0.4567  1.1793
  241MOL0     H32527   6.045  11.445   3.773 -0.5938 -1.1294  3.9738
  241MOL0     H32528   5.927  11.461   3.640 -1.2839 -0.8699  0.2422
  241MOL0     H32529   5.821  11.246   3.726 -0.8950  2.4711  0.2951
  241MOL0     H32530   5.935  11.243   3.857  3.3890  0.2142 -0.2896
  241MOL0     H32531   6.018  11.086   3.702  0.7257 -0.2006 -1.7872
  241MOL0     H32532   6.121  11.227   3.693 -0.7326  4.1500 -0.2310
  241MOL0     H32533   6.003  11.246   3.308  1.2504 -0.0293  0.6069
  241MOL0     H32534   5.602  11.627   3.970  2.2400 -0.5531 -2.4643
  241MOL0     H32535   5.400  11.533   4.065  0.1680  0.2207  1.3818
  242MOL0     O32536   9.644   0.003  10.500  0.3979 -0.6295  0.2870
  242MOL0     C32537   9.722   0.012  10.597 -0.7941  0.3469  0.7605
  242MOL0     O32538   9.686   0.072  10.714 -0.5694 -0.7359  0.4018
  242MOL0     C32539   9.561   0.110  10.727 -0.4720  0.3693 -0.1082
  242MOL0     C32540   9.450   0.022  10.747  0.2850  0.0202 -0.3445
  242MOL0     C32541   9.318   0.063  10.778  0.5347  0.2411  0.1308
  242MOL0     C32542   9.295   0.206  10.789  0.7303  0.5777 -0.1963
  242MOL0     O32543   9.178   0.263  10.824 -0.0813  0.6817 -0.4997
  242MOL0     C32544   9.056   0.187  10.820 -0.3378 -0.1582  0.6360
  242MOL0     C32545   8.937   0.274  10.869  0.5658  0.5319  0.7506
  242MOL0     C32546   8.805   0.215  10.832  0.5346  1.3459 -0.5172
  242MOL0     C32547   8.696   0.312  10.876 -0.4640 -0.9749 -0.6127
  242MOL0     C32548   8.560   0.248  10.882 -0.5155  0.1511 -0.2769
  242MOL0     C32549   8.536   0.169  11.016 -0.6331  0.3118  0.2516
  242MOL0     C32550   8.390   0.150  11.047 -0.4492  0.0228 -0.3794
  242MOL0     C32551   8.382   0.019  11.134 -0.6960 -0.0762  0.2387
  242MOL0     N32552   8.239  -0.006  11.180 -0.1607 -0.0991 -0.2294
  242MOL0     C32553   8.208  -0.087  11.286 -0.0468 -0.0713 -0.5362
  242MOL0     C32554   8.078  -0.074  11.312  0.8679 -0.0587  0.1513
  242MOL0     C32555   7.996  -0.121  11.427  0.5289 -0.0351 -0.2218
  242MOL0     C32556   7.894  -0.228  11.364 -0.0782 -0.0627 -0.1545
  242MOL0     C32557   7.790  -0.282  11.463 -0.5051  1.1567  1.5928
  242MOL0     C32558   7.698  -0.394  11.411  0.5049  0.1138  0.4151
  242MOL0     O32559   7.596  -0.337  11.323  0.4681  0.1638 -0.7684
  242MOL0     C32560   7.468  -0.390  11.338 -0.9387  0.2887  0.4567
  242MOL0     C32561   7.359  -0.309  11.314  0.2195  0.1920  0.7653
  242MOL0     C32562   7.227  -0.355  11.324 -0.6056 -0.8343  0.3740
  242MOL0     C32563   7.121  -0.259  11.272 -0.3148 -0.0233 -0.4843
  242MOL0     C32564   7.209  -0.494  11.344  1.1281 -0.1087  0.1385
  242MOL0     C32565   7.070  -0.557  11.342 -0.0353  0.2431  0.2821
  242MOL0     O32566   7.070  -0.693  11.351  0.3675  0.3342  0.0726
  242MOL0     C32567   6.957  -0.775  11.371  0.0902 -0.9843 -0.3087
  242MOL0     C32568   6.848  -0.737  11.450 -0.5639  0.2853  0.3427
  242MOL0     C32569   6.736  -0.820  11.469  0.2396  0.6854 -0.3188
  242MOL0     C32570   6.746  -0.952  11.423  0.8553 -0.0852  0.4840
  242MOL0     O32571   6.648  -1.041  11.452  0.1893 -0.2283  0.7525
  242MOL0     C32572   6.668  -1.187  11.438  0.1127 -0.4519  0.6612
  242MOL0     C32573   6.547  -1.258  11.503  0.2320 -0.6552  0.7997
  242MOL0     C32574   6.529  -1.236  11.658  0.3421  0.2583  0.6740
  242MOL0     C32575   6.389  -1.294  11.702  0.5882 -0.4428  0.1875
  242MOL0     C32576   6.349  -1.256  11.847  0.3246 -0.1248  0.1678
  242MOL0     C32577   6.440  -1.327  11.959 -0.4431  0.5168 -0.2414
  242MOL0     C32578   6.375  -1.326  12.102  0.7250  0.0901  0.2898
  242MOL0     C32579   6.244  -1.406  12.106 -0.4219  0.5262 -0.1811
  242MOL0    Cl32580   6.277  -1.575  12.052  0.6734  0.0714  0.1403
  242MOL0     C32581   6.859  -0.992  11.345  0.1581 -0.3429 -0.1200
  242MOL0     C32582   6.961  -0.902  11.325  0.2467 -0.3329 -0.5309
  242MOL0     O32583   6.972  -0.483  11.344 -0.4600 -0.3662  0.1400
  242MOL0     C32584   7.314  -0.580  11.374 -0.5772 -0.4535 -0.6353
  242MOL0     C32585   7.443  -0.528  11.366 -0.1113  0.0551 -0.5296
  242MOL0     N32586   8.024   0.009  11.213 -0.2549  0.0305 -0.3684
  242MOL0     N32587   8.128   0.049  11.139  0.8112 -0.0424 -0.4005
  242MOL0     C32588   9.400   0.296  10.753 -0.1849 -0.8440  0.1601
  242MOL0     C32589   9.535   0.248  10.720  0.5269 -0.2257 -0.4544
  242MOL0     C32590   9.863  -0.036  10.582 -0.7172  0.1521 -1.0022
  242MOL0     C32591   9.939  -0.099  10.686  0.4346  0.3196  0.0069
  242MOL0     C32592  10.074  -0.139  10.663 -0.2598  0.5507  0.3731
  242MOL0     C32593  10.130  -0.115  10.535 -0.5907 -0.3491  0.3598
  242MOL0     O32594  10.263  -0.137  10.499  0.4085 -0.1085 -0.4726
  242MOL0     C32595  10.364  -0.118  10.597  0.6588  0.1187 -0.3533
  242MOL0     C32596  10.429   0.024  10.607 -0.5640  0.0962 -0.1122
  242MOL0     C32597  10.545   0.009  10.701  0.6034 -0.6790  0.2828
  242MOL0     C32598  10.509   0.032  10.850  0.5985 -0.1144  0.2057
  242MOL0     C32599  10.464   0.167  10.874  1.5773 -0.2171  0.3480
  242MOL0     C32600  10.409   0.272  10.903 -0.4633 -0.5984 -0.3526
  242MOL0     C32601  10.059  -0.055  10.433  0.1352  0.3582  0.0510
  242MOL0     C32602   9.928  -0.019  10.457  0.3904  0.2150 -0.6032
  242MOL0     H32603   9.475  -0.084  10.744  2.9853  0.6143 -2.0459
  242MOL0     H32604   9.240  -0.009  10.799  1.1646 -0.2196  0.9509
  242MOL0     H32605   9.024   0.157  10.720  2.1954  2.0860 -0.9704
  242MOL0     H32606   9.064   0.103  10.890 -6.7918 -1.0570  0.9187
  242MOL0     H32607   8.940   0.292  10.977  1.7372  1.8439  0.5279
  242MOL0     H32608   8.949   0.370  10.819  1.6938 -0.2182 -0.4839
  242MOL0     H32609   8.790   0.181  10.730 -3.7077  1.7129 -0.1869
  242MOL0     H32610   8.804   0.131  10.902  1.3957  0.6574 -1.3035
  242MOL0     H32611   8.724   0.351  10.974 -0.8876  0.0540 -0.8854
  242MOL0     H32612   8.714   0.391  10.802  3.9186 -1.2893 -0.1594
  242MOL0     H32613   8.490   0.331  10.872  0.4069  0.9783  0.0577
  242MOL0     H32614   8.527   0.176  10.806 -2.1232 -0.1949  0.7060
  242MOL0     H32615   8.584   0.070  11.016  0.9861  1.0447 -1.3430
  242MOL0     H32616   8.582   0.218  11.103 -0.0366 -2.1650  1.4347
  242MOL0     H32617   8.346   0.238  11.094  1.0253  1.4607 -1.5904
  242MOL0     H32618   8.327   0.131  10.959 -1.3880 -0.0891  0.2962
  242MOL0     H32619   8.453   0.035  11.216  1.4368 -2.7232 -0.9473
  242MOL0     H32620   8.422  -0.068  11.082  3.5111  1.3286  0.7836
  242MOL0     H32621   8.279  -0.137  11.351 -0.6849  0.1480  0.3607
  242MOL0     H32622   8.052  -0.168  11.508  0.7532  0.7749  0.1027
  242MOL0     H32623   7.941  -0.038  11.471 -1.0743  0.3992 -2.8197
  242MOL0     H32624   7.957  -0.312  11.332  1.0159  0.7916 -0.3052
  242MOL0     H32625   7.846  -0.197  11.270 -0.2281 -2.5765 -0.9848
  242MOL0     H32626   7.722  -0.200  11.488 -4.4766 -0.2599 -2.9040
  242MOL0     H32627   7.847  -0.322  11.546 -1.1362  0.7352  1.8310
  242MOL0     H32628   7.652  -0.437  11.501 -1.0246  2.6029  0.9388
  242MOL0     H32629   7.746  -0.475  11.355 -0.2179  3.0000 -5.0203
  242MOL0     H32630   7.378  -0.204  11.292 -0.7970  0.3467  0.5387
  242MOL0     H32631   7.058  -0.221  11.353  0.4237  0.9687 -0.3605
  242MOL0     H32632   7.174  -0.172  11.232 -0.5099  1.5256  2.3768
  242MOL0     H32633   7.063  -0.311  11.195  0.7627 -2.5868  0.3203
  242MOL0     H32634   6.840  -0.642  11.502  0.6369  0.9014 -0.5539
  242MOL0     H32635   6.644  -0.780  11.512  0.4672  2.3602 -1.2937
  242MOL0     H32636   6.679  -1.213  11.333  0.2701 -0.4085  0.6665
  242MOL0     H32637   6.755  -1.233  11.487  0.3188 -2.2661 -1.2428
  242MOL0     H32638   6.467  -1.217  11.440  1.3799  0.7263  0.1925
  242MOL0     H32639   6.550  -1.366  11.485 -0.0371 -0.8699  1.9517
  242MOL0     H32640   6.530  -1.130  11.686  0.1266  0.6819 -0.8624
  242MOL0     H32641   6.611  -1.286  11.710  2.4701  3.0440  0.2559
  242MOL0     H32642   6.317  -1.247  11.635  0.9850 -0.7469 -0.4555
  242MOL0     H32643   6.379  -1.401  11.683  0.8013 -0.5297  0.5634
  242MOL0     H32644   6.246  -1.292  11.857  0.4468 -1.4683 -2.5657
  242MOL0     H32645   6.344  -1.148  11.861 -0.9326  0.0138 -1.1177
  242MOL0     H32646   6.463  -1.431  11.933 -0.8708  0.5188 -0.6291
  242MOL0     H32647   6.535  -1.273  11.970 -1.5480  2.3120  1.0591
  242MOL0     H32648   6.372  -1.222  12.134  3.0428  0.7402 -1.3612
  242MOL0     H32649   6.437  -1.376  12.178 -0.4547 -1.8966  0.0289
  242MOL0     H32650   6.171  -1.369  12.034 -0.5874  2.9124  1.1075
  242MOL0     H32651   6.202  -1.406  12.206  2.5993  2.3352  1.2508
  242MOL0     H32652   6.879  -1.090  11.303  1.3850 -0.3797  0.4964
  242MOL0     H32653   7.047  -0.938  11.269  0.9051 -2.3922  1.6387
  242MOL0     H32654   7.302  -0.684  11.405 -1.0941  0.0478  0.8978
  242MOL0     H32655   7.531  -0.590  11.359  1.1274  1.8458 -1.5724
  242MOL0     H32656   9.382   0.400  10.774  0.4497  0.0652 -3.2722
  242MOL0     H32657   9.618   0.316  10.703 -0.2426  0.6458 -0.8381
  242MOL0     H32658   9.885  -0.123  10.777 -0.8103  0.0366 -0.7875
  242MOL0     H32659  10.137  -0.177  10.743 -1.9166 -0.6609  1.1569
  242MOL0     H32660  10.320  -0.130  10.697  2.3221 -0.5720  0.3317
  242MOL0     H32661  10.443  -0.193  10.588  3.4963  2.8794 -0.3756
  242MOL0     H32662  10.362   0.101  10.646  0.1121  1.1725 -1.0416
  242MOL0     H32663  10.466   0.058  10.510  2.3346  0.5158  1.0570
  242MOL0     H32664  10.619   0.082  10.664  1.5049 -1.8419 -0.2878
  242MOL0     H32665  10.587  -0.089  10.680  1.4567 -0.8505  2.5699
  242MOL0     H32666  10.596   0.004  10.909  1.0153 -0.1134 -0.4032
  242MOL0     H32667  10.422  -0.030  10.874 -1.4382  2.2880 -0.5216
  242MOL0     H32668  10.358   0.363  10.925  2.0454  0.7742  0.1146
  242MOL0     H32669  10.116  -0.040  10.342  1.5323  0.2012  0.8676
  242MOL0     H32670   9.868   0.026  10.378 -3.6146 -1.3682  1.2439
  243MOL0     O32671   5.593   2.627   2.324  0.2236 -0.9360 -0.0508
  243MOL0     C32672   5.604   2.579   2.208 -0.1472 -0.4215 -0.5546
  243MOL0     O32673   5.499   2.584   2.120  0.4574 -0.0735  0.0164
  243MOL0     C32674   5.370   2.612   2.159  0.6346  0.5065  0.3827
  243MOL0     C32675   5.305   2.679   2.061 -0.0994  0.5365  0.0683
  243MOL0     C32676   5.171   2.717   2.085  0.4446  0.0070 -0.2005
  243MOL0     C32677   5.096   2.672   2.195 -0.3197  1.0363 -0.5093
  243MOL0     O32678   4.966   2.676   2.230 -0.1939  0.8435  0.4168
  243MOL0     C32679   4.874   2.682   2.115 -0.2549 -0.0340  0.3407
  243MOL0     C32680   4.725   2.689   2.162 -0.2020  0.6775 -0.5222
  243MOL0     C32681   4.671   2.564   2.218  0.4060  0.0461 -0.1893
  243MOL0     C32682   4.517   2.551   2.182  0.3268 -0.4549  0.1582
  243MOL0     C32683   4.446   2.461   2.278 -0.7545  0.1639  0.0434
  243MOL0     C32684   4.297   2.447   2.236 -0.3680 -0.3004  0.6864
  243MOL0     C32685   4.245   2.316   2.289  0.5856  0.1438  0.4161
  243MOL0     C32686   4.254   2.297   2.443 -0.1322  0.6326  0.5872
  243MOL0     N32687   4.173   2.398   2.508  0.2020 -0.5676 -0.0982
  243MOL0     C32688   4.083   2.345   2.604 -0.6052 -0.2738 -0.3848
  243MOL0     C32689   4.070   2.445   2.694 -0.4841 -0.0658 -0.1259
  243MOL0     C32690   3.996   2.428   2.827  0.0243 -0.1319  0.1246
  243MOL0     C32691   3.840   2.442   2.823  0.1950  0.0836  0.2799
  243MOL0     C32692   3.781   2.452   2.960  0.4067 -0.1419 -0.1302
  243MOL0     C32693   3.631   2.430   2.967  0.2559  0.4363 -0.7243
  243MOL0     O32694   3.552   2.515   2.873  0.0452  0.6652 -0.4031
  243MOL0     C32695   3.418   2.542   2.887 -0.2214 -0.3166 -0.1206
  243MOL0     C32696   3.329   2.469   2.959 -0.8747  0.4486  0.2739
  243MOL0     C32697   3.196   2.507   2.976 -0.6487 -0.5497 -0.2247
  243MOL0     C32698   3.100   2.410   3.047  1.0707 -0.7115  0.3216
  243MOL0     C32699   3.157   2.629   2.921  0.0883 -0.2730  0.8467
  243MOL0     C32700   3.014   2.672   2.915  0.5125 -0.1019  0.5804
  243MOL0     O32701   3.001   2.809   2.891 -0.1364 -0.2617 -0.1918
  243MOL0     C32702   2.882   2.868   2.884 -0.3631  0.1645  0.4171
  243MOL0     C32703   2.761   2.824   2.937 -0.4366  0.5280  0.1659
  243MOL0     C32704   2.645   2.892   2.908  0.0922  0.3861  0.8465
  243MOL0     C32705   2.637   3.006   2.834 -0.5394 -0.2584 -0.6528
  243MOL0     O32706   2.521   3.079   2.832 -0.3374 -0.4979 -0.5468
  243MOL0     C32707   2.507   3.170   2.735 -0.0939 -0.8402  0.4702
  243MOL0     C32708   2.367   3.237   2.740  0.4693 -0.2097  0.8508
  243MOL0     C32709   2.356   3.369   2.650 -0.7024 -0.3846  0.1356
  243MOL0     C32710   2.213   3.417   2.649  0.4029  0.0693 -0.1626
  243MOL0     C32711   2.212   3.559   2.592 -0.1889  0.5381  0.0856
  243MOL0     C32712   2.071   3.604   2.569  0.2313 -0.5858 -0.7158
  243MOL0     C32713   2.077   3.759   2.546  0.2157 -0.0009 -0.5434
  243MOL0     C32714   1.942   3.821   2.540  0.6677 -0.5778 -0.8874
  243MOL0    Cl32715   1.866   3.718   2.412  0.0739  0.1485 -0.2732
  243MOL0     C32716   2.762   3.052   2.783  0.4095 -0.1696 -0.2832
  243MOL0     C32717   2.880   2.982   2.807 -0.4439  0.2299  0.0759
  243MOL0     O32718   2.922   2.592   2.922 -0.0569 -0.1049  0.2137
  243MOL0     C32719   3.257   2.712   2.852  0.1950 -0.1075 -1.4650
  243MOL0     C32720   3.382   2.664   2.836 -0.6074 -0.2950  0.2186
  243MOL0     N32721   4.145   2.552   2.654 -0.1259 -0.2617  0.5942
  243MOL0     N32722   4.207   2.526   2.545  0.4075 -0.2423  0.1600
  243MOL0     C32723   5.172   2.597   2.285  0.5507  0.4799 -0.5596
  243MOL0     C32724   5.310   2.573   2.272 -0.1195  0.0213  0.3317
  243MOL0     C32725   5.744   2.540   2.167  0.0786 -1.0433  0.1558
  243MOL0     C32726   5.779   2.482   2.045  0.4087 -0.5089  0.3002
  243MOL0     C32727   5.905   2.448   2.014  0.1297 -1.0701 -0.4711
  243MOL0     C32728   6.011   2.463   2.102 -0.3863 -0.1452 -0.4985
  243MOL0     O32729   6.134   2.422   2.074  0.2020  0.1008 -0.6477
  243MOL0     C32730   6.143   2.296   2.010 -0.1767  0.0379 -0.4815
  243MOL0     C32731   6.286   2.231   2.030  1.0422 -0.3751 -0.3172
  243MOL0     C32732   6.311   2.184   2.181  0.1065 -0.3571  0.8256
  243MOL0     C32733   6.444   2.110   2.198 -0.9496  0.0258  0.0181
  243MOL0     C32734   6.474   2.082   2.338  0.1760  0.0438 -0.2632
  243MOL0     C32735   6.490   2.048   2.445 -1.0529 -0.1154  0.5635
  243MOL0     C32736   5.985   2.513   2.230  0.3280  0.0701  0.3735
  243MOL0     C32737   5.852   2.557   2.252 -0.4501 -0.9294 -0.3023
  243MOL0     H32738   5.359   2.711   1.972 -1.8828 -1.2123 -1.7431
  243MOL0     H32739   5.117   2.778   2.013  1.1492 -0.5165 -1.1980
  243MOL0     H32740   4.891   2.771   2.053  1.6754  0.3392  1.3319
  243MOL0     H32741   4.902   2.596   2.053  1.0283 -1.5260  2.8441
  243MOL0     H32742   4.721   2.771   2.233 -0.6461 -1.0557  1.5628
  243MOL0     H32743   4.668   2.707   2.070  1.4136 -1.3551 -2.0182
  243MOL0     H32744   4.724   2.475   2.182 -1.4388 -1.9597  1.7233
  243MOL0     H32745   4.685   2.568   2.326 -1.7973  0.7094  0.1284
  243MOL0     H32746   4.471   2.650   2.190 -0.4014 -0.9108  2.0138
  243MOL0     H32747   4.504   2.522   2.077 -2.0679 -0.4425  0.3904
  243MOL0     H32748   4.497   2.365   2.276 -1.4298 -0.1963  0.0951
  243MOL0     H32749   4.462   2.510   2.374  1.0664 -0.4871  0.1197
  243MOL0     H32750   4.250   2.541   2.266  1.1777 -0.2999  3.4490
  243MOL0     H32751   4.303   2.449   2.127  0.1053 -2.4285  0.6283
  243MOL0     H32752   4.138   2.306   2.267  0.5894  0.8025  0.0900
  243MOL0     H32753   4.298   2.241   2.229  0.8939  0.1713  0.6551
  243MOL0     H32754   4.360   2.310   2.467  0.3004  0.2634 -1.0118
  243MOL0     H32755   4.230   2.194   2.472 -2.1003  0.2334 -2.0577
  243MOL0     H32756   4.036   2.247   2.610  0.4226 -0.8634 -1.4781
  243MOL0     H32757   4.027   2.338   2.881  0.2539  0.3479  0.8119
  243MOL0     H32758   4.024   2.518   2.884  1.2440 -1.2667  1.3879
  243MOL0     H32759   3.796   2.356   2.773  0.3475  1.7782 -3.0794
  243MOL0     H32760   3.810   2.535   2.773 -0.7039 -1.4873 -2.2655
  243MOL0     H32761   3.806   2.554   2.992 -0.7673  1.1869 -3.0928
  243MOL0     H32762   3.837   2.384   3.025 -0.0759 -4.0044 -3.4083
  243MOL0     H32763   3.601   2.445   3.071 -2.2534 -1.5674 -1.0716
  243MOL0     H32764   3.616   2.323   2.949 -1.2113 -0.4645  4.3647
  243MOL0     H32765   3.349   2.368   2.995  1.4712  1.3499  1.6840
  243MOL0     H32766   3.032   2.361   2.977  0.0878  0.5318  0.3668
  243MOL0     H32767   3.157   2.339   3.108  0.1782 -0.0909  1.9290
  243MOL0     H32768   3.029   2.467   3.108 -2.6571 -3.5602 -0.9812
  243MOL0     H32769   2.748   2.732   2.993 -1.5703 -1.7008 -3.3812
  243MOL0     H32770   2.545   2.862   2.938  0.0652  0.0497  0.4221
  243MOL0     H32771   2.584   3.248   2.740 -0.0918 -0.8077 -0.0215
  243MOL0     H32772   2.506   3.127   2.634  1.0166 -1.6827  0.7925
  243MOL0     H32773   2.294   3.158   2.720  0.1724  0.5745 -1.4731
  243MOL0     H32774   2.336   3.272   2.839 -0.7761  0.1667  0.3415
  243MOL0     H32775   2.399   3.362   2.549 -0.2227  4.0970 -0.1924
  243MOL0     H32776   2.426   3.441   2.693  2.2628 -2.0685 -1.5278
  243MOL0     H32777   2.151   3.348   2.591  0.1720 -0.2337  0.4409
  243MOL0     H32778   2.182   3.429   2.753  0.5165 -0.8976 -0.0090
  243MOL0     H32779   2.259   3.548   2.494  1.6217 -0.4997  1.0106
  243MOL0     H32780   2.272   3.626   2.655 -0.3532 -0.7549  1.6969
  243MOL0     H32781   2.019   3.549   2.490 -2.2953 -1.5779  1.5029
  243MOL0     H32782   2.016   3.588   2.662  1.6863  1.6946  0.6329
  243MOL0     H32783   2.126   3.772   2.449 -0.6488 -0.5746 -1.0626
  243MOL0     H32784   2.137   3.806   2.625 -1.9191 -0.4764  1.4553
  243MOL0     H32785   1.933   3.922   2.500 -1.7007 -0.7552 -0.9261
  243MOL0     H32786   1.890   3.816   2.636 -2.3746 -0.8311 -2.4136
  243MOL0     H32787   2.765   3.144   2.726 -0.1254  0.0568  0.0477
  243MOL0     H32788   2.973   3.011   2.761  0.6813 -2.3141  0.5799
  243MOL0     H32789   3.224   2.803   2.802 -4.4692 -0.7037  0.0600
  243MOL0     H32790   3.452   2.722   2.776 -1.3487 -1.4552 -1.8911
  243MOL0     H32791   5.122   2.569   2.377 -1.1823  1.7455 -1.0699
  243MOL0     H32792   5.367   2.529   2.353 -0.6870 -0.7114  0.3388
  243MOL0     H32793   5.694   2.478   1.977  0.9136 -0.1674 -0.3619
  243MOL0     H32794   5.927   2.434   1.908 -0.4285  2.3838 -1.1795
  243MOL0     H32795   6.079   2.219   2.055  1.8891 -1.0865  0.7174
  243MOL0     H32796   6.117   2.308   1.904  0.6318  0.4803 -0.6353
  243MOL0     H32797   6.363   2.305   2.005  0.1881  1.0133  1.0031
  243MOL0     H32798   6.280   2.139   1.971  1.5622  0.6192 -1.9756
  243MOL0     H32799   6.221   2.130   2.213 -0.3310  0.1394  0.4564
  243MOL0     H32800   6.311   2.275   2.242 -1.0082  0.5943 -0.5082
  243MOL0     H32801   6.526   2.165   2.151 -2.5579  2.6920  0.1227
  243MOL0     H32802   6.440   2.013   2.148 -0.1249  0.0333 -0.0743
  243MOL0     H32803   6.505   2.002   2.541  2.3509  1.2011  0.8188
  243MOL0     H32804   6.065   2.529   2.301  0.7520  1.6926 -0.4231
  243MOL0     H32805   5.838   2.607   2.347  1.9446  1.3662 -1.0180
  244MOL0     O32806   6.933   7.148   9.663  0.3557 -0.2045  0.3289
  244MOL0     C32807   7.009   7.093   9.739  0.2822  0.8468 -0.7533
  244MOL0     O32808   6.979   7.050   9.867 -0.2075  0.2722 -0.2454
  244MOL0     C32809   6.848   7.052   9.906  0.2464  0.7856  0.2873
  244MOL0     C32810   6.806   7.134  10.008  0.3612 -0.2452 -0.2405
  244MOL0     C32811   6.670   7.136  10.044 -0.1531  0.7893 -0.7109
  244MOL0     C32812   6.577   7.061   9.986  0.1200 -0.0687  0.8040
  244MOL0     O32813   6.453   7.075  10.043  0.2127 -0.2276  0.7209
  244MOL0     C32814   6.346   6.979  10.010 -0.3798  0.2817  0.5664
  244MOL0     C32815   6.224   6.988  10.094  0.5173  0.6709 -0.7015
  244MOL0     C32816   6.109   6.917  10.016 -1.4292 -0.3362 -0.5184
  244MOL0     C32817   5.988   6.899  10.099 -0.3148 -0.7773  0.9182
  244MOL0     C32818   5.872   6.851  10.013 -0.1112  0.5508 -0.6040
  244MOL0     C32819   5.738   6.851  10.089 -0.4864 -0.2429  0.3759
  244MOL0     C32820   5.624   6.789   9.991 -0.7643  0.0327 -0.4592
  244MOL0     C32821   5.506   6.764  10.086 -0.1827  0.5927 -0.2726
  244MOL0     N32822   5.426   6.652  10.028 -0.7141 -0.2398 -0.6367
  244MOL0     C32823   5.395   6.531  10.083  0.3952 -1.0786  0.3267
  244MOL0     C32824   5.287   6.484  10.013 -0.2564  0.6140  0.6558
  244MOL0     C32825   5.199   6.370  10.051  0.1641 -0.1471  0.0976
  244MOL0     C32826   5.053   6.410  10.069 -0.3908  0.7965  0.1785
  244MOL0     C32827   5.034   6.499  10.203 -0.6783 -0.0571  0.1832
  244MOL0     C32828   5.035   6.417  10.336 -1.0273 -0.1463  1.0486
  244MOL0     O32829   4.927   6.319  10.322  0.0997 -0.1544 -0.1139
  244MOL0     C32830   4.799   6.371  10.322 -0.1602  0.7533  0.1848
  244MOL0     C32831   4.705   6.282  10.275  0.0401 -1.0041  0.9519
  244MOL0     C32832   4.571   6.303  10.273  0.1642  0.4666  0.8950
  244MOL0     C32833   4.474   6.208  10.204 -0.1588  0.4758  0.4256
  244MOL0     C32834   4.522   6.428  10.318  0.8575 -0.7863 -0.4732
  244MOL0     C32835   4.384   6.467  10.333  0.2762 -0.0984  0.8012
  244MOL0     O32836   4.282   6.369  10.345 -0.0559  0.1186  0.2521
  244MOL0     C32837   4.155   6.407  10.373 -0.0489 -0.3911 -0.0660
  244MOL0     C32838   4.119   6.500  10.473 -0.8587 -0.1085 -0.7487
  244MOL0     C32839   3.988   6.529  10.505  0.0881  0.1116 -0.6093
  244MOL0     C32840   3.890   6.465  10.436 -0.3627  0.3048  0.6498
  244MOL0     O32841   3.765   6.505  10.448 -0.4255 -0.1198  0.1651
  244MOL0     C32842   3.728   6.637  10.403 -0.3043 -0.3530  0.3198
  244MOL0     C32843   3.685   6.731  10.518  0.3817 -0.3256 -0.2798
  244MOL0     C32844   3.576   6.668  10.616 -0.7573  0.1974 -0.1505
  244MOL0     C32845   3.449   6.667  10.545  0.1870  0.7107  0.4549
  244MOL0     C32846   3.330   6.613  10.624 -1.2834 -0.2374 -0.6281
  244MOL0     C32847   3.321   6.455  10.625 -0.8702 -0.7341  0.7093
  244MOL0     C32848   3.196   6.380  10.675 -0.1592 -0.5480  1.0237
  244MOL0     C32849   3.136   6.432  10.808 -0.9798  0.3673  0.0104
  244MOL0    Cl32850   3.266   6.426  10.929  0.0072  0.2430  0.2673
  244MOL0     C32851   3.923   6.361  10.344  0.5205  0.1103  0.1195
  244MOL0     C32852   4.055   6.336  10.310 -0.4836  0.3844  0.0922
  244MOL0     O32853   4.364   6.588  10.338 -0.3349  0.6602 -0.0139
  244MOL0     C32854   4.618   6.524  10.370  0.1809 -0.2444 -0.3884
  244MOL0     C32855   4.750   6.494  10.364 -0.8359  0.6224 -0.1620
  244MOL0     N32856   5.253   6.569   9.913  0.2159  0.6451 -0.6916
  244MOL0     N32857   5.341   6.669   9.922 -0.0059  0.2661  0.2218
  244MOL0     C32858   6.617   6.972   9.880  0.5870  0.1289  0.5357
  244MOL0     C32859   6.756   6.969   9.854  0.4594 -0.9840  0.3400
  244MOL0     C32860   7.148   7.068   9.692  0.0648 -0.3978 -0.4946
  244MOL0     C32861   7.245   7.059   9.791  0.0602 -0.9656  0.4480
  244MOL0     C32862   7.385   7.033   9.752 -0.0576 -0.3630  0.0281
  244MOL0     C32863   7.419   7.017   9.615 -0.2203 -0.8962 -0.0117
  244MOL0     O32864   7.550   6.981   9.566  0.3674  0.2684  0.3283
  244MOL0     C32865   7.637   6.929   9.663 -0.2536 -0.4117  0.6031
  244MOL0     C32866   7.774   6.883   9.615  0.0288  0.0551 -0.3575
  244MOL0     C32867   7.848   6.993   9.538  0.2501 -0.1151 -0.0774
  244MOL0     C32868   7.894   7.110   9.637 -0.2820 -0.0068 -0.1857
  244MOL0     C32869   8.018   7.166   9.577  0.0331 -0.3666 -0.3728
  244MOL0     C32870   8.117   7.224   9.535 -0.2953  0.2978 -0.3481
  244MOL0     C32871   7.321   7.036   9.516 -0.3313  0.2767 -0.0348
  244MOL0     C32872   7.187   7.065   9.557 -0.1946  0.0722  0.1528
  244MOL0     H32873   6.876   7.202  10.055  0.4764 -1.4737  1.4329
  244MOL0     H32874   6.632   7.204  10.120 -2.5719 -0.7655 -0.4369
  244MOL0     H32875   6.322   6.980   9.903 -0.1482  1.3753  0.5220
  244MOL0     H32876   6.392   6.882  10.032 -0.3920  0.5391  1.7650
  244MOL0     H32877   6.232   6.943  10.193  0.3143  1.3179 -0.3860
  244MOL0     H32878   6.185   7.090  10.097  1.5644  1.0664 -0.4309
  244MOL0     H32879   6.087   6.980   9.929 -0.3479 -1.7798 -1.9128
  244MOL0     H32880   6.155   6.824   9.981  1.0545  1.0840 -1.3184
  244MOL0     H32881   6.006   6.831  10.182  1.4340 -0.0921  1.1467
  244MOL0     H32882   5.964   7.000  10.135 -2.5365 -0.5526 -0.9287
  244MOL0     H32883   5.864   6.925   9.933 -0.3202  1.2935  0.0851
  244MOL0     H32884   5.898   6.755   9.969 -1.4979 -1.7081  3.0061
  244MOL0     H32885   5.764   6.802  10.183  1.2681 -1.4905 -0.7005
  244MOL0     H32886   5.705   6.951  10.116 -3.0061 -0.6934 -0.6984
  244MOL0     H32887   5.593   6.852   9.907 -2.4019 -0.2462 -0.0979
  244MOL0     H32888   5.669   6.703   9.940  0.1016 -0.1146  0.5174
  244MOL0     H32889   5.456   6.861  10.096  0.1752  0.7905 -0.3864
  244MOL0     H32890   5.542   6.722  10.181 -0.9031  1.6587  0.4972
  244MOL0     H32891   5.447   6.479  10.163  1.6431 -2.3865 -1.2699
  244MOL0     H32892   5.222   6.298   9.971  1.2325 -0.3738  0.5893
  244MOL0     H32893   5.236   6.323  10.143 -0.1257  1.3208  0.9952
  244MOL0     H32894   4.988   6.322  10.071  0.2605  0.2965 -0.4814
  244MOL0     H32895   5.027   6.472   9.982 -1.4493 -0.9497 -0.8142
  244MOL0     H32896   4.939   6.552  10.195 -0.4083  0.3561 -0.3341
  244MOL0     H32897   5.110   6.578  10.207 -1.0256  0.2770  0.2131
  244MOL0     H32898   5.017   6.486  10.419 -1.1518 -0.8823  1.6431
  244MOL0     H32899   5.130   6.367  10.357 -2.6422 -4.0261  0.0563
  244MOL0     H32900   4.732   6.180  10.248  0.2061 -1.4924  2.8211
  244MOL0     H32901   4.530   6.132  10.148 -1.0931  0.2745 -0.2520
  244MOL0     H32902   4.399   6.162  10.268 -0.2760 -2.8990 -1.8941
  244MOL0     H32903   4.414   6.268  10.134 -0.5400 -0.1001  0.2544
  244MOL0     H32904   4.188   6.563  10.528 -0.5506  1.2787 -2.6321
  244MOL0     H32905   3.951   6.612  10.563  0.3554  1.1845 -1.9171
  244MOL0     H32906   3.806   6.689  10.349 -3.5019  2.0890 -2.3812
  244MOL0     H32907   3.642   6.638  10.336 -0.9770  0.4803  1.1605
  244MOL0     H32908   3.776   6.757  10.574 -1.2321  1.2857  1.7547
  244MOL0     H32909   3.652   6.823  10.469  1.0220  0.5389  0.8591
  244MOL0     H32910   3.576   6.727  10.709 -2.3716  0.0894 -0.0621
  244MOL0     H32911   3.614   6.567  10.637  0.3081  1.1620  3.1825
  244MOL0     H32912   3.430   6.766  10.503 -1.0803  0.1221 -0.3992
  244MOL0     H32913   3.464   6.598  10.460 -1.1157 -0.4775  1.1454
  244MOL0     H32914   3.240   6.655  10.579 -0.8811  2.8323  1.1999
  244MOL0     H32915   3.327   6.661  10.722  0.2670  0.9418 -1.1140
  244MOL0     H32916   3.338   6.432  10.519  1.4949  0.3773  0.7845
  244MOL0     H32917   3.408   6.417  10.681  0.0705  3.0408  2.0752
  244MOL0     H32918   3.233   6.277  10.687  0.5900 -0.6230 -1.4811
  244MOL0     H32919   3.123   6.374  10.594  2.8184 -4.6379 -1.7836
  244MOL0     H32920   3.051   6.371  10.840 -0.7523  0.3348  0.5660
  244MOL0     H32921   3.108   6.537  10.793  1.7800  1.1684 -0.2309
  244MOL0     H32922   3.841   6.301  10.303  0.1255  0.3587  0.5470
  244MOL0     H32923   4.093   6.263  10.239 -1.3661 -0.8771  0.8814
  244MOL0     H32924   4.592   6.623  10.407  0.8498 -0.6824  1.3254
  244MOL0     H32925   4.813   6.574  10.401 -0.8309  1.4390 -1.8613
  244MOL0     H32926   6.543   6.910   9.830 -0.3352  1.5050  0.1244
  244MOL0     H32927   6.790   6.897   9.780 -1.0992 -0.5902 -0.8043
  244MOL0     H32928   7.230   7.076   9.897  1.1220  1.3185  0.2873
  244MOL0     H32929   7.449   7.008   9.836  0.6733 -0.5425 -0.5737
  244MOL0     H32930   7.663   7.009   9.733  0.0925  0.2476 -0.2607
  244MOL0     H32931   7.587   6.849   9.718  0.5376 -2.1438 -1.0840
  244MOL0     H32932   7.753   6.794   9.554 -3.2425 -0.3040  1.0630
  244MOL0     H32933   7.832   6.852   9.702 -1.9715 -0.1668  0.9680
  244MOL0     H32934   7.776   7.038   9.469  3.0272  3.3080 -1.0518
  244MOL0     H32935   7.933   6.945   9.488  1.2692 -0.3145  1.7687
  244MOL0     H32936   7.917   7.081   9.740 -1.8686 -0.0948  0.1673
  244MOL0     H32937   7.815   7.184   9.642  1.5497  2.0310 -0.1174
  244MOL0     H32938   8.207   7.272   9.501 -1.1713  1.5365 -1.0033
  244MOL0     H32939   7.341   7.011   9.412 -0.0670 -0.6963  0.2382
  244MOL0     H32940   7.107   7.073   9.484 -2.6133 -0.7312  2.5233
  245MOL0     O32941   5.494   5.767   3.508 -0.7038 -0.5247  1.0542
  245MOL0     C32942   5.566   5.674   3.548  0.5767  0.0084  0.7439
  245MOL0     O32943   5.526   5.554   3.600 -0.0332  0.0833 -0.1610
  245MOL0     C32944   5.393   5.532   3.615 -0.1064 -0.5515  0.2669
  245MOL0     C32945   5.337   5.505   3.744 -0.8244 -0.3705  0.1759
  245MOL0     C32946   5.195   5.483   3.753  0.5576 -0.4506  0.3358
  245MOL0     C32947   5.117   5.487   3.633 -1.1543  0.3962 -0.6972
  245MOL0     O32948   4.987   5.456   3.638 -0.1047  0.1410 -0.4419
  245MOL0     C32949   4.915   5.514   3.749  0.9394  0.4339 -0.4897
  245MOL0     C32950   4.774   5.553   3.713 -0.0824  0.3560  0.2592
  245MOL0     C32951   4.686   5.422   3.707  0.5853 -0.0333  0.3703
  245MOL0     C32952   4.553   5.471   3.658 -0.2694 -0.0635 -0.1825
  245MOL0     C32953   4.466   5.350   3.644  0.2408 -0.1781 -0.2250
  245MOL0     C32954   4.325   5.375   3.589  0.1847 -0.4599  0.2199
  245MOL0     C32955   4.224   5.412   3.687  0.1160  0.4019  0.0491
  245MOL0     C32956   4.081   5.399   3.634  0.3390  0.0673 -0.1296
  245MOL0     N32957   3.992   5.451   3.744 -0.0010 -0.7719 -0.3807
  245MOL0     C32958   3.970   5.587   3.761 -0.9406 -0.3391  0.9337
  245MOL0     C32959   3.867   5.600   3.843 -1.2225  0.8594 -0.4253
  245MOL0     C32960   3.801   5.720   3.913 -0.3898 -0.1598 -0.5356
  245MOL0     C32961   3.670   5.764   3.847  0.1030 -0.0302  0.6308
  245MOL0     C32962   3.558   5.658   3.878 -0.5091  0.1610  1.0079
  245MOL0     C32963   3.415   5.694   3.839 -0.0785  0.4730  0.3296
  245MOL0     O32964   3.405   5.706   3.699 -0.1274 -0.1232  0.9693
  245MOL0     C32965   3.280   5.755   3.655  0.7470  0.2931 -0.6675
  245MOL0     C32966   3.189   5.665   3.596 -0.1447  0.4771  0.5322
  245MOL0     C32967   3.061   5.704   3.560  0.3383  0.5633 -0.4200
  245MOL0     C32968   2.977   5.598   3.486  0.0032  0.5560  0.5425
  245MOL0     C32969   3.016   5.835   3.578  0.5627  0.2369  0.7346
  245MOL0     C32970   2.883   5.892   3.531  0.8737 -0.5286 -0.7328
  245MOL0     O32971   2.842   6.000   3.602  0.7155 -0.4208 -0.2602
  245MOL0     C32972   2.743   6.074   3.549 -0.1534 -0.6176  0.2584
  245MOL0     C32973   2.761   6.198   3.495 -0.5153 -0.7508 -0.2978
  245MOL0     C32974   2.654   6.256   3.419 -1.1904 -0.3120  0.4293
  245MOL0     C32975   2.525   6.199   3.415 -1.0007 -0.8561  0.0955
  245MOL0     O32976   2.413   6.252   3.355 -0.1929  0.5264  0.3133
  245MOL0     C32977   2.439   6.367   3.281  0.0639  0.2279 -0.6483
  245MOL0     C32978   2.338   6.362   3.161 -0.8521  0.2984 -0.1269
  245MOL0     C32979   2.194   6.357   3.212 -1.0250 -0.8083  0.4407
  245MOL0     C32980   2.098   6.368   3.091 -0.3557  0.3947  0.5390
  245MOL0     C32981   1.956   6.398   3.137 -0.4471  0.2049  0.0779
  245MOL0     C32982   1.853   6.275   3.142 -0.3168  0.0455 -0.2356
  245MOL0     C32983   1.877   6.165   3.249 -0.3232  0.7330 -0.3742
  245MOL0     C32984   1.758   6.063   3.276  0.8911  0.4283  0.1324
  245MOL0    Cl32985   1.621   6.166   3.351 -0.3802 -0.2022 -0.0213
  245MOL0     C32986   2.510   6.076   3.469  0.9623  0.6758 -0.6772
  245MOL0     C32987   2.612   6.027   3.547 -0.3877  1.3899 -0.3529
  245MOL0     O32988   2.822   5.842   3.440  0.3108 -0.2778 -0.1202
  245MOL0     C32989   3.109   5.925   3.629 -0.3596 -0.1610  0.0354
  245MOL0     C32990   3.234   5.885   3.679 -0.2623 -0.4467 -0.1416
  245MOL0     N32991   3.826   5.477   3.879  0.0427  0.3896 -0.3002
  245MOL0     N32992   3.896   5.381   3.812  0.4115 -0.2462 -0.6730
  245MOL0     C32993   5.180   5.514   3.513  0.6168  0.3511 -0.0369
  245MOL0     C32994   5.309   5.541   3.504  0.1524  0.9218 -0.1986
  245MOL0     C32995   5.709   5.704   3.551 -0.3828  0.7058  0.1227
  245MOL0     C32996   5.794   5.618   3.631  0.3770  0.3145  0.2625
  245MOL0     C32997   5.930   5.638   3.650  0.7402  0.2318 -0.5967
  245MOL0     C32998   5.992   5.743   3.590 -0.1999  0.0599 -0.9027
  245MOL0     O32999   6.122   5.757   3.629 -0.5422  0.1931  0.0524
  245MOL0     C33000   6.203   5.874   3.596 -0.0427 -0.0109  0.8820
  245MOL0     C33001   6.308   5.890   3.703 -0.2276 -0.6060  0.1599
  245MOL0     C33002   6.415   5.989   3.664 -0.3645 -1.1815 -0.5306
  245MOL0     C33003   6.493   5.954   3.538 -0.2924  0.0477 -0.2300
  245MOL0     C33004   6.557   5.823   3.552 -0.2765 -0.1184 -0.2647
  245MOL0     C33005   6.612   5.714   3.560 -0.2977  0.3676  1.0243
  245MOL0     C33006   5.919   5.828   3.501 -0.4036  0.1883 -0.0274
  245MOL0     C33007   5.780   5.808   3.481  0.1576 -0.9715 -0.7810
  245MOL0     H33008   5.392   5.488   3.836 -0.0948 -0.7021 -0.3186
  245MOL0     H33009   5.151   5.456   3.848 -0.2827  2.6166  0.9373
  245MOL0     H33010   4.914   5.435   3.824 -0.5534  2.0445  1.2881
  245MOL0     H33011   4.969   5.601   3.787  1.7592 -0.8303  1.3660
  245MOL0     H33012   4.739   5.613   3.797  0.2336  1.1054 -0.1342
  245MOL0     H33013   4.778   5.602   3.615 -2.6888 -0.6615 -0.4481
  245MOL0     H33014   4.725   5.352   3.632  1.8156 -0.1754  1.1207
  245MOL0     H33015   4.679   5.372   3.804 -2.9268 -2.0488 -0.7054
  245MOL0     H33016   4.507   5.540   3.729 -0.1149  0.4103 -0.5413
  245MOL0     H33017   4.558   5.529   3.566 -1.2947  3.4183  1.7456
  245MOL0     H33018   4.524   5.295   3.569 -0.1786  0.5059 -1.0662
  245MOL0     H33019   4.480   5.284   3.730  1.7048  0.4850  0.0871
  245MOL0     H33020   4.332   5.453   3.513  4.1464  1.4082  2.1707
  245MOL0     H33021   4.285   5.281   3.549 -0.5732  0.0786 -0.3120
  245MOL0     H33022   4.229   5.348   3.777 -0.1651  0.0998 -0.1482
  245MOL0     H33023   4.247   5.516   3.712 -0.2897  0.9010 -1.5898
  245MOL0     H33024   4.053   5.299   3.598  0.2478  0.3146 -0.7533
  245MOL0     H33025   4.072   5.451   3.538  3.3714 -1.3714 -1.3402
  245MOL0     H33026   4.021   5.669   3.712 -2.4944  0.9076  1.3122
  245MOL0     H33027   3.788   5.698   4.019 -1.0077  1.3495 -0.2860
  245MOL0     H33028   3.874   5.801   3.908 -1.8578  1.1363 -1.7073
  245MOL0     H33029   3.686   5.773   3.740  2.8494 -0.0060  0.9732
  245MOL0     H33030   3.630   5.859   3.883 -1.7712 -0.5145 -0.0762
  245MOL0     H33031   3.564   5.628   3.984  0.3330 -3.1106  0.1479
  245MOL0     H33032   3.596   5.571   3.823 -1.8884 -0.3338  0.8142
  245MOL0     H33033   3.386   5.785   3.893 -1.2045 -0.3871  1.2386
  245MOL0     H33034   3.346   5.615   3.872  0.9756 -0.4624  0.3366
  245MOL0     H33035   3.231   5.566   3.579  1.7947  1.4796 -0.9339
  245MOL0     H33036   2.887   5.592   3.547 -0.7516 -0.2751 -0.6061
  245MOL0     H33037   2.948   5.632   3.386  0.4961 -0.7097 -0.0500
  245MOL0     H33038   3.032   5.504   3.478 -0.9382  0.1579 -2.2800
  245MOL0     H33039   2.851   6.257   3.509 -1.5562  0.8145  0.0302
  245MOL0     H33040   2.674   6.359   3.391 -1.1531 -0.6502 -0.8675
  245MOL0     H33041   2.417   6.446   3.353 -2.1258 -1.5815  0.8112
  245MOL0     H33042   2.537   6.381   3.235 -0.5102 -0.9935 -2.3427
  245MOL0     H33043   2.370   6.448   3.101  1.4475  0.2787  0.9425
  245MOL0     H33044   2.360   6.274   3.099  0.1044  1.1401 -1.0264
  245MOL0     H33045   2.177   6.445   3.276  1.4101 -1.0237  1.4856
  245MOL0     H33046   2.182   6.266   3.271 -1.9541 -0.8065  0.2822
  245MOL0     H33047   2.139   6.444   3.024  2.1106 -1.2967  0.0210
  245MOL0     H33048   2.092   6.270   3.043  3.5506  0.9418 -1.4578
  245MOL0     H33049   1.911   6.462   3.060 -0.5281  1.4863  1.1475
  245MOL0     H33050   1.944   6.451   3.232  1.3734 -0.7856  0.9081
  245MOL0     H33051   1.756   6.320   3.167 -0.9322  0.0885 -2.4561
  245MOL0     H33052   1.849   6.227   3.043 -0.3815  2.0445 -1.2475
  245MOL0     H33053   1.910   6.212   3.342 -1.3985  0.0497  0.3858
  245MOL0     H33054   1.951   6.093   3.213  0.6250  2.2016 -1.4741
  245MOL0     H33055   1.790   5.979   3.339 -2.6361 -2.4766 -1.5398
  245MOL0     H33056   1.721   6.017   3.183  1.0168 -1.7410  1.0821
  245MOL0     H33057   2.412   6.031   3.472  1.0505  0.5168 -0.0235
  245MOL0     H33058   2.585   5.933   3.595 -1.5902  2.1917  0.5914
  245MOL0     H33059   3.074   6.028   3.634 -0.2008  0.0337 -2.1371
  245MOL0     H33060   3.305   5.957   3.717  0.6434 -1.2519 -0.2418
  245MOL0     H33061   5.116   5.513   3.426 -0.4477  2.9994  0.5918
  245MOL0     H33062   5.352   5.571   3.409  2.4290 -0.7630  0.2037
  245MOL0     H33063   5.744   5.537   3.684 -0.2264  0.3991 -0.1707
  245MOL0     H33064   5.992   5.575   3.714 -0.1257  0.1837  0.2122
  245MOL0     H33065   6.243   5.865   3.495  0.9612 -0.3112  1.2869
  245MOL0     H33066   6.137   5.960   3.600  0.0256  0.0086  3.6568
  245MOL0     H33067   6.353   5.794   3.728  0.8899 -0.0962  0.1514
  245MOL0     H33068   6.255   5.928   3.791  0.3263  0.0678  0.2120
  245MOL0     H33069   6.482   6.006   3.749  0.6437  2.6174 -1.8845
  245MOL0     H33070   6.370   6.088   3.657 -1.3930 -1.7492 -2.8939
  245MOL0     H33071   6.564   6.036   3.526 -0.9598  0.8093  0.8498
  245MOL0     H33072   6.429   5.940   3.450  2.0531 -1.7750 -1.7723
  245MOL0     H33073   6.668   5.623   3.557 -0.1854  0.4112 -2.6193
  245MOL0     H33074   5.964   5.912   3.449 -0.1768 -0.7784 -1.4209
  245MOL0     H33075   5.723   5.876   3.418  1.0421  0.7740  0.2420
  246MOL0     O33076  10.337   5.852   6.636  0.6848  0.6552 -0.0485
  246MOL0     C33077  10.376   5.836   6.755  0.3055 -0.5572 -0.1712
  246MOL0     O33078  10.313   5.882   6.868 -0.3118  0.0801 -0.0583
  246MOL0     C33079  10.181   5.931   6.857 -0.4785  0.3176 -0.9746
  246MOL0     C33080  10.165   6.057   6.801  0.0525 -0.8691 -0.3600
  246MOL0     C33081  10.035   6.101   6.767  1.1672 -0.1993 -0.1263
  246MOL0     C33082   9.920   6.031   6.808 -0.7517 -0.0871 -0.4874
  246MOL0     O33083   9.802   6.094   6.789  0.4681 -0.0842 -0.1210
  246MOL0     C33084   9.690   6.025   6.842  1.0468 -0.2036  0.6386
  246MOL0     C33085   9.565   6.110   6.829  0.7507 -0.6473 -0.5941
  246MOL0     C33086   9.442   6.032   6.875  0.4735 -0.3107  0.2721
  246MOL0     C33087   9.332   6.118   6.939  0.0175  0.7483 -0.1638
  246MOL0     C33088   9.261   6.192   6.821 -0.5682  0.0026  0.9151
  246MOL0     C33089   9.135   6.263   6.863  0.3549  0.2452 -0.7706
  246MOL0     C33090   9.057   6.311   6.745  0.6731  0.1459  0.1533
  246MOL0     C33091   8.931   6.392   6.804 -0.7415  0.5425  0.0639
  246MOL0     N33092   8.836   6.331   6.897  0.4092 -0.6155  0.4244
  246MOL0     C33093   8.761   6.213   6.871 -0.1465 -0.2554  0.1798
  246MOL0     C33094   8.689   6.208   6.986 -0.9039 -0.5289 -0.3333
  246MOL0     C33095   8.603   6.090   7.026 -0.1636  0.6809  0.1111
  246MOL0     C33096   8.457   6.113   7.007 -0.3597  0.3570  0.7852
  246MOL0     C33097   8.389   6.192   7.120 -0.2486 -0.6022 -0.1100
  246MOL0     C33098   8.252   6.265   7.093  0.0778  0.6831 -0.0206
  246MOL0     O33099   8.161   6.159   7.044  0.0908 -0.5664  0.5493
  246MOL0     C33100   8.044   6.203   6.985 -0.5913  0.0431  0.7979
  246MOL0     C33101   7.978   6.105   6.914  0.1414 -0.0687  0.3233
  246MOL0     C33102   7.864   6.132   6.840 -0.2261 -0.1537 -0.0967
  246MOL0     C33103   7.793   6.025   6.759  0.1330 -0.6939  0.1652
  246MOL0     C33104   7.803   6.264   6.856 -0.2933  0.0665 -0.0894
  246MOL0     C33105   7.670   6.304   6.799  0.0095 -0.1783  0.8487
  246MOL0     O33106   7.588   6.212   6.746  0.0092 -0.3529 -0.0121
  246MOL0     C33107   7.466   6.242   6.707 -0.1517  0.0043 -0.1599
  246MOL0     C33108   7.414   6.163   6.598 -1.2330 -0.1546 -0.2323
  246MOL0     C33109   7.288   6.182   6.553  0.5598  0.5815  0.4292
  246MOL0     C33110   7.196   6.268   6.613 -0.6309  0.8130 -0.6632
  246MOL0     O33111   7.076   6.291   6.556 -0.0552  0.2318  0.5174
  246MOL0     C33112   6.982   6.385   6.612  1.2682  0.5270 -0.6162
  246MOL0     C33113   6.857   6.406   6.524 -0.2368  0.1933 -0.0079
  246MOL0     C33114   6.772   6.276   6.528  0.0356 -0.4729 -0.3217
  246MOL0     C33115   6.626   6.325   6.511 -0.6413 -0.3235 -0.0813
  246MOL0     C33116   6.611   6.393   6.362  0.4124  0.1825  0.3452
  246MOL0     C33117   6.470   6.410   6.322  0.3681 -0.1511 -0.8300
  246MOL0     C33118   6.401   6.282   6.296  0.6961  0.4215  0.2070
  246MOL0     C33119   6.255   6.314   6.324  0.4027 -0.1478 -0.4165
  246MOL0    Cl33120   6.195   6.433   6.198  0.5079  0.1863 -0.0814
  246MOL0     C33121   7.239   6.330   6.724  0.0644 -0.0266 -1.6853
  246MOL0     C33122   7.368   6.324   6.774 -0.0662  0.0090 -0.5431
  246MOL0     O33123   7.653   6.425   6.779  0.0358 -0.5716 -0.4417
  246MOL0     C33124   7.868   6.359   6.933 -0.0240  0.2785 -0.0443
  246MOL0     C33125   7.989   6.332   7.003 -0.2893  1.1686  0.0577
  246MOL0     N33126   8.719   6.312   7.075 -0.4625 -0.3411  0.3088
  246MOL0     N33127   8.809   6.387   7.018 -0.4925  0.0488 -0.2941
  246MOL0     C33128   9.938   5.905   6.869 -0.5977 -0.1656 -0.0600
  246MOL0     C33129  10.069   5.863   6.897 -0.2231  0.2757 -0.7085
  246MOL0     C33130  10.489   5.746   6.779  0.4073 -0.2244 -0.3574
  246MOL0     C33131  10.564   5.762   6.901 -0.5618 -0.3369  0.2657
  246MOL0     C33132  10.683   5.689   6.918  0.5711 -0.0140 -0.6748
  246MOL0     C33133  10.726   5.590   6.835  0.1901  0.5671  0.3064
  246MOL0     O33134  10.820   5.489   6.847 -0.5573 -1.1100  0.6938
  246MOL0     C33135  10.857   5.462   6.984  0.0763 -0.4361 -0.2502
  246MOL0     C33136  10.941   5.338   6.996 -0.3646  0.1484 -0.0848
  246MOL0     C33137  11.058   5.310   6.903  0.4053 -0.3106 -0.7951
  246MOL0     C33138  11.183   5.394   6.917  0.8226 -0.4177  0.1086
  246MOL0     C33139  11.292   5.336   6.998  0.3296 -0.0005 -0.0722
  246MOL0     C33140  11.381   5.301   7.069  0.7077 -0.4616  0.0161
  246MOL0     C33141  10.659   5.581   6.705  0.0571 -0.7335 -0.6666
  246MOL0     C33142  10.544   5.658   6.684 -0.4995 -0.9641  0.3469
  246MOL0     H33143  10.241   6.132   6.785 -0.4426 -0.3270 -0.2431
  246MOL0     H33144  10.037   6.200   6.723  2.8980 -0.3689 -0.4992
  246MOL0     H33145   9.682   5.930   6.789 -0.1484  1.1685 -1.8387
  246MOL0     H33146   9.694   5.998   6.948 -0.4721  0.0514  0.7829
  246MOL0     H33147   9.580   6.203   6.886 -0.3854 -0.5802 -0.3800
  246MOL0     H33148   9.561   6.154   6.729  1.6124 -2.2050 -1.3344
  246MOL0     H33149   9.402   5.972   6.793 -0.7126  3.3278 -2.0555
  246MOL0     H33150   9.481   5.959   6.947 -1.3242 -1.5564  0.0359
  246MOL0     H33151   9.263   6.051   6.991 -0.8207  3.1829  2.0249
  246MOL0     H33152   9.365   6.195   7.009 -0.0194  0.5419  0.0827
  246MOL0     H33153   9.339   6.255   6.778  1.3224 -0.9119  2.8410
  246MOL0     H33154   9.238   6.112   6.749  1.5874  0.3199 -0.2350
  246MOL0     H33155   9.065   6.198   6.917 -1.5850  2.0086 -1.0074
  246MOL0     H33156   9.166   6.340   6.935 -1.5152  1.2291 -0.9614
  246MOL0     H33157   9.107   6.376   6.674 -1.5790  3.5778  1.4127
  246MOL0     H33158   9.016   6.218   6.704 -0.4357  1.1369 -1.0899
  246MOL0     H33159   8.877   6.447   6.726  0.2324  3.2491  1.1658
  246MOL0     H33160   8.982   6.478   6.848  1.0559  0.1837 -1.1893
  246MOL0     H33161   8.751   6.142   6.789  2.0969 -2.0548  1.3551
  246MOL0     H33162   8.637   5.993   6.989 -3.2091 -1.1263  1.6409
  246MOL0     H33163   8.608   6.072   7.134 -0.5451 -0.9847 -0.1260
  246MOL0     H33164   8.408   6.015   7.008 -1.9793  1.0982  2.8736
  246MOL0     H33165   8.453   6.150   6.904  0.4852  0.4475  0.7812
  246MOL0     H33166   8.450   6.279   7.144  1.2103 -1.4606 -0.6051
  246MOL0     H33167   8.381   6.140   7.216  3.7263 -0.5182  0.4345
  246MOL0     H33168   8.265   6.347   7.022  0.5348 -1.3925 -2.5186
  246MOL0     H33169   8.221   6.306   7.189  2.1422 -2.2146  2.0745
  246MOL0     H33170   8.019   6.005   6.902  0.0909 -0.0746  0.1931
  246MOL0     H33171   7.767   6.062   6.660 -2.1813  0.1037  1.0164
  246MOL0     H33172   7.860   5.941   6.741 -1.4286 -2.3394  1.6408
  246MOL0     H33173   7.703   5.987   6.807  0.2775 -2.2596 -0.7261
  246MOL0     H33174   7.480   6.093   6.547 -0.1497  0.4755  0.2762
  246MOL0     H33175   7.255   6.118   6.472  0.0224  2.1158 -0.6171
  246MOL0     H33176   6.946   6.359   6.712  1.7627  1.1081 -0.2810
  246MOL0     H33177   7.043   6.475   6.628 -0.1932  1.1091  2.5338
  246MOL0     H33178   6.803   6.494   6.559 -2.3567 -0.2265 -1.9888
  246MOL0     H33179   6.895   6.423   6.423  0.0232  3.0362  0.4789
  246MOL0     H33180   6.782   6.229   6.626  0.7578  0.0746 -0.1284
  246MOL0     H33181   6.794   6.202   6.450 -0.4768 -1.5973  0.5603
  246MOL0     H33182   6.559   6.241   6.532 -1.7904  0.0450 -2.0677
  246MOL0     H33183   6.614   6.399   6.590  1.3358  2.9150 -2.5538
  246MOL0     H33184   6.669   6.336   6.290  0.2729 -0.6914  0.9115
  246MOL0     H33185   6.657   6.493   6.364 -1.3518  1.0527 -0.5558
  246MOL0     H33186   6.420   6.468   6.401  0.7973  1.6973 -1.8426
  246MOL0     H33187   6.465   6.467   6.228  1.9524 -1.1673 -1.5743
  246MOL0     H33188   6.435   6.195   6.354 -1.1082  0.0490  0.7896
  246MOL0     H33189   6.411   6.248   6.193 -0.7511 -1.6661  0.6826
  246MOL0     H33190   6.238   6.365   6.419  1.2356  0.6573 -0.6887
  246MOL0     H33191   6.197   6.222   6.313  0.3605 -0.0899 -0.7036
  246MOL0     H33192   7.177   6.390   6.789  1.0556 -2.0473  1.4046
  246MOL0     H33193   7.390   6.370   6.869  3.8164  0.3106 -1.4453
  246MOL0     H33194   7.823   6.455   6.958 -2.2365 -1.0357  1.2794
  246MOL0     H33195   8.044   6.398   7.070 -0.0278 -0.5687  1.6547
  246MOL0     H33196   9.856   5.846   6.909 -2.1827  1.7578 -0.3372
  246MOL0     H33197  10.079   5.772   6.956 -2.1066  0.4348 -0.1000
  246MOL0     H33198  10.528   5.832   6.976  2.3553 -0.8161  2.2554
  246MOL0     H33199  10.722   5.708   7.017  1.2104  0.8460 -1.0829
  246MOL0     H33200  10.914   5.550   7.015  0.2171 -0.7834  0.4920
  246MOL0     H33201  10.771   5.450   7.051  1.5382 -1.3660  1.5351
  246MOL0     H33202  10.870   5.254   6.994 -0.1178 -0.0593 -0.1387
  246MOL0     H33203  10.981   5.330   7.098  1.2859  1.4193 -0.5917
  246MOL0     H33204  11.004   5.322   6.808 -2.9236  0.8299  1.0418
  246MOL0     H33205  11.094   5.207   6.910 -2.3311 -1.2382  1.3685
  246MOL0     H33206  11.136   5.487   6.952 -0.7668 -0.9831 -0.4436
  246MOL0     H33207  11.217   5.424   6.817  3.2475  0.0623  1.0151
  246MOL0     H33208  11.458   5.274   7.138 -0.2887 -2.2936  0.4791
  246MOL0     H33209  10.709   5.519   6.631  1.7163 -1.6989  1.1905
  246MOL0     H33210  10.485   5.659   6.593 -0.3250  2.2825  0.1531
  247MOL0     O33211   0.949   5.940   2.959  0.7730  0.7108  0.8534
  247MOL0     C33212   0.986   5.903   2.846  0.1760  0.2019  0.0330
  247MOL0     O33213   0.901   5.841   2.749  0.7744 -0.0511  0.0433
  247MOL0     C33214   0.768   5.815   2.766  0.3179 -0.2202 -0.5535
  247MOL0     C33215   0.699   5.772   2.648  0.4634  0.3107 -0.5291
  247MOL0     C33216   0.559   5.731   2.653 -0.3467 -0.6361 -0.7234
  247MOL0     C33217   0.490   5.762   2.776 -0.0276 -0.9321  0.1179
  247MOL0     O33218   0.356   5.750   2.767 -0.1868  0.3986 -0.1423
  247MOL0     C33219   0.274   5.784   2.881  0.2517 -0.1178  0.4955
  247MOL0     C33220   0.130   5.745   2.854  0.4588  0.4453  0.2313
  247MOL0     C33221   0.089   5.794   2.714  0.6543  0.2770  0.1468
  247MOL0     C33222  -0.065   5.821   2.709 -0.1135  0.3058 -0.5840
  247MOL0     C33223  -0.093   5.960   2.762  0.2117  0.1183 -0.0531
  247MOL0     C33224  -0.244   5.972   2.792  0.4413 -1.0092 -0.4568
  247MOL0     C33225  -0.255   6.083   2.887  0.0472 -0.7957 -0.7578
  247MOL0     C33226  -0.399   6.109   2.938 -0.1808 -0.5192 -0.2018
  247MOL0     N33227  -0.476   6.175   2.834  0.1916 -0.0580 -0.6099
  247MOL0     C33228  -0.480   6.311   2.803 -0.9170  0.6326 -0.3811
  247MOL0     C33229  -0.580   6.320   2.710  0.4658 -0.4619 -0.0686
  247MOL0     C33230  -0.616   6.443   2.637  0.5238  0.2021  0.4527
  247MOL0     C33231  -0.763   6.450   2.588  0.9632  0.0025  0.2921
  247MOL0     C33232  -0.860   6.462   2.710 -0.2823 -0.3270 -0.3170
  247MOL0     C33233  -0.996   6.526   2.686  0.0121  0.0363  0.4229
  247MOL0     O33234  -1.078   6.453   2.596 -0.3227  0.2587 -0.4000
  247MOL0     C33235  -1.189   6.515   2.549 -1.0744  0.2100  0.5284
  247MOL0     C33236  -1.257   6.627   2.600 -0.1312  0.2267  0.1055
  247MOL0     C33237  -1.381   6.667   2.553  0.5689  0.8206  0.3592
  247MOL0     C33238  -1.442   6.797   2.595 -0.0494  0.8429 -0.4315
  247MOL0     C33239  -1.442   6.591   2.449  0.0601  0.3828 -0.1806
  247MOL0     C33240  -1.579   6.611   2.394  0.2108 -0.0600 -0.1507
  247MOL0     O33241  -1.667   6.663   2.480 -0.1039 -0.6206  0.1695
  247MOL0     C33242  -1.805   6.633   2.464 -0.0573 -0.1062 -0.3055
  247MOL0     C33243  -1.856   6.507   2.421 -0.6716 -0.4019  0.1808
  247MOL0     C33244  -1.992   6.483   2.413 -0.1079  0.0878  1.3123
  247MOL0     C33245  -2.082   6.582   2.451  0.7206  0.0837  0.3893
  247MOL0     O33246  -2.213   6.539   2.436 -0.0402 -0.2893 -0.0626
  247MOL0     C33247  -2.300   6.641   2.394  0.3599 -0.5020 -0.3358
  247MOL0     C33248  -2.431   6.563   2.354 -0.9326 -0.0219 -0.1463
  247MOL0     C33249  -2.549   6.647   2.367 -0.1909 -0.0539  0.4486
  247MOL0     C33250  -2.676   6.593   2.308 -0.4415 -0.0628  0.2371
  247MOL0     C33251  -2.793   6.682   2.300 -0.2813  0.7725 -0.0526
  247MOL0     C33252  -2.891   6.619   2.204  1.0075  0.5557 -0.6342
  247MOL0     C33253  -3.031   6.678   2.198 -0.8438  0.4237 -0.5015
  247MOL0     C33254  -3.138   6.567   2.189 -0.3947  0.0222 -0.0152
  247MOL0    Cl33255  -3.130   6.490   2.029  0.3302  0.1092 -0.4192
  247MOL0     C33256  -2.035   6.702   2.501  0.4772 -0.0623  0.4197
  247MOL0     C33257  -1.894   6.725   2.510 -0.1975  0.6762  0.2045
  247MOL0     O33258  -1.604   6.580   2.280  0.5025 -0.3799 -0.2333
  247MOL0     C33259  -1.373   6.479   2.401 -0.4425  0.3198 -0.0156
  247MOL0     C33260  -1.250   6.439   2.444  1.0432 -0.1754 -0.9938
  247MOL0     N33261  -0.635   6.196   2.693  0.2764 -0.7610 -0.0018
  247MOL0     N33262  -0.575   6.109   2.765  0.0587 -0.2331  0.0551
  247MOL0     C33263   0.559   5.808   2.894 -0.5302 -0.0859  0.3562
  247MOL0     C33264   0.699   5.821   2.888 -0.1863  0.2902 -0.0055
  247MOL0     C33265   1.130   5.917   2.822  0.6258 -0.3630  0.2180
  247MOL0     C33266   1.218   5.964   2.914  0.2051 -0.7636 -0.2002
  247MOL0     C33267   1.357   5.963   2.899  0.2991  0.2584 -0.8215
  247MOL0     C33268   1.416   5.908   2.788 -0.3277  0.1054 -0.6142
  247MOL0     O33269   1.552   5.929   2.785 -0.1750 -0.1128  0.6860
  247MOL0     C33270   1.615   5.864   2.666  0.4182  0.4878  0.4166
  247MOL0     C33271   1.757   5.911   2.672  0.7559  0.8674 -1.2743
  247MOL0     C33272   1.783   6.062   2.696 -1.0316 -0.1311  0.0853
  247MOL0     C33273   1.931   6.096   2.688  0.6122  0.2894  0.8756
  247MOL0     C33274   1.979   6.051   2.815  0.2106 -0.2662  0.2346
  247MOL0     C33275   2.033   6.029   2.920 -0.2209 -1.1084  0.1651
  247MOL0     C33276   1.335   5.842   2.698  1.1533 -0.3733 -0.1556
  247MOL0     C33277   1.193   5.835   2.718  0.8825 -0.4922 -0.3451
  247MOL0     H33278   0.762   5.751   2.563  1.2605  2.3583 -0.5121
  247MOL0     H33279   0.508   5.696   2.564 -0.1575 -2.6374 -0.0932
  247MOL0     H33280   0.310   5.729   2.968  1.0138 -4.0792 -2.0915
  247MOL0     H33281   0.278   5.892   2.901  0.0776 -0.1115  0.4990
  247MOL0     H33282   0.125   5.636   2.856 -1.7931  0.4805 -0.1264
  247MOL0     H33283   0.068   5.786   2.935  0.6934 -1.1525  1.2521
  247MOL0     H33284   0.151   5.879   2.686  1.1712 -0.8626 -2.3730
  247MOL0     H33285   0.116   5.715   2.644  2.3301  0.8976  0.0555
  247MOL0     H33286  -0.103   5.801   2.609  0.2753 -1.2926 -0.4352
  247MOL0     H33287  -0.119   5.752   2.775 -0.2359  1.1971  0.2849
  247MOL0     H33288  -0.026   5.965   2.848  1.7975 -1.1359 -1.1552
  247MOL0     H33289  -0.056   6.039   2.696  0.3630  2.3030  2.5120
  247MOL0     H33290  -0.305   5.979   2.701  0.4363 -2.6340 -0.6100
  247MOL0     H33291  -0.273   5.874   2.833  0.9830 -2.0438 -2.4213
  247MOL0     H33292  -0.197   6.062   2.978 -1.3442 -1.6392 -0.0303
  247MOL0     H33293  -0.207   6.173   2.847 -0.7791 -0.5262 -1.1621
  247MOL0     H33294  -0.392   6.187   3.015 -0.5797 -0.1694 -0.5138
  247MOL0     H33295  -0.449   6.022   2.983 -0.4615  0.0412  0.6055
  247MOL0     H33296  -0.414   6.388   2.843 -0.6403  1.4958 -2.3918
  247MOL0     H33297  -0.595   6.532   2.697  1.4261 -0.1634  0.6953
  247MOL0     H33298  -0.552   6.454   2.549 -1.8564 -2.9320 -1.9211
  247MOL0     H33299  -0.788   6.355   2.540  1.2589 -1.1575  2.2987
  247MOL0     H33300  -0.783   6.534   2.522 -2.1997 -1.8235 -1.3086
  247MOL0     H33301  -0.812   6.515   2.792 -0.0164  0.9251 -1.2547
  247MOL0     H33302  -0.877   6.358   2.741 -1.6778  0.1364  0.5573
  247MOL0     H33303  -0.975   6.623   2.641  2.3759 -0.8099 -0.4781
  247MOL0     H33304  -1.052   6.542   2.779 -1.0749  1.0346 -0.3862
  247MOL0     H33305  -1.202   6.680   2.678 -0.1200 -0.1458  0.3560
  247MOL0     H33306  -1.519   6.792   2.672 -0.8936 -0.1701 -1.3032
  247MOL0     H33307  -1.359   6.868   2.610 -0.7024  1.1695  1.9703
  247MOL0     H33308  -1.496   6.832   2.507  1.9906  0.7506 -1.8095
  247MOL0     H33309  -1.789   6.427   2.390  0.5619  0.2441  1.1163
  247MOL0     H33310  -2.021   6.387   2.371  2.1071 -0.9932  2.0408
  247MOL0     H33311  -2.338   6.703   2.476  0.3745 -1.4296  0.3916
  247MOL0     H33312  -2.265   6.706   2.314  0.5681  0.1689  0.2909
  247MOL0     H33313  -2.418   6.516   2.256 -0.6667 -1.5670  0.6011
  247MOL0     H33314  -2.437   6.482   2.428  2.4636 -1.9471 -1.7339
  247MOL0     H33315  -2.523   6.740   2.315  0.5112 -0.3019  0.3372
  247MOL0     H33316  -2.561   6.677   2.471  0.0867 -0.5950  0.6428
  247MOL0     H33317  -2.654   6.561   2.205 -1.3378 -0.4903  0.1741
  247MOL0     H33318  -2.700   6.499   2.358  1.1901  0.0756  1.3557
  247MOL0     H33319  -2.765   6.783   2.271  2.6496  0.7158  2.1166
  247MOL0     H33320  -2.837   6.682   2.400  0.5015  2.1505  0.3197
  247MOL0     H33321  -2.858   6.607   2.100 -1.6166  3.1239 -1.8901
  247MOL0     H33322  -2.903   6.514   2.232  0.4058  0.5738 -0.8191
  247MOL0     H33323  -3.035   6.748   2.114 -1.4983  0.9830 -0.0121
  247MOL0     H33324  -3.049   6.736   2.288  0.0117  1.0020 -0.6896
  247MOL0     H33325  -3.236   6.615   2.201  0.0033  1.6302 -2.3725
  247MOL0     H33326  -3.121   6.484   2.257 -2.8669 -0.6953 -0.1641
  247MOL0     H33327  -2.098   6.787   2.525  1.0905  1.3161 -2.3474
  247MOL0     H33328  -1.863   6.820   2.552  0.0188  0.9654 -0.5878
  247MOL0     H33329  -1.414   6.412   2.325 -1.0392 -0.7829  1.2273
  247MOL0     H33330  -1.212   6.352   2.392 -0.1857 -2.6812  1.9950
  247MOL0     H33331   0.510   5.817   2.991  1.0155  1.6671  1.0443
  247MOL0     H33332   0.751   5.845   2.980  2.7099  2.4760 -2.0162
  247MOL0     H33333   1.181   6.014   3.003  0.5918 -2.4730  0.9691
  247MOL0     H33334   1.415   6.017   2.973  0.6870  1.4850 -1.9761
  247MOL0     H33335   1.592   5.758   2.668 -1.2907  0.8332  2.1545
  247MOL0     H33336   1.572   5.907   2.575  1.5414  3.7869  1.2883
  247MOL0     H33337   1.798   5.868   2.580 -0.9851 -2.9632 -0.4420
  247MOL0     H33338   1.803   5.854   2.754  1.6651 -1.5011 -3.3016
  247MOL0     H33339   1.750   6.088   2.797  0.7029 -0.9302  0.9061
  247MOL0     H33340   1.731   6.124   2.623  0.4047  0.5052 -0.4114
  247MOL0     H33341   1.949   6.202   2.667  3.0229 -0.3570 -0.8621
  247MOL0     H33342   1.979   6.038   2.607  1.3052  0.6502  1.0170
  247MOL0     H33343   2.089   6.000   3.006  0.2369  0.6405  0.4910
  247MOL0     H33344   1.368   5.769   2.624 -0.2262 -0.1655 -1.0063
  247MOL0     H33345   1.128   5.781   2.649 -1.1389 -0.2722  1.2924
  248MOL0     O33346   7.159   5.562   9.863  0.1108  0.4242 -0.1756
  248MOL0     C33347   7.241   5.647   9.837 -0.1208  0.8931 -0.1602
  248MOL0     O33348   7.212   5.781   9.794 -0.7827  0.6693 -0.6734
  248MOL0     C33349   7.081   5.800   9.788 -0.4037 -0.0429  0.5152
  248MOL0     C33350   7.006   5.863   9.890  0.1433 -0.1177  0.1265
  248MOL0     C33351   6.870   5.866   9.882  0.7833  0.1639  0.4277
  248MOL0     C33352   6.802   5.822   9.767 -0.5878 -0.3570 -0.1098
  248MOL0     O33353   6.669   5.819   9.769  0.4414  0.4130  0.2137
  248MOL0     C33354   6.601   5.721   9.691  0.1532 -0.5690 -0.3416
  248MOL0     C33355   6.456   5.733   9.723 -0.5403 -0.1032  0.6598
  248MOL0     C33356   6.381   5.715   9.586  0.0525  0.5146 -0.7926
  248MOL0     C33357   6.235   5.687   9.592  0.5274  1.0136  0.3864
  248MOL0     C33358   6.166   5.685   9.443  0.2927 -0.1198  0.4608
  248MOL0     C33359   6.204   5.557   9.355  0.3063  0.2134 -0.7148
  248MOL0     C33360   6.211   5.584   9.201 -0.1853 -0.6963 -0.2709
  248MOL0     C33361   6.099   5.682   9.154 -0.0890 -0.2494  0.5019
  248MOL0     N33362   5.961   5.619   9.170  0.4974  0.3034  0.3367
  248MOL0     C33363   5.907   5.515   9.092 -0.5201  0.1105 -0.5419
  248MOL0     C33364   5.778   5.507   9.118 -0.1882  0.0267 -0.7478
  248MOL0     C33365   5.678   5.427   9.047 -0.0391  0.0554  0.4038
  248MOL0     C33366   5.547   5.423   9.132  0.6317 -0.9545  0.1192
  248MOL0     C33367   5.436   5.349   9.060 -0.3741 -0.2424  0.4808
  248MOL0     C33368   5.307   5.320   9.139 -0.2937  0.2639 -0.9144
  248MOL0     O33369   5.204   5.241   9.079  0.3364  0.3002  0.3302
  248MOL0     C33370   5.082   5.229   9.136 -0.0729 -0.4053 -1.3521
  248MOL0     C33371   5.058   5.249   9.277  0.8849 -0.0664  0.0500
  248MOL0     C33372   4.928   5.222   9.335 -0.2148 -0.1665 -0.3374
  248MOL0     C33373   4.923   5.240   9.487 -0.1245  0.6806  0.6073
  248MOL0     C33374   4.825   5.179   9.258  0.0763 -0.0141  0.0535
  248MOL0     C33375   4.696   5.149   9.323  0.9706 -0.2831  0.2644
  248MOL0     O33376   4.648   5.200   9.441  0.3612 -0.0743 -0.0640
  248MOL0     C33377   4.519   5.189   9.487  0.3420 -1.1532 -0.0950
  248MOL0     C33378   4.476   5.284   9.580 -0.5046  1.1883 -0.1492
  248MOL0     C33379   4.355   5.264   9.647 -1.3953 -0.2885  0.4533
  248MOL0     C33380   4.271   5.158   9.612 -0.0291  0.8606  0.5995
  248MOL0     O33381   4.154   5.149   9.669  0.5257 -0.4446 -0.2621
  248MOL0     C33382   4.133   5.190   9.808 -0.5318  0.2912  0.0941
  248MOL0     C33383   4.003   5.149   9.873 -0.9794 -0.1684 -0.2266
  248MOL0     C33384   3.880   5.243   9.821 -0.0348 -0.1180  0.3851
  248MOL0     C33385   3.741   5.181   9.851 -0.1276  0.0379  0.2716
  248MOL0     C33386   3.625   5.278   9.833  0.0653  0.0930 -0.2342
  248MOL0     C33387   3.492   5.223   9.879  0.3738  0.5079  0.2979
  248MOL0     C33388   3.450   5.100   9.804  0.4383  0.3296  0.3721
  248MOL0     C33389   3.323   5.113   9.723  0.0937 -0.3295  0.2039
  248MOL0    Cl33390   3.198   5.189   9.815 -0.4145 -0.1437 -0.0484
  248MOL0     C33391   4.311   5.069   9.516 -0.9932 -0.1636 -0.3501
  248MOL0     C33392   4.443   5.071   9.468 -1.0202 -0.5680 -0.1490
  248MOL0     O33393   4.629   5.075   9.249  0.5391  0.7858  0.5788
  248MOL0     C33394   4.855   5.152   9.121 -0.6170 -0.1754 -0.3401
  248MOL0     C33395   4.973   5.178   9.062 -0.0357 -0.0811  0.0132
  248MOL0     N33396   5.755   5.604   9.215  0.2940  0.2822  0.0126
  248MOL0     N33397   5.861   5.676   9.244 -0.3670 -0.0227 -0.5796
  248MOL0     C33398   6.881   5.774   9.661 -0.2818 -0.4207 -0.0001
  248MOL0     C33399   7.017   5.764   9.667  0.3182 -0.3916  0.2780
  248MOL0     C33400   7.383   5.615   9.847 -0.4435 -0.3275  0.7910
  248MOL0     C33401   7.425   5.483   9.820 -0.1395  0.2772 -0.5131
  248MOL0     C33402   7.568   5.457   9.825  0.1434  0.5103 -0.3430
  248MOL0     C33403   7.661   5.551   9.873  0.3866 -0.5078 -0.2577
  248MOL0     O33404   7.796   5.516   9.874 -0.1838 -0.0108 -0.1921
  248MOL0     C33405   7.893   5.616   9.903 -0.3847  0.3035  0.5619
  248MOL0     C33406   8.035   5.565   9.936  0.4634  0.6582 -0.4469
  248MOL0     C33407   8.044   5.481  10.066 -0.2599 -0.2391  0.4202
  248MOL0     C33408   8.183   5.414  10.100  0.2283 -0.1501 -0.4228
  248MOL0     C33409   8.282   5.522  10.142  0.5014  0.1073  0.9752
  248MOL0     C33410   8.371   5.608  10.160 -0.6933  0.5749 -0.1996
  248MOL0     C33411   7.612   5.677   9.904  0.1175  0.4225  0.2736
  248MOL0     C33412   7.480   5.716   9.885  0.2754  1.1481 -0.3539
  248MOL0     H33413   7.053   5.885   9.985 -1.0126 -6.3329  2.6165
  248MOL0     H33414   6.818   5.899   9.971  0.0894 -2.3542  1.0256
  248MOL0     H33415   6.620   5.759   9.590  2.4800  2.3302  1.0237
  248MOL0     H33416   6.633   5.616   9.691 -0.6127 -0.8063 -0.7423
  248MOL0     H33417   6.434   5.664   9.805 -1.4646  0.2385  0.7096
  248MOL0     H33418   6.432   5.833   9.759 -0.0613  0.9569 -1.7496
  248MOL0     H33419   6.406   5.803   9.526  2.9216  0.3725  0.0550
  248MOL0     H33420   6.426   5.630   9.534 -1.9131 -0.9595 -0.1722
  248MOL0     H33421   6.207   5.593   9.642 -0.7964  2.4072  2.4137
  248MOL0     H33422   6.184   5.758   9.658  0.3522  1.0903  0.1718
  248MOL0     H33423   6.057   5.697   9.448  0.1831  0.4599 -2.0645
  248MOL0     H33424   6.208   5.769   9.387  1.4684 -1.0195 -0.0482
  248MOL0     H33425   6.306   5.526   9.380  1.1801  3.8547  0.7507
  248MOL0     H33426   6.144   5.469   9.380  0.0511  1.1093  2.1350
  248MOL0     H33427   6.310   5.625   9.180 -0.7105 -0.2992 -2.1391
  248MOL0     H33428   6.199   5.486   9.154 -0.0373 -1.4008  1.0870
  248MOL0     H33429   6.112   5.715   9.051  0.4930  1.9413  1.2301
  248MOL0     H33430   6.102   5.781   9.201 -0.4476 -0.0944  0.2025
  248MOL0     H33431   5.971   5.461   9.023 -0.0502  0.2079 -0.1876
  248MOL0     H33432   5.656   5.469   8.948 -1.4118 -0.9083  0.2796
  248MOL0     H33433   5.717   5.325   9.041  0.9597  0.1282  3.7148
  248MOL0     H33434   5.514   5.524   9.159 -0.3721 -0.6474 -2.0293
  248MOL0     H33435   5.580   5.367   9.219 -0.2556 -0.4456  0.8086
  248MOL0     H33436   5.490   5.258   9.035 -0.1089  0.2516 -0.8033
  248MOL0     H33437   5.417   5.403   8.967  0.1042  0.0428  0.5455
  248MOL0     H33438   5.273   5.418   9.176  0.3949  0.8415 -1.7720
  248MOL0     H33439   5.336   5.268   9.231 -0.6481 -2.1485 -2.0988
  248MOL0     H33440   5.135   5.274   9.349 -0.6548  1.1088  1.3471
  248MOL0     H33441   5.024   5.253   9.526  1.1931  0.0274 -2.3044
  248MOL0     H33442   4.857   5.320   9.521 -0.5293  0.4471  0.3868
  248MOL0     H33443   4.883   5.151   9.537 -1.5589  1.4975  0.9692
  248MOL0     H33444   4.534   5.370   9.611  1.3255  0.9946 -2.7284
  248MOL0     H33445   4.323   5.325   9.731 -0.1884  0.0859  0.6616
  248MOL0     H33446   4.224   5.155   9.858 -0.7767  2.3215  2.1289
  248MOL0     H33447   4.139   5.299   9.807  2.7327  0.1831 -0.3602
  248MOL0     H33448   3.975   5.048   9.843 -1.7258  0.1515 -0.6641
  248MOL0     H33449   4.019   5.156   9.981  0.4657 -1.3333 -0.3414
  248MOL0     H33450   3.892   5.263   9.714  0.8922  0.5125  0.5963
  248MOL0     H33451   3.897   5.340   9.868  2.5829 -0.6290  0.6535
  248MOL0     H33452   3.732   5.095   9.784  0.9242  1.7042 -2.1765
  248MOL0     H33453   3.735   5.143   9.953  0.6239 -0.6703  0.0576
  248MOL0     H33454   3.614   5.295   9.725 -0.2547 -2.0739 -0.5871
  248MOL0     H33455   3.636   5.365   9.898 -3.2542 -0.8371  1.8369
  248MOL0     H33456   3.515   5.202   9.984  0.6979 -2.2250 -0.2558
  248MOL0     H33457   3.414   5.300   9.872 -0.2382 -0.0509  0.8407
  248MOL0     H33458   3.422   5.033   9.887  0.7836  2.0033  1.9106
  248MOL0     H33459   3.534   5.062   9.746 -0.3272  0.6985 -1.0073
  248MOL0     H33460   3.293   5.015   9.688  0.4755  0.1879 -1.6723
  248MOL0     H33461   3.356   5.168   9.634 -2.1715 -0.2675 -0.6430
  248MOL0     H33462   4.241   4.992   9.485 -0.8659 -0.3058 -0.2846
  248MOL0     H33463   4.474   4.989   9.404  0.8386 -0.3877  0.4529
  248MOL0     H33464   4.780   5.117   9.050 -0.5323 -1.4150  0.1502
  248MOL0     H33465   4.974   5.168   8.954 -1.1132  0.2814 -0.0433
  248MOL0     H33466   6.838   5.741   9.567 -3.1827  1.0342  0.6943
  248MOL0     H33467   7.075   5.713   9.592 -0.4720 -1.5231  0.4056
  248MOL0     H33468   7.362   5.411   9.770 -1.2484 -0.0674  1.2887
  248MOL0     H33469   7.589   5.352   9.807 -3.9449 -1.0907  2.6092
  248MOL0     H33470   7.898   5.676   9.812  0.6353 -1.6654 -0.7514
  248MOL0     H33471   7.863   5.675   9.990 -0.4817 -0.8981  1.3676
  248MOL0     H33472   8.115   5.639   9.938  1.9350 -0.8597  1.5207
  248MOL0     H33473   8.060   5.496   9.854 -1.5671 -1.3993  0.5489
  248MOL0     H33474   7.979   5.393  10.063 -1.1667  0.3524  1.7521
  248MOL0     H33475   8.006   5.533  10.154 -0.9680 -2.7773  1.7128
  248MOL0     H33476   8.212   5.352  10.014  1.1706  0.5234 -0.6055
  248MOL0     H33477   8.171   5.346  10.185  0.2350  1.5237  0.9744
  248MOL0     H33478   8.429   5.698  10.161  1.2603 -0.5555 -2.1267
  248MOL0     H33479   7.683   5.751   9.938  1.4941 -0.6123 -0.2184
  248MOL0     H33480   7.449   5.816   9.916 -0.3405  0.3349  1.8223
  249MOL0     O33481   3.998   0.972   2.776  0.2717 -0.2456  0.8925
  249MOL0     C33482   4.085   1.018   2.699  0.8830  0.0271  0.6082
  249MOL0     O33483   4.051   1.077   2.581 -0.8528 -0.3946 -0.6286
  249MOL0     C33484   3.917   1.067   2.550 -0.2353  0.1539  0.4765
  249MOL0     C33485   3.878   1.010   2.432  0.2429 -0.2954  0.6260
  249MOL0     C33486   3.740   0.991   2.394 -0.6065  0.0518 -0.1315
  249MOL0     C33487   3.645   1.050   2.473  0.5268 -0.2220  0.5127
  249MOL0     O33488   3.516   1.039   2.435  0.4172 -0.1388 -0.2206
  249MOL0     C33489   3.422   1.112   2.519 -0.3123  0.1082  0.5439
  249MOL0     C33490   3.282   1.067   2.471  0.5742 -0.4221  0.4350
  249MOL0     C33491   3.176   1.140   2.551 -0.3858 -0.1024  0.3658
  249MOL0     C33492   3.034   1.115   2.489 -0.0904 -0.3371  0.4657
  249MOL0     C33493   3.010   1.208   2.366  0.7410  0.4643 -0.1910
  249MOL0     C33494   2.883   1.180   2.301  0.3724 -0.1156 -0.8774
  249MOL0     C33495   2.751   1.218   2.384 -0.1540  0.2394  1.4516
  249MOL0     C33496   2.644   1.147   2.299 -0.1457 -0.0232 -0.5328
  249MOL0     N33497   2.515   1.191   2.353  0.1928  0.3863  0.0926
  249MOL0     C33498   2.441   1.288   2.298  0.5728 -0.2412  0.0744
  249MOL0     C33499   2.324   1.296   2.370  0.3424  0.4702  0.0908
  249MOL0     C33500   2.208   1.387   2.364  0.8685 -0.5091  0.3534
  249MOL0     C33501   2.102   1.336   2.275  0.7382  0.7240 -0.8204
  249MOL0     C33502   1.962   1.394   2.308 -1.1985  0.3190  0.1470
  249MOL0     C33503   1.853   1.349   2.214  0.8513 -0.0876 -0.4149
  249MOL0     O33504   1.847   1.204   2.223  0.0050 -0.1940  0.1928
  249MOL0     C33505   1.727   1.138   2.203 -0.2552 -0.3602 -0.4625
  249MOL0     C33506   1.607   1.199   2.162  0.6672 -0.0273 -0.5006
  249MOL0     C33507   1.486   1.128   2.146 -0.0749  0.1411 -0.0863
  249MOL0     C33508   1.371   1.203   2.087  0.0352  0.0388 -0.5134
  249MOL0     C33509   1.498   0.981   2.163 -0.4450 -0.2306 -0.4929
  249MOL0     C33510   1.394   0.883   2.129  0.5338  0.0613  0.2837
  249MOL0     O33511   1.401   0.759   2.178 -0.8940  0.1807 -0.3992
  249MOL0     C33512   1.295   0.674   2.187  0.6610  0.4414  1.0925
  249MOL0     C33513   1.174   0.718   2.248  0.1416  0.8448  0.6647
  249MOL0     C33514   1.064   0.632   2.247  0.2260 -0.2443  0.2883
  249MOL0     C33515   1.070   0.503   2.198 -0.6198 -0.8756 -0.5588
  249MOL0     O33516   0.951   0.430   2.196  0.0417  0.2230 -0.4177
  249MOL0     C33517   0.967   0.286   2.228  0.3997  0.7976 -0.4438
  249MOL0     C33518   0.845   0.250   2.307 -0.4285 -0.0341 -0.9771
  249MOL0     C33519   0.861   0.114   2.369 -0.3515  0.3184  0.5716
  249MOL0     C33520   0.712   0.064   2.400 -0.2939  0.0155  0.6256
  249MOL0     C33521   0.702  -0.068   2.478  0.8171  0.8885  0.5406
  249MOL0     C33522   0.707  -0.051   2.627 -0.0988  0.6954  0.1495
  249MOL0     C33523   0.679  -0.188   2.688 -0.0799 -0.2493  0.0066
  249MOL0     C33524   0.626  -0.169   2.833  0.8851 -0.2023 -0.6317
  249MOL0    Cl33525   0.455  -0.135   2.838  0.4129  0.1880 -0.1743
  249MOL0     C33526   1.195   0.456   2.146 -0.1315  0.7528 -0.1957
  249MOL0     C33527   1.303   0.547   2.131  0.6387  0.0823  0.4603
  249MOL0     O33528   1.302   0.923   2.056  0.1674 -0.2811  0.2191
  249MOL0     C33529   1.624   0.917   2.202 -0.4879  0.2446 -0.4090
  249MOL0     C33530   1.729   1.001   2.230 -0.6317  0.6310 -0.8725
  249MOL0     N33531   2.331   1.188   2.461  0.7101 -0.0243  0.0759
  249MOL0     N33532   2.446   1.134   2.451  0.6616  0.2425 -0.2405
  249MOL0     C33533   3.683   1.121   2.591 -0.4007 -0.8601 -0.5485
  249MOL0     C33534   3.813   1.122   2.630  0.0101 -0.3737 -0.4039
  249MOL0     C33535   4.221   1.034   2.757 -1.2642  0.9285  0.0580
  249MOL0     C33536   4.262   0.942   2.854 -0.8265  0.1068  0.0327
  249MOL0     C33537   4.390   0.955   2.910 -0.8674 -0.3176  0.2864
  249MOL0     C33538   4.471   1.068   2.886  0.8316  0.1816  0.4613
  249MOL0     O33539   4.592   1.097   2.949 -0.2271  0.3620 -0.2049
  249MOL0     C33540   4.579   1.118   3.090 -0.2724  0.5756  0.3718
  249MOL0     C33541   4.710   1.060   3.141 -0.0295  0.7172 -0.5659
  249MOL0     C33542   4.827   1.155   3.112  0.2973  0.7684 -0.0516
  249MOL0     C33543   4.963   1.084   3.116 -0.1852  0.2353 -0.2384
  249MOL0     C33544   5.083   1.162   3.078 -0.2545  0.2003 -0.6206
  249MOL0     C33545   5.187   1.218   3.046  0.2960 -0.9949  0.1012
  249MOL0     C33546   4.424   1.158   2.792  0.1767  0.2405 -0.3320
  249MOL0     C33547   4.311   1.139   2.720  1.0094 -0.8608 -0.0958
  249MOL0     H33548   3.948   0.969   2.360 -2.6868 -0.4264 -2.4419
  249MOL0     H33549   3.706   0.939   2.305 -1.4795 -1.1449  0.8590
  249MOL0     H33550   3.427   1.077   2.623 -2.2406  2.2607  1.4453
  249MOL0     H33551   3.438   1.219   2.508 -0.8144 -0.0212 -2.3672
  249MOL0     H33552   3.263   1.099   2.368 -2.4761  2.6048  1.7625
  249MOL0     H33553   3.271   0.958   2.468 -1.0519 -0.2830  0.3750
  249MOL0     H33554   3.173   1.096   2.651  1.1591  1.4278  1.1413
  249MOL0     H33555   3.198   1.245   2.573 -0.5861 -0.4604  2.4370
  249MOL0     H33556   3.022   1.007   2.473 -0.1164 -0.2268 -0.3100
  249MOL0     H33557   2.959   1.142   2.564 -1.2405  1.6149 -1.2826
  249MOL0     H33558   2.999   1.313   2.394 -2.0302  0.8144 -2.1854
  249MOL0     H33559   3.096   1.197   2.299  0.2626 -0.9956 -0.6065
  249MOL0     H33560   2.879   1.234   2.206  0.1477 -0.8172 -1.2700
  249MOL0     H33561   2.885   1.074   2.276  3.9792  0.0492 -1.7550
  249MOL0     H33562   2.751   1.173   2.483  0.1787 -1.2428  0.8089
  249MOL0     H33563   2.740   1.326   2.374  3.5511  0.6803  0.5486
  249MOL0     H33564   2.654   1.038   2.313 -0.2798 -0.1477 -1.3721
  249MOL0     H33565   2.636   1.167   2.192 -1.8250  0.0566 -0.4052
  249MOL0     H33566   2.459   1.349   2.210  0.6380 -0.1318  0.1615
  249MOL0     H33567   2.160   1.400   2.462 -3.7077 -1.0690 -1.5576
  249MOL0     H33568   2.245   1.486   2.337 -0.2211 -0.5873 -1.5637
  249MOL0     H33569   2.090   1.227   2.284 -0.0284  0.7220 -1.7710
  249MOL0     H33570   2.130   1.348   2.170  2.1399 -0.6272 -0.6328
  249MOL0     H33571   1.967   1.503   2.306  2.5800  0.2649 -1.4347
  249MOL0     H33572   1.934   1.357   2.407 -1.6982  1.0860  0.2980
  249MOL0     H33573   1.875   1.387   2.114 -1.2702  2.7601  0.0604
  249MOL0     H33574   1.757   1.388   2.250  0.9066 -0.5412  0.2190
  249MOL0     H33575   1.601   1.305   2.139  0.2014 -0.1717 -1.0549
  249MOL0     H33576   1.355   1.182   1.981  0.1715 -2.0055 -0.1575
  249MOL0     H33577   1.280   1.176   2.141  0.3049 -0.2148 -0.1785
  249MOL0     H33578   1.384   1.312   2.093 -0.4087  0.0744 -0.1009
  249MOL0     H33579   1.157   0.816   2.292 -2.0450 -0.1292  2.1771
  249MOL0     H33580   0.969   0.669   2.284  1.2100  3.5992 -0.5409
  249MOL0     H33581   0.979   0.221   2.141 -0.1453 -1.6819  1.2191
  249MOL0     H33582   1.058   0.274   2.288  1.0028  0.4024 -1.4172
  249MOL0     H33583   0.826   0.313   2.394  3.6638 -0.9106  0.7600
  249MOL0     H33584   0.761   0.263   2.238 -2.1292 -0.2480  0.9461
  249MOL0     H33585   0.918   0.122   2.462 -0.2360  3.0200  0.3448
  249MOL0     H33586   0.926   0.045   2.315 -1.0519 -0.5388  0.7901
  249MOL0     H33587   0.653   0.137   2.458 -0.7923  0.8463 -0.8663
  249MOL0     H33588   0.652   0.048   2.310  0.7162  1.6863 -0.3963
  249MOL0     H33589   0.792  -0.122   2.448  0.2722  0.4690 -0.3918
  249MOL0     H33590   0.611  -0.119   2.444  0.5653  1.3578  0.4886
  249MOL0     H33591   0.805  -0.016   2.663  0.4846 -2.6242  2.2157
  249MOL0     H33592   0.635   0.026   2.656  1.5222  2.4816 -0.3140
  249MOL0     H33593   0.771  -0.247   2.686 -0.3086 -0.6102 -1.5881
  249MOL0     H33594   0.600  -0.237   2.629  0.5004  1.1678 -2.0337
  249MOL0     H33595   0.691  -0.094   2.880  1.0131  0.9433 -2.5511
  249MOL0     H33596   0.636  -0.262   2.891 -1.7444 -0.7280 -0.8936
  249MOL0     H33597   1.192   0.356   2.104 -0.9511  1.3487 -1.6101
  249MOL0     H33598   1.392   0.513   2.079  0.7464  2.8261 -1.4030
  249MOL0     H33599   1.646   0.811   2.200  1.9538  0.6144  1.7247
  249MOL0     H33600   1.814   0.956   2.281 -4.4457 -1.9558  4.2727
  249MOL0     H33601   3.618   1.175   2.659 -1.4189 -1.5671 -0.9311
  249MOL0     H33602   3.836   1.185   2.715 -0.6146 -0.1666 -0.3843
  249MOL0     H33603   4.196   0.860   2.881  1.0059 -0.7377  2.1637
  249MOL0     H33604   4.427   0.885   2.985  0.7186 -1.1088 -1.1747
  249MOL0     H33605   4.570   1.227   3.097  1.1199  0.6443  1.5308
  249MOL0     H33606   4.498   1.061   3.137  0.9500 -1.5169  0.0440
  249MOL0     H33607   4.724   0.960   3.100 -0.6985  0.3021  0.1878
  249MOL0     H33608   4.703   1.039   3.248  1.2185  0.3263 -0.5569
  249MOL0     H33609   4.830   1.212   3.205  0.8493  2.5215 -1.0991
  249MOL0     H33610   4.815   1.227   3.031 -2.1121  1.6471  0.9892
  249MOL0     H33611   4.964   0.994   3.055  0.4679  0.3326 -0.3812
  249MOL0     H33612   4.983   1.058   3.220 -4.9925 -1.3561  0.5522
  249MOL0     H33613   5.281   1.257   3.011  0.5411 -1.3882  0.3110
  249MOL0     H33614   4.474   1.253   2.778 -3.1138  2.3321  0.8403
  249MOL0     H33615   4.274   1.210   2.646  1.2477 -0.9811 -0.3328
  250MOL0     O33616   3.939   9.487   0.421  0.4068  0.1217  0.3008
  250MOL0     C33617   4.008   9.492   0.321 -0.4668 -0.1968  0.1123
  250MOL0     O33618   3.960   9.538   0.198 -0.1113 -0.4611  0.3605
  250MOL0     C33619   3.831   9.578   0.177  0.3852  0.4743 -0.0046
  250MOL0     C33620   3.802   9.690   0.103 -0.5009 -0.8451  0.4910
  250MOL0     C33621   3.672   9.742   0.084 -0.5285 -0.2387 -0.1545
  250MOL0     C33622   3.559   9.668   0.135 -0.0867  0.7348 -0.1786
  250MOL0     O33623   3.422   9.698   0.124  0.3282 -0.2898  0.2394
  250MOL0     C33624   3.385   9.807   0.043  0.5886  0.1744  0.0234
  250MOL0     C33625   3.237   9.824   0.064  0.5002 -0.0304  0.1496
  250MOL0     C33626   3.148   9.722  -0.009 -0.3928 -0.2686 -0.0714
  250MOL0     C33627   2.995   9.749   0.008 -0.1207 -0.8587 -0.3679
  250MOL0     C33628   2.926   9.818  -0.114  0.1505 -0.5319  0.0048
  250MOL0     C33629   2.992   9.948  -0.169  0.6511  0.0058  0.1433
  250MOL0     C33630   2.890  10.024  -0.245  0.3920  0.3260 -0.0607
  250MOL0     C33631   2.947  10.170  -0.282 -0.3527  0.5049  0.3112
  250MOL0     N33632   2.861  10.233  -0.383  0.0273 -0.0174  0.9574
  250MOL0     C33633   2.864  10.204  -0.516  0.4861 -0.8918  0.4690
  250MOL0     C33634   2.752  10.256  -0.566  0.2691 -0.2160  0.5257
  250MOL0     C33635   2.723  10.269  -0.707 -0.3521  0.1553 -0.2570
  250MOL0     C33636   2.674  10.143  -0.772  0.7730  0.2846  0.2189
  250MOL0     C33637   2.565  10.073  -0.694 -0.4911  0.1994  0.2784
  250MOL0     C33638   2.430  10.150  -0.703 -0.1690  0.4360 -0.6704
  250MOL0     O33639   2.332  10.052  -0.662  0.1193  0.2044  0.5133
  250MOL0     C33640   2.201  10.084  -0.680  0.0791 -0.0717  0.0940
  250MOL0     C33641   2.140  10.086  -0.809 -0.7306 -0.0160 -0.4919
  250MOL0     C33642   2.006  10.124  -0.828 -0.0236 -0.6768  0.3120
  250MOL0     C33643   1.944  10.114  -0.968 -0.1752 -0.1376  0.2854
  250MOL0     C33644   1.923  10.162  -0.713 -0.6893 -0.1953 -0.4350
  250MOL0     C33645   1.773  10.180  -0.709  0.4655  0.5769 -0.6296
  250MOL0     O33646   1.726  10.263  -0.606 -0.3280 -0.6544 -0.8983
  250MOL0     C33647   1.605  10.327  -0.625  0.1310  0.4640 -0.7595
  250MOL0     C33648   1.578  10.417  -0.719  0.1569  0.0313  0.1549
  250MOL0     C33649   1.450  10.470  -0.730  1.0533 -0.7349 -0.7459
  250MOL0     C33650   1.347  10.429  -0.642  0.1515  0.4077  0.1476
  250MOL0     O33651   1.216  10.477  -0.654 -0.3349 -0.4543 -0.6123
  250MOL0     C33652   1.114  10.388  -0.607  0.5916  0.0645  0.2695
  250MOL0     C33653   0.984  10.446  -0.664 -0.6092 -0.0320  0.3195
  250MOL0     C33654   0.862  10.363  -0.626 -0.0562 -0.8658  0.7032
  250MOL0     C33655   0.820  10.378  -0.478  0.2630 -0.4239  0.8708
  250MOL0     C33656   0.698  10.303  -0.450  0.5767  0.2079 -0.6835
  250MOL0     C33657   0.582  10.339  -0.534  0.1222 -0.5572 -1.0423
  250MOL0     C33658   0.459  10.279  -0.484  0.3193 -0.0592  0.5477
  250MOL0     C33659   0.325  10.331  -0.552 -0.3627  0.2460  0.1189
  250MOL0    Cl33660   0.324  10.293  -0.730 -0.1629  0.0724  0.2003
  250MOL0     C33661   1.372  10.334  -0.548 -0.7953  1.6296  0.3810
  250MOL0     C33662   1.503  10.286  -0.539 -0.1194  0.0823  0.0070
  250MOL0     O33663   1.695  10.121  -0.785  0.2287  0.5752 -0.4019
  250MOL0     C33664   1.985  10.164  -0.589 -0.3289 -0.0837 -0.0519
  250MOL0     C33665   2.119  10.125  -0.572 -0.5939 -0.1111  0.2908
  250MOL0     N33666   2.677  10.304  -0.463  0.2129 -0.2975 -0.0089
  250MOL0     N33667   2.739  10.293  -0.354 -0.1632 -0.3117 -0.0661
  250MOL0     C33668   3.592   9.558   0.216 -0.2722  0.4570  0.6154
  250MOL0     C33669   3.726   9.516   0.239  0.7968  0.2708  0.7566
  250MOL0     C33670   4.143   9.440   0.323 -0.6180 -0.2623 -0.1754
  250MOL0     C33671   4.225   9.450   0.439 -0.0448  0.2228  0.0850
  250MOL0     C33672   4.351   9.394   0.452  0.5728  0.2449  0.3488
  250MOL0     C33673   4.407   9.324   0.344  0.5834 -0.3672  0.3584
  250MOL0     O33674   4.529   9.279   0.359  0.2236 -0.1536 -0.3280
  250MOL0     C33675   4.543   9.132   0.353  0.1943 -1.2887 -0.7739
  250MOL0     C33676   4.651   9.100   0.247  0.0112  0.1295 -0.0592
  250MOL0     C33677   4.789   9.140   0.306  0.0729  0.3643 -0.4827
  250MOL0     C33678   4.898   9.137   0.199 -1.3837  0.0967  0.4482
  250MOL0     C33679   4.927   8.992   0.171 -0.3224  0.6586 -0.4987
  250MOL0     C33680   4.962   8.875   0.168 -0.3160  0.3908 -0.3148
  250MOL0     C33681   4.333   9.319   0.222 -0.5854 -0.3459  0.6589
  250MOL0     C33682   4.205   9.374   0.213  0.1653  0.4684  0.2341
  250MOL0     H33683   3.894   9.735   0.067 -0.7524 -1.2297 -0.6588
  250MOL0     H33684   3.656   9.840   0.040 -0.6374 -0.4841 -0.6641
  250MOL0     H33685   3.444   9.887   0.090  1.8702 -1.2269  0.9010
  250MOL0     H33686   3.409   9.790  -0.062 -0.9374 -1.5125 -0.1070
  250MOL0     H33687   3.199   9.820   0.166 -0.3013  0.1868 -0.1335
  250MOL0     H33688   3.214   9.926   0.034 -0.8836  1.1354  4.4906
  250MOL0     H33689   3.178   9.737  -0.113 -1.0507  1.3080 -0.0635
  250MOL0     H33690   3.159   9.625   0.040  1.4880 -0.9399 -1.7059
  250MOL0     H33691   2.946   9.652   0.018 -0.5325 -1.1264 -3.7839
  250MOL0     H33692   2.979   9.808   0.098  0.1215  0.3354 -1.0850
  250MOL0     H33693   2.911   9.753  -0.200  0.4230  0.9316 -1.1987
  250MOL0     H33694   2.830   9.845  -0.067  1.6832  1.3235  2.3080
  250MOL0     H33695   3.028  10.005  -0.083  1.6756  0.4107 -0.5292
  250MOL0     H33696   3.072   9.928  -0.241 -2.4113 -1.1468 -3.2155
  250MOL0     H33697   2.859   9.962  -0.330 -3.7453 -1.0063  2.1682
  250MOL0     H33698   2.799  10.033  -0.186 -1.3153 -2.3031 -2.0625
  250MOL0     H33699   3.050  10.153  -0.315 -0.5032 -1.8132  0.8731
  250MOL0     H33700   2.958  10.236  -0.195 -0.0482  2.6679 -1.2741
  250MOL0     H33701   2.951  10.168  -0.570 -0.0320 -1.7213  0.1733
  250MOL0     H33702   2.644  10.344  -0.719 -1.0717 -0.8775 -2.5218
  250MOL0     H33703   2.808  10.303  -0.766 -0.9137  1.8387 -0.1600
  250MOL0     H33704   2.758  10.073  -0.785  0.6457  0.5195 -2.5802
  250MOL0     H33705   2.639  10.161  -0.875  0.3344 -0.2321  0.2737
  250MOL0     H33706   2.591  10.065  -0.588  0.4434 -1.8938 -0.0516
  250MOL0     H33707   2.571   9.971  -0.732  0.5478  1.4291 -3.2353
  250MOL0     H33708   2.414  10.174  -0.809 -2.4342 -1.8887 -0.9460
  250MOL0     H33709   2.428  10.242  -0.644  1.2833  0.1773 -0.1633
  250MOL0     H33710   2.207  10.057  -0.889 -0.3160  1.7167 -0.8027
  250MOL0     H33711   2.022  10.096  -1.042  0.4193 -2.3101  1.3580
  250MOL0     H33712   1.866  10.037  -0.971  2.2897 -2.7648  0.3645
  250MOL0     H33713   1.904  10.213  -0.995  0.3788  0.0587  0.1710
  250MOL0     H33714   1.652  10.445  -0.793  0.8206  3.1220  1.8223
  250MOL0     H33715   1.418  10.547  -0.799  1.1696  0.0628  0.0633
  250MOL0     H33716   1.129  10.286  -0.641 -0.2055 -0.5550  1.6923
  250MOL0     H33717   1.111  10.393  -0.498 -1.5165 -0.9393  0.3039
  250MOL0     H33718   0.962  10.546  -0.625  2.0057  0.6299  0.3110
  250MOL0     H33719   0.997  10.460  -0.772  1.5804  0.8761  0.6507
  250MOL0     H33720   0.884  10.258  -0.647  3.1228 -0.9755  3.6469
  250MOL0     H33721   0.785  10.404  -0.692  1.1348  0.1556 -0.0887
  250MOL0     H33722   0.899  10.343  -0.410  0.1066 -0.6050  0.9586
  250MOL0     H33723   0.807  10.484  -0.456  0.2948 -1.0324  4.1969
  250MOL0     H33724   0.668  10.317  -0.345  1.3493  3.6134 -0.8008
  250MOL0     H33725   0.716  10.196  -0.456  1.1201  0.1198  1.4855
  250MOL0     H33726   0.571  10.447  -0.540 -1.5078 -0.7571 -2.3858
  250MOL0     H33727   0.587  10.296  -0.635 -2.0690 -0.6852 -1.1532
  250MOL0     H33728   0.444  10.308  -0.380 -2.0319 -0.1132  0.2911
  250MOL0     H33729   0.448  10.170  -0.495 -0.4176  0.1734 -1.5515
  250MOL0     H33730   0.324  10.440  -0.539  1.1008  0.2100  0.7311
  250MOL0     H33731   0.248  10.287  -0.489 -0.0062  1.2688  1.3171
  250MOL0     H33732   1.307  10.300  -0.467 -0.7379 -1.9605 -0.8664
  250MOL0     H33733   1.542  10.238  -0.450  1.2422  0.2377 -0.4787
  250MOL0     H33734   1.930  10.201  -0.502 -0.0885  1.1040 -0.3877
  250MOL0     H33735   2.166  10.129  -0.475  0.4147  0.6936 -0.2217
  250MOL0     H33736   3.510   9.504   0.263 -0.7094 -0.4266 -1.0968
  250MOL0     H33737   3.731   9.419   0.287 -0.1622 -0.3404 -0.3366
  250MOL0     H33738   4.178   9.498   0.524  1.0564  1.6903 -0.0934
  250MOL0     H33739   4.409   9.405   0.543  1.0418  0.3420  0.0385
  250MOL0     H33740   4.575   9.096   0.451  1.4651  1.7930  0.0663
  250MOL0     H33741   4.449   9.091   0.314 -2.0353  1.9571  0.7469
  250MOL0     H33742   4.635   9.155   0.154 -0.2585  0.4013  0.1436
  250MOL0     H33743   4.635   8.994   0.224 -0.6645  0.5693 -1.7216
  250MOL0     H33744   4.827   9.075   0.386  1.3086  0.3463 -1.0520
  250MOL0     H33745   4.772   9.239   0.350 -0.6588  0.2051 -0.3940
  250MOL0     H33746   4.987   9.189   0.236 -0.8514  0.8763 -1.8261
  250MOL0     H33747   4.859   9.196   0.116 -1.5283 -0.3433  0.2061
  250MOL0     H33748   4.991   8.773   0.184  1.8266  0.5375 -2.7600
  250MOL0     H33749   4.373   9.310   0.122 -2.7831  1.8609 -0.5346
  250MOL0     H33750   4.162   9.372   0.114  0.0358  0.4219  0.2907
  251MOL0     O33751   5.392   0.583   8.825 -0.7409  0.6151  0.2562
  251MOL0     C33752   5.500   0.573   8.772  0.8459 -0.0918  0.0238
  251MOL0     O33753   5.538   0.632   8.663 -0.3673  0.2546  0.5074
  251MOL0     C33754   5.460   0.719   8.602  0.5425 -0.3621 -0.1405
  251MOL0     C33755   5.463   0.852   8.631 -1.0961 -0.4554  0.1976
  251MOL0     C33756   5.368   0.945   8.572  0.4518 -0.0276  0.0389
  251MOL0     C33757   5.275   0.899   8.476 -0.4039 -0.9252  0.4690
  251MOL0     O33758   5.194   1.003   8.437  0.2715 -0.3766  0.3148
  251MOL0     C33759   5.069   0.956   8.385  0.0386 -0.5050 -0.2895
  251MOL0     C33760   4.970   1.071   8.395  0.7098 -0.1216  0.5825
  251MOL0     C33761   4.830   1.024   8.375 -0.4147 -0.6696  1.0975
  251MOL0     C33762   4.736   1.141   8.372  0.2257  0.2641  0.2806
  251MOL0     C33763   4.599   1.079   8.354  0.2887  0.1046  0.2813
  251MOL0     C33764   4.489   1.187   8.357 -0.3698  0.6166  0.1806
  251MOL0     C33765   4.344   1.122   8.375 -1.1193 -0.8251  0.4959
  251MOL0     C33766   4.304   1.029   8.262 -0.6992  0.0129 -0.0161
  251MOL0     N33767   4.155   1.015   8.252 -0.1994  0.6617  0.5056
  251MOL0     C33768   4.069   1.113   8.211  0.2567 -0.2256  1.0455
  251MOL0     C33769   3.951   1.058   8.212  0.8527 -0.1365 -0.4973
  251MOL0     C33770   3.834   1.135   8.158  0.5757 -0.1887  0.6233
  251MOL0     C33771   3.700   1.096   8.211  0.2798 -0.0422 -0.1694
  251MOL0     C33772   3.597   1.205   8.166 -1.1550 -0.1761 -0.4113
  251MOL0     C33773   3.460   1.185   8.230  0.1804  0.5198  0.1478
  251MOL0     O33774   3.375   1.272   8.151 -0.5749  0.5215 -0.0224
  251MOL0     C33775   3.246   1.294   8.183 -0.2376  0.9502 -0.1039
  251MOL0     C33776   3.168   1.382   8.109  0.1504 -0.5603 -0.3484
  251MOL0     C33777   3.036   1.402   8.136 -0.5833 -0.1374 -0.2659
  251MOL0     C33778   2.967   1.505   8.053  0.5224  0.0351 -0.7638
  251MOL0     C33779   2.971   1.335   8.238 -0.0968  0.1693 -0.3303
  251MOL0     C33780   2.828   1.349   8.271 -0.5056  0.5834  0.0476
  251MOL0     O33781   2.798   1.334   8.407 -0.1491 -0.2454 -0.6579
  251MOL0     C33782   2.660   1.336   8.435  0.4638 -0.7190  0.3804
  251MOL0     C33783   2.575   1.237   8.419 -0.3850  0.1182  0.0895
  251MOL0     C33784   2.430   1.255   8.419  0.3041  0.8906 -0.6665
  251MOL0     C33785   2.376   1.381   8.454  0.1650  0.0317 -0.2654
  251MOL0     O33786   2.248   1.427   8.441 -0.9656  0.3204 -0.6229
  251MOL0     C33787   2.140   1.348   8.389 -0.4583 -0.3891 -0.5052
  251MOL0     C33788   2.011   1.432   8.386  0.7333 -0.5333  0.3935
  251MOL0     C33789   1.890   1.360   8.315  0.0075 -0.1217  0.0896
  251MOL0     C33790   1.778   1.465   8.337 -0.1467  0.5600 -0.5086
  251MOL0     C33791   1.651   1.409   8.267 -0.4084 -0.3988  0.1730
  251MOL0     C33792   1.523   1.482   8.312 -0.1539  0.5784 -0.2223
  251MOL0     C33793   1.395   1.426   8.241  0.3122 -0.3247  0.3508
  251MOL0     C33794   1.393   1.458   8.099  1.5195 -0.1215 -0.2080
  251MOL0    Cl33795   1.242   1.386   8.037 -0.2856 -0.2445 -0.6124
  251MOL0     C33796   2.467   1.486   8.484 -0.7501  0.1404 -0.2998
  251MOL0     C33797   2.605   1.458   8.472  0.7457  0.5288 -0.2113
  251MOL0     O33798   2.744   1.378   8.188  0.1043  0.3017  1.0487
  251MOL0     C33799   3.047   1.235   8.307  1.0240  0.1762  1.0390
  251MOL0     C33800   3.179   1.221   8.280  0.9385  0.4801 -0.5931
  251MOL0     N33801   3.954   0.935   8.277 -0.1294  0.4811 -0.0099
  251MOL0     N33802   4.072   0.915   8.313 -0.3707  0.6363 -0.4144
  251MOL0     C33803   5.276   0.758   8.441  0.2886 -0.2885  0.3971
  251MOL0     C33804   5.367   0.676   8.509 -1.4541  0.4366  0.7789
  251MOL0     C33805   5.601   0.488   8.848 -0.1707 -1.0935 -0.0475
  251MOL0     C33806   5.733   0.477   8.800  0.5641 -0.2901  0.5571
  251MOL0     C33807   5.832   0.393   8.865 -0.1251 -1.1600  0.7397
  251MOL0     C33808   5.801   0.316   8.972  0.1391  0.7136 -0.9185
  251MOL0     O33809   5.881   0.226   9.040 -0.3550  0.5250  0.0731
  251MOL0     C33810   6.024   0.229   9.027 -0.4186  0.0673 -0.5686
  251MOL0     C33811   6.081   0.317   9.137 -0.5022  0.4918 -0.1198
  251MOL0     C33812   6.230   0.343   9.106  0.8359  0.2209 -0.6172
  251MOL0     C33813   6.286   0.452   9.190  0.6326  0.2556 -0.1381
  251MOL0     C33814   6.428   0.469   9.167  0.1717 -0.2418  0.9917
  251MOL0     C33815   6.545   0.472   9.148  0.5564 -0.6415 -0.9981
  251MOL0     C33816   5.665   0.320   9.016  0.1273 -0.0131  0.6255
  251MOL0     C33817   5.570   0.407   8.959 -0.0183 -0.3465 -0.0932
  251MOL0     H33818   5.539   0.885   8.701 -1.4391 -0.1440  0.4293
  251MOL0     H33819   5.376   1.050   8.598  0.2258  0.0243 -0.1018
  251MOL0     H33820   5.087   0.922   8.283  0.8084 -1.6954  0.2246
  251MOL0     H33821   5.029   0.879   8.452  0.5467  0.1889  0.8368
  251MOL0     H33822   4.992   1.127   8.486  0.1744  1.4486 -0.2236
  251MOL0     H33823   4.994   1.134   8.309 -0.8798  0.3126  0.4207
  251MOL0     H33824   4.830   0.989   8.271  0.3575  6.3359 -1.8021
  251MOL0     H33825   4.806   0.948   8.450  3.1182 -0.9536  2.1223
  251MOL0     H33826   4.743   1.201   8.463  1.6434 -0.5153  0.6980
  251MOL0     H33827   4.758   1.203   8.284  0.6958  0.5409  0.5903
  251MOL0     H33828   4.591   1.037   8.253 -2.3248  1.6124 -0.2301
  251MOL0     H33829   4.581   1.006   8.433  1.0746  1.3688  1.6820
  251MOL0     H33830   4.512   1.248   8.445  0.0669 -0.7087  1.0157
  251MOL0     H33831   4.502   1.245   8.266  1.0444 -0.7855 -0.5720
  251MOL0     H33832   4.333   1.066   8.468 -0.1997 -1.7907  0.0458
  251MOL0     H33833   4.283   1.213   8.383 -1.6195 -0.9924 -1.0356
  251MOL0     H33834   4.350   0.931   8.277 -0.0364  0.4548  0.9361
  251MOL0     H33835   4.343   1.074   8.170 -3.7580 -0.7732 -1.8472
  251MOL0     H33836   4.097   1.208   8.167 -1.1456  0.0510  0.7127
  251MOL0     H33837   3.852   1.240   8.182  1.5989 -0.4033  0.8329
  251MOL0     H33838   3.825   1.121   8.050 -0.2183 -0.7943  0.7596
  251MOL0     H33839   3.689   1.073   8.317  0.3318 -4.0354 -0.8878
  251MOL0     H33840   3.671   1.005   8.159  2.3581 -1.8941  1.7129
  251MOL0     H33841   3.583   1.189   8.059  1.4955 -1.3755 -0.6788
  251MOL0     H33842   3.639   1.304   8.187 -0.6904 -0.1240 -1.5258
  251MOL0     H33843   3.475   1.207   8.336  1.1727 -3.4863  1.0231
  251MOL0     H33844   3.438   1.078   8.219 -0.5408  0.6572  0.1879
  251MOL0     H33845   3.223   1.443   8.037  1.3568 -0.1064  0.9098
  251MOL0     H33846   2.873   1.472   8.008  0.3485 -0.2862 -0.1819
  251MOL0     H33847   2.934   1.580   8.125  1.9195 -1.1132  1.1932
  251MOL0     H33848   3.032   1.545   7.975  1.7195 -0.2153  0.0750
  251MOL0     H33849   2.613   1.144   8.378  0.3661  0.8047 -0.8187
  251MOL0     H33850   2.364   1.171   8.398  1.0693  0.0905 -0.0012
  251MOL0     H33851   2.170   1.316   8.289  0.4124 -0.8416 -0.1092
  251MOL0     H33852   2.120   1.264   8.456 -3.1017 -1.1459 -2.1027
  251MOL0     H33853   1.990   1.458   8.490 -3.8649  2.6924 -1.0130
  251MOL0     H33854   2.036   1.525   8.335 -0.3883  2.2403  4.4314
  251MOL0     H33855   1.866   1.263   8.359 -2.3249 -0.9203 -2.6272
  251MOL0     H33856   1.906   1.355   8.206  0.1524  0.8126  0.0641
  251MOL0     H33857   1.767   1.476   8.446 -0.2643 -2.2858 -0.1796
  251MOL0     H33858   1.811   1.561   8.295  0.5016 -0.2189 -1.8313
  251MOL0     H33859   1.636   1.305   8.298 -0.3046 -0.5907 -0.4154
  251MOL0     H33860   1.665   1.412   8.159 -4.4536 -0.9029 -0.5371
  251MOL0     H33861   1.502   1.472   8.419 -2.5845 -0.9496 -0.7544
  251MOL0     H33862   1.527   1.589   8.286 -0.0170  0.1324 -2.1546
  251MOL0     H33863   1.307   1.465   8.293  1.4578  1.6422  0.9551
  251MOL0     H33864   1.385   1.319   8.257  1.3208 -0.6266 -0.9547
  251MOL0     H33865   1.481   1.413   8.051  1.9466  0.3528  0.1249
  251MOL0     H33866   1.390   1.566   8.081 -1.0169  0.1657  1.4539
  251MOL0     H33867   2.439   1.586   8.515 -1.3530  0.2932 -1.3094
  251MOL0     H33868   2.671   1.540   8.497  1.5764  0.2080 -1.3071
  251MOL0     H33869   2.992   1.183   8.385 -1.5749 -1.6683 -1.7837
  251MOL0     H33870   3.222   1.143   8.343 -1.7654  0.8163  1.8385
  251MOL0     H33871   5.211   0.729   8.359  0.5059 -0.5878  0.3272
  251MOL0     H33872   5.367   0.569   8.488  0.6832  0.3250  1.1026
  251MOL0     H33873   5.775   0.533   8.717 -2.3772  0.8824 -0.2491
  251MOL0     H33874   5.936   0.401   8.836 -0.4546  1.4924  0.0226
  251MOL0     H33875   6.051   0.123   9.031 -2.3517 -0.4961 -1.1427
  251MOL0     H33876   6.063   0.257   8.929 -2.2416 -1.0481 -1.6858
  251MOL0     H33877   6.063   0.265   9.231 -0.8468 -1.2303 -1.1102
  251MOL0     H33878   6.033   0.415   9.136  1.3305  1.4415 -0.5289
  251MOL0     H33879   6.244   0.362   8.999 -0.8150  0.4519 -0.8239
  251MOL0     H33880   6.280   0.249   9.130 -0.0884 -0.3347 -0.8253
  251MOL0     H33881   6.277   0.426   9.295 -1.5873  0.9990 -0.1091
  251MOL0     H33882   6.240   0.550   9.178  1.5504  0.5357 -1.8115
  251MOL0     H33883   6.646   0.495   9.121  0.5334 -0.5251 -0.9845
  251MOL0     H33884   5.633   0.258   9.099  1.4554 -1.0192  0.4058
  251MOL0     H33885   5.475   0.395   9.010  0.1498 -0.0288  0.2947
  252MOL0     O33886   3.969   9.978   2.348 -1.2054  0.1558 -0.5733
  252MOL0     C33887   3.991  10.089   2.389  0.2142  0.2089 -0.4267
  252MOL0     O33888   3.896  10.196   2.401  0.1002  0.8863 -0.1161
  252MOL0     C33889   3.763  10.174   2.381 -0.2521 -0.6319  0.4155
  252MOL0     C33890   3.680  10.285   2.349  0.6043 -0.2805  0.0455
  252MOL0     C33891   3.539  10.279   2.336  0.2282  0.1874  0.1352
  252MOL0     C33892   3.484  10.152   2.313 -0.4625 -0.1640 -0.3071
  252MOL0     O33893   3.353  10.129   2.262  0.0786 -0.0861 -0.7181
  252MOL0     C33894   3.247  10.215   2.304 -1.6418 -0.0292  0.3759
  252MOL0     C33895   3.120  10.153   2.251  0.4411 -0.0062  0.1270
  252MOL0     C33896   2.993  10.212   2.292  0.0450 -0.0886  0.1522
  252MOL0     C33897   2.874  10.139   2.242  0.6468  0.1167  0.0722
  252MOL0     C33898   2.744  10.212   2.264  0.0539 -0.2926 -0.3530
  252MOL0     C33899   2.627  10.141   2.194 -0.3768  0.3740  0.4461
  252MOL0     C33900   2.496  10.193   2.246  0.1239 -0.2084 -0.1875
  252MOL0     C33901   2.449  10.316   2.175 -0.3830 -0.9410  0.7189
  252MOL0     N33902   2.315  10.352   2.222 -0.2916  0.1132 -0.6304
  252MOL0     C33903   2.202  10.303   2.186 -0.5891  0.7338 -0.4708
  252MOL0     C33904   2.108  10.387   2.237 -0.2205  0.4134 -0.5752
  252MOL0     C33905   1.954  10.383   2.227  1.0481 -0.5943 -0.4794
  252MOL0     C33906   1.891  10.269   2.304  0.3810 -0.4999 -0.6434
  252MOL0     C33907   1.942  10.263   2.444 -0.5027  0.0194  0.1348
  252MOL0     C33908   1.893  10.380   2.535  0.1069  0.4768 -0.6134
  252MOL0     O33909   1.750  10.379   2.555  0.2837  0.3577 -0.4391
  252MOL0     C33910   1.687  10.289   2.642 -0.4343 -0.5813  0.7559
  252MOL0     C33911   1.548  10.278   2.628  0.2406  0.4443  0.5193
  252MOL0     C33912   1.466  10.186   2.708 -0.4318 -0.8990  0.2209
  252MOL0     C33913   1.320  10.179   2.681 -1.0008  0.9657 -0.2107
  252MOL0     C33914   1.534  10.117   2.813  0.1331  0.1423  0.4276
  252MOL0     C33915   1.452  10.053   2.923  0.3262  0.5076 -0.3348
  252MOL0     O33916   1.460   9.916   2.920 -0.5839 -0.1949 -0.8107
  252MOL0     C33917   1.383   9.840   3.010 -0.5767 -0.0289  0.2852
  252MOL0     C33918   1.444   9.814   3.138  0.2161  0.0520  0.0754
  252MOL0     C33919   1.376   9.745   3.236  0.5092  0.0430  0.0667
  252MOL0     C33920   1.252   9.692   3.211  0.9174 -1.1999 -0.2699
  252MOL0     O33921   1.191   9.612   3.306  0.0029 -0.9320 -0.0346
  252MOL0     C33922   1.066   9.551   3.271  0.1425 -0.1077 -0.2104
  252MOL0     C33923   1.002   9.490   3.399 -0.0739  0.6809 -0.2611
  252MOL0     C33924   0.881   9.397   3.356 -0.4292  0.4545 -0.1970
  252MOL0     C33925   0.834   9.345   3.493 -0.6624 -0.2879  0.4004
  252MOL0     C33926   0.720   9.242   3.479  0.2837  0.3598  0.6231
  252MOL0     C33927   0.653   9.207   3.608  0.3865 -0.0306 -0.0125
  252MOL0     C33928   0.594   9.324   3.681  0.0695  0.3566  0.1974
  252MOL0     C33929   0.519   9.275   3.802  0.2599 -0.2846  0.1065
  252MOL0    Cl33930   0.360   9.209   3.757 -0.3712 -0.2377 -0.0270
  252MOL0     C33931   1.187   9.728   3.090  0.4665 -0.1161  0.0490
  252MOL0     C33932   1.250   9.796   2.989  0.3790 -1.0742 -0.4633
  252MOL0     O33933   1.394  10.124   3.006 -0.0410 -0.1834  0.6288
  252MOL0     C33934   1.667  10.147   2.832 -0.4033 -0.1705  0.2120
  252MOL0     C33935   1.748  10.224   2.749  0.6611 -0.4789  0.1151
  252MOL0     N33936   2.168  10.477   2.326 -0.6325 -0.4420 -0.5422
  252MOL0     N33937   2.295  10.452   2.317  0.1583 -0.7318  0.7108
  252MOL0     C33938   3.562  10.040   2.348  0.4276 -0.8859 -1.0713
  252MOL0     C33939   3.696  10.056   2.390  1.0057  0.0380  0.1001
  252MOL0     C33940   4.134  10.136   2.404 -0.0930  0.0741  0.4947
  252MOL0     C33941   4.233  10.051   2.385 -1.0347 -0.4123 -0.1422
  252MOL0     C33942   4.369  10.084   2.403 -0.3123  0.2812 -0.2776
  252MOL0     C33943   4.403  10.213   2.447 -0.0808  0.4887  0.4661
  252MOL0     O33944   4.527  10.265   2.482 -0.1154  0.0103  0.3300
  252MOL0     C33945   4.650  10.201   2.451  0.0631 -0.2093  0.1190
  252MOL0     C33946   4.683  10.067   2.520 -0.3811  0.1078 -0.3281
  252MOL0     C33947   4.733  10.088   2.657 -0.4267  0.5257  0.7473
  252MOL0     C33948   4.790   9.965   2.727  0.1416 -0.5583  0.0344
  252MOL0     C33949   4.858   9.860   2.645  0.1927  0.0245  0.0362
  252MOL0     C33950   4.922   9.773   2.581 -0.5699  0.1067 -0.1481
  252MOL0     C33951   4.297  10.299   2.461  0.3377 -0.2785  0.3298
  252MOL0     C33952   4.166  10.262   2.449 -0.2495  0.5481 -0.1807
  252MOL0     H33953   3.718  10.386   2.359  1.5561 -0.6340  0.0374
  252MOL0     H33954   3.489  10.375   2.322  2.8944  1.5282 -0.9897
  252MOL0     H33955   3.242  10.218   2.413 -0.2222 -0.7585  0.4819
  252MOL0     H33956   3.266  10.315   2.263 -0.9925 -0.3463 -0.1306
  252MOL0     H33957   3.117  10.165   2.142 -1.4422 -1.9501 -0.1099
  252MOL0     H33958   3.114  10.054   2.296 -0.7484  0.2164  0.5072
  252MOL0     H33959   2.984  10.224   2.401 -4.7612  2.9391 -0.2727
  252MOL0     H33960   2.997  10.314   2.254 -0.0554 -0.5550 -1.1645
  252MOL0     H33961   2.888  10.153   2.135  2.1477  2.4715  0.4988
  252MOL0     H33962   2.876  10.034   2.274  0.0945  0.2383  0.5243
  252MOL0     H33963   2.724  10.228   2.371 -0.2556  0.5542 -0.5320
  252MOL0     H33964   2.751  10.313   2.222 -0.0338  0.0961  0.5460
  252MOL0     H33965   2.641  10.144   2.086 -0.6777  2.5072  0.4250
  252MOL0     H33966   2.635  10.038   2.230  2.6029 -0.4273 -2.0666
  252MOL0     H33967   2.426  10.109   2.240  0.2950 -0.5138  1.5933
  252MOL0     H33968   2.505  10.215   2.353  0.7384  0.0495 -0.2932
  252MOL0     H33969   2.450  10.307   2.066  2.2963  4.2486 -0.0071
  252MOL0     H33970   2.520  10.392   2.208 -1.7242  0.0160  1.4680
  252MOL0     H33971   2.197  10.211   2.127  3.5905  1.8568 -3.0377
  252MOL0     H33972   1.909  10.475   2.267 -0.1796 -1.5533  0.4130
  252MOL0     H33973   1.918  10.393   2.124 -1.2403  0.1071  0.3341
  252MOL0     H33974   1.906  10.173   2.253 -2.2799 -1.4426  0.1612
  252MOL0     H33975   1.783  10.288   2.313  0.1215 -2.7045  4.9689
  252MOL0     H33976   2.051  10.254   2.456 -0.5063  1.4688  1.4225
  252MOL0     H33977   1.909  10.165   2.481  0.4247  0.0621  1.1376
  252MOL0     H33978   1.920  10.476   2.492 -1.1017  1.1307  0.0349
  252MOL0     H33979   1.948  10.374   2.629 -0.3621 -0.9083 -0.3919
  252MOL0     H33980   1.501  10.322   2.541 -0.3382  1.5814  1.3720
  252MOL0     H33981   1.290  10.078   2.651 -0.4640  0.6143  0.3928
  252MOL0     H33982   1.266  10.207   2.772 -3.2058  0.9658 -1.4597
  252MOL0     H33983   1.301  10.248   2.598 -0.0943  1.1067 -0.3077
  252MOL0     H33984   1.544   9.847   3.165  0.6451  0.0957 -1.5054
  252MOL0     H33985   1.422   9.730   3.333  1.0819  3.3666  0.4267
  252MOL0     H33986   0.995   9.623   3.229 -0.1651  0.9550  1.9894
  252MOL0     H33987   1.098   9.476   3.199  0.0784 -0.4921  0.1550
  252MOL0     H33988   1.079   9.444   3.461 -0.0862  0.3224 -0.5130
  252MOL0     H33989   0.969   9.576   3.458  1.0767  0.4511  0.7642
  252MOL0     H33990   0.924   9.319   3.292 -0.0159  0.5806 -0.0763
  252MOL0     H33991   0.797   9.437   3.299  0.5849 -1.4136 -3.2441
  252MOL0     H33992   0.909   9.290   3.551  0.1949  0.0951 -0.3223
  252MOL0     H33993   0.799   9.426   3.558  2.4005 -0.0686  2.0055
  252MOL0     H33994   0.764   9.152   3.434 -0.1773  1.1258 -1.5037
  252MOL0     H33995   0.645   9.293   3.418  3.7858  3.0976 -1.8845
  252MOL0     H33996   0.569   9.144   3.578 -1.0764  3.2376 -3.6489
  252MOL0     H33997   0.721   9.149   3.672  1.9845  0.7266 -0.9750
  252MOL0     H33998   0.525   9.373   3.612 -0.3136  0.2738  0.5129
  252MOL0     H33999   0.671   9.388   3.724 -1.9861  1.9505  1.7112
  252MOL0     H34000   0.508   9.371   3.853  1.7635 -0.3322  0.5628
  252MOL0     H34001   0.575   9.216   3.875 -1.1149  0.7140  2.0608
  252MOL0     H34002   1.084   9.709   3.061  0.8464 -0.9313 -0.8144
  252MOL0     H34003   1.193   9.826   2.901 -0.8070 -0.6137  0.4410
  252MOL0     H34004   1.716  10.105   2.920 -1.0977 -0.5660  0.4084
  252MOL0     H34005   1.851  10.248   2.777 -0.2358  2.9804  0.9420
  252MOL0     H34006   3.521   9.940   2.359 -1.9809  0.2478  1.4345
  252MOL0     H34007   3.746   9.965   2.424 -0.7012 -0.4635  1.3713
  252MOL0     H34008   4.196   9.957   2.343 -1.5399 -0.3503  0.1631
  252MOL0     H34009   4.443  10.005   2.395  0.4042  0.5020  2.8947
  252MOL0     H34010   4.638  10.172   2.346 -1.6905  0.8342 -0.0073
  252MOL0     H34011   4.725  10.280   2.462 -0.1379  0.3287 -1.9680
  252MOL0     H34012   4.754  10.011   2.458  0.7438 -0.0984  1.1193
  252MOL0     H34013   4.589  10.013   2.530  0.9865 -2.3731 -0.1812
  252MOL0     H34014   4.654  10.125   2.723  1.2708  0.6673  2.7749
  252MOL0     H34015   4.816  10.158   2.663  0.8102 -0.7658 -0.4675
  252MOL0     H34016   4.696   9.923   2.764  0.6704 -0.8982  1.0216
  252MOL0     H34017   4.859  10.004   2.802  0.9095  0.3536 -1.0970
  252MOL0     H34018   4.980   9.689   2.549 -2.6288 -0.5136 -2.5688
  252MOL0     H34019   4.302  10.398   2.504 -3.6150  0.0595  0.4059
  252MOL0     H34020   4.088  10.333   2.476  0.5995  1.1343  0.7895
  253MOL0     O34021  10.675   0.991   5.456 -0.5250  0.1309 -0.0326
  253MOL0     C34022  10.765   1.071   5.417 -0.6480 -0.1151  0.0437
  253MOL0     O34023  10.742   1.188   5.341  0.3860 -0.7855  0.0771
  253MOL0     C34024  10.617   1.189   5.286 -0.5856  0.4274  0.1331
  253MOL0     C34025  10.565   1.076   5.210 -0.9917 -0.4932 -0.8294
  253MOL0     C34026  10.438   1.080   5.150  0.0943  0.0724  0.5176
  253MOL0     C34027  10.367   1.198   5.156  0.0960 -0.6295 -0.2200
  253MOL0     O34028  10.247   1.229   5.096  0.4962 -1.2400 -0.0378
  253MOL0     C34029  10.215   1.138   4.986  0.7883 -0.6826  0.1224
  253MOL0     C34030  10.069   1.157   4.949 -0.3292 -0.4859  0.1873
  253MOL0     C34031   9.978   1.091   5.049  0.2654 -0.2406  0.2646
  253MOL0     C34032   9.833   1.096   5.004  0.0320  0.3217 -0.5884
  253MOL0     C34033   9.774   1.239   4.991  0.5107 -0.8668  0.0014
  253MOL0     C34034   9.634   1.246   4.937  0.7494  0.7039 -0.2667
  253MOL0     C34035   9.568   1.388   4.955 -0.0071  0.3277 -0.3754
  253MOL0     C34036   9.631   1.508   4.891 -0.1589  0.0843 -0.4235
  253MOL0     N34037   9.624   1.522   4.747  1.1347  0.1435 -0.3065
  253MOL0     C34038   9.720   1.472   4.662 -0.2441  0.1665 -0.5968
  253MOL0     C34039   9.678   1.503   4.542 -0.5260  0.5558  0.2161
  253MOL0     C34040   9.748   1.475   4.415  0.6952 -0.0991 -0.5474
  253MOL0     C34041   9.742   1.331   4.385  1.3997  0.0542  0.5684
  253MOL0     C34042   9.610   1.284   4.324 -0.3829  0.9493  0.2707
  253MOL0     C34043   9.573   1.362   4.201  0.3147  0.0748  0.6952
  253MOL0     O34044   9.440   1.326   4.136 -0.3463  0.2203  0.3606
  253MOL0     C34045   9.324   1.398   4.169  0.6354  0.3030  0.1010
  253MOL0     C34046   9.294   1.484   4.285 -0.3129  0.4832  0.5504
  253MOL0     C34047   9.169   1.545   4.310 -0.6497  0.5267  0.4736
  253MOL0     C34048   9.150   1.629   4.431 -0.3113  0.6321 -0.8707
  253MOL0     C34049   9.058   1.514   4.226  0.0301 -0.2373  0.5078
  253MOL0     C34050   8.919   1.576   4.227 -0.0859  0.3624 -0.1186
  253MOL0     O34051   8.902   1.698   4.296 -0.1118  0.7641 -0.0483
  253MOL0     C34052   8.773   1.733   4.328  0.3693  0.1081  0.7550
  253MOL0     C34053   8.711   1.833   4.255 -0.0540 -0.6845  0.6480
  253MOL0     C34054   8.577   1.878   4.289 -0.6920 -0.2699 -0.2626
  253MOL0     C34055   8.515   1.823   4.406  0.2694  1.0822 -0.6991
  253MOL0     O34056   8.382   1.854   4.443  0.0484 -0.1572 -0.0715
  253MOL0     C34057   8.348   1.892   4.581 -0.3074 -0.2007  0.1652
  253MOL0     C34058   8.212   1.966   4.560 -0.3797  0.5828 -0.8558
  253MOL0     C34059   8.090   1.887   4.520 -0.3028  0.8145  0.3048
  253MOL0     C34060   7.961   1.951   4.574  0.1497  1.1256  0.4778
  253MOL0     C34061   7.840   1.858   4.537 -0.0508  0.3006  0.0678
  253MOL0     C34062   7.707   1.915   4.594 -0.9603 -0.0995  0.1609
  253MOL0     C34063   7.596   1.810   4.625 -0.1935 -0.1577 -0.0391
  253MOL0     C34064   7.484   1.880   4.702 -0.2970  0.1637  0.7172
  253MOL0    Cl34065   7.354   1.752   4.734  0.3663 -0.1463  0.1265
  253MOL0     C34066   8.573   1.717   4.484 -0.0477 -0.3416 -0.3173
  253MOL0     C34067   8.699   1.676   4.438 -0.4086  0.0631 -0.5476
  253MOL0     O34068   8.834   1.513   4.164 -0.0398 -0.5318  0.4241
  253MOL0     C34069   9.083   1.428   4.111 -0.7736 -0.1351 -0.3504
  253MOL0     C34070   9.212   1.376   4.086 -0.7588  0.4536 -0.1078
  253MOL0     N34071   9.569   1.578   4.557 -0.1936  0.5985  0.4688
  253MOL0     N34072   9.535   1.600   4.675  0.3627  0.1950  0.2340
  253MOL0     C34073  10.415   1.308   5.235 -0.3177  0.1600  1.3819
  253MOL0     C34074  10.540   1.295   5.305  0.1420 -0.2474  0.3840
  253MOL0     C34075  10.901   1.046   5.466 -0.8166  0.3535  0.3636
  253MOL0     C34076  11.006   1.098   5.391  0.0061 -0.4591 -0.2968
  253MOL0     C34077  11.133   1.100   5.440  0.4770  0.0291 -0.2655
  253MOL0     C34078  11.160   1.023   5.554 -0.3166 -0.8326  0.1377
  253MOL0     O34079  11.289   0.997   5.591  0.5674 -0.0131 -0.0559
  253MOL0     C34080  11.400   1.007   5.498 -0.0241 -0.0133  0.9696
  253MOL0     C34081  11.517   0.944   5.560  0.4520  0.1174 -0.0716
  253MOL0     C34082  11.632   0.918   5.462 -0.4444  0.1912  0.2439
  253MOL0     C34083  11.756   0.873   5.538  0.1935 -0.0687  0.2598
  253MOL0     C34084  11.879   0.870   5.460  0.1123  0.3873  0.1720
  253MOL0     C34085  11.989   0.877   5.405  0.9738  0.2699 -0.0266
  253MOL0     C34086  11.062   0.952   5.622  0.1622 -0.8050 -0.5563
  253MOL0     C34087  10.927   0.970   5.582  0.4805  0.4366  0.0325
  253MOL0     H34088  10.612   0.979   5.210 -0.1365 -0.2996  3.8178
  253MOL0     H34089  10.410   0.983   5.111  3.8679 -0.3274 -1.7763
  253MOL0     H34090  10.277   1.160   4.899 -1.1857  1.7858 -0.7797
  253MOL0     H34091  10.225   1.031   5.007  0.6365 -1.2092 -2.2684
  253MOL0     H34092  10.045   1.262   4.935  1.3006 -0.4294 -3.1235
  253MOL0     H34093  10.054   1.113   4.850  2.9137 -0.3552 -0.4777
  253MOL0     H34094  10.010   0.986   5.055 -0.6546 -0.6619 -1.4084
  253MOL0     H34095   9.999   1.146   5.141 -0.2719  1.4399 -0.5854
  253MOL0     H34096   9.823   1.045   4.907 -2.6520 -1.4148  0.5111
  253MOL0     H34097   9.771   1.023   5.056  0.4746  1.0126  0.9639
  253MOL0     H34098   9.766   1.277   5.094  0.7211  1.3310 -0.7347
  253MOL0     H34099   9.836   1.303   4.927 -1.4809  0.4196 -0.7366
  253MOL0     H34100   9.642   1.232   4.829 -0.2838 -2.8533  0.0091
  253MOL0     H34101   9.571   1.166   4.977  1.6504 -0.1258 -0.4705
  253MOL0     H34102   9.463   1.373   4.929 -0.3764  1.5462  0.3413
  253MOL0     H34103   9.566   1.408   5.063  0.2143 -1.0904 -0.0831
  253MOL0     H34104   9.737   1.502   4.919  0.3561  1.2925 -1.9531
  253MOL0     H34105   9.594   1.597   4.943  1.2673  0.0659  0.7178
  253MOL0     H34106   9.814   1.424   4.688 -0.9781  0.2648  2.6007
  253MOL0     H34107   9.723   1.553   4.343  1.2589  1.6175  1.0412
  253MOL0     H34108   9.852   1.496   4.438  0.0092  0.8795  2.0319
  253MOL0     H34109   9.787   1.274   4.467  3.3430  0.4475 -0.1602
  253MOL0     H34110   9.818   1.315   4.308  0.0121  1.7450 -1.2514
  253MOL0     H34111   9.525   1.276   4.393  0.3796  0.1739  1.1548
  253MOL0     H34112   9.625   1.180   4.293  0.0998  1.1900 -0.3227
  253MOL0     H34113   9.642   1.351   4.117 -0.8180 -2.6068  0.0191
  253MOL0     H34114   9.566   1.467   4.232 -0.5144 -0.4621  2.5028
  253MOL0     H34115   9.374   1.497   4.357  0.4441  0.0977 -0.2033
  253MOL0     H34116   9.175   1.733   4.409  0.2343  0.2633 -2.1113
  253MOL0     H34117   9.052   1.611   4.477 -0.0811 -2.9104 -1.4508
  253MOL0     H34118   9.217   1.588   4.508 -3.9816 -1.1712  1.6628
  253MOL0     H34119   8.769   1.881   4.177  2.0943 -1.7847  1.4954
  253MOL0     H34120   8.526   1.956   4.234  0.4311 -0.6275 -1.8512
  253MOL0     H34121   8.336   1.807   4.649 -4.3488  0.7679  0.8899
  253MOL0     H34122   8.414   1.960   4.636 -0.6629 -0.5661  1.0722
  253MOL0     H34123   8.193   2.018   4.655  0.9319  0.9297 -0.7620
  253MOL0     H34124   8.237   2.044   4.488  1.5371  0.1683 -0.7029
  253MOL0     H34125   8.089   1.789   4.568 -0.3516  1.4170  1.5601
  253MOL0     H34126   8.083   1.857   4.415  1.9917 -0.9753  0.5767
  253MOL0     H34127   7.969   1.961   4.683  1.2900 -2.8800  0.9231
  253MOL0     H34128   7.951   2.043   4.517  1.6256  0.1913 -1.3886
  253MOL0     H34129   7.862   1.762   4.585  3.1183  2.0457  2.4538
  253MOL0     H34130   7.836   1.833   4.430  2.5012 -0.5335  0.1050
  253MOL0     H34131   7.726   1.963   4.691  1.4751  0.3064 -0.4422
  253MOL0     H34132   7.672   1.988   4.522  0.9987 -0.6968 -1.5014
  253MOL0     H34133   7.635   1.723   4.680 -0.2448  0.1981  0.5652
  253MOL0     H34134   7.555   1.765   4.534  0.5797 -1.6378  0.3117
  253MOL0     H34135   7.445   1.965   4.645  1.7603  1.4236  1.0997
  253MOL0     H34136   7.522   1.912   4.799 -0.9180 -0.8035  1.2979
  253MOL0     H34137   8.527   1.675   4.573  2.9294 -2.0830  0.5325
  253MOL0     H34138   8.747   1.598   4.497 -0.2616  0.7404  0.2463
  253MOL0     H34139   9.010   1.384   4.043  0.7084  0.1178 -2.1976
  253MOL0     H34140   9.233   1.301   4.011  1.4848  0.7474  0.1403
  253MOL0     H34141  10.352   1.394   5.256 -0.1249  0.5668  0.3095
  253MOL0     H34142  10.571   1.371   5.376 -1.8449 -1.6857  2.9651
  253MOL0     H34143  10.981   1.144   5.296 -2.3297  1.1901  1.0164
  253MOL0     H34144  11.218   1.137   5.384  1.0985  0.2517  0.8029
  253MOL0     H34145  11.380   0.969   5.397 -0.2916  2.0376  0.1959
  253MOL0     H34146  11.428   1.111   5.479  0.5905  0.2205  3.0074
  253MOL0     H34147  11.475   0.853   5.605 -0.2538  2.0018  3.5039
  253MOL0     H34148  11.544   0.998   5.651  1.4757  0.8216 -0.7828
  253MOL0     H34149  11.655   1.014   5.415 -2.1717  1.8508  2.5141
  253MOL0     H34150  11.618   0.843   5.384 -1.7718  0.7147 -0.0549
  253MOL0     H34151  11.742   0.775   5.585  1.4899  0.2155  1.2871
  253MOL0     H34152  11.778   0.947   5.615  1.4170  0.2094 -0.3335
  253MOL0     H34153  12.078   0.873   5.346  0.1880 -4.3732 -1.2633
  253MOL0     H34154  11.080   0.874   5.695 -1.2177 -1.8690 -1.2982
  253MOL0     H34155  10.840   0.914   5.616  0.4550  1.1299  1.1957
  254MOL0     O34156   7.191   4.220   4.454 -0.3189 -0.1751  0.4191
  254MOL0     C34157   7.209   4.180   4.343  0.2449  0.3341 -1.0549
  254MOL0     O34158   7.112   4.165   4.248  0.1795  0.3527  0.5419
  254MOL0     C34159   6.980   4.196   4.247 -0.6060 -0.2185 -0.5890
  254MOL0     C34160   6.901   4.207   4.367  0.0834  0.3930 -1.0224
  254MOL0     C34161   6.761   4.206   4.355 -0.4562 -0.7485 -0.3087
  254MOL0     C34162   6.700   4.206   4.229  0.2470 -0.4150 -0.1020
  254MOL0     O34163   6.560   4.200   4.201 -0.2976 -0.3140  0.2905
  254MOL0     C34164   6.479   4.168   4.306 -0.2338 -0.0519  0.3286
  254MOL0     C34165   6.340   4.127   4.259 -0.3925  0.5233 -0.1002
  254MOL0     C34166   6.290   4.206   4.128 -0.4232  0.1797 -0.4967
  254MOL0     C34167   6.194   4.129   4.035 -0.0191  0.2547 -0.9969
  254MOL0     C34168   6.060   4.112   4.104  0.1457  0.3651 -0.9371
  254MOL0     C34169   5.973   4.026   4.009 -0.4958  0.3336  0.0885
  254MOL0     C34170   5.823   4.026   4.047 -0.0059  0.0937 -0.3545
  254MOL0     C34171   5.809   3.968   4.188  0.4716 -0.7907 -0.0691
  254MOL0     N34172   5.664   3.963   4.221  0.4355  0.0663  0.3121
  254MOL0     C34173   5.568   3.902   4.144  0.3672  0.3100 -0.3123
  254MOL0     C34174   5.454   3.945   4.206 -0.7177 -0.4999  0.2084
  254MOL0     C34175   5.310   3.911   4.173  0.1551 -1.2252  0.4586
  254MOL0     C34176   5.234   3.831   4.287  0.4004 -0.4401 -0.5172
  254MOL0     C34177   5.248   3.682   4.257  0.8102 -0.5083  0.4633
  254MOL0     C34178   5.148   3.599   4.340 -0.1854 -0.3341 -0.4183
  254MOL0     O34179   5.009   3.633   4.292 -0.6853 -0.5199  0.4071
  254MOL0     C34180   4.906   3.562   4.340 -0.4936 -0.2251 -0.6049
  254MOL0     C34181   4.778   3.622   4.327 -0.0754 -0.1439  0.0152
  254MOL0     C34182   4.662   3.563   4.366  0.1262  0.4017 -0.2634
  254MOL0     C34183   4.537   3.632   4.321  0.3366 -0.4111 -0.1550
  254MOL0     C34184   4.672   3.436   4.433  0.5660  0.1281 -0.5421
  254MOL0     C34185   4.554   3.365   4.478  0.2746 -0.1234 -0.3076
  254MOL0     O34186   4.583   3.264   4.565  0.6447  0.1616 -0.0192
  254MOL0     C34187   4.477   3.201   4.628  0.5616  0.0106  0.1707
  254MOL0     C34188   4.441   3.231   4.759 -0.0433 -0.7272 -0.0260
  254MOL0     C34189   4.340   3.159   4.832  1.0118 -1.2688  0.0887
  254MOL0     C34190   4.260   3.062   4.764  0.4997 -0.8282  0.0223
  254MOL0     O34191   4.153   2.999   4.831 -0.4438 -0.2321  0.0791
  254MOL0     C34192   4.079   2.911   4.756  0.6122 -0.8324  0.3984
  254MOL0     C34193   3.959   2.856   4.840  0.2050  0.9424  0.1637
  254MOL0     C34194   3.848   2.953   4.843 -0.0910 -0.3493 -0.0782
  254MOL0     C34195   3.721   2.905   4.915  0.1072 -0.5456  1.3364
  254MOL0     C34196   3.737   2.910   5.078  0.9203 -0.0870 -0.0517
  254MOL0     C34197   3.624   2.835   5.153  0.0038 -0.0068  0.0153
  254MOL0     C34198   3.619   2.876   5.306 -0.2064 -0.0030  0.0230
  254MOL0     C34199   3.506   2.827   5.392  0.1117  0.0550 -0.1609
  254MOL0    Cl34200   3.481   2.656   5.374  0.3105 -0.5811 -0.1036
  254MOL0     C34201   4.303   3.029   4.637  1.0614 -0.3638  0.4801
  254MOL0     C34202   4.398   3.102   4.562 -0.2265 -0.5447 -0.1667
  254MOL0     O34203   4.445   3.400   4.446  0.1760 -0.3109 -0.0648
  254MOL0     C34204   4.797   3.378   4.457 -0.6655  0.1639 -0.5990
  254MOL0     C34205   4.912   3.437   4.407  0.3021 -0.7447 -0.0575
  254MOL0     N34206   5.487   4.032   4.309 -0.0596  0.1387 -0.5087
  254MOL0     N34207   5.608   4.041   4.310  0.6678 -0.2058 -0.8559
  254MOL0     C34208   6.780   4.204   4.121 -0.1638 -0.0657 -0.5844
  254MOL0     C34209   6.922   4.201   4.125  0.6242 -0.1071  0.5864
  254MOL0     C34210   7.350   4.164   4.296  0.1324  0.3753 -0.0604
  254MOL0     C34211   7.461   4.148   4.388  0.5512  0.2569  1.0269
  254MOL0     C34212   7.594   4.136   4.343 -0.0124 -0.1675  0.4304
  254MOL0     C34213   7.620   4.141   4.209 -0.3962  0.4793  0.2025
  254MOL0     O34214   7.733   4.121   4.148  0.2087  0.4877  0.1756
  254MOL0     C34215   7.860   4.123   4.220  0.7489 -0.2143 -0.3000
  254MOL0     C34216   7.972   4.095   4.118 -0.4796  0.2913 -0.8157
  254MOL0     C34217   7.994   4.211   4.026 -0.3634 -0.5129  0.9879
  254MOL0     C34218   8.113   4.201   3.921  0.5409 -0.1868  0.3318
  254MOL0     C34219   8.234   4.174   3.991  0.2917  0.0283 -0.0555
  254MOL0     C34220   8.334   4.135   4.049 -0.2317  0.1052  0.3324
  254MOL0     C34221   7.521   4.163   4.122 -0.6442 -0.3985  0.6711
  254MOL0     C34222   7.383   4.178   4.162  0.2795  0.9252  0.3239
  254MOL0     H34223   6.950   4.205   4.463 -0.2225  0.6303 -0.8610
  254MOL0     H34224   6.714   4.228   4.451  1.7329 -0.1355  0.7078
  254MOL0     H34225   6.521   4.078   4.352 -0.9173 -1.4373 -1.6655
  254MOL0     H34226   6.466   4.257   4.368  0.6569  1.7004 -1.8558
  254MOL0     H34227   6.332   4.019   4.246 -2.5289  0.4795  1.1382
  254MOL0     H34228   6.275   4.148   4.344 -1.4971 -3.8803  0.3397
  254MOL0     H34229   6.251   4.300   4.168  0.4523 -0.9335  3.4533
  254MOL0     H34230   6.371   4.241   4.064 -0.1943 -0.9043 -0.8264
  254MOL0     H34231   6.181   4.175   3.936 -0.5406 -0.5223 -1.2944
  254MOL0     H34232   6.236   4.028   4.033 -1.3264 -0.3388  0.1999
  254MOL0     H34233   6.063   4.065   4.202 -3.4584 -0.2337 -0.9950
  254MOL0     H34234   6.014   4.211   4.117 -0.1448  0.1109 -0.0292
  254MOL0     H34235   5.978   4.067   3.907 -3.2043 -1.5989 -0.9210
  254MOL0     H34236   6.017   3.926   4.007  1.5102  1.1276  1.2512
  254MOL0     H34237   5.785   4.129   4.052  1.8504  0.7739  2.1849
  254MOL0     H34238   5.756   3.973   3.979 -0.1790  0.8742 -0.8059
  254MOL0     H34239   5.844   4.037   4.266 -1.1750  0.1017 -0.0583
  254MOL0     H34240   5.859   3.871   4.180  1.5726 -0.2512  0.0893
  254MOL0     H34241   5.588   3.845   4.055 -4.4322 -1.2745 -0.6717
  254MOL0     H34242   5.262   4.008   4.157 -0.4386 -1.1936  2.2642
  254MOL0     H34243   5.304   3.866   4.073 -0.0746  1.1745 -0.6850
  254MOL0     H34244   5.131   3.867   4.291  0.2734 -0.9091  2.3675
  254MOL0     H34245   5.275   3.856   4.386  0.0091  2.6355 -1.0345
  254MOL0     H34246   5.352   3.656   4.281  1.6618  2.1235 -0.0662
  254MOL0     H34247   5.230   3.657   4.152  1.8817 -2.3990  0.6810
  254MOL0     H34248   5.162   3.632   4.443 -1.9646  0.7809 -0.4742
  254MOL0     H34249   5.165   3.492   4.330 -1.1901 -0.5359 -0.1247
  254MOL0     H34250   4.776   3.719   4.279  1.3679 -1.1585 -2.2603
  254MOL0     H34251   4.511   3.598   4.221  2.0461 -1.5154 -0.2709
  254MOL0     H34252   4.449   3.614   4.383 -0.0794 -0.0911 -0.6497
  254MOL0     H34253   4.552   3.740   4.321 -0.3463 -0.3096 -0.7353
  254MOL0     H34254   4.488   3.318   4.804  0.3795  1.3897 -4.0924
  254MOL0     H34255   4.322   3.182   4.937  0.5088 -3.3758  0.5173
  254MOL0     H34256   4.045   2.958   4.663  1.5715 -0.0006  0.4516
  254MOL0     H34257   4.143   2.826   4.732  2.3396  0.6069 -0.3932
  254MOL0     H34258   3.920   2.763   4.796  0.7374  1.7474 -2.1901
  254MOL0     H34259   3.998   2.825   4.937  1.9180  0.1245 -0.7380
  254MOL0     H34260   3.822   2.979   4.740 -0.8248 -1.4712 -0.2043
  254MOL0     H34261   3.884   3.043   4.892  1.8106 -1.2262  0.2440
  254MOL0     H34262   3.643   2.977   4.888  0.6641  0.1141  1.4613
  254MOL0     H34263   3.686   2.809   4.876 -3.4637  1.3343 -0.6477
  254MOL0     H34264   3.751   3.014   5.110  0.1356  0.7652 -2.2751
  254MOL0     H34265   3.829   2.856   5.099 -0.6084 -3.7987 -1.9476
  254MOL0     H34266   3.537   2.878   5.103  0.8468 -0.0816 -1.5600
  254MOL0     H34267   3.623   2.727   5.136  0.0901  0.1976 -1.3599
  254MOL0     H34268   3.613   2.986   5.309 -0.5303  0.0855 -2.2700
  254MOL0     H34269   3.712   2.845   5.354  0.2288  2.0798  0.6561
  254MOL0     H34270   3.420   2.882   5.354 -0.4037 -1.2803 -0.9770
  254MOL0     H34271   3.528   2.852   5.496  0.2328  0.0678 -0.1883
  254MOL0     H34272   4.254   2.946   4.587 -1.7499  2.4147 -1.7735
  254MOL0     H34273   4.422   3.061   4.464  0.3033 -2.9653  0.8998
  254MOL0     H34274   4.803   3.281   4.507  2.1302 -0.4946 -2.0075
  254MOL0     H34275   5.003   3.386   4.437 -0.7984 -2.0737  1.1855
  254MOL0     H34276   6.743   4.192   4.019 -1.7720 -1.5611  0.1098
  254MOL0     H34277   6.975   4.176   4.034 -0.4086 -1.0858  0.2232
  254MOL0     H34278   7.449   4.147   4.496  1.7807  0.0661  1.1831
  254MOL0     H34279   7.673   4.111   4.414  0.8255 -0.1432 -0.4799
  254MOL0     H34280   7.878   4.222   4.261  0.7592 -0.3629  0.0566
  254MOL0     H34281   7.859   4.041   4.293  2.7814 -0.5999 -0.6396
  254MOL0     H34282   7.939   4.006   4.063 -2.2170 -1.8076  3.1108
  254MOL0     H34283   8.064   4.064   4.167  0.3582  1.9116 -1.3216
  254MOL0     H34284   8.008   4.306   4.080  0.5806  1.8138 -2.9222
  254MOL0     H34285   7.905   4.227   3.965 -0.7854  0.2764  1.7719
  254MOL0     H34286   8.118   4.300   3.874  2.9530 -0.8042 -0.8630
  254MOL0     H34287   8.092   4.134   3.837 -1.6217  2.0603 -1.0637
  254MOL0     H34288   8.431   4.102   4.080 -0.7014  0.3107  2.1289
  254MOL0     H34289   7.529   4.170   4.014 -0.0740 -2.2926  0.5565
  254MOL0     H34290   7.310   4.178   4.082  1.3205 -2.5508 -0.8134
  255MOL0     O34291   6.951  11.106   2.434  0.2373  0.9448 -0.2940
  255MOL0     C34292   7.030  11.111   2.528 -0.1568 -0.1654  0.0889
  255MOL0     O34293   7.036  11.023   2.629 -0.8851  0.6935 -0.3693
  255MOL0     C34294   6.921  10.945   2.644  0.2983 -0.0180  0.4806
  255MOL0     C34295   6.805  10.976   2.723  0.0361 -0.1576  1.1526
  255MOL0     C34296   6.714  10.880   2.747  0.0246  0.5339  0.1984
  255MOL0     C34297   6.714  10.758   2.675 -0.6641  0.8517 -0.5173
  255MOL0     O34298   6.632  10.653   2.708  0.1981  0.9661  0.1694
  255MOL0     C34299   6.488  10.680   2.691 -0.6954  0.8292  0.0321
  255MOL0     C34300   6.452  10.727   2.548  0.2373 -0.7339  0.2149
  255MOL0     C34301   6.314  10.800   2.535  0.5295  0.4821  0.0032
  255MOL0     C34302   6.278  10.856   2.405  0.2840  0.3470  0.2898
  255MOL0     C34303   6.131  10.912   2.394  0.1382  0.5351 -0.0135
  255MOL0     C34304   6.022  10.800   2.388 -0.5972  0.2512  0.0786
  255MOL0     C34305   5.888  10.874   2.367  0.0298 -0.6933 -0.5671
  255MOL0     C34306   5.775  10.769   2.358 -0.4359  0.2307  0.6347
  255MOL0     N34307   5.649  10.841   2.343 -0.9451  0.1364  0.0310
  255MOL0     C34308   5.602  10.897   2.228 -0.1651  0.0079  0.3081
  255MOL0     C34309   5.482  10.941   2.269 -0.1389  0.9883  0.2761
  255MOL0     C34310   5.373  11.002   2.182  0.5865 -0.7058  0.0838
  255MOL0     C34311   5.247  10.904   2.163  0.4204 -1.1665  0.2448
  255MOL0     C34312   5.179  10.960   2.033  0.1221 -0.0600  0.4328
  255MOL0     C34313   5.129  11.101   2.028 -0.1114  0.6674  0.3333
  255MOL0     O34314   5.085  11.129   1.893 -0.1428 -0.0089 -0.4423
  255MOL0     C34315   4.959  11.109   1.842  0.2827  0.9170 -0.7271
  255MOL0     C34316   4.858  11.043   1.915 -0.2412 -0.6765  0.0463
  255MOL0     C34317   4.735  11.001   1.855  0.6228  0.3766 -0.4245
  255MOL0     C34318   4.642  10.920   1.945  0.3636  0.4286 -0.4905
  255MOL0     C34319   4.710  11.025   1.724  0.6973 -1.1369  0.7830
  255MOL0     C34320   4.591  10.999   1.646  0.0375  1.1509  0.5271
  255MOL0     O34321   4.588  11.031   1.513 -0.0747 -0.0819 -0.1808
  255MOL0     C34322   4.467  11.034   1.439  0.4368  0.3483  0.3412
  255MOL0     C34323   4.341  10.993   1.484  0.8912 -0.1321 -0.1336
  255MOL0     C34324   4.233  10.996   1.390  0.2719  0.1245 -1.1490
  255MOL0     C34325   4.250  11.015   1.253  0.2225 -0.2080 -0.2944
  255MOL0     O34326   4.133  11.008   1.171  0.0667  0.0602 -0.2206
  255MOL0     C34327   4.168  11.004   1.030 -0.4106  0.1135  0.1076
  255MOL0     C34328   4.041  10.963   0.946 -0.4518 -0.0156 -0.4768
  255MOL0     C34329   3.945  11.076   0.949 -0.3777  0.3501  1.3390
  255MOL0     C34330   3.815  11.044   0.873 -0.4372  0.3687 -0.3166
  255MOL0     C34331   3.715  11.159   0.881 -0.2514  0.0805  0.6171
  255MOL0     C34332   3.586  11.131   0.792 -0.3079 -0.4626 -0.3298
  255MOL0     C34333   3.489  11.248   0.804  0.1940 -0.5590  0.6754
  255MOL0     C34334   3.346  11.233   0.747 -0.5032  0.4413 -0.6933
  255MOL0    Cl34335   3.321  11.172   0.584 -0.0521 -0.2708  0.2528
  255MOL0     C34336   4.392  11.037   1.205  0.3543  0.6396  0.1043
  255MOL0     C34337   4.494  11.060   1.302  0.0752  0.0592  0.6552
  255MOL0     O34338   4.497  10.945   1.706 -0.4281 -0.1150  0.0604
  255MOL0     C34339   4.812  11.088   1.658  0.4387 -1.1457 -0.2044
  255MOL0     C34340   4.932  11.134   1.711  0.2927  0.1433  0.4910
  255MOL0     N34341   5.468  10.923   2.407  0.6926  0.1289  0.1755
  255MOL0     N34342   5.573  10.866   2.455 -0.3203 -0.2595  0.2739
  255MOL0     C34343   6.825  10.743   2.588  0.7850  0.5857  0.9350
  255MOL0     C34344   6.925  10.835   2.570  0.0682  0.6841  0.0286
  255MOL0     C34345   7.135  11.219   2.539  0.3924  1.1810 -0.5970
  255MOL0     C34346   7.151  11.310   2.434  0.5065 -0.4259  0.0235
  255MOL0     C34347   7.248  11.417   2.453  0.1704 -0.5684  0.3421
  255MOL0     C34348   7.336  11.427   2.564 -0.4083  0.2622 -0.4353
  255MOL0     O34349   7.427  11.532   2.561 -0.5161  0.0414 -0.2148
  255MOL0     C34350   7.503  11.556   2.688 -0.1029  0.5336  0.9694
  255MOL0     C34351   7.602  11.674   2.652 -0.5558  0.6316  0.2250
  255MOL0     C34352   7.679  11.648   2.531 -0.4279  0.2245 -0.2167
  255MOL0     C34353   7.780  11.760   2.508 -1.5234 -0.1873 -0.6075
  255MOL0     C34354   7.906  11.762   2.582 -0.7318 -0.0745 -0.3855
  255MOL0     C34355   8.004  11.771   2.659  0.6674  0.3943 -0.0237
  255MOL0     C34356   7.319  11.334   2.657  0.5092  0.4847 -0.0778
  255MOL0     C34357   7.229  11.225   2.642  0.1954 -1.1445 -0.7374
  255MOL0     H34358   6.785  11.071   2.772 -2.4766 -0.2066  0.3464
  255MOL0     H34359   6.650  10.895   2.834 -2.3498 -3.1969 -0.6927
  255MOL0     H34360   6.430  10.588   2.696 -0.8126  0.8564 -0.6231
  255MOL0     H34361   6.437  10.747   2.761 -1.7891  1.6387 -1.4746
  255MOL0     H34362   6.531  10.794   2.513 -1.1202  1.0423  0.4001
  255MOL0     H34363   6.445  10.640   2.482 -0.3366 -0.0555 -0.6387
  255MOL0     H34364   6.242  10.725   2.567 -1.6192  1.0975 -2.9759
  255MOL0     H34365   6.312  10.881   2.608 -0.6064 -0.3927  0.9726
  255MOL0     H34366   6.343  10.941   2.382 -0.8822  1.0182 -0.6283
  255MOL0     H34367   6.292  10.786   2.321  0.2459  0.8379 -0.1326
  255MOL0     H34368   6.105  10.975   2.480  2.4511  1.6635 -0.0538
  255MOL0     H34369   6.113  10.966   2.300 -0.2864 -0.5722 -0.5880
  255MOL0     H34370   6.050  10.740   2.301 -0.0418 -0.0799  0.4852
  255MOL0     H34371   6.024  10.740   2.479  1.8009 -0.0684 -0.1200
  255MOL0     H34372   5.868  10.934   2.457 -2.9410  3.5133 -3.6297
  255MOL0     H34373   5.888  10.945   2.285 -2.1831 -1.4403 -1.2956
  255MOL0     H34374   5.779  10.699   2.442  0.3831  1.8478  2.0193
  255MOL0     H34375   5.796  10.707   2.271  0.9892  1.5704 -0.0321
  255MOL0     H34376   5.641  10.896   2.127 -2.2643 -0.8242 -0.5667
  255MOL0     H34377   5.331  11.093   2.225 -0.5235 -2.7229  3.6436
  255MOL0     H34378   5.415  11.022   2.082 -2.2805  1.3357 -0.8441
  255MOL0     H34379   5.178  10.915   2.247  0.7721  0.1821  0.3906
  255MOL0     H34380   5.276  10.800   2.145 -0.1600 -0.9321 -2.4646
  255MOL0     H34381   5.094  10.896   2.008  0.7496 -0.6301 -0.3037
  255MOL0     H34382   5.256  10.945   1.958  1.0148  2.5695  0.7024
  255MOL0     H34383   5.216  11.163   2.050  1.8242 -2.6064  2.9290
  255MOL0     H34384   5.056  11.113   2.109 -0.7482  0.8951 -0.2591
  255MOL0     H34385   4.878  11.031   2.021 -0.5054  2.3754  0.5276
  255MOL0     H34386   4.683  10.890   2.042  0.1469 -0.6372 -0.7160
  255MOL0     H34387   4.558  10.987   1.964 -1.2958 -0.8012 -2.9640
  255MOL0     H34388   4.609  10.827   1.900  0.0659  0.6034 -0.6325
  255MOL0     H34389   4.320  10.950   1.582 -1.1667  1.5387  0.2160
  255MOL0     H34390   4.135  10.953   1.409  1.2275 -1.5382  0.2964
  255MOL0     H34391   4.195  11.099   0.982 -1.5405  0.1192 -0.5520
  255MOL0     H34392   4.243  10.928   1.005 -0.1842  0.5921 -0.6968
  255MOL0     H34393   4.088  10.961   0.847 -0.5274  0.9614 -0.5377
  255MOL0     H34394   4.006  10.866   0.983 -0.1793 -0.8367 -2.2725
  255MOL0     H34395   3.994  11.166   0.911  1.4152 -1.0672  0.1612
  255MOL0     H34396   3.915  11.109   1.049 -1.2286  0.9206  0.9110
  255MOL0     H34397   3.844  11.028   0.769  2.0259  0.3423  0.3233
  255MOL0     H34398   3.780  10.949   0.915  1.7651 -1.4576 -2.2855
  255MOL0     H34399   3.769  11.247   0.845  0.6413  0.1691  2.0934
  255MOL0     H34400   3.677  11.183   0.980 -3.1259  0.0335 -0.3762
  255MOL0     H34401   3.614  11.115   0.688  2.8384  2.4750 -0.1023
  255MOL0     H34402   3.536  11.037   0.819  0.4872 -1.2799 -1.6195
  255MOL0     H34403   3.545  11.335   0.766  1.9139 -1.9153 -0.0583
  255MOL0     H34404   3.467  11.269   0.909 -3.3484 -0.0947 -0.0621
  255MOL0     H34405   3.304  11.334   0.757 -0.6848  0.2253  1.1132
  255MOL0     H34406   3.291  11.169   0.817 -0.9525  0.0550 -1.3903
  255MOL0     H34407   4.412  11.055   1.100  2.7546  2.6259  0.7921
  255MOL0     H34408   4.591  11.105   1.284 -0.2591  0.0180 -1.3963
  255MOL0     H34409   4.796  11.116   1.554  0.1791 -0.3599  0.0393
  255MOL0     H34410   5.006  11.183   1.649  0.7184  0.9977  1.6370
  255MOL0     H34411   6.836  10.655   2.525 -0.5488 -0.1479  1.6826
  255MOL0     H34412   7.001  10.803   2.499  0.0266  3.2881 -1.3335
  255MOL0     H34413   7.094  11.298   2.343  0.0671 -1.0563  0.3759
  255MOL0     H34414   7.255  11.494   2.376 -2.1231  0.2761  0.8878
  255MOL0     H34415   7.435  11.571   2.772 -1.2426  0.2982  0.1220
  255MOL0     H34416   7.563  11.466   2.700  0.5282  0.4220 -2.0898
  255MOL0     H34417   7.677  11.683   2.731  2.0028 -0.4862 -1.8867
  255MOL0     H34418   7.539  11.763   2.652  1.2005  1.9213  0.8749
  255MOL0     H34419   7.611  11.647   2.445  1.6551  1.0640 -1.9607
  255MOL0     H34420   7.733  11.553   2.543  3.3594  2.1729 -0.2571
  255MOL0     H34421   7.744  11.861   2.532 -2.0120  0.0673 -2.2516
  255MOL0     H34422   7.816  11.742   2.406 -0.7091  2.9563 -0.9971
  255MOL0     H34423   8.080  11.781   2.734 -0.6797  0.4241  1.3866
  255MOL0     H34424   7.373  11.325   2.751 -1.2993 -0.3232  0.9463
  255MOL0     H34425   7.220  11.155   2.724 -1.6280 -0.9699 -0.7461
  256MOL0     O34426   2.216   9.881   9.043 -0.6276  0.5835 -1.2272
  256MOL0     C34427   2.256   9.846   9.154 -0.4038  0.1011 -0.1340
  256MOL0     O34428   2.176   9.859   9.268 -0.5065  0.0863 -0.0915
  256MOL0     C34429   2.050   9.907   9.249  0.5856 -0.5104  0.7823
  256MOL0     C34430   2.011  10.023   9.317 -1.1714 -0.4568 -0.1683
  256MOL0     C34431   1.892  10.080   9.297  0.5521 -0.1795 -0.2496
  256MOL0     C34432   1.794  10.020   9.211 -0.1239  0.8269  0.6182
  256MOL0     O34433   1.669  10.075   9.180  0.0590  1.1457  0.0423
  256MOL0     C34434   1.591  10.138   9.279 -0.1416 -0.7964  0.0233
  256MOL0     C34435   1.560  10.285   9.237 -0.1807  0.2877 -0.1596
  256MOL0     C34436   1.487  10.286   9.110  0.1646 -0.1018 -0.4319
  256MOL0     C34437   1.455  10.426   9.052 -0.0555 -0.1697 -0.8220
  256MOL0     C34438   1.419  10.432   8.908 -0.6855 -0.1463 -0.2066
  256MOL0     C34439   1.315  10.325   8.874  0.0645 -0.5346 -0.4497
  256MOL0     C34440   1.249  10.357   8.737  0.7193  0.6693 -0.1480
  256MOL0     C34441   1.142  10.467   8.733  0.2567  0.5357  0.4434
  256MOL0     N34442   1.011  10.413   8.777  0.3114  0.0388  0.0130
  256MOL0     C34443   0.959  10.431   8.905  0.6745  0.7411 -0.4467
  256MOL0     C34444   0.829  10.394   8.888 -0.0194 -0.3835  0.1973
  256MOL0     C34445   0.714  10.420   8.987 -0.1284  0.6287  0.0033
  256MOL0     C34446   0.601  10.318   8.971  0.5605  0.3440  0.2581
  256MOL0     C34447   0.480  10.353   9.063  0.5700  0.2047 -0.6818
  256MOL0     C34448   0.351  10.283   9.022 -0.4929  0.5207  0.5330
  256MOL0     O34449   0.261  10.338   9.114  0.2794  0.1344  0.0743
  256MOL0     C34450   0.123  10.319   9.093 -0.9498 -0.1975  0.3809
  256MOL0     C34451   0.047  10.400   9.172  0.6478  0.1746 -0.8466
  256MOL0     C34452  -0.093  10.386   9.176 -1.1570 -0.3098  0.0483
  256MOL0     C34453  -0.182  10.475   9.255 -0.1460  0.7731 -0.0134
  256MOL0     C34454  -0.143  10.287   9.089  0.4136  0.2269 -0.2039
  256MOL0     C34455  -0.282  10.259   9.067  0.6015  0.4286 -0.6432
  256MOL0     O34456  -0.372  10.366   9.050 -0.5082 -0.3940 -0.6705
  256MOL0     C34457  -0.508  10.359   9.077 -0.0933  0.2487 -0.3554
  256MOL0     C34458  -0.595  10.249   9.085 -0.2679 -0.2988  0.0128
  256MOL0     C34459  -0.736  10.271   9.105 -0.8105 -0.7334 -0.7411
  256MOL0     C34460  -0.792  10.398   9.124 -0.8493 -0.0474 -0.2400
  256MOL0     O34461  -0.925  10.420   9.148  0.3086  0.5276  0.8127
  256MOL0     C34462  -1.013  10.312   9.173  0.0165  1.0718 -0.6093
  256MOL0     C34463  -1.145  10.371   9.224 -0.0442  0.5471 -0.1402
  256MOL0     C34464  -1.245  10.265   9.265  0.2303 -0.0040  0.8683
  256MOL0     C34465  -1.385  10.325   9.259  0.3271  0.3796 -0.4424
  256MOL0     C34466  -1.481  10.222   9.327  0.1380 -0.4471  0.0253
  256MOL0     C34467  -1.619  10.284   9.352 -0.4566 -0.2239  0.1297
  256MOL0     C34468  -1.701  10.180   9.430  0.3043 -0.0437  0.0513
  256MOL0     C34469  -1.820  10.246   9.492 -0.9285  0.4950  0.1480
  256MOL0    Cl34470  -1.921  10.123   9.584  0.0581 -0.3854  0.0509
  256MOL0     C34471  -0.703  10.506   9.122 -0.1839  0.7736  0.8031
  256MOL0     C34472  -0.565  10.488   9.090  1.0285 -0.2888  0.9552
  256MOL0     O34473  -0.309  10.142   9.079  0.4274  0.2037  0.5725
  256MOL0     C34474  -0.061  10.207   9.011 -0.3323  0.3177  0.3377
  256MOL0     C34475   0.075  10.221   9.005 -0.6523  0.9294  0.3217
  256MOL0     N34476   0.808  10.349   8.755 -0.1771 -0.0660  0.2790
  256MOL0     N34477   0.925  10.336   8.701  0.1505 -1.2179 -0.2257
  256MOL0     C34478   1.825   9.910   9.145 -1.0654 -0.5426 -1.0553
  256MOL0     C34479   1.952   9.852   9.167 -0.0904 -0.3223 -0.8195
  256MOL0     C34480   2.395   9.784   9.165  0.0353 -0.1266 -0.7513
  256MOL0     C34481   2.460   9.777   9.293 -0.0074  0.0437  0.2975
  256MOL0     C34482   2.574   9.690   9.307  0.2618  0.4813 -0.0091
  256MOL0     C34483   2.634   9.628   9.192 -0.5683 -0.2141 -1.1190
  256MOL0     O34484   2.747   9.561   9.232  0.7470 -0.2230  0.2932
  256MOL0     C34485   2.842   9.514   9.142 -1.1087  0.3835  0.6764
  256MOL0     C34486   2.965   9.611   9.140 -0.1618  0.5814  0.4448
  256MOL0     C34487   3.056   9.583   9.015  0.5190  0.5207  1.0516
  256MOL0     C34488   3.199   9.619   9.045  0.4931 -0.6327 -0.2945
  256MOL0     C34489   3.252   9.523   9.152 -0.4955 -0.2151  0.4728
  256MOL0     C34490   3.286   9.450   9.249  0.2429 -0.1568  0.0586
  256MOL0     C34491   2.578   9.652   9.068  0.0381  0.2725  1.0472
  256MOL0     C34492   2.461   9.725   9.055  0.7092 -0.2991 -0.2806
  256MOL0     H34493   2.072  10.068   9.395  0.3437 -0.0418 -1.5407
  256MOL0     H34494   1.871  10.168   9.356  2.1022 -1.3643  2.2211
  256MOL0     H34495   1.503  10.073   9.288  0.4979 -1.5887  0.7991
  256MOL0     H34496   1.642  10.141   9.376  0.2485  1.6144 -0.1960
  256MOL0     H34497   1.506  10.331   9.320  1.7057  2.4584 -0.0360
  256MOL0     H34498   1.652  10.344   9.234  0.9259 -1.2612  1.4759
  256MOL0     H34499   1.569  10.251   9.046  0.9810 -0.4938  0.7853
  256MOL0     H34500   1.400  10.221   9.123  0.1877  0.5430  4.9192
  256MOL0     H34501   1.369  10.462   9.111  0.6022 -1.1506  0.8123
  256MOL0     H34502   1.541  10.491   9.072 -0.9298  0.5416  0.8534
  256MOL0     H34503   1.405  10.538   8.884  2.9947 -0.0679 -2.9140
  256MOL0     H34504   1.508  10.412   8.847 -1.4258  0.3276 -1.4817
  256MOL0     H34505   1.373  10.232   8.872  1.9952  0.6286 -0.6175
  256MOL0     H34506   1.244  10.312   8.956  1.7559  1.4298  1.4664
  256MOL0     H34507   1.328  10.380   8.665  2.4093  1.4429  1.8414
  256MOL0     H34508   1.201  10.265   8.702  0.2718  0.8637 -0.0561
  256MOL0     H34509   1.138  10.495   8.627 -0.4876 -1.6877 -0.1799
  256MOL0     H34510   1.168  10.550   8.799 -0.6800 -1.0238  2.9248
  256MOL0     H34511   1.004  10.469   8.996 -0.6592 -2.3087  1.6509
  256MOL0     H34512   0.751  10.410   9.089  1.5222 -1.8468 -0.7546
  256MOL0     H34513   0.668  10.519   8.982  0.1516  0.6897 -2.0578
  256MOL0     H34514   0.631  10.220   9.009 -1.3375  0.6303  2.7389
  256MOL0     H34515   0.562  10.310   8.869 -0.8002 -0.9341  0.8399
  256MOL0     H34516   0.455  10.459   9.067 -3.5837 -0.6271  0.1395
  256MOL0     H34517   0.514  10.330   9.164 -0.6090  5.9585  1.3712
  256MOL0     H34518   0.353  10.173   9.029 -0.3719  0.3924 -1.0934
  256MOL0     H34519   0.333  10.307   8.917 -1.4243  1.6631  0.9439
  256MOL0     H34520   0.098  10.466   9.241  0.8307  1.1872 -1.9219
  256MOL0     H34521  -0.219  10.548   9.183 -1.2846 -0.3106 -0.5488
  256MOL0     H34522  -0.269  10.428   9.300 -0.7698  0.3122 -1.6296
  256MOL0     H34523  -0.123  10.525   9.333  0.0441  1.3498 -0.5207
  256MOL0     H34524  -0.563  10.149   9.054  2.2460  0.4992 -0.2087
  256MOL0     H34525  -0.807  10.190   9.092 -1.9480 -0.1985  1.7151
  256MOL0     H34526  -1.033  10.250   9.084  3.2741 -0.2166 -0.5549
  256MOL0     H34527  -0.967  10.244   9.245 -2.8612 -2.7069 -1.9501
  256MOL0     H34528  -1.125  10.425   9.317  0.7923  0.2942 -0.1648
  256MOL0     H34529  -1.179  10.432   9.140 -2.2763  2.9572  2.3308
  256MOL0     H34530  -1.213  10.230   9.364  2.0805  0.1127  0.3560
  256MOL0     H34531  -1.254  10.176   9.202  1.4581  0.4972 -0.0661
  256MOL0     H34532  -1.388  10.425   9.302  0.6702  0.3960 -0.4593
  256MOL0     H34533  -1.418  10.339   9.156 -0.1737 -0.5491 -0.4221
  256MOL0     H34534  -1.441  10.199   9.426 -0.6169  0.4915  0.5655
  256MOL0     H34535  -1.487  10.135   9.262 -1.0622  0.0353 -0.5472
  256MOL0     H34536  -1.624  10.367   9.423 -1.4903 -1.4328  1.5565
  256MOL0     H34537  -1.659  10.312   9.254  2.9369 -0.1755 -1.3797
  256MOL0     H34538  -1.645  10.133   9.511 -0.0925 -0.2349  0.2198
  256MOL0     H34539  -1.724  10.099   9.361 -1.6168  1.2893 -0.9772
  256MOL0     H34540  -1.885  10.282   9.412  0.1247  3.1775  0.3972
  256MOL0     H34541  -1.798  10.333   9.555  0.8533  0.0618  0.1731
  256MOL0     H34542  -0.736  10.609   9.136  0.2884  0.7911  1.8545
  256MOL0     H34543  -0.507  10.572   9.053  1.3143 -0.4676  0.9932
  256MOL0     H34544  -0.106  10.134   8.945 -2.0075  0.2954  1.4567
  256MOL0     H34545   0.122  10.146   8.942 -2.1138  1.6951 -1.7672
  256MOL0     H34546   1.753   9.868   9.075 -4.2394 -1.5480  2.4927
  256MOL0     H34547   1.970   9.765   9.105  0.1247  0.2168 -1.5263
  256MOL0     H34548   2.416   9.827   9.379  1.6949 -1.1042  1.9061
  256MOL0     H34549   2.624   9.687   9.403 -0.3821 -1.7841  0.3012
  256MOL0     H34550   2.871   9.413   9.172  0.7235  0.4514 -0.7019
  256MOL0     H34551   2.789   9.503   9.047  0.2988  0.7621 -0.1811
  256MOL0     H34552   3.028   9.615   9.229  1.2581 -2.7233 -0.2549
  256MOL0     H34553   2.917   9.708   9.125  1.5573  1.1485 -1.8706
  256MOL0     H34554   3.017   9.645   8.934  1.4558  0.8082  0.8148
  256MOL0     H34555   3.046   9.476   8.990  0.5265  0.8627 -0.5247
  256MOL0     H34556   3.192   9.720   9.088 -0.3848 -0.4610 -0.8115
  256MOL0     H34557   3.261   9.628   8.955 -1.0274 -0.0292 -1.3206
  256MOL0     H34558   3.304   9.376   9.324 -0.5529 -1.3457 -0.8926
  256MOL0     H34559   2.622   9.609   8.979 -3.1244 -0.7801 -0.1727
  256MOL0     H34560   2.410   9.724   8.959  3.0489  1.6880 -1.6437
  257MOL0     O34561   3.236   4.263   5.424 -0.7551  0.6079 -0.2330
  257MOL0     C34562   3.309   4.360   5.406  0.2817 -0.8330 -0.8495
  257MOL0     O34563   3.266   4.496   5.392 -0.3261 -0.0580 -0.3257
  257MOL0     C34564   3.129   4.529   5.406 -0.8556 -0.7715 -0.1490
  257MOL0     C34565   3.118   4.666   5.440 -0.1388  0.5576  0.1280
  257MOL0     C34566   3.001   4.729   5.443 -0.5731  0.2893 -0.6796
  257MOL0     C34567   2.887   4.656   5.436 -0.0350  0.3643  0.7782
  257MOL0     O34568   2.764   4.714   5.431 -0.6533  0.2464 -0.2148
  257MOL0     C34569   2.722   4.782   5.548 -0.1491 -0.0830  0.1174
  257MOL0     C34570   2.568   4.780   5.554  0.3223  0.1243 -0.2198
  257MOL0     C34571   2.509   4.900   5.477 -0.0652  0.0458  0.8994
  257MOL0     C34572   2.358   4.894   5.479  0.0232 -0.5076  0.6881
  257MOL0     C34573   2.302   4.774   5.404  0.0660 -0.1873  0.7191
  257MOL0     C34574   2.156   4.792   5.363  0.5604 -0.0451 -0.0717
  257MOL0     C34575   2.058   4.805   5.472 -0.4455 -0.0880 -0.4968
  257MOL0     C34576   1.999   4.668   5.489 -0.2284  0.9785  0.2495
  257MOL0     N34577   1.902   4.643   5.604 -0.0693  0.3605 -0.3458
  257MOL0     C34578   1.832   4.743   5.676 -0.2024 -0.7747 -0.1009
  257MOL0     C34579   1.778   4.669   5.778 -0.1207  0.0747  0.1286
  257MOL0     C34580   1.706   4.737   5.894  0.3055  0.0549 -0.1121
  257MOL0     C34581   1.684   4.639   6.009 -0.6282  1.3736 -0.0347
  257MOL0     C34582   1.667   4.709   6.140  0.8819 -0.3624  0.9086
  257MOL0     C34583   1.616   4.614   6.246 -0.1612  0.5004  0.5952
  257MOL0     O34584   1.473   4.599   6.228  0.0382  0.4246  0.0879
  257MOL0     C34585   1.404   4.509   6.311 -0.8869  0.3411 -0.4681
  257MOL0     C34586   1.465   4.449   6.419 -0.5951  0.4995 -0.7837
  257MOL0     C34587   1.408   4.341   6.489  0.6574 -0.4644  0.4700
  257MOL0     C34588   1.483   4.270   6.600  0.4330  0.0095  0.6735
  257MOL0     C34589   1.275   4.309   6.462  0.2844  0.5901  0.9337
  257MOL0     C34590   1.192   4.229   6.555  0.0925  0.5468 -0.0671
  257MOL0     O34591   1.209   4.267   6.685 -0.7034  0.1153 -0.3859
  257MOL0     C34592   1.109   4.231   6.773 -0.5931 -0.4601  0.3085
  257MOL0     C34593   0.980   4.271   6.745  0.2040 -1.2597 -0.8729
  257MOL0     C34594   0.885   4.229   6.835 -0.5896  0.4887  0.1420
  257MOL0     C34595   0.907   4.143   6.945 -0.8699  0.0292 -0.1018
  257MOL0     O34596   0.802   4.084   7.019  0.1704  0.4586 -0.3043
  257MOL0     C34597   0.679   4.078   6.952 -0.4963  0.5162 -0.2031
  257MOL0     C34598   0.586   3.975   7.014  0.7528  0.3177 -0.4402
  257MOL0     C34599   0.451   3.969   6.939 -0.4807 -0.2034 -0.0857
  257MOL0     C34600   0.354   4.072   7.005 -0.4573  0.7600 -0.5555
  257MOL0     C34601   0.216   4.084   6.937 -0.4912  0.0622 -0.2603
  257MOL0     C34602   0.123   3.973   6.980 -0.1346 -0.3857  0.5562
  257MOL0     C34603  -0.014   3.962   6.908 -0.1306 -0.1524 -0.3704
  257MOL0     C34604  -0.065   4.078   6.814  0.3444 -0.4272  0.3608
  257MOL0    Cl34605  -0.210   4.023   6.719  0.0117  0.1957  0.3077
  257MOL0     C34606   1.036   4.110   6.965  0.1008 -0.0856  0.9579
  257MOL0     C34607   1.141   4.152   6.882 -0.4112 -0.4206 -0.2867
  257MOL0     O34608   1.119   4.134   6.513  0.4786 -0.7543  0.2557
  257MOL0     C34609   1.212   4.383   6.369 -0.5801 -0.2372 -0.4500
  257MOL0     C34610   1.275   4.471   6.282  0.9227 -0.3258 -0.9654
  257MOL0     N34611   1.802   4.532   5.765 -0.7065  0.6835  0.4262
  257MOL0     N34612   1.889   4.523   5.673 -0.1418  0.1643 -0.7958
  257MOL0     C34613   2.891   4.518   5.422 -0.1677 -0.0540 -0.2695
  257MOL0     C34614   3.012   4.453   5.406 -0.5673 -0.2852  0.0331
  257MOL0     C34615   3.456   4.346   5.392  0.3259  0.1442  0.4469
  257MOL0     C34616   3.541   4.452   5.428  0.4186  0.5571  0.8033
  257MOL0     C34617   3.668   4.430   5.391 -1.0891  0.4385  0.4075
  257MOL0     C34618   3.729   4.309   5.340  0.5675 -0.0452  0.4636
  257MOL0     O34619   3.861   4.304   5.295  0.1742 -0.3261  0.3948
  257MOL0     C34620   3.957   4.404   5.336  0.9680 -0.7617 -0.0272
  257MOL0     C34621   4.087   4.338   5.340 -1.0266 -0.1309 -0.8326
  257MOL0     C34622   4.200   4.435   5.365 -0.8987  0.1911 -0.7714
  257MOL0     C34623   4.335   4.371   5.348  0.6542 -0.3099  0.1931
  257MOL0     C34624   4.344   4.273   5.452  0.2688 -0.2387  0.6980
  257MOL0     C34625   4.360   4.186   5.540 -0.2336  0.0543  0.1843
  257MOL0     C34626   3.648   4.195   5.330 -0.0210  0.3043 -0.8124
  257MOL0     C34627   3.506   4.219   5.346 -0.7444  1.4112 -0.2365
  257MOL0     H34628   3.202   4.734   5.452  1.7390 -1.5490 -0.4040
  257MOL0     H34629   3.003   4.836   5.464  0.6483  0.7042 -2.6204
  257MOL0     H34630   2.773   4.737   5.633  0.7482  1.9325  0.7247
  257MOL0     H34631   2.754   4.887   5.541 -0.6173  0.1219  0.9336
  257MOL0     H34632   2.530   4.680   5.531 -0.5544  0.1370  1.0793
  257MOL0     H34633   2.539   4.790   5.658 -0.8351 -0.1427 -0.5069
  257MOL0     H34634   2.528   4.996   5.527 -0.3513  1.0554 -0.8493
  257MOL0     H34635   2.557   4.912   5.380 -0.6978  1.6826  0.7555
  257MOL0     H34636   2.320   4.896   5.582 -0.8215 -0.1894  0.3758
  257MOL0     H34637   2.320   4.980   5.423 -0.0502 -1.4258 -0.6996
  257MOL0     H34638   2.364   4.750   5.317 -1.8652  0.6734 -0.9830
  257MOL0     H34639   2.312   4.690   5.474 -0.9784 -0.4359  0.5779
  257MOL0     H34640   2.145   4.869   5.285  3.6250  1.0491  0.4295
  257MOL0     H34641   2.134   4.705   5.301  0.0596  0.8239 -1.1527
  257MOL0     H34642   2.099   4.851   5.562  0.9900  0.0094 -1.1831
  257MOL0     H34643   1.973   4.869   5.444  0.0668  0.1757 -1.4751
  257MOL0     H34644   2.089   4.606   5.501 -0.2997  0.9437  0.6061
  257MOL0     H34645   1.952   4.625   5.400 -0.4008 -2.1325  1.6983
  257MOL0     H34646   1.822   4.851   5.677 -1.3441 -0.8590  1.4871
  257MOL0     H34647   1.774   4.816   5.927  0.6329 -0.1091 -0.3843
  257MOL0     H34648   1.613   4.781   5.859 -0.4990  1.4068  3.3107
  257MOL0     H34649   1.776   4.582   6.023 -1.5729  0.0740  0.9950
  257MOL0     H34650   1.602   4.574   5.977 -1.2548  0.8138  2.5146
  257MOL0     H34651   1.608   4.801   6.140  1.1451 -0.1676 -0.7506
  257MOL0     H34652   1.767   4.746   6.163  0.2527  1.6913  0.5703
  257MOL0     H34653   1.639   4.667   6.339  1.9245  1.1021 -0.2223
  257MOL0     H34654   1.671   4.519   6.253  0.8652  1.1203  1.2622
  257MOL0     H34655   1.563   4.464   6.463 -0.0881 -1.1626 -1.2662
  257MOL0     H34656   1.473   4.162   6.589 -0.0593  0.3237 -2.8273
  257MOL0     H34657   1.590   4.289   6.590 -0.1649  2.7082 -2.0330
  257MOL0     H34658   1.462   4.309   6.701 -1.8274 -1.8760  1.0227
  257MOL0     H34659   0.954   4.343   6.668 -0.7790  0.1240  0.6865
  257MOL0     H34660   0.784   4.260   6.809 -0.3816  1.0067 -0.0516
  257MOL0     H34661   0.628   4.175   6.946  1.0843  1.2961 -1.8387
  257MOL0     H34662   0.696   4.044   6.849  0.7126 -2.5184  0.8975
  257MOL0     H34663   0.628   3.874   7.014 -0.2239 -0.1018 -1.0243
  257MOL0     H34664   0.573   4.002   7.119  1.5818  1.3770 -0.5808
  257MOL0     H34665   0.404   3.871   6.945 -4.5335  1.5599  0.2619
  257MOL0     H34666   0.467   3.992   6.833  3.0146 -1.1897  0.1076
  257MOL0     H34667   0.347   4.055   7.113  0.6504 -1.7329 -0.8039
  257MOL0     H34668   0.394   4.174   7.004  2.0349 -0.1482 -1.3598
  257MOL0     H34669   0.242   4.074   6.831  1.7055  0.4716  0.1842
  257MOL0     H34670   0.175   4.185   6.941  2.1267  1.1658  2.9035
  257MOL0     H34671   0.172   3.877   6.967 -3.3727 -1.8173 -3.0396
  257MOL0     H34672   0.103   4.000   7.084 -1.0185 -3.0028  1.1352
  257MOL0     H34673  -0.088   3.951   6.988  4.0774 -3.2259  3.6767
  257MOL0     H34674  -0.018   3.870   6.848 -0.0169 -0.0469 -0.5382
  257MOL0     H34675   0.016   4.102   6.744  2.4254  0.9131  3.0327
  257MOL0     H34676  -0.087   4.172   6.866  1.8422 -0.4430  1.0805
  257MOL0     H34677   1.073   4.057   7.053  0.2524 -1.1176  0.2894
  257MOL0     H34678   1.242   4.116   6.899  0.1457  0.7134 -1.0380
  257MOL0     H34679   1.107   4.359   6.351 -0.4523 -0.8193 -0.4410
  257MOL0     H34680   1.229   4.533   6.206  1.4009  0.9563 -0.2379
  257MOL0     H34681   2.796   4.465   5.424  0.6111 -1.5040  1.5808
  257MOL0     H34682   3.011   4.346   5.389 -1.6450 -0.2270 -0.3224
  257MOL0     H34683   3.499   4.543   5.468  1.5806  0.5190  2.1615
  257MOL0     H34684   3.726   4.521   5.390 -1.3949  0.7346 -3.0113
  257MOL0     H34685   3.956   4.492   5.270 -3.1123  0.0815  0.9251
  257MOL0     H34686   3.927   4.430   5.438 -1.1713  3.1328 -1.4186
  257MOL0     H34687   4.107   4.282   5.248  0.3156 -2.3303  0.6998
  257MOL0     H34688   4.083   4.260   5.417  2.3914 -0.5642 -0.9208
  257MOL0     H34689   4.192   4.488   5.460  1.2425  1.0973 -1.0251
  257MOL0     H34690   4.202   4.513   5.287 -0.3524  0.1461 -0.8029
  257MOL0     H34691   4.415   4.446   5.355 -0.0538  0.5035 -0.1846
  257MOL0     H34692   4.342   4.321   5.251  1.6151  1.9963 -1.0172
  257MOL0     H34693   4.394   4.126   5.622  2.7632  0.9309 -0.2820
  257MOL0     H34694   3.685   4.099   5.297 -3.5176 -2.5544  2.5887
  257MOL0     H34695   3.440   4.134   5.329 -3.1935  2.7676  1.7899
  258MOL0     O34696  11.120   6.772   7.978  0.3768  0.2775 -0.4494
  258MOL0     C34697  11.160   6.814   8.086 -0.5065 -0.4725 -1.4370
  258MOL0     O34698  11.094   6.813   8.205 -1.3307 -0.2122 -0.3374
  258MOL0     C34699  10.959   6.783   8.199  1.0927  0.2589  0.4124
  258MOL0     C34700  10.861   6.880   8.179 -0.3801  0.3593  0.1050
  258MOL0     C34701  10.720   6.846   8.163 -0.8048  0.6010 -0.2878
  258MOL0     C34702  10.685   6.706   8.153  0.4306  0.1242  0.6622
  258MOL0     O34703  10.553   6.677   8.131 -0.2534 -0.3722  0.1681
  258MOL0     C34704  10.509   6.558   8.075 -0.3549  0.6039 -0.5308
  258MOL0     C34705  10.538   6.574   7.933  0.5069  0.2089  0.1945
  258MOL0     C34706  10.514   6.463   7.837  0.1208  0.1962 -0.0439
  258MOL0     C34707  10.486   6.520   7.694  0.4258  0.1899  0.6304
  258MOL0     C34708  10.482   6.398   7.603 -0.5212 -0.1321 -0.5651
  258MOL0     C34709  10.490   6.427   7.452 -0.0653 -0.6934 -0.5734
  258MOL0     C34710  10.365   6.495   7.400  0.2239  0.7132  0.2084
  258MOL0     C34711  10.239   6.404   7.405 -0.0447 -0.2715 -0.6214
  258MOL0     N34712  10.175   6.416   7.535 -0.2834  0.9023 -0.4341
  258MOL0     C34713  10.149   6.527   7.612  0.3806  0.8029 -0.7795
  258MOL0     C34714  10.126   6.469   7.739  0.0766 -0.7985 -0.1336
  258MOL0     C34715  10.095   6.534   7.867  0.1477  0.5998  0.0556
  258MOL0     C34716   9.946   6.553   7.879 -0.6489 -0.2615  0.5340
  258MOL0     C34717   9.899   6.597   8.027  0.3921  0.4402  0.6777
  258MOL0     C34718   9.747   6.623   8.036  1.2795  0.1985 -0.1613
  258MOL0     O34719   9.693   6.706   7.931 -0.6854  0.2378 -0.5699
  258MOL0     C34720   9.564   6.743   7.950  0.3424  0.1307 -0.5587
  258MOL0     C34721   9.456   6.647   7.956  0.5151  0.4841 -0.7114
  258MOL0     C34722   9.319   6.691   7.960 -0.3153 -1.0191  0.2692
  258MOL0     C34723   9.200   6.599   7.952  0.4087 -1.0318 -0.1434
  258MOL0     C34724   9.300   6.834   7.963  0.8088 -0.1498 -0.7527
  258MOL0     C34725   9.165   6.889   7.949 -0.7087 -0.0888  0.2077
  258MOL0     O34726   9.089   6.857   7.835  0.5842 -0.3177 -0.7571
  258MOL0     C34727   8.961   6.906   7.831 -0.3063 -0.2136 -0.1472
  258MOL0     C34728   8.942   6.992   7.730 -0.1802 -0.0302  0.6374
  258MOL0     C34729   8.815   7.041   7.709  0.9324  0.0053 -1.0760
  258MOL0     C34730   8.708   7.008   7.791  0.0831 -0.0372  0.8478
  258MOL0     O34731   8.586   7.054   7.760  0.5114  0.3489 -0.1539
  258MOL0     C34732   8.463   6.996   7.817  0.1202  0.0728 -0.0731
  258MOL0     C34733   8.349   7.057   7.738 -0.1940 -0.2779  0.6625
  258MOL0     C34734   8.210   7.007   7.786  0.0268  0.2317 -0.1767
  258MOL0     C34735   8.106   7.078   7.697 -1.0341  0.1177  0.1291
  258MOL0     C34736   8.069   6.997   7.575  0.5349 -0.0691  0.5092
  258MOL0     C34737   7.982   7.074   7.484 -0.0876  0.3310  0.1503
  258MOL0     C34738   7.843   7.085   7.554  0.2276 -0.1354  0.5272
  258MOL0     C34739   7.742   7.145   7.463 -0.1863  0.3446  0.2132
  258MOL0    Cl34740   7.798   7.323   7.465 -0.2713  0.0555 -0.1964
  258MOL0     C34741   8.724   6.907   7.889  0.0238  0.4874 -0.2516
  258MOL0     C34742   8.857   6.869   7.918 -0.1189  0.1944 -0.2805
  258MOL0     O34743   9.135   6.967   8.035  0.0448 -0.0281  0.0834
  258MOL0     C34744   9.397   6.922   7.983 -0.2318 -0.2394  0.2965
  258MOL0     C34745   9.534   6.885   7.971 -0.0073 -0.1351  0.0543
  258MOL0     N34746  10.111   6.332   7.730  0.1038  0.5826  0.9109
  258MOL0     N34747  10.151   6.300   7.612  0.5375 -0.6041 -0.7614
  258MOL0     C34748  10.792   6.614   8.173 -0.5681 -0.6020 -0.5969
  258MOL0     C34749  10.922   6.654   8.198 -0.0637  0.1777 -0.0825
  258MOL0     C34750  11.305   6.864   8.094 -1.0128  0.0454  0.3553
  258MOL0     C34751  11.391   6.827   7.991 -0.6971 -0.2531  0.6082
  258MOL0     C34752  11.527   6.864   8.007 -0.0198 -0.3354  0.5396
  258MOL0     C34753  11.583   6.926   8.121  0.4351 -0.9375  0.3538
  258MOL0     O34754  11.716   6.945   8.126 -0.0069  0.2308  0.2808
  258MOL0     C34755  11.764   7.046   8.210  0.0671 -0.2272 -0.7038
  258MOL0     C34756  11.723   7.181   8.162  0.5438  0.3802 -0.3287
  258MOL0     C34757  11.778   7.294   8.245  0.1302 -1.1380 -0.2820
  258MOL0     C34758  11.927   7.324   8.237 -0.5630 -0.5340 -0.1277
  258MOL0     C34759  11.986   7.308   8.107  0.1191  1.0873 -0.0898
  258MOL0     C34760  12.038   7.301   7.995 -0.1044 -0.0007  0.1619
  258MOL0     C34761  11.487   6.953   8.223 -0.3304  0.4891  0.7769
  258MOL0     C34762  11.350   6.924   8.208 -0.5672 -0.2467 -0.8469
  258MOL0     H34763  10.896   6.982   8.172 -0.5656  0.5501  1.6098
  258MOL0     H34764  10.651   6.926   8.141 -1.7587  0.5250  2.1507
  258MOL0     H34765  10.550   6.475   8.134 -5.0151 -0.8834  1.0263
  258MOL0     H34766  10.401   6.549   8.091 -0.2792  1.1437  0.3467
  258MOL0     H34767  10.471   6.654   7.901  0.2270 -0.2487 -0.3794
  258MOL0     H34768  10.643   6.606   7.929  0.2003  1.1926 -0.2589
  258MOL0     H34769  10.601   6.398   7.836  3.1331  3.8583 -1.9670
  258MOL0     H34770  10.425   6.406   7.865  1.2469 -1.2644  0.6901
  258MOL0     H34771  10.388   6.567   7.700 -0.3202 -1.4693  3.5846
  258MOL0     H34772  10.565   6.591   7.667  0.0948 -0.1940 -1.5385
  258MOL0     H34773  10.571   6.340   7.629  0.0322  0.7643 -0.4170
  258MOL0     H34774  10.392   6.340   7.626  0.3454 -2.2141 -2.0474
  258MOL0     H34775  10.579   6.488   7.436  0.9939 -2.1681 -0.5526
  258MOL0     H34776  10.508   6.336   7.394 -1.1718  1.4486 -4.7222
  258MOL0     H34777  10.357   6.594   7.444 -0.8346  1.6593 -1.9790
  258MOL0     H34778  10.383   6.510   7.293 -1.8385 -2.6678 -0.7839
  258MOL0     H34779  10.255   6.297   7.388 -3.0626 -0.9728  0.3138
  258MOL0     H34780  10.173   6.441   7.326 -1.5473 -0.1635  0.6426
  258MOL0     H34781  10.166   6.632   7.588 -1.8541  1.3040 -0.4623
  258MOL0     H34782  10.139   6.470   7.944  0.6897 -0.1757 -0.8594
  258MOL0     H34783  10.149   6.629   7.860  4.9154 -1.9356 -4.5058
  258MOL0     H34784   9.886   6.465   7.857 -0.3854  0.1375 -2.0197
  258MOL0     H34785   9.913   6.632   7.811  0.6526  0.5078  0.7553
  258MOL0     H34786   9.949   6.690   8.056  0.6041  0.5203  0.0706
  258MOL0     H34787   9.925   6.516   8.095  2.1910 -1.6710 -2.2953
  258MOL0     H34788   9.730   6.681   8.127 -0.1175 -2.0256  1.0889
  258MOL0     H34789   9.686   6.533   8.046 -0.3228  1.3654  1.1267
  258MOL0     H34790   9.471   6.541   7.937 -1.7552  0.0949 -0.6151
  258MOL0     H34791   9.155   6.607   7.853  0.8972  2.0160 -0.2213
  258MOL0     H34792   9.222   6.495   7.978 -0.3456 -1.2392 -0.3136
  258MOL0     H34793   9.120   6.638   8.016  0.0062  0.1871 -1.3459
  258MOL0     H34794   9.026   7.015   7.665 -1.3946 -0.6442 -1.2350
  258MOL0     H34795   8.793   7.116   7.634  1.5232 -0.4021 -1.6691
  258MOL0     H34796   8.459   6.888   7.800  1.3657  0.3252 -2.3377
  258MOL0     H34797   8.450   7.013   7.924 -0.9794 -0.0635 -0.1690
  258MOL0     H34798   8.350   7.166   7.748  3.2894  0.0843 -1.7853
  258MOL0     H34799   8.362   7.031   7.633 -0.3006  1.6376  0.1465
  258MOL0     H34800   8.190   7.051   7.884 -1.0456 -0.5207 -0.0425
  258MOL0     H34801   8.185   6.901   7.779 -1.3504  0.4805  0.5205
  258MOL0     H34802   8.017   7.088   7.760 -0.3517 -1.4243  1.4216
  258MOL0     H34803   8.143   7.175   7.665  0.9182 -1.0742 -1.4736
  258MOL0     H34804   8.021   6.904   7.607  1.0086 -0.1204  1.0884
  258MOL0     H34805   8.157   6.954   7.528  1.3883 -0.2209  2.1532
  258MOL0     H34806   8.021   7.173   7.459 -1.7990  0.7692 -0.9222
  258MOL0     H34807   7.976   7.020   7.390 -0.3032  0.2455  0.2130
  258MOL0     H34808   7.851   7.148   7.643 -0.5336 -0.2833  0.7028
  258MOL0     H34809   7.810   6.989   7.595  1.3529 -1.7673 -2.1045
  258MOL0     H34810   7.640   7.137   7.501  0.2443  1.9429  1.8365
  258MOL0     H34811   7.748   7.110   7.359 -1.9483 -0.7240  0.4329
  258MOL0     H34812   8.656   6.873   7.966 -0.2153 -1.8548 -1.4155
  258MOL0     H34813   8.885   6.802   7.999  2.8619  0.3292 -1.0967
  258MOL0     H34814   9.360   7.022   8.004  0.5433 -0.0262  0.6818
  258MOL0     H34815   9.608   6.964   7.977 -0.3059  0.1759 -0.3034
  258MOL0     H34816  10.772   6.508   8.168  0.7727 -0.8416 -1.3420
  258MOL0     H34817  10.998   6.580   8.219 -2.0627 -1.8133  0.4989
  258MOL0     H34818  11.372   6.771   7.900  1.3176  1.0104 -0.6419
  258MOL0     H34819  11.596   6.828   7.932 -1.9655 -1.4789 -0.7898
  258MOL0     H34820  11.732   7.036   8.315 -0.2774  2.5749 -0.4699
  258MOL0     H34821  11.873   7.043   8.215  0.0217 -0.2390  3.0558
  258MOL0     H34822  11.613   7.186   8.164  0.2683 -1.7224 -3.0502
  258MOL0     H34823  11.754   7.191   8.058  1.3117 -1.9230 -0.3844
  258MOL0     H34824  11.767   7.258   8.348  0.3157  1.1872  0.6150
  258MOL0     H34825  11.711   7.380   8.231 -0.6807 -1.4384  1.5435
  258MOL0     H34826  11.977   7.265   8.315  0.2710 -0.3616 -0.5265
  258MOL0     H34827  11.937   7.428   8.271  0.6486 -0.2523 -1.2717
  258MOL0     H34828  12.083   7.294   7.898  0.1579  1.9488  0.1053
  258MOL0     H34829  11.527   6.993   8.316  2.4525 -1.0162  0.3308
  258MOL0     H34830  11.287   6.947   8.294 -1.0712 -2.5417 -0.5151
  259MOL0     O34831   2.754   5.027   2.189  0.3934 -0.0088 -0.1111
  259MOL0     C34832   2.791   4.911   2.182  0.1839  0.2940  0.1893
  259MOL0     O34833   2.707   4.796   2.195  0.2766  0.1194 -0.5807
  259MOL0     C34834   2.582   4.816   2.251  0.5263 -0.0955  0.0716
  259MOL0     C34835   2.551   4.899   2.364  0.4121  0.6158 -0.4658
  259MOL0     C34836   2.423   4.901   2.420  0.0166  0.5390 -0.6938
  259MOL0     C34837   2.318   4.818   2.363 -0.0009 -0.4962 -0.2144
  259MOL0     O34838   2.190   4.811   2.405 -0.4500  0.7993 -0.5619
  259MOL0     C34839   2.156   4.839   2.542 -0.6878  0.2041 -0.0228
  259MOL0     C34840   2.182   4.720   2.625  0.3772  0.1217 -0.3733
  259MOL0     C34841   2.142   4.585   2.567 -0.6298  0.5765 -0.0434
  259MOL0     C34842   1.993   4.569   2.520  0.7694  0.4079 -0.4412
  259MOL0     C34843   1.958   4.418   2.487 -0.3289 -0.1467 -0.3704
  259MOL0     C34844   1.810   4.390   2.439 -0.0988 -1.0866 -0.8603
  259MOL0     C34845   1.786   4.238   2.420 -0.5267 -0.6582 -0.4938
  259MOL0     C34846   1.642   4.206   2.443  0.0525  0.1097  1.1532
  259MOL0     N34847   1.605   4.067   2.478  0.3608  0.6832 -0.3672
  259MOL0     C34848   1.576   3.968   2.379  0.5035 -0.5470 -0.0295
  259MOL0     C34849   1.509   3.871   2.441  0.7991 -0.2834  0.2549
  259MOL0     C34850   1.445   3.746   2.386 -0.0962  0.2978  0.2061
  259MOL0     C34851   1.503   3.621   2.449  0.1046 -0.0663  0.9139
  259MOL0     C34852   1.412   3.497   2.439 -0.2411 -0.0734  0.3266
  259MOL0     C34853   1.323   3.468   2.562 -0.1149 -0.8408  0.3831
  259MOL0     O34854   1.412   3.450   2.675  0.7169  0.3049 -0.6955
  259MOL0     C34855   1.482   3.334   2.673  0.1057  0.1140  0.3752
  259MOL0     C34856   1.446   3.209   2.635 -0.7872 -0.3562 -0.3104
  259MOL0     C34857   1.537   3.103   2.604  0.1131 -0.1176  0.2269
  259MOL0     C34858   1.470   2.979   2.559  0.4337  1.0770 -0.0518
  259MOL0     C34859   1.660   3.113   2.655 -0.4310  0.4514  0.1884
  259MOL0     C34860   1.754   2.999   2.664 -0.2232  0.3402  0.2912
  259MOL0     O34861   1.880   3.042   2.719  0.2540 -0.2467 -0.2897
  259MOL0     C34862   1.988   2.956   2.719 -0.3004  0.3970  0.6969
  259MOL0     C34863   2.080   2.968   2.824 -0.1906 -0.5572  0.2380
  259MOL0     C34864   2.196   2.897   2.822 -0.1061 -0.3364 -1.0226
  259MOL0     C34865   2.236   2.809   2.723  0.5374 -0.8430  0.4942
  259MOL0     O34866   2.351   2.736   2.738  0.3140 -0.5652  0.2141
  259MOL0     C34867   2.436   2.708   2.628 -1.3241  0.5796 -0.2738
  259MOL0     C34868   2.566   2.632   2.669  0.0313 -0.8236 -0.0919
  259MOL0     C34869   2.655   2.601   2.550 -0.2833 -0.2048 -0.2419
  259MOL0     C34870   2.800   2.585   2.593 -0.0660  0.3302 -1.0456
  259MOL0     C34871   2.890   2.555   2.478  0.0998  0.4913 -0.6540
  259MOL0     C34872   3.041   2.555   2.525  0.3828  0.1075  0.1385
  259MOL0     C34873   3.081   2.431   2.613  0.3643  0.0465 -0.0729
  259MOL0     C34874   3.233   2.414   2.620  0.0113 -0.2048  0.5427
  259MOL0    Cl34875   3.297   2.376   2.454 -0.5321  0.2588 -0.3491
  259MOL0     C34876   2.152   2.798   2.614  0.2131 -0.0602  0.4719
  259MOL0     C34877   2.026   2.871   2.615 -0.3749 -0.4729  0.1500
  259MOL0     O34878   1.729   2.878   2.634  1.3224  0.1480  0.3855
  259MOL0     C34879   1.703   3.242   2.688 -0.3929  0.2244 -0.5065
  259MOL0     C34880   1.622   3.349   2.701  0.3373 -0.3406 -0.2460
  259MOL0     N34881   1.517   3.900   2.576  0.1427  0.2679 -0.0482
  259MOL0     N34882   1.579   4.018   2.601 -0.1438  0.0359 -0.1912
  259MOL0     C34883   2.341   4.754   2.243 -0.0868  0.2818 -0.9296
  259MOL0     C34884   2.467   4.756   2.189 -0.1636  0.2553  0.4492
  259MOL0     C34885   2.932   4.881   2.153 -0.0376 -0.1118 -0.3449
  259MOL0     C34886   3.022   4.988   2.130  0.0236 -0.2693 -0.2867
  259MOL0     C34887   3.155   4.971   2.095  0.1007  0.2068 -0.4130
  259MOL0     C34888   3.208   4.837   2.080 -0.0801  0.1552  1.1704
  259MOL0     O34889   3.344   4.800   2.058 -0.1002  0.0779  0.3637
  259MOL0     C34890   3.431   4.909   2.034  0.7799  0.2088  0.0499
  259MOL0     C34891   3.576   4.871   2.015 -0.2594  0.4368 -0.0365
  259MOL0     C34892   3.666   4.994   1.992 -0.4200  0.2341  0.7184
  259MOL0     C34893   3.799   4.961   1.930 -0.5114  0.6387 -0.5134
  259MOL0     C34894   3.897   4.891   2.018 -0.4317  0.5526  0.7281
  259MOL0     C34895   3.979   4.826   2.076  0.7721 -0.1036 -0.1403
  259MOL0     C34896   3.113   4.732   2.102 -0.0986  1.5494  0.0833
  259MOL0     C34897   2.979   4.752   2.128  0.2519  0.8100 -0.5803
  259MOL0     H34898   2.629   4.947   2.422 -0.6009  0.3895  1.1701
  259MOL0     H34899   2.408   4.946   2.518 -2.1102 -1.6990  0.1294
  259MOL0     H34900   2.220   4.918   2.582  0.7168 -0.7735 -0.2731
  259MOL0     H34901   2.053   4.874   2.530 -0.1925  0.9630 -3.0716
  259MOL0     H34902   2.289   4.716   2.648 -0.0518 -1.6212  1.5082
  259MOL0     H34903   2.123   4.733   2.716 -0.5762 -2.2562 -0.5926
  259MOL0     H34904   2.204   4.580   2.477  0.8466 -0.3734  0.9714
  259MOL0     H34905   2.160   4.507   2.642  0.1818 -0.3700 -1.1634
  259MOL0     H34906   1.931   4.608   2.601 -1.8615 -2.7697 -0.7113
  259MOL0     H34907   1.979   4.633   2.433  0.3098  1.9259  0.7102
  259MOL0     H34908   2.019   4.383   2.402  1.8889 -0.5798  1.2976
  259MOL0     H34909   1.977   4.354   2.574 -1.3914 -0.8340 -0.6293
  259MOL0     H34910   1.746   4.433   2.517 -0.3876 -1.2373 -1.0138
  259MOL0     H34911   1.780   4.435   2.345 -0.3965 -1.8028 -1.1145
  259MOL0     H34912   1.821   4.207   2.321  1.6544  0.6711 -0.2138
  259MOL0     H34913   1.848   4.184   2.493  1.4271  1.1440 -0.7079
  259MOL0     H34914   1.594   4.229   2.347 -1.3425 -1.7909  1.3322
  259MOL0     H34915   1.593   4.262   2.523 -3.5218 -1.0199 -0.0547
  259MOL0     H34916   1.592   3.976   2.272 -3.1687  1.6765 -0.6019
  259MOL0     H34917   1.342   3.743   2.423  0.0893  1.1139  0.8294
  259MOL0     H34918   1.451   3.744   2.277  0.1266 -0.3700  0.2268
  259MOL0     H34919   1.511   3.642   2.556  2.7995 -1.6624  1.1001
  259MOL0     H34920   1.603   3.595   2.414 -0.2526 -0.3758  0.1111
  259MOL0     H34921   1.483   3.418   2.414  1.0060  1.8431 -2.7312
  259MOL0     H34922   1.350   3.508   2.350 -0.6150 -2.3096  0.2669
  259MOL0     H34923   1.260   3.381   2.540 -3.3188  1.0503  1.3915
  259MOL0     H34924   1.257   3.552   2.587 -1.1391 -1.2341 -0.8766
  259MOL0     H34925   1.341   3.195   2.613 -0.2750 -2.4698 -1.7923
  259MOL0     H34926   1.367   2.989   2.525  1.3973  2.2366 -2.9821
  259MOL0     H34927   1.524   2.934   2.474  1.1554 -0.6936  1.2673
  259MOL0     H34928   1.477   2.903   2.638  0.5679  0.6760 -0.4442
  259MOL0     H34929   2.069   3.036   2.908  1.7640 -0.7835  0.7284
  259MOL0     H34930   2.268   2.908   2.904 -2.0691 -0.9610  0.8814
  259MOL0     H34931   2.381   2.639   2.564 -0.6214 -1.0129  0.7784
  259MOL0     H34932   2.461   2.803   2.580  0.7204  1.2100  1.8748
  259MOL0     H34933   2.621   2.694   2.739  2.1061 -1.7888 -0.7817
  259MOL0     H34934   2.548   2.536   2.719  1.0043 -0.9643  0.0001
  259MOL0     H34935   2.653   2.681   2.477 -0.8302  1.1642  1.2182
  259MOL0     H34936   2.617   2.512   2.498 -1.5939 -0.0150  0.3410
  259MOL0     H34937   2.835   2.672   2.651 -1.2216  0.6045 -0.7392
  259MOL0     H34938   2.809   2.500   2.661 -1.1501  0.8535 -0.2201
  259MOL0     H34939   2.873   2.627   2.398  0.0835 -1.4235 -2.4421
  259MOL0     H34940   2.853   2.457   2.447  0.6620 -0.1980  0.7607
  259MOL0     H34941   3.101   2.550   2.433  0.0515 -0.8800 -0.0331
  259MOL0     H34942   3.057   2.650   2.576 -0.4609  0.2090  0.2256
  259MOL0     H34943   3.027   2.340   2.588  2.0921 -0.5119 -2.1034
  259MOL0     H34944   3.042   2.456   2.712 -1.8421 -1.6915 -0.4168
  259MOL0     H34945   3.268   2.325   2.674  2.5944 -0.0957 -0.7888
  259MOL0     H34946   3.276   2.504   2.664  0.4008  0.3789 -0.9725
  259MOL0     H34947   2.172   2.732   2.530 -0.1140  1.0558 -0.5188
  259MOL0     H34948   1.957   2.861   2.532  0.4409  2.0279 -0.9150
  259MOL0     H34949   1.805   3.256   2.724 -0.2481 -1.7644 -0.0254
  259MOL0     H34950   1.658   3.445   2.735 -0.4679 -0.4527  0.9938
  259MOL0     H34951   2.261   4.699   2.195 -1.4012 -0.2728  1.7117
  259MOL0     H34952   2.485   4.686   2.109 -2.1246 -1.6791  1.6096
  259MOL0     H34953   2.982   5.088   2.137  0.4532 -0.0241 -1.1630
  259MOL0     H34954   3.219   5.058   2.099  0.7509 -0.3130  0.9207
  259MOL0     H34955   3.394   4.948   1.938 -0.2212 -4.2610 -1.6234
  259MOL0     H34956   3.429   4.978   2.119 -0.5591 -0.4012  0.5460
  259MOL0     H34957   3.574   4.801   1.931 -1.3824 -0.3123  0.6019
  259MOL0     H34958   3.617   4.816   2.100 -2.6459 -1.5158 -0.0633
  259MOL0     H34959   3.667   5.037   2.093 -2.2201 -0.0088  0.8738
  259MOL0     H34960   3.610   5.065   1.931 -2.1078 -0.8815  0.9083
  259MOL0     H34961   3.852   5.051   1.900  0.6823  0.4346  0.8381
  259MOL0     H34962   3.799   4.893   1.844  0.5670  0.3674 -0.3196
  259MOL0     H34963   4.057   4.764   2.116  0.0348 -0.0565  1.4174
  259MOL0     H34964   3.144   4.629   2.095 -4.1552  0.1641 -0.1201
  259MOL0     H34965   2.917   4.667   2.154  0.7423  0.7494  0.4210
  260MOL0     O34966   5.135   5.493   5.344  0.2264 -0.3899 -0.2931
  260MOL0     C34967   5.137   5.602   5.402 -1.1933  0.5891  0.4856
  260MOL0     O34968   5.250   5.689   5.411 -0.1351  0.3613 -0.0628
  260MOL0     C34969   5.362   5.649   5.341  0.2337  0.0143  0.0245
  260MOL0     C34970   5.382   5.687   5.212  1.0372  0.6918  0.0001
  260MOL0     C34971   5.503   5.654   5.136  0.0806  0.1956 -0.9988
  260MOL0     C34972   5.592   5.572   5.204 -0.0222  0.2398 -0.2425
  260MOL0     O34973   5.697   5.517   5.138  0.6016 -0.4097  0.6846
  260MOL0     C34974   5.821   5.590   5.142 -0.2204  0.9762  0.2777
  260MOL0     C34975   5.930   5.491   5.190 -0.4844  0.1420  0.2200
  260MOL0     C34976   6.065   5.556   5.186  0.1635 -0.1980  0.8127
  260MOL0     C34977   6.142   5.545   5.048 -0.1088  0.1213  0.0594
  260MOL0     C34978   6.211   5.675   5.005 -0.4002  0.2163  0.8113
  260MOL0     C34979   6.308   5.732   5.113 -0.5512  0.3242 -0.0683
  260MOL0     C34980   6.400   5.830   5.031  0.1592  0.3696 -0.1953
  260MOL0     C34981   6.475   5.929   5.118  0.1041  0.1611 -0.1888
  260MOL0     N34982   6.397   6.019   5.199 -0.5647  0.1164  0.3460
  260MOL0     C34983   6.301   6.113   5.147 -0.2897  0.0606  0.6042
  260MOL0     C34984   6.236   6.155   5.259  0.3186  0.1172 -0.3717
  260MOL0     C34985   6.120   6.245   5.271  1.0766  0.0301  0.6336
  260MOL0     C34986   6.007   6.217   5.166  0.2045 -0.3850  0.7898
  260MOL0     C34987   5.939   6.084   5.213  0.2317  0.0670  1.0553
  260MOL0     C34988   5.866   6.025   5.088 -0.2423 -0.2927 -0.0968
  260MOL0     O34989   5.766   6.121   5.049  0.3034  0.6585 -0.7060
  260MOL0     C34990   5.633   6.096   5.096 -0.0431 -1.1101 -0.1114
  260MOL0     C34991   5.534   6.160   5.034  0.2067 -0.3517  0.5772
  260MOL0     C34992   5.399   6.150   5.074  0.3472  0.0920 -0.2166
  260MOL0     C34993   5.298   6.209   4.989  0.4649 -0.6846 -0.7301
  260MOL0     C34994   5.363   6.071   5.193  0.4219 -0.0259 -0.5696
  260MOL0     C34995   5.225   6.039   5.239  0.6182  0.5217 -0.5553
  260MOL0     O34996   5.124   6.032   5.150 -0.6063  0.7453 -0.2733
  260MOL0     C34997   4.992   6.056   5.179 -0.3807  0.0867  0.2416
  260MOL0     C34998   4.908   5.948   5.184  0.2268  0.2206 -0.9456
  260MOL0     C34999   4.772   5.971   5.215  0.6772 -0.1201 -0.7644
  260MOL0     C35000   4.717   6.099   5.231  0.3667  1.0010  0.0162
  260MOL0     O35001   4.581   6.089   5.262 -0.1546  0.5643 -0.1365
  260MOL0     C35002   4.514   6.212   5.289  0.2942 -0.5250  0.6707
  260MOL0     C35003   4.365   6.197   5.325 -0.0405 -0.7229 -0.1020
  260MOL0     C35004   4.318   6.340   5.379  0.0716 -0.3795 -1.5044
  260MOL0     C35005   4.172   6.336   5.411  0.6317 -0.3931  0.3828
  260MOL0     C35006   4.124   6.460   5.486  0.5387 -0.2363 -0.2663
  260MOL0     C35007   3.975   6.461   5.506  0.3818  0.3487  0.0228
  260MOL0     C35008   3.876   6.430   5.391 -0.4010 -0.2109 -0.4801
  260MOL0     C35009   3.750   6.500   5.392  0.5683  0.7249 -0.1575
  260MOL0    Cl35010   3.646   6.488   5.544  0.6374 -0.5129 -0.3546
  260MOL0     C35011   4.806   6.210   5.234 -0.0496  1.0534  0.4099
  260MOL0     C35012   4.939   6.184   5.206 -0.1047 -0.1283 -0.2831
  260MOL0     O35013   5.201   6.014   5.361  0.2255  0.1705  0.4851
  260MOL0     C35014   5.471   6.020   5.275  0.8204 -0.5138  0.0183
  260MOL0     C35015   5.599   6.037   5.217 -0.6262 -0.7363  0.3003
  260MOL0     N35016   6.294   6.093   5.373 -0.5493  0.2999 -0.0109
  260MOL0     N35017   6.387   6.018   5.332 -0.9469  0.4531  0.5740
  260MOL0     C35018   5.570   5.529   5.332  0.2167  0.8762  0.1428
  260MOL0     C35019   5.457   5.567   5.406  0.1192  0.6845  0.7164
  260MOL0     C35020   5.014   5.648   5.462  0.1509 -0.2804 -0.4568
  260MOL0     C35021   4.987   5.782   5.491 -0.2099 -0.6798  0.5058
  260MOL0     C35022   4.870   5.818   5.566 -0.1546  0.4593  0.0508
  260MOL0     C35023   4.780   5.721   5.594  0.6796  0.9156 -0.6684
  260MOL0     O35024   4.658   5.759   5.655 -0.1299  0.8581  0.9950
  260MOL0     C35025   4.551   5.781   5.556 -0.1703  0.2803  0.9560
  260MOL0     C35026   4.447   5.671   5.580  0.1230  0.5373  0.3403
  260MOL0     C35027   4.373   5.704   5.717  0.2140  0.4277 -1.0013
  260MOL0     C35028   4.288   5.582   5.759 -0.6111  0.1599 -0.2903
  260MOL0     C35029   4.175   5.546   5.672 -0.6818  0.4603 -0.3377
  260MOL0     C35030   4.063   5.523   5.628 -0.5953 -0.1357 -0.0129
  260MOL0     C35031   4.799   5.587   5.559 -0.7248  0.2350  0.0517
  260MOL0     C35032   4.911   5.551   5.487  0.8173  0.0194  0.2563
  260MOL0     H35033   5.293   5.739   5.178 -0.6014  0.6798  3.7457
  260MOL0     H35034   5.518   5.691   5.035  0.6678 -0.9615 -1.3617
  260MOL0     H35035   5.852   5.645   5.052 -1.1182  3.3621  1.3739
  260MOL0     H35036   5.812   5.670   5.215  0.3110  1.7224 -0.4502
  260MOL0     H35037   5.900   5.460   5.291  2.7241 -1.5069  0.8002
  260MOL0     H35038   5.933   5.410   5.117 -0.6724  0.5323 -0.2259
  260MOL0     H35039   6.051   5.663   5.203 -0.0930  0.6652 -3.6623
  260MOL0     H35040   6.116   5.504   5.268  0.7599 -2.2698 -0.7868
  260MOL0     H35041   6.229   5.478   5.055  1.6897  2.4228  1.5262
  260MOL0     H35042   6.074   5.516   4.969  2.2959 -0.7556 -1.8227
  260MOL0     H35043   6.264   5.653   4.911 -0.5536 -0.5791  0.9038
  260MOL0     H35044   6.138   5.754   4.985  0.2311  0.8900  1.1208
  260MOL0     H35045   6.263   5.784   5.197  4.1824 -1.8903  4.4213
  260MOL0     H35046   6.368   5.649   5.153 -0.2795  0.4885 -0.1332
  260MOL0     H35047   6.475   5.788   4.964  1.8665  0.1823  1.7136
  260MOL0     H35048   6.338   5.899   4.973  1.8151  2.7845  0.7501
  260MOL0     H35049   6.525   5.991   5.044 -2.1248  0.4380 -1.5389
  260MOL0     H35050   6.542   5.872   5.183  0.8164  0.3769 -0.7225
  260MOL0     H35051   6.279   6.135   5.043  4.8460  1.1177 -0.4894
  260MOL0     H35052   6.069   6.246   5.368  0.1106 -0.9529  0.1613
  260MOL0     H35053   6.157   6.348   5.258 -0.4157  0.8736  2.5205
  260MOL0     H35054   6.043   6.208   5.063  1.0588  0.4707  1.0030
  260MOL0     H35055   5.946   6.308   5.164  0.2215 -0.3673  1.1090
  260MOL0     H35056   5.865   6.109   5.289 -3.0463 -1.7512 -1.2883
  260MOL0     H35057   6.014   6.012   5.248 -1.4924 -0.6366  3.5669
  260MOL0     H35058   5.836   5.921   5.101  0.5341 -0.7458 -1.6207
  260MOL0     H35059   5.947   6.015   5.015  1.3234  1.8924  1.2212
  260MOL0     H35060   5.550   6.202   4.935  0.4351  0.1253  0.8135
  260MOL0     H35061   5.250   6.138   4.920  1.3444  0.5137 -2.6585
  260MOL0     H35062   5.215   6.253   5.045  0.3379 -4.4909  2.5377
  260MOL0     H35063   5.350   6.284   4.929 -1.0082  0.8207 -0.2035
  260MOL0     H35064   4.943   5.846   5.171 -0.2084 -0.2942  1.4969
  260MOL0     H35065   4.697   5.893   5.219 -1.9428  2.2882  1.4605
  260MOL0     H35066   4.561   6.253   5.379 -1.3070  0.4909  1.0840
  260MOL0     H35067   4.534   6.288   5.212  2.1018 -0.0101  1.5831
  260MOL0     H35068   4.305   6.170   5.238 -2.6836 -1.9836  1.9494
  260MOL0     H35069   4.353   6.124   5.406  0.1510 -0.6169  0.0228
  260MOL0     H35070   4.334   6.422   5.308 -0.5514 -0.8693 -2.2336
  260MOL0     H35071   4.371   6.361   5.472 -3.7684  0.6843  0.6536
  260MOL0     H35072   4.116   6.332   5.317  0.5278  2.8356  0.1938
  260MOL0     H35073   4.150   6.245   5.468  0.0964 -1.7157 -1.8056
  260MOL0     H35074   4.151   6.544   5.422  1.5086 -1.9850 -2.2575
  260MOL0     H35075   4.169   6.456   5.585  2.4401 -4.1629 -1.1077
  260MOL0     H35076   3.952   6.385   5.581  0.3694 -0.4858 -0.8210
  260MOL0     H35077   3.939   6.552   5.556 -1.7486 -1.4773  2.0318
  260MOL0     H35078   3.847   6.325   5.400  0.4372 -0.4793 -0.8489
  260MOL0     H35079   3.930   6.454   5.299 -0.4403  1.9514  0.0029
  260MOL0     H35080   3.683   6.452   5.320 -0.7885 -3.1510  3.3101
  260MOL0     H35081   3.771   6.604   5.366 -0.9185  0.8118 -1.1477
  260MOL0     H35082   4.767   6.309   5.256 -3.4728 -0.2333  0.7555
  260MOL0     H35083   5.011   6.265   5.205  0.8125 -0.9276 -0.9288
  260MOL0     H35084   5.449   5.967   5.367  2.4690 -3.7810 -1.2930
  260MOL0     H35085   5.671   5.977   5.271 -0.8502 -2.0484 -0.7890
  260MOL0     H35086   5.641   5.467   5.386 -1.9107 -2.1412 -0.2676
  260MOL0     H35087   5.425   5.524   5.501 -2.3841  1.1221  0.1155
  260MOL0     H35088   5.059   5.862   5.475 -2.1085  1.5258  2.3333
  260MOL0     H35089   4.859   5.924   5.589  0.8935  0.1593  2.1760
  260MOL0     H35090   4.506   5.881   5.559  0.8812  0.7731  0.8747
  260MOL0     H35091   4.580   5.769   5.451 -0.3097 -0.0940  0.9581
  260MOL0     H35092   4.490   5.571   5.577  0.5953  0.7559 -2.0460
  260MOL0     H35093   4.380   5.671   5.494  3.0948 -0.0411 -2.1633
  260MOL0     H35094   4.303   5.788   5.707 -0.4855  0.0393  0.4516
  260MOL0     H35095   4.444   5.723   5.799 -0.0722 -2.0939 -0.0937
  260MOL0     H35096   4.256   5.625   5.855 -1.7518 -0.5088 -0.3590
  260MOL0     H35097   4.351   5.496   5.784 -1.2000  0.5189  2.7695
  260MOL0     H35098   3.963   5.510   5.591 -0.9779  1.0144  0.5684
  260MOL0     H35099   4.725   5.510   5.579  1.3934 -1.6574  1.1527
  260MOL0     H35100   4.925   5.451   5.447 -0.5175  0.4704 -1.4551
  261MOL0     O35101   0.729   1.585   4.523  0.0234  0.0766 -0.1749
  261MOL0     C35102   0.817   1.510   4.567 -0.0904  0.3824  0.0097
  261MOL0     O35103   0.798   1.394   4.626  0.4319  0.5394  0.5925
  261MOL0     C35104   0.671   1.340   4.617 -0.1275 -0.5066 -0.0571
  261MOL0     C35105   0.620   1.296   4.491  0.0652 -0.4869  0.2893
  261MOL0     C35106   0.490   1.243   4.489 -0.5833  0.0208  0.6426
  261MOL0     C35107   0.416   1.234   4.609  0.1447 -0.3992  0.5443
  261MOL0     O35108   0.295   1.181   4.581  0.3925 -0.1620  0.0620
  261MOL0     C35109   0.189   1.187   4.678  0.1532 -0.5781  0.0434
  261MOL0     C35110   0.073   1.085   4.649 -0.8752 -0.3592 -0.1608
  261MOL0     C35111  -0.055   1.125   4.728  0.3807  0.1899 -0.3329
  261MOL0     C35112  -0.099   1.271   4.715  0.2738  0.6394  1.3836
  261MOL0     C35113  -0.239   1.311   4.754 -0.9189 -0.0295  0.8670
  261MOL0     C35114  -0.290   1.263   4.883 -0.0541  0.2701 -1.3039
  261MOL0     C35115  -0.410   1.350   4.937  0.5104  0.1377  0.4102
  261MOL0     C35116  -0.527   1.255   4.980 -0.6037  0.4322 -0.0249
  261MOL0     N35117  -0.574   1.170   4.869 -0.2433  0.0768  0.2674
  261MOL0     C35118  -0.579   1.207   4.736  0.2470 -0.1037 -0.2127
  261MOL0     C35119  -0.591   1.090   4.675 -1.0280  0.5351  1.1848
  261MOL0     C35120  -0.605   1.071   4.523 -0.2394 -0.9045 -0.5364
  261MOL0     C35121  -0.660   0.931   4.493  0.2056  0.8167  0.3406
  261MOL0     C35122  -0.687   0.911   4.344 -0.6860  0.5387  0.5008
  261MOL0     C35123  -0.826   0.939   4.290 -0.3412 -0.7848  0.1879
  261MOL0     O35124  -0.840   0.883   4.158  0.4757  0.0474  0.0477
  261MOL0     C35125  -0.948   0.934   4.080 -0.2737 -0.5208  0.0550
  261MOL0     C35126  -1.073   0.965   4.124 -0.6713  0.5588 -0.9255
  261MOL0     C35127  -1.165   1.032   4.047 -0.0786 -0.9335 -0.1548
  261MOL0     C35128  -1.296   1.068   4.106  0.6536 -1.0071 -0.0841
  261MOL0     C35129  -1.128   1.060   3.910  0.6975  0.3726 -0.1824
  261MOL0     C35130  -1.213   1.124   3.799 -0.5249 -0.1235  0.1682
  261MOL0     O35131  -1.179   1.115   3.666  0.1750 -0.1506 -0.8015
  261MOL0     C35132  -1.260   1.187   3.581 -0.2523  0.1837 -0.6597
  261MOL0     C35133  -1.381   1.133   3.534  0.9202  0.2101  1.1749
  261MOL0     C35134  -1.474   1.219   3.462 -0.3135  0.2386  0.0820
  261MOL0     C35135  -1.437   1.351   3.432  0.6193  0.1447 -0.6689
  261MOL0     O35136  -1.518   1.438   3.369  0.0676 -0.3335  0.3164
  261MOL0     C35137  -1.662   1.425   3.382  0.1364 -0.4570  0.3514
  261MOL0     C35138  -1.735   1.547   3.322 -0.2570 -1.0461 -0.4081
  261MOL0     C35139  -1.722   1.666   3.413 -0.5700  0.5956 -0.0081
  261MOL0     C35140  -1.770   1.792   3.341  0.2339  0.1509  0.3957
  261MOL0     C35141  -1.921   1.796   3.303  1.0532  0.1742  0.6754
  261MOL0     C35142  -2.033   1.783   3.407 -0.1168 -0.2764 -0.2560
  261MOL0     C35143  -2.161   1.851   3.357  0.1008  0.5704  0.1966
  261MOL0     C35144  -2.272   1.856   3.468 -0.3570 -0.2552  0.8705
  261MOL0    Cl35145  -2.417   1.934   3.401  0.4365 -0.2046  0.1678
  261MOL0     C35146  -1.307   1.396   3.468  0.7642 -0.1189 -0.8782
  261MOL0     C35147  -1.227   1.313   3.554  0.9342  0.0218  0.0177
  261MOL0     O35148  -1.301   1.193   3.841 -1.2384  0.0498 -0.9213
  261MOL0     C35149  -1.006   1.016   3.861 -0.5480 -0.4392 -0.2934
  261MOL0     C35150  -0.918   0.957   3.942  0.0302 -0.2724 -0.2608
  261MOL0     N35151  -0.600   0.983   4.760 -0.1511 -0.4611 -0.3721
  261MOL0     N35152  -0.585   1.034   4.878 -0.2077  0.6416 -0.2542
  261MOL0     C35153   0.474   1.263   4.730 -0.4867 -0.3378 -0.7362
  261MOL0     C35154   0.599   1.322   4.741  0.9085  0.4969 -0.2816
  261MOL0     C35155   0.954   1.563   4.569  0.6692 -0.2164 -0.0004
  261MOL0     C35156   0.983   1.682   4.488 -0.9023  0.4789 -0.2514
  261MOL0     C35157   1.117   1.738   4.489  0.6256 -0.4641  0.7343
  261MOL0     C35158   1.215   1.682   4.570  0.0577 -0.0071 -0.2320
  261MOL0     O35159   1.348   1.738   4.576  0.0429  0.6638 -0.2373
  261MOL0     C35160   1.430   1.716   4.460  1.3599  0.2550  0.2268
  261MOL0     C35161   1.526   1.598   4.480  0.6045  0.4878 -0.6274
  261MOL0     C35162   1.622   1.629   4.608  0.4170  0.5441  0.1741
  261MOL0     C35163   1.718   1.742   4.585 -0.5435 -0.3046 -0.5723
  261MOL0     C35164   1.825   1.709   4.495 -0.3992 -0.4927  0.1287
  261MOL0     C35165   1.920   1.677   4.420  0.7981  0.2294 -0.3311
  261MOL0     C35166   1.181   1.562   4.643 -0.9270  0.0392  1.0084
  261MOL0     C35167   1.054   1.505   4.648  0.3164  0.9834  0.9020
  261MOL0     H35168   0.689   1.303   4.407 -0.2525  0.0045  0.0647
  261MOL0     H35169   0.439   1.208   4.400  2.5943 -0.3274 -1.1905
  261MOL0     H35170   0.220   1.176   4.782  1.7719  1.6461 -0.1355
  261MOL0     H35171   0.154   1.290   4.667  0.7797 -0.4972 -1.4913
  261MOL0     H35172   0.046   1.097   4.544 -3.1887 -0.4113  0.3721
  261MOL0     H35173   0.103   0.982   4.670 -0.8859 -0.6632 -1.5502
  261MOL0     H35174  -0.127   1.058   4.681  0.6082 -1.8156  1.9938
  261MOL0     H35175  -0.047   1.102   4.835 -0.5637  0.1869 -0.2523
  261MOL0     H35176  -0.038   1.338   4.777 -3.2442 -0.3048  6.5442
  261MOL0     H35177  -0.085   1.298   4.610 -1.1289 -2.6566  0.2183
  261MOL0     H35178  -0.236   1.419   4.772 -0.1384 -0.2559  2.1748
  261MOL0     H35179  -0.311   1.286   4.675 -1.6337  2.0881  0.7849
  261MOL0     H35180  -0.320   1.159   4.867  0.7176 -0.2871  0.5603
  261MOL0     H35181  -0.213   1.264   4.961 -2.3055 -2.0985  1.2145
  261MOL0     H35182  -0.386   1.407   5.027  1.5156 -0.6302  0.6329
  261MOL0     H35183  -0.432   1.427   4.861 -2.5217 -0.0909  0.9150
  261MOL0     H35184  -0.606   1.318   5.021  1.0643  2.0046  0.9632
  261MOL0     H35185  -0.474   1.195   5.054  0.3798  0.4345 -0.7029
  261MOL0     H35186  -0.582   1.303   4.686  0.3741  0.2986  0.5293
  261MOL0     H35187  -0.673   1.146   4.483  0.1857 -1.5149 -2.4860
  261MOL0     H35188  -0.507   1.074   4.474 -0.2122 -0.9101 -0.4832
  261MOL0     H35189  -0.753   0.913   4.547  0.5429 -0.8871  0.4339
  261MOL0     H35190  -0.587   0.854   4.521  0.7992  0.4946 -1.8926
  261MOL0     H35191  -0.673   0.807   4.315 -0.3142  0.8439 -0.4447
  261MOL0     H35192  -0.607   0.964   4.292 -0.3574 -0.4350  0.0016
  261MOL0     H35193  -0.848   1.045   4.297 -2.3283 -0.8810 -2.7831
  261MOL0     H35194  -0.902   0.901   4.360 -0.5377 -2.8253 -1.0323
  261MOL0     H35195  -1.089   0.947   4.230  0.3934 -3.0108 -1.2397
  261MOL0     H35196  -1.310   1.032   4.208 -1.4235 -2.1133 -0.7194
  261MOL0     H35197  -1.314   1.176   4.109  1.1023 -0.9465  1.7745
  261MOL0     H35198  -1.376   1.027   4.045 -2.6490 -1.5971  4.1723
  261MOL0     H35199  -1.426   1.036   3.555 -0.1749  0.5663  0.5837
  261MOL0     H35200  -1.572   1.182   3.433 -1.4437  3.2653 -0.2908
  261MOL0     H35201  -1.694   1.331   3.336 -2.2212 -1.9233  4.4111
  261MOL0     H35202  -1.690   1.397   3.484 -1.0887  0.1111  0.1898
  261MOL0     H35203  -1.713   1.558   3.215 -1.7250 -4.4730 -1.2281
  261MOL0     H35204  -1.840   1.515   3.325 -0.2208 -1.2347 -1.0687
  261MOL0     H35205  -1.623   1.681   3.457 -0.2532  0.3979 -0.6349
  261MOL0     H35206  -1.789   1.655   3.499  0.4167 -2.3042  0.5120
  261MOL0     H35207  -1.744   1.875   3.407  0.8383  1.1027 -0.9866
  261MOL0     H35208  -1.707   1.807   3.253  0.5501  1.5798  0.8410
  261MOL0     H35209  -1.943   1.720   3.227 -1.8483  1.1463  0.4312
  261MOL0     H35210  -1.931   1.891   3.249  0.1047  0.6601  1.6780
  261MOL0     H35211  -2.049   1.678   3.433  0.3574 -0.4288 -0.5793
  261MOL0     H35212  -2.003   1.830   3.501 -0.4411  0.0317 -0.3051
  261MOL0     H35213  -2.194   1.775   3.286 -0.5822 -0.4969  1.5982
  261MOL0     H35214  -2.149   1.953   3.319 -0.5739  1.3486  1.9532
  261MOL0     H35215  -2.243   1.941   3.532  0.3446  2.4464 -2.6785
  261MOL0     H35216  -2.281   1.768   3.532 -0.5284 -0.8676  0.0184
  261MOL0     H35217  -1.279   1.496   3.439  2.4487 -0.9753 -2.3978
  261MOL0     H35218  -1.135   1.356   3.593 -0.0658  2.1205  0.1926
  261MOL0     H35219  -0.983   1.034   3.756  0.8832 -0.2608  0.0382
  261MOL0     H35220  -0.815   0.940   3.912  1.0953  0.4495  2.5973
  261MOL0     H35221   0.425   1.231   4.821  1.6951  1.1133  1.0371
  261MOL0     H35222   0.643   1.346   4.837  2.4454  0.0796 -0.8467
  261MOL0     H35223   0.907   1.721   4.422 -1.6199  1.0073  0.8631
  261MOL0     H35224   1.133   1.825   4.426 -1.8812 -1.3874 -1.3397
  261MOL0     H35225   1.369   1.695   4.372  1.2762 -1.3569  0.6446
  261MOL0     H35226   1.493   1.803   4.439  1.6307 -0.0837 -0.3958
  261MOL0     H35227   1.581   1.589   4.385  2.6903 -0.3304  0.5974
  261MOL0     H35228   1.472   1.505   4.498  1.1011  0.0172 -1.4724
  261MOL0     H35229   1.687   1.542   4.618 -1.3180 -0.7515  0.6730
  261MOL0     H35230   1.561   1.634   4.699 -0.0421 -2.5564  0.1547
  261MOL0     H35231   1.763   1.765   4.682 -0.9612  0.9322 -0.6630
  261MOL0     H35232   1.656   1.825   4.551 -2.4683 -2.1120 -1.7751
  261MOL0     H35233   2.001   1.648   4.356  1.0852  4.3705 -2.2245
  261MOL0     H35234   1.259   1.517   4.704  1.1328  0.7006 -1.0160
  261MOL0     H35235   1.035   1.413   4.703  3.3294 -1.8571 -2.2516
  262MOL0     O35236   0.906   6.734   8.335  0.3172 -0.2425  0.8449
  262MOL0     C35237   0.990   6.685   8.262  0.8492 -0.5270 -0.3126
  262MOL0     O35238   0.966   6.615   8.151 -0.1465 -0.3319  0.5343
  262MOL0     C35239   0.845   6.592   8.094 -0.0420 -0.0671  0.4490
  262MOL0     C35240   0.731   6.578   8.166 -0.6676  1.0707 -0.4946
  262MOL0     C35241   0.620   6.522   8.100 -0.0080 -0.9111  0.6936
  262MOL0     C35242   0.612   6.524   7.963 -0.1144 -0.0493  1.0963
  262MOL0     O35243   0.487   6.511   7.904  0.8888  0.8704  0.6745
  262MOL0     C35244   0.491   6.513   7.755  0.0834 -0.0446 -0.8652
  262MOL0     C35245   0.352   6.539   7.698 -0.3836  0.1513  0.1051
  262MOL0     C35246   0.228   6.495   7.768 -0.1586  0.8445  0.2913
  262MOL0     C35247   0.098   6.537   7.708  0.2553 -0.2106  0.1069
  262MOL0     C35248  -0.010   6.460   7.779  0.2413  0.3982 -0.2432
  262MOL0     C35249  -0.136   6.516   7.713  0.2354  0.2969 -0.3715
  262MOL0     C35250  -0.252   6.464   7.801  0.6007 -0.1089 -0.2792
  262MOL0     C35251  -0.387   6.483   7.737 -0.0598  0.4129  0.0349
  262MOL0     N35252  -0.417   6.622   7.719  0.4319 -0.2462 -0.6841
  262MOL0     C35253  -0.446   6.715   7.813  0.6185 -0.1688  0.5253
  262MOL0     C35254  -0.488   6.828   7.747 -0.3506  0.1234  0.3306
  262MOL0     C35255  -0.528   6.961   7.793 -0.2476  0.2347 -0.3537
  262MOL0     C35256  -0.677   6.962   7.831  0.9224 -0.2519  0.8340
  262MOL0     C35257  -0.768   6.954   7.710  0.0868 -1.0105  1.0003
  262MOL0     C35258  -0.923   6.952   7.731 -0.0761 -0.3942 -0.3033
  262MOL0     O35259  -1.003   6.911   7.621 -0.0631  0.0518  0.4550
  262MOL0     C35260  -1.137   6.927   7.640  0.5948  0.7618  0.1100
  262MOL0     C35261  -1.213   6.971   7.747  0.3912 -1.3644 -0.0116
  262MOL0     C35262  -1.348   7.008   7.725 -0.7601  0.2811 -1.1953
  262MOL0     C35263  -1.413   7.087   7.828  0.3386 -0.1897  0.1643
  262MOL0     C35264  -1.421   6.960   7.612 -1.0884  0.0966  1.6116
  262MOL0     C35265  -1.563   6.972   7.583  0.4065  0.3998 -0.9611
  262MOL0     O35266  -1.617   6.898   7.486  0.0012 -0.0933  0.0343
  262MOL0     C35267  -1.751   6.912   7.467 -0.4130  0.1037  0.2588
  262MOL0     C35268  -1.794   6.913   7.334  1.0062 -0.5183 -0.1875
  262MOL0     C35269  -1.931   6.898   7.295 -0.6015  0.3777 -0.1056
  262MOL0     C35270  -2.036   6.881   7.393  0.1943  1.2207  0.3922
  262MOL0     O35271  -2.169   6.859   7.371  0.1519 -0.5575  0.6877
  262MOL0     C35272  -2.221   6.867   7.238  0.5600  0.3916 -0.4896
  262MOL0     C35273  -2.336   6.769   7.228  1.0176 -0.0976  0.4281
  262MOL0     C35274  -2.451   6.806   7.321 -0.2933  0.2891 -0.3338
  262MOL0     C35275  -2.537   6.921   7.268  0.1653  0.1397 -0.1632
  262MOL0     C35276  -2.655   6.962   7.366  0.0138  0.0259 -0.1345
  262MOL0     C35277  -2.732   7.077   7.299 -0.0371 -0.4595 -0.5355
  262MOL0     C35278  -2.851   7.119   7.381 -0.8405  0.4451  0.0689
  262MOL0     C35279  -2.959   7.191   7.286 -0.8685 -0.4257 -0.5847
  262MOL0    Cl35280  -3.043   7.078   7.175 -0.3915  0.0924 -0.2171
  262MOL0     C35281  -1.994   6.894   7.522 -1.0574 -0.5501 -0.4249
  262MOL0     C35282  -1.853   6.905   7.566  0.1179  0.3586 -0.6050
  262MOL0     O35283  -1.625   7.047   7.661 -0.0015  0.9790 -0.0536
  262MOL0     C35284  -1.347   6.881   7.512  1.1131  0.1829 -0.4943
  262MOL0     C35285  -1.211   6.869   7.536  0.5054 -0.1074 -0.1364
  262MOL0     N35286  -0.463   6.801   7.619 -0.2151  0.6828  0.3337
  262MOL0     N35287  -0.416   6.682   7.598 -0.5606 -0.4972 -0.9370
  262MOL0     C35288   0.733   6.531   7.891  0.0176  0.0904  0.0933
  262MOL0     C35289   0.845   6.570   7.959 -0.5496  0.2948  0.4930
  262MOL0     C35290   1.126   6.679   8.310 -0.5483  0.0693 -0.1585
  262MOL0     C35291   1.173   6.746   8.434 -0.4255  0.0064  0.5201
  262MOL0     C35292   1.308   6.751   8.467  0.1174  0.0075 -0.3039
  262MOL0     C35293   1.407   6.692   8.380 -0.1426 -0.5300  0.2240
  262MOL0     O35294   1.543   6.700   8.398  0.1256  0.2243  0.7043
  262MOL0     C35295   1.577   6.740   8.535 -0.8511  0.4415  0.5637
  262MOL0     C35296   1.729   6.705   8.555  1.2458  0.2022 -0.1716
  262MOL0     C35297   1.761   6.566   8.491 -0.3287  0.2722  0.2612
  262MOL0     C35298   1.917   6.547   8.499  0.0928  0.0584 -0.3775
  262MOL0     C35299   1.989   6.650   8.429 -1.1118  0.3083 -0.0532
  262MOL0     C35300   2.047   6.743   8.378 -0.1512  0.0911  0.3248
  262MOL0     C35301   1.370   6.640   8.262 -0.0393  0.2592 -0.1329
  262MOL0     C35302   1.227   6.626   8.233 -0.6124  0.2938 -0.7025
  262MOL0     H35303   0.721   6.602   8.271  0.0503 -0.7657  0.0520
  262MOL0     H35304   0.527   6.513   8.155 -0.9218 -0.3447 -0.7069
  262MOL0     H35305   0.558   6.593   7.722  1.5653 -1.7354 -2.0870
  262MOL0     H35306   0.523   6.418   7.712 -0.2234 -0.7075  0.3108
  262MOL0     H35307   0.354   6.649   7.697 -0.7449  0.2501 -3.0879
  262MOL0     H35308   0.349   6.506   7.593  1.3541 -0.0446  0.0933
  262MOL0     H35309   0.229   6.386   7.773 -1.6893  0.7685 -0.3427
  262MOL0     H35310   0.229   6.526   7.873 -0.5345  0.8958  0.2820
  262MOL0     H35311   0.086   6.646   7.713 -0.5544 -0.1151 -2.4285
  262MOL0     H35312   0.100   6.515   7.601  1.3482 -1.6446  0.3970
  262MOL0     H35313   0.004   6.353   7.766 -0.3241  0.2144  0.5799
  262MOL0     H35314  -0.016   6.475   7.887 -2.3581  1.9751 -0.5133
  262MOL0     H35315  -0.147   6.624   7.698 -1.0529  0.2091 -0.1778
  262MOL0     H35316  -0.133   6.470   7.614  2.9285 -5.0244  1.7559
  262MOL0     H35317  -0.230   6.357   7.803 -1.9349 -0.6703  0.5983
  262MOL0     H35318  -0.244   6.497   7.905  0.7601  0.2723 -0.4098
  262MOL0     H35319  -0.458   6.427   7.798  0.8250 -0.4379  0.3154
  262MOL0     H35320  -0.383   6.433   7.640  2.0123 -1.7252  1.1272
  262MOL0     H35321  -0.436   6.704   7.921  1.1058 -0.8482  0.4146
  262MOL0     H35322  -0.485   6.975   7.892 -3.8108 -1.9061  1.6850
  262MOL0     H35323  -0.501   7.044   7.727 -2.0759 -1.0779 -2.9471
  262MOL0     H35324  -0.699   7.054   7.886  0.4252  0.8734 -1.1464
  262MOL0     H35325  -0.698   6.874   7.891 -0.7502  1.0070  2.1913
  262MOL0     H35326  -0.749   6.863   7.652  0.1285  1.3000 -3.0190
  262MOL0     H35327  -0.753   7.043   7.648 -0.4929 -1.1752  0.6042
  262MOL0     H35328  -0.954   7.050   7.770  2.6916 -0.3777  2.2053
  262MOL0     H35329  -0.944   6.874   7.805  1.3402 -1.8050 -1.3419
  262MOL0     H35330  -1.160   6.989   7.841  1.5441  0.1378 -0.9128
  262MOL0     H35331  -1.342   7.131   7.899  0.2677 -0.0600  0.1530
  262MOL0     H35332  -1.479   7.161   7.783 -2.9115 -2.4628  0.8326
  262MOL0     H35333  -1.476   7.024   7.893 -0.3066  0.0560 -0.2204
  262MOL0     H35334  -1.713   6.902   7.262  3.1022 -0.1556  1.9872
  262MOL0     H35335  -1.945   6.898   7.188  0.0833  1.0474 -0.2100
  262MOL0     H35336  -2.262   6.964   7.210  2.4512  0.5796 -2.9737
  262MOL0     H35337  -2.146   6.830   7.167  2.6763 -0.5500  2.0425
  262MOL0     H35338  -2.375   6.759   7.126 -0.6044  1.5682  0.8210
  262MOL0     H35339  -2.297   6.672   7.261 -2.5680 -2.8059 -2.4384
  262MOL0     H35340  -2.412   6.833   7.419  0.6957 -1.6360 -0.1429
  262MOL0     H35341  -2.517   6.720   7.334  0.4456 -0.0551  1.2731
  262MOL0     H35342  -2.470   7.007   7.255 -0.7351  1.4201  2.9955
  262MOL0     H35343  -2.582   6.888   7.173  0.5707  2.6211 -1.2965
  262MOL0     H35344  -2.624   6.997   7.465 -0.8499 -0.4516  0.3256
  262MOL0     H35345  -2.724   6.880   7.389 -1.3795  1.1912 -0.0322
  262MOL0     H35346  -2.665   7.162   7.282 -0.4859 -0.0968 -0.5334
  262MOL0     H35347  -2.768   7.042   7.202  1.8462 -1.2225 -0.9890
  262MOL0     H35348  -2.810   7.183   7.460 -0.8594  1.1475 -0.4813
  262MOL0     H35349  -2.906   7.033   7.421  1.9334 -0.6359  1.9164
  262MOL0     H35350  -2.924   7.282   7.238 -2.5105 -1.2197 -3.5564
  262MOL0     H35351  -3.035   7.228   7.355  0.5016 -1.0747  1.3446
  262MOL0     H35352  -2.074   6.894   7.596 -1.1130 -1.1361 -0.4808
  262MOL0     H35353  -1.832   6.893   7.672 -1.6751  1.6650 -0.0742
  262MOL0     H35354  -1.388   6.829   7.426 -3.0402  0.6985  0.9260
  262MOL0     H35355  -1.151   6.819   7.461  1.8990  2.0171 -0.5648
  262MOL0     H35356   0.741   6.524   7.783  0.3756  0.4206  0.0921
  262MOL0     H35357   0.944   6.570   7.913  0.4078 -1.3846  2.3880
  262MOL0     H35358   1.109   6.795   8.506 -1.2233  0.8341 -0.7133
  262MOL0     H35359   1.327   6.807   8.558 -0.9655 -3.2826  2.1489
  262MOL0     H35360   1.567   6.849   8.540  0.4496  1.2238 -5.5265
  262MOL0     H35361   1.513   6.693   8.610  0.6808 -0.2885  1.4569
  262MOL0     H35362   1.742   6.710   8.664 -1.0523 -0.9100  0.2256
  262MOL0     H35363   1.793   6.786   8.520 -0.4482  0.9925 -1.6017
  262MOL0     H35364   1.737   6.571   8.385  0.0725  3.4469  0.2347
  262MOL0     H35365   1.720   6.474   8.536  2.1289 -0.6203  0.8317
  262MOL0     H35366   1.955   6.458   8.448 -0.6781  0.1591 -1.1460
  262MOL0     H35367   1.946   6.551   8.604 -1.1193 -0.4431  0.0007
  262MOL0     H35368   2.114   6.811   8.329 -1.1216  0.2174 -0.8828
  262MOL0     H35369   1.451   6.611   8.196 -2.2085 -0.4060 -2.6722
  262MOL0     H35370   1.203   6.558   8.152 -3.5363 -0.3162  0.5480
  263MOL0     O35371   3.025   0.588   7.283 -0.7690  0.7378 -0.5175
  263MOL0     C35372   3.132   0.603   7.214  0.3969  0.0392 -0.3681
  263MOL0     O35373   3.138   0.630   7.081  0.1142  0.5057  0.1781
  263MOL0     C35374   3.026   0.638   7.003 -0.0698 -0.2636 -0.0259
  263MOL0     C35375   2.908   0.565   7.023  0.9448 -0.3067 -0.0953
  263MOL0     C35376   2.803   0.581   6.927 -0.3674 -0.3023  1.0731
  263MOL0     C35377   2.814   0.660   6.811  0.3277 -0.6734  0.7705
  263MOL0     O35378   2.719   0.675   6.710  0.8563  0.3333  0.0623
  263MOL0     C35379   2.763   0.582   6.605 -0.0501 -0.6602 -0.2179
  263MOL0     C35380   2.652   0.529   6.511 -0.3694 -0.4352  0.4416
  263MOL0     C35381   2.554   0.455   6.595 -0.5021  0.1157 -0.2236
  263MOL0     C35382   2.432   0.392   6.526 -0.0881  0.1949 -0.0929
  263MOL0     C35383   2.300   0.421   6.601 -0.9941  0.6515 -0.6402
  263MOL0     C35384   2.168   0.420   6.513  0.5045  0.1719  0.5134
  263MOL0     C35385   2.052   0.494   6.575  0.5772 -0.3438  0.0520
  263MOL0     C35386   1.992   0.438   6.702 -0.1591 -0.3947 -0.5515
  263MOL0     N35387   1.950   0.302   6.694  0.0844 -0.4005 -0.2490
  263MOL0     C35388   1.859   0.261   6.601 -0.4977 -0.1181 -0.2060
  263MOL0     C35389   1.836   0.131   6.637 -0.2565  0.0298 -0.3771
  263MOL0     C35390   1.745   0.031   6.569 -0.5190 -0.3306 -0.0024
  263MOL0     C35391   1.631  -0.016   6.666 -0.8712 -0.3212 -0.2392
  263MOL0     C35392   1.661  -0.155   6.722 -0.1044 -0.0131  0.6137
  263MOL0     C35393   1.553  -0.225   6.806 -0.9707 -0.1282  0.3633
  263MOL0     O35394   1.425  -0.227   6.744  0.1666  0.2613 -0.1696
  263MOL0     C35395   1.327  -0.284   6.823 -0.0786 -0.3350 -0.4833
  263MOL0     C35396   1.196  -0.295   6.768 -0.0169 -0.4860 -0.4601
  263MOL0     C35397   1.092  -0.346   6.839  0.0996  0.1838 -0.2120
  263MOL0     C35398   0.963  -0.338   6.766 -0.5233  0.2428 -0.4836
  263MOL0     C35399   1.111  -0.411   6.963 -0.1602 -0.2264 -0.9494
  263MOL0     C35400   1.011  -0.491   7.042  0.4014 -0.6161 -0.7297
  263MOL0     O35401   0.878  -0.470   7.028 -0.1634 -0.1354  0.2339
  263MOL0     C35402   0.790  -0.528   7.117 -0.3493 -1.1104  0.5422
  263MOL0     C35403   0.808  -0.528   7.254 -0.4830  0.7791  0.1266
  263MOL0     C35404   0.715  -0.590   7.336  0.0177  0.5237  0.1578
  263MOL0     C35405   0.594  -0.648   7.288 -0.0230 -0.6971  0.5053
  263MOL0     O35406   0.510  -0.701   7.383  0.6984  0.3652  0.0830
  263MOL0     C35407   0.369  -0.710   7.357 -1.2330 -0.2535  0.5698
  263MOL0     C35408   0.312  -0.799   7.472 -0.1688 -0.2157 -0.4717
  263MOL0     C35409   0.158  -0.824   7.449  0.2389  0.5593  0.6505
  263MOL0     C35410   0.102  -0.898   7.572  1.0544  0.1070 -0.4565
  263MOL0     C35411  -0.030  -0.958   7.523 -0.4629 -0.1532 -0.1162
  263MOL0     C35412  -0.110  -0.996   7.649 -0.6529 -0.5524  0.1873
  263MOL0     C35413  -0.261  -1.036   7.629  0.2085  0.4284 -0.9436
  263MOL0     C35414  -0.340  -0.929   7.538 -0.3093 -0.1759 -0.6848
  263MOL0    Cl35415  -0.490  -1.011   7.492 -0.5416 -0.1282 -0.0032
  263MOL0     C35416   0.565  -0.629   7.151 -0.6493  0.3063 -0.0660
  263MOL0     C35417   0.666  -0.572   7.072 -0.0506  0.6858 -0.5879
  263MOL0     O35418   1.067  -0.557   7.133  0.1832 -0.0265  1.2472
  263MOL0     C35419   1.242  -0.399   7.025  0.7637  1.2141  0.2044
  263MOL0     C35420   1.346  -0.338   6.956 -0.3594  0.0325  0.4534
  263MOL0     N35421   1.919   0.096   6.743  0.4816 -0.7852  0.2903
  263MOL0     N35422   1.992   0.203   6.771  0.5972  0.1036  0.0863
  263MOL0     C35423   2.928   0.734   6.788 -1.0726  0.3409 -0.4077
  263MOL0     C35424   3.035   0.727   6.886  0.0611 -0.0280 -0.4575
  263MOL0     C35425   3.263   0.603   7.287 -0.1759 -0.2398 -0.6971
  263MOL0     C35426   3.268   0.537   7.410 -0.0127 -0.0641 -0.5284
  263MOL0     C35427   3.394   0.525   7.476 -0.1185 -0.6628  0.1908
  263MOL0     C35428   3.513   0.582   7.423 -0.0399 -0.4088 -0.1732
  263MOL0     O35429   3.626   0.564   7.497 -0.2748 -0.1239 -0.5347
  263MOL0     C35430   3.741   0.644   7.458 -0.4679  0.4398  0.8708
  263MOL0     C35431   3.844   0.651   7.569  0.5754 -0.8011  0.0649
  263MOL0     C35432   3.934   0.526   7.573 -0.3887 -0.6135  0.7062
  263MOL0     C35433   3.856   0.396   7.594  0.1484  0.6407 -1.0013
  263MOL0     C35434   3.925   0.276   7.632  0.6434  0.2303 -0.8621
  263MOL0     C35435   3.982   0.171   7.656  0.3817 -0.0947 -0.3489
  263MOL0     C35436   3.503   0.654   7.299 -0.1430 -0.4146 -0.7137
  263MOL0     C35437   3.377   0.659   7.231 -1.0948 -0.1664  0.8555
  263MOL0     H35438   2.890   0.503   7.111  0.8686  0.1581  0.2221
  263MOL0     H35439   2.706   0.537   6.947 -0.0531 -1.7493 -0.3798
  263MOL0     H35440   2.845   0.629   6.551  0.4853 -1.6209 -0.2700
  263MOL0     H35441   2.811   0.494   6.650 -0.5227 -0.5867  0.4464
  263MOL0     H35442   2.608   0.608   6.449 -1.1869 -2.1195 -1.2285
  263MOL0     H35443   2.697   0.459   6.440 -1.3304 -0.3765 -0.2354
  263MOL0     H35444   2.602   0.369   6.644  0.2129  0.1348 -0.8887
  263MOL0     H35445   2.527   0.520   6.679 -0.7722 -0.7403  0.3791
  263MOL0     H35446   2.424   0.435   6.425 -0.2783 -1.2132 -0.7023
  263MOL0     H35447   2.434   0.285   6.501  0.7417  0.1659  0.0879
  263MOL0     H35448   2.292   0.357   6.689  0.8370  0.3494 -0.6488
  263MOL0     H35449   2.319   0.521   6.643  0.8978  0.5427 -1.1389
  263MOL0     H35450   2.189   0.465   6.415  0.4580  0.2703  0.5478
  263MOL0     H35451   2.144   0.314   6.503  2.1643 -0.1882  0.0009
  263MOL0     H35452   2.075   0.599   6.599 -2.1574  0.1778  0.7341
  263MOL0     H35453   1.972   0.500   6.501 -0.2202 -1.6411  0.7763
  263MOL0     H35454   1.906   0.499   6.733 -0.4340 -1.3952  0.6941
  263MOL0     H35455   2.069   0.428   6.779  0.7363  0.3930 -1.3070
  263MOL0     H35456   1.807   0.313   6.521  2.6446  0.4361 -2.0393
  263MOL0     H35457   1.715   0.071   6.472  1.2703 -0.3120 -0.5793
  263MOL0     H35458   1.812  -0.052   6.549 -0.8941 -0.6194 -0.0697
  263MOL0     H35459   1.538  -0.017   6.609 -0.5794 -2.0218 -0.7489
  263MOL0     H35460   1.623   0.052   6.751 -0.4622 -0.3632 -0.1646
  263MOL0     H35461   1.738  -0.132   6.797 -1.5183  0.3900  2.0018
  263MOL0     H35462   1.688  -0.226   6.644 -2.7834 -3.0320  2.1959
  263MOL0     H35463   1.558  -0.175   6.903  2.7551 -0.5713  0.5399
  263MOL0     H35464   1.585  -0.329   6.814  1.7836  0.6966  0.9202
  263MOL0     H35465   1.176  -0.248   6.672  2.6299 -0.7016 -1.1730
  263MOL0     H35466   0.973  -0.310   6.661  0.3268 -0.7860 -0.6970
  263MOL0     H35467   0.917  -0.438   6.766  2.5179 -1.3169  1.3958
  263MOL0     H35468   0.902  -0.269   6.824 -1.1300 -0.5781 -0.1208
  263MOL0     H35469   0.891  -0.470   7.294  0.8623 -1.7803  1.2774
  263MOL0     H35470   0.725  -0.588   7.444  0.4581 -2.4669  0.2537
  263MOL0     H35471   0.331  -0.607   7.353 -0.6244  0.1148  2.8549
  263MOL0     H35472   0.342  -0.757   7.262  0.8053  2.2907 -1.4775
  263MOL0     H35473   0.382  -0.883   7.471  0.3137  0.1786 -0.8954
  263MOL0     H35474   0.310  -0.750   7.569 -0.2472  3.1672 -2.0506
  263MOL0     H35475   0.145  -0.868   7.350 -0.3232  1.4103  0.3268
  263MOL0     H35476   0.108  -0.726   7.445 -0.1011  0.3522 -0.2242
  263MOL0     H35477   0.163  -0.979   7.614  1.6566  1.3831  1.2322
  263MOL0     H35478   0.089  -0.827   7.654  1.3436 -2.0582  1.6155
  263MOL0     H35479  -0.015  -1.046   7.461 -0.9227 -1.0670  1.0199
  263MOL0     H35480  -0.083  -0.887   7.459 -0.0073  0.2708 -0.0240
  263MOL0     H35481  -0.065  -1.083   7.699 -0.2176 -0.1585  0.4908
  263MOL0     H35482  -0.114  -0.908   7.714 -2.8496  0.0030 -0.6114
  263MOL0     H35483  -0.300  -1.051   7.730  0.2462  0.7278 -0.8828
  263MOL0     H35484  -0.270  -1.138   7.591 -1.5677  0.3807 -0.4749
  263MOL0     H35485  -0.283  -0.912   7.446  1.3967 -2.5690 -0.1638
  263MOL0     H35486  -0.360  -0.835   7.591  3.2213 -1.1188  2.8173
  263MOL0     H35487   0.470  -0.667   7.116  0.0857 -0.6327 -1.0821
  263MOL0     H35488   0.643  -0.558   6.967  1.8664  2.1684 -0.8651
  263MOL0     H35489   1.265  -0.443   7.121  3.7529 -3.7755 -2.3573
  263MOL0     H35490   1.439  -0.324   7.011  0.8851  0.5247 -1.6597
  263MOL0     H35491   2.937   0.784   6.692  0.7562  2.4403  0.7622
  263MOL0     H35492   3.130   0.778   6.875  0.7233 -0.6877  1.7213
  263MOL0     H35493   3.179   0.488   7.448 -0.2534 -0.3977 -1.4801
  263MOL0     H35494   3.384   0.473   7.571 -5.2655  3.3351  2.3527
  263MOL0     H35495   3.780   0.596   7.368 -0.2303  0.0611  1.1769
  263MOL0     H35496   3.715   0.747   7.430 -2.2683 -0.0696  0.5137
  263MOL0     H35497   3.782   0.669   7.657 -0.5354  0.5945 -0.9545
  263MOL0     H35498   3.909   0.739   7.556 -0.7600  0.2431  0.2820
  263MOL0     H35499   4.011   0.536   7.650  0.1985  3.1260 -0.1874
  263MOL0     H35500   3.991   0.512   7.481  1.5375 -0.1533  1.7674
  263MOL0     H35501   3.807   0.363   7.502  0.0516 -0.7790 -0.4538
  263MOL0     H35502   3.768   0.421   7.654  1.2542 -1.1691  1.5343
  263MOL0     H35503   4.029   0.081   7.691 -3.3066 -1.6070  1.1971
  263MOL0     H35504   3.594   0.698   7.260 -0.6249 -0.3576 -1.8428
  263MOL0     H35505   3.384   0.711   7.136  0.4806 -0.7821  0.6005
  264MOL0     O35506  11.090   0.219  10.892  0.8271  0.0042 -0.2222
  264MOL0     C35507  10.999   0.136  10.917  0.4004 -0.2004 -0.5613
  264MOL0     O35508  10.895   0.162  10.999 -0.5588 -0.0198 -0.2222
  264MOL0     C35509  10.919   0.247  11.110  0.4281  1.0900  0.1456
  264MOL0     C35510  10.812   0.309  11.164 -0.3102  0.7562 -0.0465
  264MOL0     C35511  10.823   0.396  11.272 -0.1938  0.2022  0.1289
  264MOL0     C35512  10.948   0.437  11.325  0.2158  0.7590  0.3463
  264MOL0     O35513  10.958   0.521  11.432  0.1703  0.1066  0.1482
  264MOL0     C35514  10.842   0.590  11.483  0.1048 -1.0629 -0.1384
  264MOL0     C35515  10.862   0.645  11.626 -0.0674  1.0527  0.0387
  264MOL0     C35516  10.738   0.727  11.669 -0.4589  0.1250 -0.1849
  264MOL0     C35517  10.598   0.668  11.673 -0.8988 -0.1753  0.4683
  264MOL0     C35518  10.495   0.747  11.746  0.4994  0.4374  0.3823
  264MOL0     C35519  10.362   0.724  11.687  0.3375 -0.5280  0.8461
  264MOL0     C35520  10.246   0.803  11.760 -0.8392  0.1171 -0.1571
  264MOL0     C35521  10.116   0.805  11.682 -0.6449 -0.2560  0.1910
  264MOL0     N35522  10.007   0.878  11.755  0.7263 -0.2588  0.8959
  264MOL0     C35523   9.896   0.929  11.690  0.6279 -0.2564 -0.6180
  264MOL0     C35524   9.816   0.973  11.794  0.5117  0.6093  0.3639
  264MOL0     C35525   9.664   1.007  11.789 -0.1751 -0.7748 -0.5403
  264MOL0     C35526   9.572   0.925  11.866  0.0047 -0.1301 -0.6781
  264MOL0     C35527   9.425   0.968  11.866 -0.5666  0.1715  0.8480
  264MOL0     C35528   9.386   1.111  11.896 -0.0427 -0.5194  0.3429
  264MOL0     O35529   9.246   1.140  11.883  0.0320  0.5509 -0.1267
  264MOL0     C35530   9.200   1.264  11.916  0.3877  0.4371 -0.1727
  264MOL0     C35531   9.275   1.374  11.957 -0.1614 -0.5629 -0.1151
  264MOL0     C35532   9.225   1.499  11.981 -0.1137  0.1105  0.5173
  264MOL0     C35533   9.328   1.610  11.989  0.5201  0.6354 -0.2015
  264MOL0     C35534   9.087   1.515  11.992 -0.8151 -0.7466  0.5012
  264MOL0     C35535   9.022   1.640  12.037  0.5231  0.7060  0.9693
  264MOL0     O35536   8.881   1.648  12.043  0.1595 -0.6124 -1.2749
  264MOL0     C35537   8.833   1.768  12.081  0.5453 -0.3443 -0.1838
  264MOL0     C35538   8.750   1.794  12.194 -1.0256  0.4514  0.3160
  264MOL0     C35539   8.692   1.917  12.214 -0.1280  0.1606  0.4182
  264MOL0     C35540   8.700   2.021  12.115  0.4621  0.8916  0.3481
  264MOL0     O35541   8.620   2.133  12.123 -0.2052 -0.2640  0.6584
  264MOL0     C35542   8.517   2.129  12.218  0.7556  0.1346 -0.5366
  264MOL0     C35543   8.432   2.262  12.211  0.2310  0.0323 -0.1841
  264MOL0     C35544   8.332   2.253  12.091 -0.5466  0.3221 -0.2697
  264MOL0     C35545   8.262   2.383  12.047 -0.3708  0.4922  0.3797
  264MOL0     C35546   8.146   2.343  11.943 -0.2629  0.1596 -0.3937
  264MOL0     C35547   8.028   2.439  11.951 -0.0249 -0.1050  0.2891
  264MOL0     C35548   7.917   2.381  11.869 -0.3434 -0.4779 -0.8443
  264MOL0     C35549   7.923   2.413  11.723 -0.0882  0.4486 -0.7518
  264MOL0    Cl35550   7.805   2.315  11.650 -0.1971 -0.0628 -0.0709
  264MOL0     C35551   8.790   1.996  12.005  0.9007 -0.3816  0.2120
  264MOL0     C35552   8.849   1.875  11.989  0.4142 -0.8631 -0.1139
  264MOL0     O35553   9.095   1.740  12.054  0.1320 -0.2158 -0.2119
  264MOL0     C35554   9.007   1.402  11.960 -0.1683  0.1695 -0.4904
  264MOL0     C35555   9.063   1.281  11.915  0.4152 -0.0358  0.1666
  264MOL0     N35556   9.887   0.965  11.909  0.4558 -0.4226 -0.0903
  264MOL0     N35557   9.992   0.898  11.889  0.1570 -0.4322 -0.9004
  264MOL0     C35558  11.062   0.370  11.278  0.4366 -1.0596  0.4723
  264MOL0     C35559  11.046   0.275  11.173 -0.6816 -0.2132  0.1236
  264MOL0     C35560  10.987   0.018  10.833 -0.2082  1.1837  1.1324
  264MOL0     C35561  10.894  -0.092  10.861 -0.4558 -0.4618 -0.1315
  264MOL0     C35562  10.876  -0.197  10.767  0.6677  0.7159 -1.0160
  264MOL0     C35563  10.947  -0.202  10.648  0.1521  0.7441  0.1667
  264MOL0     O35564  10.943  -0.298  10.554  0.1742  0.7220 -0.0453
  264MOL0     C35565  10.877  -0.428  10.566 -0.1367 -0.6567 -0.5024
  264MOL0     C35566  10.734  -0.430  10.544  0.8304 -0.0783 -0.5936
  264MOL0     C35567  10.709  -0.398  10.391  0.6799 -0.5574  0.4594
  264MOL0     C35568  10.561  -0.397  10.362 -0.2396 -0.8066 -0.4896
  264MOL0     C35569  10.482  -0.524  10.360  0.0947  0.1553  0.3464
  264MOL0     C35570  10.402  -0.619  10.366  0.7655 -0.0736  0.0541
  264MOL0     C35571  11.043  -0.104  10.620 -0.8411 -1.4607 -0.2227
  264MOL0     C35572  11.062   0.009  10.707  0.2858 -0.3398 -0.2847
  264MOL0     H35573  10.723   0.285  11.107 -0.4658 -1.1312  0.9217
  264MOL0     H35574  10.726   0.432  11.306 -1.4791 -2.2495 -0.6820
  264MOL0     H35575  10.808   0.661  11.408 -1.8025  0.7513  2.2475
  264MOL0     H35576  10.754   0.526  11.496  0.1598 -0.8169  1.7781
  264MOL0     H35577  10.873   0.563  11.697 -1.1380  1.3956  0.6230
  264MOL0     H35578  10.950   0.710  11.636  0.7009  0.1262 -0.5583
  264MOL0     H35579  10.764   0.762  11.769 -2.1318  3.9771 -0.9051
  264MOL0     H35580  10.738   0.820  11.612 -0.1276  0.3843  0.2282
  264MOL0     H35581  10.562   0.641  11.573 -0.0082 -3.9675  1.0013
  264MOL0     H35582  10.599   0.573  11.728 -0.4520  0.1126  0.9638
  264MOL0     H35583  10.502   0.717  11.851  0.1118 -3.5072 -0.5476
  264MOL0     H35584  10.522   0.852  11.736  1.3211  0.2610  0.6407
  264MOL0     H35585  10.357   0.756  11.583 -2.4777  0.4703  1.1828
  264MOL0     H35586  10.331   0.619  11.693 -0.1444 -0.6575 -2.2389
  264MOL0     H35587  10.228   0.755  11.857  1.3753  0.3013  0.3882
  264MOL0     H35588  10.291   0.901  11.776  2.6331 -1.4479  0.5985
  264MOL0     H35589  10.092   0.700  11.667  1.0523 -0.4921 -1.0881
  264MOL0     H35590  10.145   0.848  11.586  3.1501 -3.5126 -0.3362
  264MOL0     H35591   9.871   0.912  11.585  1.3342  0.7473 -0.9610
  264MOL0     H35592   9.658   1.113  11.816 -0.9562 -0.3134 -2.3810
  264MOL0     H35593   9.631   1.006  11.685  0.1619  1.8002 -0.7506
  264MOL0     H35594   9.599   0.923  11.971  0.0596  0.2567 -0.6839
  264MOL0     H35595   9.576   0.825  11.821  0.3581 -1.0699  1.3650
  264MOL0     H35596   9.364   0.904  11.930 -1.6020 -1.5537 -1.7070
  264MOL0     H35597   9.391   0.951  11.763  0.2932 -3.1442  1.0107
  264MOL0     H35598   9.442   1.176  11.827  1.9240  0.9981  3.1390
  264MOL0     H35599   9.423   1.146  11.993 -1.1210  1.1016  0.2120
  264MOL0     H35600   9.382   1.373  11.944 -0.2279  0.9767 -0.9494
  264MOL0     H35601   9.320   1.657  12.088  0.1215  0.6853 -0.2582
  264MOL0     H35602   9.429   1.569  11.979 -1.0187 -3.1823 -1.7905
  264MOL0     H35603   9.325   1.682  11.907  0.9833 -1.8279 -2.5182
  264MOL0     H35604   8.749   1.714  12.267 -0.3404 -0.6254 -0.8065
  264MOL0     H35605   8.634   1.931  12.305  1.0129  1.4976  0.9832
  264MOL0     H35606   8.450   2.043  12.210  1.7138 -0.8180  1.0900
  264MOL0     H35607   8.550   2.127  12.322 -0.5464 -2.8710 -0.0791
  264MOL0     H35608   8.366   2.259  12.298 -0.0521  1.6857 -0.3095
  264MOL0     H35609   8.492   2.353  12.212  0.6422 -0.2467  0.8381
  264MOL0     H35610   8.252   2.184  12.121 -1.5106  1.7890  0.6651
  264MOL0     H35611   8.384   2.212  12.004 -1.1526 -2.3017  0.5010
  264MOL0     H35612   8.221   2.428  12.138  2.0977  0.0503  1.8057
  264MOL0     H35613   8.339   2.449  12.005 -0.8605  1.6642  1.2872
  264MOL0     H35614   8.114   2.241  11.967  1.8168  0.2078  3.2511
  264MOL0     H35615   8.189   2.345  11.842  1.1427 -0.8104  0.1540
  264MOL0     H35616   7.997   2.465  12.052 -1.7973 -1.8131  0.2359
  264MOL0     H35617   8.062   2.533  11.905  2.9702 -1.2524 -0.1137
  264MOL0     H35618   7.838   2.445  11.909  0.6739  0.4877 -0.3127
  264MOL0     H35619   7.888   2.282  11.905  2.6553 -0.5778  1.7599
  264MOL0     H35620   8.015   2.377  11.675 -0.9405 -2.0536 -0.6792
  264MOL0     H35621   7.896   2.516  11.700 -1.0289  0.3295 -0.2205
  264MOL0     H35622   8.791   2.076  11.931  0.5796  2.0103  2.6269
  264MOL0     H35623   8.909   1.867  11.898  0.5375  1.7185 -0.3414
  264MOL0     H35624   8.899   1.391  11.958  0.0209 -2.1773 -1.4019
  264MOL0     H35625   9.000   1.198  11.883 -0.4849  2.0647 -4.2961
  264MOL0     H35626  11.160   0.392  11.318  0.9035 -0.9528 -0.6907
  264MOL0     H35627  11.125   0.209  11.138 -0.4786 -1.9911  3.4552
  264MOL0     H35628  10.847  -0.101  10.958  0.7692  1.0486  0.6435
  264MOL0     H35629  10.824  -0.290  10.787 -1.2733  1.8606 -0.4855
  264MOL0     H35630  10.922  -0.505  10.503 -1.4145 -0.5124 -1.6478
  264MOL0     H35631  10.888  -0.460  10.669  0.8884  0.9760 -0.0640
  264MOL0     H35632  10.697  -0.340  10.595 -0.1015 -1.9767  2.3078
  264MOL0     H35633  10.699  -0.526  10.583  1.3615 -0.6868 -1.5711
  264MOL0     H35634  10.756  -0.473  10.327 -0.1424 -0.7456  0.0628
  264MOL0     H35635  10.755  -0.303  10.360  2.0708 -1.3294  0.0869
  264MOL0     H35636  10.560  -0.349  10.263 -2.4089 -0.4538 -0.3455
  264MOL0     H35637  10.503  -0.331  10.427 -0.9563 -0.0034 -1.8862
  264MOL0     H35638  10.332  -0.700  10.369 -1.9329  2.1148 -0.3476
  264MOL0     H35639  11.101  -0.096  10.529 -0.2416 -0.2659  0.2371
  264MOL0     H35640  11.142   0.081  10.691 -1.1873  1.7219  1.0558
  265MOL0     O35641   0.961   2.835   0.305 -0.1800 -0.1258 -0.3922
  265MOL0     C35642   0.908   2.942   0.276 -0.4077 -0.2611  0.0748
  265MOL0     O35643   0.786   2.962   0.227 -0.7816  0.5153  0.7279
  265MOL0     C35644   0.701   2.861   0.232  0.1278  0.0121  0.3209
  265MOL0     C35645   0.711   2.738   0.167 -0.2584  0.0462  0.6362
  265MOL0     C35646   0.603   2.649   0.160  0.2610  0.0300 -0.4203
  265MOL0     C35647   0.480   2.677   0.222  0.2815  0.3248 -0.2161
  265MOL0     O35648   0.382   2.584   0.196  0.0338  0.1046 -0.3851
  265MOL0     C35649   0.273   2.643   0.122  0.2962 -0.7833  0.1358
  265MOL0     C35650   0.152   2.555   0.165 -0.0509  0.6209  0.9361
  265MOL0     C35651   0.020   2.593   0.095  0.0127  0.2465  0.1431
  265MOL0     C35652  -0.100   2.536   0.167  0.8368 -0.4101 -0.7108
  265MOL0     C35653  -0.240   2.568   0.112 -1.1103  0.2190 -0.1045
  265MOL0     C35654  -0.352   2.512   0.193  0.5375 -1.1848 -0.0593
  265MOL0     C35655  -0.396   2.604   0.307 -0.0624 -0.6700 -0.5588
  265MOL0     C35656  -0.487   2.532   0.404 -0.1838 -0.2176  0.2053
  265MOL0     N35657  -0.551   2.629   0.508  0.5469 -0.1382  0.3626
  265MOL0     C35658  -0.492   2.678   0.622 -0.7966  0.2394  0.0260
  265MOL0     C35659  -0.583   2.754   0.685  0.4404 -0.6241 -1.2720
  265MOL0     C35660  -0.575   2.845   0.810  0.2100 -0.3901 -0.1675
  265MOL0     C35661  -0.502   2.968   0.772  0.0695  0.2485 -0.7913
  265MOL0     C35662  -0.472   3.019   0.916 -0.3346  0.3709 -0.7125
  265MOL0     C35663  -0.412   3.163   0.906 -0.2624  0.4261  0.0733
  265MOL0     O35664  -0.283   3.177   0.828  0.0610 -0.3467 -0.4027
  265MOL0     C35665  -0.165   3.180   0.900  0.5452 -0.6293 -0.0544
  265MOL0     C35666  -0.149   3.155   1.045  0.2522 -0.0930  1.1578
  265MOL0     C35667  -0.021   3.160   1.106  0.2689 -0.5078  1.1492
  265MOL0     C35668  -0.026   3.129   1.260 -0.5991  0.0926 -0.0207
  265MOL0     C35669   0.100   3.195   1.034  0.8369 -0.2707 -0.1670
  265MOL0     C35670   0.232   3.212   1.095  0.5212 -0.1122 -0.7210
  265MOL0     O35671   0.329   3.250   1.009 -0.5736  0.3974 -0.0848
  265MOL0     C35672   0.455   3.286   1.048 -0.7799  1.0671 -0.3151
  265MOL0     C35673   0.530   3.360   0.955  0.0610  0.4335  0.6071
  265MOL0     C35674   0.668   3.389   0.976  0.3460 -0.2084 -0.1431
  265MOL0     C35675   0.729   3.352   1.097  0.4855 -0.1636 -0.1440
  265MOL0     O35676   0.863   3.375   1.104  0.0545 -0.4118  0.0140
  265MOL0     C35677   0.907   3.396   1.234 -0.4010  0.1658  0.3010
  265MOL0     C35678   1.048   3.445   1.237  0.2140 -0.0418  0.5545
  265MOL0     C35679   1.149   3.325   1.209 -0.0465  0.4013  0.5438
  265MOL0     C35680   1.288   3.390   1.181  1.1460  0.2915 -0.3826
  265MOL0     C35681   1.401   3.290   1.180 -0.2176  0.1380 -0.5252
  265MOL0     C35682   1.535   3.373   1.158  0.1392  0.2098  0.2962
  265MOL0     C35683   1.669   3.291   1.177 -0.1141 -0.3099  0.1626
  265MOL0     C35684   1.739   3.281   1.315  0.3484  0.1971  0.7465
  265MOL0    Cl35685   1.799   3.456   1.363 -0.0985  0.4679  0.4412
  265MOL0     C35686   0.650   3.296   1.199  0.3327 -1.1051 -0.1974
  265MOL0     C35687   0.518   3.267   1.177  0.4496 -0.8298  0.6914
  265MOL0     O35688   0.236   3.223   1.216 -1.0778  0.5402  0.5355
  265MOL0     C35689   0.081   3.225   0.894 -0.2903  0.3272 -0.6494
  265MOL0     C35690  -0.050   3.223   0.838  0.0346 -0.7642  0.8411
  265MOL0     N35691  -0.705   2.748   0.617 -0.2820  1.0037 -0.4886
  265MOL0     N35692  -0.681   2.677   0.509  0.1200 -0.2421 -0.7447
  265MOL0     C35693   0.473   2.798   0.299 -0.1479  0.2393 -0.0512
  265MOL0     C35694   0.576   2.885   0.301 -0.9231 -0.8336 -0.6101
  265MOL0     C35695   1.005   3.053   0.278  0.3190  0.2977  0.0205
  265MOL0     C35696   0.980   3.174   0.207 -0.2201  0.4229 -0.1003
  265MOL0     C35697   1.074   3.273   0.193 -0.6939 -0.4737  0.5627
  265MOL0     C35698   1.198   3.259   0.258  0.3644 -0.6511  0.0422
  265MOL0     O35699   1.303   3.347   0.261  0.0330  0.1984  0.2455
  265MOL0     C35700   1.344   3.407   0.135 -0.7430  0.4449  0.3105
  265MOL0     C35701   1.490   3.353   0.108  0.3801 -0.1951  0.0961
  265MOL0     C35702   1.488   3.206   0.087 -0.2986  0.3602  0.1983
  265MOL0     C35703   1.600   3.163  -0.000 -0.0298  0.8018 -0.4882
  265MOL0     C35704   1.619   3.020   0.003 -0.4531  0.0684 -0.0484
  265MOL0     C35705   1.626   2.900  -0.007  0.3843 -0.4776 -0.1015
  265MOL0     C35706   1.216   3.155   0.344 -0.1995  0.0443  0.2967
  265MOL0     C35707   1.128   3.045   0.353  0.3555 -0.4520  0.0278
  265MOL0     H35708   0.793   2.721   0.098 -1.8845 -0.0795 -1.3682
  265MOL0     H35709   0.606   2.553   0.109 -0.3432 -0.7693  0.9788
  265MOL0     H35710   0.252   2.747   0.148  1.3610 -1.0693  2.3292
  265MOL0     H35711   0.301   2.636   0.016  1.2400 -1.2537  0.4119
  265MOL0     H35712   0.164   2.448   0.145  1.2705  0.7236  1.1129
  265MOL0     H35713   0.151   2.564   0.274 -0.6374  2.1830  0.8222
  265MOL0     H35714   0.011   2.701   0.083 -1.3887  0.0315 -1.0089
  265MOL0     H35715   0.020   2.549  -0.006  0.6549 -0.9675  0.6433
  265MOL0     H35716  -0.097   2.427   0.174 -0.2116 -0.7717 -4.0250
  265MOL0     H35717  -0.093   2.577   0.268 -0.9326  2.2260 -1.5384
  265MOL0     H35718  -0.248   2.677   0.120 -1.9758  0.3001 -1.7129
  265MOL0     H35719  -0.241   2.536   0.008 -0.6815  0.6436 -0.2432
  265MOL0     H35720  -0.432   2.515   0.118  2.1172 -0.4025 -1.7655
  265MOL0     H35721  -0.336   2.407   0.220  1.3211 -0.6494  1.7521
  265MOL0     H35722  -0.308   2.630   0.368 -1.7760  1.0209  1.3280
  265MOL0     H35723  -0.452   2.692   0.274 -0.5513 -0.1678  1.4746
  265MOL0     H35724  -0.434   2.454   0.460  0.0057 -0.2396 -0.0032
  265MOL0     H35725  -0.569   2.494   0.342  0.4196  0.4474 -1.0428
  265MOL0     H35726  -0.389   2.654   0.644 -0.5430 -1.8602 -2.9385
  265MOL0     H35727  -0.674   2.870   0.849  0.9142  0.2953  1.2472
  265MOL0     H35728  -0.537   2.786   0.894 -0.4336  0.2540  0.5882
  265MOL0     H35729  -0.567   3.038   0.718 -1.1614  0.4904  0.9046
  265MOL0     H35730  -0.408   2.955   0.718  0.7804 -0.5555  0.5863
  265MOL0     H35731  -0.402   2.945   0.955  0.6813  1.6022 -0.1697
  265MOL0     H35732  -0.561   3.022   0.981 -0.1110 -0.2330 -0.3650
  265MOL0     H35733  -0.409   3.203   1.008  1.1067 -2.9376  1.5078
  265MOL0     H35734  -0.485   3.235   0.867  1.0902  0.5425 -2.4948
  265MOL0     H35735  -0.234   3.119   1.102  0.0820 -0.0892  0.9065
  265MOL0     H35736  -0.124   3.082   1.274 -1.1670  0.6119 -1.8710
  265MOL0     H35737   0.054   3.063   1.294  2.8523  4.2933  0.8925
  265MOL0     H35738  -0.003   3.217   1.321  0.2965 -0.9996  1.2553
  265MOL0     H35739   0.491   3.381   0.856  0.7041  0.8263  0.4321
  265MOL0     H35740   0.728   3.421   0.892  0.7024 -0.4788  0.0063
  265MOL0     H35741   0.851   3.473   1.287  0.0806 -0.0473  1.1404
  265MOL0     H35742   0.903   3.307   1.298  0.4286 -1.2473 -1.5065
  265MOL0     H35743   1.065   3.515   1.154  0.6869 -2.0714 -1.1475
  265MOL0     H35744   1.073   3.494   1.331  1.6797  0.2198  0.0548
  265MOL0     H35745   1.120   3.256   1.129 -0.0418 -1.2571  1.9041
  265MOL0     H35746   1.167   3.265   1.299  0.1675  3.3886  2.6314
  265MOL0     H35747   1.291   3.447   1.088  1.3091  2.0131  0.6536
  265MOL0     H35748   1.308   3.465   1.258 -0.5398  1.0879 -0.6742
  265MOL0     H35749   1.391   3.222   1.095  0.5660 -0.2422 -0.3245
  265MOL0     H35750   1.401   3.236   1.276  0.2886  0.7761 -0.1511
  265MOL0     H35751   1.533   3.407   1.054  1.2480 -0.7280 -0.0616
  265MOL0     H35752   1.538   3.461   1.222 -0.4508  0.7774 -0.4496
  265MOL0     H35753   1.737   3.347   1.112 -1.6772  0.0527 -1.2221
  265MOL0     H35754   1.643   3.194   1.134 -0.0202 -0.0901 -0.3959
  265MOL0     H35755   1.824   3.213   1.300 -0.7959 -1.2527  0.6208
  265MOL0     H35756   1.676   3.225   1.385 -1.4043  1.5980  0.3526
  265MOL0     H35757   0.687   3.283   1.300 -1.2747  0.7840  0.6672
  265MOL0     H35758   0.475   3.221   1.265 -0.6682  1.5090  1.4589
  265MOL0     H35759   0.164   3.273   0.842 -1.1232  0.6777 -1.6814
  265MOL0     H35760  -0.079   3.235   0.735  0.9979 -3.7575  0.1421
  265MOL0     H35761   0.396   2.816   0.373  0.4542 -0.6461  0.8176
  265MOL0     H35762   0.577   2.985   0.343 -0.2689 -1.2126  0.3113
  265MOL0     H35763   0.893   3.188   0.143 -0.1049  1.9993  0.0573
  265MOL0     H35764   1.056   3.365   0.139 -0.0633  0.3338  1.6726
  265MOL0     H35765   1.277   3.386   0.052 -0.3479 -2.0368  0.5272
  265MOL0     H35766   1.353   3.513   0.159 -1.1548  0.0498  2.4502
  265MOL0     H35767   1.552   3.389   0.190 -0.8932  1.8825  0.2262
  265MOL0     H35768   1.535   3.403   0.022  1.1788 -0.0613  0.5860
  265MOL0     H35769   1.395   3.170   0.042  0.1413  1.5269 -1.8109
  265MOL0     H35770   1.503   3.168   0.188  0.0845  0.0536  0.0275
  265MOL0     H35771   1.686   3.215   0.042 -0.8951  0.2496  2.1751
  265MOL0     H35772   1.584   3.182  -0.107 -0.4639 -0.7527 -0.7241
  265MOL0     H35773   1.626   2.793  -0.015  2.6780 -0.6410  1.2579
  265MOL0     H35774   1.306   3.149   0.405 -1.4928  0.8439  2.3645
  265MOL0     H35775   1.146   2.958   0.416 -0.9968  0.6071  1.9824
  266MOL0     O35776   8.831   7.698   6.941  0.2783 -0.1922 -0.0794
  266MOL0     C35777   8.863   7.691   7.061  0.0449  0.1850  0.3132
  266MOL0     O35778   8.784   7.673   7.167 -0.8801  0.4825 -0.2078
  266MOL0     C35779   8.651   7.637   7.168  0.1245  0.4200 -0.4605
  266MOL0     C35780   8.582   7.570   7.062  0.8284 -0.6867 -0.5759
  266MOL0     C35781   8.440   7.542   7.071 -0.1742 -0.3956  0.4679
  266MOL0     C35782   8.366   7.587   7.184 -0.1363  0.3892 -0.1431
  266MOL0     O35783   8.234   7.546   7.196 -0.4205 -0.2731 -0.2013
  266MOL0     C35784   8.145   7.623   7.279  1.6265 -0.1251  0.1912
  266MOL0     C35785   8.005   7.586   7.245 -0.1882  0.3004  0.0264
  266MOL0     C35786   7.901   7.694   7.284  0.7205  0.6203  0.0942
  266MOL0     C35787   7.766   7.662   7.215  0.2557 -0.6350  0.3162
  266MOL0     C35788   7.643   7.721   7.275 -0.3876  0.4589 -0.1067
  266MOL0     C35789   7.517   7.717   7.192 -0.4399  1.0425 -1.0000
  266MOL0     C35790   7.389   7.747   7.279 -0.4258  0.3884 -0.3995
  266MOL0     C35791   7.255   7.750   7.201 -0.3034  0.1631  0.4456
  266MOL0     N35792   7.160   7.827   7.279 -0.1065  0.4133 -0.2617
  266MOL0     C35793   7.086   7.779   7.386 -0.1389 -0.5315  0.0427
  266MOL0     C35794   7.016   7.893   7.410 -0.8970  0.6608 -0.0711
  266MOL0     C35795   6.898   7.900   7.503 -0.5390 -0.0066  0.6514
  266MOL0     C35796   6.768   7.863   7.434  0.4058  0.1686 -0.5097
  266MOL0     C35797   6.725   7.970   7.327 -0.1531 -1.1470  0.0270
  266MOL0     C35798   6.710   8.116   7.375 -0.3986  0.3997 -0.0151
  266MOL0     O35799   6.639   8.212   7.290 -0.0939  0.2344 -0.3022
  266MOL0     C35800   6.503   8.231   7.321 -1.2976  0.1065 -0.1829
  266MOL0     C35801   6.417   8.144   7.399  1.0991 -0.1573  0.3719
  266MOL0     C35802   6.280   8.182   7.428  0.1520  0.5816  0.0262
  266MOL0     C35803   6.202   8.087   7.518 -0.4330  0.6155 -0.6132
  266MOL0     C35804   6.239   8.306   7.380 -0.0319 -0.0617 -0.3829
  266MOL0     C35805   6.098   8.364   7.415  0.2019  0.2572 -0.3867
  266MOL0     O35806   5.995   8.273   7.434  0.0360  0.2029 -0.5577
  266MOL0     C35807   5.865   8.322   7.428  0.7488 -0.1069  0.4109
  266MOL0     C35808   5.833   8.393   7.306 -0.1369  0.4636  0.0054
  266MOL0     C35809   5.699   8.421   7.276 -0.2956  0.2137  0.3920
  266MOL0     C35810   5.593   8.380   7.348 -0.5576 -0.1453 -0.5444
  266MOL0     O35811   5.466   8.407   7.306 -0.5917 -0.8653 -0.1277
  266MOL0     C35812   5.355   8.338   7.361  0.3559  1.0254 -0.2679
  266MOL0     C35813   5.303   8.404   7.484 -0.4917  0.0178  0.4116
  266MOL0     C35814   5.171   8.349   7.524  0.5105  0.2241  0.1918
  266MOL0     C35815   5.166   8.194   7.547  0.1673 -0.6796  0.5374
  266MOL0     C35816   5.039   8.148   7.607  0.6194  0.4237  0.1857
  266MOL0     C35817   5.017   8.185   7.749 -0.4347  0.0759  0.3135
  266MOL0     C35818   4.892   8.109   7.790 -0.7218  0.0175 -0.3344
  266MOL0     C35819   4.869   8.146   7.943 -0.6012  0.4162 -0.1949
  266MOL0    Cl35820   4.773   8.302   7.950  0.8631 -0.6268  0.1416
  266MOL0     C35821   5.624   8.303   7.468 -0.4455  0.2335  0.3188
  266MOL0     C35822   5.753   8.269   7.499 -0.3851 -0.5077 -0.4818
  266MOL0     O35823   6.093   8.490   7.429  0.4179  0.3535 -0.1414
  266MOL0     C35824   6.320   8.390   7.297  0.4504  0.2255 -0.8095
  266MOL0     C35825   6.453   8.356   7.275  0.7281  0.2266  0.2270
  266MOL0     N35826   7.041   8.002   7.322  0.2951  0.5426  0.6649
  266MOL0     N35827   7.125   7.954   7.243 -0.0432  0.5183  0.3940
  266MOL0     C35828   8.434   7.650   7.289 -1.2606 -0.7610 -0.4425
  266MOL0     C35829   8.578   7.673   7.285  0.8472  0.0787 -0.3251
  266MOL0     C35830   9.004   7.722   7.092  0.8635 -0.0334  0.5127
  266MOL0     C35831   9.091   7.745   6.982 -0.6541  0.9778  0.8236
  266MOL0     C35832   9.228   7.749   7.005  0.1771 -0.5639  0.2870
  266MOL0     C35833   9.283   7.742   7.128 -0.3752 -0.9248  0.3033
  266MOL0     O35834   9.418   7.740   7.134  0.2867 -1.0500  0.5883
  266MOL0     C35835   9.483   7.772   7.260  0.8129  0.6868 -0.7822
  266MOL0     C35836   9.631   7.776   7.243 -0.2555 -0.2223  0.2573
  266MOL0     C35837   9.714   7.812   7.372 -0.0452 -0.1318 -0.5322
  266MOL0     C35838   9.862   7.820   7.341  0.5171 -0.1123  0.0868
  266MOL0     C35839   9.936   7.861   7.455  0.9369 -0.2898  0.1699
  266MOL0     C35840  10.002   7.910   7.552  0.1444  0.2492  0.3542
  266MOL0     C35841   9.196   7.726   7.238  0.1701 -0.4617  0.1927
  266MOL0     C35842   9.059   7.707   7.220  0.0822  0.4789  0.0918
  266MOL0     H35843   8.650   7.551   6.980  3.3455  1.4861  0.8623
  266MOL0     H35844   8.392   7.480   6.995  2.4368 -1.9762 -0.0062
  266MOL0     H35845   8.164   7.618   7.387  1.2963  0.2824  0.2756
  266MOL0     H35846   8.164   7.729   7.259 -0.4731  0.2686  0.0361
  266MOL0     H35847   8.008   7.557   7.139  3.1049 -0.1477  0.1417
  266MOL0     H35848   7.978   7.500   7.307  0.7806 -0.4521 -0.5761
  266MOL0     H35849   7.883   7.687   7.392 -2.1045 -3.8097 -0.4130
  266MOL0     H35850   7.939   7.791   7.252 -0.2629  0.4840 -1.5648
  266MOL0     H35851   7.771   7.678   7.107  0.1748 -2.5177  0.0014
  266MOL0     H35852   7.751   7.554   7.225  0.3290 -0.4513  2.9265
  266MOL0     H35853   7.627   7.661   7.365  1.2823 -2.2072 -1.4502
  266MOL0     H35854   7.672   7.821   7.309 -1.3750  0.6138  0.3056
  266MOL0     H35855   7.529   7.796   7.117  1.6833  0.7994 -0.9750
  266MOL0     H35856   7.497   7.623   7.141 -3.6488  1.3714 -0.5758
  266MOL0     H35857   7.382   7.669   7.355  3.0246  0.2716 -0.0587
  266MOL0     H35858   7.407   7.844   7.324 -0.2278 -0.0961  0.5797
  266MOL0     H35859   7.222   7.647   7.185 -0.4740  0.2889 -0.0424
  266MOL0     H35860   7.269   7.800   7.104  1.0134 -1.1491 -0.0743
  266MOL0     H35861   7.093   7.684   7.439  1.6463 -1.3212 -1.4766
  266MOL0     H35862   6.926   7.831   7.583  2.7821 -0.3596 -0.6643
  266MOL0     H35863   6.898   7.999   7.549  0.0093  0.3102 -0.0242
  266MOL0     H35864   6.684   7.864   7.504  0.1599  0.9364 -0.8122
  266MOL0     H35865   6.764   7.766   7.382 -1.3990  1.1274 -2.2734
  266MOL0     H35866   6.625   7.932   7.302 -1.0371  0.5783  0.7549
  266MOL0     H35867   6.789   7.960   7.239  2.1420 -0.8348  1.5887
  266MOL0     H35868   6.815   8.147   7.376 -0.7760  1.8092 -0.9369
  266MOL0     H35869   6.677   8.122   7.479  0.3629  1.9658  0.1571
  266MOL0     H35870   6.455   8.047   7.431  1.8352  0.7214  2.2527
  266MOL0     H35871   6.254   7.992   7.532 -3.4711 -1.2701 -1.1926
  266MOL0     H35872   6.176   8.123   7.617  1.0843  0.6874 -0.2069
  266MOL0     H35873   6.112   8.060   7.463 -1.6586 -1.2432  2.1441
  266MOL0     H35874   5.919   8.423   7.246  1.3610 -0.5931  1.5132
  266MOL0     H35875   5.686   8.485   7.189  0.7922 -0.2770 -0.1552
  266MOL0     H35876   5.280   8.339   7.281  1.4974  2.4243 -1.3890
  266MOL0     H35877   5.389   8.236   7.382 -0.2733  0.5514 -1.4620
  266MOL0     H35878   5.379   8.392   7.561 -1.6966  0.4662  1.7079
  266MOL0     H35879   5.295   8.512   7.467  2.4547  0.0466 -1.4339
  266MOL0     H35880   5.101   8.389   7.450 -1.8633  0.3371  2.3225
  266MOL0     H35881   5.140   8.396   7.618 -1.4999 -1.0101  0.2138
  266MOL0     H35882   5.169   8.138   7.452 -2.4237 -1.9454  1.1011
  266MOL0     H35883   5.251   8.162   7.608 -0.4762  0.0733  1.8537
  266MOL0     H35884   5.030   8.040   7.591  0.5237  0.2582  1.2661
  266MOL0     H35885   4.959   8.203   7.558  3.0324  1.7992 -2.5077
  266MOL0     H35886   5.097   8.150   7.815 -1.3037 -0.7845  0.9344
  266MOL0     H35887   4.990   8.291   7.746 -0.1659  0.1400  0.1355
  266MOL0     H35888   4.902   8.000   7.790  1.1327  0.1521  0.5242
  266MOL0     H35889   4.811   8.154   7.732 -1.2463 -0.5549 -0.0585
  266MOL0     H35890   4.967   8.147   7.991 -1.2819 -0.4257  1.2831
  266MOL0     H35891   4.804   8.069   7.986 -0.7945  1.0831  0.7424
  266MOL0     H35892   5.544   8.261   7.529  1.2174 -1.0666  1.7137
  266MOL0     H35893   5.763   8.201   7.582  3.0080  0.9434  0.4838
  266MOL0     H35894   6.282   8.484   7.259 -0.1772  0.2688 -0.0875
  266MOL0     H35895   6.513   8.416   7.208  0.8941 -1.4996 -1.2453
  266MOL0     H35896   8.368   7.674   7.371  0.9844 -2.9306  2.1858
  266MOL0     H35897   8.624   7.726   7.368  0.1086  0.3469 -0.0698
  266MOL0     H35898   9.075   7.755   6.875  4.1293  0.6759 -0.1640
  266MOL0     H35899   9.294   7.750   6.919 -0.9525 -0.7444 -0.6151
  266MOL0     H35900   9.452   7.872   7.290  2.0133  1.1951 -1.2124
  266MOL0     H35901   9.460   7.692   7.331 -4.1519 -0.8172 -3.5550
  266MOL0     H35902   9.660   7.860   7.178  2.1833 -1.0244  0.2035
  266MOL0     H35903   9.669   7.680   7.207 -0.2117 -0.2932  0.4913
  266MOL0     H35904   9.698   7.730   7.442 -0.1803 -0.7052 -1.2213
  266MOL0     H35905   9.684   7.910   7.412  1.7843 -0.9089  3.2149
  266MOL0     H35906   9.877   7.899   7.267 -1.2159  1.4393  1.2927
  266MOL0     H35907   9.895   7.721   7.308  1.2646 -0.9110  2.9252
  266MOL0     H35908  10.065   7.962   7.621  0.6833  0.4321 -0.2698
  266MOL0     H35909   9.233   7.717   7.339 -0.4406  0.5640  0.5222
  266MOL0     H35910   8.992   7.690   7.304 -1.1552 -0.3235 -1.0226
  267MOL0     O35911   8.642   7.121   6.321  0.6765  0.0003 -0.3433
  267MOL0     C35912   8.695   7.013   6.333 -0.6720 -0.1042 -0.2945
  267MOL0     O35913   8.630   6.894   6.325  0.1471  0.3600  0.1448
  267MOL0     C35914   8.498   6.899   6.312 -0.3460  0.7820  0.8279
  267MOL0     C35915   8.425   6.956   6.201 -0.0173  0.8976  0.4949
  267MOL0     C35916   8.287   6.952   6.193  0.2760  0.7222  0.2621
  267MOL0     C35917   8.216   6.889   6.296  0.4305 -0.0231 -0.5154
  267MOL0     O35918   8.078   6.877   6.284 -0.2113 -0.1701 -0.4052
  267MOL0     C35919   8.008   6.780   6.357 -0.1998 -0.3500 -0.2543
  267MOL0     C35920   7.898   6.736   6.264 -0.2650  0.3183 -0.1299
  267MOL0     C35921   7.963   6.647   6.146 -0.1878 -0.7024  0.8743
  267MOL0     C35922   7.857   6.621   6.038  0.1860  0.2831 -0.0545
  267MOL0     C35923   7.904   6.549   5.911  0.7496 -0.5641 -0.1672
  267MOL0     C35924   7.801   6.565   5.796 -0.1084  0.8957  0.3820
  267MOL0     C35925   7.803   6.695   5.724 -0.2598  0.0386  0.2288
  267MOL0     C35926   7.666   6.771   5.716  0.2850 -0.0310 -0.7592
  267MOL0     N35927   7.689   6.896   5.648 -0.1790 -0.4711 -0.1768
  267MOL0     C35928   7.726   6.895   5.515 -0.0006  0.3692  0.5658
  267MOL0     C35929   7.727   7.027   5.485 -1.0487  0.2124 -0.5125
  267MOL0     C35930   7.738   7.072   5.348  0.0579 -0.0675  0.0468
  267MOL0     C35931   7.636   7.178   5.307  0.5625 -0.4449  0.2580
  267MOL0     C35932   7.682   7.279   5.195 -0.1893  0.0003  0.1387
  267MOL0     C35933   7.670   7.208   5.060  0.1346 -0.1579 -0.5990
  267MOL0     O35934   7.536   7.178   5.025 -0.3070 -0.7157 -0.2525
  267MOL0     C35935   7.503   7.138   4.902 -0.1658  0.4061  0.7029
  267MOL0     C35936   7.596   7.088   4.804  1.3763  0.3803  0.1207
  267MOL0     C35937   7.549   7.024   4.683 -0.4375 -0.1069 -0.0091
  267MOL0     C35938   7.645   6.960   4.596  0.7923 -1.3305 -0.7726
  267MOL0     C35939   7.405   7.019   4.656 -0.4225  0.2407  0.5214
  267MOL0     C35940   7.342   6.952   4.531  0.1891 -0.4682 -0.8439
  267MOL0     O35941   7.411   6.871   4.450 -0.0892 -0.5046 -0.0192
  267MOL0     C35942   7.358   6.803   4.339  0.1257 -0.4513 -0.9486
  267MOL0     C35943   7.232   6.780   4.294  0.5588  0.3386 -0.1042
  267MOL0     C35944   7.202   6.688   4.193  0.0600 -0.6598 -0.3455
  267MOL0     C35945   7.304   6.629   4.116  1.0459 -0.5502 -0.3497
  267MOL0     O35946   7.265   6.526   4.031 -0.4872 -0.3585  0.0960
  267MOL0     C35947   7.322   6.396   4.049 -0.1063 -0.9549 -0.1503
  267MOL0     C35948   7.294   6.317   3.932 -0.5860  0.1879  0.6610
  267MOL0     C35949   7.352   6.177   3.933 -0.0615 -0.8300  0.2693
  267MOL0     C35950   7.287   6.076   4.020 -0.6908  0.6270 -0.0905
  267MOL0     C35951   7.348   5.928   4.020  1.0962  0.0020 -0.2183
  267MOL0     C35952   7.248   5.823   4.075  0.3435 -0.1120 -0.3982
  267MOL0     C35953   7.310   5.680   4.067  0.0639  0.2996 -0.0848
  267MOL0     C35954   7.293   5.583   4.185  0.0085  0.1303  0.4544
  267MOL0    Cl35955   7.115   5.536   4.187 -0.2109 -0.7701  0.3536
  267MOL0     C35956   7.432   6.654   4.155 -0.3601  0.0213  0.4147
  267MOL0     C35957   7.458   6.746   4.262 -0.7478 -0.0226 -0.9567
  267MOL0     O35958   7.226   6.990   4.509 -0.1948  0.5277  0.1702
  267MOL0     C35959   7.326   7.079   4.746  1.2223 -0.1256 -0.6226
  267MOL0     C35960   7.371   7.125   4.871 -0.3077  0.5587 -0.1606
  267MOL0     N35961   7.711   7.105   5.598  0.2728  0.2791 -0.0740
  267MOL0     N35962   7.672   7.024   5.694  0.4198 -0.0034 -0.2646
  267MOL0     C35963   8.285   6.826   6.401  0.6416  1.1950  0.3403
  267MOL0     C35964   8.421   6.825   6.405 -0.7017  0.4907 -0.6116
  267MOL0     C35965   8.834   7.019   6.373 -0.5021  0.9929 -0.5760
  267MOL0     C35966   8.922   6.903   6.377  0.1386  0.4502  0.2868
  267MOL0     C35967   9.061   6.906   6.415 -0.5646  0.6984  0.2332
  267MOL0     C35968   9.115   7.032   6.439  0.6311 -0.4142 -0.2207
  267MOL0     O35969   9.246   7.026   6.471 -0.3505  0.4771  0.2764
  267MOL0     C35970   9.328   7.146   6.459  0.1495  0.0128  0.8341
  267MOL0     C35971   9.464   7.117   6.507 -0.6661  0.6231 -0.0928
  267MOL0     C35972   9.549   7.249   6.504 -0.1508 -0.0155  1.0616
  267MOL0     C35973   9.693   7.211   6.553 -0.7506 -0.1970 -0.1083
  267MOL0     C35974   9.787   7.324   6.528  0.3703  0.3689  0.5604
  267MOL0     C35975   9.868   7.419   6.512  0.9127  0.5967  0.2275
  267MOL0     C35976   9.035   7.145   6.432 -0.8181 -0.1147  0.1186
  267MOL0     C35977   8.899   7.140   6.412  0.1736 -0.6187 -0.1565
  267MOL0     H35978   8.482   6.994   6.117 -1.4239 -3.4148 -2.7738
  267MOL0     H35979   8.242   6.987   6.101 -0.4946 -0.0761  0.3249
  267MOL0     H35980   8.062   6.689   6.383 -0.5796 -0.4757  0.1027
  267MOL0     H35981   7.964   6.821   6.448  0.8690 -1.6714  0.9010
  267MOL0     H35982   7.827   6.677   6.321  1.7621 -0.2375  1.9845
  267MOL0     H35983   7.854   6.829   6.226 -0.0532  0.6369  0.3846
  267MOL0     H35984   8.039   6.706   6.096 -0.8033  0.3838  1.1861
  267MOL0     H35985   8.001   6.559   6.199 -1.4338 -0.5272  2.1463
  267MOL0     H35986   7.783   6.560   6.089  1.9659  0.4584  2.9408
  267MOL0     H35987   7.804   6.714   6.013  3.2619  2.1344 -0.2476
  267MOL0     H35988   8.004   6.582   5.881 -1.0300  1.7912 -4.3790
  267MOL0     H35989   7.909   6.441   5.922  1.4322 -0.4969  0.2678
  267MOL0     H35990   7.821   6.488   5.721 -1.6609  0.5694  0.2809
  267MOL0     H35991   7.700   6.544   5.832 -0.0539 -1.3329 -0.6501
  267MOL0     H35992   7.882   6.754   5.771 -0.8711  1.7553 -0.8318
  267MOL0     H35993   7.840   6.677   5.622 -2.7323 -0.8242 -0.5952
  267MOL0     H35994   7.611   6.793   5.808 -0.2090 -1.9795 -0.5563
  267MOL0     H35995   7.590   6.715   5.660 -2.7321  4.3062 -1.5933
  267MOL0     H35996   7.747   6.813   5.447  0.8337  1.0316  0.0033
  267MOL0     H35997   7.838   7.113   5.334  0.3188 -1.0780 -1.2151
  267MOL0     H35998   7.724   6.985   5.283 -0.8106 -1.3062  1.8058
  267MOL0     H35999   7.626   7.254   5.385  2.4253  0.8541 -0.7058
  267MOL0     H36000   7.540   7.131   5.285  1.0329 -1.6497  0.6981
  267MOL0     H36001   7.788   7.306   5.204  0.4003 -2.3099  0.8231
  267MOL0     H36002   7.621   7.369   5.200 -0.6323 -0.3298  0.8633
  267MOL0     H36003   7.742   7.125   5.064 -0.1407 -0.3942 -0.5123
  267MOL0     H36004   7.702   7.282   4.986 -1.9882 -0.2051 -1.6342
  267MOL0     H36005   7.699   7.102   4.835  0.4090  0.7641  3.6007
  267MOL0     H36006   7.644   7.021   4.506  2.0381  2.2363  1.4117
  267MOL0     H36007   7.743   6.971   4.643 -0.8987  1.2843  2.5669
  267MOL0     H36008   7.625   6.852   4.595 -0.4049 -1.1553  0.7628
  267MOL0     H36009   7.142   6.828   4.333 -1.2339 -2.1066 -1.0111
  267MOL0     H36010   7.098   6.664   4.175  0.2184 -0.7801 -1.1293
  267MOL0     H36011   7.430   6.411   4.056 -0.2459 -0.3634  1.1729
  267MOL0     H36012   7.304   6.345   4.144  2.2938 -0.4407  0.6563
  267MOL0     H36013   7.185   6.319   3.922 -0.4532 -0.4477 -1.2642
  267MOL0     H36014   7.334   6.363   3.841  3.7713 -0.1588  2.1900
  267MOL0     H36015   7.458   6.176   3.961  0.5576 -0.0852 -1.7874
  267MOL0     H36016   7.350   6.145   3.828 -0.9777 -1.0739  0.3593
  267MOL0     H36017   7.278   6.108   4.124  1.0470 -1.9816  0.9649
  267MOL0     H36018   7.187   6.073   3.975 -0.0627  0.5547 -1.5415
  267MOL0     H36019   7.430   5.943   4.091 -0.8449  4.4148  1.4108
  267MOL0     H36020   7.385   5.894   3.922 -3.3226  0.0819 -2.1664
  267MOL0     H36021   7.240   5.839   4.183  3.0279 -0.6244 -0.0390
  267MOL0     H36022   7.149   5.832   4.029  0.0219  4.0415  0.6345
  267MOL0     H36023   7.417   5.698   4.052  0.0280 -0.1379 -0.9137
  267MOL0     H36024   7.278   5.627   3.977  0.4222 -0.5088  0.2599
  267MOL0     H36025   7.330   5.618   4.281  0.6762 -0.4061  0.3995
  267MOL0     H36026   7.347   5.491   4.160 -0.2889  0.5802 -2.2310
  267MOL0     H36027   7.521   6.608   4.113 -0.7620 -0.0761 -0.3591
  267MOL0     H36028   7.557   6.768   4.301 -2.3661  4.3363  1.2861
  267MOL0     H36029   7.219   7.078   4.732  1.1607  0.1032 -0.1771
  267MOL0     H36030   7.304   7.141   4.954 -1.1500 -0.3523 -0.6409
  267MOL0     H36031   8.236   6.771   6.480  0.4559  1.0437  0.1233
  267MOL0     H36032   8.476   6.773   6.483 -1.7587 -0.5163 -0.5130
  267MOL0     H36033   8.881   6.809   6.344  0.0730  1.3776 -2.5387
  267MOL0     H36034   9.120   6.816   6.425 -1.7682 -0.0660  0.7331
  267MOL0     H36035   9.332   7.161   6.350  4.9162 -0.4654  0.7293
  267MOL0     H36036   9.275   7.221   6.519 -2.0219 -0.7674  0.0040
  267MOL0     H36037   9.503   7.044   6.435 -3.5174  0.7027 -1.8678
  267MOL0     H36038   9.465   7.070   6.606  0.4044 -1.0788 -0.8638
  267MOL0     H36039   9.499   7.321   6.570 -0.1167  0.5396  0.4918
  267MOL0     H36040   9.553   7.297   6.406 -0.4941 -0.4807  0.8158
  267MOL0     H36041   9.732   7.122   6.503  3.0931 -0.5806  3.0462
  267MOL0     H36042   9.690   7.189   6.660 -2.4671 -1.8089 -0.4472
  267MOL0     H36043   9.930   7.507   6.507  2.2397 -0.3603 -4.0474
  267MOL0     H36044   9.065   7.249   6.439 -0.2339 -0.3331  1.0918
  267MOL0     H36045   8.839   7.230   6.404 -1.9878 -1.9909 -0.2900
  268MOL0     O36046   3.446   9.294   6.186  0.1941  0.0157  0.1803
  268MOL0     C36047   3.453   9.225   6.279  0.1437  0.3669  0.2540
  268MOL0     O36048   3.348   9.188   6.353 -0.1927 -0.4005  0.4739
  268MOL0     C36049   3.227   9.235   6.313 -0.0340  0.2395 -0.2784
  268MOL0     C36050   3.179   9.358   6.341  0.7343 -0.3427 -0.4904
  268MOL0     C36051   3.050   9.397   6.306  1.0888  0.4376 -0.8186
  268MOL0     C36052   2.960   9.299   6.264 -0.4363  0.7294 -0.6776
  268MOL0     O36053   2.823   9.314   6.248 -0.2878 -0.0482 -0.3407
  268MOL0     C36054   2.769   9.438   6.194  0.2060 -0.5819 -0.0601
  268MOL0     C36055   2.624   9.438   6.158 -0.1961 -0.4607  0.2029
  268MOL0     C36056   2.574   9.311   6.085 -0.0809  0.2704  0.4885
  268MOL0     C36057   2.424   9.333   6.065 -0.0470  0.0814  0.5651
  268MOL0     C36058   2.352   9.233   5.973 -0.0632  0.0961  0.8214
  268MOL0     C36059   2.221   9.296   5.920 -0.2408  0.0047  0.5726
  268MOL0     C36060   2.154   9.203   5.818  0.9122 -0.0461 -0.2063
  268MOL0     C36061   2.040   9.279   5.753  0.4337  0.2585 -0.4559
  268MOL0     N36062   1.922   9.262   5.840 -0.5078  0.0190 -0.0344
  268MOL0     C36063   1.827   9.166   5.822 -0.0384 -0.5251 -0.3148
  268MOL0     C36064   1.725   9.204   5.904 -0.1550 -0.7728 -0.3021
  268MOL0     C36065   1.596   9.131   5.910  0.4403  0.9696 -0.0681
  268MOL0     C36066   1.470   9.224   5.903 -0.2479 -0.0889  0.5030
  268MOL0     C36067   1.485   9.288   5.764 -0.3203 -0.7108  0.1724
  268MOL0     C36068   1.369   9.383   5.749  0.4219 -0.2908 -0.3312
  268MOL0     O36069   1.245   9.312   5.715 -0.4471 -0.1210  0.5499
  268MOL0     C36070   1.141   9.335   5.800  0.3725 -0.6714  0.6968
  268MOL0     C36071   1.110   9.469   5.844  0.0021 -0.1365 -0.5929
  268MOL0     C36072   0.994   9.496   5.911 -0.3929  0.3054 -1.0356
  268MOL0     C36073   0.977   9.637   5.959 -0.5007  0.2817  0.6853
  268MOL0     C36074   0.912   9.388   5.959  0.8319 -0.8270  0.0932
  268MOL0     C36075   0.779   9.394   6.024  0.3893  0.1954 -0.5308
  268MOL0     O36076   0.703   9.275   6.031 -0.2195 -0.4852 -0.1786
  268MOL0     C36077   0.581   9.273   6.091  0.8328  0.0566  0.4447
  268MOL0     C36078   0.481   9.375   6.090 -0.4098  1.0668 -0.6888
  268MOL0     C36079   0.350   9.349   6.139 -0.0361 -0.5018 -0.0527
  268MOL0     C36080   0.331   9.231   6.214 -0.7627 -0.0695  0.3646
  268MOL0     O36081   0.210   9.195   6.266 -0.1589  0.7571  0.2952
  268MOL0     C36082   0.107   9.301   6.267 -0.1214 -0.1903  0.0800
  268MOL0     C36083   0.002   9.237   6.353  0.0318 -0.1184  0.0698
  268MOL0     C36084  -0.100   9.147   6.279  0.1189 -0.0664  0.3018
  268MOL0     C36085  -0.205   9.081   6.372 -0.5329 -0.4904 -0.2588
  268MOL0     C36086  -0.314   9.023   6.284  0.1871  0.0172  0.0736
  268MOL0     C36087  -0.401   8.925   6.363 -0.3402  0.3669 -0.1927
  268MOL0     C36088  -0.534   8.885   6.301  0.0131  0.6813 -0.2289
  268MOL0     C36089  -0.635   8.997   6.323 -0.4929  0.0006 -0.0965
  268MOL0    Cl36090  -0.801   8.929   6.324 -0.0023 -0.2035  0.0877
  268MOL0     C36091   0.434   9.140   6.236  0.4120  0.8204  0.3422
  268MOL0     C36092   0.561   9.161   6.169 -0.1731  0.5313 -1.5934
  268MOL0     O36093   0.740   9.500   6.064  0.3303  0.3303  0.8627
  268MOL0     C36094   0.943   9.260   5.920 -0.1940 -0.1000  0.4252
  268MOL0     C36095   1.055   9.229   5.842 -0.0358 -0.8091 -0.3902
  268MOL0     N36096   1.763   9.315   5.968 -0.2230 -0.2813 -0.7552
  268MOL0     N36097   1.879   9.354   5.929 -0.0448 -0.0533 -0.3599
  268MOL0     C36098   3.012   9.165   6.239  0.5455  0.0981 -0.0438
  268MOL0     C36099   3.142   9.131   6.257  0.3324 -0.1272  0.6602
  268MOL0     C36100   3.584   9.175   6.323 -0.0054  0.4779  0.0077
  268MOL0     C36101   3.702   9.200   6.248  0.3277 -0.1733  0.1130
  268MOL0     C36102   3.821   9.150   6.296 -0.3057  0.0850 -0.4423
  268MOL0     C36103   3.832   9.070   6.411 -0.5344 -0.1705 -0.1449
  268MOL0     O36104   3.957   9.026   6.462  0.0902 -0.1348 -0.1412
  268MOL0     C36105   3.981   8.932   6.567 -0.1562 -0.2974  0.2917
  268MOL0     C36106   3.984   8.788   6.532 -0.3658 -0.9250 -0.1658
  268MOL0     C36107   4.088   8.769   6.424  0.0935 -0.6771  0.8615
  268MOL0     C36108   4.149   8.619   6.420 -0.0410  0.6475 -1.1369
  268MOL0     C36109   4.202   8.579   6.292 -1.3807 -0.1142  0.9456
  268MOL0     C36110   4.253   8.552   6.186  0.0046 -1.0204  0.7613
  268MOL0     C36111   3.717   9.057   6.487  0.0205  0.0128  0.5624
  268MOL0     C36112   3.594   9.106   6.445  0.5433 -1.4714  0.2942
  268MOL0     H36113   3.232   9.428   6.405 -2.8613  0.8501  1.4870
  268MOL0     H36114   2.995   9.486   6.332 -2.0321 -1.6882  0.3972
  268MOL0     H36115   2.778   9.523   6.262 -0.3867  0.7870 -1.6431
  268MOL0     H36116   2.830   9.465   6.107 -0.9645  0.4800 -0.5867
  268MOL0     H36117   2.563   9.444   6.250  0.2490 -1.9237  0.6059
  268MOL0     H36118   2.600   9.532   6.107 -0.5596 -1.1891 -0.9873
  268MOL0     H36119   2.607   9.305   5.981 -0.7634 -0.8994  0.3243
  268MOL0     H36120   2.595   9.220   6.143  1.1465  0.0155 -0.3183
  268MOL0     H36121   2.376   9.325   6.162 -0.1479  2.0948  0.7285
  268MOL0     H36122   2.403   9.436   6.032  1.3332 -0.3984 -2.0658
  268MOL0     H36123   2.409   9.207   5.884  0.4973 -0.2401  1.2731
  268MOL0     H36124   2.336   9.137   6.023  1.1301 -0.4872  0.1081
  268MOL0     H36125   2.155   9.319   6.004  0.3999  3.8827  0.1701
  268MOL0     H36126   2.248   9.393   5.878  1.5795 -1.4369 -1.8850
  268MOL0     H36127   2.214   9.170   5.734  0.5614  0.1263 -0.5313
  268MOL0     H36128   2.119   9.113   5.869  1.1195 -0.4426 -0.7619
  268MOL0     H36129   2.002   9.241   5.658 -0.4226  0.8691 -0.3769
  268MOL0     H36130   2.061   9.385   5.733  1.3686  0.0030 -0.8547
  268MOL0     H36131   1.832   9.094   5.741  2.0195 -1.4449  0.5546
  268MOL0     H36132   1.595   9.058   5.829 -0.1822  1.3860 -0.4480
  268MOL0     H36133   1.588   9.076   6.004 -4.9245  1.8809  0.3847
  268MOL0     H36134   1.465   9.305   5.976 -1.5718  1.1905 -0.9143
  268MOL0     H36135   1.380   9.162   5.901 -0.2916 -0.0811 -2.7554
  268MOL0     H36136   1.485   9.214   5.683 -0.5171  1.0159 -1.4678
  268MOL0     H36137   1.577   9.347   5.761 -0.4737 -0.3525  1.5513
  268MOL0     H36138   1.390   9.455   5.669 -1.6337  0.7392 -0.0210
  268MOL0     H36139   1.358   9.443   5.840 -1.1531 -2.1106  0.7693
  268MOL0     H36140   1.171   9.554   5.815  0.1159  0.1714  0.5077
  268MOL0     H36141   0.887   9.691   5.926  0.8563  0.7652 -2.5783
  268MOL0     H36142   0.972   9.630   6.068 -0.7153 -1.0883  0.6062
  268MOL0     H36143   1.056   9.701   5.919 -2.9421  1.9438 -1.8693
  268MOL0     H36144   0.508   9.475   6.058 -2.1533  2.2258  1.2400
  268MOL0     H36145   0.270   9.422   6.128 -1.4814 -2.0369 -0.0543
  268MOL0     H36146   0.138   9.390   6.322  0.2757 -0.2913  0.0209
  268MOL0     H36147   0.055   9.324   6.173  0.9653 -1.2037 -0.8079
  268MOL0     H36148   0.061   9.195   6.435 -0.4504  0.5575  0.7877
  268MOL0     H36149  -0.049   9.318   6.406  0.0062 -0.6605  0.8937
  268MOL0     H36150  -0.049   9.070   6.220 -0.7074 -1.4933  1.3782
  268MOL0     H36151  -0.155   9.217   6.215 -0.2607  0.4099  1.1214
  268MOL0     H36152  -0.161   9.005   6.437  1.5192 -0.1840 -1.2043
  268MOL0     H36153  -0.244   9.157   6.440  1.4843  0.9860 -0.6843
  268MOL0     H36154  -0.272   8.969   6.198 -0.4669  1.5713 -1.2923
  268MOL0     H36155  -0.378   9.100   6.241  0.0582  0.2671  0.7106
  268MOL0     H36156  -0.341   8.835   6.380  0.7713  1.0361 -0.4496
  268MOL0     H36157  -0.422   8.971   6.460 -0.0154 -2.6249  1.3839
  268MOL0     H36158  -0.578   8.794   6.342 -0.9439  0.4264 -1.7388
  268MOL0     H36159  -0.520   8.861   6.195  1.7650  2.7869 -0.5566
  268MOL0     H36160  -0.624   9.059   6.234  0.0824 -1.7860 -1.3434
  268MOL0     H36161  -0.632   9.060   6.412  2.6436 -1.1946  0.7717
  268MOL0     H36162   0.425   9.049   6.295 -1.4942  1.0649  0.4847
  268MOL0     H36163   0.636   9.084   6.182 -0.0766  0.9759  1.0863
  268MOL0     H36164   0.882   9.172   5.938  0.3766 -0.8347 -1.0920
  268MOL0     H36165   1.080   9.130   5.806 -1.8643 -0.0964 -4.1948
  268MOL0     H36166   2.943   9.086   6.211 -0.0655 -0.1133  1.8446
  268MOL0     H36167   3.169   9.027   6.248  0.3795 -0.0772  0.2335
  268MOL0     H36168   3.715   9.255   6.155 -4.8760  0.2641 -0.6534
  268MOL0     H36169   3.911   9.173   6.241 -1.4166  1.2153 -1.8453
  268MOL0     H36170   4.084   8.958   6.596 -0.0754  1.6108 -1.4599
  268MOL0     H36171   3.918   8.957   6.653 -1.2805  1.3166 -0.9338
  268MOL0     H36172   3.886   8.755   6.496  0.8873 -4.2270 -0.9395
  268MOL0     H36173   4.005   8.723   6.618  0.5231 -1.1208 -0.5238
  268MOL0     H36174   4.170   8.842   6.434 -1.5912  1.6314 -1.0926
  268MOL0     H36175   4.049   8.793   6.325  1.4836  1.6054  0.7963
  268MOL0     H36176   4.070   8.554   6.457  1.6795 -0.7471  0.2541
  268MOL0     H36177   4.219   8.626   6.504  0.6693  0.9641 -1.7408
  268MOL0     H36178   4.288   8.533   6.086  1.2868 -2.8331  1.5127
  268MOL0     H36179   3.705   8.989   6.571 -3.0581 -0.0119  0.2323
  268MOL0     H36180   3.508   9.092   6.510  0.0698  3.0367  0.9764
  269MOL0     O36181   3.424   2.266   0.614  0.1560  0.7137  0.6954
  269MOL0     C36182   3.422   2.376   0.566 -0.0857  0.5587  0.2386
  269MOL0     O36183   3.324   2.467   0.576 -0.2723  0.3910  0.3002
  269MOL0     C36184   3.200   2.429   0.622  0.0820 -0.2426 -0.0583
  269MOL0     C36185   3.150   2.297   0.623  0.3433 -1.2934  0.9117
  269MOL0     C36186   3.015   2.274   0.647 -0.0734  0.2004  0.8578
  269MOL0     C36187   2.926   2.379   0.688 -0.3825 -0.2865  0.3250
  269MOL0     O36188   2.796   2.338   0.716 -0.5061  0.1071 -0.3542
  269MOL0     C36189   2.708   2.427   0.789  0.5143 -0.1788 -0.5963
  269MOL0     C36190   2.567   2.383   0.836  0.2546  0.0448 -0.4438
  269MOL0     C36191   2.498   2.473   0.938  0.0438 -0.3054 -0.5693
  269MOL0     C36192   2.358   2.405   0.967  0.1387  0.1221  0.2011
  269MOL0     C36193   2.282   2.492   1.068  0.3097  0.1050  0.0624
  269MOL0     C36194   2.147   2.440   1.107 -0.4662 -0.2015 -0.6219
  269MOL0     C36195   2.060   2.533   1.197 -0.1780  0.4974  0.0325
  269MOL0     C36196   1.923   2.471   1.222  0.6295 -0.2969 -0.6420
  269MOL0     N36197   1.836   2.559   1.291 -0.1679  0.3752 -0.2488
  269MOL0     C36198   1.839   2.695   1.279  0.9816  0.1186 -0.6946
  269MOL0     C36199   1.737   2.740   1.360 -0.7912  0.6062  0.4159
  269MOL0     C36200   1.694   2.880   1.379 -0.2570 -1.0603 -1.0061
  269MOL0     C36201   1.535   2.912   1.376 -0.2255  0.2507  0.0863
  269MOL0     C36202   1.474   2.882   1.243  0.3012 -0.1424  0.1222
  269MOL0     C36203   1.322   2.903   1.255 -0.3863  0.2240 -0.5711
  269MOL0     O36204   1.262   2.792   1.322 -0.1882 -0.4220  0.2923
  269MOL0     C36205   1.127   2.776   1.312  0.6589 -0.2338 -0.3327
  269MOL0     C36206   1.044   2.887   1.325 -0.6975 -0.9784  0.9727
  269MOL0     C36207   0.904   2.874   1.335 -0.9815 -0.4433  0.3975
  269MOL0     C36208   0.815   2.997   1.354 -0.9853 -0.1131  0.1665
  269MOL0     C36209   0.844   2.750   1.303  0.3925  1.0700  0.4684
  269MOL0     C36210   0.699   2.709   1.323  0.2521  0.5077 -0.0620
  269MOL0     O36211   0.664   2.584   1.262 -0.3853 -0.5410  0.4941
  269MOL0     C36212   0.539   2.523   1.266  0.8291  0.2431 -0.0231
  269MOL0     C36213   0.432   2.563   1.351  0.0605  0.2998 -0.0433
  269MOL0     C36214   0.315   2.488   1.360  1.2078  0.2078  0.1377
  269MOL0     C36215   0.298   2.375   1.283 -0.3273  0.3635 -0.6729
  269MOL0     O36216   0.180   2.292   1.277 -0.7411  0.0756 -0.4092
  269MOL0     C36217   0.076   2.329   1.373  0.1798  0.3264  0.0677
  269MOL0     C36218  -0.057   2.253   1.353  0.6379  0.5763 -0.3536
  269MOL0     C36219  -0.157   2.301   1.459  0.3208  0.1502 -0.2877
  269MOL0     C36220  -0.297   2.260   1.419 -0.5601 -0.6254  1.0967
  269MOL0     C36221  -0.388   2.340   1.503  0.0622  0.2590  0.8836
  269MOL0     C36222  -0.531   2.269   1.505  0.7238  1.3282 -0.2946
  269MOL0     C36223  -0.640   2.363   1.566  0.0106  0.6329  0.8249
  269MOL0     C36224  -0.769   2.285   1.590 -0.4660 -0.0736  0.0200
  269MOL0    Cl36225  -0.745   2.175   1.721  0.1366  0.1942  0.2340
  269MOL0     C36226   0.399   2.337   1.188  0.0058  0.5639 -0.4789
  269MOL0     C36227   0.517   2.411   1.181 -0.3815 -0.1814  0.0674
  269MOL0     O36228   0.628   2.781   1.389 -0.0885  0.1484  0.1687
  269MOL0     C36229   0.930   2.636   1.293 -0.0331 -0.6499 -0.0258
  269MOL0     C36230   1.068   2.647   1.291 -0.1269  1.3216  0.1359
  269MOL0     N36231   1.664   2.633   1.401  0.0713  0.2511  0.6453
  269MOL0     N36232   1.730   2.530   1.366  0.2048 -0.2090 -0.2678
  269MOL0     C36233   2.986   2.506   0.703  0.0561  0.2837 -0.4198
  269MOL0     C36234   3.114   2.533   0.651 -0.1818 -0.0736  0.5044
  269MOL0     C36235   3.544   2.420   0.499  0.8187 -0.6052  0.0158
  269MOL0     C36236   3.595   2.542   0.527  0.5512  0.0645 -0.0142
  269MOL0     C36237   3.705   2.584   0.456  0.0351 -0.0959 -0.1099
  269MOL0     C36238   3.771   2.499   0.365 -0.6275 -0.1798  0.0177
  269MOL0     O36239   3.887   2.530   0.297  0.2277  0.6217 -0.9625
  269MOL0     C36240   3.955   2.649   0.352  0.4795  0.2639  0.4816
  269MOL0     C36241   4.094   2.661   0.292 -0.8556 -0.7442 -0.4334
  269MOL0     C36242   4.173   2.531   0.301  0.4395  0.1743  0.1697
  269MOL0     C36243   4.325   2.535   0.244  0.5328  0.1208 -0.1473
  269MOL0     C36244   4.326   2.570   0.099  1.1504  0.2748 -0.1095
  269MOL0     C36245   4.333   2.606  -0.020 -0.0551 -0.5618 -0.8575
  269MOL0     C36246   3.727   2.372   0.348  0.3721  0.6038  0.2219
  269MOL0     C36247   3.610   2.332   0.417 -0.0395  0.2910  1.0224
  269MOL0     H36248   3.210   2.208   0.608 -0.3343 -1.5195 -0.5731
  269MOL0     H36249   2.969   2.175   0.647 -1.7884  0.9558  1.3648
  269MOL0     H36250   2.766   2.460   0.876  2.0966 -2.7541 -0.5750
  269MOL0     H36251   2.690   2.519   0.732  1.7065  1.8664  2.1117
  269MOL0     H36252   2.505   2.356   0.750 -0.2894  2.5825 -0.9306
  269MOL0     H36253   2.570   2.287   0.888 -0.7243  0.1988 -0.0803
  269MOL0     H36254   2.547   2.477   1.036 -0.5536 -2.7607 -0.1008
  269MOL0     H36255   2.469   2.574   0.908  0.8725  1.0111  2.6486
  269MOL0     H36256   2.307   2.391   0.871 -1.2141 -1.3068  1.0872
  269MOL0     H36257   2.378   2.306   1.008  0.2274  0.8408  1.9748
  269MOL0     H36258   2.343   2.503   1.158 -0.7475 -3.0568  1.2997
  269MOL0     H36259   2.270   2.588   1.017  1.3629 -0.4921 -1.3818
  269MOL0     H36260   2.104   2.422   1.008  1.4112  0.4108 -1.6000
  269MOL0     H36261   2.161   2.341   1.153 -0.0786  0.1632  0.0621
  269MOL0     H36262   2.102   2.550   1.297 -2.0199 -0.5895  1.0512
  269MOL0     H36263   2.047   2.629   1.146 -0.2100  1.4234  1.7235
  269MOL0     H36264   1.937   2.382   1.284  0.9342 -0.4357 -0.9060
  269MOL0     H36265   1.878   2.449   1.125 -0.5531  1.4639 -0.5446
  269MOL0     H36266   1.903   2.759   1.219 -0.3762 -0.9525 -3.4795
  269MOL0     H36267   1.729   2.908   1.478 -4.1151 -1.5305  0.6612
  269MOL0     H36268   1.745   2.954   1.316 -0.1103 -1.7291 -1.6937
  269MOL0     H36269   1.526   3.020   1.392  1.3983  0.3270  0.6370
  269MOL0     H36270   1.488   2.852   1.455  1.2579  0.1382  0.9177
  269MOL0     H36271   1.484   2.777   1.214 -0.5049 -0.1083 -0.3204
  269MOL0     H36272   1.518   2.954   1.174  0.8965  1.4996  2.1346
  269MOL0     H36273   1.279   2.896   1.155  0.3327 -0.4798 -0.8453
  269MOL0     H36274   1.292   2.999   1.299  1.3326  0.3179  0.5049
  269MOL0     H36275   1.088   2.985   1.332  1.8618 -1.9347 -0.5846
  269MOL0     H36276   0.740   2.987   1.275 -1.3542 -3.0005  0.7661
  269MOL0     H36277   0.758   2.997   1.448 -1.5417  1.8358 -0.1231
  269MOL0     H36278   0.863   3.094   1.339  0.3948 -1.1934 -3.4136
  269MOL0     H36279   0.456   2.651   1.410 -1.1238 -0.3245  1.4436
  269MOL0     H36280   0.231   2.531   1.415  1.2231 -0.3365  0.5976
  269MOL0     H36281   0.110   2.329   1.476  2.7896 -0.1915 -0.7143
  269MOL0     H36282   0.049   2.432   1.347 -2.1743 -0.3063 -0.2486
  269MOL0     H36283  -0.099   2.273   1.254  1.8794 -0.1906 -1.0685
  269MOL0     H36284  -0.037   2.148   1.377 -3.3947 -0.1396  0.5969
  269MOL0     H36285  -0.166   2.410   1.463 -0.7326  0.0572  0.2578
  269MOL0     H36286  -0.130   2.259   1.556 -1.0969 -3.1442 -1.1763
  269MOL0     H36287  -0.320   2.281   1.314  0.3215 -0.2000  0.9766
  269MOL0     H36288  -0.317   2.153   1.423  1.1309 -1.0616 -0.8386
  269MOL0     H36289  -0.390   2.439   1.456 -0.8225  0.1689  0.7168
  269MOL0     H36290  -0.356   2.351   1.607 -1.4591  0.1834  1.3818
  269MOL0     H36291  -0.548   2.253   1.398  3.0851  2.6070 -0.9361
  269MOL0     H36292  -0.518   2.180   1.568 -1.1899 -0.1180 -1.8352
  269MOL0     H36293  -0.663   2.438   1.490  2.7863 -0.6915 -1.5447
  269MOL0     H36294  -0.602   2.422   1.650  2.4856 -0.3514  0.4956
  269MOL0     H36295  -0.802   2.235   1.499 -2.7352  0.4688  0.4914
  269MOL0     H36296  -0.844   2.350   1.635 -1.5203 -2.8414  2.6058
  269MOL0     H36297   0.388   2.262   1.111  2.9894 -0.8381  0.3158
  269MOL0     H36298   0.585   2.372   1.106  0.2183  0.6799  0.1498
  269MOL0     H36299   0.889   2.536   1.285 -0.7271 -0.3054 -1.1284
  269MOL0     H36300   1.139   2.566   1.283 -1.5622 -0.1838  1.8867
  269MOL0     H36301   2.917   2.578   0.744 -0.4567  1.9732 -3.8729
  269MOL0     H36302   3.160   2.631   0.657  0.8210 -0.3523 -1.6814
  269MOL0     H36303   3.547   2.616   0.591  0.9394  0.9993 -0.7741
  269MOL0     H36304   3.745   2.680   0.487 -2.3048  0.3488  1.8448
  269MOL0     H36305   3.901   2.743   0.337  0.5196  0.5311  1.8485
  269MOL0     H36306   3.967   2.634   0.460 -1.6470 -2.4833  0.4495
  269MOL0     H36307   4.153   2.740   0.339  0.4113 -1.3117 -1.0052
  269MOL0     H36308   4.079   2.683   0.187  0.0727  0.0007 -0.4189
  269MOL0     H36309   4.114   2.444   0.267 -2.7668  2.4543 -0.5920
  269MOL0     H36310   4.179   2.502   0.407  0.2613 -0.0517  0.1191
  269MOL0     H36311   4.372   2.437   0.256  2.1273  0.7927 -0.7666
  269MOL0     H36312   4.377   2.607   0.307  0.4552  1.5729 -1.6649
  269MOL0     H36313   4.341   2.637  -0.122 -1.5605  1.6770 -0.3660
  269MOL0     H36314   3.784   2.302   0.288 -1.5905 -0.7355 -0.1839
  269MOL0     H36315   3.567   2.235   0.394 -3.8577  1.7340  1.3342
  270MOL0     O36316   7.951   3.602   0.681 -0.3915 -0.2970 -0.3007
  270MOL0     C36317   7.939   3.669   0.782  0.0533  0.5364  1.0382
  270MOL0     O36318   7.822   3.716   0.828 -0.3581  0.0417 -0.3462
  270MOL0     C36319   7.704   3.691   0.769 -0.1405 -0.5381  0.6980
  270MOL0     C36320   7.596   3.660   0.848 -0.0709  0.2219 -0.6308
  270MOL0     C36321   7.468   3.631   0.797  0.2737 -0.5961  0.1057
  270MOL0     C36322   7.445   3.654   0.658  0.3668  0.5641  0.0979
  270MOL0     O36323   7.319   3.644   0.608  0.0958  0.5938 -0.0821
  270MOL0     C36324   7.276   3.699   0.476 -0.1754 -0.6310  0.7201
  270MOL0     C36325   7.118   3.690   0.474 -0.5684 -0.4819  0.1669
  270MOL0     C36326   7.063   3.759   0.349  0.1614 -0.7267  0.6363
  270MOL0     C36327   6.912   3.782   0.376 -0.1356 -0.0053 -0.0506
  270MOL0     C36328   6.848   3.869   0.265 -0.2963 -0.5660 -0.1156
  270MOL0     C36329   6.833   3.792   0.134 -0.5169 -0.4561  0.0270
  270MOL0     C36330   6.680   3.805   0.106  0.1755  0.5004 -0.2578
  270MOL0     C36331   6.640   3.727  -0.018 -0.2271 -0.0073  0.1864
  270MOL0     N36332   6.502   3.762  -0.057 -0.0755 -0.1425 -0.8112
  270MOL0     C36333   6.463   3.810  -0.181 -1.1311 -0.3370 -0.5594
  270MOL0     C36334   6.331   3.832  -0.168  0.9432 -0.7745  0.3751
  270MOL0     C36335   6.250   3.895  -0.272 -0.4104  0.6336 -0.0483
  270MOL0     C36336   6.119   3.819  -0.276  0.3792 -0.8733  0.4141
  270MOL0     C36337   6.016   3.892  -0.370  0.1316  0.1597  0.1362
  270MOL0     C36338   5.879   3.830  -0.360 -0.1865  0.2585  0.5884
  270MOL0     O36339   5.798   3.883  -0.459  0.1180  0.1770 -0.2545
  270MOL0     C36340   5.663   3.871  -0.461  0.6924  0.2639 -0.2142
  270MOL0     C36341   5.594   3.938  -0.563 -0.2340  0.6850  0.0691
  270MOL0     C36342   5.456   3.930  -0.594  0.6766  0.0394  0.2752
  270MOL0     C36343   5.401   4.016  -0.707  0.2259 -0.4790  0.9504
  270MOL0     C36344   5.388   3.840  -0.519  0.0353  0.6911  0.7903
  270MOL0     C36345   5.234   3.818  -0.542 -0.8589 -0.3724 -0.3308
  270MOL0     O36346   5.184   3.722  -0.463  0.1526 -0.0380 -0.1759
  270MOL0     C36347   5.061   3.674  -0.502 -1.0957  0.0040 -0.4608
  270MOL0     C36348   4.945   3.734  -0.458 -1.6901 -0.8680  0.1132
  270MOL0     C36349   4.828   3.692  -0.510  0.9345  0.4067 -0.2781
  270MOL0     C36350   4.826   3.592  -0.602  0.9974  0.4356  0.1267
  270MOL0     O36351   4.701   3.567  -0.647  0.1456  0.1321  0.6951
  270MOL0     C36352   4.669   3.438  -0.692 -0.7804  0.9173  0.3397
  270MOL0     C36353   4.530   3.452  -0.731  0.4566  1.1255 -0.1133
  270MOL0     C36354   4.439   3.514  -0.616 -0.0672  0.0694  0.2285
  270MOL0     C36355   4.286   3.495  -0.625 -0.4948 -0.4897  0.8777
  270MOL0     C36356   4.221   3.590  -0.525  0.5840 -0.4348 -0.4873
  270MOL0     C36357   4.066   3.598  -0.546 -0.3950 -0.7919  0.4847
  270MOL0     C36358   3.998   3.689  -0.436  0.0193 -0.0752  0.2138
  270MOL0     C36359   3.850   3.657  -0.427 -0.2002 -0.2634 -0.2588
  270MOL0    Cl36360   3.759   3.723  -0.567 -0.5685  0.2151  0.5889
  270MOL0     C36361   4.940   3.519  -0.637 -0.6096 -0.3474 -0.5986
  270MOL0     C36362   5.061   3.561  -0.586  0.4666 -0.1767 -0.1511
  270MOL0     O36363   5.176   3.877  -0.633  0.2308  0.5788 -0.5526
  270MOL0     C36364   5.453   3.773  -0.409  0.0449  1.4416 -0.3295
  270MOL0     C36365   5.591   3.784  -0.381 -0.2601  0.4050 -0.1441
  270MOL0     N36366   6.291   3.806  -0.039 -0.5099 -0.1874 -1.1740
  270MOL0     N36367   6.392   3.758   0.030  0.8363 -0.0882  0.3076
  270MOL0     C36368   7.554   3.683   0.571 -0.4414 -0.5562  0.5508
  270MOL0     C36369   7.684   3.698   0.627  0.1641  0.7207  0.3309
  270MOL0     C36370   8.064   3.713   0.855 -0.0180  0.5107 -0.4419
  270MOL0     C36371   8.049   3.804   0.962 -0.3183 -0.9106  0.5832
  270MOL0     C36372   8.156   3.839   1.038  0.3930  0.5275  0.0233
  270MOL0     C36373   8.284   3.776   1.016  0.6840 -0.4391  0.1476
  270MOL0     O36374   8.397   3.811   1.077  0.1501  0.5608  0.7424
  270MOL0     C36375   8.383   3.926   1.162 -0.8138  0.4486  0.8048
  270MOL0     C36376   8.512   3.978   1.224  0.6485 -0.7485 -0.4274
  270MOL0     C36377   8.612   4.043   1.117 -0.2573  0.6394  0.0485
  270MOL0     C36378   8.640   3.941   1.002 -0.1257 -0.2321 -0.8875
  270MOL0     C36379   8.759   3.971   0.922 -0.5911 -0.5548  0.3528
  270MOL0     C36380   8.860   3.988   0.864  0.3307 -0.5164 -0.1134
  270MOL0     C36381   8.295   3.686   0.913  0.3478 -0.3033  0.5837
  270MOL0     C36382   8.186   3.650   0.831 -0.8140 -0.1285 -0.5093
  270MOL0     H36383   7.625   3.644   0.951  1.4077 -0.3938 -1.1080
  270MOL0     H36384   7.380   3.604   0.855  1.4815  0.2285  2.4619
  270MOL0     H36385   7.315   3.800   0.460 -0.2364 -1.0953 -3.3192
  270MOL0     H36386   7.321   3.637   0.398 -0.4233 -2.9719  2.3200
  270MOL0     H36387   7.094   3.583   0.471  1.0624 -0.8540 -1.0201
  270MOL0     H36388   7.085   3.730   0.570  0.2999 -1.8047  1.0499
  270MOL0     H36389   7.118   3.851   0.327  0.3688 -1.2454 -1.1906
  270MOL0     H36390   7.097   3.701   0.263 -0.2987  0.0910 -0.1163
  270MOL0     H36391   6.857   3.687   0.381  0.2671 -0.1797  1.4615
  270MOL0     H36392   6.901   3.824   0.476  0.2633 -0.7349  0.3063
  270MOL0     H36393   6.758   3.916   0.307  1.5378  3.1244  0.1440
  270MOL0     H36394   6.916   3.954   0.249 -0.3508 -0.2168  1.3364
  270MOL0     H36395   6.891   3.833   0.050  0.3653 -1.6830  0.0135
  270MOL0     H36396   6.865   3.688   0.140  0.8620  0.0188  1.8777
  270MOL0     H36397   6.628   3.761   0.191  0.2977 -1.8359 -1.2992
  270MOL0     H36398   6.659   3.909   0.083  0.2744  0.7057  0.5435
  270MOL0     H36399   6.659   3.620  -0.005  1.2517  0.1015 -0.8151
  270MOL0     H36400   6.717   3.746  -0.094 -0.4835 -0.1767 -0.1208
  270MOL0     H36401   6.541   3.814  -0.255 -0.9916 -2.8723 -0.6489
  270MOL0     H36402   6.232   4.000  -0.246  0.9419  1.6525 -2.8459
  270MOL0     H36403   6.315   3.896  -0.360 -0.1484 -1.1895  0.0854
  270MOL0     H36404   6.070   3.833  -0.179 -0.0643  1.3798 -0.0966
  270MOL0     H36405   6.125   3.713  -0.304  4.4106 -1.8217  3.7640
  270MOL0     H36406   6.051   3.885  -0.473  0.7880 -2.5817  0.4864
  270MOL0     H36407   6.021   3.998  -0.341 -0.2165  0.9904 -2.5956
  270MOL0     H36408   5.824   3.840  -0.266 -2.5114  1.3596 -0.7942
  270MOL0     H36409   5.897   3.726  -0.387  1.7027  0.3744  1.2556
  270MOL0     H36410   5.653   4.016  -0.611  0.6197 -0.8312 -1.4216
  270MOL0     H36411   5.339   3.955  -0.773  2.3855  0.0891 -1.8068
  270MOL0     H36412   5.340   4.102  -0.676  1.9098  0.6767  1.1957
  270MOL0     H36413   5.482   4.060  -0.766 -1.0221  1.9871  0.9537
  270MOL0     H36414   4.935   3.817  -0.389 -2.8676 -0.1739 -0.8587
  270MOL0     H36415   4.733   3.738  -0.484  0.8048 -0.3399  0.6465
  270MOL0     H36416   4.723   3.411  -0.783 -2.8742 -4.7220  0.3791
  270MOL0     H36417   4.690   3.363  -0.615  0.9043 -0.3297 -1.2409
  270MOL0     H36418   4.514   3.502  -0.826 -1.1453 -0.6498 -0.8445
  270MOL0     H36419   4.479   3.359  -0.757  0.1876  1.6107 -1.3533
  270MOL0     H36420   4.451   3.622  -0.602 -3.8260  0.4325  1.6920
  270MOL0     H36421   4.479   3.483  -0.519  1.0033  0.6768 -0.0009
  270MOL0     H36422   4.254   3.516  -0.728  2.0100 -0.1985  0.0929
  270MOL0     H36423   4.259   3.389  -0.612  0.5134 -0.6331  1.9530
  270MOL0     H36424   4.258   3.692  -0.535 -1.7762  0.8290  2.1919
  270MOL0     H36425   4.232   3.558  -0.421 -4.8892 -1.4400  0.1097
  270MOL0     H36426   4.050   3.642  -0.645 -0.2057  1.4748  1.4099
  270MOL0     H36427   4.025   3.496  -0.539  0.4741 -1.3006 -1.3655
  270MOL0     H36428   4.019   3.796  -0.447  3.5032 -0.8142 -1.5652
  270MOL0     H36429   4.057   3.653  -0.351 -0.0298 -0.2098  0.1901
  270MOL0     H36430   3.824   3.551  -0.416  2.2280 -0.9969 -0.9759
  270MOL0     H36431   3.821   3.699  -0.331 -1.5481 -2.2348  0.2592
  270MOL0     H36432   4.934   3.430  -0.699  1.0517  0.2486 -1.6742
  270MOL0     H36433   5.151   3.512  -0.619 -0.0360 -1.4919  0.3465
  270MOL0     H36434   5.409   3.690  -0.355  1.8122 -0.2706 -1.4269
  270MOL0     H36435   5.634   3.724  -0.302 -0.5309 -0.7634 -0.8615
  270MOL0     H36436   7.556   3.699   0.464  2.7418 -0.2066  0.5672
  270MOL0     H36437   7.770   3.731   0.570  0.3587  1.7126  1.1641
  270MOL0     H36438   7.955   3.858   0.971 -0.5611 -0.7249 -2.1594
  270MOL0     H36439   8.132   3.901   1.124  0.2251  0.0695  0.3084
  270MOL0     H36440   8.353   4.003   1.090  0.3044  0.5895  0.4851
  270MOL0     H36441   8.304   3.913   1.237 -0.2683 -0.4972  1.2281
  270MOL0     H36442   8.567   3.900   1.278  2.5936 -0.8581 -2.4391
  270MOL0     H36443   8.485   4.053   1.299  0.4593 -1.3329  0.1091
  270MOL0     H36444   8.702   4.067   1.174  0.1647 -1.8851  0.5440
  270MOL0     H36445   8.566   4.134   1.077 -0.7269  1.3617  2.0842
  270MOL0     H36446   8.555   3.928   0.935 -0.8088  1.6761 -0.4597
  270MOL0     H36447   8.657   3.838   1.035  1.5897 -0.4924 -2.3955
  270MOL0     H36448   8.946   4.006   0.802 -1.1952 -1.3242 -2.5977
  270MOL0     H36449   8.392   3.646   0.886  0.4336  0.9173 -1.0209
  270MOL0     H36450   8.179   3.566   0.762 -1.1160 -2.6667  2.4105
  271MOL0     O36451   1.144   7.234   4.145 -0.2540  0.7183  1.4220
  271MOL0     C36452   1.175   7.179   4.255 -0.3333 -0.0594  0.4431
  271MOL0     O36453   1.098   7.096   4.325  0.2070 -0.8588 -0.8777
  271MOL0     C36454   0.978   7.049   4.266 -0.4784 -0.2026  0.7765
  271MOL0     C36455   0.992   6.944   4.176  0.6535  0.1516  0.2432
  271MOL0     C36456   0.877   6.893   4.119  0.1127 -0.1870  1.0999
  271MOL0     C36457   0.753   6.957   4.146 -0.1119  0.2591 -0.2783
  271MOL0     O36458   0.638   6.925   4.092  0.4778 -0.3291  0.0205
  271MOL0     C36459   0.604   6.785   4.080  0.3239  0.4413 -0.1509
  271MOL0     C36460   0.455   6.756   4.102 -0.2468 -0.1540  0.0277
  271MOL0     C36461   0.366   6.806   3.992 -0.5908  0.4118  0.5420
  271MOL0     C36462   0.209   6.794   4.015  0.2403  0.1141 -0.3387
  271MOL0     C36463   0.128   6.800   3.891 -0.0954 -0.2005  0.2585
  271MOL0     C36464  -0.029   6.797   3.916  1.0551 -0.0889 -0.3514
  271MOL0     C36465  -0.108   6.836   3.793 -0.6319  0.5232 -0.1422
  271MOL0     C36466  -0.104   6.731   3.688 -0.4620  0.8584  0.2388
  271MOL0     N36467  -0.141   6.594   3.737  0.2251 -0.8537 -0.2030
  271MOL0     C36468  -0.268   6.532   3.718 -0.0822  1.1122  0.4896
  271MOL0     C36469  -0.242   6.402   3.749 -0.0169  0.6720  0.2062
  271MOL0     C36470  -0.344   6.290   3.732  0.1751 -0.4775  0.3879
  271MOL0     C36471  -0.399   6.290   3.586  0.3927  0.3133  0.6535
  271MOL0     C36472  -0.511   6.182   3.567 -0.5206  0.2579  0.3610
  271MOL0     C36473  -0.596   6.207   3.430 -0.7047 -0.2582 -0.0550
  271MOL0     O36474  -0.690   6.100   3.414 -0.8111  0.4057  1.0189
  271MOL0     C36475  -0.805   6.125   3.336  0.4521  0.4374  0.2916
  271MOL0     C36476  -0.784   6.160   3.200  0.0225  0.1795 -0.0366
  271MOL0     C36477  -0.889   6.199   3.119  0.3553  0.8000  0.2864
  271MOL0     C36478  -0.857   6.233   2.983 -0.1764  0.3899  0.6930
  271MOL0     C36479  -1.024   6.201   3.170  0.9798 -0.6752  0.0826
  271MOL0     C36480  -1.156   6.243   3.103  0.1160 -0.0729  0.0847
  271MOL0     O36481  -1.268   6.263   3.176 -0.4590 -0.6634  0.0082
  271MOL0     C36482  -1.397   6.236   3.129 -0.0319  0.5326 -0.2737
  271MOL0     C36483  -1.423   6.166   3.010  0.8490  0.2170 -0.2086
  271MOL0     C36484  -1.560   6.127   2.984 -0.2484 -0.5422 -0.2561
  271MOL0     C36485  -1.666   6.157   3.067 -0.1671  0.7797  0.6066
  271MOL0     O36486  -1.791   6.107   3.035  0.7918  0.4157  0.1003
  271MOL0     C36487  -1.913   6.138   3.101 -0.1881 -1.1900 -0.0933
  271MOL0     C36488  -1.966   6.038   3.210  0.0125  0.0594 -0.5388
  271MOL0     C36489  -1.898   6.058   3.345  0.0316  0.1168 -0.5385
  271MOL0     C36490  -1.999   5.996   3.459 -0.2136  0.3710  0.2156
  271MOL0     C36491  -1.935   6.004   3.596 -1.0929  0.1947 -0.0287
  271MOL0     C36492  -1.832   5.889   3.603 -0.2384 -0.2576 -0.1719
  271MOL0     C36493  -1.740   5.912   3.720  0.2865  0.7045 -0.5274
  271MOL0     C36494  -1.672   5.783   3.764 -0.0158 -0.5707  0.4428
  271MOL0    Cl36495  -1.542   5.743   3.638  0.2410 -0.0501  0.5676
  271MOL0     C36496  -1.633   6.241   3.185  1.2415 -0.1106  0.0251
  271MOL0     C36497  -1.504   6.273   3.213  0.0347 -0.5098  0.0305
  271MOL0     O36498  -1.144   6.266   2.980 -0.3763  0.4916  0.3455
  271MOL0     C36499  -1.041   6.170   3.308  0.0355 -0.2705  0.2495
  271MOL0     C36500  -0.936   6.136   3.387  0.4314  0.6576 -0.3742
  271MOL0     N36501  -0.101   6.388   3.770  0.4675 -0.7090  0.5625
  271MOL0     N36502  -0.050   6.508   3.782 -0.3574  0.6437 -0.0202
  271MOL0     C36503   0.745   7.064   4.236  0.2524  0.5692  0.6069
  271MOL0     C36504   0.854   7.107   4.298  0.5151 -0.8908  0.3134
  271MOL0     C36505   1.303   7.214   4.316  1.1018 -0.1812  0.0509
  271MOL0     C36506   1.353   7.128   4.415 -1.1019  0.2551  0.3759
  271MOL0     C36507   1.477   7.164   4.479 -0.0754  0.1949 -0.5976
  271MOL0     C36508   1.540   7.284   4.445 -0.4075 -0.1370 -0.1305
  271MOL0     O36509   1.653   7.311   4.510  0.0047  0.0008 -0.3007
  271MOL0     C36510   1.739   7.420   4.466 -0.3273  0.5702  0.7651
  271MOL0     C36511   1.859   7.428   4.553 -0.3619 -0.5834 -0.1072
  271MOL0     C36512   1.853   7.529   4.663  0.7842 -0.0499 -0.4791
  271MOL0     C36513   1.951   7.487   4.779  0.0686 -0.1650 -0.4963
  271MOL0     C36514   1.930   7.583   4.884  0.0953  0.8749 -0.4152
  271MOL0     C36515   1.905   7.671   4.960 -0.4711 -0.2060 -0.0716
  271MOL0     C36516   1.492   7.356   4.338  1.1034  0.0693  0.6147
  271MOL0     C36517   1.375   7.326   4.275 -0.0422  0.6076  0.2313
  271MOL0     H36518   1.094   6.911   4.163  0.3245 -0.4812 -0.8911
  271MOL0     H36519   0.871   6.809   4.051 -1.4833  0.9049 -0.2052
  271MOL0     H36520   0.638   6.737   3.988  1.8415 -0.6810  0.9327
  271MOL0     H36521   0.668   6.727   4.148  0.7542  1.2011  0.1011
  271MOL0     H36522   0.447   6.649   4.124  2.5698 -0.2712  0.8445
  271MOL0     H36523   0.421   6.798   4.198  2.1073  0.0151  0.8498
  271MOL0     H36524   0.396   6.907   3.963  0.8069 -0.1839 -0.1956
  271MOL0     H36525   0.385   6.749   3.901  0.4174  0.2801  0.8314
  271MOL0     H36526   0.180   6.699   4.061 -2.2544  0.8773 -0.2125
  271MOL0     H36527   0.166   6.863   4.088  1.0546  0.3497 -0.0690
  271MOL0     H36528   0.161   6.883   3.828  0.7202 -0.4678  0.3267
  271MOL0     H36529   0.150   6.714   3.827  0.8941  1.2359 -1.4506
  271MOL0     H36530  -0.054   6.698   3.954  0.7461 -0.3839 -1.3075
  271MOL0     H36531  -0.056   6.872   3.992  1.4384 -1.0086  0.7074
  271MOL0     H36532  -0.210   6.857   3.826 -0.8930  0.3289 -0.8252
  271MOL0     H36533  -0.062   6.928   3.753 -3.2188  2.5638  1.2510
  271MOL0     H36534  -0.004   6.726   3.644 -0.5448 -2.9504  0.1953
  271MOL0     H36535  -0.168   6.764   3.606 -0.8061 -2.3935 -0.9447
  271MOL0     H36536  -0.367   6.570   3.692 -1.6507 -2.4016  0.6862
  271MOL0     H36537  -0.299   6.193   3.753 -2.8903 -2.1452 -0.1195
  271MOL0     H36538  -0.431   6.305   3.796 -3.7259  0.5691 -4.5469
  271MOL0     H36539  -0.321   6.267   3.513 -0.4761  0.3264 -0.2970
  271MOL0     H36540  -0.444   6.386   3.559  0.1035  0.3925  1.3999
  271MOL0     H36541  -0.580   6.189   3.652 -0.6136  0.9793  0.2276
  271MOL0     H36542  -0.467   6.082   3.563  2.2100  1.3872 -0.9181
  271MOL0     H36543  -0.524   6.217   3.348 -1.2260  1.1357 -0.3700
  271MOL0     H36544  -0.648   6.302   3.441 -1.2970 -0.7757  2.0094
  271MOL0     H36545  -0.683   6.160   3.160  0.2444  2.7086  0.3462
  271MOL0     H36546  -0.890   6.337   2.973 -2.8913 -0.2443  1.9704
  271MOL0     H36547  -0.751   6.233   2.957 -0.6241  0.2128 -1.3459
  271MOL0     H36548  -0.906   6.169   2.909 -0.3782 -3.0847  3.5741
  271MOL0     H36549  -1.328   6.148   2.962  2.2857  1.0092  2.1531
  271MOL0     H36550  -1.566   6.073   2.890  2.9288  0.6338 -1.2706
  271MOL0     H36551  -1.908   6.236   3.149  0.1540 -0.9901 -0.5390
  271MOL0     H36552  -1.987   6.155   3.023 -1.7451  1.8077  1.8187
  271MOL0     H36553  -2.073   6.038   3.233  0.1407  0.4480  0.0648
  271MOL0     H36554  -1.940   5.939   3.172  1.5529  0.0571  0.4410
  271MOL0     H36555  -1.873   6.163   3.357 -0.7519  0.1451  1.0963
  271MOL0     H36556  -1.802   6.006   3.336  0.1777 -0.1103  1.8130
  271MOL0     H36557  -2.089   6.055   3.475  0.2595  1.1892 -0.0712
  271MOL0     H36558  -2.022   5.893   3.433  1.5605  0.3263 -1.4154
  271MOL0     H36559  -2.000   5.993   3.684 -1.3358 -3.4572 -0.5063
  271MOL0     H36560  -1.883   6.099   3.611 -0.1116 -0.2859 -0.3324
  271MOL0     H36561  -1.878   5.792   3.624 -1.5017 -0.1436 -2.0830
  271MOL0     H36562  -1.778   5.875   3.509 -0.0096  0.7056 -0.1960
  271MOL0     H36563  -1.800   5.953   3.801  0.2812  0.3375 -0.3447
  271MOL0     H36564  -1.669   5.987   3.684  1.2662 -0.5164 -1.2262
  271MOL0     H36565  -1.754   5.711   3.774 -1.1032  0.8039  2.0923
  271MOL0     H36566  -1.634   5.817   3.861 -1.0639  2.1067 -0.0068
  271MOL0     H36567  -1.711   6.274   3.253  1.6343 -0.2087  0.5363
  271MOL0     H36568  -1.481   6.346   3.290 -0.2955 -0.3891  0.0163
  271MOL0     H36569  -1.138   6.185   3.354 -0.1547 -1.3811  0.2406
  271MOL0     H36570  -0.944   6.126   3.495  1.5924  0.3261 -0.3050
  271MOL0     H36571   0.647   7.105   4.261  0.6722  2.4567 -0.6213
  271MOL0     H36572   0.849   7.194   4.364 -3.8638  0.7251 -1.7405
  271MOL0     H36573   1.301   7.046   4.463  0.6863 -2.0704 -1.4265
  271MOL0     H36574   1.521   7.111   4.563  3.6927  0.8391 -1.9818
  271MOL0     H36575   1.772   7.409   4.362  1.9081 -0.1501  1.4975
  271MOL0     H36576   1.683   7.514   4.455 -1.7522 -0.3851 -0.6715
  271MOL0     H36577   1.947   7.449   4.491  0.1475 -0.1162  0.7564
  271MOL0     H36578   1.873   7.329   4.598  2.2353 -0.2963 -0.0855
  271MOL0     H36579   1.751   7.530   4.700  1.7750 -2.5717  2.7848
  271MOL0     H36580   1.889   7.625   4.624 -0.0422  0.6650  0.4770
  271MOL0     H36581   2.053   7.485   4.741 -0.3796  0.5688 -1.8217
  271MOL0     H36582   1.915   7.388   4.811  0.0498 -0.2687 -0.8341
  271MOL0     H36583   1.894   7.746   5.036 -0.3748 -1.2408  0.9959
  271MOL0     H36584   1.535   7.447   4.297  1.1611 -0.5613 -0.7989
  271MOL0     H36585   1.333   7.391   4.198 -0.2808  1.0909  0.7653
  272MOL0     O36586   4.178   4.221   1.309 -0.1678  0.1119 -0.9049
  272MOL0     C36587   4.251   4.122   1.335 -0.8173 -0.5617 -0.8051
  272MOL0     O36588   4.200   3.990   1.331 -0.0139 -0.6630 -0.5962
  272MOL0     C36589   4.066   3.980   1.316 -0.0233  0.5315  0.0875
  272MOL0     C36590   4.010   4.010   1.187  0.1547 -0.2571 -0.8572
  272MOL0     C36591   3.877   4.006   1.171  0.4315  0.2490 -0.6778
  272MOL0     C36592   3.790   3.969   1.271  0.3920 -0.5367 -0.3110
  272MOL0     O36593   3.653   3.985   1.249 -0.2442  0.3941  0.7929
  272MOL0     C36594   3.593   3.881   1.172 -0.3195 -0.0004 -1.2713
  272MOL0     C36595   3.451   3.910   1.140  0.4846  0.3399  0.7829
  272MOL0     C36596   3.414   4.042   1.076 -0.1815 -0.1387 -0.7414
  272MOL0     C36597   3.260   4.068   1.063 -0.4760 -0.1845 -0.0254
  272MOL0     C36598   3.241   4.201   0.993  0.5195 -0.2599  0.2238
  272MOL0     C36599   3.090   4.236   1.002 -0.7636 -0.8645  0.6148
  272MOL0     C36600   3.046   4.379   1.016  0.1814 -0.0965  0.2992
  272MOL0     C36601   3.036   4.453   0.885 -0.0238  0.4421 -0.0883
  272MOL0     N36602   2.971   4.586   0.894 -0.6495 -0.5458  0.3115
  272MOL0     C36603   3.024   4.694   0.963 -0.7540 -0.0326  0.2652
  272MOL0     C36604   2.936   4.796   0.949 -0.5754 -0.1715  0.2770
  272MOL0     C36605   2.952   4.933   1.004  0.1010 -0.8882  0.0945
  272MOL0     C36606   2.832   5.022   1.019  0.4536 -0.2178 -0.0739
  272MOL0     C36607   2.753   5.060   0.895  0.1636  0.1363 -0.6492
  272MOL0     C36608   2.633   5.154   0.908  0.3195  0.0384  0.0235
  272MOL0     O36609   2.529   5.087   0.982  0.2412  0.0591 -0.0617
  272MOL0     C36610   2.424   5.151   1.024  0.2677 -0.8856 -0.0085
  272MOL0     C36611   2.357   5.257   0.955 -1.5916  0.0627  0.0284
  272MOL0     C36612   2.237   5.316   0.997 -0.6488  0.2950 -0.1207
  272MOL0     C36613   2.193   5.440   0.929 -0.0861 -0.2722  0.9415
  272MOL0     C36614   2.182   5.268   1.118 -0.9758 -0.2629 -0.0911
  272MOL0     C36615   2.071   5.336   1.201  0.0496  0.2072  0.0644
  272MOL0     O36616   2.021   5.457   1.159 -0.3953 -0.1720  0.0078
  272MOL0     C36617   1.910   5.511   1.219  0.7254 -0.2492  0.2950
  272MOL0     C36618   1.897   5.651   1.241  0.1073  0.8654  0.3137
  272MOL0     C36619   1.794   5.712   1.311 -0.4456 -0.1500  0.0556
  272MOL0     C36620   1.684   5.638   1.351  0.6749 -0.8777  0.2524
  272MOL0     O36621   1.574   5.703   1.414 -0.1391  0.8151  0.5090
  272MOL0     C36622   1.447   5.645   1.397  0.2826  0.4029 -0.8453
  272MOL0     C36623   1.351   5.730   1.486 -0.4220  0.8667  0.1600
  272MOL0     C36624   1.204   5.681   1.486  0.6672 -0.1715  0.6344
  272MOL0     C36625   1.117   5.768   1.572 -0.0288 -0.0181  0.4284
  272MOL0     C36626   0.982   5.696   1.595  0.2728 -1.2310  0.9876
  272MOL0     C36627   0.885   5.793   1.676 -0.8342  0.8690  0.3443
  272MOL0     C36628   0.763   5.717   1.717 -0.2626 -0.2040 -0.8787
  272MOL0     C36629   0.663   5.811   1.768  0.2882 -0.1182 -0.4599
  272MOL0    Cl36630   0.508   5.740   1.814 -0.3921 -0.2604  0.0684
  272MOL0     C36631   1.688   5.501   1.326  0.1056  0.5843 -0.1354
  272MOL0     C36632   1.792   5.438   1.258 -0.2044 -0.0845  0.6799
  272MOL0     O36633   2.039   5.287   1.307  0.4640  0.8419  0.1767
  272MOL0     C36634   2.238   5.151   1.174  0.3061 -0.4188  0.0372
  272MOL0     C36635   2.358   5.106   1.125 -1.0906 -0.4226  0.6193
  272MOL0     N36636   2.830   4.743   0.876 -0.0798 -0.1096 -0.4524
  272MOL0     N36637   2.843   4.619   0.853 -0.2488  0.1681  0.3947
  272MOL0     C36638   3.836   3.928   1.396 -0.8542 -0.1947  0.3838
  272MOL0     C36639   3.976   3.935   1.419 -0.4855  0.6730 -0.2882
  272MOL0     C36640   4.395   4.144   1.372  0.2990 -0.2991 -0.6873
  272MOL0     C36641   4.490   4.041   1.347  0.8488  0.7336  1.1607
  272MOL0     C36642   4.620   4.066   1.376 -0.3983  0.0511  0.4643
  272MOL0     C36643   4.663   4.185   1.421 -0.2380  0.2000 -1.0417
  272MOL0     O36644   4.798   4.185   1.432 -0.5532  0.0799 -0.2467
  272MOL0     C36645   4.872   4.306   1.444 -0.3834 -0.9108 -0.6467
  272MOL0     C36646   5.005   4.280   1.379  1.0736  0.2448  0.5796
  272MOL0     C36647   5.099   4.204   1.476 -0.4317 -0.3558  0.2635
  272MOL0     C36648   5.192   4.113   1.405 -0.3004  0.1101 -0.1631
  272MOL0     C36649   5.130   3.989   1.363 -0.0968 -0.1625 -0.1778
  272MOL0     C36650   5.088   3.877   1.323 -0.4310 -0.8952  0.1682
  272MOL0     C36651   4.571   4.285   1.465  0.1279  0.6008 -0.4428
  272MOL0     C36652   4.438   4.258   1.441  0.1262 -0.5564  0.5042
  272MOL0     H36653   4.081   4.055   1.118 -0.1724  0.8026 -0.5092
  272MOL0     H36654   3.835   4.035   1.075  0.7910 -0.3284 -1.0182
  272MOL0     H36655   3.646   3.865   1.078  1.1537  0.1478 -0.4910
  272MOL0     H36656   3.605   3.789   1.228 -0.8923  0.5332 -0.2399
  272MOL0     H36657   3.397   3.835   1.081  1.6365 -1.4216  1.8814
  272MOL0     H36658   3.399   3.891   1.235  1.2227 -0.8566  0.9595
  272MOL0     H36659   3.457   4.121   1.138  2.6409 -0.6604 -1.8567
  272MOL0     H36660   3.467   4.053   0.980 -1.8705  0.3403 -1.6585
  272MOL0     H36661   3.227   3.984   1.001  1.8735 -0.1266 -1.4671
  272MOL0     H36662   3.207   4.063   1.158  4.1892  2.2062  3.1025
  272MOL0     H36663   3.297   4.276   1.050 -0.3375 -0.3000  1.1519
  272MOL0     H36664   3.283   4.202   0.893  2.1031 -1.0636  0.8539
  272MOL0     H36665   3.040   4.206   0.910  2.5120  1.1049 -2.0418
  272MOL0     H36666   3.039   4.189   1.087 -0.2824 -2.6547 -0.0380
  272MOL0     H36667   2.942   4.392   1.049  0.7172 -0.2716  2.1870
  272MOL0     H36668   3.102   4.441   1.087 -0.9743  1.9692 -0.5331
  272MOL0     H36669   2.979   4.393   0.813  1.1536 -1.2324  0.3133
  272MOL0     H36670   3.138   4.473   0.850  1.4945 -1.3668  2.8613
  272MOL0     H36671   3.127   4.704   0.995 -0.2298 -0.0056 -1.3283
  272MOL0     H36672   2.976   4.904   1.107  2.2494  1.5116  0.3481
  272MOL0     H36673   3.036   4.995   0.972 -2.2370  1.6004 -1.6543
  272MOL0     H36674   2.852   5.109   1.082 -0.8499 -0.8743  1.3059
  272MOL0     H36675   2.759   4.971   1.082 -0.0367 -1.2757 -1.4538
  272MOL0     H36676   2.706   4.967   0.863  0.0150 -0.8421  2.0894
  272MOL0     H36677   2.824   5.100   0.823  1.3516  0.0372  0.4282
  272MOL0     H36678   2.589   5.192   0.815 -1.9167  0.8080  1.3214
  272MOL0     H36679   2.665   5.242   0.964  0.7584 -0.4312  0.5230
  272MOL0     H36680   2.408   5.287   0.864  0.1927 -0.3972  0.8392
  272MOL0     H36681   2.262   5.473   0.851  0.1336  2.5698  2.2142
  272MOL0     H36682   2.090   5.431   0.893  1.0729 -5.3018 -2.0738
  272MOL0     H36683   2.210   5.515   1.008  1.2477 -2.1118  2.5040
  272MOL0     H36684   1.984   5.711   1.215  0.8018  0.7308  2.1519
  272MOL0     H36685   1.790   5.818   1.335 -2.4771 -0.3352  0.6990
  272MOL0     H36686   1.407   5.632   1.296  0.0475  1.3856 -0.8853
  272MOL0     H36687   1.438   5.545   1.442 -0.7093  1.4600  1.4977
  272MOL0     H36688   1.383   5.742   1.589 -0.1440  2.2793 -0.0694
  272MOL0     H36689   1.353   5.827   1.437  0.7442  1.0463  0.5220
  272MOL0     H36690   1.191   5.576   1.514  1.0869 -0.1468  0.9281
  272MOL0     H36691   1.177   5.691   1.380 -0.8602 -4.5389  0.3927
  272MOL0     H36692   1.166   5.776   1.670  0.5840  2.0078 -0.0019
  272MOL0     H36693   1.109   5.871   1.538  3.4994  0.7615  1.5082
  272MOL0     H36694   0.992   5.599   1.644  1.3676 -2.1415 -0.9231
  272MOL0     H36695   0.936   5.681   1.497 -0.0854 -0.4913  1.0386
  272MOL0     H36696   0.950   5.825   1.758  2.3085  0.0022 -1.6389
  272MOL0     H36697   0.858   5.875   1.609 -1.2201 -0.0249 -0.6147
  272MOL0     H36698   0.794   5.655   1.802  0.3320  2.7247  1.1982
  272MOL0     H36699   0.721   5.652   1.640  0.4682 -0.7997 -0.7845
  272MOL0     H36700   0.644   5.889   1.694 -1.2560  2.7936  2.7560
  272MOL0     H36701   0.703   5.859   1.858  2.0505 -1.0249 -0.7169
  272MOL0     H36702   1.607   5.433   1.349  0.0849  1.4553  2.7023
  272MOL0     H36703   1.789   5.329   1.257 -0.3006 -0.0860  0.9498
  272MOL0     H36704   2.203   5.112   1.269 -2.3058  0.8181 -0.3438
  272MOL0     H36705   2.401   5.023   1.181 -0.0814 -0.9964 -0.9670
  272MOL0     H36706   3.774   3.914   1.484  2.9970 -1.0129  3.2402
  272MOL0     H36707   4.012   3.900   1.515 -0.0196  0.4814 -0.5303
  272MOL0     H36708   4.468   3.945   1.302 -2.3825  1.6718  0.4753
  272MOL0     H36709   4.689   3.988   1.344 -4.0182 -2.7803 -1.1925
  272MOL0     H36710   4.820   4.385   1.389  2.2021  1.2864 -0.1505
  272MOL0     H36711   4.900   4.334   1.546  3.3323  0.5697 -1.8844
  272MOL0     H36712   5.053   4.377   1.360 -0.2147  0.7200 -0.4866
  272MOL0     H36713   4.995   4.228   1.283 -0.3145  2.7788 -0.7730
  272MOL0     H36714   5.035   4.149   1.547 -1.4609  1.0482  0.4646
  272MOL0     H36715   5.164   4.272   1.533  1.4102 -1.7888 -0.0557
  272MOL0     H36716   5.286   4.096   1.459  0.1083  0.9380 -0.5817
  272MOL0     H36717   5.228   4.174   1.321 -1.2221  0.2200 -0.4891
  272MOL0     H36718   5.043   3.786   1.292  0.7983 -0.2896 -3.9487
  272MOL0     H36719   4.610   4.378   1.505  2.6980 -0.2074 -0.9008
  272MOL0     H36720   4.361   4.325   1.478 -0.3317 -2.1671  2.6952
  273MOL0     O36721   9.480   8.989   0.192 -0.7649 -0.3557  0.7654
  273MOL0     C36722   9.584   8.974   0.129 -0.8250  0.5620 -0.4671
  273MOL0     O36723   9.602   8.953  -0.005 -0.4807 -0.0663 -0.0240
  273MOL0     C36724   9.508   8.994  -0.097  0.1185  0.1124  0.8628
  273MOL0     C36725   9.370   9.022  -0.074  0.7858  0.5768 -0.2194
  273MOL0     C36726   9.280   9.064  -0.173  0.0808  0.6445 -1.0957
  273MOL0     C36727   9.325   9.082  -0.300  0.3109  0.2587 -0.4824
  273MOL0     O36728   9.251   9.147  -0.397 -0.2827 -0.3092  0.3762
  273MOL0     C36729   9.113   9.138  -0.378  0.2706  0.4176  0.3835
  273MOL0     C36730   9.038   9.189  -0.502 -0.6177  0.4550  0.8591
  273MOL0     C36731   8.889   9.152  -0.506 -0.7368  0.4909 -0.0938
  273MOL0     C36732   8.817   9.239  -0.605  0.1433  0.6337  0.2059
  273MOL0     C36733   8.673   9.206  -0.588 -0.3368  0.1041 -0.4266
  273MOL0     C36734   8.561   9.270  -0.668 -0.4507 -0.0825 -0.2715
  273MOL0     C36735   8.566   9.420  -0.652  0.0264 -0.2304 -0.4527
  273MOL0     C36736   8.473   9.486  -0.747 -0.2454  0.2366  0.7319
  273MOL0     N36737   8.334   9.464  -0.709 -0.1952 -0.4106 -0.3326
  273MOL0     C36738   8.279   9.507  -0.588  0.3623 -0.1136 -1.2967
  273MOL0     C36739   8.166   9.440  -0.574 -0.3832 -0.6932 -0.3907
  273MOL0     C36740   8.080   9.439  -0.448  0.0403 -0.2345  0.1278
  273MOL0     C36741   7.943   9.494  -0.486  0.5654 -0.1581  1.0431
  273MOL0     C36742   7.951   9.645  -0.537 -0.2822 -0.1210 -0.7701
  273MOL0     C36743   7.845   9.668  -0.642 -0.0175  0.2601 -0.4544
  273MOL0     O36744   7.717   9.624  -0.585  0.1781 -0.3699 -0.1970
  273MOL0     C36745   7.610   9.665  -0.658 -0.2749 -0.4662  0.7685
  273MOL0     C36746   7.490   9.645  -0.590 -0.2445  0.1880 -0.1644
  273MOL0     C36747   7.363   9.669  -0.656  0.3908  0.1679  0.0865
  273MOL0     C36748   7.246   9.644  -0.572  0.1586 -0.1494 -0.1298
  273MOL0     C36749   7.358   9.709  -0.791 -0.0793 -0.0467  0.5696
  273MOL0     C36750   7.235   9.750  -0.854 -0.9465  0.5377  0.2552
  273MOL0     O36751   7.237   9.736  -0.986 -0.0990  0.8301  0.1329
  273MOL0     C36752   7.124   9.760  -1.064  0.4416 -0.5357 -0.2622
  273MOL0     C36753   7.142   9.771  -1.205 -0.7450  0.5574  0.0766
  273MOL0     C36754   7.038   9.791  -1.302  0.3879  0.2108 -0.8880
  273MOL0     C36755   6.909   9.821  -1.257 -0.7556  0.1570  0.5571
  273MOL0     O36756   6.816   9.845  -1.354  0.8823  0.2636  0.3124
  273MOL0     C36757   6.679   9.858  -1.305  0.1353  0.3864 -0.4365
  273MOL0     C36758   6.594   9.904  -1.431 -0.2700 -0.3041 -0.5663
  273MOL0     C36759   6.593   9.802  -1.544  0.4530  0.0248 -0.3598
  273MOL0     C36760   6.493   9.833  -1.654 -0.1587 -0.4254  0.1896
  273MOL0     C36761   6.481   9.718  -1.754 -0.1889 -0.0773  0.0595
  273MOL0     C36762   6.387   9.758  -1.863  1.2153  0.1468  0.3439
  273MOL0     C36763   6.353   9.645  -1.960  0.4156 -0.2686  0.8511
  273MOL0     C36764   6.270   9.701  -2.084 -0.2008  0.5349  0.0161
  273MOL0    Cl36765   6.391   9.790  -2.180 -0.1900  0.1980  0.2849
  273MOL0     C36766   6.878   9.803  -1.115  0.2462 -0.8612  0.2991
  273MOL0     C36767   6.984   9.775  -1.022 -1.5186 -0.1366 -0.2971
  273MOL0     O36768   7.139   9.798  -0.789  0.4098  0.1710 -0.2210
  273MOL0     C36769   7.479   9.721  -0.864 -0.1613  0.1252  0.2988
  273MOL0     C36770   7.602   9.683  -0.796 -0.4843 -0.0525  0.2315
  273MOL0     N36771   8.148   9.365  -0.688  0.9393 -0.3617  0.0080
  273MOL0     N36772   8.249   9.382  -0.765  0.5681  0.5202 -0.4953
  273MOL0     C36773   9.460   9.054  -0.330  0.6478 -0.3914 -0.3250
  273MOL0     C36774   9.551   9.018  -0.231 -1.0586  0.3897  0.1345
  273MOL0     C36775   9.709   8.952   0.212 -0.4166  0.9312 -0.3089
  273MOL0     C36776   9.764   8.824   0.221  0.5165  0.0198 -0.0685
  273MOL0     C36777   9.865   8.792   0.313  0.1184 -0.5176  0.7436
  273MOL0     C36778   9.919   8.886   0.396 -0.4261  0.2812  0.3249
  273MOL0     O36779  10.040   8.856   0.451 -0.5401 -0.4089  0.2775
  273MOL0     C36780  10.033   8.796   0.584 -0.2779  0.0736  0.3529
  273MOL0     C36781  10.182   8.750   0.632 -0.7954  0.7262  0.1234
  273MOL0     C36782  10.243   8.647   0.538 -0.5195 -0.2782  0.1514
  273MOL0     C36783  10.165   8.513   0.533 -0.7683 -0.4551 -0.5274
  273MOL0     C36784  10.192   8.447   0.663  0.0817  0.1082  0.1838
  273MOL0     C36785  10.227   8.391   0.760  0.7453  0.4808  0.0197
  273MOL0     C36786   9.867   9.021   0.390  0.0768 -0.1241 -0.3220
  273MOL0     C36787   9.761   9.053   0.302  0.3583  0.0413  0.4147
  273MOL0     H36788   9.331   9.000   0.025  1.9906  0.3484  0.2195
  273MOL0     H36789   9.181   9.087  -0.133  0.0694  0.1490 -0.8336
  273MOL0     H36790   9.079   9.035  -0.370 -3.0844  1.3083 -0.5912
  273MOL0     H36791   9.078   9.190  -0.288  1.8314 -2.9179  3.1088
  273MOL0     H36792   9.045   9.297  -0.513 -3.9762  0.4839 -3.2294
  273MOL0     H36793   9.094   9.158  -0.591  0.7718  1.2847  1.3979
  273MOL0     H36794   8.888   9.048  -0.540 -0.6366  0.6060 -0.4624
  273MOL0     H36795   8.843   9.164  -0.408 -0.2261 -0.8032  0.3249
  273MOL0     H36796   8.830   9.341  -0.567  0.7760  0.4337  0.5564
  273MOL0     H36797   8.856   9.227  -0.707  1.8766 -1.4190  1.0300
  273MOL0     H36798   8.659   9.097  -0.591 -0.8465  0.0952  1.3332
  273MOL0     H36799   8.642   9.230  -0.486  1.4786  1.0790 -0.0845
  273MOL0     H36800   8.576   9.241  -0.773  1.0004  0.9395 -0.3692
  273MOL0     H36801   8.465   9.230  -0.634 -1.0733  1.8643  0.3828
  273MOL0     H36802   8.546   9.449  -0.549  4.2637 -2.3671  1.2587
  273MOL0     H36803   8.668   9.455  -0.670 -0.3245  2.9653  2.8534
  273MOL0     H36804   8.482   9.436  -0.844 -1.2246  1.4185  0.0005
  273MOL0     H36805   8.489   9.593  -0.763  0.3979  0.2095  1.1451
  273MOL0     H36806   8.323   9.583  -0.524 -1.4611  0.2911 -0.4759
  273MOL0     H36807   8.062   9.337  -0.413  1.0949 -0.8844 -1.1262
  273MOL0     H36808   8.137   9.499  -0.376  2.2658 -1.6193 -0.3829
  273MOL0     H36809   7.877   9.501  -0.399 -0.5925  0.1954  0.1693
  273MOL0     H36810   7.890   9.424  -0.551  0.7397 -0.5625  1.3356
  273MOL0     H36811   8.052   9.677  -0.562 -0.9202  2.1006 -0.7815
  273MOL0     H36812   7.921   9.711  -0.455  1.0395 -0.9287  0.3933
  273MOL0     H36813   7.863   9.609  -0.732  0.4330 -0.5384  0.1506
  273MOL0     H36814   7.830   9.774  -0.668  0.3897  0.7966  1.3814
  273MOL0     H36815   7.491   9.599  -0.492 -1.5769 -0.0933 -0.2649
  273MOL0     H36816   7.276   9.585  -0.485 -0.2399 -5.6162 -3.2433
  273MOL0     H36817   7.187   9.733  -0.551  2.2427  1.1501  0.4706
  273MOL0     H36818   7.182   9.572  -0.624 -0.2205 -0.6271  0.9613
  273MOL0     H36819   7.244   9.752  -1.237 -0.6533 -1.1327  1.2583
  273MOL0     H36820   7.042   9.803  -1.410 -3.1318 -3.8183 -1.7161
  273MOL0     H36821   6.639   9.767  -1.258  1.2410  1.1891  2.2993
  273MOL0     H36822   6.672   9.938  -1.230 -2.2266 -1.6021  1.6916
  273MOL0     H36823   6.490   9.924  -1.404 -0.4317 -1.6954 -0.0718
  273MOL0     H36824   6.632  10.004  -1.457 -0.9952 -0.0331 -0.5919
  273MOL0     H36825   6.564   9.708  -1.497  1.4143  0.4811  1.2383
  273MOL0     H36826   6.697   9.798  -1.578  0.5525 -2.5269  0.0681
  273MOL0     H36827   6.398   9.861  -1.608  0.6069 -0.7459  2.0766
  273MOL0     H36828   6.516   9.927  -1.704 -1.4463  0.3858  1.0512
  273MOL0     H36829   6.437   9.628  -1.708  1.2129  0.6556  3.0387
  273MOL0     H36830   6.579   9.684  -1.788  0.2636  2.3550 -1.2468
  273MOL0     H36831   6.293   9.792  -1.818  0.0897 -1.2632 -0.8249
  273MOL0     H36832   6.430   9.841  -1.919  0.6057  1.7187  2.1269
  273MOL0     H36833   6.290   9.573  -1.908 -1.4770  0.6609 -0.0446
  273MOL0     H36834   6.441   9.597  -2.004  0.9387  2.1599 -1.0105
  273MOL0     H36835   6.197   9.772  -2.044 -0.5436  1.1451 -1.6073
  273MOL0     H36836   6.217   9.635  -2.152 -2.4347  0.5601  1.6103
  273MOL0     H36837   6.783   9.821  -1.066  0.8282 -0.1483  1.2061
  273MOL0     H36838   6.951   9.773  -0.918 -0.1723 -1.4549  0.1443
  273MOL0     H36839   7.484   9.732  -0.972  0.8741 -4.8956 -0.4418
  273MOL0     H36840   7.699   9.696  -0.844 -0.8351 -1.2662 -0.8356
  273MOL0     H36841   9.493   9.045  -0.434  4.0512  0.5579  0.5269
  273MOL0     H36842   9.657   9.007  -0.248 -0.9975  1.9801 -0.6415
  273MOL0     H36843   9.735   8.749   0.148 -2.8479  0.8562  0.2430
  273MOL0     H36844   9.902   8.690   0.304  1.0638 -0.2333  1.3112
  273MOL0     H36845   9.986   8.869   0.651 -0.0644 -0.3263  0.9401
  273MOL0     H36846   9.963   8.712   0.588 -1.7766  0.8601 -3.7576
  273MOL0     H36847  10.185   8.699   0.728  2.1195  2.0383  0.8381
  273MOL0     H36848  10.248   8.835   0.653  1.6771 -1.6541  2.7099
  273MOL0     H36849  10.348   8.636   0.568 -0.2514  2.1173  0.3088
  273MOL0     H36850  10.241   8.686   0.436  1.1928 -2.4124 -0.7733
  273MOL0     H36851  10.205   8.453   0.451  0.6525  0.8195 -0.8171
  273MOL0     H36852  10.057   8.520   0.515 -1.9829 -3.5636  3.7809
  273MOL0     H36853  10.279   8.347   0.842  0.0287  0.3552  0.4191
  273MOL0     H36854   9.913   9.090   0.460  1.1294 -2.3512  1.3377
  273MOL0     H36855   9.709   9.148   0.303  0.8392  0.3355  2.2961
  274MOL0     O36856   3.521   6.929   7.905  0.4534  0.0744 -0.3213
  274MOL0     C36857   3.493   6.815   7.870 -0.7098 -0.0707  0.0687
  274MOL0     O36858   3.383   6.743   7.900 -0.1472  0.7107 -0.0801
  274MOL0     C36859   3.269   6.791   7.955  0.4569 -0.0379 -0.5158
  274MOL0     C36860   3.146   6.735   7.907 -0.4911 -0.4579 -0.1005
  274MOL0     C36861   3.026   6.784   7.948  0.1531 -0.8599 -0.3064
  274MOL0     C36862   3.019   6.882   8.045  0.0633  0.0803 -0.3681
  274MOL0     O36863   2.897   6.915   8.076 -0.6453 -0.3421 -0.4867
  274MOL0     C36864   2.870   7.037   8.153  0.4530 -0.0231  0.5370
  274MOL0     C36865   2.755   7.108   8.087  0.2886  0.6162  0.3933
  274MOL0     C36866   2.619   7.036   8.117  0.0217 -0.0714  0.6912
  274MOL0     C36867   2.510   7.099   8.031 -0.3040  0.3167  0.2273
  274MOL0     C36868   2.381   7.029   8.042 -0.2117 -0.4228  0.1018
  274MOL0     C36869   2.322   7.009   8.182 -0.4495 -0.5440 -0.0962
  274MOL0     C36870   2.311   7.136   8.260  0.4684 -0.0037  0.9352
  274MOL0     C36871   2.212   7.240   8.205  0.2665  0.0453  0.1712
  274MOL0     N36872   2.078   7.179   8.215  0.2226 -0.4022 -0.1097
  274MOL0     C36873   2.030   7.097   8.116 -0.1470 -0.0676 -0.8792
  274MOL0     C36874   1.907   7.055   8.156 -0.2826 -0.3603  0.1968
  274MOL0     C36875   1.821   6.956   8.073 -1.0209  0.1925 -0.5150
  274MOL0     C36876   1.751   6.856   8.169  0.5957  0.8053 -1.1153
  274MOL0     C36877   1.723   6.717   8.111  0.5271  0.0313  0.6132
  274MOL0     C36878   1.631   6.720   7.980  0.3631 -1.1016  0.4676
  274MOL0     O36879   1.546   6.605   7.956 -0.1346  0.7486 -0.5672
  274MOL0     C36880   1.439   6.615   7.879  0.9232 -0.0526  0.4258
  274MOL0     C36881   1.408   6.716   7.796  0.3036  0.1507 -0.2430
  274MOL0     C36882   1.293   6.717   7.718  0.7856 -0.2403  0.1405
  274MOL0     C36883   1.276   6.839   7.630 -0.4644  0.7217 -0.1718
  274MOL0     C36884   1.208   6.603   7.717 -0.0714  0.5133  0.6737
  274MOL0     C36885   1.087   6.594   7.642 -0.4791 -0.3726  0.1615
  274MOL0     O36886   1.008   6.493   7.672  0.6450  1.0613 -0.8484
  274MOL0     C36887   0.894   6.469   7.588 -0.0323  0.1806 -0.2172
  274MOL0     C36888   0.801   6.564   7.551 -0.3361  1.4199 -0.2408
  274MOL0     C36889   0.688   6.522   7.481  0.8240 -0.1765 -0.0101
  274MOL0     C36890   0.657   6.385   7.465  0.5730 -0.6933 -0.3457
  274MOL0     O36891   0.537   6.360   7.415  0.3398  0.2639 -0.1726
  274MOL0     C36892   0.514   6.227   7.363  0.4325  0.3255 -0.1499
  274MOL0     C36893   0.371   6.209   7.319 -0.8560  0.1998  0.3140
  274MOL0     C36894   0.279   6.179   7.439  0.4247 -0.2622  0.0205
  274MOL0     C36895   0.140   6.125   7.405  0.0022 -0.4363 -0.5721
  274MOL0     C36896   0.057   6.102   7.530  0.2871 -0.2112  0.0324
  274MOL0     C36897  -0.094   6.082   7.503  0.4616  0.0076 -0.1674
  274MOL0     C36898  -0.180   6.204   7.539 -0.9956  0.7071  0.4108
  274MOL0     C36899  -0.275   6.233   7.428  0.7769  1.0968  0.5479
  274MOL0    Cl36900  -0.407   6.098   7.442 -0.0549 -0.0526  0.1789
  274MOL0     C36901   0.758   6.296   7.488  0.3377 -0.0852 -0.1373
  274MOL0     C36902   0.878   6.336   7.557  1.0081  0.6766 -0.1502
  274MOL0     O36903   1.066   6.677   7.548  0.1543  0.3731 -1.0246
  274MOL0     C36904   1.251   6.484   7.786 -0.0294  0.1623  0.1993
  274MOL0     C36905   1.363   6.501   7.875 -0.6739  0.3683  0.6657
  274MOL0     N36906   1.875   7.121   8.278 -0.4270  0.0250  0.5084
  274MOL0     N36907   1.981   7.185   8.315 -0.7121  0.1688  0.8718
  274MOL0     C36908   3.142   6.931   8.097  0.5039 -0.7381 -0.3573
  274MOL0     C36909   3.267   6.892   8.054  0.0199  0.2232  0.1352
  274MOL0     C36910   3.601   6.750   7.797 -0.2778  0.6228  0.5023
  274MOL0     C36911   3.731   6.790   7.802  0.0527 -0.3938 -0.0451
  274MOL0     C36912   3.837   6.729   7.730  0.5080 -0.0249 -0.0058
  274MOL0     C36913   3.798   6.617   7.650 -0.3545 -1.0968  0.1257
  274MOL0     O36914   3.875   6.558   7.567  0.2764 -0.1951  1.2237
  274MOL0     C36915   3.999   6.618   7.526 -0.6658  0.4510  0.0905
  274MOL0     C36916   4.062   6.532   7.419 -0.5766 -0.2541  0.8605
  274MOL0     C36917   4.193   6.576   7.347  0.2881  0.2543  0.2483
  274MOL0     C36918   4.179   6.687   7.241 -0.2840 -0.8638 -0.8947
  274MOL0     C36919   4.203   6.631   7.107 -0.9397  0.1786  1.0271
  274MOL0     C36920   4.246   6.597   6.999  0.4076  0.1193 -0.9300
  274MOL0     C36921   3.665   6.582   7.638  0.0635 -0.4777 -0.8152
  274MOL0     C36922   3.568   6.646   7.706  0.2494 -0.3017  0.1264
  274MOL0     H36923   3.137   6.657   7.833 -4.0296 -1.6108  1.2985
  274MOL0     H36924   2.937   6.739   7.903  1.9537 -0.5415 -4.7147
  274MOL0     H36925   2.848   7.017   8.259 -0.4150  0.8030  0.5307
  274MOL0     H36926   2.959   7.099   8.142  0.3687 -0.3921 -3.1750
  274MOL0     H36927   2.746   7.215   8.110 -1.5592  0.7472 -0.7142
  274MOL0     H36928   2.763   7.103   7.978  0.1757  4.0840  0.1103
  274MOL0     H36929   2.633   6.928   8.102  1.5715 -0.0142  1.4429
  274MOL0     H36930   2.607   7.045   8.225 -0.6973 -2.1263  0.8377
  274MOL0     H36931   2.494   7.201   8.069 -0.4495  0.0451  0.9084
  274MOL0     H36932   2.547   7.102   7.928  0.3458 -0.6906  0.4151
  274MOL0     H36933   2.308   7.082   7.980  1.2797  1.7751  0.1180
  274MOL0     H36934   2.391   6.932   7.993 -3.1815 -0.1754 -1.1764
  274MOL0     H36935   2.229   6.952   8.173 -1.4287  0.9733  0.0893
  274MOL0     H36936   2.391   6.948   8.241 -0.7277 -0.2091  0.5841
  274MOL0     H36937   2.279   7.118   8.363  0.7561 -2.6763  0.6250
  274MOL0     H36938   2.415   7.169   8.255  0.4864 -0.1704 -2.8046
  274MOL0     H36939   2.224   7.264   8.099 -0.3190  0.4598  0.1948
  274MOL0     H36940   2.212   7.336   8.258 -0.1699  0.5323 -0.6971
  274MOL0     H36941   2.088   7.070   8.028  0.9896 -0.4374 -0.0444
  274MOL0     H36942   1.747   7.009   8.013 -0.8644  1.8878  0.6864
  274MOL0     H36943   1.893   6.898   8.014 -0.6653 -0.0367  0.1297
  274MOL0     H36944   1.664   6.896   8.221  0.3398 -0.8832 -0.1631
  274MOL0     H36945   1.816   6.839   8.255 -1.9612  0.6522  0.9280
  274MOL0     H36946   1.672   6.646   8.176 -2.1013  1.2514  0.0359
  274MOL0     H36947   1.822   6.683   8.082  0.2613  0.7195 -1.2625
  274MOL0     H36948   1.694   6.745   7.894 -3.0873  1.1117 -1.6792
  274MOL0     H36949   1.564   6.805   7.997  1.7238 -0.4802  3.2990
  274MOL0     H36950   1.483   6.794   7.792  0.4503  0.0725  0.7318
  274MOL0     H36951   1.275   6.813   7.524 -1.4626 -0.3975  0.0927
  274MOL0     H36952   1.177   6.877   7.654 -0.0495  0.1697  2.7477
  274MOL0     H36953   1.351   6.915   7.654 -2.5786  3.0703 -0.6160
  274MOL0     H36954   0.812   6.663   7.595  1.8059  1.2390 -0.2633
  274MOL0     H36955   0.608   6.591   7.459  1.5246  1.1093  1.3351
  274MOL0     H36956   0.576   6.206   7.276 -0.7557  1.2412 -1.2498
  274MOL0     H36957   0.527   6.150   7.440 -1.4021 -0.3466 -0.4504
  274MOL0     H36958   0.351   6.300   7.262  3.3477  2.5290  2.1278
  274MOL0     H36959   0.374   6.127   7.247 -1.6255  2.1383 -2.0509
  274MOL0     H36960   0.261   6.267   7.501 -0.9098 -0.4462 -0.0761
  274MOL0     H36961   0.324   6.102   7.502  1.8535 -0.6587 -1.4176
  274MOL0     H36962   0.079   6.198   7.350 -0.4387  0.3546  0.9083
  274MOL0     H36963   0.137   6.032   7.347  0.0883 -1.3167  0.7907
  274MOL0     H36964   0.066   6.186   7.600  0.0561  3.6293 -4.1286
  274MOL0     H36965   0.087   6.009   7.579 -2.1091 -2.4917 -2.4792
  274MOL0     H36966  -0.115   6.052   7.400  0.4982 -1.0123  0.1107
  274MOL0     H36967  -0.127   5.995   7.559  3.8556 -2.6469 -1.9129
  274MOL0     H36968  -0.112   6.290   7.537 -1.1365  0.7981 -0.5933
  274MOL0     H36969  -0.224   6.200   7.639  1.8162 -0.1943  1.7014
  274MOL0     H36970  -0.223   6.229   7.331 -1.2969 -1.3042 -0.5788
  274MOL0     H36971  -0.316   6.333   7.439 -0.3229  0.5848  1.2308
  274MOL0     H36972   0.748   6.191   7.461  1.2539 -0.5796  1.3316
  274MOL0     H36973   0.955   6.262   7.580  2.1831  1.5665 -1.0798
  274MOL0     H36974   1.192   6.393   7.782 -0.9830  0.8209 -1.5867
  274MOL0     H36975   1.390   6.420   7.942  0.4813  1.6107  1.7679
  274MOL0     H36976   3.137   7.003   8.179 -0.1796 -3.2980  2.0239
  274MOL0     H36977   3.360   6.934   8.089 -1.5579  2.6503  1.6163
  274MOL0     H36978   3.747   6.889   7.845  2.2453 -0.1770 -1.1530
  274MOL0     H36979   3.940   6.762   7.732  0.1754  1.0468  0.1947
  274MOL0     H36980   3.994   6.724   7.498 -0.5500  0.6194  0.7032
  274MOL0     H36981   4.061   6.607   7.615 -1.6619 -0.7201  0.6721
  274MOL0     H36982   3.994   6.519   7.334  1.3982  3.6718 -1.6067
  274MOL0     H36983   4.079   6.431   7.458  0.0091 -1.6905 -2.6337
  274MOL0     H36984   4.231   6.485   7.300  2.1847  0.1453  1.8450
  274MOL0     H36985   4.268   6.612   7.418 -0.6542  1.1857  0.7996
  274MOL0     H36986   4.249   6.764   7.276 -0.7634 -1.2163  0.9446
  274MOL0     H36987   4.086   6.744   7.237  1.2916  1.8507 -4.6838
  274MOL0     H36988   4.267   6.556   6.902 -0.5658 -0.1631 -1.0422
  274MOL0     H36989   3.647   6.503   7.566 -1.5195  1.0686 -2.2138
  274MOL0     H36990   3.474   6.596   7.687  0.9494 -0.7111 -2.6045
  275MOL0     O36991   2.150   7.559   7.798 -0.0369  0.0659  0.4106
  275MOL0     C36992   2.251   7.509   7.845  0.6687  0.2280 -0.0629
  275MOL0     O36993   2.258   7.377   7.871  0.1885  0.2655 -0.6014
  275MOL0     C36994   2.170   7.292   7.812 -0.4979 -0.2863 -0.6515
  275MOL0     C36995   2.208   7.183   7.739  0.0952  1.0163 -0.3825
  275MOL0     C36996   2.114   7.082   7.702 -0.4401 -0.8686 -0.4397
  275MOL0     C36997   1.981   7.084   7.731  0.4517  0.2083 -0.6767
  275MOL0     O36998   1.894   6.980   7.696  0.3482  1.0050 -0.7123
  275MOL0     C36999   1.750   7.010   7.691 -0.7637 -0.2134  0.5641
  275MOL0     C37000   1.684   6.901   7.601 -0.3496  0.0649 -0.1310
  275MOL0     C37001   1.742   6.901   7.449  0.6236 -0.2942 -0.2318
  275MOL0     C37002   1.723   7.031   7.384  0.4906 -0.2699  0.5090
  275MOL0     C37003   1.750   7.028   7.235  0.6229  0.4689 -0.2913
  275MOL0     C37004   1.700   7.150   7.158 -0.5513  0.4082 -0.4405
  275MOL0     C37005   1.728   7.143   7.006  0.3604  0.3104 -0.1088
  275MOL0     C37006   1.689   7.266   6.932  0.8218 -1.0446 -1.1644
  275MOL0     N37007   1.546   7.299   6.941 -0.3786  0.2037 -0.5082
  275MOL0     C37008   1.484   7.414   6.993 -1.0226 -0.8311 -0.2691
  275MOL0     C37009   1.356   7.387   6.977 -0.0321  0.3411 -0.4402
  275MOL0     C37010   1.259   7.490   7.015  0.6015  0.1689 -0.9170
  275MOL0     C37011   1.155   7.423   7.113 -0.7987  0.3323  0.5650
  275MOL0     C37012   1.028   7.511   7.126 -0.7557  0.3128  0.2333
  275MOL0     C37013   0.929   7.474   7.242  0.4029 -0.2659 -0.1577
  275MOL0     O37014   0.824   7.573   7.229  0.1108  0.9257  0.5873
  275MOL0     C37015   0.691   7.527   7.250 -0.0161 -0.6695  0.2102
  275MOL0     C37016   0.654   7.498   7.376  0.2912  0.0911  0.1702
  275MOL0     C37017   0.529   7.443   7.410  0.4241 -0.6733 -0.3207
  275MOL0     C37018   0.503   7.391   7.547 -0.2147 -1.1832 -0.3114
  275MOL0     C37019   0.428   7.437   7.310 -1.5152  0.0068  1.2729
  275MOL0     C37020   0.287   7.393   7.327  0.6060 -0.8549  0.5271
  275MOL0     O37021   0.210   7.404   7.218  0.2440 -0.2205 -0.0246
  275MOL0     C37022   0.070   7.379   7.227 -0.2990 -0.1390  0.1477
  275MOL0     C37023   0.016   7.256   7.184  1.0069 -0.3020 -0.0081
  275MOL0     C37024  -0.122   7.240   7.169 -0.3105  0.2702  0.1939
  275MOL0     C37025  -0.213   7.338   7.208 -0.3272  0.3936  0.5349
  275MOL0     O37026  -0.349   7.325   7.200  0.6302 -0.3022 -0.0864
  275MOL0     C37027  -0.416   7.193   7.177  0.2078 -0.4541 -0.2239
  275MOL0     C37028  -0.449   7.134   7.317  0.3418  0.2737  0.1547
  275MOL0     C37029  -0.332   7.071   7.399 -0.7495  1.1965 -0.1316
  275MOL0     C37030  -0.275   6.940   7.327 -0.1459  0.2626 -0.2609
  275MOL0     C37031  -0.165   6.873   7.413  0.1757 -0.6496 -0.3036
  275MOL0     C37032  -0.107   6.742   7.365  0.2007 -0.5999  0.4301
  275MOL0     C37033  -0.022   6.768   7.238  0.5077 -0.8010  0.3756
  275MOL0     C37034   0.121   6.772   7.278  0.0929  0.4289 -0.4069
  275MOL0    Cl37035   0.190   6.613   7.295 -0.1805 -0.0917 -0.1079
  275MOL0     C37036  -0.155   7.464   7.248  0.4081 -0.2501  0.1569
  275MOL0     C37037  -0.018   7.486   7.260 -1.0476 -0.0892  0.1765
  275MOL0     O37038   0.247   7.359   7.438  0.5550 -0.0121  0.0388
  275MOL0     C37039   0.472   7.473   7.177  0.8243 -0.7469 -0.4760
  275MOL0     C37040   0.597   7.519   7.147 -1.1207  0.1057 -0.1557
  275MOL0     N37041   1.341   7.259   6.925  1.1014 -0.1833  0.4900
  275MOL0     N37042   1.454   7.204   6.903  0.5337  0.1257 -0.3178
  275MOL0     C37043   1.954   7.198   7.808  0.2147 -0.0387 -0.0685
  275MOL0     C37044   2.044   7.292   7.856 -0.1530 -0.1077  0.0728
  275MOL0     C37045   2.356   7.599   7.889  0.2160  0.1799  0.0833
  275MOL0     C37046   2.485   7.545   7.906 -0.5175  0.5069 -0.0684
  275MOL0     C37047   2.595   7.635   7.939  0.2886  0.0618  0.2141
  275MOL0     C37048   2.581   7.772   7.952  0.1181 -0.8554 -0.2147
  275MOL0     O37049   2.699   7.844   7.958  0.9196  0.1679  0.2551
  275MOL0     C37050   2.699   7.982   7.998  0.0399  0.0404  0.1163
  275MOL0     C37051   2.650   8.082   7.901 -0.2467 -1.4563  0.3696
  275MOL0     C37052   2.646   8.221   7.981  0.1670  1.1087 -0.0557
  275MOL0     C37053   2.775   8.303   7.960 -0.7014 -0.2670  0.1707
  275MOL0     C37054   2.882   8.264   8.061 -0.1473  0.2911  0.7753
  275MOL0     C37055   2.966   8.231   8.143  0.4165  0.1258  0.7144
  275MOL0     C37056   2.445   7.826   7.937  0.2997  0.2765  0.6057
  275MOL0     C37057   2.341   7.744   7.908  0.3739  0.3479  0.0069
  275MOL0     H37058   2.315   7.181   7.719  0.2182 -0.4031  0.2753
  275MOL0     H37059   2.156   7.000   7.644 -1.2186  0.6107 -3.3021
  275MOL0     H37060   1.720   7.004   7.796 -1.1551  2.5393  0.6648
  275MOL0     H37061   1.732   7.115   7.667 -1.2008 -0.3188  0.4239
  275MOL0     H37062   1.698   6.802   7.644 -1.6767  0.1586  0.5547
  275MOL0     H37063   1.576   6.918   7.600 -0.4569 -0.2534  2.2428
  275MOL0     H37064   1.850   6.895   7.437  0.6951  1.9826 -1.4306
  275MOL0     H37065   1.701   6.816   7.394 -0.1704 -1.4555  2.0603
  275MOL0     H37066   1.617   7.055   7.396  0.8703  0.1265  4.5917
  275MOL0     H37067   1.786   7.103   7.436  1.2752  0.4871 -1.3955
  275MOL0     H37068   1.856   7.013   7.214  0.8713  0.5017  0.8849
  275MOL0     H37069   1.696   6.943   7.192 -1.3340  0.7834  1.3809
  275MOL0     H37070   1.591   7.163   7.166 -1.2807 -3.1661 -2.2812
  275MOL0     H37071   1.750   7.239   7.196  0.4562 -0.6184  0.7337
  275MOL0     H37072   1.830   7.115   6.979  0.5101 -0.3211  1.0711
  275MOL0     H37073   1.666   7.061   6.968  1.2850 -0.9722  1.0753
  275MOL0     H37074   1.719   7.260   6.827 -0.3098  0.7290 -1.6304
  275MOL0     H37075   1.742   7.342   6.989 -1.2047 -0.9232  0.7086
  275MOL0     H37076   1.532   7.495   7.048  0.8402 -1.6237 -0.6501
  275MOL0     H37077   1.285   7.580   7.071  1.3398 -1.0269  0.7716
  275MOL0     H37078   1.214   7.505   6.916  0.2745  0.1307 -0.7773
  275MOL0     H37079   1.210   7.425   7.208 -1.6910  0.1285  1.0991
  275MOL0     H37080   1.132   7.321   7.081 -0.8822  0.9250 -1.3858
  275MOL0     H37081   0.977   7.502   7.030 -1.4971 -2.5804  0.8009
  275MOL0     H37082   1.063   7.612   7.147  2.9222 -0.9336  0.8309
  275MOL0     H37083   0.984   7.492   7.335  1.3732 -0.7384 -0.6275
  275MOL0     H37084   0.893   7.371   7.229  2.2399 -0.9667  0.0766
  275MOL0     H37085   0.726   7.502   7.457  1.6644  2.5493 -1.0776
  275MOL0     H37086   0.454   7.294   7.542  1.3309 -2.0563  0.8967
  275MOL0     H37087   0.597   7.388   7.602 -1.1606  1.2585  1.6524
  275MOL0     H37088   0.445   7.462   7.607  0.8040 -0.1680 -0.4971
  275MOL0     H37089   0.085   7.179   7.151 -0.8113 -2.5610  1.1363
  275MOL0     H37090  -0.156   7.142   7.138  0.9414 -0.9138  2.3483
  275MOL0     H37091  -0.508   7.221   7.125  1.2751 -2.6822 -3.6655
  275MOL0     H37092  -0.355   7.132   7.110 -0.6009 -1.5718  0.0413
  275MOL0     H37093  -0.490   7.210   7.384 -2.5014 -1.0180  0.0197
  275MOL0     H37094  -0.534   7.064   7.312 -0.6945  1.5402 -4.8994
  275MOL0     H37095  -0.370   7.040   7.497  1.2206  0.2547  0.3936
  275MOL0     H37096  -0.249   7.141   7.408 -0.9226  1.5043 -0.8269
  275MOL0     H37097  -0.347   6.861   7.304 -0.9235  1.2330 -1.2395
  275MOL0     H37098  -0.225   6.972   7.235  0.3977  1.9740  0.5831
  275MOL0     H37099  -0.202   6.867   7.515  5.6141 -2.9517  1.9254
  275MOL0     H37100  -0.077   6.937   7.418 -0.4714  0.1874  0.5655
  275MOL0     H37101  -0.053   6.693   7.447  2.3024  0.5486 -0.2115
  275MOL0     H37102  -0.198   6.684   7.348  0.4835 -1.2296  0.9667
  275MOL0     H37103  -0.047   6.863   7.190  1.0275 -0.1657  1.3116
  275MOL0     H37104  -0.046   6.683   7.173  0.7279 -1.7493  1.4998
  275MOL0     H37105   0.143   6.818   7.375  6.5456 -2.2527 -0.0812
  275MOL0     H37106   0.184   6.817   7.201  1.9147  1.2840  1.4761
  275MOL0     H37107  -0.236   7.534   7.268  1.4973  0.8164  0.9217
  275MOL0     H37108   0.039   7.574   7.289  1.3926 -1.8960  1.2155
  275MOL0     H37109   0.403   7.466   7.094  2.5998  0.2709 -2.1243
  275MOL0     H37110   0.630   7.552   7.049  1.2386  1.4039  0.9847
  275MOL0     H37111   1.851   7.199   7.843  0.7028 -2.5467  1.7767
  275MOL0     H37112   1.994   7.366   7.917  0.4378  1.3973 -1.2000
  275MOL0     H37113   2.508   7.441   7.883 -0.0805  0.6992 -0.5386
  275MOL0     H37114   2.695   7.595   7.952  0.1265 -1.4248 -2.4116
  275MOL0     H37115   2.628   7.996   8.080 -1.6191  0.6744 -1.3936
  275MOL0     H37116   2.801   8.008   8.029  1.3953  0.7129 -4.1935
  275MOL0     H37117   2.567   8.046   7.840  0.6322 -3.4723  0.3148
  275MOL0     H37118   2.740   8.083   7.840  0.6238  1.2692  1.5134
  275MOL0     H37119   2.626   8.206   8.087  0.8027 -2.7725 -0.3249
  275MOL0     H37120   2.567   8.287   7.943 -0.7159  0.2053  0.1711
  275MOL0     H37121   2.748   8.407   7.983  2.9754  0.4935  1.7495
  275MOL0     H37122   2.807   8.290   7.856  0.3230 -0.1536  0.4550
  275MOL0     H37123   3.036   8.203   8.220  1.0811 -0.3861 -0.0614
  275MOL0     H37124   2.413   7.929   7.934  1.5956  0.8046 -4.7484
  275MOL0     H37125   2.244   7.787   7.883 -0.1932  0.2231  1.8034
  276MOL0     O37126   9.805   9.356   1.313 -0.8001  0.4202  0.5234
  276MOL0     C37127   9.838   9.238   1.291  0.1385 -0.0357  0.3102
  276MOL0     O37128   9.751   9.135   1.291  0.1248  0.0463  0.2613
  276MOL0     C37129   9.608   9.149   1.302 -0.7819 -0.3334 -0.0891
  276MOL0     C37130   9.541   9.047   1.361  1.2727  0.6388 -0.2064
  276MOL0     C37131   9.402   9.039   1.349  1.1252 -0.6795 -0.5095
  276MOL0     C37132   9.329   9.144   1.296  0.0089 -0.2776  0.3055
  276MOL0     O37133   9.198   9.124   1.290 -0.2970 -0.4404  0.0434
  276MOL0     C37134   9.123   9.216   1.220 -0.4756  0.1134 -0.7010
  276MOL0     C37135   8.975   9.176   1.223  0.0807  0.4295 -0.8547
  276MOL0     C37136   8.901   9.237   1.348  0.2981  0.2994  0.5288
  276MOL0     C37137   8.752   9.202   1.328 -1.2387 -0.0617 -0.6967
  276MOL0     C37138   8.666   9.268   1.442 -0.6023 -0.2175  0.6790
  276MOL0     C37139   8.526   9.215   1.454 -0.6360 -0.7519 -0.7571
  276MOL0     C37140   8.435   9.275   1.565  0.2577 -0.2096  0.1740
  276MOL0     C37141   8.298   9.220   1.566 -0.1420 -0.4436 -0.2182
  276MOL0     N37142   8.207   9.307   1.649  0.1227 -0.3546 -0.1406
  276MOL0     C37143   8.224   9.322   1.784  0.4365 -0.6164  0.4962
  276MOL0     C37144   8.138   9.424   1.827 -0.8927 -0.4884  0.0074
  276MOL0     C37145   8.113   9.459   1.974  0.2678  0.1134  0.0777
  276MOL0     C37146   7.974   9.522   2.017 -0.1326 -0.1429 -1.1305
  276MOL0     C37147   7.911   9.436   2.128  0.1163 -1.1063 -0.5838
  276MOL0     C37148   7.772   9.481   2.156 -0.1110 -0.0346  0.2503
  276MOL0     O37149   7.778   9.610   2.213 -0.4292  0.9050 -0.0501
  276MOL0     C37150   7.656   9.664   2.239  0.8051  0.2439  0.1655
  276MOL0     C37151   7.533   9.607   2.218 -0.3494  0.2271  0.4882
  276MOL0     C37152   7.418   9.684   2.238 -1.1726 -0.2156  0.3003
  276MOL0     C37153   7.284   9.610   2.206 -0.6531  0.1569 -0.4788
  276MOL0     C37154   7.422   9.806   2.308  0.6058  0.4801 -0.4202
  276MOL0     C37155   7.304   9.864   2.378 -0.2174  0.3556 -0.5332
  276MOL0     O37156   7.177   9.812   2.363  0.5947 -0.5639 -0.1272
  276MOL0     C37157   7.080   9.857   2.451  0.3701 -0.0320 -0.3018
  276MOL0     C37158   6.959   9.906   2.396 -0.6708 -0.6702 -0.0983
  276MOL0     C37159   6.853   9.931   2.479  0.9918  0.7741  0.1870
  276MOL0     C37160   6.862   9.925   2.623  0.7510  0.2577 -0.2131
  276MOL0     O37161   6.749   9.950   2.697  0.6568  0.3079  0.5002
  276MOL0     C37162   6.772   9.955   2.843  0.1657 -0.0078  1.2664
  276MOL0     C37163   6.645   9.986   2.922 -0.1885 -0.6496  1.5807
  276MOL0     C37164   6.531   9.894   2.885 -0.5377  0.1711 -0.0653
  276MOL0     C37165   6.395   9.942   2.941 -0.2458 -0.4265 -0.0308
  276MOL0     C37166   6.276   9.861   2.893  0.4831  0.4984 -0.6826
  276MOL0     C37167   6.151   9.896   2.981  0.3654 -0.4351  0.0598
  276MOL0     C37168   6.016   9.849   2.937  0.3574 -0.0414  1.4447
  276MOL0     C37169   5.913   9.899   3.035  0.1604 -0.4425 -0.4700
  276MOL0    Cl37170   5.752   9.828   3.015 -0.2166 -0.3468 -0.1822
  276MOL0     C37171   6.992   9.885   2.674  0.5374  0.3754 -0.0531
  276MOL0     C37172   7.098   9.845   2.589 -0.6332  0.3443 -0.1185
  276MOL0     O37173   7.334   9.958   2.457 -0.7533  0.1933  0.1637
  276MOL0     C37174   7.544   9.865   2.327  0.4359  0.5766 -0.1469
  276MOL0     C37175   7.661   9.795   2.299  0.6079  0.1361  0.5597
  276MOL0     N37176   8.088   9.480   1.718  0.3970  0.1569 -0.6118
  276MOL0     N37177   8.124   9.410   1.610 -0.0711 -0.5096 -0.1326
  276MOL0     C37178   9.400   9.245   1.238  0.0074  0.7603  0.2908
  276MOL0     C37179   9.539   9.251   1.245  0.8447  0.6127 -0.9197
  276MOL0     C37180   9.979   9.198   1.279  0.0410 -0.3512 -0.2255
  276MOL0     C37181  10.073   9.294   1.245 -1.0988  0.0580 -0.2117
  276MOL0     C37182  10.198   9.257   1.209 -0.0650 -0.1381  0.7275
  276MOL0     C37183  10.241   9.123   1.212  0.2552 -0.5164 -0.7551
  276MOL0     O37184  10.375   9.083   1.188  0.1089 -0.3676  0.2500
  276MOL0     C37185  10.473   9.170   1.130 -0.2000 -0.1192  0.2066
  276MOL0     C37186  10.598   9.085   1.117  0.0208 -0.1335 -0.4208
  276MOL0     C37187  10.579   8.966   1.023  1.8379 -0.3549 -0.6861
  276MOL0     C37188  10.694   8.864   1.025 -0.3754  0.1532  0.9322
  276MOL0     C37189  10.810   8.922   0.966  0.8872  0.7002 -0.5784
  276MOL0     C37190  10.902   8.970   0.906 -0.0681  0.1493  0.4519
  276MOL0     C37191  10.150   9.030   1.248 -0.6125 -0.6433  0.1899
  276MOL0     C37192  10.019   9.068   1.284 -0.4675  0.3305 -1.0131
  276MOL0     H37193   9.591   8.962   1.406  0.3054  0.1849  0.0189
  276MOL0     H37194   9.349   8.953   1.391  0.7973 -0.3598 -0.2654
  276MOL0     H37195   9.143   9.313   1.266  1.8945 -0.3303 -0.6661
  276MOL0     H37196   9.153   9.212   1.114 -1.5277 -2.6860 -0.9881
  276MOL0     H37197   8.927   9.204   1.129  0.5078  2.7052 -0.4598
  276MOL0     H37198   8.973   9.067   1.227 -0.8802  0.4373 -0.8589
  276MOL0     H37199   8.930   9.187   1.441 -1.9227 -1.4616  0.3604
  276MOL0     H37200   8.918   9.345   1.344  0.4472  0.4674  3.6485
  276MOL0     H37201   8.721   9.247   1.234  1.0834  2.8982 -0.2334
  276MOL0     H37202   8.747   9.093   1.335  1.4879 -0.3476 -1.8118
  276MOL0     H37203   8.720   9.253   1.535 -0.8988  4.8002  1.9687
  276MOL0     H37204   8.652   9.377   1.433 -1.6040 -0.2775  1.2923
  276MOL0     H37205   8.470   9.223   1.360  0.8288  2.4933 -1.5235
  276MOL0     H37206   8.539   9.107   1.467 -0.6082 -0.7799 -1.0172
  276MOL0     H37207   8.485   9.260   1.661 -0.3658 -2.2203  0.2327
  276MOL0     H37208   8.412   9.380   1.546  0.3052 -0.3257 -0.5522
  276MOL0     H37209   8.303   9.123   1.618  0.7932 -0.5974 -0.5749
  276MOL0     H37210   8.282   9.199   1.460  5.9435 -1.7260 -1.2711
  276MOL0     H37211   8.274   9.252   1.851  0.4607 -1.3457 -0.2684
  276MOL0     H37212   8.127   9.363   2.024  1.6210  0.7624  0.9973
  276MOL0     H37213   8.185   9.533   2.010 -1.5842  1.7797  0.5133
  276MOL0     H37214   7.905   9.531   1.933 -1.0953  0.0426 -0.3401
  276MOL0     H37215   7.993   9.623   2.055  1.7553 -0.6348 -0.6630
  276MOL0     H37216   7.968   9.451   2.220 -0.7448 -1.6553  0.0580
  276MOL0     H37217   7.902   9.330   2.103  0.9805 -1.2776 -0.1936
  276MOL0     H37218   7.710   9.424   2.225 -1.0148  0.2537 -0.2994
  276MOL0     H37219   7.709   9.490   2.067  0.0868  0.8724  0.1924
  276MOL0     H37220   7.517   9.505   2.185  2.0582  0.2090 -0.9264
  276MOL0     H37221   7.229   9.679   2.141 -0.0259  0.3847 -0.7714
  276MOL0     H37222   7.311   9.516   2.157 -1.1891 -2.0025  3.0467
  276MOL0     H37223   7.228   9.586   2.297  0.0489 -0.0589 -0.1052
  276MOL0     H37224   6.947   9.918   2.289  1.1351 -3.8747 -0.8099
  276MOL0     H37225   6.756   9.963   2.441  0.2758 -0.5441  0.8184
  276MOL0     H37226   6.813   9.858   2.874 -2.0372 -1.1946  0.6511
  276MOL0     H37227   6.856  10.021   2.866 -0.0188  0.1947  1.3629
  276MOL0     H37228   6.670   9.969   3.027 -2.8479 -1.2003  2.2035
  276MOL0     H37229   6.618  10.091   2.907  2.0084  0.1744  2.9688
  276MOL0     H37230   6.557   9.797   2.930 -1.9293 -1.0954 -1.8300
  276MOL0     H37231   6.523   9.881   2.776 -4.7044  1.5419 -0.0838
  276MOL0     H37232   6.400   9.939   3.050  1.3966  1.9127  0.0221
  276MOL0     H37233   6.385  10.045   2.907 -0.6954  0.1962  1.9103
  276MOL0     H37234   6.301   9.756   2.909 -0.2486  0.6335  1.7104
  276MOL0     H37235   6.265   9.886   2.787  5.7726 -3.4475 -2.5952
  276MOL0     H37236   6.163   9.864   3.085  0.5094 -2.9444 -0.6770
  276MOL0     H37237   6.147  10.006   2.982  1.5963 -0.3755  0.6420
  276MOL0     H37238   6.008   9.741   2.922 -2.3335  0.4053 -1.3600
  276MOL0     H37239   6.002   9.890   2.837  1.6568 -1.5150  0.6268
  276MOL0     H37240   5.904  10.007   3.029  1.1997 -0.0067  3.2155
  276MOL0     H37241   5.945   9.880   3.138 -0.5202 -2.6969 -0.6058
  276MOL0     H37242   7.000   9.888   2.782 -0.6122 -0.4854  0.0817
  276MOL0     H37243   7.197   9.808   2.616  0.3803  1.4220 -2.0892
  276MOL0     H37244   7.561   9.961   2.375  0.7663  0.5829 -0.2776
  276MOL0     H37245   7.752   9.843   2.334 -1.0123  2.5560  1.7606
  276MOL0     H37246   9.347   9.327   1.191 -2.4391 -0.3206  0.9857
  276MOL0     H37247   9.589   9.335   1.198 -1.2306  3.0388  0.9023
  276MOL0     H37248  10.048   9.399   1.247 -2.9539 -0.3506 -0.2856
  276MOL0     H37249  10.267   9.334   1.177  0.9592 -1.4310 -0.2762
  276MOL0     H37250  10.453   9.208   1.029  0.3082  1.9263  0.8379
  276MOL0     H37251  10.478   9.254   1.200 -2.8068  0.0849  0.2387
  276MOL0     H37252  10.636   9.059   1.216 -1.3619  2.7487  0.9918
  276MOL0     H37253  10.677   9.151   1.079  0.2654  1.5697  2.6838
  276MOL0     H37254  10.555   9.010   0.926  0.5060  2.5326  0.8103
  276MOL0     H37255  10.489   8.914   1.056  1.4193  0.8663  0.1681
  276MOL0     H37256  10.664   8.775   0.969 -0.6022  0.1407  1.0720
  276MOL0     H37257  10.702   8.844   1.132 -4.2347  1.8513  1.7290
  276MOL0     H37258  10.987   9.017   0.861 -0.2898  0.1755  0.0560
  276MOL0     H37259  10.180   8.926   1.243 -0.4146 -0.5556 -0.4897
  276MOL0     H37260   9.948   8.994   1.320 -1.2230  1.7800  0.6287
  277MOL0     O37261   1.448   2.119   9.691 -0.7729 -0.5160 -0.2530
  277MOL0     C37262   1.409   2.235   9.662 -0.6047 -0.3772 -0.6743
  277MOL0     O37263   1.488   2.342   9.677  0.0225  0.7684 -0.1450
  277MOL0     C37264   1.620   2.320   9.702  0.3439  0.3259  0.8349
  277MOL0     C37265   1.683   2.405   9.798  0.4090  0.3395  0.4764
  277MOL0     C37266   1.815   2.389   9.846 -0.1303  0.5540  1.0259
  277MOL0     C37267   1.891   2.286   9.788 -1.3261 -0.3597  0.5795
  277MOL0     O37268   2.028   2.272   9.824  0.0918 -0.2689 -0.0725
  277MOL0     C37269   2.101   2.387   9.879  0.1225 -0.0471  0.5417
  277MOL0     C37270   2.242   2.341   9.925 -0.4708  0.2462  0.3641
  277MOL0     C37271   2.336   2.263   9.825 -0.5081  0.0186  0.0613
  277MOL0     C37272   2.358   2.338   9.698  0.3943  0.7682  0.4345
  277MOL0     C37273   2.468   2.264   9.617 -0.3623 -0.1243 -0.2352
  277MOL0     C37274   2.540   2.355   9.507 -0.2602  0.5364 -0.6153
  277MOL0     C37275   2.451   2.366   9.385 -0.0134  0.2073  0.2751
  277MOL0     C37276   2.470   2.504   9.309 -0.3329  0.5273 -0.3241
  277MOL0     N37277   2.359   2.594   9.345 -0.1393 -0.3168  0.2071
  277MOL0     C37278   2.354   2.678   9.452 -0.1944 -1.0123 -0.1709
  277MOL0     C37279   2.221   2.723   9.450  1.1267  0.4460 -0.2183
  277MOL0     C37280   2.178   2.852   9.521 -0.6680 -0.0402  0.0372
  277MOL0     C37281   2.036   2.881   9.530  0.0230  0.7485 -0.0431
  277MOL0     C37282   2.000   3.004   9.607  0.5222  0.4711 -0.0586
  277MOL0     C37283   1.849   3.023   9.615  0.4198  0.0645 -0.2845
  277MOL0     O37284   1.800   2.933   9.701  0.2424  0.5508  0.0543
  277MOL0     C37285   1.658   2.914   9.715  0.3626 -0.2052  0.2793
  277MOL0     C37286   1.567   3.010   9.704  0.3655 -0.4489 -0.2883
  277MOL0     C37287   1.432   2.980   9.712 -0.0734 -0.1955  0.2685
  277MOL0     C37288   1.332   3.088   9.669 -0.1862 -0.3318 -0.4227
  277MOL0     C37289   1.396   2.851   9.744  0.4233 -0.3047  0.4246
  277MOL0     C37290   1.257   2.810   9.752  0.5098 -0.6577 -0.2780
  277MOL0     O37291   1.165   2.896   9.796 -0.2662  0.0679  0.2665
  277MOL0     C37292   1.035   2.867   9.776  1.0802  1.1189  0.3996
  277MOL0     C37293   0.973   2.888   9.654  0.1867 -0.1600  0.2985
  277MOL0     C37294   0.837   2.846   9.624 -0.0922  0.2511 -0.0941
  277MOL0     C37295   0.761   2.790   9.728  0.2835  0.3736  0.1705
  277MOL0     O37296   0.629   2.748   9.705 -0.2530  0.7597  0.4146
  277MOL0     C37297   0.542   2.728   9.820  0.4417 -0.3812 -0.6382
  277MOL0     C37298   0.395   2.728   9.779  0.0154 -0.5488  0.1955
  277MOL0     C37299   0.299   2.727   9.904 -1.0082  0.5257 -1.0102
  277MOL0     C37300   0.159   2.681   9.869  0.6054  0.4890  0.2869
  277MOL0     C37301   0.152   2.531   9.834 -0.1975  1.1955 -0.0830
  277MOL0     C37302   0.005   2.480   9.841 -0.1000 -0.0265 -0.2309
  277MOL0     C37303  -0.099   2.562   9.760  0.6156  0.0273  0.7360
  277MOL0     C37304  -0.232   2.479   9.738 -0.4896 -0.2002 -0.9381
  277MOL0    Cl37305  -0.306   2.453   9.892 -0.2262  0.2325 -0.0029
  277MOL0     C37306   0.820   2.782   9.856 -0.3967 -0.2956 -0.4240
  277MOL0     C37307   0.952   2.823   9.882  0.4836  0.0270  0.1464
  277MOL0     O37308   1.229   2.700   9.722 -0.1801  0.7096  0.5076
  277MOL0     C37309   1.492   2.747   9.755 -0.5063 -0.1174  0.4114
  277MOL0     C37310   1.627   2.777   9.740 -0.3984 -0.8591 -0.0486
  277MOL0     N37311   2.158   2.665   9.341  0.4443  0.6475 -0.8674
  277MOL0     N37312   2.239   2.586   9.283 -0.1192 -0.4646  0.2551
  277MOL0     C37313   1.843   2.206   9.685 -0.1303 -0.2023 -0.5855
  277MOL0     C37314   1.711   2.223   9.643 -0.0517  0.0748 -0.1947
  277MOL0     C37315   1.266   2.258   9.625 -0.3704  0.7945  0.2292
  277MOL0     C37316   1.211   2.385   9.641 -0.7564 -0.0894  1.2285
  277MOL0     C37317   1.079   2.416   9.618 -0.0463  0.3533 -0.3239
  277MOL0     C37318   0.987   2.316   9.581 -0.7813 -0.4799  0.4160
  277MOL0     O37319   0.861   2.327   9.537  0.1197 -0.3251 -0.0012
  277MOL0     C37320   0.790   2.454   9.567  0.4616  0.0481 -1.1085
  277MOL0     C37321   0.640   2.428   9.603 -0.5405 -0.3191  0.0011
  277MOL0     C37322   0.577   2.351   9.485 -0.6164  0.4964 -0.2464
  277MOL0     C37323   0.422   2.348   9.469  0.4239  0.4754 -0.8995
  277MOL0     C37324   0.357   2.290   9.590 -0.3999  0.0348 -0.6576
  277MOL0     C37325   0.304   2.247   9.701  0.4423 -1.1042 -0.0363
  277MOL0     C37326   1.034   2.178   9.590 -0.3075 -0.2859  0.5452
  277MOL0     C37327   1.170   2.148   9.611 -0.0211  0.3081  0.5563
  277MOL0     H37328   1.627   2.490   9.833  1.1910  0.8720  0.4650
  277MOL0     H37329   1.867   2.452   9.918  0.5503  0.3798  0.7009
  277MOL0     H37330   2.111   2.473   9.813  2.7520 -0.4191  0.3815
  277MOL0     H37331   2.050   2.420   9.970  2.0978 -0.0579  1.7123
  277MOL0     H37332   2.292   2.430   9.964 -0.2997 -0.4540  1.7991
  277MOL0     H37333   2.230   2.272  10.009  1.2654  1.4172  1.6390
  277MOL0     H37334   2.433   2.239   9.869 -0.1295 -0.6317 -1.0888
  277MOL0     H37335   2.295   2.163   9.806  1.6963 -0.9458  0.1177
  277MOL0     H37336   2.268   2.332   9.635  2.1769 -0.5536 -2.1494
  277MOL0     H37337   2.382   2.442   9.722 -0.9732  0.3674  4.0950
  277MOL0     H37338   2.548   2.241   9.688  1.5899 -2.3917 -2.9246
  277MOL0     H37339   2.425   2.175   9.568 -0.5182 -1.9061  2.8806
  277MOL0     H37340   2.560   2.457   9.540 -0.8876 -0.1423  2.0949
  277MOL0     H37341   2.629   2.296   9.483 -0.0551 -0.7349  2.7992
  277MOL0     H37342   2.478   2.298   9.303 -0.0021  0.4590  0.0707
  277MOL0     H37343   2.348   2.344   9.412 -0.5462 -1.8717 -2.9311
  277MOL0     H37344   2.464   2.476   9.203 -2.9374 -2.8010  0.5303
  277MOL0     H37345   2.567   2.551   9.327  0.1823 -0.1111 -1.3108
  277MOL0     H37346   2.432   2.708   9.522  0.9920  0.9178 -2.1901
  277MOL0     H37347   2.221   2.857   9.622  0.3975  2.7183 -0.4817
  277MOL0     H37348   2.232   2.924   9.460  1.8248 -1.0109  0.9848
  277MOL0     H37349   1.982   2.799   9.577  0.6003 -0.9147 -2.1195
  277MOL0     H37350   1.990   2.897   9.432 -0.4659  3.3616  0.5348
  277MOL0     H37351   2.030   3.094   9.554 -2.3562  2.6742  1.7425
  277MOL0     H37352   2.034   3.008   9.711  0.0271 -0.4512  0.1513
  277MOL0     H37353   1.795   3.017   9.521 -1.2630 -0.4445  0.6685
  277MOL0     H37354   1.819   3.122   9.651  0.4780  0.0682 -0.2456
  277MOL0     H37355   1.601   3.112   9.689 -3.7154  0.9353 -1.5559
  277MOL0     H37356   1.387   3.180   9.645 -0.7832 -0.3094 -1.8342
  277MOL0     H37357   1.267   3.056   9.586 -1.2152 -0.8236  0.5460
  277MOL0     H37358   1.270   3.110   9.757 -0.1603  1.8220 -0.8843
  277MOL0     H37359   1.035   2.929   9.576 -0.1887  1.1602  0.6593
  277MOL0     H37360   0.801   2.850   9.522  3.8127  1.1193 -1.5936
  277MOL0     H37361   0.565   2.630   9.862 -1.6039  0.0575  1.7296
  277MOL0     H37362   0.560   2.807   9.894  1.2612 -1.8230  0.7818
  277MOL0     H37363   0.370   2.814   9.717  0.0391 -1.7241 -1.5089
  277MOL0     H37364   0.377   2.640   9.717  0.6886 -0.5522 -0.0071
  277MOL0     H37365   0.293   2.826   9.950 -1.1416 -0.0435  0.2496
  277MOL0     H37366   0.340   2.668   9.987 -1.0318 -2.2783 -2.8545
  277MOL0     H37367   0.093   2.695   9.955 -1.3205  2.5670 -1.4016
  277MOL0     H37368   0.111   2.730   9.785 -0.8726 -1.2042  0.0956
  277MOL0     H37369   0.194   2.478   9.921  1.8373  2.2500 -0.3601
  277MOL0     H37370   0.206   2.501   9.743  0.2595 -0.2766  0.6362
  277MOL0     H37371   0.002   2.380   9.797 -3.4376  1.0065 -2.8362
  277MOL0     H37372  -0.035   2.475   9.943 -0.9843 -0.2522 -0.5776
  277MOL0     H37373  -0.061   2.586   9.660  3.0327  2.2589  2.0675
  277MOL0     H37374  -0.128   2.657   9.807 -1.1709 -0.6587  1.1233
  277MOL0     H37375  -0.228   2.384   9.685 -4.1650 -1.3184  0.4849
  277MOL0     H37376  -0.294   2.547   9.680  0.7144  1.3328 -0.5125
  277MOL0     H37377   0.763   2.741   9.939  0.9770 -0.0182  0.6954
  277MOL0     H37378   0.997   2.798   9.977 -1.5535 -0.6475  0.9873
  277MOL0     H37379   1.463   2.645   9.776 -1.7054  0.5386  2.1691
  277MOL0     H37380   1.705   2.702   9.749  0.7888 -0.0630 -2.7221
  277MOL0     H37381   1.905   2.131   9.636 -0.8591 -2.4060  1.6314
  277MOL0     H37382   1.687   2.150   9.566 -1.2146 -0.6409  0.8192
  277MOL0     H37383   1.273   2.465   9.678 -0.3021 -0.7188  1.8676
  277MOL0     H37384   1.048   2.519   9.627  1.0654  0.7964 -1.3010
  277MOL0     H37385   0.832   2.520   9.644 -2.5663  1.4412 -0.4768
  277MOL0     H37386   0.788   2.514   9.475 -1.4027  2.9898  0.6947
  277MOL0     H37387   0.580   2.519   9.616  0.3277  0.1642  0.7605
  277MOL0     H37388   0.631   2.376   9.699 -0.5481  2.1459  1.4107
  277MOL0     H37389   0.608   2.247   9.474 -1.4685  0.3371 -1.2988
  277MOL0     H37390   0.621   2.404   9.400 -4.2670  0.8050 -2.1339
  277MOL0     H37391   0.379   2.294   9.384  1.6651 -1.6162 -0.2783
  277MOL0     H37392   0.386   2.451   9.467 -0.6552  0.1047 -2.3629
  277MOL0     H37393   0.274   2.205   9.794 -0.9639  2.8687  1.5098
  277MOL0     H37394   0.967   2.094   9.575  1.1058 -1.3645  0.0404
  277MOL0     H37395   1.206   2.046   9.622 -0.6153 -0.0353 -0.5172
  278MOL0     O37396   1.427   8.841   4.711  0.3305  0.0113  0.2361
  278MOL0     C37397   1.394   8.958   4.709 -0.2451  0.3251 -0.2658
  278MOL0     O37398   1.264   9.004   4.694  0.9564 -0.1561 -1.1779
  278MOL0     C37399   1.172   8.933   4.620 -0.1120 -0.0921 -0.3284
  278MOL0     C37400   1.037   8.957   4.652  0.1910 -1.0141  0.6692
  278MOL0     C37401   0.931   8.877   4.594  0.1334  0.0543  0.0108
  278MOL0     C37402   0.959   8.784   4.488  0.2019 -0.3453  0.0292
  278MOL0     O37403   0.848   8.719   4.428 -0.4167 -0.1287  0.4801
  278MOL0     C37404   0.879   8.636   4.310 -0.0562 -0.8692 -0.9343
  278MOL0     C37405   0.745   8.595   4.250  0.2355 -0.3692  0.4782
  278MOL0     C37406   0.784   8.488   4.145 -1.0959 -0.0246  0.4864
  278MOL0     C37407   0.658   8.421   4.092 -0.6285  0.4457  0.1596
  278MOL0     C37408   0.691   8.352   3.957  0.6033  1.4120  0.4416
  278MOL0     C37409   0.549   8.328   3.881  0.3854 -0.0653 -0.6403
  278MOL0     C37410   0.566   8.313   3.730  0.1798  0.1156 -0.1389
  278MOL0     C37411   0.585   8.169   3.683 -0.4955 -0.0950  0.1941
  278MOL0     N37412   0.460   8.094   3.628  0.6799  0.5670 -0.7407
  278MOL0     C37413   0.374   8.025   3.715  0.0452  0.6354 -0.3156
  278MOL0     C37414   0.291   7.981   3.618  0.5836  0.7266  0.1593
  278MOL0     C37415   0.171   7.890   3.645  1.0198 -0.6398  0.2072
  278MOL0     C37416   0.225   7.755   3.659  0.1522 -0.4926  0.0992
  278MOL0     C37417   0.118   7.658   3.712 -0.3189 -0.4778  0.3364
  278MOL0     C37418  -0.023   7.661   3.638 -0.1863 -0.3461 -0.5277
  278MOL0     O37419  -0.116   7.586   3.722  0.1323 -0.1392 -0.2076
  278MOL0     C37420  -0.249   7.566   3.687  0.0535 -0.6792  0.0232
  278MOL0     C37421  -0.306   7.599   3.558  0.8528  1.0929 -0.3603
  278MOL0     C37422  -0.436   7.557   3.528  1.2203  0.3378 -0.8924
  278MOL0     C37423  -0.477   7.584   3.387 -0.6773 -1.1109  0.4173
  278MOL0     C37424  -0.514   7.484   3.621  0.6024  0.4865  0.3980
  278MOL0     C37425  -0.652   7.445   3.608 -0.6559  0.4594  1.2957
  278MOL0     O37426  -0.721   7.428   3.723  0.1061  0.4193 -0.1655
  278MOL0     C37427  -0.850   7.396   3.718  0.1294 -0.0468 -0.1476
  278MOL0     C37428  -0.950   7.463   3.645 -0.4205  0.0247 -0.0625
  278MOL0     C37429  -1.083   7.434   3.655  0.2007 -0.2441  0.7759
  278MOL0     C37430  -1.127   7.332   3.740 -0.2222 -0.2922 -0.6419
  278MOL0     O37431  -1.251   7.278   3.748  0.7863 -0.4272  0.2762
  278MOL0     C37432  -1.355   7.349   3.676  0.2352  1.0868 -0.1745
  278MOL0     C37433  -1.493   7.271   3.694 -0.0960 -0.3569 -0.6587
  278MOL0     C37434  -1.599   7.366   3.633  0.4122  0.1358  0.1040
  278MOL0     C37435  -1.738   7.303   3.648 -1.4295  0.8549 -0.8477
  278MOL0     C37436  -1.848   7.404   3.611 -0.1162 -0.0676  0.4448
  278MOL0     C37437  -1.981   7.341   3.578 -0.2028  1.0737  0.7500
  278MOL0     C37438  -2.088   7.449   3.556 -1.0585  0.6229  0.2181
  278MOL0     C37439  -2.201   7.369   3.491  0.5407 -0.3582  0.0423
  278MOL0    Cl37440  -2.365   7.455   3.481  0.0023  0.1067 -0.3200
  278MOL0     C37441  -1.031   7.277   3.831 -0.1088 -0.2027 -0.9043
  278MOL0     C37442  -0.891   7.304   3.815  0.5737  0.2323 -0.3865
  278MOL0     O37443  -0.696   7.418   3.500 -0.5759 -0.7435  0.2337
  278MOL0     C37444  -0.460   7.474   3.751  0.0191 -0.5177  0.8093
  278MOL0     C37445  -0.330   7.514   3.788  0.7162 -0.0973  0.2846
  278MOL0     N37446   0.326   8.016   3.493  0.4038 -0.0105  0.1101
  278MOL0     N37447   0.424   8.084   3.498  0.3021 -0.0925 -0.0126
  278MOL0     C37448   1.093   8.770   4.453  0.8882 -0.1182 -0.3481
  278MOL0     C37449   1.196   8.838   4.522 -0.0351  0.6708  1.1790
  278MOL0     C37450   1.490   9.059   4.739  0.4180  0.0234 -0.1447
  278MOL0     C37451   1.462   9.199   4.721 -0.0338  0.3089  0.4841
  278MOL0     C37452   1.553   9.292   4.750  0.4951  0.0232  0.4481
  278MOL0     C37453   1.679   9.262   4.806  0.5783 -0.6296  0.5307
  278MOL0     O37454   1.773   9.357   4.841  0.1595  0.3059 -0.1911
  278MOL0     C37455   1.754   9.489   4.796  0.7049 -1.0465  0.1250
  278MOL0     C37456   1.873   9.583   4.836  1.0448 -0.6276  0.3429
  278MOL0     C37457   2.005   9.557   4.770 -0.3605 -0.1507  0.4315
  278MOL0     C37458   2.115   9.658   4.824 -0.2877 -0.2116 -0.2957
  278MOL0     C37459   2.254   9.634   4.782  0.3887  0.6805 -1.5399
  278MOL0     C37460   2.369   9.609   4.750 -0.0941 -0.0712  0.3361
  278MOL0     C37461   1.709   9.128   4.822  1.1565 -0.1818  1.2023
  278MOL0     C37462   1.620   9.027   4.783 -0.1172  0.9500 -0.2620
  278MOL0     H37463   1.012   9.037   4.722  1.3340  2.2929 -2.3824
  278MOL0     H37464   0.828   8.892   4.623 -0.9299 -0.6349 -3.1044
  278MOL0     H37465   0.945   8.680   4.234 -0.3774 -1.0369 -1.3182
  278MOL0     H37466   0.941   8.552   4.342  2.4364  1.0118 -0.5159
  278MOL0     H37467   0.679   8.555   4.327 -1.6655  0.2247 -0.7940
  278MOL0     H37468   0.699   8.686   4.211 -0.1772 -1.3005 -1.3022
  278MOL0     H37469   0.839   8.536   4.063 -0.7348  1.9665  1.8196
  278MOL0     H37470   0.850   8.417   4.195  2.8035  1.8221 -1.5412
  278MOL0     H37471   0.611   8.354   4.165  2.1584 -2.4405 -0.4234
  278MOL0     H37472   0.587   8.502   4.074  0.4519  1.6440  1.1204
  278MOL0     H37473   0.761   8.415   3.902 -0.4270 -0.6166 -3.5218
  278MOL0     H37474   0.741   8.255   3.962 -1.2697  0.3070 -0.7751
  278MOL0     H37475   0.493   8.243   3.921 -0.4587 -0.1470 -1.9366
  278MOL0     H37476   0.484   8.412   3.908 -1.9988 -1.5195 -1.6013
  278MOL0     H37477   0.486   8.360   3.672  1.1431  0.6517 -1.0517
  278MOL0     H37478   0.665   8.354   3.711  1.0707 -1.7266  0.2958
  278MOL0     H37479   0.631   8.107   3.761  0.7388  1.3689  0.6698
  278MOL0     H37480   0.671   8.180   3.617  0.6195  2.1125  1.8681
  278MOL0     H37481   0.370   8.009   3.822  2.3775  1.4796 -0.0420
  278MOL0     H37482   0.123   7.917   3.740 -0.5678 -0.0431 -0.7260
  278MOL0     H37483   0.103   7.904   3.560  1.9574 -0.0518 -0.4677
  278MOL0     H37484   0.311   7.750   3.726 -1.1521  1.9296  2.1559
  278MOL0     H37485   0.259   7.714   3.564  1.3294  1.6078 -0.4475
  278MOL0     H37486   0.098   7.678   3.817 -1.0260  0.2013  0.0841
  278MOL0     H37487   0.155   7.555   3.709  1.9830  0.2761  0.7090
  278MOL0     H37488  -0.015   7.609   3.542  0.3080  0.9586 -1.2220
  278MOL0     H37489  -0.064   7.762   3.631 -4.2847 -1.4837  2.9193
  278MOL0     H37490  -0.254   7.647   3.476 -1.5382  2.7396 -1.0455
  278MOL0     H37491  -0.468   7.510   3.307  1.6903 -0.1917 -0.2489
  278MOL0     H37492  -0.576   7.630   3.398  0.8161  1.7475  3.9588
  278MOL0     H37493  -0.416   7.666   3.349 -1.2417 -0.6305  0.5384
  278MOL0     H37494  -0.916   7.532   3.568 -0.4835  0.0819 -0.0392
  278MOL0     H37495  -1.153   7.492   3.596  1.1406  0.5531  0.4253
  278MOL0     H37496  -1.369   7.449   3.717 -0.4422  0.3259  1.5610
  278MOL0     H37497  -1.321   7.348   3.572  2.1385 -2.4686  0.3227
  278MOL0     H37498  -1.482   7.169   3.656  0.5314 -1.0951  1.4028
  278MOL0     H37499  -1.506   7.259   3.801  4.5787  1.0833  0.3251
  278MOL0     H37500  -1.579   7.387   3.527  0.1053 -1.0101 -0.1969
  278MOL0     H37501  -1.588   7.457   3.693 -0.0990  1.6974 -2.0338
  278MOL0     H37502  -1.753   7.219   3.579 -0.5353  0.1234 -0.1751
  278MOL0     H37503  -1.758   7.261   3.747 -0.1601 -2.6816 -1.9111
  278MOL0     H37504  -1.811   7.461   3.524 -1.1338  0.9362  0.6479
  278MOL0     H37505  -1.851   7.480   3.689  0.9596  2.3540 -1.7114
  278MOL0     H37506  -1.967   7.268   3.498 -0.2958 -0.9614  2.5073
  278MOL0     H37507  -2.009   7.278   3.663 -0.1583 -1.4816 -1.0360
  278MOL0     H37508  -2.030   7.510   3.486  1.1293  0.2799  1.6396
  278MOL0     H37509  -2.131   7.497   3.644 -0.5132 -2.1879  2.1433
  278MOL0     H37510  -2.219   7.272   3.538 -0.1032  0.1624  0.9015
  278MOL0     H37511  -2.168   7.354   3.387  0.7821  2.7752 -0.4114
  278MOL0     H37512  -1.044   7.211   3.917  1.6548  0.6575  0.0715
  278MOL0     H37513  -0.815   7.255   3.875  1.9731  2.7988  0.1024
  278MOL0     H37514  -0.513   7.429   3.835 -3.9686 -1.4930 -1.9013
  278MOL0     H37515  -0.290   7.502   3.888  0.3468 -0.7629  0.3565
  278MOL0     H37516   1.131   8.695   4.384  0.3739 -0.2633 -0.4771
  278MOL0     H37517   1.300   8.830   4.490  0.1527  2.6882  1.1899
  278MOL0     H37518   1.364   9.236   4.694 -0.5096 -0.0471  1.6720
  278MOL0     H37519   1.524   9.394   4.728  2.7674  0.4136 -1.0886
  278MOL0     H37520   1.746   9.486   4.687 -1.3706  2.0466  0.0750
  278MOL0     H37521   1.664   9.529   4.844  0.2981 -1.2644 -0.4500
  278MOL0     H37522   1.888   9.573   4.944 -1.4823 -0.9957  0.7428
  278MOL0     H37523   1.835   9.682   4.811  1.0118  0.0834  2.9050
  278MOL0     H37524   1.991   9.565   4.662  2.6586 -1.0072 -0.1285
  278MOL0     H37525   2.030   9.452   4.784 -0.0805 -0.1384  0.0423
  278MOL0     H37526   2.115   9.651   4.933 -0.9959 -1.4729 -0.3529
  278MOL0     H37527   2.087   9.760   4.797 -0.9795 -0.0410  1.0000
  278MOL0     H37528   2.468   9.575   4.726  0.0748  1.3420 -1.1254
  278MOL0     H37529   1.809   9.096   4.852  3.8386  0.5054 -5.2956
  278MOL0     H37530   1.653   8.923   4.790  1.9071  1.4841 -1.1004
  279MOL0     O37531   0.757   7.843   9.806 -0.4014 -0.6720 -0.1289
  279MOL0     C37532   0.796   7.917   9.712 -0.4764  0.5887 -0.0719
  279MOL0     O37533   0.709   7.987   9.621 -0.1671  0.4699  0.4290
  279MOL0     C37534   0.573   7.992   9.649 -0.3455  0.4586 -0.0376
  279MOL0     C37535   0.490   7.974   9.538 -0.0007 -0.4288  0.9246
  279MOL0     C37536   0.352   7.974   9.550 -0.1845 -0.1054 -0.0434
  279MOL0     C37537   0.292   7.964   9.676 -0.3481  0.8814 -1.1582
  279MOL0     O37538   0.161   7.950   9.705  0.7312 -0.5845 -0.3354
  279MOL0     C37539   0.073   7.932   9.587  0.2524 -0.6014 -0.7593
  279MOL0     C37540  -0.061   7.911   9.649 -1.0746 -0.3091  0.8656
  279MOL0     C37541  -0.170   7.913   9.554  0.4953 -0.1854  0.5486
  279MOL0     C37542  -0.312   7.930   9.597  0.6055 -0.3244 -0.2113
  279MOL0     C37543  -0.410   7.925   9.481 -0.1539 -0.9343 -0.1818
  279MOL0     C37544  -0.548   7.976   9.511  0.5425 -0.3462  0.5954
  279MOL0     C37545  -0.638   7.958   9.384 -0.5436  0.4581 -0.1542
  279MOL0     C37546  -0.781   7.988   9.405  0.4925 -0.5074 -0.7580
  279MOL0     N37547  -0.846   7.916   9.515 -0.6312  0.2410  0.4994
  279MOL0     C37548  -0.872   7.783   9.516 -0.0358  0.5792 -0.3154
  279MOL0     C37549  -0.936   7.755   9.632 -0.5195  0.3543 -0.0693
  279MOL0     C37550  -0.991   7.631   9.689  0.0836  1.3232  0.4427
  279MOL0     C37551  -1.118   7.586   9.620  0.4413  0.4143 -0.5690
  279MOL0     C37552  -1.224   7.496   9.703  0.0611  0.1121  0.0143
  279MOL0     C37553  -1.258   7.545   9.841 -0.5484 -0.6911  0.0914
  279MOL0     O37554  -1.345   7.660   9.845  0.3848 -0.0474 -0.5427
  279MOL0     C37555  -1.479   7.644   9.834 -0.7383  1.0256 -0.2186
  279MOL0     C37556  -1.568   7.756   9.825 -1.0951 -0.6060 -0.0697
  279MOL0     C37557  -1.705   7.748   9.820  0.8785 -0.1658  0.1916
  279MOL0     C37558  -1.770   7.878   9.823  0.5675 -0.2564  0.1334
  279MOL0     C37559  -1.765   7.622   9.798  0.1608 -0.3897 -0.5893
  279MOL0     C37560  -1.910   7.592   9.793  0.1586  0.5630  0.3235
  279MOL0     O37561  -1.990   7.655   9.883  1.0840  0.4329  0.8231
  279MOL0     C37562  -2.112   7.601   9.917 -0.6287  0.6707  0.7868
  279MOL0     C37563  -2.141   7.568  10.048 -0.0819  0.4348 -0.3372
  279MOL0     C37564  -2.266   7.521  10.087  0.9461  0.1539 -0.7017
  279MOL0     C37565  -2.361   7.492   9.988  0.4129  0.4132  0.7778
  279MOL0     O37566  -2.479   7.429  10.002 -0.4050  0.3145  0.4920
  279MOL0     C37567  -2.478   7.353  10.118 -0.9428 -0.4722 -0.1881
  279MOL0     C37568  -2.600   7.268  10.117  0.3512 -0.3514  0.5595
  279MOL0     C37569  -2.713   7.346  10.174  0.1031  0.4710 -0.2308
  279MOL0     C37570  -2.848   7.277  10.143  0.5181  0.5345 -0.1374
  279MOL0     C37571  -2.883   7.269  10.000 -0.3356 -0.9364  0.9688
  279MOL0     C37572  -2.897   7.406   9.926  0.0574 -1.6530 -0.2529
  279MOL0     C37573  -2.943   7.373   9.775 -0.9492  0.9681 -0.0563
  279MOL0     C37574  -2.826   7.331   9.682 -0.2256  0.1025 -0.8176
  279MOL0    Cl37575  -2.721   7.472   9.652  0.2041 -0.1596 -0.1831
  279MOL0     C37576  -2.337   7.530   9.857 -0.2711  1.0484 -0.0639
  279MOL0     C37577  -2.217   7.583   9.820 -0.8397 -1.4647 -0.5302
  279MOL0     O37578  -1.948   7.506   9.715  0.4894  0.1323  0.3498
  279MOL0     C37579  -1.676   7.508   9.809  0.6322  0.9957  1.5688
  279MOL0     C37580  -1.541   7.514   9.819  0.4169 -0.5467  0.0097
  279MOL0     N37581  -0.944   7.872   9.698  0.3580 -0.2420 -0.1191
  279MOL0     N37582  -0.889   7.966   9.629  0.1419  0.1880 -0.3447
  279MOL0     C37583   0.376   7.969   9.788  0.0849  0.5998  0.2233
  279MOL0     C37584   0.514   7.997   9.776 -0.2749 -0.4118 -0.5404
  279MOL0     C37585   0.944   7.929   9.684 -0.0406 -0.3016  0.0291
  279MOL0     C37586   0.989   8.026   9.594 -0.4442 -0.3515  0.5312
  279MOL0     C37587   1.126   8.055   9.592 -0.0409 -0.2916  0.7893
  279MOL0     C37588   1.218   7.979   9.667 -0.0960  0.1074  0.8626
  279MOL0     O37589   1.358   7.992   9.667  0.4727 -0.2634  0.0791
  279MOL0     C37590   1.415   8.096   9.578  0.5103  0.6682 -0.7161
  279MOL0     C37591   1.566   8.096   9.600 -0.6315 -0.1533 -0.3325
  279MOL0     C37592   1.597   8.120   9.750  0.1558 -0.3104 -0.5430
  279MOL0     C37593   1.738   8.180   9.768  0.6800  0.7054 -0.6582
  279MOL0     C37594   1.755   8.207   9.911 -0.0067 -0.2384 -0.5497
  279MOL0     C37595   1.774   8.226  10.032 -0.7267  0.0303  0.0125
  279MOL0     C37596   1.164   7.869   9.734 -0.1803 -0.6112 -0.0226
  279MOL0     C37597   1.032   7.846   9.751  0.8953 -0.5794  0.0664
  279MOL0     H37598   0.534   7.959   9.440  0.6008  5.5762 -0.1441
  279MOL0     H37599   0.291   7.967   9.461  1.5156  1.3596 -1.3939
  279MOL0     H37600   0.073   8.024   9.528 -0.6539 -0.9256 -1.2797
  279MOL0     H37601   0.102   7.850   9.521  0.3471 -0.7407 -0.5484
  279MOL0     H37602  -0.066   7.811   9.693  1.1616 -0.9457 -0.1933
  279MOL0     H37603  -0.084   7.986   9.725 -1.6444 -0.0761  0.4746
  279MOL0     H37604  -0.151   8.006   9.500 -1.7580 -0.0180 -0.0582
  279MOL0     H37605  -0.162   7.835   9.478  1.6012 -2.6600  3.0418
  279MOL0     H37606  -0.340   7.862   9.678 -1.3525  2.3687  1.5734
  279MOL0     H37607  -0.315   8.030   9.643 -0.6812  0.1999 -1.3480
  279MOL0     H37608  -0.362   7.988   9.406  1.1940 -0.8903  0.6756
  279MOL0     H37609  -0.411   7.819   9.453 -1.1166 -0.4039 -2.3790
  279MOL0     H37610  -0.590   7.923   9.597 -2.4014 -0.8873 -1.0202
  279MOL0     H37611  -0.546   8.084   9.532 -4.0331  0.1906 -0.5356
  279MOL0     H37612  -0.596   8.029   9.312 -2.4155  0.1292 -1.6425
  279MOL0     H37613  -0.628   7.860   9.336 -0.7752 -0.6192  1.8975
  279MOL0     H37614  -0.835   7.965   9.312 -0.1455 -0.2983 -0.4425
  279MOL0     H37615  -0.781   8.097   9.416 -0.5650 -0.2824 -2.5759
  279MOL0     H37616  -0.832   7.711   9.444  0.1210 -2.9382  2.9718
  279MOL0     H37617  -0.916   7.552   9.687 -1.6878 -0.4365  0.3588
  279MOL0     H37618  -1.016   7.649   9.794  2.2254 -4.1476  2.2490
  279MOL0     H37619  -1.097   7.520   9.535 -0.1112 -1.3254  0.5928
  279MOL0     H37620  -1.171   7.670   9.574  0.0081 -0.8357 -2.4784
  279MOL0     H37621  -1.182   7.395   9.711  0.7693  0.3973  0.0584
  279MOL0     H37622  -1.316   7.489   9.644  0.8793 -0.2803 -1.2663
  279MOL0     H37623  -1.161   7.566   9.888 -0.3338  1.2953 -1.1079
  279MOL0     H37624  -1.313   7.476   9.906  1.9826 -0.3162  2.8525
  279MOL0     H37625  -1.515   7.848   9.847  0.3115 -0.4070 -3.6105
  279MOL0     H37626  -1.865   7.876   9.769 -0.1254  0.0983  1.3086
  279MOL0     H37627  -1.797   7.898   9.926 -1.3201 -2.3026  0.1308
  279MOL0     H37628  -1.709   7.961   9.786  0.5543  0.3046  1.3503
  279MOL0     H37629  -2.057   7.554  10.115 -0.9706 -1.4364  0.4536
  279MOL0     H37630  -2.291   7.490  10.189  2.3029 -1.0121 -0.6956
  279MOL0     H37631  -2.402   7.275  10.125 -0.0008  0.5272  1.1590
  279MOL0     H37632  -2.477   7.408  10.213  0.0080  1.5974 -1.3095
  279MOL0     H37633  -2.610   7.221  10.019  0.8741  2.9479 -1.2398
  279MOL0     H37634  -2.592   7.184  10.187 -1.7546 -0.0284  1.2637
  279MOL0     H37635  -2.707   7.452  10.146 -2.7413  0.7264 -0.1118
  279MOL0     H37636  -2.706   7.350  10.283 -0.8228  0.2513 -0.1588
  279MOL0     H37637  -2.863   7.179  10.188 -0.4706  0.4501 -0.6297
  279MOL0     H37638  -2.917   7.344  10.196  2.0590  2.0850  0.0352
  279MOL0     H37639  -2.989   7.241   9.999 -0.5218 -0.2838 -0.7542
  279MOL0     H37640  -2.815   7.201   9.949  0.1947  0.5541 -0.4049
  279MOL0     H37641  -2.974   7.474   9.963  2.2113  0.1643  1.1613
  279MOL0     H37642  -2.805   7.465   9.931 -0.7713 -0.3445  3.9335
  279MOL0     H37643  -3.001   7.454   9.730  0.2236  2.8545  1.6660
  279MOL0     H37644  -3.006   7.283   9.785  2.3103 -1.3738  1.4844
  279MOL0     H37645  -2.876   7.300   9.590 -2.0541 -0.0808  0.1857
  279MOL0     H37646  -2.772   7.252   9.734 -0.2035  1.1071  0.7685
  279MOL0     H37647  -2.400   7.512   9.771  0.2441  0.7791 -0.3867
  279MOL0     H37648  -2.200   7.609   9.716  2.4611  2.0016  0.6441
  279MOL0     H37649  -1.712   7.405   9.806  2.6164  0.2079 -1.8128
  279MOL0     H37650  -1.487   7.420   9.827 -0.3772 -0.9715  0.5087
  279MOL0     H37651   0.325   7.961   9.884  1.3851  2.7785  1.1424
  279MOL0     H37652   0.577   8.004   9.865 -1.0856  0.5012 -0.0169
  279MOL0     H37653   0.916   8.090   9.545  0.5913 -0.7705 -1.6909
  279MOL0     H37654   1.163   8.136   9.530  1.7117 -0.1008  2.0058
  279MOL0     H37655   1.396   8.070   9.474  0.1642 -0.7623 -0.3135
  279MOL0     H37656   1.366   8.189   9.611 -2.2114 -0.1128 -2.2685
  279MOL0     H37657   1.610   8.181   9.545  4.7055 -1.7764  0.8705
  279MOL0     H37658   1.622   8.009   9.566  0.5731 -0.2756  1.8227
  279MOL0     H37659   1.585   8.022   9.797 -1.0891 -0.2209 -0.6393
  279MOL0     H37660   1.520   8.185   9.792 -0.3724 -0.9836 -0.4544
  279MOL0     H37661   1.764   8.270   9.711  0.0989  1.1352 -0.2716
  279MOL0     H37662   1.812   8.107   9.736  1.5456  1.5000 -0.5119
  279MOL0     H37663   1.804   8.249  10.133  3.4310 -2.1018 -0.5040
  279MOL0     H37664   1.239   7.817   9.793  1.2913  3.0195  1.6329
  279MOL0     H37665   0.991   7.777   9.824 -0.6837 -0.1110 -0.3494
  280MOL0     O37666   5.431   7.915   6.904 -0.6496 -0.0012  0.2125
  280MOL0     C37667   5.451   8.010   6.829  0.5549  0.7875 -0.3706
  280MOL0     O37668   5.365   8.116   6.817 -0.2801 -0.3408 -0.7797
  280MOL0     C37669   5.252   8.141   6.901 -0.8128 -0.2930  0.4351
  280MOL0     C37670   5.227   8.102   7.037 -0.3009 -0.0812  0.4800
  280MOL0     C37671   5.108   8.141   7.097 -0.3079 -0.0368 -0.1692
  280MOL0     C37672   5.022   8.225   7.028  1.1815 -0.6718  0.4551
  280MOL0     O37673   4.893   8.251   7.075 -0.2358  0.8857 -0.2089
  280MOL0     C37674   4.805   8.345   7.018 -0.9537 -0.6252 -0.0660
  280MOL0     C37675   4.680   8.341   7.095  0.8822 -0.1703  0.2817
  280MOL0     C37676   4.580   8.421   7.020  0.2110 -0.0780 -0.0892
  280MOL0     C37677   4.439   8.363   7.041 -0.4665  0.2060 -0.2152
  280MOL0     C37678   4.340   8.444   6.956 -0.4220 -0.4980 -0.6665
  280MOL0     C37679   4.214   8.380   6.979  0.2708 -0.2574  0.3878
  280MOL0     C37680   4.182   8.240   6.915 -0.5299 -1.1366  0.2838
  280MOL0     C37681   4.044   8.177   6.904 -0.3457 -0.4434 -0.6990
  280MOL0     N37682   3.948   8.265   6.843 -0.8212  0.0317 -0.0515
  280MOL0     C37683   3.851   8.327   6.914  0.2102 -0.6943 -0.5165
  280MOL0     C37684   3.777   8.396   6.830  0.5890  0.0534  0.2793
  280MOL0     C37685   3.669   8.486   6.877  0.5533  0.2385 -0.7388
  280MOL0     C37686   3.545   8.475   6.805 -0.1359  0.1558  0.0788
  280MOL0     C37687   3.462   8.348   6.816 -0.2985  0.9126 -0.4337
  280MOL0     C37688   3.334   8.361   6.742 -0.4620 -0.0092 -0.7994
  280MOL0     O37689   3.272   8.236   6.715  0.3021  0.6374 -0.3830
  280MOL0     C37690   3.136   8.227   6.683  0.0449  0.7056 -0.4733
  280MOL0     C37691   3.055   8.335   6.662  0.2141  0.5572 -0.3000
  280MOL0     C37692   2.915   8.318   6.631 -0.6204  0.7182 -0.7101
  280MOL0     C37693   2.846   8.451   6.593 -0.1302  0.9918  0.2715
  280MOL0     C37694   2.857   8.185   6.645  0.1390 -0.6974 -0.1660
  280MOL0     C37695   2.707   8.157   6.643  0.0731 -0.7590  0.3676
  280MOL0     O37696   2.656   8.031   6.670 -0.0804 -0.3436  0.0053
  280MOL0     C37697   2.521   8.001   6.649 -0.2336  0.3746  0.4495
  280MOL0     C37698   2.483   7.868   6.669  0.0619  0.0927 -0.7561
  280MOL0     C37699   2.354   7.820   6.650  0.2382 -0.3006 -0.0368
  280MOL0     C37700   2.248   7.909   6.629 -0.4645  0.3021  0.5739
  280MOL0     O37701   2.131   7.836   6.613  0.1777 -0.4708 -0.2280
  280MOL0     C37702   2.011   7.914   6.636  0.2125 -0.6024 -0.5702
  280MOL0     C37703   1.891   7.822   6.631  0.7339 -0.5323  0.6328
  280MOL0     C37704   1.769   7.901   6.674 -0.3124  0.1484  0.3423
  280MOL0     C37705   1.649   7.806   6.676 -0.5977 -0.6247 -0.7837
  280MOL0     C37706   1.527   7.877   6.735 -0.8660 -0.3761 -0.0469
  280MOL0     C37707   1.405   7.798   6.715  0.3794  0.1167 -0.1731
  280MOL0     C37708   1.282   7.870   6.756 -0.2670  0.0825  0.2856
  280MOL0     C37709   1.140   7.811   6.734  0.6374  0.2299  1.3226
  280MOL0    Cl37710   1.077   7.739   6.881 -0.1775  0.3952 -0.6833
  280MOL0     C37711   2.280   8.040   6.612 -0.7140  0.6618  0.6326
  280MOL0     C37712   2.419   8.089   6.611  0.5284  0.3947 -0.6465
  280MOL0     O37713   2.637   8.252   6.607  0.0404 -0.1047  0.2090
  280MOL0     C37714   2.939   8.088   6.681  0.1014  0.3584 -0.1808
  280MOL0     C37715   3.078   8.101   6.696  0.8037 -0.0043  0.8613
  280MOL0     N37716   3.821   8.370   6.703 -0.0920  0.1544 -0.1102
  280MOL0     N37717   3.925   8.293   6.711  0.0749  0.3284 -0.0255
  280MOL0     C37718   5.059   8.276   6.902 -0.3929 -0.4609  0.0195
  280MOL0     C37719   5.174   8.237   6.840 -0.0278 -1.0993 -0.0958
  280MOL0     C37720   5.565   8.002   6.730 -0.1500  0.0613  0.2604
  280MOL0     C37721   5.674   7.913   6.746  0.9424  0.1336 -0.1341
  280MOL0     C37722   5.782   7.919   6.658 -0.1920  1.1141 -0.5398
  280MOL0     C37723   5.791   8.012   6.562 -0.7420 -0.5560  0.4791
  280MOL0     O37724   5.906   8.033   6.489  0.5357  0.5292  0.3325
  280MOL0     C37725   5.996   7.929   6.459  0.2879  0.6144  0.0058
  280MOL0     C37726   6.139   7.956   6.523  0.2426 -0.0925  0.3313
  280MOL0     C37727   6.234   8.053   6.443  0.4451 -0.2303  0.0803
  280MOL0     C37728   6.246   8.037   6.290 -0.0215  0.1588 -0.2090
  280MOL0     C37729   6.355   8.125   6.236  0.2660 -0.2842  0.3272
  280MOL0     C37730   6.447   8.199   6.193  0.0492  0.1709 -0.1727
  280MOL0     C37731   5.692   8.112   6.549 -0.1987  0.4982 -0.0676
  280MOL0     C37732   5.577   8.100   6.626  0.0677 -0.1214 -0.2677
  280MOL0     H37733   5.294   8.033   7.088  2.2505 -0.3701 -2.8834
  280MOL0     H37734   5.080   8.099   7.193 -0.2545 -4.9344 -2.0128
  280MOL0     H37735   4.843   8.447   7.017 -1.9814 -0.2304 -0.6519
  280MOL0     H37736   4.785   8.309   6.916 -1.7287 -4.0229  1.1474
  280MOL0     H37737   4.644   8.238   7.100 -0.3249  0.2956  2.0269
  280MOL0     H37738   4.698   8.379   7.196  3.2992 -0.2380 -0.0647
  280MOL0     H37739   4.591   8.525   7.053  0.6254  0.2611 -1.2555
  280MOL0     H37740   4.586   8.416   6.911 -0.8726  0.5633 -0.2004
  280MOL0     H37741   4.440   8.257   7.013  3.7812  0.8198 -3.2777
  280MOL0     H37742   4.406   8.363   7.146  0.1527 -2.4088  0.0463
  280MOL0     H37743   4.344   8.548   6.988 -2.8901 -0.4191 -0.4188
  280MOL0     H37744   4.361   8.448   6.849 -1.2029 -1.4147 -0.8688
  280MOL0     H37745   4.200   8.380   7.087  1.2661  2.8789  0.6201
  280MOL0     H37746   4.139   8.446   6.935  1.7072 -0.0809 -1.9645
  280MOL0     H37747   4.225   8.245   6.814 -1.3383 -1.3835 -0.0809
  280MOL0     H37748   4.239   8.168   6.973  0.2947  0.0305  0.9607
  280MOL0     H37749   4.015   8.138   7.002  0.4194 -2.2896 -1.1681
  280MOL0     H37750   4.052   8.087   6.843  1.8377  0.1742 -1.4352
  280MOL0     H37751   3.843   8.345   7.020  3.6285  1.6606 -0.4764
  280MOL0     H37752   3.649   8.469   6.983  0.5657  1.9739 -0.4305
  280MOL0     H37753   3.711   8.583   6.849 -0.4446  0.9845  0.2730
  280MOL0     H37754   3.577   8.479   6.700  3.4086 -1.9030  0.8985
  280MOL0     H37755   3.486   8.563   6.834  1.5584  2.6346 -3.3060
  280MOL0     H37756   3.432   8.333   6.920 -0.6843 -0.1496 -0.6818
  280MOL0     H37757   3.523   8.265   6.778 -0.8207  1.1177 -1.7644
  280MOL0     H37758   3.359   8.400   6.644  2.3867  1.1254  0.2841
  280MOL0     H37759   3.268   8.442   6.776  0.0272  0.2733 -0.5135
  280MOL0     H37760   3.098   8.434   6.651 -1.6720  2.0351  3.7316
  280MOL0     H37761   2.907   8.539   6.617 -2.2079  3.0930 -1.6024
  280MOL0     H37762   2.827   8.455   6.486 -0.0559  1.5793  0.2732
  280MOL0     H37763   2.760   8.460   6.660  0.9003 -2.1050  2.2089
  280MOL0     H37764   2.553   7.788   6.691  0.4252  0.6553  0.2226
  280MOL0     H37765   2.330   7.715   6.644 -2.0051 -0.0924  2.8915
  280MOL0     H37766   2.015   7.958   6.736  2.6442 -0.9849 -0.4399
  280MOL0     H37767   1.998   8.000   6.570 -1.1850 -1.5261 -1.5433
  280MOL0     H37768   1.872   7.797   6.526  2.0294  2.2671 -0.3682
  280MOL0     H37769   1.896   7.736   6.699 -0.8705 -1.1847 -0.0315
  280MOL0     H37770   1.736   7.979   6.604 -1.0017 -0.6992 -0.2949
  280MOL0     H37771   1.789   7.948   6.770  0.2617  0.2341  0.1818
  280MOL0     H37772   1.633   7.767   6.575 -0.1296 -0.7473 -0.8150
  280MOL0     H37773   1.674   7.728   6.748  0.8282  1.0662  0.6430
  280MOL0     H37774   1.516   7.975   6.688  0.1074  0.1718  0.8492
  280MOL0     H37775   1.544   7.902   6.840  0.4372 -0.2405 -0.2720
  280MOL0     H37776   1.406   7.753   6.616 -0.4663 -0.6687  0.1592
  280MOL0     H37777   1.407   7.704   6.771  4.1087 -2.6786 -4.3821
  280MOL0     H37778   1.277   7.956   6.688 -1.4406 -0.4121 -0.2731
  280MOL0     H37779   1.278   7.898   6.862  2.2933  3.5867 -0.3501
  280MOL0     H37780   1.150   7.735   6.656 -1.9607  1.3479 -0.2267
  280MOL0     H37781   1.078   7.891   6.691  0.4476 -0.8451 -0.5383
  280MOL0     H37782   2.204   8.109   6.577  0.0400  1.7370  1.0569
  280MOL0     H37783   2.423   8.197   6.600  0.8757  0.2628 -2.0585
  280MOL0     H37784   2.899   7.989   6.704  0.6345  0.4060  1.0399
  280MOL0     H37785   3.152   8.033   6.737  0.6592  0.4326  1.8632
  280MOL0     H37786   5.004   8.345   6.839  0.6229 -0.7476 -1.2268
  280MOL0     H37787   5.204   8.274   6.742  2.1635  2.8247  1.8141
  280MOL0     H37788   5.674   7.838   6.824  1.3802 -1.4521 -1.6146
  280MOL0     H37789   5.861   7.846   6.674 -0.6424  0.6106 -0.6179
  280MOL0     H37790   5.954   7.834   6.491 -2.3453  1.3997 -0.8642
  280MOL0     H37791   6.003   7.916   6.351  0.3881  0.6469  0.0079
  280MOL0     H37792   6.200   7.865   6.529  1.8479  0.9399  0.4424
  280MOL0     H37793   6.126   8.005   6.620 -0.6275  2.1223 -0.8097
  280MOL0     H37794   6.331   8.038   6.491 -2.0140 -0.9104  5.6039
  280MOL0     H37795   6.200   8.155   6.462  0.3772 -0.4192  1.0038
  280MOL0     H37796   6.151   8.068   6.247  1.3109  1.9077 -2.1117
  280MOL0     H37797   6.256   7.932   6.260 -0.2029  0.2452 -0.5752
  280MOL0     H37798   6.527   8.255   6.150 -0.1273  0.6611  0.1270
  280MOL0     H37799   5.681   8.192   6.476  0.4552  0.1488 -0.5632
  280MOL0     H37800   5.498   8.171   6.602  0.1910  0.4309  0.9034
  281MOL0     O37801  10.427   9.100   8.375  0.0714  0.0029 -0.1265
  281MOL0     C37802  10.470   9.214   8.364  0.1627  0.4005 -0.1877
  281MOL0     O37803  10.391   9.330   8.365 -0.8358  0.1355 -0.0057
  281MOL0     C37804  10.259   9.324   8.411  0.1116 -0.4318  1.1595
  281MOL0     C37805  10.157   9.386   8.331 -0.3564  0.0142  0.3003
  281MOL0     C37806  10.023   9.377   8.370 -0.6616 -0.0832  0.0689
  281MOL0     C37807   9.983   9.295   8.470 -0.3718 -1.1271 -0.6442
  281MOL0     O37808   9.846   9.295   8.491  0.2702  0.1431 -0.3658
  281MOL0     C37809   9.791   9.179   8.558 -0.5286  0.3041 -0.3837
  281MOL0     C37810   9.640   9.192   8.550  0.3720  0.7191  0.3196
  281MOL0     C37811   9.578   9.073   8.625  0.8071  0.4081 -0.0644
  281MOL0     C37812   9.428   9.097   8.637 -0.1304  0.2504  0.6285
  281MOL0     C37813   9.364   9.011   8.738  0.4217  0.3374 -0.3076
  281MOL0     C37814   9.220   9.058   8.763 -0.0211 -0.0380 -0.3580
  281MOL0     C37815   9.141   8.965   8.849 -0.3714 -0.2598 -0.3938
  281MOL0     C37816   9.088   9.044   8.964  0.9567 -1.0294 -0.5238
  281MOL0     N37817   9.035   8.966   9.083 -0.0654 -0.4313 -0.2137
  281MOL0     C37818   8.933   8.870   9.080  0.6690 -0.1084 -0.2190
  281MOL0     C37819   8.909   8.847   9.212  0.6133  0.8658  0.7166
  281MOL0     C37820   8.800   8.759   9.274 -0.2299 -0.0444  0.8088
  281MOL0     C37821   8.752   8.811   9.412 -0.5573  0.2990 -0.4239
  281MOL0     C37822   8.637   8.714   9.453 -0.8910  0.4317  0.2862
  281MOL0     C37823   8.593   8.754   9.593  0.0224 -1.0401 -0.1509
  281MOL0     O37824   8.486   8.663   9.631  0.1746  0.2918  0.0864
  281MOL0     C37825   8.355   8.699   9.609 -0.0011  0.0169 -0.2760
  281MOL0     C37826   8.303   8.814   9.547 -0.3269 -0.0832 -0.8138
  281MOL0     C37827   8.168   8.841   9.533 -0.0250  0.1570  0.5484
  281MOL0     C37828   8.129   8.980   9.477 -0.2599  0.8840 -0.0509
  281MOL0     C37829   8.077   8.744   9.576 -0.7470  0.1428 -0.1590
  281MOL0     C37830   7.931   8.767   9.570  0.6632 -0.1897 -0.9260
  281MOL0     O37831   7.884   8.840   9.462 -0.3787  0.2661 -0.6209
  281MOL0     C37832   7.746   8.860   9.448 -0.4078  0.3905  0.1186
  281MOL0     C37833   7.695   8.994   9.451 -0.2870  0.0153  0.6252
  281MOL0     C37834   7.554   9.017   9.429  0.2967 -0.6875 -0.4023
  281MOL0     C37835   7.469   8.905   9.433 -0.3240  0.3002 -0.6107
  281MOL0     O37836   7.330   8.919   9.427 -0.2999 -0.3530 -0.5780
  281MOL0     C37837   7.286   9.057   9.403  0.6869 -0.3667 -0.4738
  281MOL0     C37838   7.136   9.034   9.414  0.8973 -0.5226 -0.6240
  281MOL0     C37839   7.036   9.143   9.434  0.7403 -0.3306  0.9333
  281MOL0     C37840   6.894   9.095   9.393  1.2223 -0.1664 -0.1035
  281MOL0     C37841   6.783   9.201   9.431 -0.0817  0.3364 -0.0127
  281MOL0     C37842   6.705   9.152   9.545  0.4927  0.5921 -0.2386
  281MOL0     C37843   6.594   9.244   9.606 -0.6017 -0.2542  0.0247
  281MOL0     C37844   6.650   9.373   9.674  0.2842  0.0681 -0.5802
  281MOL0    Cl37845   6.544   9.425   9.798  0.2481 -0.2283  0.0095
  281MOL0     C37846   7.521   8.771   9.434 -0.1033 -0.1662 -0.1984
  281MOL0     C37847   7.661   8.748   9.438 -1.1167 -0.6509  1.0066
  281MOL0     O37848   7.870   8.742   9.665  0.6825 -0.7881  0.3693
  281MOL0     C37849   8.127   8.633   9.645  0.7481 -0.2635 -1.1329
  281MOL0     C37850   8.263   8.612   9.660 -0.6393  0.5932 -1.2466
  281MOL0     N37851   8.998   8.928   9.287 -0.0053  0.2966 -0.5725
  281MOL0     N37852   9.076   8.985   9.211  0.5734 -0.2680  0.0851
  281MOL0     C37853  10.073   9.230   8.549 -0.3470  0.5246  0.1871
  281MOL0     C37854  10.211   9.237   8.521 -0.2083 -1.2390 -0.1946
  281MOL0     C37855  10.617   9.232   8.360  0.1735  0.5854 -0.0656
  281MOL0     C37856  10.668   9.360   8.338 -0.3927 -0.1063 -0.5060
  281MOL0     C37857  10.808   9.382   8.332 -0.1084  0.5409  0.0967
  281MOL0     C37858  10.896   9.273   8.320 -0.4125 -0.3148  1.0223
  281MOL0     O37859  11.034   9.282   8.300  0.2817 -0.5179  0.3406
  281MOL0     C37860  11.104   9.409   8.267 -0.5848  0.4281 -0.5316
  281MOL0     C37861  11.093   9.455   8.117  0.5026 -0.1417  0.2264
  281MOL0     C37862  11.190   9.573   8.082 -0.1804  0.2448 -0.4878
  281MOL0     C37863  11.193   9.610   7.937 -0.2477  0.1357 -0.3735
  281MOL0     C37864  11.257   9.501   7.853  1.1299 -0.0292 -0.8384
  281MOL0     C37865  11.315   9.422   7.779  0.7006 -0.3097  0.4015
  281MOL0     C37866  10.841   9.144   8.345  0.0527  0.3467  0.0248
  281MOL0     C37867  10.703   9.122   8.373 -0.1763  0.5697  0.0258
  281MOL0     H37868  10.167   9.448   8.242 -1.0934 -0.7906 -0.3582
  281MOL0     H37869   9.950   9.432   8.311  2.5686  1.6823 -2.5809
  281MOL0     H37870   9.831   9.093   8.503  1.5807  1.4500 -0.7613
  281MOL0     H37871   9.825   9.179   8.662  0.1598  0.8050 -0.6018
  281MOL0     H37872   9.612   9.294   8.581  0.7264  1.9442 -2.9827
  281MOL0     H37873   9.614   9.174   8.445  1.9727  0.9439 -0.1319
  281MOL0     H37874   9.600   8.974   8.583  2.2274  0.5887  0.1895
  281MOL0     H37875   9.620   9.071   8.726  0.0943 -1.6427  0.2394
  281MOL0     H37876   9.413   9.202   8.661 -1.5983  0.0813  0.5287
  281MOL0     H37877   9.374   9.085   8.542  1.1935 -2.3531  0.0955
  281MOL0     H37878   9.368   8.908   8.701  1.4127 -0.0104  0.6887
  281MOL0     H37879   9.419   9.014   8.833  0.7946  1.8992 -0.5494
  281MOL0     H37880   9.217   9.158   8.808 -0.6386 -0.4275  0.5011
  281MOL0     H37881   9.161   9.070   8.673 -1.6800 -0.1802  0.6733
  281MOL0     H37882   9.071   8.910   8.785  1.2537 -3.1240  0.1105
  281MOL0     H37883   9.203   8.881   8.883  1.3952  0.4573 -1.7135
  281MOL0     H37884   9.020   9.118   8.921  1.4974  0.0233  0.3775
  281MOL0     H37885   9.172   9.094   9.013  1.4919 -1.7037 -0.7337
  281MOL0     H37886   8.870   8.837   8.997 -2.5597  2.1463  1.1078
  281MOL0     H37887   8.715   8.764   9.205  1.4489 -0.5062 -1.4364
  281MOL0     H37888   8.835   8.656   9.274 -0.6567 -0.2062 -0.3791
  281MOL0     H37889   8.710   8.910   9.391 -1.0124  0.4004  0.9049
  281MOL0     H37890   8.831   8.811   9.487  0.3316  0.9274 -1.3315
  281MOL0     H37891   8.681   8.614   9.446  1.7286  1.5811 -1.4881
  281MOL0     H37892   8.556   8.725   9.380  1.3908 -0.8739 -2.6725
  281MOL0     H37893   8.554   8.856   9.599  1.7369 -0.3868  0.3333
  281MOL0     H37894   8.672   8.752   9.669 -0.1672  2.4409  0.3250
  281MOL0     H37895   8.374   8.882   9.501 -1.4543  0.6338 -1.5387
  281MOL0     H37896   8.041   9.024   9.523  0.4863  3.9947 -1.3041
  281MOL0     H37897   8.201   9.059   9.502 -1.4841  1.9186  0.2869
  281MOL0     H37898   8.111   8.968   9.369 -0.8130 -0.1730  0.1459
  281MOL0     H37899   7.765   9.077   9.450  3.4924 -2.9210  0.0258
  281MOL0     H37900   7.520   9.120   9.426  2.0341 -0.0831 -0.6995
  281MOL0     H37901   7.306   9.129   9.483  0.7677  1.9704 -2.4954
  281MOL0     H37902   7.315   9.114   9.314 -0.9231  1.7827  0.3025
  281MOL0     H37903   7.107   8.973   9.328 -0.7796 -1.7407  0.7338
  281MOL0     H37904   7.133   8.984   9.511  3.4295 -0.0165 -0.1911
  281MOL0     H37905   7.068   9.236   9.385  1.0888  0.2459  2.2331
  281MOL0     H37906   7.041   9.159   9.542  0.7464 -1.0271  1.0386
  281MOL0     H37907   6.895   9.072   9.286  0.7181  2.8790 -0.8520
  281MOL0     H37908   6.882   9.005   9.453 -1.2219  1.9162  2.8648
  281MOL0     H37909   6.708   9.204   9.351  0.4907 -1.7819 -0.6853
  281MOL0     H37910   6.819   9.303   9.449 -0.2568  0.4753 -0.4303
  281MOL0     H37911   6.654   9.060   9.513 -2.6383  2.4901 -1.1963
  281MOL0     H37912   6.775   9.134   9.626  0.4568  2.1207  0.1633
  281MOL0     H37913   6.547   9.184   9.684  0.9960 -2.5909 -0.7179
  281MOL0     H37914   6.516   9.274   9.535  1.1724 -0.5066 -2.1490
  281MOL0     H37915   6.661   9.453   9.600  0.4216  1.4355  0.8538
  281MOL0     H37916   6.747   9.350   9.720  0.0863  0.0790 -0.1551
  281MOL0     H37917   7.452   8.688   9.425 -1.0315  0.0493  3.4231
  281MOL0     H37918   7.696   8.646   9.444 -0.4570 -0.3592  2.9885
  281MOL0     H37919   8.057   8.557   9.679  1.4532 -2.5375 -4.2230
  281MOL0     H37920   8.294   8.519   9.706 -1.4142  0.1722 -1.5705
  281MOL0     H37921  10.047   9.176   8.639  0.1176  0.4280  0.2651
  281MOL0     H37922  10.267   9.174   8.589 -0.5843 -1.8414 -0.4349
  281MOL0     H37923  10.612   9.453   8.339 -0.8987 -0.3634 -2.0045
  281MOL0     H37924  10.840   9.485   8.320  0.5021  0.2210 -1.1638
  281MOL0     H37925  11.046   9.484   8.322 -1.7045  0.5956 -1.8926
  281MOL0     H37926  11.207   9.415   8.303 -0.5271 -1.4664 -0.2881
  281MOL0     H37927  10.992   9.496   8.105  0.4275 -0.1176  0.8822
  281MOL0     H37928  11.102   9.367   8.053  1.9238  0.1232  0.0212
  281MOL0     H37929  11.288   9.543   8.118 -0.1806 -0.7015 -1.2397
  281MOL0     H37930  11.155   9.661   8.136 -0.3110 -0.0802 -0.0419
  281MOL0     H37931  11.273   9.685   7.943  2.6351 -2.7357 -0.1178
  281MOL0     H37932  11.098   9.647   7.898  0.0259  1.0516 -0.2131
  281MOL0     H37933  11.376   9.361   7.715  0.9898  1.7202 -1.3837
  281MOL0     H37934  10.905   9.057   8.339 -1.0661 -0.5133  0.1789
  281MOL0     H37935  10.665   9.020   8.375  0.1897  0.0743 -4.9290
  282MOL0     O37936   6.501   3.008   1.955 -0.5758  0.3085 -0.1274
  282MOL0     C37937   6.571   3.066   1.870 -0.1243  0.3954  1.3244
  282MOL0     O37938   6.525   3.142   1.764  0.5289  0.5665 -0.6798
  282MOL0     C37939   6.394   3.151   1.741  1.3717  0.4153 -0.1491
  282MOL0     C37940   6.324   3.258   1.793  0.2061 -0.0047 -0.2518
  282MOL0     C37941   6.194   3.285   1.757  0.7163 -0.2376 -0.2148
  282MOL0     C37942   6.125   3.200   1.670 -0.1432 -0.4011 -0.7763
  282MOL0     O37943   5.996   3.213   1.624  0.1162  0.5152  0.1385
  282MOL0     C37944   5.912   3.323   1.672 -0.4327 -0.4955  0.3467
  282MOL0     C37945   5.786   3.346   1.595 -0.4622  0.1291 -0.7140
  282MOL0     C37946   5.803   3.423   1.464  0.1093  1.0786  0.5316
  282MOL0     C37947   5.665   3.448   1.401  0.3550  1.0123 -0.2751
  282MOL0     C37948   5.669   3.547   1.287 -0.6453  0.2809 -0.0043
  282MOL0     C37949   5.537   3.620   1.287 -0.9217 -0.6203  1.1159
  282MOL0     C37950   5.418   3.525   1.255  0.9950  0.7697 -0.1348
  282MOL0     C37951   5.285   3.608   1.272 -0.5269  0.9942 -0.0149
  282MOL0     N37952   5.163   3.531   1.250 -1.1709  0.0765  0.4886
  282MOL0     C37953   5.115   3.478   1.133  0.1575 -0.2578 -1.7614
  282MOL0     C37954   5.003   3.420   1.179  0.1625 -0.2822  0.1704
  282MOL0     C37955   4.905   3.348   1.096 -0.4946  0.5591 -0.0458
  282MOL0     C37956   4.909   3.380   0.937  0.8716  0.1144 -0.4034
  282MOL0     C37957   4.833   3.516   0.917 -0.5137 -0.8869 -0.6469
  282MOL0     C37958   4.687   3.510   0.943 -0.0318  1.4165 -0.5965
  282MOL0     O37959   4.623   3.395   0.880  1.0628  0.2364 -1.2150
  282MOL0     C37960   4.487   3.370   0.905  0.1636  0.8566  0.1591
  282MOL0     C37961   4.437   3.235   0.905  0.1549 -0.0583  0.1294
  282MOL0     C37962   4.306   3.206   0.947 -0.0721  0.1628 -0.0788
  282MOL0     C37963   4.270   3.065   0.946 -0.9826 -0.1120 -0.7918
  282MOL0     C37964   4.218   3.314   0.977 -0.2501  0.4804 -0.9678
  282MOL0     C37965   4.068   3.298   1.018 -0.2391  0.7072  0.2247
  282MOL0     O37966   4.009   3.173   0.992  0.6204  0.3492  0.0876
  282MOL0     C37967   3.870   3.159   1.015  0.3416 -0.1831 -0.0740
  282MOL0     C37968   3.776   3.204   0.928  0.8980  0.8133  0.4425
  282MOL0     C37969   3.643   3.182   0.957 -0.0759 -0.3462  0.3777
  282MOL0     C37970   3.604   3.121   1.071 -0.6457 -0.2444  0.0319
  282MOL0     O37971   3.466   3.098   1.099  0.0630  0.3121  0.2053
  282MOL0     C37972   3.434   3.027   1.222  0.7745 -0.4231  1.1403
  282MOL0     C37973   3.291   2.981   1.229  0.2288 -0.3063 -0.0363
  282MOL0     C37974   3.186   3.096   1.243 -0.2097  0.5220 -0.3949
  282MOL0     C37975   3.051   3.036   1.229  0.3164 -0.5392  0.0531
  282MOL0     C37976   2.953   3.156   1.236 -0.1580 -0.1096  0.6337
  282MOL0     C37977   2.806   3.110   1.249 -0.0715  0.2390  0.2503
  282MOL0     C37978   2.722   3.229   1.187 -0.0322 -0.4844 -0.9309
  282MOL0     C37979   2.576   3.184   1.208  0.3891 -0.0095 -0.1998
  282MOL0    Cl37980   2.513   3.178   1.382 -0.4070  0.1022 -0.3888
  282MOL0     C37981   3.705   3.077   1.164 -0.1258 -0.1766 -0.3225
  282MOL0     C37982   3.835   3.090   1.130 -0.3644  0.6298 -0.9318
  282MOL0     O37983   4.004   3.396   1.048 -0.0282 -0.8367  0.2444
  282MOL0     C37984   4.265   3.447   0.969  0.4659 -0.6901  0.2310
  282MOL0     C37985   4.396   3.476   0.932 -0.1814  1.1491 -0.1465
  282MOL0     N37986   4.985   3.452   1.313 -0.0458  0.4577  0.0590
  282MOL0     N37987   5.083   3.516   1.354 -0.2746 -0.0907  0.0171
  282MOL0     C37988   6.195   3.082   1.626 -0.4193 -0.7005 -0.2021
  282MOL0     C37989   6.336   3.068   1.648  0.7724  0.3241 -0.1887
  282MOL0     C37990   6.717   3.052   1.885 -0.0756  0.3812  0.0024
  282MOL0     C37991   6.774   2.978   1.990 -0.3756  0.5085 -0.2251
  282MOL0     C37992   6.912   2.975   1.993 -0.2612  0.3335 -0.6797
  282MOL0     C37993   7.002   3.030   1.899 -0.0164 -0.0468  0.4814
  282MOL0     O37994   7.140   3.015   1.924  1.1164 -0.0637  0.3534
  282MOL0     C37995   7.235   3.066   1.830 -0.1808 -0.2027  0.4162
  282MOL0     C37996   7.375   3.057   1.883 -0.0193  0.7307  0.5739
  282MOL0     C37997   7.393   3.155   1.998  0.3025  0.1060 -0.2215
  282MOL0     C37998   7.526   3.139   2.070  0.2195  0.2302 -0.3375
  282MOL0     C37999   7.521   3.225   2.190  0.6970  0.4272 -0.7496
  282MOL0     C38000   7.539   3.293   2.289 -0.6607 -0.2617  0.1927
  282MOL0     C38001   6.941   3.085   1.787  0.2954  0.8977 -0.1778
  282MOL0     C38002   6.807   3.107   1.794 -0.6643 -1.0379  0.6491
  282MOL0     H38003   6.382   3.319   1.861  2.2445 -3.0452  0.9678
  282MOL0     H38004   6.133   3.357   1.810  0.7676 -1.6095  1.8079
  282MOL0     H38005   5.896   3.299   1.777  2.8272  0.3968  1.1620
  282MOL0     H38006   5.959   3.421   1.660 -2.0808  0.6724  2.7643
  282MOL0     H38007   5.738   3.249   1.582  1.0279 -1.1481  2.4370
  282MOL0     H38008   5.727   3.412   1.659  1.2887  1.3098 -0.2446
  282MOL0     H38009   5.850   3.519   1.492 -1.2998  1.5168  1.4975
  282MOL0     H38010   5.872   3.369   1.399 -1.2429 -0.1824  0.0919
  282MOL0     H38011   5.630   3.353   1.360  2.4615  0.7860 -1.7389
  282MOL0     H38012   5.596   3.485   1.477  1.5988 -0.2583  1.5856
  282MOL0     H38013   5.746   3.622   1.306 -1.8098  1.1947  1.2741
  282MOL0     H38014   5.688   3.497   1.191 -0.5445  2.0048 -0.9253
  282MOL0     H38015   5.527   3.671   1.384  0.3346 -0.5120  1.1946
  282MOL0     H38016   5.552   3.694   1.208 -1.1638 -1.1377  0.5784
  282MOL0     H38017   5.423   3.478   1.156 -3.4985  0.0313 -0.2241
  282MOL0     H38018   5.407   3.442   1.325 -1.5119 -0.5532 -1.9397
  282MOL0     H38019   5.299   3.692   1.204  1.8792 -0.5438 -1.5434
  282MOL0     H38020   5.280   3.639   1.377 -4.2401  1.6087 -0.2291
  282MOL0     H38021   5.150   3.493   1.031  1.1166  2.2487 -1.1392
  282MOL0     H38022   4.935   3.243   1.105  2.0714  1.1679 -0.7704
  282MOL0     H38023   4.806   3.366   1.140  0.5427 -1.2338  3.4501
  282MOL0     H38024   4.864   3.307   0.869  0.4541 -0.5351  0.5388
  282MOL0     H38025   5.011   3.390   0.899  0.2544 -0.8114 -2.4037
  282MOL0     H38026   4.854   3.551   0.815  1.0793  2.2547  0.5940
  282MOL0     H38027   4.873   3.598   0.979  0.0224 -1.5299 -0.1341
  282MOL0     H38028   4.646   3.605   0.907  1.8567  3.1335  1.4822
  282MOL0     H38029   4.677   3.508   1.052 -3.8368 -1.7766 -0.7542
  282MOL0     H38030   4.495   3.148   0.875 -2.5031 -1.0663 -2.6944
  282MOL0     H38031   4.355   3.002   0.922 -0.5443 -0.6505  1.8067
  282MOL0     H38032   4.236   3.035   1.046 -0.6335  0.3256 -0.5364
  282MOL0     H38033   4.188   3.049   0.876  0.2609 -1.9442 -1.8991
  282MOL0     H38034   3.806   3.253   0.836  0.7800  0.7005  0.3436
  282MOL0     H38035   3.563   3.217   0.893  1.3600  1.0895 -0.7030
  282MOL0     H38036   3.491   2.933   1.225  0.1946 -0.8448 -0.1953
  282MOL0     H38037   3.456   3.096   1.303 -2.9992 -0.0879  2.0574
  282MOL0     H38038   3.283   2.919   1.139  3.3991  0.5226 -1.0300
  282MOL0     H38039   3.282   2.920   1.318 -2.1220  3.1592  2.3736
  282MOL0     H38040   3.205   3.177   1.172  0.1529  1.0802  0.3260
  282MOL0     H38041   3.201   3.146   1.339  2.4216 -0.4027 -0.2266
  282MOL0     H38042   3.032   2.968   1.145 -0.7506 -0.7229  0.4331
  282MOL0     H38043   3.034   2.980   1.320 -0.5378  1.9479  1.5173
  282MOL0     H38044   2.974   3.214   1.146  3.5322 -0.9154  0.8074
  282MOL0     H38045   2.974   3.231   1.312  0.5656  1.1322 -0.7449
  282MOL0     H38046   2.787   3.019   1.192 -0.2718  0.2162  0.3547
  282MOL0     H38047   2.779   3.090   1.353 -1.1770  1.0715  0.1466
  282MOL0     H38048   2.733   3.244   1.080  0.3411  1.4046 -0.6650
  282MOL0     H38049   2.737   3.324   1.241 -1.3833 -1.5306  1.4594
  282MOL0     H38050   2.562   3.084   1.165 -2.6596 -0.2649  1.1278
  282MOL0     H38051   2.508   3.251   1.154  2.5762  1.3904 -1.3501
  282MOL0     H38052   3.695   3.031   1.262  2.0287  2.8940  1.5366
  282MOL0     H38053   3.917   3.046   1.186  1.3975  2.9479 -1.5088
  282MOL0     H38054   4.187   3.519   0.991 -0.4020 -1.1528 -1.1849
  282MOL0     H38055   4.429   3.578   0.921  1.4828  0.5703 -0.8073
  282MOL0     H38056   6.148   2.998   1.576  1.1795 -0.0928 -2.9245
  282MOL0     H38057   6.397   2.987   1.610 -0.4853 -1.5811  1.6565
  282MOL0     H38058   6.717   2.919   2.060  0.5222 -0.3999 -0.2287
  282MOL0     H38059   6.958   2.936   2.083 -2.8290 -2.8416 -0.5608
  282MOL0     H38060   7.223   3.005   1.739 -1.5375  0.8003 -0.1174
  282MOL0     H38061   7.205   3.166   1.799 -1.7483 -1.2572 -1.7809
  282MOL0     H38062   7.445   3.088   1.805  0.8099  1.6853  1.6601
  282MOL0     H38063   7.389   2.952   1.910 -3.2309 -0.0736 -0.3816
  282MOL0     H38064   7.312   3.139   2.071  0.5084  1.3019  0.2848
  282MOL0     H38065   7.392   3.256   1.957  1.5103  0.0930 -0.2965
  282MOL0     H38066   7.610   3.181   2.015  1.7154 -0.0230  1.6496
  282MOL0     H38067   7.549   3.035   2.093 -0.0439 -0.2967 -2.2971
  282MOL0     H38068   7.574   3.354   2.370 -0.1112 -0.2243 -0.0664
  282MOL0     H38069   6.991   3.139   1.707  1.6129 -0.0744 -0.0484
  282MOL0     H38070   6.772   3.170   1.712  4.2221  0.5436 -0.5532
  283MOL0     O38071   0.964   3.772   1.375  0.8613 -0.7085  0.6175
  283MOL0     C38072   0.916   3.858   1.304  0.8846 -0.0719  0.8791
  283MOL0     O38073   0.780   3.879   1.292  0.4609  0.1780  0.5084
  283MOL0     C38074   0.684   3.800   1.350  0.3718  0.4445 -0.1410
  283MOL0     C38075   0.630   3.686   1.294 -0.2111 -0.1139  0.2031
  283MOL0     C38076   0.510   3.622   1.333  0.0358 -0.7770 -0.6838
  283MOL0     C38077   0.440   3.673   1.443  0.4306  0.3990  0.5044
  283MOL0     O38078   0.317   3.628   1.489  0.4328 -0.1659 -0.1649
  283MOL0     C38079   0.290   3.493   1.474  0.3083 -0.1769  0.8426
  283MOL0     C38080   0.198   3.453   1.588 -0.3148 -0.0511  0.2031
  283MOL0     C38081   0.058   3.526   1.588  0.8111 -0.2132 -0.1679
  283MOL0     C38082  -0.052   3.417   1.625  0.1723 -0.2129  0.2025
  283MOL0     C38083  -0.191   3.477   1.624  0.2519  0.0304 -0.4870
  283MOL0     C38084  -0.296   3.383   1.683 -0.3551  0.2839  0.0326
  283MOL0     C38085  -0.438   3.452   1.677 -0.0544  1.1729  0.3879
  283MOL0     C38086  -0.486   3.495   1.534  0.0808  0.2867  0.2006
  283MOL0     N38087  -0.623   3.542   1.544  0.6774  0.2458  0.1675
  283MOL0     C38088  -0.650   3.680   1.555  0.0401 -0.6411  0.0410
  283MOL0     C38089  -0.787   3.683   1.578 -0.3222 -0.4472  0.6771
  283MOL0     C38090  -0.867   3.807   1.613  0.6816 -0.3922  0.7431
  283MOL0     C38091  -1.003   3.771   1.645  1.1757 -0.2824  0.2142
  283MOL0     C38092  -1.099   3.899   1.641  0.1902 -0.5771 -0.4287
  283MOL0     C38093  -1.243   3.865   1.684  0.1718  0.1952  0.4130
  283MOL0     O38094  -1.221   3.824   1.821  0.0136 -0.1458  0.3843
  283MOL0     C38095  -1.325   3.766   1.890 -0.5364 -0.2043  0.2669
  283MOL0     C38096  -1.443   3.710   1.840  0.9984 -0.1717 -0.0547
  283MOL0     C38097  -1.541   3.645   1.923 -0.0578 -0.3863  0.1685
  283MOL0     C38098  -1.663   3.583   1.850 -0.3784  0.3500 -0.4706
  283MOL0     C38099  -1.524   3.639   2.062  0.5223  0.7121 -0.2426
  283MOL0     C38100  -1.615   3.562   2.159  0.2330  0.1551  0.6914
  283MOL0     O38101  -1.563   3.525   2.280 -0.2362  0.5219  0.0913
  283MOL0     C38102  -1.635   3.444   2.363 -0.3582 -0.0997 -0.0180
  283MOL0     C38103  -1.695   3.495   2.481  0.1101  0.4708 -0.0107
  283MOL0     C38104  -1.756   3.411   2.583  0.3073 -0.2758  0.8650
  283MOL0     C38105  -1.764   3.273   2.551 -0.1034  1.3920 -0.0317
  283MOL0     O38106  -1.797   3.188   2.647 -0.1466  0.0911  0.6611
  283MOL0     C38107  -1.694   3.136   2.739  1.0652 -0.0039  0.6506
  283MOL0     C38108  -1.723   3.010   2.812 -0.2027 -0.7537 -0.9906
  283MOL0     C38109  -1.603   2.964   2.907  0.2687  0.3241 -0.3386
  283MOL0     C38110  -1.605   2.823   2.968 -0.3256 -0.3998  0.2559
  283MOL0     C38111  -1.605   2.711   2.869  0.6390 -0.0430 -0.3667
  283MOL0     C38112  -1.503   2.733   2.755 -0.9206  0.3321 -1.1635
  283MOL0     C38113  -1.468   2.594   2.688 -0.2795 -0.4394 -1.2505
  283MOL0     C38114  -1.391   2.622   2.564 -0.5001  0.5280  0.9445
  283MOL0    Cl38115  -1.242   2.724   2.589  0.3439 -0.1639 -0.2538
  283MOL0     C38116  -1.707   3.224   2.434 -0.0223  0.0646  0.3715
  283MOL0     C38117  -1.649   3.309   2.342 -0.0553  1.3651  0.1535
  283MOL0     O38118  -1.732   3.547   2.119  0.4232 -0.4804 -0.8368
  283MOL0     C38119  -1.397   3.688   2.107 -0.1927 -0.2342  0.0110
  283MOL0     C38120  -1.302   3.750   2.029  0.1485 -0.8893 -0.0921
  283MOL0     N38121  -0.831   3.551   1.593 -0.6437 -0.1713 -0.0778
  283MOL0     N38122  -0.733   3.473   1.577  0.0104  0.0588  0.6526
  283MOL0     C38123   0.488   3.791   1.496 -0.3419  0.4915  0.2569
  283MOL0     C38124   0.605   3.848   1.450  0.2112  0.3417 -0.1504
  283MOL0     C38125   0.996   3.951   1.220  0.5808 -0.5381 -0.0352
  283MOL0     C38126   1.127   3.924   1.210  0.3826 -0.1399 -0.3531
  283MOL0     C38127   1.217   4.025   1.161 -0.4515 -0.3041  0.9665
  283MOL0     C38128   1.162   4.152   1.127 -0.7294 -0.1368  0.2404
  283MOL0     O38129   1.255   4.242   1.081 -0.1144  0.8819 -0.2026
  283MOL0     C38130   1.223   4.364   1.029  0.3961  0.7093 -0.0166
  283MOL0     C38131   1.357   4.410   0.970 -0.3315  0.4944  1.0602
  283MOL0     C38132   1.339   4.556   0.900 -0.0038  0.4214  0.6289
  283MOL0     C38133   1.472   4.616   0.867 -0.2422 -0.6012  0.1681
  283MOL0     C38134   1.517   4.709   0.973 -0.7889 -0.6544 -0.2548
  283MOL0     C38135   1.551   4.792   1.055 -0.4034  0.2851  0.7701
  283MOL0     C38136   1.029   4.176   1.124  0.3064 -0.2748  0.1534
  283MOL0     C38137   0.946   4.075   1.178 -0.2017 -0.5625  0.2799
  283MOL0     H38138   0.676   3.643   1.206 -0.3894 -0.8546  0.4645
  283MOL0     H38139   0.474   3.540   1.273  0.4895  0.8584 -3.3908
  283MOL0     H38140   0.236   3.482   1.379  0.2508  0.3449  0.8139
  283MOL0     H38141   0.375   3.424   1.477 -0.7579 -1.6032  0.1111
  283MOL0     H38142   0.188   3.344   1.586 -0.1716 -0.1235  1.8810
  283MOL0     H38143   0.247   3.472   1.684 -1.0613  1.5339  0.2929
  283MOL0     H38144   0.049   3.602   1.666 -0.1634 -1.2826  0.7996
  283MOL0     H38145   0.027   3.566   1.491 -2.3264  0.4179  0.9965
  283MOL0     H38146  -0.044   3.332   1.557 -0.3553 -0.2201  0.1469
  283MOL0     H38147  -0.034   3.383   1.727  0.5011  1.5064  0.7404
  283MOL0     H38148  -0.201   3.572   1.678 -1.5167  1.2894 -2.8738
  283MOL0     H38149  -0.220   3.499   1.521  1.8017  1.5584 -0.6634
  283MOL0     H38150  -0.289   3.287   1.631 -1.7218 -0.1200  0.5309
  283MOL0     H38151  -0.282   3.365   1.790 -2.5706  2.2173  0.7307
  283MOL0     H38152  -0.511   3.380   1.715 -1.7376  0.7225 -3.1998
  283MOL0     H38153  -0.433   3.544   1.735 -3.7249  0.5268  2.0427
  283MOL0     H38154  -0.487   3.403   1.476 -0.1080  0.0717  0.5438
  283MOL0     H38155  -0.426   3.579   1.497  1.2189 -0.0666  1.1719
  283MOL0     H38156  -0.593   3.767   1.526 -1.2223 -0.7860 -3.3299
  283MOL0     H38157  -0.829   3.868   1.696  3.2213  0.3595 -0.8681
  283MOL0     H38158  -0.866   3.878   1.529 -0.5133  1.1002  1.9195
  283MOL0     H38159  -1.008   3.728   1.745 -3.6856  1.3620  0.9459
  283MOL0     H38160  -1.040   3.694   1.576  0.5395  0.2199 -0.0104
  283MOL0     H38161  -1.100   3.930   1.537 -0.5098 -2.9679 -1.1976
  283MOL0     H38162  -1.055   3.986   1.691 -0.0205  0.2364 -1.6277
  283MOL0     H38163  -1.278   3.793   1.609 -0.1563  0.5753  0.1997
  283MOL0     H38164  -1.309   3.952   1.677 -1.2896 -0.8553  0.8548
  283MOL0     H38165  -1.452   3.703   1.732  0.2949 -2.9475  0.0891
  283MOL0     H38166  -1.650   3.586   1.741 -1.3916  1.0404 -0.5849
  283MOL0     H38167  -1.681   3.479   1.878 -0.0646 -0.4538 -2.9727
  283MOL0     H38168  -1.753   3.643   1.868 -1.9631 -0.7058 -3.9531
  283MOL0     H38169  -1.682   3.602   2.494  1.1789  0.4755 -0.9937
  283MOL0     H38170  -1.787   3.445   2.681 -0.4920  3.3293 -0.4832
  283MOL0     H38171  -1.595   3.123   2.694  2.1099 -0.5628  2.9211
  283MOL0     H38172  -1.701   3.215   2.814 -1.3019 -1.8728  2.5899
  283MOL0     H38173  -1.811   3.032   2.874 -0.3531 -3.6070 -0.0228
  283MOL0     H38174  -1.749   2.938   2.733 -1.6128 -2.1222  0.6308
  283MOL0     H38175  -1.587   3.033   2.990  2.7719  0.0413 -0.5014
  283MOL0     H38176  -1.510   2.955   2.850  0.2596 -2.3580 -0.0585
  283MOL0     H38177  -1.516   2.825   3.031  0.9407  0.7255 -1.4681
  283MOL0     H38178  -1.694   2.820   3.032 -0.6008  1.0766 -0.0203
  283MOL0     H38179  -1.702   2.702   2.820  1.2641  2.1137 -2.1866
  283MOL0     H38180  -1.593   2.616   2.922  1.3638  0.9834  1.3866
  283MOL0     H38181  -1.540   2.803   2.680  0.4369  1.1618 -1.0962
  283MOL0     H38182  -1.415   2.776   2.804 -2.8430 -0.2651  3.2518
  283MOL0     H38183  -1.559   2.542   2.656 -2.0392  1.6662  0.0594
  283MOL0     H38184  -1.416   2.524   2.754 -1.4750 -0.5123 -0.3500
  283MOL0     H38185  -1.461   2.655   2.487 -1.5839 -1.8619  0.7914
  283MOL0     H38186  -1.346   2.531   2.523  1.1378  1.6958  0.0670
  283MOL0     H38187  -1.715   3.120   2.405 -1.3091  0.4647 -0.8002
  283MOL0     H38188  -1.612   3.272   2.247 -0.8467  0.9364  0.0026
  283MOL0     H38189  -1.378   3.660   2.210  2.1007  1.9519  0.2672
  283MOL0     H38190  -1.209   3.772   2.080 -2.0995 -1.1517  4.6367
  283MOL0     H38191   0.438   3.842   1.579 -0.5910  0.1848  0.2963
  283MOL0     H38192   0.633   3.936   1.507  1.2119  0.1216 -0.2772
  283MOL0     H38193   1.174   3.841   1.262  2.1954 -0.6273 -2.5711
  283MOL0     H38194   1.324   4.018   1.173 -0.0844  3.5246  1.1425
  283MOL0     H38195   1.148   4.347   0.951  0.5618  0.3919 -0.1111
  283MOL0     H38196   1.176   4.427   1.105 -3.8233 -1.4509 -0.5626
  283MOL0     H38197   1.396   4.338   0.897 -3.6037  0.9527 -1.3481
  283MOL0     H38198   1.433   4.431   1.046 -0.1934  0.6398  0.8835
  283MOL0     H38199   1.285   4.620   0.971  2.7270  1.3788  1.9663
  283MOL0     H38200   1.283   4.539   0.808 -0.0351  1.0657  0.5248
  283MOL0     H38201   1.474   4.678   0.777  0.8118  1.2808  1.4434
  283MOL0     H38202   1.546   4.541   0.837 -0.5991 -0.6943 -0.5088
  283MOL0     H38203   1.593   4.846   1.138  0.3086 -0.2869  0.7881
  283MOL0     H38204   0.967   4.257   1.086 -0.0057 -0.6557 -0.1593
  283MOL0     H38205   0.838   4.087   1.172 -0.3048 -1.8059 -0.7495
  284MOL0     O38206  10.757   7.152   1.483  0.3671 -0.0862 -0.1385
  284MOL0     C38207  10.827   7.129   1.387 -0.4826  0.3322  0.1003
  284MOL0     O38208  10.782   7.137   1.254 -0.0755  1.2077 -0.7781
  284MOL0     C38209  10.656   7.155   1.207  0.2488 -0.5260 -0.1736
  284MOL0     C38210  10.544   7.122   1.287  0.3953 -0.4025 -0.2504
  284MOL0     C38211  10.416   7.127   1.237  0.3753 -0.7206 -0.2009
  284MOL0     C38212  10.385   7.185   1.110  1.2013  0.8258 -0.4057
  284MOL0     O38213  10.257   7.201   1.072  0.7971 -0.7038  0.0330
  284MOL0     C38214  10.149   7.123   1.132 -0.5153 -0.3037 -0.0296
  284MOL0     C38215  10.152   6.975   1.108 -0.1727  0.3721 -0.6698
  284MOL0     C38216  10.018   6.908   1.166 -0.0560  0.9050 -0.0897
  284MOL0     C38217   9.881   6.942   1.108  0.2322 -0.1084  0.1820
  284MOL0     C38218   9.774   6.842   1.152 -0.2163  0.5054  0.6018
  284MOL0     C38219   9.640   6.875   1.088 -0.0420 -0.0716  0.0528
  284MOL0     C38220   9.641   6.860   0.938 -0.0749 -0.7746  0.2489
  284MOL0     C38221   9.510   6.861   0.862  0.6960 -0.7648  0.0961
  284MOL0     N38222   9.416   6.762   0.901  0.3163 -0.2678  0.2812
  284MOL0     C38223   9.334   6.777   1.008  0.4983 -0.4467  0.1535
  284MOL0     C38224   9.277   6.657   1.025 -0.4724  0.4038  0.0221
  284MOL0     C38225   9.195   6.625   1.153 -0.1798  0.5492  0.5949
  284MOL0     C38226   9.056   6.691   1.148 -0.9407 -0.2044 -0.7823
  284MOL0     C38227   8.968   6.650   1.267  0.8252 -0.3214  0.0275
  284MOL0     C38228   8.849   6.570   1.243  0.0123 -0.3911  0.3502
  284MOL0     O38229   8.760   6.645   1.156 -0.4112  0.1448  0.6756
  284MOL0     C38230   8.642   6.678   1.213  0.2818 -0.7412  0.1917
  284MOL0     C38231   8.641   6.766   1.323 -0.5331 -0.7947 -0.2743
  284MOL0     C38232   8.524   6.804   1.379 -0.4736 -0.0705 -0.6844
  284MOL0     C38233   8.533   6.909   1.488 -0.7493 -0.0347  0.0920
  284MOL0     C38234   8.404   6.751   1.331  0.6492  0.4741  0.7151
  284MOL0     C38235   8.274   6.785   1.396 -1.2882  0.5543  0.2124
  284MOL0     O38236   8.160   6.798   1.323  0.3730 -0.4150 -0.1626
  284MOL0     C38237   8.059   6.879   1.359 -0.6075 -0.0654  0.8724
  284MOL0     C38238   8.046   6.979   1.459  0.5231 -0.2267 -0.0229
  284MOL0     C38239   7.921   7.041   1.477  0.0387  0.0501  0.4765
  284MOL0     C38240   7.813   7.019   1.397 -0.0519 -0.1192  1.0599
  284MOL0     O38241   7.694   7.084   1.428 -0.0439 -0.0513  0.2478
  284MOL0     C38242   7.596   6.996   1.478  0.6435  0.0410 -0.5810
  284MOL0     C38243   7.622   6.988   1.630  0.3394 -0.1552 -0.4839
  284MOL0     C38244   7.517   6.920   1.723 -0.0947  0.1506 -0.4285
  284MOL0     C38245   7.388   6.995   1.710  0.0552 -0.1993 -0.5449
  284MOL0     C38246   7.284   6.974   1.823  0.2732 -0.1181  0.0838
  284MOL0     C38247   7.248   6.820   1.834  0.9391  0.0622  0.0637
  284MOL0     C38248   7.125   6.802   1.925  0.1718 -0.7385 -0.8974
  284MOL0     C38249   7.126   6.653   1.974  0.0749  0.2917  0.1641
  284MOL0    Cl38250   7.106   6.538   1.832 -0.1108  0.3753 -0.0183
  284MOL0     C38251   7.831   6.918   1.302 -0.4000  0.4927  0.4674
  284MOL0     C38252   7.948   6.855   1.284 -1.4376 -0.7244  0.0403
  284MOL0     O38253   8.279   6.782   1.514 -0.2827 -0.1818 -0.4552
  284MOL0     C38254   8.413   6.658   1.234  0.3973  0.6442  0.3077
  284MOL0     C38255   8.528   6.610   1.174  0.5148 -0.0505 -0.9511
  284MOL0     N38256   9.322   6.576   0.922 -0.0247  0.5299 -0.4522
  284MOL0     N38257   9.406   6.639   0.843 -0.1715 -0.0379  0.1522
  284MOL0     C38258  10.499   7.226   1.037  0.7252 -0.2195 -0.7718
  284MOL0     C38259  10.628   7.211   1.087 -0.2116  0.6592  0.3818
  284MOL0     C38260  10.964   7.075   1.417  0.0329 -0.2353 -0.3212
  284MOL0     C38261  11.016   7.078   1.550 -0.0769  0.6079  0.0300
  284MOL0     C38262  11.138   7.017   1.575  0.8054  1.0177 -0.1938
  284MOL0     C38263  11.217   6.962   1.472 -0.0614  0.5986 -0.5911
  284MOL0     O38264  11.340   6.907   1.492  0.0123  0.1119 -0.6607
  284MOL0     C38265  11.338   6.770   1.536 -0.4655  0.2020 -0.6157
  284MOL0     C38266  11.474   6.704   1.572 -0.8246  0.3434  0.3589
  284MOL0     C38267  11.586   6.727   1.476  0.7947  0.6637 -0.1036
  284MOL0     C38268  11.661   6.867   1.480 -0.0769 -0.6459  0.2006
  284MOL0     C38269  11.734   6.883   1.610 -0.2033 -0.4267  0.5110
  284MOL0     C38270  11.803   6.904   1.709 -0.1620  0.1673 -0.4948
  284MOL0     C38271  11.170   6.968   1.339 -0.3362 -0.0362 -0.0109
  284MOL0     C38272  11.041   7.018   1.308 -0.3747  0.1803 -0.2655
  284MOL0     H38273  10.551   7.091   1.391  2.6075  1.5528  0.2481
  284MOL0     H38274  10.338   7.098   1.307 -1.7313  1.2406 -1.6111
  284MOL0     H38275  10.135   7.149   1.238 -0.6517 -3.1604  0.7364
  284MOL0     H38276  10.054   7.159   1.092 -0.2421  2.0208  1.2289
  284MOL0     H38277  10.158   6.954   1.001 -1.7220 -0.5358 -0.6107
  284MOL0     H38278  10.240   6.941   1.163 -1.9684 -0.2961  2.0397
  284MOL0     H38279  10.027   6.800   1.153  0.3865  0.7619  1.1898
  284MOL0     H38280  10.022   6.936   1.272 -1.8831 -1.2350  0.6375
  284MOL0     H38281   9.864   7.045   1.142  0.7994  0.5110 -1.3129
  284MOL0     H38282   9.888   6.945   0.998  2.6735 -1.6445  0.2188
  284MOL0     H38283   9.797   6.738   1.127  0.1109 -0.2583  3.7337
  284MOL0     H38284   9.767   6.842   1.261 -1.2459 -4.2516  0.7313
  284MOL0     H38285   9.570   6.803   1.133  0.7675 -1.2346 -0.4971
  284MOL0     H38286   9.608   6.978   1.106 -0.5140 -0.1451 -0.3316
  284MOL0     H38287   9.696   6.948   0.904 -0.0142  0.5469  3.4459
  284MOL0     H38288   9.687   6.768   0.899 -0.7932 -1.9528  2.0396
  284MOL0     H38289   9.540   6.845   0.758  2.2611 -1.5064  0.6420
  284MOL0     H38290   9.460   6.957   0.883  0.0493 -1.2336  0.7367
  284MOL0     H38291   9.319   6.863   1.072 -4.0504  0.0221 -1.1977
  284MOL0     H38292   9.183   6.516   1.151  1.6486  0.3126  0.7656
  284MOL0     H38293   9.246   6.658   1.244  0.6058 -1.5365  0.9644
  284MOL0     H38294   9.011   6.655   1.055 -1.2488  1.5311 -1.3452
  284MOL0     H38295   9.070   6.799   1.143  2.2518  0.2725  6.2621
  284MOL0     H38296   8.942   6.739   1.325  2.4343  0.4695 -0.4162
  284MOL0     H38297   9.034   6.592   1.332  1.4015 -0.0573 -0.3198
  284MOL0     H38298   8.802   6.544   1.338  0.1016  0.4412  0.6325
  284MOL0     H38299   8.877   6.475   1.197 -0.2966 -0.8787  1.1543
  284MOL0     H38300   8.732   6.812   1.360 -0.4519 -1.0746 -0.1240
  284MOL0     H38301   8.465   6.992   1.467 -0.9958 -0.4671 -0.8307
  284MOL0     H38302   8.511   6.862   1.584  0.4581 -1.0039 -0.0887
  284MOL0     H38303   8.632   6.956   1.489 -1.7124  2.1536 -0.5692
  284MOL0     H38304   8.130   7.000   1.525  1.8669 -1.2002 -1.3398
  284MOL0     H38305   7.903   7.125   1.542 -0.1301  0.7090 -0.3946
  284MOL0     H38306   7.498   7.045   1.467 -0.3918 -1.8600 -0.2165
  284MOL0     H38307   7.593   6.896   1.436 -0.0274  0.4519 -1.5366
  284MOL0     H38308   7.718   6.938   1.641  2.2216  3.4874  2.0417
  284MOL0     H38309   7.635   7.089   1.672 -0.5828 -1.1098  2.3559
  284MOL0     H38310   7.546   6.918   1.828  2.3532 -1.1859 -1.0511
  284MOL0     H38311   7.498   6.817   1.692  1.5046 -0.3091  0.0406
  284MOL0     H38312   7.417   7.100   1.703  1.3402 -0.6191 -2.2910
  284MOL0     H38313   7.329   6.967   1.622 -2.0767 -1.9330  1.3182
  284MOL0     H38314   7.192   7.030   1.808  0.3739 -0.2428 -1.1143
  284MOL0     H38315   7.327   7.009   1.918 -0.0686 -0.7507  0.4756
  284MOL0     H38316   7.218   6.802   1.731  0.8053 -0.6909  0.2337
  284MOL0     H38317   7.338   6.771   1.870  1.1413 -0.1963 -0.7784
  284MOL0     H38318   7.028   6.830   1.883  0.1616 -1.6205 -1.4928
  284MOL0     H38319   7.128   6.869   2.012 -1.4948 -0.5974 -0.9193
  284MOL0     H38320   7.047   6.637   2.048 -0.1128  2.5205  0.5061
  284MOL0     H38321   7.220   6.625   2.024 -1.5743 -1.9569  2.2253
  284MOL0     H38322   7.740   6.886   1.251  1.6471  0.5162 -3.5824
  284MOL0     H38323   7.953   6.774   1.212 -0.4987 -0.5009 -0.1492
  284MOL0     H38324   8.319   6.613   1.205  0.5177  0.6373 -0.0726
  284MOL0     H38325   8.527   6.530   1.101  2.2898 -1.7067  0.7121
  284MOL0     H38326  10.487   7.287   0.947 -0.6206  2.5985  1.1822
  284MOL0     H38327  10.699   7.263   1.023 -2.0314  0.8311 -1.6336
  284MOL0     H38328  10.969   7.121   1.638 -0.7964 -0.1791  0.0448
  284MOL0     H38329  11.178   7.025   1.675 -0.3643 -3.1968  0.8243
  284MOL0     H38330  11.280   6.759   1.628  1.8224 -0.4236  0.8512
  284MOL0     H38331  11.296   6.709   1.456  3.5893 -1.5949 -1.6562
  284MOL0     H38332  11.464   6.597   1.592  0.7396  0.3278  1.2009
  284MOL0     H38333  11.514   6.749   1.663  1.0413  0.1909 -0.3507
  284MOL0     H38334  11.538   6.701   1.381 -1.6611 -0.8983  1.4328
  284MOL0     H38335  11.662   6.653   1.503 -1.0547 -0.1874  3.3956
  284MOL0     H38336  11.587   6.945   1.461  0.2625 -0.3987 -0.1116
  284MOL0     H38337  11.731   6.847   1.398 -0.6494 -2.3413  0.0687
  284MOL0     H38338  11.862   6.928   1.795 -0.6186  0.3131 -0.2154
  284MOL0     H38339  11.228   6.934   1.253 -0.1491 -1.3206  0.6074
  284MOL0     H38340  11.013   7.044   1.207 -0.8331  1.7072  0.2183
  285MOL0     O38341   5.395   5.025   8.426  0.2621 -0.8674 -0.4087
  285MOL0     C38342   5.442   5.054   8.315 -0.2553 -0.6518  0.1366
  285MOL0     O38343   5.374   5.095   8.208 -0.1575 -0.0892 -0.1491
  285MOL0     C38344   5.245   5.097   8.216 -0.6668  0.2032 -0.0541
  285MOL0     C38345   5.179   5.021   8.115 -1.0604 -0.4663  0.3245
  285MOL0     C38346   5.041   5.005   8.114 -0.1351  0.6873  0.0613
  285MOL0     C38347   4.967   5.077   8.205 -0.2166  0.3438  0.1303
  285MOL0     O38348   4.825   5.058   8.212 -0.5657  0.4730 -0.3336
  285MOL0     C38349   4.746   5.166   8.262  0.3686  0.1849  0.4654
  285MOL0     C38350   4.600   5.160   8.222  0.0419  0.1005  0.0410
  285MOL0     C38351   4.521   5.065   8.309 -0.8760 -0.2768 -0.3269
  285MOL0     C38352   4.375   5.054   8.259  0.5476  0.4584  0.8576
  285MOL0     C38353   4.297   4.947   8.333  0.3624 -0.3175 -0.8357
  285MOL0     C38354   4.169   4.916   8.262  0.6271  0.2259  0.2839
  285MOL0     C38355   4.076   5.034   8.234  0.1605  0.3795  0.5531
  285MOL0     C38356   3.950   4.984   8.159  1.1097  0.0010 -0.4930
  285MOL0     N38357   3.946   4.979   8.016 -0.3646  0.3451  0.1403
  285MOL0     C38358   3.981   5.078   7.930 -0.6989  0.3375  1.1679
  285MOL0     C38359   3.928   5.046   7.808 -0.2509 -0.4842 -0.9168
  285MOL0     C38360   3.942   5.124   7.673 -0.6053  0.2017  0.5596
  285MOL0     C38361   3.813   5.206   7.665 -0.2773 -0.1175 -0.4087
  285MOL0     C38362   3.807   5.258   7.521  1.0753 -0.1071 -1.0471
  285MOL0     C38363   3.700   5.358   7.491 -0.4658  0.8688 -0.8138
  285MOL0     O38364   3.565   5.304   7.522  0.4247  0.1621 -0.0369
  285MOL0     C38365   3.485   5.345   7.626 -0.2193  0.2036 -0.5243
  285MOL0     C38366   3.540   5.413   7.739  0.4461 -0.2681  0.1284
  285MOL0     C38367   3.446   5.471   7.836 -0.0417  0.3393  0.1719
  285MOL0     C38368   3.513   5.523   7.963 -0.1124  0.4900  0.3732
  285MOL0     C38369   3.304   5.441   7.824  0.6948  0.2773 -0.2995
  285MOL0     C38370   3.206   5.471   7.923 -0.0769  0.0861  0.2536
  285MOL0     O38371   3.104   5.387   7.928 -0.0234 -0.0354 -0.4950
  285MOL0     C38372   3.003   5.405   8.018  0.0201 -0.3724 -0.1945
  285MOL0     C38373   3.005   5.318   8.119 -0.5082  0.5358 -0.1528
  285MOL0     C38374   2.896   5.325   8.210 -0.6256 -0.0310 -0.0280
  285MOL0     C38375   2.796   5.422   8.196 -0.0301  0.5998 -0.1976
  285MOL0     O38376   2.692   5.428   8.278 -0.2423 -0.9905 -0.3005
  285MOL0     C38377   2.566   5.431   8.218  0.0161 -0.1699  0.7838
  285MOL0     C38378   2.461   5.480   8.307  0.3951  0.1364  0.4752
  285MOL0     C38379   2.440   5.398   8.434  0.3784  0.2608 -0.5489
  285MOL0     C38380   2.357   5.472   8.544 -0.0114 -0.5944 -0.4539
  285MOL0     C38381   2.205   5.458   8.500  0.2635  0.1571  0.5285
  285MOL0     C38382   2.123   5.517   8.615  0.2549 -0.4730  0.3297
  285MOL0     C38383   1.977   5.483   8.605 -0.7437 -0.3355 -0.6476
  285MOL0     C38384   1.896   5.574   8.696  0.1444  0.4109  0.1803
  285MOL0    Cl38385   1.918   5.519   8.871  0.3197 -0.0170 -0.5142
  285MOL0     C38386   2.807   5.522   8.092 -0.0157  0.4710 -0.5343
  285MOL0     C38387   2.918   5.514   8.005  0.6350 -0.1982  0.9108
  285MOL0     O38388   3.215   5.580   7.983  0.3519 -0.5780 -0.2083
  285MOL0     C38389   3.259   5.369   7.712 -0.5641 -0.0998 -0.5805
  285MOL0     C38390   3.346   5.330   7.612  0.2851  0.4682  0.9984
  285MOL0     N38391   3.856   4.932   7.825 -0.7636 -0.7090  0.1455
  285MOL0     N38392   3.868   4.888   7.945 -0.5494 -0.2599  0.0838
  285MOL0     C38393   5.028   5.160   8.299 -0.0594 -0.6665 -0.4893
  285MOL0     C38394   5.167   5.162   8.309  0.1536  0.0008  0.3610
  285MOL0     C38395   5.588   5.044   8.300  0.2464 -0.4230 -0.2976
  285MOL0     C38396   5.646   5.100   8.182  0.1168  0.6169 -0.2265
  285MOL0     C38397   5.790   5.102   8.170 -0.2639  0.2927  0.0843
  285MOL0     C38398   5.881   5.045   8.265  0.4406 -0.6306  0.1945
  285MOL0     O38399   6.014   5.045   8.262 -0.3216 -0.5269 -0.4013
  285MOL0     C38400   6.090   5.082   8.145 -0.2056  0.4023 -0.6503
  285MOL0     C38401   6.235   5.116   8.187 -0.3668 -0.1590 -0.0936
  285MOL0     C38402   6.341   5.100   8.076 -0.7532 -1.1215  0.0780
  285MOL0     C38403   6.297   5.148   7.934  0.3336 -0.1620 -0.0830
  285MOL0     C38404   6.406   5.181   7.842  0.1775  0.2419 -1.1904
  285MOL0     C38405   6.506   5.199   7.779 -0.1439 -1.0414 -0.7010
  285MOL0     C38406   5.817   4.993   8.377 -0.9195 -0.2988  0.4459
  285MOL0     C38407   5.677   4.995   8.396  0.2198 -0.3887  0.0587
  285MOL0     H38408   5.244   4.975   8.042 -0.0851  1.2370  0.0605
  285MOL0     H38409   4.997   4.933   8.046  1.8668 -1.2055  0.6305
  285MOL0     H38410   4.739   5.152   8.370 -1.1356  2.2348  0.7054
  285MOL0     H38411   4.781   5.265   8.232 -0.9726 -0.4269 -3.7592
  285MOL0     H38412   4.563   5.263   8.214 -0.5385 -0.2248 -2.6640
  285MOL0     H38413   4.590   5.130   8.117 -1.4710 -1.9505  0.7073
  285MOL0     H38414   4.572   4.969   8.315 -2.3147 -1.0182  0.6368
  285MOL0     H38415   4.525   5.119   8.405 -0.0089 -1.3016  0.2319
  285MOL0     H38416   4.317   5.147   8.261 -0.3319  0.2076 -3.4623
  285MOL0     H38417   4.372   5.020   8.155 -1.2123  0.8056  0.7612
  285MOL0     H38418   4.361   4.859   8.335 -0.9529 -1.3632 -2.2670
  285MOL0     H38419   4.279   4.974   8.438  1.5888 -0.3497 -0.5972
  285MOL0     H38420   4.201   4.859   8.175 -1.5944 -2.0006  0.8202
  285MOL0     H38421   4.117   4.835   8.315  0.4120  0.0997 -0.1158
  285MOL0     H38422   4.040   5.088   8.322  0.0047  2.6278 -0.7989
  285MOL0     H38423   4.119   5.110   8.168 -1.0135 -0.1403 -0.8829
  285MOL0     H38424   3.861   5.041   8.188 -1.1131 -2.9344 -1.0605
  285MOL0     H38425   3.917   4.886   8.194  0.0769  0.4471 -0.1590
  285MOL0     H38426   4.053   5.155   7.954  0.8792 -1.0794  1.1536
  285MOL0     H38427   4.029   5.190   7.672 -2.0783  2.4581  3.7172
  285MOL0     H38428   3.947   5.049   7.593 -1.0571  1.1890 -0.4165
  285MOL0     H38429   3.818   5.289   7.736  2.9405  0.9876 -1.7190
  285MOL0     H38430   3.728   5.142   7.689  0.9338 -0.7666  2.6271
  285MOL0     H38431   3.796   5.178   7.446  1.8584 -0.7705 -0.4729
  285MOL0     H38432   3.903   5.305   7.497  1.1541  0.7756  0.8453
  285MOL0     H38433   3.714   5.393   7.388 -0.0067 -3.7119 -2.5418
  285MOL0     H38434   3.718   5.444   7.557  3.2515 -0.2575 -0.1324
  285MOL0     H38435   3.648   5.412   7.752  0.7226 -1.2818 -1.7669
  285MOL0     H38436   3.552   5.625   7.956 -1.7457  1.0578 -0.8549
  285MOL0     H38437   3.444   5.512   8.047 -1.8820 -1.1693 -1.1917
  285MOL0     H38438   3.601   5.459   7.977  1.3578  1.2762 -3.9222
  285MOL0     H38439   3.083   5.243   8.117 -0.4161  0.5909  0.9644
  285MOL0     H38440   2.892   5.256   8.294 -1.3914 -0.5971 -0.5141
  285MOL0     H38441   2.553   5.499   8.133 -1.0493  0.7189  1.6214
  285MOL0     H38442   2.546   5.329   8.184 -0.3964 -0.5264  2.0559
  285MOL0     H38443   2.498   5.575   8.347  1.9693 -1.1463  2.2561
  285MOL0     H38444   2.366   5.495   8.256  0.1745 -1.4509  0.3635
  285MOL0     H38445   2.542   5.378   8.469  0.7575  0.3981 -1.5411
  285MOL0     H38446   2.393   5.304   8.403 -2.1030  1.2538 -0.0479
  285MOL0     H38447   2.378   5.428   8.642 -3.4115  1.4910  1.4232
  285MOL0     H38448   2.384   5.578   8.548  1.3241 -0.9309  2.7002
  285MOL0     H38449   2.179   5.352   8.502  2.1596 -0.3418  0.7218
  285MOL0     H38450   2.181   5.509   8.406 -1.0415  0.6847  1.1349
  285MOL0     H38451   2.165   5.478   8.708 -1.4796  1.1501  1.8695
  285MOL0     H38452   2.141   5.625   8.605 -1.7057 -0.2408 -1.4773
  285MOL0     H38453   1.965   5.379   8.639  3.6970 -0.6081  0.7449
  285MOL0     H38454   1.936   5.488   8.504 -1.6269 -0.1065 -0.2855
  285MOL0     H38455   1.789   5.573   8.673 -0.1186 -1.4876  1.3090
  285MOL0     H38456   1.920   5.680   8.686  0.4318  0.1649 -2.3597
  285MOL0     H38457   2.739   5.606   8.097 -1.5214 -0.7915  2.6818
  285MOL0     H38458   2.931   5.582   7.922 -1.4979  0.1796  0.8440
  285MOL0     H38459   3.153   5.351   7.698 -1.0082  2.7542 -1.4645
  285MOL0     H38460   3.308   5.271   7.530  1.3263 -1.0000  1.5307
  285MOL0     H38461   4.982   5.219   8.377 -0.9130 -0.0252 -1.4478
  285MOL0     H38462   5.223   5.219   8.382  1.4505 -2.1204  1.1322
  285MOL0     H38463   5.584   5.146   8.106 -0.2969  1.5446  0.6512
  285MOL0     H38464   5.817   5.140   8.072 -0.6874  0.1758 -0.0839
  285MOL0     H38465   6.083   4.990   8.086 -2.0539  0.0341  0.0821
  285MOL0     H38466   6.050   5.169   8.092 -0.9828 -0.2640 -1.1747
  285MOL0     H38467   6.268   5.039   8.257  1.3127 -0.2180 -0.8896
  285MOL0     H38468   6.240   5.216   8.233  1.0062  0.6488 -1.8741
  285MOL0     H38469   6.371   4.995   8.076  1.6492 -0.5178  1.3074
  285MOL0     H38470   6.432   5.154   8.106  1.5383 -3.8874 -1.3278
  285MOL0     H38471   6.230   5.235   7.933 -0.0050 -0.4180  0.1950
  285MOL0     H38472   6.241   5.063   7.894 -0.8678 -0.0007  1.1704
  285MOL0     H38473   6.593   5.205   7.718  1.1727 -0.2965  1.1497
  285MOL0     H38474   5.893   4.964   8.448 -1.2191  1.1211  1.4141
  285MOL0     H38475   5.647   4.957   8.493 -0.9423  1.0026  0.2723
  286MOL0     O38476   4.880   6.310   3.390  0.3965  0.2274 -0.2318
  286MOL0     C38477   4.848   6.234   3.303 -0.0181  0.4308 -0.1031
  286MOL0     O38478   4.716   6.171   3.291 -0.3563  0.1779 -0.0081
  286MOL0     C38479   4.616   6.205   3.379 -0.5755  0.2631 -0.1591
  286MOL0     C38480   4.583   6.339   3.402  0.4121 -1.0510 -0.2121
  286MOL0     C38481   4.465   6.366   3.469  0.7804 -1.0840 -0.2749
  286MOL0     C38482   4.386   6.264   3.521  0.0534  0.3353 -0.5338
  286MOL0     O38483   4.277   6.300   3.604 -0.2872 -0.1781  0.1855
  286MOL0     C38484   4.257   6.214   3.714  0.2704 -0.7710 -0.8476
  286MOL0     C38485   4.178   6.273   3.833 -0.6386 -0.4469  0.1785
  286MOL0     C38486   4.035   6.312   3.797  0.4188  0.3498  0.2729
  286MOL0     C38487   3.937   6.199   3.840  0.6115 -0.5692  0.0539
  286MOL0     C38488   3.784   6.229   3.819 -0.1253  0.6077  0.2862
  286MOL0     C38489   3.750   6.252   3.677 -0.6345 -0.0517 -0.2278
  286MOL0     C38490   3.605   6.248   3.643  0.0779  0.3084 -0.4836
  286MOL0     C38491   3.525   6.359   3.713 -0.7909 -0.0006 -0.1132
  286MOL0     N38492   3.380   6.351   3.673 -0.4823  0.3107 -0.0019
  286MOL0     C38493   3.293   6.454   3.695 -1.0487  0.6498  0.2384
  286MOL0     C38494   3.181   6.411   3.640 -0.5291  0.8218 -0.1008
  286MOL0     C38495   3.057   6.490   3.647  0.0451  0.4554 -0.1517
  286MOL0     C38496   3.011   6.529   3.510  0.1092  0.2170  0.2774
  286MOL0     C38497   2.881   6.603   3.504  0.0814  0.5454  0.3838
  286MOL0     C38498   2.840   6.611   3.351  0.2387  0.4756 -0.4867
  286MOL0     O38499   2.704   6.652   3.342  0.0782 -1.0963  0.1901
  286MOL0     C38500   2.639   6.633   3.226  0.9635  0.0515  0.2782
  286MOL0     C38501   2.509   6.684   3.224  0.1621  0.4401 -0.1555
  286MOL0     C38502   2.434   6.694   3.102 -0.4748 -0.1138  0.5043
  286MOL0     C38503   2.297   6.741   3.109  0.3393 -0.1688  0.0979
  286MOL0     C38504   2.497   6.653   2.981 -0.7966  0.1399 -0.4883
  286MOL0     C38505   2.431   6.663   2.848 -0.6086  0.7689 -0.8529
  286MOL0     O38506   2.322   6.737   2.836 -0.1890  0.3975  0.1571
  286MOL0     C38507   2.243   6.716   2.729 -1.2839  2.1305 -0.0742
  286MOL0     C38508   2.110   6.680   2.749 -0.9555  0.5861 -0.4517
  286MOL0     C38509   2.032   6.658   2.640  0.3204 -0.0355 -0.2766
  286MOL0     C38510   2.078   6.687   2.503  0.1856  0.3458 -0.6177
  286MOL0     O38511   1.995   6.648   2.406  0.3732 -0.8873  0.4260
  286MOL0     C38512   1.991   6.725   2.286 -0.2174 -0.8017 -0.0155
  286MOL0     C38513   1.864   6.694   2.201  0.4176  0.0053  0.2544
  286MOL0     C38514   1.816   6.551   2.222  0.1482 -1.0221  0.5119
  286MOL0     C38515   1.701   6.514   2.129 -0.4148 -0.3858 -0.0899
  286MOL0     C38516   1.597   6.422   2.194  0.5151  0.6564 -0.3423
  286MOL0     C38517   1.661   6.285   2.229  0.1560 -0.1300 -0.1627
  286MOL0     C38518   1.559   6.181   2.256  0.1341 -0.3611  0.2521
  286MOL0     C38519   1.630   6.053   2.291  0.4379  1.1897 -0.2397
  286MOL0    Cl38520   1.698   5.959   2.148  0.1649 -0.0352 -0.1328
  286MOL0     C38521   2.207   6.724   2.480 -0.8795 -0.9238 -0.2297
  286MOL0     C38522   2.290   6.742   2.592  0.3404  0.2284  0.1644
  286MOL0     O38523   2.496   6.606   2.763  0.7260 -0.0591  0.6841
  286MOL0     C38524   2.620   6.581   2.990  0.7018 -0.0444 -0.0079
  286MOL0     C38525   2.694   6.585   3.107  0.2907 -0.5722  0.3656
  286MOL0     N38526   3.194   6.289   3.583 -0.1318 -0.1177  0.2566
  286MOL0     N38527   3.320   6.252   3.603  0.6359  0.0923 -0.7380
  286MOL0     C38528   4.424   6.130   3.492  0.0688 -0.1351 -0.4815
  286MOL0     C38529   4.532   6.101   3.426 -0.5976  0.4667  0.1401
  286MOL0     C38530   4.933   6.218   3.182 -0.6080 -0.3421  0.6584
  286MOL0     C38531   4.875   6.170   3.063 -0.4684 -0.5441 -0.3356
  286MOL0     C38532   4.955   6.180   2.948  0.0574  0.1135 -0.6726
  286MOL0     C38533   5.089   6.220   2.951 -0.0818 -0.1904 -0.1981
  286MOL0     O38534   5.158   6.223   2.837  0.1252 -0.2040  0.5386
  286MOL0     C38535   5.284   6.285   2.813  0.3375  0.4810 -0.5046
  286MOL0     C38536   5.397   6.186   2.844 -0.4320  0.3090  0.9144
  286MOL0     C38537   5.531   6.247   2.815 -0.1188 -0.0001  0.2919
  286MOL0     C38538   5.567   6.356   2.922 -0.3421 -0.4594 -0.5639
  286MOL0     C38539   5.532   6.490   2.871 -0.1502 -0.1157 -0.8272
  286MOL0     C38540   5.488   6.595   2.821 -0.0957 -0.4083  0.2961
  286MOL0     C38541   5.144   6.265   3.073 -0.0121 -0.2161  0.3229
  286MOL0     C38542   5.066   6.270   3.185 -0.0107  0.2879 -0.3243
  286MOL0     H38543   4.649   6.412   3.355  0.1182 -1.9198 -2.0495
  286MOL0     H38544   4.437   6.470   3.475  2.0920 -0.5684 -2.1958
  286MOL0     H38545   4.212   6.126   3.666  2.0970 -0.6188 -3.0077
  286MOL0     H38546   4.350   6.176   3.758 -0.7497 -1.7957  0.5144
  286MOL0     H38547   4.178   6.204   3.917 -3.9008 -0.5463  0.2057
  286MOL0     H38548   4.222   6.369   3.860 -2.2237 -0.0431  1.4931
  286MOL0     H38549   4.007   6.409   3.839  0.0246  1.1059 -1.6162
  286MOL0     H38550   4.022   6.329   3.690 -0.7334 -0.3605  0.2747
  286MOL0     H38551   3.961   6.105   3.788  2.0685 -0.0657 -0.2365
  286MOL0     H38552   3.953   6.174   3.945  0.2530 -3.1491 -0.4381
  286MOL0     H38553   3.723   6.147   3.859 -1.2231  2.0041  1.5796
  286MOL0     H38554   3.754   6.325   3.861 -0.7838  1.5443 -2.1430
  286MOL0     H38555   3.789   6.351   3.649 -1.1413 -0.3527 -2.1319
  286MOL0     H38556   3.805   6.170   3.630  0.3284  1.8094 -2.5469
  286MOL0     H38557   3.606   6.254   3.534 -1.2032 -0.1612 -0.5387
  286MOL0     H38558   3.581   6.144   3.668  2.6356 -0.4331 -0.8083
  286MOL0     H38559   3.557   6.461   3.686 -2.4392  0.8354  0.9308
  286MOL0     H38560   3.526   6.355   3.822 -1.0097 -0.0229 -0.1110
  286MOL0     H38561   3.320   6.543   3.751  2.4854 -0.4277  0.5045
  286MOL0     H38562   2.988   6.414   3.683 -0.4599 -0.2204 -2.4005
  286MOL0     H38563   3.053   6.574   3.717 -1.0157  0.0722  0.2502
  286MOL0     H38564   2.993   6.442   3.446 -5.6583 -0.1400  1.7936
  286MOL0     H38565   3.087   6.596   3.470  1.0111  0.1756  1.8364
  286MOL0     H38566   2.898   6.703   3.546 -0.5436  1.0272 -0.4678
  286MOL0     H38567   2.794   6.559   3.553 -1.0433  3.0693  0.8271
  286MOL0     H38568   2.865   6.527   3.286 -3.3517  0.3550 -1.9155
  286MOL0     H38569   2.899   6.693   3.308 -1.3301  2.1747  0.4429
  286MOL0     H38570   2.467   6.720   3.317 -0.6057  2.8085 -1.3261
  286MOL0     H38571   2.302   6.847   3.085  0.8668  0.3526  2.2565
  286MOL0     H38572   2.221   6.687   3.052  0.4637 -0.7199  0.4477
  286MOL0     H38573   2.270   6.729   3.214  0.8841 -1.9412  0.0693
  286MOL0     H38574   2.077   6.672   2.852 -0.3518  0.3116 -0.2778
  286MOL0     H38575   1.936   6.608   2.649  0.6468 -0.7068 -0.4448
  286MOL0     H38576   1.991   6.833   2.304  3.5213 -0.8101  1.0643
  286MOL0     H38577   2.083   6.706   2.230  0.0155  0.0492  0.0674
  286MOL0     H38578   1.779   6.761   2.216  0.9951  1.1615 -1.4301
  286MOL0     H38579   1.897   6.709   2.097  1.1534 -0.2203  0.4491
  286MOL0     H38580   1.771   6.536   2.320 -1.9208 -0.4873 -0.3014
  286MOL0     H38581   1.899   6.481   2.210  0.7758 -0.3406  0.7908
  286MOL0     H38582   1.650   6.606   2.099  0.9526 -0.7274 -4.0472
  286MOL0     H38583   1.730   6.473   2.031 -1.9781 -0.0840 -0.7017
  286MOL0     H38584   1.507   6.406   2.134  0.2203  0.6791  0.0893
  286MOL0     H38585   1.566   6.458   2.293 -1.6959 -0.2022 -0.6682
  286MOL0     H38586   1.727   6.251   2.148 -0.1078  0.9740 -0.8641
  286MOL0     H38587   1.726   6.305   2.314  1.8389  2.9830 -1.9714
  286MOL0     H38588   1.489   6.170   2.173  1.6655  0.0432 -1.1658
  286MOL0     H38589   1.494   6.216   2.337  0.6604  1.6450 -0.1369
  286MOL0     H38590   1.556   5.987   2.338 -0.6191  1.4873 -1.4318
  286MOL0     H38591   1.702   6.066   2.372 -1.7526  1.6508  1.7691
  286MOL0     H38592   2.253   6.750   2.386 -0.3479  0.8226  0.4665
  286MOL0     H38593   2.392   6.775   2.575  0.5343  0.1803  1.2186
  286MOL0     H38594   2.672   6.548   2.901  0.1080 -0.8818 -0.0547
  286MOL0     H38595   2.796   6.554   3.091  0.5883  0.7696 -0.4452
  286MOL0     H38596   4.355   6.055   3.531  0.3191  0.1623  0.5394
  286MOL0     H38597   4.565   5.998   3.426 -0.7978  0.3988  0.6942
  286MOL0     H38598   4.774   6.130   3.056 -0.4081 -1.6367  3.0211
  286MOL0     H38599   4.909   6.161   2.851 -1.8844  0.4902  0.1330
  286MOL0     H38600   5.295   6.299   2.705  1.7222 -0.8772 -0.5760
  286MOL0     H38601   5.286   6.380   2.867 -0.4336  1.7906 -2.6469
  286MOL0     H38602   5.379   6.096   2.784  1.7279 -0.3642  1.1959
  286MOL0     H38603   5.403   6.152   2.948  3.9939  1.7283  1.3429
  286MOL0     H38604   5.530   6.287   2.713 -1.7381 -1.6328 -0.3890
  286MOL0     H38605   5.608   6.170   2.818  0.2123  0.3415  0.6313
  286MOL0     H38606   5.676   6.357   2.934 -0.0891 -1.0299 -2.4467
  286MOL0     H38607   5.531   6.341   3.024  1.5558 -0.3245  0.1740
  286MOL0     H38608   5.450   6.670   2.754 -4.1911 -3.9291 -1.8468
  286MOL0     H38609   5.242   6.307   3.090 -0.6301  2.1066 -1.3523
  286MOL0     H38610   5.115   6.298   3.278 -0.5140  0.0835  0.0104
  287MOL0     O38611   9.133   2.726   7.022  0.3627 -0.5946  0.2341
  287MOL0     C38612   9.199   2.830   7.052  0.1297  0.6438  0.1324
  287MOL0     O38613   9.154   2.941   7.102  0.0356 -0.2818 -0.3364
  287MOL0     C38614   9.022   2.967   7.127 -0.4478 -0.1560  0.1164
  287MOL0     C38615   8.984   3.060   7.219  0.5365 -0.0422 -0.2820
  287MOL0     C38616   8.845   3.087   7.231 -0.6689 -0.0139 -0.4013
  287MOL0     C38617   8.748   3.026   7.157 -0.1640  0.4972  0.0525
  287MOL0     O38618   8.613   3.040   7.175  0.2785  0.2823 -0.0407
  287MOL0     C38619   8.569   3.162   7.240  0.2616 -0.0551 -0.0656
  287MOL0     C38620   8.424   3.209   7.216 -0.3430 -0.2128 -0.8958
  287MOL0     C38621   8.398   3.234   7.065 -0.1847 -0.0406  0.1165
  287MOL0     C38622   8.247   3.268   7.040 -0.1087  0.4963 -0.1953
  287MOL0     C38623   8.224   3.414   7.078  0.7803 -0.1525 -0.1308
  287MOL0     C38624   8.101   3.468   6.995  0.5814 -0.4403 -0.4974
  287MOL0     C38625   7.970   3.391   7.024 -0.6272  0.3586  0.6479
  287MOL0     C38626   7.857   3.481   6.965  0.2231 -0.1032  0.7626
  287MOL0     N38627   7.826   3.443   6.825 -0.1123  0.5689 -0.5633
  287MOL0     C38628   7.758   3.327   6.790 -0.5533 -0.5238  0.5996
  287MOL0     C38629   7.765   3.315   6.657  0.2995  0.0382  0.3477
  287MOL0     C38630   7.724   3.186   6.585 -1.0140  0.1692 -0.0658
  287MOL0     C38631   7.578   3.138   6.610  0.0557  0.1216  0.1861
  287MOL0     C38632   7.474   3.217   6.534 -0.6679 -0.0610  0.0376
  287MOL0     C38633   7.354   3.139   6.508  0.1832  0.3546 -0.0195
  287MOL0     O38634   7.289   3.105   6.632  0.3066 -0.5498  0.3992
  287MOL0     C38635   7.165   3.042   6.621 -0.6317 -0.4707 -0.5654
  287MOL0     C38636   7.113   2.994   6.741 -0.6617  0.8985  0.9192
  287MOL0     C38637   6.982   2.949   6.759  0.4004  0.3136 -0.2008
  287MOL0     C38638   6.941   2.912   6.896 -0.1244 -0.5033 -0.6627
  287MOL0     C38639   6.904   2.940   6.644 -0.0006 -0.2769 -0.4398
  287MOL0     C38640   6.768   2.890   6.641  0.1046  0.0635 -0.4882
  287MOL0     O38641   6.695   2.878   6.519 -0.4261 -0.2394 -0.0010
  287MOL0     C38642   6.562   2.851   6.519  0.6795 -0.2872  0.4304
  287MOL0     C38643   6.463   2.934   6.567 -0.3467 -0.2046 -0.0263
  287MOL0     C38644   6.328   2.913   6.557  0.6947 -0.1472 -0.4382
  287MOL0     C38645   6.284   2.816   6.472 -0.4177 -0.3868  0.7408
  287MOL0     O38646   6.151   2.794   6.446  0.0790 -0.4373  0.1993
  287MOL0     C38647   6.061   2.901   6.472 -0.0861 -0.1857 -0.0503
  287MOL0     C38648   5.928   2.863   6.411 -0.5953  1.1252 -0.6950
  287MOL0     C38649   5.865   2.749   6.502 -0.8624  0.2113 -0.3891
  287MOL0     C38650   5.917   2.608   6.464  0.3652 -0.5655  0.4046
  287MOL0     C38651   5.824   2.515   6.531  0.0046  0.8535  0.4294
  287MOL0     C38652   5.878   2.370   6.540 -0.3541 -0.2901 -0.3121
  287MOL0     C38653   5.758   2.279   6.579 -0.6203 -0.7808  0.1388
  287MOL0     C38654   5.773   2.129   6.550  0.4074 -0.0913 -1.2380
  287MOL0    Cl38655   5.944   2.078   6.587 -0.0619  0.1426  0.4349
  287MOL0     C38656   6.375   2.716   6.434 -0.2040  0.0545  0.2683
  287MOL0     C38657   6.515   2.737   6.454  0.1519  0.9787 -0.3021
  287MOL0     O38658   6.719   2.855   6.747 -0.0126  0.2268  0.3644
  287MOL0     C38659   6.956   2.985   6.519 -0.2045 -0.4784 -0.0084
  287MOL0     C38660   7.090   3.031   6.516  0.4572  0.0844  0.1191
  287MOL0     N38661   7.833   3.426   6.615  0.1587  0.1610  0.4465
  287MOL0     N38662   7.875   3.495   6.712  0.0158 -0.5639 -0.1981
  287MOL0     C38663   8.797   2.946   7.047  0.5224  0.8327 -0.3292
  287MOL0     C38664   8.926   2.918   7.036  0.0963 -0.1054  0.8022
  287MOL0     C38665   9.346   2.813   7.031  0.2911 -1.3145 -0.1967
  287MOL0     C38666   9.406   2.702   6.976  0.5977 -0.4120  0.2337
  287MOL0     C38667   9.533   2.682   6.960 -0.3161 -0.8342  0.0063
  287MOL0     C38668   9.618   2.784   7.008  0.5538  0.3095  0.0300
  287MOL0     O38669   9.756   2.774   6.993 -0.7159 -0.6954 -0.9512
  287MOL0     C38670   9.807   2.767   6.859  0.6531 -0.5827 -0.1205
  287MOL0     C38671   9.961   2.781   6.871 -0.2784 -0.4199  0.2892
  287MOL0     C38672  10.015   2.928   6.900 -1.1191 -0.8086  0.1299
  287MOL0     C38673  10.145   2.913   6.986 -0.2263 -0.4732  0.8271
  287MOL0     C38674  10.217   3.040   6.977 -0.2915 -0.3350  0.3181
  287MOL0     C38675  10.285   3.142   6.970  0.1925 -0.1439 -0.3952
  287MOL0     C38676   9.568   2.900   7.069 -0.0966  0.6354 -0.5068
  287MOL0     C38677   9.430   2.915   7.079  0.2154  0.6576 -0.2375
  287MOL0     H38678   9.051   3.100   7.295 -2.0479  0.6648  1.8105
  287MOL0     H38679   8.820   3.152   7.314 -1.3350 -2.4320  1.4113
  287MOL0     H38680   8.584   3.155   7.348  0.2148 -2.6791 -0.1515
  287MOL0     H38681   8.635   3.240   7.202 -0.5705  1.0583  0.7187
  287MOL0     H38682   8.364   3.129   7.260  1.8981 -1.8279 -0.5916
  287MOL0     H38683   8.403   3.296   7.279 -1.0188  1.3512 -3.1563
  287MOL0     H38684   8.466   3.310   7.026  1.0742 -0.1311  2.0101
  287MOL0     H38685   8.418   3.141   7.010 -2.9665 -1.5104  1.3639
  287MOL0     H38686   8.218   3.257   6.935 -2.3433  1.6698  0.2462
  287MOL0     H38687   8.184   3.202   7.100  1.3275  0.0627  0.9031
  287MOL0     H38688   8.213   3.415   7.187  1.9560  1.2863  0.0042
  287MOL0     H38689   8.310   3.476   7.051 -0.2072  2.2777  1.9415
  287MOL0     H38690   8.092   3.567   7.040  0.1479 -0.6410 -0.1311
  287MOL0     H38691   8.132   3.483   6.891  1.8147  1.0986  0.0438
  287MOL0     H38692   7.968   3.288   6.985  1.8372  0.1464  0.9373
  287MOL0     H38693   7.945   3.386   7.131  2.3269  1.7842  1.4968
  287MOL0     H38694   7.893   3.584   6.974  0.1096 -0.0198  0.2927
  287MOL0     H38695   7.758   3.463   7.008 -1.5367  1.1640 -2.4396
  287MOL0     H38696   7.712   3.261   6.863  0.4171 -0.8165  0.9552
  287MOL0     H38697   7.738   3.200   6.478  2.3681 -2.4992 -0.1544
  287MOL0     H38698   7.795   3.105   6.601  0.4438  0.9142 -2.3697
  287MOL0     H38699   7.546   3.134   6.714  1.6112 -1.6362  0.6602
  287MOL0     H38700   7.581   3.034   6.574 -0.6835  0.2112 -0.1615
  287MOL0     H38701   7.510   3.249   6.436  0.9580 -0.1675  0.5676
  287MOL0     H38702   7.449   3.304   6.595 -2.5982 -0.0164 -0.7459
  287MOL0     H38703   7.378   3.049   6.450 -1.0522  1.0676 -1.7350
  287MOL0     H38704   7.293   3.204   6.445  1.8981 -0.5413 -2.7511
  287MOL0     H38705   7.171   3.002   6.832 -0.0574 -0.6675  0.7066
  287MOL0     H38706   7.023   2.916   6.968 -2.1866 -2.9731  2.0717
  287MOL0     H38707   6.857   2.981   6.912 -0.2840  0.6745 -5.2524
  287MOL0     H38708   6.900   2.811   6.907  1.5710 -1.2043 -0.5464
  287MOL0     H38709   6.493   3.018   6.629  1.6303 -0.5732 -0.4257
  287MOL0     H38710   6.266   2.985   6.609 -0.5492 -0.7676 -1.0346
  287MOL0     H38711   6.064   2.919   6.580  0.6390  2.2627 -0.4126
  287MOL0     H38712   6.092   2.992   6.419 -3.9518 -0.4275 -3.2169
  287MOL0     H38713   5.859   2.948   6.408  0.4418  1.9690 -1.7075
  287MOL0     H38714   5.946   2.831   6.308  1.6527  1.1127 -0.3320
  287MOL0     H38715   5.757   2.756   6.487 -1.0744 -0.1647  0.8345
  287MOL0     H38716   5.888   2.757   6.609 -1.3279 -0.5532 -0.2264
  287MOL0     H38717   5.920   2.590   6.356 -0.1546  1.9974 -0.1030
  287MOL0     H38718   6.019   2.589   6.500  0.5192  0.8268  0.7792
  287MOL0     H38719   5.734   2.515   6.470  0.1828  2.1022  0.1389
  287MOL0     H38720   5.797   2.549   6.632 -0.8577 -0.0774  0.5249
  287MOL0     H38721   5.917   2.345   6.440  0.1155 -1.1570  0.0760
  287MOL0     H38722   5.962   2.359   6.609  0.4417  3.1642 -0.5304
  287MOL0     H38723   5.669   2.314   6.526 -0.0777 -0.2397 -0.4285
  287MOL0     H38724   5.752   2.301   6.686  0.4344 -2.9201  0.7030
  287MOL0     H38725   5.750   2.117   6.444  2.5515 -1.0523 -1.6641
  287MOL0     H38726   5.695   2.075   6.605  3.3478 -2.2880  1.2186
  287MOL0     H38727   6.346   2.622   6.389 -1.1493 -0.5226  1.9815
  287MOL0     H38728   6.584   2.664   6.412 -2.0928 -1.3280 -0.2580
  287MOL0     H38729   6.905   2.966   6.425  0.5391 -1.3956 -0.2343
  287MOL0     H38730   7.124   3.056   6.416 -3.9674 -2.0047 -2.2036
  287MOL0     H38731   8.732   2.900   6.973 -0.3175 -0.6508  1.2687
  287MOL0     H38732   8.941   2.851   6.951 -1.5283  0.8064 -0.2631
  287MOL0     H38733   9.344   2.621   6.938  3.3890 -2.6595  0.0975
  287MOL0     H38734   9.578   2.593   6.917  2.6412 -0.6417  2.3767
  287MOL0     H38735   9.789   2.670   6.811  2.8400  0.0976 -2.5461
  287MOL0     H38736   9.761   2.838   6.790  0.3151  0.0336  0.7216
  287MOL0     H38737  10.004   2.747   6.777  1.3449  2.2095 -0.0197
  287MOL0     H38738   9.997   2.710   6.946 -2.9419 -0.3202  1.8255
  287MOL0     H38739   9.956   2.990   6.968 -0.3269 -0.8851  0.9042
  287MOL0     H38740  10.030   2.978   6.804 -0.4679  1.4218  1.3252
  287MOL0     H38741  10.208   2.836   6.942 -0.0403  0.0840  0.0802
  287MOL0     H38742  10.118   2.891   7.089 -1.2375 -2.9308  0.1094
  287MOL0     H38743  10.343   3.230   6.952  2.4238 -1.8480 -2.1855
  287MOL0     H38744   9.638   2.975   7.106  0.4139  0.5378 -1.2583
  287MOL0     H38745   9.388   2.996   7.139 -2.0568 -1.2336  0.8848
  288MOL0     O38746   0.785   4.435   8.999 -0.2783 -0.2736 -0.3896
  288MOL0     C38747   0.832   4.319   9.019  0.2985 -0.1587  0.7641
  288MOL0     O38748   0.745   4.215   9.062 -0.5043 -0.2018  0.1383
  288MOL0     C38749   0.629   4.253   9.112  0.0283 -0.1325  0.4259
  288MOL0     C38750   0.509   4.205   9.046 -0.3221  0.0289 -0.3967
  288MOL0     C38751   0.382   4.244   9.089  0.2736  0.3867 -0.5543
  288MOL0     C38752   0.380   4.332   9.196 -0.5285  0.3654 -0.7723
  288MOL0     O38753   0.264   4.382   9.255 -0.1831  0.0382  1.1259
  288MOL0     C38754   0.131   4.325   9.228 -1.5240 -0.4788 -0.5322
  288MOL0     C38755   0.129   4.202   9.319  0.5611 -0.5861 -0.6204
  288MOL0     C38756  -0.008   4.142   9.329  0.1248 -0.3100 -0.5064
  288MOL0     C38757  -0.042   4.066   9.197 -0.5523  0.5463 -0.1132
  288MOL0     C38758  -0.195   4.047   9.191 -0.7181 -0.2982  0.2783
  288MOL0     C38759  -0.249   3.964   9.077  0.3161 -0.3581  0.8663
  288MOL0     C38760  -0.407   3.953   9.074  0.6431 -0.0574 -0.4297
  288MOL0     C38761  -0.452   3.858   8.967 -0.2114  0.6798 -0.3225
  288MOL0     N38762  -0.447   3.720   9.012 -0.1950  0.2902  0.4627
  288MOL0     C38763  -0.565   3.655   9.016  0.1725  0.6950  1.0129
  288MOL0     C38764  -0.535   3.523   9.022 -0.1641  0.3024 -0.8333
  288MOL0     C38765  -0.630   3.409   9.038 -0.1825 -0.0511 -1.0596
  288MOL0     C38766  -0.730   3.386   8.926 -0.8314 -0.4840 -0.4547
  288MOL0     C38767  -0.807   3.257   8.936  0.5168  0.8437  0.6852
  288MOL0     C38768  -0.880   3.231   8.804  0.0332 -0.6193 -0.5269
  288MOL0     O38769  -0.981   3.135   8.819 -0.3441 -0.1780 -0.1454
  288MOL0     C38770  -1.111   3.174   8.826  0.5796 -0.2405  0.5979
  288MOL0     C38771  -1.204   3.091   8.762  0.1581 -0.5815 -0.1830
  288MOL0     C38772  -1.343   3.102   8.764  0.7570 -0.5581 -0.0889
  288MOL0     C38773  -1.431   3.013   8.673 -0.5975 -0.3896 -0.0788
  288MOL0     C38774  -1.396   3.214   8.834  0.1021 -0.2048 -0.2138
  288MOL0     C38775  -1.539   3.249   8.853 -0.1855 -0.3462 -0.8667
  288MOL0     O38776  -1.573   3.374   8.909  0.4877 -0.3266  0.7282
  288MOL0     C38777  -1.711   3.414   8.901 -0.0259 -0.2157  0.2213
  288MOL0     C38778  -1.767   3.444   8.781  0.7698  0.2104  0.4296
  288MOL0     C38779  -1.900   3.494   8.774  0.3551  0.4834  0.4377
  288MOL0     C38780  -1.977   3.503   8.894 -0.2934  0.0546 -0.4170
  288MOL0     O38781  -2.104   3.554   8.895 -0.4027  0.0074  0.0782
  288MOL0     C38782  -2.193   3.522   8.786  0.3896 -0.1899  0.4206
  288MOL0     C38783  -2.341   3.578   8.817 -0.2462 -0.6766 -0.0916
  288MOL0     C38784  -2.412   3.514   8.941 -0.6101 -0.4503 -0.4852
  288MOL0     C38785  -2.545   3.583   8.957  0.1491  0.2484  0.2905
  288MOL0     C38786  -2.591   3.601   9.105  0.1836 -0.4592 -0.5214
  288MOL0     C38787  -2.626   3.470   9.181 -0.2757  0.7275 -0.8176
  288MOL0     C38788  -2.715   3.485   9.307 -0.4651 -0.1219  0.3079
  288MOL0     C38789  -2.679   3.601   9.400  1.0646 -0.3630 -0.1054
  288MOL0    Cl38790  -2.509   3.571   9.433  0.0306 -0.1948 -0.3558
  288MOL0     C38791  -1.912   3.470   9.017 -0.1405 -0.1649 -0.1974
  288MOL0     C38792  -1.783   3.419   9.018 -0.1910 -0.0723  0.6912
  288MOL0     O38793  -1.624   3.173   8.806  0.6763  0.1288  0.5575
  288MOL0     C38794  -1.302   3.294   8.910  0.5544 -0.0466 -0.2223
  288MOL0     C38795  -1.168   3.272   8.899 -0.6411 -0.1258  0.5725
  288MOL0     N38796  -0.398   3.516   9.016 -0.0806 -0.1661 -0.3183
  288MOL0     N38797  -0.349   3.636   8.986  0.1050  0.6157 -0.2781
  288MOL0     C38798   0.492   4.377   9.262 -0.0100 -0.9443  0.6405
  288MOL0     C38799   0.618   4.348   9.213 -0.3813  0.0098 -0.2468
  288MOL0     C38800   0.973   4.298   9.015 -0.4799 -0.6938  0.0783
  288MOL0     C38801   1.066   4.392   9.060 -1.0562 -0.1618  0.5101
  288MOL0     C38802   1.197   4.371   9.042 -0.4147  0.6863 -0.8101
  288MOL0     C38803   1.256   4.258   8.993 -0.3815  0.6182 -0.2660
  288MOL0     O38804   1.393   4.259   8.997  0.3167  0.1666 -0.1601
  288MOL0     C38805   1.462   4.143   8.945  0.1511  0.2796  0.1086
  288MOL0     C38806   1.612   4.124   8.979  0.0209 -0.6936 -0.1941
  288MOL0     C38807   1.698   4.213   8.892  0.2859 -0.1893  0.4364
  288MOL0     C38808   1.844   4.162   8.887 -1.0082  0.6546 -0.9207
  288MOL0     C38809   1.935   4.240   8.795 -0.6729  0.0461 -0.6457
  288MOL0     C38810   2.004   4.297   8.709 -0.2413  0.2944 -1.2589
  288MOL0     C38811   1.167   4.159   8.946  0.7803 -0.1701 -0.5495
  288MOL0     C38812   1.026   4.178   8.957  0.5295  0.8025 -0.4518
  288MOL0     H38813   0.517   4.133   8.965 -0.9187  1.4371 -1.7455
  288MOL0     H38814   0.290   4.200   9.050  0.3337 -1.8478  1.6445
  288MOL0     H38815   0.066   4.405   9.263  2.2805  1.5862  2.6107
  288MOL0     H38816   0.128   4.292   9.124  2.5575 -1.0637 -0.6321
  288MOL0     H38817   0.198   4.124   9.284  0.9732 -0.2419 -0.5837
  288MOL0     H38818   0.157   4.231   9.420  1.2237  1.8455 -1.4357
  288MOL0     H38819  -0.014   4.079   9.418  0.6104  1.3157  0.7095
  288MOL0     H38820  -0.079   4.223   9.348  0.7522  0.4653 -1.3336
  288MOL0     H38821  -0.014   4.126   9.109  0.5583  0.7025  0.3337
  288MOL0     H38822   0.007   3.969   9.180  0.3014  0.7759  0.9509
  288MOL0     H38823  -0.224   4.011   9.290  3.8841  0.3848  2.1218
  288MOL0     H38824  -0.245   4.142   9.175  0.1467 -0.2100 -2.4952
  288MOL0     H38825  -0.215   4.006   8.981 -0.0600  0.6513  1.1656
  288MOL0     H38826  -0.212   3.861   9.083  1.1346  0.0004  2.4384
  288MOL0     H38827  -0.448   3.915   9.169 -0.4766 -2.5046 -1.7926
  288MOL0     H38828  -0.437   4.053   9.041 -0.1261 -0.8711 -2.3611
  288MOL0     H38829  -0.381   3.869   8.884 -0.8775 -1.2410 -1.2123
  288MOL0     H38830  -0.546   3.893   8.922  1.4930  2.3461 -2.9221
  288MOL0     H38831  -0.667   3.688   9.000 -0.1648 -1.6367 -3.2467
  288MOL0     H38832  -0.565   3.323   9.055 -0.3703  0.0102  0.0339
  288MOL0     H38833  -0.679   3.423   9.135 -0.4788 -0.2911 -1.1721
  288MOL0     H38834  -0.679   3.390   8.829 -0.2005 -1.6920 -0.1906
  288MOL0     H38835  -0.794   3.475   8.923  1.0244  0.8913 -2.1223
  288MOL0     H38836  -0.882   3.256   9.015 -0.8860 -0.6342 -0.5990
  288MOL0     H38837  -0.735   3.180   8.966  1.1231  0.9876 -0.3566
  288MOL0     H38838  -0.810   3.195   8.728 -0.2418 -0.0284 -1.0650
  288MOL0     H38839  -0.930   3.317   8.761  0.8048 -0.9488 -2.1516
  288MOL0     H38840  -1.164   3.001   8.715  0.9093 -1.6887  2.4208
  288MOL0     H38841  -1.500   2.948   8.728 -1.9257  1.1893  0.1976
  288MOL0     H38842  -1.484   3.075   8.599 -0.2928 -2.9325 -2.5694
  288MOL0     H38843  -1.364   2.958   8.608 -0.3649 -1.0162  0.6797
  288MOL0     H38844  -1.707   3.431   8.692  3.2160 -1.0335  2.1401
  288MOL0     H38845  -1.938   3.524   8.676  0.4860 -0.7442 -0.0102
  288MOL0     H38846  -2.166   3.581   8.698  2.0613 -0.2495  0.8713
  288MOL0     H38847  -2.189   3.413   8.778 -2.2003 -0.2343 -2.3658
  288MOL0     H38848  -2.321   3.685   8.831  1.2731 -1.1832  1.9855
  288MOL0     H38849  -2.406   3.570   8.728 -2.4842  1.2658  1.2461
  288MOL0     H38850  -2.352   3.537   9.030  2.3247  2.0629 -2.8554
  288MOL0     H38851  -2.423   3.407   8.920  1.2707 -0.3539 -2.3315
  288MOL0     H38852  -2.544   3.684   8.915  0.8414  0.0964 -0.0742
  288MOL0     H38853  -2.617   3.526   8.898 -0.8290  0.3228  1.3731
  288MOL0     H38854  -2.684   3.658   9.114  0.9573  1.3374 -2.9254
  288MOL0     H38855  -2.513   3.655   9.160 -1.2088 -0.9980  2.1744
  288MOL0     H38856  -2.662   3.392   9.114 -2.0370  1.0758 -0.3167
  288MOL0     H38857  -2.533   3.425   9.217 -2.5671 -2.1840  2.0502
  288MOL0     H38858  -2.725   3.386   9.353  0.2478 -2.1925 -3.5077
  288MOL0     H38859  -2.813   3.512   9.267 -0.9779 -1.4133  0.6170
  288MOL0     H38860  -2.739   3.602   9.491  0.4827 -1.4992 -0.4560
  288MOL0     H38861  -2.691   3.692   9.342 -0.2254  0.8102  1.9020
  288MOL0     H38862  -1.954   3.472   9.117  2.2582  0.7914  0.8675
  288MOL0     H38863  -1.746   3.384   9.114  0.2012  1.8467  1.2785
  288MOL0     H38864  -1.337   3.370   8.979 -0.5625  0.9176 -1.7978
  288MOL0     H38865  -1.100   3.330   8.960  0.1480 -0.1977 -0.2057
  288MOL0     H38866   0.475   4.442   9.347  0.5891  3.0173 -1.9778
  288MOL0     H38867   0.703   4.389   9.267 -1.0075  0.6969  0.2543
  288MOL0     H38868   1.037   4.480   9.117 -0.1234 -0.0154  0.7661
  288MOL0     H38869   1.266   4.445   9.082 -0.8363  1.2426 -1.0942
  288MOL0     H38870   1.408   4.053   8.977  0.2426 -0.2123 -1.0456
  288MOL0     H38871   1.443   4.148   8.837 -2.4000 -0.5465  0.4426
  288MOL0     H38872   1.630   4.018   8.958  1.5126 -0.3291 -0.8761
  288MOL0     H38873   1.626   4.141   9.086 -1.4131 -0.3494 -0.0476
  288MOL0     H38874   1.685   4.318   8.918  1.8847 -0.0588  0.8308
  288MOL0     H38875   1.670   4.207   8.787  2.1664 -2.3050 -0.0324
  288MOL0     H38876   1.847   4.060   8.847  0.3638 -0.0799  0.9212
  288MOL0     H38877   1.885   4.152   8.988 -2.6608 -0.7947 -0.3530
  288MOL0     H38878   2.068   4.337   8.633  0.8838 -3.5879 -2.5383
  288MOL0     H38879   1.198   4.070   8.893  2.7518 -0.6817  1.3101
  288MOL0     H38880   0.965   4.097   8.918 -0.4402  0.7501  1.0870
  289MOL0     O38881   6.491   5.697   6.440  0.0775  0.3452  0.0707
  289MOL0     C38882   6.593   5.625   6.441  0.0791  0.0313 -1.1469
  289MOL0     O38883   6.590   5.490   6.454 -0.0590  0.2426 -0.7896
  289MOL0     C38884   6.468   5.417   6.450  0.0176 -0.8202 -0.5190
  289MOL0     C38885   6.455   5.296   6.518  0.1692 -0.2679 -0.2447
  289MOL0     C38886   6.340   5.216   6.523 -0.2480 -0.2875  0.1857
  289MOL0     C38887   6.236   5.254   6.442 -1.0907 -0.3292 -1.1511
  289MOL0     O38888   6.139   5.168   6.426  0.2050  0.5120 -0.4575
  289MOL0     C38889   6.008   5.208   6.397 -0.0018 -0.7282 -0.9386
  289MOL0     C38890   5.917   5.092   6.376  0.0854  0.3173 -0.1710
  289MOL0     C38891   5.901   5.015   6.508  0.2771 -0.7155  0.0431
  289MOL0     C38892   5.801   4.897   6.498 -0.6981  0.0296  0.4411
  289MOL0     C38893   5.800   4.801   6.615 -0.6988  0.5685  0.9658
  289MOL0     C38894   5.691   4.688   6.614  0.6805 -0.4470 -0.3148
  289MOL0     C38895   5.750   4.583   6.508  0.1149  1.0463 -0.5190
  289MOL0     C38896   5.629   4.467   6.487 -0.5161 -0.1013 -0.1240
  289MOL0     N38897   5.500   4.523   6.469  0.0875 -0.0782 -0.4572
  289MOL0     C38898   5.390   4.492   6.551 -0.3899 -0.6284  0.4800
  289MOL0     C38899   5.299   4.573   6.504  0.1391  0.1530  0.8520
  289MOL0     C38900   5.152   4.582   6.540 -0.3269 -0.8036  0.8392
  289MOL0     C38901   5.050   4.473   6.502 -0.4555 -0.3167 -0.2970
  289MOL0     C38902   5.067   4.443   6.363 -0.2413  0.9996 -0.0999
  289MOL0     C38903   5.019   4.545   6.261 -1.0143 -0.0773 -0.8053
  289MOL0     O38904   5.000   4.479   6.135 -0.5980 -0.7149 -0.0177
  289MOL0     C38905   4.879   4.440   6.092  0.0062  0.1690 -0.4601
  289MOL0     C38906   4.877   4.322   6.024 -0.2280  0.5792  0.5154
  289MOL0     C38907   4.761   4.254   5.988  0.8932 -0.3867 -0.3249
  289MOL0     C38908   4.770   4.122   5.920 -0.3111  0.4125  0.5882
  289MOL0     C38909   4.632   4.323   6.008 -0.2060  0.4114  0.3050
  289MOL0     C38910   4.505   4.275   5.966 -0.9558  0.3909  0.8699
  289MOL0     O38911   4.429   4.353   5.891 -0.3634  0.4502 -0.3890
  289MOL0     C38912   4.292   4.336   5.891  0.2755 -0.2954 -0.2394
  289MOL0     C38913   4.207   4.275   5.988 -0.7132  0.0248  0.0911
  289MOL0     C38914   4.070   4.278   5.982  0.4269 -0.2553  0.0125
  289MOL0     C38915   4.002   4.337   5.867  0.5281 -0.2316 -0.4415
  289MOL0     O38916   3.866   4.320   5.854  0.8744 -0.4934  0.2561
  289MOL0     C38917   3.799   4.309   5.721  1.2638 -0.0871  0.1162
  289MOL0     C38918   3.649   4.278   5.735 -0.0134  0.0689  0.1512
  289MOL0     C38919   3.593   4.395   5.798  0.8141  0.2169 -0.1873
  289MOL0     C38920   3.441   4.389   5.784 -0.5264  0.0753  0.3088
  289MOL0     C38921   3.380   4.524   5.809 -0.1010 -0.7570  0.4986
  289MOL0     C38922   3.227   4.518   5.765  0.2079 -0.1516 -0.5065
  289MOL0     C38923   3.153   4.388   5.804  0.1781 -0.2122 -0.2041
  289MOL0     C38924   3.007   4.377   5.759 -0.0445  0.3807 -0.6412
  289MOL0    Cl38925   2.900   4.279   5.852 -0.1316 -0.0206  0.1040
  289MOL0     C38926   4.087   4.385   5.769  0.1605  0.2168 -0.0004
  289MOL0     C38927   4.221   4.390   5.784 -0.0204  0.3152 -0.2471
  289MOL0     O38928   4.477   4.161   6.014 -0.3530 -0.2526  0.1008
  289MOL0     C38929   4.637   4.447   6.076 -0.3485 -0.2428 -0.1436
  289MOL0     C38930   4.761   4.500   6.119  1.0666 -1.6736  0.5721
  289MOL0     N38931   5.359   4.655   6.404  0.1292 -0.7489 -0.4407
  289MOL0     N38932   5.478   4.623   6.380 -0.3226  0.7110  1.3289
  289MOL0     C38933   6.239   5.381   6.380  0.2023  0.4818  0.2219
  289MOL0     C38934   6.355   5.456   6.377 -0.1230 -0.1336 -0.6273
  289MOL0     C38935   6.724   5.689   6.432 -0.1261  0.0602  0.8356
  289MOL0     C38936   6.739   5.825   6.405  0.2034  0.0015  0.4575
  289MOL0     C38937   6.864   5.892   6.376  0.2406  0.6589  0.1120
  289MOL0     C38938   6.983   5.823   6.405  0.4250 -0.1467 -0.0619
  289MOL0     O38939   7.100   5.889   6.406 -0.1273  0.6320  0.2578
  289MOL0     C38940   7.223   5.831   6.439  0.4314  0.2981  0.5261
  289MOL0     C38941   7.237   5.793   6.585 -0.6826  0.4999  0.3741
  289MOL0     C38942   7.374   5.713   6.606  0.6041 -0.3391 -1.5869
  289MOL0     C38943   7.495   5.812   6.622 -0.2456 -0.1810 -1.0612
  289MOL0     C38944   7.613   5.734   6.611 -0.1236 -0.2443 -0.4128
  289MOL0     C38945   7.704   5.667   6.594  0.0843  0.1408 -1.0500
  289MOL0     C38946   6.971   5.686   6.446 -0.3406  0.5773  0.0917
  289MOL0     C38947   6.844   5.623   6.450 -0.2684 -0.0832 -0.1107
  289MOL0     H38948   6.536   5.264   6.582  0.7598 -0.4007 -1.0449
  289MOL0     H38949   6.344   5.123   6.579 -0.2160  0.5721  1.6883
  289MOL0     H38950   5.965   5.290   6.455 -1.7464 -3.1915  1.5099
  289MOL0     H38951   6.014   5.244   6.294  0.0024 -1.9507 -1.3773
  289MOL0     H38952   5.819   5.124   6.340 -0.4067 -1.5002 -0.5676
  289MOL0     H38953   5.961   5.023   6.303  0.7791 -0.3758  0.8799
  289MOL0     H38954   6.002   4.984   6.533  0.3436 -0.1776  0.4769
  289MOL0     H38955   5.865   5.086   6.584  1.0048  1.5920 -1.6440
  289MOL0     H38956   5.704   4.946   6.492  0.4629  2.3362 -0.3499
  289MOL0     H38957   5.822   4.849   6.402 -1.1594  0.3467  0.1795
  289MOL0     H38958   5.899   4.760   6.638 -1.0795  0.4243  2.3988
  289MOL0     H38959   5.781   4.866   6.700 -1.8770  1.1884  0.2490
  289MOL0     H38960   5.682   4.644   6.714 -0.7676 -1.0929 -0.6964
  289MOL0     H38961   5.593   4.732   6.594  0.4296 -0.5216  0.7209
  289MOL0     H38962   5.777   4.634   6.415  0.4724  0.3816 -0.7858
  289MOL0     H38963   5.846   4.544   6.543 -0.5686 -1.0265 -0.7890
  289MOL0     H38964   5.630   4.401   6.575  2.4863 -3.1898 -2.1826
  289MOL0     H38965   5.661   4.394   6.412  1.2054 -2.3372  2.5839
  289MOL0     H38966   5.377   4.417   6.629 -2.2074  0.3497  1.1821
  289MOL0     H38967   5.140   4.588   6.649  0.9572  1.2423  0.9196
  289MOL0     H38968   5.119   4.677   6.497 -2.0448 -1.4665  0.5940
  289MOL0     H38969   4.946   4.504   6.513 -0.3734 -0.5641  1.6774
  289MOL0     H38970   5.072   4.389   6.570 -1.6957 -0.5806 -0.1914
  289MOL0     H38971   5.009   4.358   6.328  1.2970  0.2537 -0.9520
  289MOL0     H38972   5.165   4.398   6.341 -0.8841  1.4106 -4.8714
  289MOL0     H38973   5.097   4.621   6.251 -0.2923 -0.2956  2.1727
  289MOL0     H38974   4.932   4.600   6.298 -1.1024 -0.7391  0.0105
  289MOL0     H38975   4.975   4.277   6.011 -0.3378 -0.1450  2.0097
  289MOL0     H38976   4.726   4.048   5.987  0.6578  0.8888  1.7735
  289MOL0     H38977   4.727   4.112   5.820  1.7320 -0.6275 -0.2435
  289MOL0     H38978   4.876   4.101   5.905 -0.1845  1.1180  0.4817
  289MOL0     H38979   4.258   4.232   6.074 -0.3476 -0.6428 -0.4484
  289MOL0     H38980   3.999   4.233   6.050 -0.2028  2.3127  1.1631
  289MOL0     H38981   3.810   4.400   5.662  0.6944  1.4046  2.1988
  289MOL0     H38982   3.839   4.223   5.666  0.6939  0.4209 -1.1200
  289MOL0     H38983   3.609   4.262   5.634  0.7437 -0.8993 -0.0079
  289MOL0     H38984   3.637   4.189   5.797 -2.4070 -0.1547 -0.5525
  289MOL0     H38985   3.630   4.487   5.752  2.0313  0.5836  1.4576
  289MOL0     H38986   3.619   4.401   5.904  3.2799  0.8941 -0.7824
  289MOL0     H38987   3.420   4.360   5.681 -2.7777  1.1924  0.4058
  289MOL0     H38988   3.404   4.310   5.849 -1.5595  0.8220  0.6465
  289MOL0     H38989   3.444   4.593   5.753  0.8531 -3.0651 -1.4370
  289MOL0     H38990   3.389   4.552   5.914  0.7840  3.1195 -0.4658
  289MOL0     H38991   3.178   4.610   5.800  2.7946  0.3310  2.3255
  289MOL0     H38992   3.234   4.522   5.656  1.9086 -0.7713 -0.4467
  289MOL0     H38993   3.165   4.385   5.912  0.2997 -2.4279 -0.2496
  289MOL0     H38994   3.206   4.302   5.763  4.3685  0.7549  2.5681
  289MOL0     H38995   2.998   4.360   5.651 -3.0101  0.4880 -0.4866
  289MOL0     H38996   2.968   4.480   5.766  0.8312  0.6275  0.9373
  289MOL0     H38997   4.051   4.432   5.678  0.1154  1.6497  0.7188
  289MOL0     H38998   4.286   4.442   5.715  0.5009 -1.6222 -1.3156
  289MOL0     H38999   4.547   4.499   6.105 -0.6621  0.8964 -2.8627
  289MOL0     H39000   4.764   4.598   6.166 -0.3469 -0.1721 -2.2132
  289MOL0     H39001   6.167   5.418   6.308 -1.2161  1.1372  1.8990
  289MOL0     H39002   6.348   5.547   6.318 -1.4192 -1.5446 -2.7513
  289MOL0     H39003   6.652   5.889   6.393  0.8723  0.8643  0.0428
  289MOL0     H39004   6.866   5.996   6.347 -1.6447  1.1279  1.5002
  289MOL0     H39005   7.239   5.739   6.383  0.6233 -0.1204  1.2519
  289MOL0     H39006   7.295   5.902   6.398 -1.9275  1.2054 -2.3361
  289MOL0     H39007   7.161   5.721   6.616 -0.6333  0.8345  1.3066
  289MOL0     H39008   7.230   5.883   6.648  2.1447 -0.2448  1.9390
  289MOL0     H39009   7.389   5.650   6.517  2.0163 -0.3456 -1.3625
  289MOL0     H39010   7.355   5.648   6.692  1.0591  1.2434 -0.2435
  289MOL0     H39011   7.480   5.869   6.715 -2.2149 -1.3283 -0.6209
  289MOL0     H39012   7.501   5.884   6.540 -0.0735  2.3637  1.0634
  289MOL0     H39013   7.786   5.598   6.586  0.9306  0.9406  0.3946
  289MOL0     H39014   7.050   5.617   6.474 -0.7832 -0.4467 -1.0513
  289MOL0     H39015   6.845   5.516   6.472  4.0862  0.4300  3.4950
  290MOL0     O39016   6.837  11.151   0.503 -0.2979  0.2010  0.0205
  290MOL0     C39017   6.902  11.167   0.403  0.4311  0.7304 -0.0042
  290MOL0     O39018   6.862  11.147   0.267 -0.5141 -0.2976  0.1088
  290MOL0     C39019   6.744  11.079   0.244 -0.0561  0.1152 -0.4392
  290MOL0     C39020   6.625  11.147   0.223 -0.2272  0.2006  0.3874
  290MOL0     C39021   6.505  11.081   0.186 -0.5735  0.1390  0.9154
  290MOL0     C39022   6.494  10.942   0.184  0.5342 -0.2860 -0.9349
  290MOL0     O39023   6.370  10.890   0.149 -0.3631 -0.1278 -0.3486
  290MOL0     C39024   6.380  10.780   0.057  0.1666  0.3204  0.9659
  290MOL0     C39025   6.248  10.762  -0.018 -0.3873 -0.0668  0.1861
  290MOL0     C39026   6.218  10.614  -0.068  0.3764 -0.4249 -0.4876
  290MOL0     C39027   6.087  10.624  -0.153  0.3244  0.4203  0.2372
  290MOL0     C39028   6.094  10.540  -0.284 -0.8800 -0.5149  0.1581
  290MOL0     C39029   6.199  10.587  -0.383  0.2736  0.2683 -0.8821
  290MOL0     C39030   6.191  10.739  -0.415  0.1921 -0.5085 -0.3916
  290MOL0     C39031   6.282  10.790  -0.527  0.7636 -0.1575 -0.2881
  290MOL0     N39032   6.419  10.791  -0.486 -0.0268  0.1454 -0.4310
  290MOL0     C39033   6.488  10.671  -0.467  0.8038 -0.0968 -0.0419
  290MOL0     C39034   6.596  10.707  -0.397  0.6537  0.3775  0.3897
  290MOL0     C39035   6.701  10.605  -0.361 -0.0378  0.6227  0.0977
  290MOL0     C39036   6.708  10.590  -0.207 -1.1420  0.9927  0.4120
  290MOL0     C39037   6.571  10.573  -0.133  0.0315 -0.4138 -0.1454
  290MOL0     C39038   6.525  10.428  -0.142 -1.1426  0.4224 -0.5719
  290MOL0     O39039   6.483  10.396  -0.275  0.2297  0.0233  0.3437
  290MOL0     C39040   6.437  10.271  -0.301 -0.4023  0.5833  0.4970
  290MOL0     C39041   6.427  10.162  -0.212  0.3218 -0.3044 -0.0921
  290MOL0     C39042   6.382  10.037  -0.260 -1.1050 -0.9212 -1.0322
  290MOL0     C39043   6.408   9.922  -0.166 -0.3066 -0.4346  0.2672
  290MOL0     C39044   6.340  10.019  -0.387  0.2111  0.2891  0.6564
  290MOL0     C39045   6.290   9.886  -0.440 -0.2337  0.0713  0.7760
  290MOL0     O39046   6.371   9.837  -0.538  0.4382  0.3836 -0.5704
  290MOL0     C39047   6.359   9.699  -0.545  0.1204  0.0785 -0.6344
  290MOL0     C39048   6.458   9.623  -0.476 -0.4508 -0.5434  0.2954
  290MOL0     C39049   6.460   9.480  -0.483 -0.0298 -0.9757  0.8448
  290MOL0     C39050   6.356   9.424  -0.557  0.2760 -0.2373  0.1639
  290MOL0     O39051   6.372   9.286  -0.558  0.3832 -0.3704 -0.0394
  290MOL0     C39052   6.312   9.189  -0.654  0.1404 -0.1318  0.0390
  290MOL0     C39053   6.346   9.063  -0.601  0.7089  0.2284 -0.7250
  290MOL0     C39054   6.266   8.946  -0.668 -0.3615 -0.0559 -0.3208
  290MOL0     C39055   6.319   8.928  -0.811  0.2424 -0.1823 -0.2927
  290MOL0     C39056   6.250   8.811  -0.889  0.0170 -0.7798 -0.0056
  290MOL0     C39057   6.308   8.771  -1.023  0.9230 -0.1199 -0.6879
  290MOL0     C39058   6.232   8.651  -1.080 -0.3683  0.1230 -0.3478
  290MOL0     C39059   6.270   8.632  -1.227 -0.7111 -0.6787  0.5984
  290MOL0    Cl39060   6.152   8.521  -1.296 -0.2335 -0.2681 -0.3086
  290MOL0     C39061   6.260   9.495  -0.626  0.3070 -0.1566 -0.4747
  290MOL0     C39062   6.264   9.632  -0.620 -0.1197 -0.3454  0.4777
  290MOL0     O39063   6.212   9.818  -0.376  0.3493 -0.3776 -0.5066
  290MOL0     C39064   6.336  10.129  -0.475 -0.2233  0.2641  0.6047
  290MOL0     C39065   6.392  10.246  -0.431 -0.0201  0.8800  1.3659
  290MOL0     N39066   6.592  10.841  -0.366  0.5539  0.2380 -0.0857
  290MOL0     N39067   6.491  10.897  -0.420  0.2524  0.2779  0.8806
  290MOL0     C39068   6.616  10.877   0.204  0.4028  0.5177  0.1293
  290MOL0     C39069   6.744  10.937   0.218  0.0270 -0.6037  0.3989
  290MOL0     C39070   7.024  11.255   0.415  0.2828 -0.2423  0.5957
  290MOL0     C39071   7.119  11.270   0.303  0.9488  0.2318 -0.0116
  290MOL0     C39072   7.236  11.351   0.328  0.3272 -0.3718 -0.4883
  290MOL0     C39073   7.258  11.416   0.447 -0.0140 -0.0794 -0.4646
  290MOL0     O39074   7.375  11.482   0.483  0.4976  0.2391 -0.2083
  290MOL0     C39075   7.471  11.488   0.378 -0.1822 -0.2218  0.1098
  290MOL0     C39076   7.586  11.581   0.409 -0.8952 -0.0712  0.1787
  290MOL0     C39077   7.691  11.525   0.509  0.1282 -0.3471 -0.8115
  290MOL0     C39078   7.758  11.398   0.457  0.3073  0.8887  0.4870
  290MOL0     C39079   7.899  11.398   0.512 -0.0432 -0.4728 -0.7376
  290MOL0     C39080   8.011  11.413   0.555  0.4528  0.6612  1.2692
  290MOL0     C39081   7.153  11.407   0.544 -0.5317  0.0748  0.1673
  290MOL0     C39082   7.039  11.333   0.531  0.6545 -0.0146 -0.4549
  290MOL0     H39083   6.608  11.254   0.230  0.7405  0.4737 -1.0365
  290MOL0     H39084   6.414  11.136   0.165 -0.5256  0.0201  0.3758
  290MOL0     H39085   6.455  10.800  -0.019 -2.0255  0.7752 -1.2087
  290MOL0     H39086   6.391  10.689   0.117 -2.1611 -2.9046 -2.9883
  290MOL0     H39087   6.170  10.785   0.055 -1.5951  0.3634 -1.1930
  290MOL0     H39088   6.245  10.828  -0.105  1.1185  0.1410  0.2517
  290MOL0     H39089   6.298  10.568  -0.126  0.4851 -0.6358 -0.1780
  290MOL0     H39090   6.203  10.549   0.019 -2.1338  0.5696 -0.0811
  290MOL0     H39091   6.003  10.591  -0.091  0.6120 -1.1660 -0.1805
  290MOL0     H39092   6.073  10.728  -0.185  1.9893  0.7932  0.6583
  290MOL0     H39093   6.102  10.436  -0.251 -2.3816 -0.3527  1.1564
  290MOL0     H39094   5.999  10.552  -0.336 -3.2595 -3.1141  3.4332
  290MOL0     H39095   6.297  10.574  -0.337 -0.4545  0.8411  0.9264
  290MOL0     H39096   6.201  10.521  -0.470 -2.2554 -1.1285  0.0189
  290MOL0     H39097   6.088  10.765  -0.441 -0.6368 -2.7958  0.3046
  290MOL0     H39098   6.234  10.796  -0.332  1.8488  2.6918 -3.2196
  290MOL0     H39099   6.252  10.893  -0.548 -0.7530  0.1434  2.7830
  290MOL0     H39100   6.261  10.734  -0.619  2.6428 -0.3497 -0.6354
  290MOL0     H39101   6.462  10.572  -0.503 -0.2457  0.9727 -2.4629
  290MOL0     H39102   6.674  10.504  -0.392 -0.6501  0.4182  1.2465
  290MOL0     H39103   6.791  10.644  -0.408 -0.2790 -1.5900 -2.4333
  290MOL0     H39104   6.774  10.666  -0.164  1.8864 -2.0489  1.6841
  290MOL0     H39105   6.751  10.495  -0.172 -0.8703  1.5041  1.5069
  290MOL0     H39106   6.506  10.644  -0.185  1.4056  2.4611  1.7774
  290MOL0     H39107   6.573  10.611  -0.030 -1.8445  1.3624 -0.7048
  290MOL0     H39108   6.446  10.400  -0.071  0.6360 -1.3896  0.8015
  290MOL0     H39109   6.607  10.362  -0.111 -1.7386  0.3399  0.9299
  290MOL0     H39110   6.463  10.171  -0.110 -1.2700  1.6351  0.3520
  290MOL0     H39111   6.492   9.861  -0.201 -0.8407 -1.1850  0.2581
  290MOL0     H39112   6.429   9.951  -0.063 -0.5865 -0.1449  0.2460
  290MOL0     H39113   6.320   9.857  -0.158  0.5976 -1.5740  1.4207
  290MOL0     H39114   6.548   9.672  -0.438 -0.3952 -0.3674 -0.0581
  290MOL0     H39115   6.540   9.415  -0.449 -3.0032 -3.5808  3.5519
  290MOL0     H39116   6.204   9.205  -0.661  0.1155  0.0374  0.7731
  290MOL0     H39117   6.351   9.210  -0.754  0.2876  0.1217  0.1497
  290MOL0     H39118   6.454   9.055  -0.618  0.4960  1.9812 -3.5092
  290MOL0     H39119   6.333   9.062  -0.492  2.6820  1.9293 -0.4086
  290MOL0     H39120   6.158   8.964  -0.665 -0.3747 -0.3313  1.0970
  290MOL0     H39121   6.288   8.856  -0.611  2.3629  0.9551  0.3477
  290MOL0     H39122   6.309   9.023  -0.864 -2.8509 -0.5773 -0.6000
  290MOL0     H39123   6.425   8.902  -0.817  0.5573  1.2031 -1.5509
  290MOL0     H39124   6.145   8.840  -0.903  0.2122 -0.3326 -0.5614
  290MOL0     H39125   6.252   8.724  -0.823 -0.0061 -0.9562 -0.2376
  290MOL0     H39126   6.303   8.848  -1.101  0.2179  1.9052  1.2547
  290MOL0     H39127   6.414   8.754  -0.999  0.8596 -1.3039 -1.1564
  290MOL0     H39128   6.125   8.671  -1.065 -0.1680 -1.1966  3.8984
  290MOL0     H39129   6.269   8.563  -1.028  2.8007 -0.1360 -2.7243
  290MOL0     H39130   6.367   8.582  -1.237  0.4894  1.8056 -1.2390
  290MOL0     H39131   6.268   8.725  -1.284 -0.1615 -2.4037 -2.4351
  290MOL0     H39132   6.184   9.436  -0.676 -1.5279 -0.0122  1.9740
  290MOL0     H39133   6.184   9.688  -0.667 -1.8058 -0.8603  2.5792
  290MOL0     H39134   6.312  10.126  -0.581  2.1573  6.5251 -0.4958
  290MOL0     H39135   6.405  10.330  -0.498  2.4114  0.7961  1.6645
  290MOL0     H39136   6.622  10.772   0.177 -2.7323 -0.0896  1.3797
  290MOL0     H39137   6.836  10.879   0.224  0.1295 -0.5369 -0.4132
  290MOL0     H39138   7.106  11.229   0.203 -0.9902  1.5514 -0.3449
  290MOL0     H39139   7.314  11.336   0.254  2.6205  1.2745  1.4650
  290MOL0     H39140   7.522  11.392   0.361 -1.0224 -0.7927  0.7476
  290MOL0     H39141   7.420  11.522   0.287 -0.7205  0.3910  0.6321
  290MOL0     H39142   7.546  11.667   0.464  0.1644 -0.0978  1.0132
  290MOL0     H39143   7.635  11.617   0.318 -0.4307  1.0264  0.8414
  290MOL0     H39144   7.638  11.495   0.600  2.3325 -1.8235  0.0777
  290MOL0     H39145   7.763  11.603   0.536 -1.0739  0.1114  1.3254
  290MOL0     H39146   7.768  11.397   0.348  0.9166  0.1965  0.5418
  290MOL0     H39147   7.704  11.310   0.492  1.4150 -0.2073 -0.4766
  290MOL0     H39148   8.112  11.428   0.587  1.5590 -1.3764 -0.9145
  290MOL0     H39149   7.162  11.470   0.632 -0.5303 -0.7328  0.7500
  290MOL0     H39150   6.967  11.325   0.612  1.8639  1.5655  0.8482
  291MOL0     O39151   7.833   0.833  10.168 -0.0115  0.2725  0.1964
  291MOL0     C39152   7.861   0.711  10.176  0.6657 -0.2255  0.1114
  291MOL0     O39153   7.769   0.611  10.204 -0.1554  0.1631 -0.1668
  291MOL0     C39154   7.636   0.635  10.206 -0.6073  0.3645 -0.1364
  291MOL0     C39155   7.559   0.729  10.126  0.1270  1.0688 -0.0679
  291MOL0     C39156   7.420   0.737  10.148 -0.0658  0.2447  0.2205
  291MOL0     C39157   7.353   0.661  10.237  0.3557  0.0200  0.2145
  291MOL0     O39158   7.216   0.633  10.245  0.1332 -0.7969  0.2777
  291MOL0     C39159   7.142   0.643  10.121  1.3136  0.6529  0.0684
  291MOL0     C39160   6.995   0.617  10.152  0.1937  0.9205 -0.3598
  291MOL0     C39161   6.960   0.476  10.211 -0.0724 -0.4662  0.5362
  291MOL0     C39162   6.816   0.434  10.174 -0.7957  0.6924  0.1367
  291MOL0     C39163   6.803   0.284  10.208 -0.4068 -0.2548  0.1112
  291MOL0     C39164   6.662   0.222  10.183 -0.1763  0.0569  0.4537
  291MOL0     C39165   6.556   0.285  10.281 -0.0644 -1.5274  0.1985
  291MOL0     C39166   6.417   0.228  10.279  0.0673  0.4907 -1.0210
  291MOL0     N39167   6.411   0.087  10.334 -0.3461  0.2674  0.2235
  291MOL0     C39168   6.425   0.047  10.465 -0.3294  0.5431 -0.1886
  291MOL0     C39169   6.466  -0.082  10.464  0.1548 -0.2236  0.6905
  291MOL0     C39170   6.501  -0.168  10.577 -0.2768  0.4026  0.2068
  291MOL0     C39171   6.638  -0.245  10.554 -0.1386 -0.8134 -0.1253
  291MOL0     C39172   6.749  -0.143  10.551 -1.0249 -0.1491  0.0711
  291MOL0     C39173   6.886  -0.201  10.521  0.3492  0.2395 -0.0804
  291MOL0     O39174   6.896  -0.280  10.400 -0.3848  0.1479  0.1024
  291MOL0     C39175   7.015  -0.341  10.364  0.2185 -0.9864 -0.0336
  291MOL0     C39176   7.007  -0.429  10.259 -0.6565 -0.2346 -0.1018
  291MOL0     C39177   7.121  -0.506  10.219  0.9245  0.4176 -1.0219
  291MOL0     C39178   7.103  -0.627  10.127  0.6067 -0.3566 -1.0345
  291MOL0     C39179   7.239  -0.484  10.292 -0.3743  0.3328 -0.0473
  291MOL0     C39180   7.360  -0.559  10.254 -0.1927 -0.1698  0.2399
  291MOL0     O39181   7.382  -0.604  10.126 -0.0409  0.2820 -0.1071
  291MOL0     C39182   7.505  -0.663  10.100 -0.5058  0.5276  0.0033
  291MOL0     C39183   7.618  -0.580  10.074  0.1387 -0.1075 -0.2903
  291MOL0     C39184   7.741  -0.635  10.045 -0.6658 -0.2252 -0.9505
  291MOL0     C39185   7.764  -0.772  10.040  0.7558  0.5905 -0.0481
  291MOL0     O39186   7.885  -0.810  10.007  0.2474 -0.2442 -0.0193
  291MOL0     C39187   7.937  -0.919  10.089  0.3103  0.0191  0.6836
  291MOL0     C39188   8.089  -0.910  10.099  0.2582 -0.3363 -0.3459
  291MOL0     C39189   8.171  -0.911   9.963  0.5719  0.4358  0.0518
  291MOL0     C39190   8.325  -0.894   9.983  0.3407 -0.6663  0.5626
  291MOL0     C39191   8.386  -1.032  10.023  0.1046  0.2720 -0.2056
  291MOL0     C39192   8.446  -1.103   9.901 -0.3443 -0.5832  0.3643
  291MOL0     C39193   8.593  -1.077   9.902  0.3794 -0.2293 -0.2406
  291MOL0     C39194   8.666  -1.148   9.795 -0.1660  0.3459  0.4225
  291MOL0    Cl39195   8.834  -1.151   9.834 -0.2122 -0.0891  0.0155
  291MOL0     C39196   7.650  -0.851  10.055  0.9355 -0.7342 -0.9078
  291MOL0     C39197   7.524  -0.806  10.085 -0.4280  0.3201 -0.2504
  291MOL0     O39198   7.441  -0.580  10.345 -0.2594 -0.4946 -0.1874
  291MOL0     C39199   7.238  -0.400  10.407 -1.0340  0.2142 -0.0716
  291MOL0     C39200   7.133  -0.326  10.436  0.6407  0.0219 -0.4036
  291MOL0     N39201   6.467  -0.124  10.341 -0.5282  0.2436  1.2551
  291MOL0     N39202   6.438  -0.027  10.261 -0.0248  0.5609 -0.6847
  291MOL0     C39203   7.429   0.576  10.316 -0.3698 -0.8475  0.0664
  291MOL0     C39204   7.571   0.562  10.298 -1.0333  0.5279 -0.5165
  291MOL0     C39205   7.998   0.670  10.154  0.1576 -0.1335 -0.5162
  291MOL0     C39206   8.099   0.758  10.100 -0.5272  0.1690 -0.1758
  291MOL0     C39207   8.237   0.730  10.109 -0.2113  0.4804 -0.1008
  291MOL0     C39208   8.272   0.610  10.167 -0.1873  0.1073 -0.6796
  291MOL0     O39209   8.406   0.585  10.163 -0.6265  0.3565 -0.1545
  291MOL0     C39210   8.458   0.450  10.200  0.3505 -0.2139 -0.9205
  291MOL0     C39211   8.514   0.432  10.342 -0.3042 -0.3840 -0.3400
  291MOL0     C39212   8.534   0.289  10.378  0.0256 -0.8019 -0.3527
  291MOL0     C39213   8.626   0.268  10.501  0.3608 -0.0495  0.0544
  291MOL0     C39214   8.767   0.263  10.470  0.0812  0.0464 -0.0601
  291MOL0     C39215   8.882   0.260  10.431  0.5956  0.0786  0.2811
  291MOL0     C39216   8.176   0.521  10.216 -0.0784 -0.7492 -0.7002
  291MOL0     C39217   8.039   0.545  10.202 -0.4577  0.0735  0.4226
  291MOL0     H39218   7.616   0.789  10.056 -0.2506  1.3624 -0.1232
  291MOL0     H39219   7.365   0.792  10.072  0.0465 -0.8148 -0.6447
  291MOL0     H39220   7.147   0.744  10.079 -3.0491  0.6083 -1.0372
  291MOL0     H39221   7.185   0.570  10.052 -1.0396 -1.3104  0.5616
  291MOL0     H39222   6.957   0.692  10.222  0.6746  0.7827  0.0514
  291MOL0     H39223   6.947   0.623  10.053  1.1597  1.0137 -0.8329
  291MOL0     H39224   7.025   0.395  10.177 -0.1221 -0.5329  0.5999
  291MOL0     H39225   6.975   0.481  10.320  2.6516  0.2264  0.1948
  291MOL0     H39226   6.746   0.491  10.234 -1.4570 -1.9548  2.0542
  291MOL0     H39227   6.790   0.436  10.067 -2.4240 -1.6314  0.4117
  291MOL0     H39228   6.873   0.223  10.150 -0.4363 -0.6216  0.4528
  291MOL0     H39229   6.822   0.270  10.315 -1.0959 -0.7271  0.1801
  291MOL0     H39230   6.640   0.240  10.078  0.8388  0.4323  0.2928
  291MOL0     H39231   6.678   0.115  10.195 -1.2848 -0.1803 -0.1633
  291MOL0     H39232   6.594   0.276  10.383 -0.2691  1.2276  0.5843
  291MOL0     H39233   6.540   0.389  10.251  1.3524 -1.1988  0.5127
  291MOL0     H39234   6.379   0.231  10.176 -1.1147 -0.5117 -0.6283
  291MOL0     H39235   6.353   0.286  10.346  0.0696 -2.3198  1.5931
  291MOL0     H39236   6.418   0.112  10.551  2.6217  1.7568 -0.7409
  291MOL0     H39237   6.505  -0.112  10.671  1.9676  0.4519  0.1440
  291MOL0     H39238   6.416  -0.235  10.591 -1.0693  1.2449 -0.4662
  291MOL0     H39239   6.645  -0.300  10.460 -1.8189  0.0535 -0.7799
  291MOL0     H39240   6.653  -0.310  10.641 -1.8000 -1.3040 -0.1732
  291MOL0     H39241   6.759  -0.085  10.643 -1.3340 -2.5702  1.7425
  291MOL0     H39242   6.729  -0.076  10.467  0.2253  1.6977  1.1727
  291MOL0     H39243   6.912  -0.263  10.607 -0.0820 -1.8826 -1.4111
  291MOL0     H39244   6.949  -0.111  10.522 -1.5745  1.6559 -0.2476
  291MOL0     H39245   6.921  -0.444  10.194  0.0909  0.5602 -1.3186
  291MOL0     H39246   7.173  -0.613  10.044  0.9155 -1.0337 -0.8927
  291MOL0     H39247   7.119  -0.716  10.188 -1.8994  1.3035  2.4262
  291MOL0     H39248   6.997  -0.641  10.101 -0.8597  2.7574  2.2655
  291MOL0     H39249   7.606  -0.472  10.068  1.8958  0.0579 -1.4526
  291MOL0     H39250   7.820  -0.564  10.025 -1.3537  0.7641 -0.2537
  291MOL0     H39251   7.890  -0.930  10.187 -0.6321  1.3549  0.4084
  291MOL0     H39252   7.914  -1.015  10.042  1.2148 -0.1666  0.6030
  291MOL0     H39253   8.112  -0.817  10.153 -0.9602  0.1080 -0.5593
  291MOL0     H39254   8.115  -0.997  10.159 -1.8909 -0.4106  0.5846
  291MOL0     H39255   8.133  -0.828   9.903  0.0867  0.7285  0.7498
  291MOL0     H39256   8.137  -0.995   9.902  0.1921  0.7375 -0.1603
  291MOL0     H39257   8.380  -0.868   9.892 -0.5045 -0.1113  0.2013
  291MOL0     H39258   8.345  -0.818  10.059  1.8163  0.5424 -0.9669
  291MOL0     H39259   8.317  -1.109  10.061  0.0959 -1.6488 -3.7090
  291MOL0     H39260   8.461  -1.008  10.099 -0.8044  1.5664  0.3103
  291MOL0     H39261   8.424  -1.210   9.906 -1.2005 -0.9606 -5.3498
  291MOL0     H39262   8.405  -1.067   9.807  0.2254  0.5531  0.5302
  291MOL0     H39263   8.641  -1.107   9.996  0.7802 -1.7038 -0.8926
  291MOL0     H39264   8.606  -0.969   9.894 -2.7744  0.1546 -1.7699
  291MOL0     H39265   8.650  -1.099   9.699 -0.1317  2.9606  1.6729
  291MOL0     H39266   8.623  -1.249   9.795 -1.5998  0.9171 -1.1794
  291MOL0     H39267   7.652  -0.958  10.034  1.7912 -1.2900  1.5824
  291MOL0     H39268   7.441  -0.875  10.097 -0.3172  0.1532 -0.4386
  291MOL0     H39269   7.330  -0.409  10.463  0.3055 -1.7029 -2.3665
  291MOL0     H39270   7.140  -0.263  10.524  0.5060 -1.0496  0.3864
  291MOL0     H39271   7.380   0.529  10.401  0.2503 -2.7722 -0.5782
  291MOL0     H39272   7.617   0.484  10.358 -0.4941  1.8493  0.8641
  291MOL0     H39273   8.065   0.844  10.044 -0.0250 -1.0310 -2.4441
  291MOL0     H39274   8.304   0.796  10.054  0.0255  0.2946 -0.0393
  291MOL0     H39275   8.380   0.374  10.186 -0.6581  0.0145  2.5548
  291MOL0     H39276   8.549   0.435  10.142  3.2508  0.6276  3.0024
  291MOL0     H39277   8.453   0.480  10.418 -1.2096 -0.2214 -1.1441
  291MOL0     H39278   8.612   0.481  10.336 -0.4313  0.4595  2.7871
  291MOL0     H39279   8.578   0.231  10.296 -1.3162 -1.1544 -0.8475
  291MOL0     H39280   8.429   0.262  10.392 -0.4200 -0.0222 -2.0185
  291MOL0     H39281   8.603   0.168  10.537 -0.7760 -0.7624 -2.4843
  291MOL0     H39282   8.605   0.343  10.579  1.9740 -0.8236  1.2849
  291MOL0     H39283   8.987   0.263  10.409  0.6468  1.0172  0.5876
  291MOL0     H39284   8.207   0.434  10.274 -2.4365 -1.1837  0.0429
  291MOL0     H39285   7.966   0.468  10.223  1.5065 -1.4340  2.1065
  292MOL0     O39286   3.493   9.674   1.705 -0.4423 -0.4168  0.7397
  292MOL0     C39287   3.544   9.729   1.602  0.4198  0.6239  0.4636
  292MOL0     O39288   3.470   9.772   1.492  0.2716  0.8830  0.3755
  292MOL0     C39289   3.339   9.757   1.495 -0.4975  0.8556 -0.2257
  292MOL0     C39290   3.273   9.689   1.394 -0.4395 -0.2657  0.1314
  292MOL0     C39291   3.133   9.673   1.398 -0.4902  0.0369  0.5796
  292MOL0     C39292   3.055   9.723   1.496 -0.3206  0.4895 -0.1621
  292MOL0     O39293   2.920   9.702   1.481 -0.3555  0.0317 -0.4147
  292MOL0     C39294   2.826   9.794   1.546 -0.0804  0.6491 -0.2606
  292MOL0     C39295   2.676   9.762   1.517  0.5682  0.0700  0.3514
  292MOL0     C39296   2.644   9.795   1.372 -0.0179 -0.0182 -0.0034
  292MOL0     C39297   2.487   9.797   1.365  0.2610  0.1269  0.7901
  292MOL0     C39298   2.408   9.900   1.449  0.2914  0.0440 -0.3843
  292MOL0     C39299   2.431  10.042   1.402  0.4967  0.1872 -0.6427
  292MOL0     C39300   2.346  10.147   1.483  0.7898  0.5216 -0.7379
  292MOL0     C39301   2.194  10.115   1.494 -0.3969  0.4435  0.1044
  292MOL0     N39302   2.114  10.231   1.527 -0.7870  0.3166  0.4535
  292MOL0     C39303   2.096  10.345   1.448 -0.0580 -1.0908 -0.8666
  292MOL0     C39304   2.055  10.442   1.539 -0.5055  0.2930  0.0355
  292MOL0     C39305   1.998  10.578   1.511  0.5695  0.8142 -0.1981
  292MOL0     C39306   1.942  10.600   1.372 -0.4896 -0.1142  0.0842
  292MOL0     C39307   1.831  10.511   1.328  0.6406  0.7365  0.0594
  292MOL0     C39308   1.795  10.545   1.183  0.3983 -1.5686 -0.2416
  292MOL0     O39309   1.699  10.653   1.182 -0.5813 -0.0717  0.1899
  292MOL0     C39310   1.573  10.634   1.220 -0.3702  0.4799 -0.7933
  292MOL0     C39311   1.504  10.754   1.228  0.9957 -0.1645  0.6249
  292MOL0     C39312   1.369  10.767   1.273  0.1895 -0.1368  0.0934
  292MOL0     C39313   1.316  10.905   1.274 -0.7728 -0.4623 -0.0851
  292MOL0     C39314   1.306  10.640   1.303 -0.1811 -0.7238  0.2077
  292MOL0     C39315   1.170  10.630   1.363  0.3864 -0.4693 -0.8665
  292MOL0     O39316   1.107  10.511   1.360 -0.5060  0.6735  0.5340
  292MOL0     C39317   0.973  10.514   1.382  0.2369  0.5412  0.0764
  292MOL0     C39318   0.916  10.387   1.401 -0.3644  0.2346 -0.3826
  292MOL0     C39319   0.780  10.361   1.404  1.2492 -0.4066 -0.4800
  292MOL0     C39320   0.688  10.468   1.399  1.2488  0.0409  0.8427
  292MOL0     O39321   0.551  10.441   1.406  0.3903 -0.0912 -0.1743
  292MOL0     C39322   0.466  10.558   1.404  0.7558 -0.0608 -0.3397
  292MOL0     C39323   0.326  10.510   1.425 -0.5193 -0.1523  0.5773
  292MOL0     C39324   0.222  10.624   1.412 -0.3087  0.0963 -0.4803
  292MOL0     C39325   0.254  10.746   1.484  0.2118 -0.4817 -0.9781
  292MOL0     C39326   0.120  10.828   1.498  0.4107 -0.2002  1.0332
  292MOL0     C39327   0.134  10.977   1.550  0.0292 -0.1578 -0.3953
  292MOL0     C39328  -0.005  11.043   1.560 -0.1649 -0.7042  0.7645
  292MOL0     C39329  -0.084  11.004   1.683 -0.3495  0.1265 -0.4752
  292MOL0    Cl39330  -0.033  11.102   1.826 -0.0281  0.3201  0.0556
  292MOL0     C39331   0.738  10.601   1.396  0.4258  0.1949 -0.7200
  292MOL0     C39332   0.881  10.616   1.378 -0.0877 -1.3219 -0.0503
  292MOL0     O39333   1.142  10.725   1.439  0.5956 -0.5149  0.3371
  292MOL0     C39334   1.374  10.517   1.290 -0.3685  0.2449  0.4866
  292MOL0     C39335   1.513  10.516   1.253  0.5335  0.5503 -0.4511
  292MOL0     N39336   2.039  10.377   1.661  0.5968 -0.0876  1.4450
  292MOL0     N39337   2.078  10.252   1.653 -0.8051 -0.5213  0.0910
  292MOL0     C39338   3.116   9.799   1.594  0.8352 -1.2985  0.1609
  292MOL0     C39339   3.257   9.813   1.588  0.0963  0.2395 -0.7879
  292MOL0     C39340   3.688   9.735   1.597 -0.2024 -0.6535 -0.3059
  292MOL0     C39341   3.753   9.784   1.478 -0.0150 -0.7077  0.2019
  292MOL0     C39342   3.889   9.792   1.469 -0.5480  0.6835  0.0524
  292MOL0     C39343   3.967   9.741   1.569 -0.3642  0.1955 -1.0885
  292MOL0     O39344   4.098   9.745   1.574 -1.0413  0.0520  0.3922
  292MOL0     C39345   4.159   9.635   1.511 -0.0993  0.3588 -0.1926
  292MOL0     C39346   4.307   9.656   1.516  0.4803 -0.2223  0.5339
  292MOL0     C39347   4.359   9.677   1.660 -0.0688 -0.3362  0.0073
  292MOL0     C39348   4.514   9.695   1.666  0.2062  1.2375 -0.6363
  292MOL0     C39349   4.592   9.579   1.636  0.3825  1.2981 -0.5673
  292MOL0     C39350   4.658   9.483   1.606  0.0331  0.3545  0.8759
  292MOL0     C39351   3.909   9.692   1.687  0.1306 -0.5087 -0.8075
  292MOL0     C39352   3.769   9.691   1.693 -0.3681  0.0017  0.0342
  292MOL0     H39353   3.336   9.646   1.317  0.1377 -2.5591  1.7727
  292MOL0     H39354   3.093   9.621   1.312  3.4162 -1.3145 -0.6382
  292MOL0     H39355   2.839   9.787   1.654 -1.8195 -0.1260 -0.0587
  292MOL0     H39356   2.842   9.896   1.510  0.5423  0.8720  0.6174
  292MOL0     H39357   2.633   9.668   1.552 -1.1700 -0.0065 -1.7813
  292MOL0     H39358   2.632   9.847   1.570  0.4689  0.7106 -0.7283
  292MOL0     H39359   2.691   9.888   1.340 -0.1602 -0.7271 -2.5294
  292MOL0     H39360   2.683   9.721   1.302 -0.8205 -2.0051  1.5354
  292MOL0     H39361   2.447   9.811   1.264 -3.2129 -2.2347  1.6868
  292MOL0     H39362   2.445   9.701   1.396  0.6412  0.3953  2.2377
  292MOL0     H39363   2.301   9.879   1.448  0.0906  0.6586 -3.4460
  292MOL0     H39364   2.433   9.896   1.555  0.1565  1.8776 -0.2553
  292MOL0     H39365   2.535  10.074   1.416  0.2172  0.3635  1.3204
  292MOL0     H39366   2.401  10.039   1.297 -0.2288 -1.8743 -0.4131
  292MOL0     H39367   2.390  10.157   1.583  1.0647  0.8660 -0.8919
  292MOL0     H39368   2.362  10.241   1.430  0.7855  2.0642  1.8545
  292MOL0     H39369   2.174  10.045   1.576 -1.6742  1.1187  0.3944
  292MOL0     H39370   2.176  10.070   1.396  2.1876  0.8616 -0.6322
  292MOL0     H39371   2.129  10.355   1.345 -1.1037 -2.1253 -1.3190
  292MOL0     H39372   1.916  10.580   1.583  1.0379 -1.5785  0.4858
  292MOL0     H39373   2.082  10.646   1.530  0.4032  0.4748  1.9765
  292MOL0     H39374   2.026  10.590   1.302 -1.1169  0.5863 -0.7911
  292MOL0     H39375   1.902  10.702   1.376 -3.4374 -1.1190 -1.0809
  292MOL0     H39376   1.744  10.512   1.393  1.1518 -0.2998  0.7942
  292MOL0     H39377   1.867  10.407   1.325  3.0410  1.4478 -3.8854
  292MOL0     H39378   1.768  10.454   1.127 -0.6732 -1.1670 -0.4032
  292MOL0     H39379   1.879  10.579   1.122  1.2679 -1.7605  0.8170
  292MOL0     H39380   1.559  10.846   1.210  2.1140 -0.7573  0.9031
  292MOL0     H39381   1.209  10.903   1.250 -0.6449 -2.6000 -0.7004
  292MOL0     H39382   1.325  10.937   1.378 -4.0924 -1.4504  0.6375
  292MOL0     H39383   1.372  10.967   1.204 -0.1561 -3.0056 -1.9757
  292MOL0     H39384   0.981  10.300   1.399 -1.0523 -0.3324  0.9539
  292MOL0     H39385   0.751  10.257   1.414  0.8098 -0.2868 -0.4867
  292MOL0     H39386   0.495  10.633   1.477  1.1234 -0.4540 -0.0823
  292MOL0     H39387   0.471  10.611   1.308  1.4795  0.6587  0.0877
  292MOL0     H39388   0.309  10.440   1.342  0.9327 -1.1667  1.0994
  292MOL0     H39389   0.311  10.466   1.523  2.6808  0.5079  1.4775
  292MOL0     H39390   0.127  10.581   1.445 -0.9830  2.3438  0.7480
  292MOL0     H39391   0.209  10.643   1.305 -1.0617 -0.8387 -0.5612
  292MOL0     H39392   0.286  10.714   1.583  2.0927 -0.7835 -1.6341
  292MOL0     H39393   0.333  10.812   1.445  0.5479  0.9200  1.8155
  292MOL0     H39394   0.054  10.772   1.565  1.1935 -1.2034  0.9937
  292MOL0     H39395   0.067  10.831   1.402  0.8807 -2.4650  0.6486
  292MOL0     H39396   0.183  10.973   1.648  0.2536 -0.7050 -0.5309
  292MOL0     H39397   0.193  11.033   1.477  1.7551  0.7262  1.5388
  292MOL0     H39398  -0.069  11.018   1.474 -1.9447  0.5017  1.6930
  292MOL0     H39399  -0.006  11.152   1.557 -3.7968 -0.6179 -0.4584
  292MOL0     H39400  -0.070  10.898   1.705 -0.7534  0.1726  0.0235
  292MOL0     H39401  -0.188  11.035   1.670 -0.2388  0.1218 -1.3860
  292MOL0     H39402   0.679  10.692   1.390 -0.6881 -0.4409  0.1796
  292MOL0     H39403   0.909  10.716   1.346  0.6609 -1.3053  0.6349
  292MOL0     H39404   1.333  10.418   1.309 -0.2160  0.2824  1.0007
  292MOL0     H39405   1.571  10.425   1.253  0.3083  0.4012  0.1981
  292MOL0     H39406   3.061   9.857   1.668  1.9006 -0.8494  0.6162
  292MOL0     H39407   3.307   9.861   1.672  0.7850 -2.0892  0.1998
  292MOL0     H39408   3.708   9.817   1.384  0.7154 -1.2861 -0.3652
  292MOL0     H39409   3.920   9.847   1.381 -0.7927 -1.2916 -1.3169
  292MOL0     H39410   4.133   9.547   1.570  1.0111  1.3941  1.9740
  292MOL0     H39411   4.135   9.621   1.405  2.5565  3.5506 -1.3923
  292MOL0     H39412   4.335   9.744   1.459  0.1321 -0.8840 -0.6923
  292MOL0     H39413   4.351   9.561   1.485 -0.5003 -0.6821  0.5064
  292MOL0     H39414   4.315   9.594   1.715 -1.2964 -0.9970 -1.8681
  292MOL0     H39415   4.319   9.772   1.697  0.8298  0.7402 -1.6088
  292MOL0     H39416   4.539   9.721   1.769 -0.4221 -4.2636  1.2594
  292MOL0     H39417   4.537   9.772   1.592 -1.4745  0.0336 -2.5384
  292MOL0     H39418   4.717   9.402   1.569 -0.7651 -0.4674  1.3853
  292MOL0     H39419   3.954   9.634   1.767 -2.1329  0.0182  0.9477
  292MOL0     H39420   3.723   9.664   1.788  0.7970  2.0625  1.2697
  293MOL0     O39421   4.742   0.100   1.446  0.0120  0.1476 -0.2537
  293MOL0     C39422   4.734   0.217   1.482 -0.2448  0.0154 -0.2201
  293MOL0     O39423   4.618   0.293   1.485 -0.0154 -0.3766 -0.2067
  293MOL0     C39424   4.484   0.249   1.464  0.1220 -0.3974 -0.6628
  293MOL0     C39425   4.374   0.327   1.509 -0.6705  0.4278 -0.3205
  293MOL0     C39426   4.239   0.290   1.471 -0.7668  0.5142  0.7566
  293MOL0     C39427   4.210   0.170   1.409 -0.0808 -0.1598 -0.2084
  293MOL0     O39428   4.076   0.156   1.382  1.1671 -0.2273  0.1310
  293MOL0     C39429   4.041   0.062   1.273  0.0032  0.2159 -0.1615
  293MOL0     C39430   3.890   0.067   1.247 -0.1524  0.2547 -0.0506
  293MOL0     C39431   3.820  -0.039   1.339  0.2520 -0.0195 -0.6684
  293MOL0     C39432   3.676  -0.030   1.283 -0.6422 -0.3015 -0.2602
  293MOL0     C39433   3.584  -0.125   1.363  0.4554  0.1459  0.6871
  293MOL0     C39434   3.436  -0.127   1.315  0.6624  0.7751  0.4611
  293MOL0     C39435   3.421  -0.166   1.168 -0.1183 -0.0452 -0.0781
  293MOL0     C39436   3.275  -0.180   1.116  0.5549  0.4434 -0.6501
  293MOL0     N39437   3.200  -0.062   1.128 -0.1991 -0.4074 -0.3728
  293MOL0     C39438   3.123  -0.033   1.236 -0.1024 -0.6323 -0.4294
  293MOL0     C39439   3.058   0.085   1.204  0.5043 -0.0702 -0.4937
  293MOL0     C39440   2.945   0.139   1.294 -0.2251 -0.3780  0.0044
  293MOL0     C39441   3.002   0.171   1.435  0.1750  0.9484  0.8133
  293MOL0     C39442   2.893   0.257   1.498  0.0909 -0.3156 -0.4359
  293MOL0     C39443   2.931   0.269   1.645  0.1274  0.1473 -0.4994
  293MOL0     O39444   2.858   0.371   1.717  0.3744  0.2691 -0.1738
  293MOL0     C39445   2.754   0.326   1.785  0.8674  0.0877 -0.1681
  293MOL0     C39446   2.632   0.285   1.730  0.6783  0.1014 -0.3803
  293MOL0     C39447   2.531   0.225   1.819  0.4042  0.3818 -0.8023
  293MOL0     C39448   2.402   0.187   1.745 -0.1931  0.1571 -0.4989
  293MOL0     C39449   2.545   0.224   1.958  0.3211  0.1858 -0.1434
  293MOL0     C39450   2.433   0.168   2.046 -0.7207 -0.5778 -0.3847
  293MOL0     O39451   2.487   0.081   2.133  0.1122  0.1301  0.4215
  293MOL0     C39452   2.400   0.005   2.207  0.3542 -0.1538 -0.3574
  293MOL0     C39453   2.351  -0.116   2.157 -0.0135  0.1520  0.0381
  293MOL0     C39454   2.273  -0.194   2.240  0.2344  0.5385  0.0608
  293MOL0     C39455   2.241  -0.169   2.377  0.8983  0.5329  0.2975
  293MOL0     O39456   2.143  -0.237   2.447 -0.4840  0.5437 -0.2360
  293MOL0     C39457   2.066  -0.340   2.381 -0.2242  0.3844  0.4383
  293MOL0     C39458   1.962  -0.384   2.489  0.2986  0.3235  0.0683
  293MOL0     C39459   1.848  -0.460   2.424 -0.8086  0.0044  0.5243
  293MOL0     C39460   1.752  -0.526   2.528  0.5828 -0.8404  0.2471
  293MOL0     C39461   1.612  -0.572   2.469 -0.5481 -0.1578 -0.7021
  293MOL0     C39462   1.527  -0.609   2.595  0.0916 -0.7639  0.1997
  293MOL0     C39463   1.384  -0.638   2.557 -0.4236 -0.6023  0.6682
  293MOL0     C39464   1.309  -0.678   2.680  0.5263  0.5478 -0.0748
  293MOL0    Cl39465   1.151  -0.761   2.650 -0.2910  0.1419 -0.3783
  293MOL0     C39466   2.294  -0.047   2.425 -0.5212  0.2191 -0.1017
  293MOL0     C39467   2.374   0.033   2.341 -0.4269 -0.3019  0.2529
  293MOL0     O39468   2.314   0.201   2.031 -0.1595 -0.1178  0.3966
  293MOL0     C39469   2.666   0.269   2.015  0.6028 -0.0341  0.0321
  293MOL0     C39470   2.765   0.319   1.928  0.1716 -0.1594 -0.2392
  293MOL0     N39471   3.079   0.117   1.071  0.1760  0.5351 -0.5245
  293MOL0     N39472   3.169   0.028   1.034 -0.0428 -0.3975 -0.6690
  293MOL0     C39473   4.311   0.084   1.381 -0.4567  0.3035 -0.8320
  293MOL0     C39474   4.442   0.122   1.416 -0.5083  0.2438 -0.5600
  293MOL0     C39475   4.856   0.286   1.525 -0.1124 -0.5966 -0.2280
  293MOL0     C39476   4.979   0.228   1.512 -0.3054 -0.4751 -0.5587
  293MOL0     C39477   5.096   0.300   1.541  0.5667 -0.0420 -0.4661
  293MOL0     C39478   5.085   0.431   1.589 -0.7147 -0.6732  0.0684
  293MOL0     O39479   5.206   0.490   1.624 -0.4528  0.0736  0.3207
  293MOL0     C39480   5.226   0.633   1.631  1.4565 -0.1419 -0.9818
  293MOL0     C39481   5.378   0.651   1.585  0.3761 -0.5416  0.5133
  293MOL0     C39482   5.410   0.805   1.573  0.0079  0.5007 -0.1134
  293MOL0     C39483   5.532   0.838   1.486 -1.0875 -0.4386 -0.5291
  293MOL0     C39484   5.665   0.813   1.544 -0.7523 -0.1739 -0.4301
  293MOL0     C39485   5.769   0.792   1.603 -0.5537 -0.2078  0.0679
  293MOL0     C39486   4.956   0.488   1.616 -0.9475  0.2685 -0.0911
  293MOL0     C39487   4.843   0.419   1.584 -0.2686 -0.3549 -0.8492
  293MOL0     H39488   4.404   0.412   1.570 -1.4489  0.0323  0.6521
  293MOL0     H39489   4.162   0.355   1.511 -0.1728  0.4692  2.0531
  293MOL0     H39490   4.086   0.103   1.181  1.0272  1.8735  1.0068
  293MOL0     H39491   4.076  -0.039   1.297 -1.0303 -0.0455  0.2747
  293MOL0     H39492   3.857   0.168   1.274 -0.8220 -0.1274  0.6174
  293MOL0     H39493   3.872   0.053   1.140 -1.1342  4.0600 -0.5471
  293MOL0     H39494   3.860  -0.140   1.331 -0.6046 -0.5964  1.4729
  293MOL0     H39495   3.819  -0.015   1.446  1.4129  1.2364 -0.9180
  293MOL0     H39496   3.636   0.069   1.307 -2.7252 -1.1836  0.1672
  293MOL0     H39497   3.669  -0.030   1.174  2.7483 -0.2332 -0.5885
  293MOL0     H39498   3.617  -0.229   1.357  0.6365  0.2376  0.1132
  293MOL0     H39499   3.582  -0.095   1.469 -2.1025 -1.0278  1.0483
  293MOL0     H39500   3.391  -0.212   1.367 -1.2304  0.0406 -2.1709
  293MOL0     H39501   3.381  -0.034   1.331 -0.9564 -0.0086 -0.3401
  293MOL0     H39502   3.479  -0.097   1.105  0.0124  2.5584  2.6825
  293MOL0     H39503   3.472  -0.262   1.163  0.8238  0.2650  2.2311
  293MOL0     H39504   3.227  -0.256   1.178  0.7390  0.5666 -0.3489
  293MOL0     H39505   3.263  -0.212   1.012 -0.0313 -3.1768  0.3919
  293MOL0     H39506   3.109  -0.076   1.335 -3.3742  1.2268  0.0441
  293MOL0     H39507   2.930   0.239   1.252  4.4743  0.5658 -0.0659
  293MOL0     H39508   2.858   0.073   1.293  0.0404 -0.7307 -0.2449
  293MOL0     H39509   3.096   0.227   1.428 -0.4001  1.7876 -0.6308
  293MOL0     H39510   3.029   0.078   1.486  1.1362  1.9933  2.2836
  293MOL0     H39511   2.797   0.204   1.496  1.6044 -3.3878  1.5461
  293MOL0     H39512   2.879   0.352   1.446 -1.7850  0.1977  0.8899
  293MOL0     H39513   3.038   0.293   1.648 -0.1548  1.3335  1.2400
  293MOL0     H39514   2.916   0.172   1.694 -2.5335  1.2019  1.0032
  293MOL0     H39515   2.630   0.286   1.622  2.1004 -0.8438 -0.4438
  293MOL0     H39516   2.421   0.169   1.638  1.3510 -0.9210 -0.0778
  293MOL0     H39517   2.362   0.090   1.777  1.6667 -0.7543 -0.8047
  293MOL0     H39518   2.331   0.266   1.771  2.9378  3.4300 -1.1531
  293MOL0     H39519   2.371  -0.137   2.052 -1.5566  0.5741 -0.3656
  293MOL0     H39520   2.243  -0.289   2.197  0.5867  0.1097  0.7480
  293MOL0     H39521   2.012  -0.314   2.290 -2.7736 -0.5996  1.5864
  293MOL0     H39522   2.132  -0.425   2.362  1.2000  1.3973  0.7070
  293MOL0     H39523   2.021  -0.454   2.549  0.8139 -1.4238 -2.3335
  293MOL0     H39524   1.922  -0.303   2.551 -0.3142 -0.9600  1.3989
  293MOL0     H39525   1.888  -0.534   2.353 -1.2138  1.8721 -1.7683
  293MOL0     H39526   1.792  -0.390   2.362 -2.0235 -1.2165  0.1897
  293MOL0     H39527   1.803  -0.607   2.581  3.3104  1.7354  1.8401
  293MOL0     H39528   1.740  -0.441   2.596  0.4504  0.1854 -1.0144
  293MOL0     H39529   1.622  -0.664   2.410 -0.9914 -1.4830  1.1828
  293MOL0     H39530   1.567  -0.493   2.408 -1.1757 -1.2993 -1.7739
  293MOL0     H39531   1.568  -0.698   2.645  0.9691 -1.7069 -2.0817
  293MOL0     H39532   1.521  -0.523   2.662 -0.0619  1.1575 -2.1388
  293MOL0     H39533   1.382  -0.722   2.488  0.0860 -0.3297  0.3121
  293MOL0     H39534   1.334  -0.551   2.513 -0.1142  1.7795  4.5611
  293MOL0     H39535   1.302  -0.592   2.746 -1.5287  0.6100 -0.3261
  293MOL0     H39536   1.370  -0.756   2.727  1.4544  1.9527  1.1248
  293MOL0     H39537   2.278  -0.013   2.527  3.6957 -0.4492  0.9637
  293MOL0     H39538   2.416   0.122   2.386 -0.3010  1.0992 -2.4083
  293MOL0     H39539   2.681   0.277   2.123 -1.2917  0.0665  0.3242
  293MOL0     H39540   2.859   0.348   1.973 -1.9697  0.2838  4.5773
  293MOL0     H39541   4.295  -0.018   1.348 -0.9629 -0.4331  1.4920
  293MOL0     H39542   4.524   0.052   1.402 -0.2701  0.5650 -0.7850
  293MOL0     H39543   4.991   0.126   1.478 -3.3205 -0.4039 -2.2145
  293MOL0     H39544   5.193   0.255   1.525  0.1872 -0.9836 -0.1996
  293MOL0     H39545   5.168   0.703   1.570  1.8729  0.9138 -0.1936
  293MOL0     H39546   5.227   0.666   1.735  3.2565 -2.5278 -0.1345
  293MOL0     H39547   5.390   0.591   1.495  0.0215 -1.1440  0.8631
  293MOL0     H39548   5.439   0.601   1.661  1.4385  0.2008  0.1788
  293MOL0     H39549   5.429   0.844   1.673  0.5992 -1.1064  0.4252
  293MOL0     H39550   5.327   0.864   1.532 -0.1389  1.2855  1.2384
  293MOL0     H39551   5.534   0.945   1.462  0.2062 -0.5355 -0.9421
  293MOL0     H39552   5.533   0.782   1.392 -2.0999 -0.6576 -0.4161
  293MOL0     H39553   5.861   0.775   1.654 -0.7879 -0.5665  0.3823
  293MOL0     H39554   4.956   0.587   1.659  2.1251  0.4076 -0.2358
  293MOL0     H39555   4.755   0.481   1.592  0.3096  0.5820 -1.5557
  294MOL0     O39556  10.497   3.273   8.482 -0.4138 -0.0387  0.2332
  294MOL0     C39557  10.567   3.168   8.471  0.2369 -0.3231  0.4233
  294MOL0     O39558  10.526   3.042   8.445  0.4555  0.7017 -0.4849
  294MOL0     C39559  10.392   3.000   8.414 -0.7590 -0.7185 -0.1432
  294MOL0     C39560  10.377   2.871   8.357 -0.1645 -0.8356 -0.3922
  294MOL0     C39561  10.255   2.835   8.315 -0.4201 -0.0179 -1.4412
  294MOL0     C39562  10.136   2.909   8.339 -1.3289  0.8096  0.8038
  294MOL0     O39563  10.013   2.874   8.282  0.3306  0.7466 -0.1428
  294MOL0     C39564   9.960   2.964   8.185  1.0399  0.4447  0.1931
  294MOL0     C39565   9.835   2.913   8.121  0.7994 -0.3665 -0.2822
  294MOL0     C39566   9.720   2.890   8.232 -0.6842  0.0635  0.3484
  294MOL0     C39567   9.671   3.013   8.303  0.2839 -0.3320 -0.7160
  294MOL0     C39568   9.564   2.973   8.409 -0.2629 -0.0188  0.7454
  294MOL0     C39569   9.505   3.099   8.460 -1.2528 -0.3242  0.6643
  294MOL0     C39570   9.424   3.068   8.583  0.2692 -0.4554  0.5416
  294MOL0     C39571   9.346   3.191   8.639  0.5106 -0.3404  1.7611
  294MOL0     N39572   9.203   3.180   8.602  0.3160 -0.2437 -0.0827
  294MOL0     C39573   9.099   3.144   8.686 -0.2028  0.4681  0.7317
  294MOL0     C39574   8.994   3.166   8.613  0.8139 -0.4858 -0.4485
  294MOL0     C39575   8.853   3.143   8.671  0.3416  0.2546 -0.2622
  294MOL0     C39576   8.751   3.239   8.626 -0.5670 -0.4757 -0.0625
  294MOL0     C39577   8.619   3.213   8.692 -0.4835  0.5779  0.5899
  294MOL0     C39578   8.503   3.285   8.617  0.6571 -0.2180  0.2136
  294MOL0     O39579   8.383   3.228   8.665  0.2082 -0.4665  0.0192
  294MOL0     C39580   8.261   3.275   8.617  0.1386  0.0645  0.7598
  294MOL0     C39581   8.256   3.354   8.500 -0.5553  0.1218 -0.9074
  294MOL0     C39582   8.135   3.414   8.464  0.4771 -0.7053  0.3670
  294MOL0     C39583   8.152   3.514   8.350  0.9627 -0.0097  0.9640
  294MOL0     C39584   8.006   3.386   8.528 -0.6112  0.4592  0.2713
  294MOL0     C39585   7.877   3.449   8.491 -0.6818  0.5463 -0.5382
  294MOL0     O39586   7.872   3.515   8.375 -0.4629  0.6161  0.3737
  294MOL0     C39587   7.758   3.561   8.310  0.0192 -0.3924 -0.1419
  294MOL0     C39588   7.770   3.671   8.234 -0.7861  0.7675  0.0504
  294MOL0     C39589   7.664   3.717   8.156  0.7655 -1.4288  0.0544
  294MOL0     C39590   7.537   3.665   8.173 -0.1893  0.9931 -0.2383
  294MOL0     O39591   7.425   3.734   8.121 -0.6698 -0.0333  0.2005
  294MOL0     C39592   7.297   3.683   8.166 -1.1499 -0.0083  0.0828
  294MOL0     C39593   7.191   3.773   8.120 -0.2073  0.8638 -0.6284
  294MOL0     C39594   7.058   3.735   8.174  0.0739  0.4899 -0.8122
  294MOL0     C39595   7.016   3.593   8.192 -0.8027 -0.1453  1.0173
  294MOL0     C39596   6.877   3.561   8.129  0.2797  0.3316 -0.1993
  294MOL0     C39597   6.759   3.627   8.190  0.1766 -0.3909  0.4501
  294MOL0     C39598   6.638   3.555   8.129 -0.1823 -0.1764  0.3756
  294MOL0     C39599   6.624   3.554   7.974 -0.1454  0.6900  0.2443
  294MOL0    Cl39600   6.687   3.412   7.890  0.1207  0.0829 -0.0366
  294MOL0     C39601   7.527   3.545   8.251  0.3932  0.3225  0.5699
  294MOL0     C39602   7.638   3.494   8.316 -0.7214 -0.2786 -0.3374
  294MOL0     O39603   7.789   3.445   8.576 -0.5592 -0.4295 -0.6558
  294MOL0     C39604   8.019   3.295   8.634  0.3837 -0.7691  0.2919
  294MOL0     C39605   8.142   3.255   8.690  0.0812  0.1916 -0.2034
  294MOL0     N39606   9.027   3.209   8.487 -0.0563 -0.3251  0.4522
  294MOL0     N39607   9.153   3.220   8.481  0.0141  0.5258  0.2032
  294MOL0     C39608  10.157   3.031   8.404  0.0587 -0.2703 -0.6249
  294MOL0     C39609  10.283   3.077   8.433  0.1622 -0.2217 -0.1258
  294MOL0     C39610  10.712   3.179   8.493 -0.3183  0.9785 -0.0483
  294MOL0     C39611  10.793   3.065   8.469  0.3781  0.4914 -0.1483
  294MOL0     C39612  10.931   3.066   8.487  0.4213 -0.7741  0.3100
  294MOL0     C39613  10.996   3.182   8.534  1.0164 -0.0998 -1.3870
  294MOL0     O39614  11.132   3.189   8.529 -0.6095 -0.0169 -0.1005
  294MOL0     C39615  11.195   3.308   8.567 -0.5386 -0.4976 -0.3819
  294MOL0     C39616  11.190   3.438   8.485 -0.6820 -0.7494 -0.1537
  294MOL0     C39617  11.162   3.419   8.337 -0.3675  0.8903  0.0863
  294MOL0     C39618  11.160   3.545   8.256 -0.2730 -1.0028 -0.0217
  294MOL0     C39619  11.293   3.610   8.250  0.7815 -0.2840  0.7963
  294MOL0     C39620  11.399   3.666   8.236 -0.1387 -0.2562  0.3700
  294MOL0     C39621  10.915   3.291   8.571  0.1519 -0.5730 -0.5031
  294MOL0     C39622  10.778   3.290   8.561  0.0015  0.2700  0.2971
  294MOL0     H39623  10.456   2.799   8.343  0.5535  0.1691 -1.7086
  294MOL0     H39624  10.246   2.742   8.259  2.8770 -0.7253 -0.9724
  294MOL0     H39625   9.931   3.052   8.244  2.6152  0.7628  0.5438
  294MOL0     H39626  10.021   3.006   8.105  1.2536  0.3075  0.2812
  294MOL0     H39627   9.804   2.984   8.043  1.6078  2.1204  1.5274
  294MOL0     H39628   9.851   2.820   8.066 -2.7393 -1.8019  0.8503
  294MOL0     H39629   9.635   2.836   8.190 -1.8894  0.7471  1.7954
  294MOL0     H39630   9.778   2.831   8.303  0.7824  0.9866 -0.0423
  294MOL0     H39631   9.756   3.055   8.358 -2.6068  2.3331  2.1753
  294MOL0     H39632   9.628   3.074   8.222 -0.5578  0.5213  0.3384
  294MOL0     H39633   9.483   2.911   8.371 -0.3285 -0.9707  2.3764
  294MOL0     H39634   9.611   2.920   8.493 -0.7632 -2.4561 -0.4275
  294MOL0     H39635   9.585   3.169   8.484 -3.1793  1.8661  1.1396
  294MOL0     H39636   9.449   3.155   8.384  1.9575  1.2752 -0.7161
  294MOL0     H39637   9.344   2.997   8.557  0.1177  0.7076 -2.5835
  294MOL0     H39638   9.485   3.028   8.665  2.0118 -1.1322 -1.0273
  294MOL0     H39639   9.390   3.275   8.584  0.1844 -1.6073 -0.5993
  294MOL0     H39640   9.360   3.205   8.746 -1.3617 -0.7884  2.0900
  294MOL0     H39641   9.096   3.107   8.788 -2.5230 -0.3603  0.4147
  294MOL0     H39642   8.824   3.041   8.645  2.1093 -0.2016 -0.6108
  294MOL0     H39643   8.866   3.161   8.778  0.8058 -0.7817 -0.1339
  294MOL0     H39644   8.734   3.246   8.518  1.3488  1.2855 -0.2953
  294MOL0     H39645   8.785   3.338   8.656  1.6055 -0.4121 -2.3985
  294MOL0     H39646   8.620   3.253   8.793 -1.2685 -0.9169  1.2310
  294MOL0     H39647   8.588   3.108   8.682 -1.7858  0.9101  0.8923
  294MOL0     H39648   8.511   3.262   8.510 -3.2365 -1.7290  0.0871
  294MOL0     H39649   8.509   3.392   8.641 -3.1711  0.0173  0.7362
  294MOL0     H39650   8.346   3.385   8.449  0.7597  0.0239  1.2107
  294MOL0     H39651   8.097   3.487   8.260  1.1769 -0.9453  1.1103
  294MOL0     H39652   8.119   3.609   8.393  3.1319  0.4370  1.8042
  294MOL0     H39653   8.259   3.521   8.327  0.9204 -4.2941 -1.3853
  294MOL0     H39654   7.862   3.729   8.231 -1.1827  1.3978 -2.1920
  294MOL0     H39655   7.675   3.803   8.091  2.6498 -0.9165  0.9756
  294MOL0     H39656   7.290   3.580   8.129  0.6638 -0.0015 -0.3543
  294MOL0     H39657   7.298   3.673   8.275  1.1180 -2.9113 -0.0838
  294MOL0     H39658   7.221   3.869   8.164  4.0744  0.0919 -1.4679
  294MOL0     H39659   7.192   3.790   8.012  1.8591 -0.6230 -0.9081
  294MOL0     H39660   6.987   3.781   8.105 -3.1833 -1.2406  1.1307
  294MOL0     H39661   7.035   3.776   8.273  0.0943 -0.9628 -0.1722
  294MOL0     H39662   7.095   3.533   8.147  1.5253  2.3486  1.5103
  294MOL0     H39663   7.014   3.568   8.299  1.3506  3.4738  2.0897
  294MOL0     H39664   6.871   3.452   8.132  0.3437  0.2992 -1.1444
  294MOL0     H39665   6.891   3.586   8.024  5.1612 -0.8675 -0.0902
  294MOL0     H39666   6.768   3.613   8.299 -0.1788  2.0586  0.8462
  294MOL0     H39667   6.751   3.734   8.172 -1.2401 -0.3835  0.9966
  294MOL0     H39668   6.554   3.614   8.166 -0.2490 -0.0113 -0.0283
  294MOL0     H39669   6.608   3.459   8.170 -1.4820 -1.4734 -3.1749
  294MOL0     H39670   6.665   3.648   7.936  1.3488 -0.1822 -0.3836
  294MOL0     H39671   6.516   3.563   7.958 -0.1756  1.7676  0.9456
  294MOL0     H39672   7.441   3.479   8.261  1.2983 -0.7210  1.8920
  294MOL0     H39673   7.628   3.404   8.375  3.1063 -0.8059 -0.2123
  294MOL0     H39674   7.924   3.272   8.681  0.4661  2.6035  2.4714
  294MOL0     H39675   8.140   3.210   8.789  1.8581  3.4603  1.4645
  294MOL0     H39676  10.067   3.091   8.418  0.5067  0.1684  0.5247
  294MOL0     H39677  10.289   3.178   8.473 -3.2913  1.2936 -2.8195
  294MOL0     H39678  10.748   2.978   8.423 -0.7098 -0.2826  2.2433
  294MOL0     H39679  10.998   2.985   8.461  0.9249  0.5527 -3.0136
  294MOL0     H39680  11.184   3.339   8.671 -2.2077 -0.5361 -0.5244
  294MOL0     H39681  11.300   3.279   8.565 -0.1220  0.7897  0.9492
  294MOL0     H39682  11.283   3.495   8.487  0.3627 -2.3890  1.2186
  294MOL0     H39683  11.114   3.503   8.531 -1.3295 -0.5446 -1.4686
  294MOL0     H39684  11.063   3.374   8.341 -1.4965  3.0675 -1.3059
  294MOL0     H39685  11.240   3.351   8.302 -1.1443  0.0952 -0.1478
  294MOL0     H39686  11.094   3.612   8.311  2.9333  1.1680  1.5066
  294MOL0     H39687  11.128   3.516   8.156  1.3093  0.1069 -0.8876
  294MOL0     H39688  11.487   3.724   8.220 -0.9722  0.7746 -0.6016
  294MOL0     H39689  10.952   3.381   8.620  0.5625 -1.3834  0.7245
  294MOL0     H39690  10.717   3.375   8.587 -1.1158 -0.5765  0.5101
  295MOL0     O39691   4.416  11.237   6.791  0.2035  0.0879  0.0703
  295MOL0     C39692   4.389  11.315   6.882 -0.0617 -0.1309 -0.7531
  295MOL0     O39693   4.267  11.382   6.891 -0.0783  0.2051 -0.0461
  295MOL0     C39694   4.165  11.356   6.806 -0.2427  0.4377 -0.3167
  295MOL0     C39695   4.176  11.335   6.665 -0.1320  1.0583 -1.3722
  295MOL0     C39696   4.063  11.303   6.593  0.3229  0.2810  0.3834
  295MOL0     C39697   3.929  11.314   6.642  0.1282 -0.0355  0.2158
  295MOL0     O39698   3.827  11.290   6.553  0.1800  0.2116  0.0973
  295MOL0     C39699   3.709  11.360   6.569 -0.1506 -0.6793 -0.2296
  295MOL0     C39700   3.607  11.347   6.465  0.0125  0.6479  0.4370
  295MOL0     C39701   3.555  11.206   6.454 -0.0294  0.2174  0.4769
  295MOL0     C39702   3.469  11.174   6.329  0.2310  0.4137  0.2386
  295MOL0     C39703   3.356  11.265   6.328  0.2834  0.3274 -0.1605
  295MOL0     C39704   3.232  11.206   6.259 -0.0022  0.2722 -0.7579
  295MOL0     C39705   3.216  11.260   6.115 -1.0466 -0.4892 -0.9356
  295MOL0     C39706   3.087  11.225   6.044  0.3138  1.0627 -0.6349
  295MOL0     N39707   3.093  11.268   5.907  0.3604 -0.0986 -0.1597
  295MOL0     C39708   3.085  11.398   5.868 -0.3245 -0.0312  0.0732
  295MOL0     C39709   3.125  11.393   5.736  0.1756 -0.1134 -0.3637
  295MOL0     C39710   3.173  11.510   5.657 -0.4252  0.3995  0.7601
  295MOL0     C39711   3.314  11.479   5.595 -0.3675  0.9626 -0.2663
  295MOL0     C39712   3.357  11.602   5.505 -0.3227  0.3962  0.1063
  295MOL0     C39713   3.423  11.706   5.589  0.4553  0.2107  0.7985
  295MOL0     O39714   3.557  11.673   5.623  0.4470  0.4526 -0.1539
  295MOL0     C39715   3.601  11.684   5.759 -0.7659 -0.9284  0.1627
  295MOL0     C39716   3.522  11.688   5.873  0.7555  0.2939 -0.0744
  295MOL0     C39717   3.580  11.684   5.994 -0.4586  0.1536 -0.0516
  295MOL0     C39718   3.485  11.674   6.106 -0.0099  0.3391  0.3266
  295MOL0     C39719   3.720  11.682   6.011 -0.0408  0.0944 -0.2347
  295MOL0     C39720   3.793  11.687   6.143 -0.5214 -0.0779  0.5607
  295MOL0     O39721   3.919  11.641   6.142  0.3247  0.0963  0.3485
  295MOL0     C39722   3.994  11.662   6.249 -0.5131  0.1720 -0.1648
  295MOL0     C39723   4.112  11.737   6.241  0.2305  0.1545 -0.0351
  295MOL0     C39724   4.198  11.752   6.360  0.5695  0.0372 -0.0712
  295MOL0     C39725   4.159  11.688   6.480  0.1725  0.0763 -0.8897
  295MOL0     O39726   4.233  11.672   6.597  0.4070 -0.2790  0.5237
  295MOL0     C39727   4.371  11.705   6.580 -0.5915 -0.1631  0.3897
  295MOL0     C39728   4.448  11.660   6.705 -0.2661 -0.2444 -0.7622
  295MOL0     C39729   4.595  11.702   6.690  0.1684 -0.3713  0.0017
  295MOL0     C39730   4.674  11.633   6.802  0.3685 -0.2404 -0.2594
  295MOL0     C39731   4.824  11.668   6.811  0.4324  0.0537 -0.0963
  295MOL0     C39732   4.907  11.591   6.912 -0.3490 -0.1726  0.1229
  295MOL0     C39733   5.057  11.623   6.890  1.0577  0.7168 -0.6857
  295MOL0     C39734   5.137  11.538   6.995  0.9329  0.2348  0.7941
  295MOL0    Cl39735   5.304  11.605   6.987 -0.2239 -0.5515 -0.6327
  295MOL0     C39736   4.037  11.628   6.482 -0.0300 -0.3217  0.0883
  295MOL0     C39737   3.956  11.609   6.371  0.0747  0.6830 -1.2644
  295MOL0     O39738   3.738  11.742   6.233  0.9060 -0.7362 -0.0474
  295MOL0     C39739   3.805  11.682   5.892 -0.2246 -0.2320  0.7283
  295MOL0     C39740   3.741  11.687   5.761 -0.1453  0.1935 -1.4220
  295MOL0     N39741   3.145  11.271   5.701  0.1361  0.6680 -0.7713
  295MOL0     N39742   3.108  11.187   5.797 -0.7120 -0.6040 -0.0118
  295MOL0     C39743   3.921  11.330   6.782  0.1499  0.0876 -0.1361
  295MOL0     C39744   4.037  11.356   6.858  0.0867 -0.0980 -0.5380
  295MOL0     C39745   4.489  11.354   6.990  0.5631 -0.6413  0.8495
  295MOL0     C39746   4.458  11.456   7.083  0.2396  0.3184  0.8374
  295MOL0     C39747   4.557  11.488   7.177  0.0905  0.7790  0.2894
  295MOL0     C39748   4.682  11.424   7.176 -0.6494  0.1484 -0.0201
  295MOL0     O39749   4.777  11.451   7.276 -0.2617  0.5097  0.0063
  295MOL0     C39750   4.798  11.346   7.372 -0.5510  0.0892 -0.3123
  295MOL0     C39751   4.899  11.397   7.472 -0.8877  0.7904  0.2694
  295MOL0     C39752   5.027  11.405   7.386 -0.5233 -0.5651 -0.1971
  295MOL0     C39753   5.150  11.424   7.480  1.0822 -0.6568  0.2334
  295MOL0     C39754   5.189  11.304   7.547  0.2713 -0.2392 -0.1826
  295MOL0     C39755   5.225  11.219   7.628 -0.2045  0.6005 -0.5435
  295MOL0     C39756   4.710  11.329   7.078 -0.7324  0.1011 -0.5384
  295MOL0     C39757   4.616  11.286   6.989 -0.3167  0.6404 -0.2728
  295MOL0     H39758   4.272  11.330   6.614  1.5376  3.1740  1.2847
  295MOL0     H39759   4.077  11.271   6.490 -1.4716  0.7670 -0.0380
  295MOL0     H39760   3.660  11.323   6.659  0.2954  0.8677  0.6896
  295MOL0     H39761   3.733  11.465   6.589 -0.4992 -0.4767 -0.8334
  295MOL0     H39762   3.523  11.415   6.484 -2.3922 -2.2976  1.0282
  295MOL0     H39763   3.664  11.373   6.375  1.5578 -1.8625  0.6082
  295MOL0     H39764   3.639  11.135   6.450 -0.8921 -0.7770 -2.6446
  295MOL0     H39765   3.495  11.185   6.543  1.5909  2.9886  2.3785
  295MOL0     H39766   3.519  11.178   6.232 -3.4309  0.9810 -1.8267
  295MOL0     H39767   3.442  11.069   6.347 -5.4315  1.8776  2.4625
  295MOL0     H39768   3.324  11.273   6.433  0.8122 -3.8000  0.4888
  295MOL0     H39769   3.385  11.360   6.282 -0.3441  1.2420  1.2448
  295MOL0     H39770   3.244  11.098   6.250  0.0321  0.1734  0.3228
  295MOL0     H39771   3.139  11.233   6.308 -0.0310  0.8778 -1.1353
  295MOL0     H39772   3.221  11.369   6.113 -3.5935 -0.2644  0.3242
  295MOL0     H39773   3.298  11.217   6.057 -0.9167 -0.2974 -0.8944
  295MOL0     H39774   2.995  11.265   6.087 -0.2175 -0.8399  0.1185
  295MOL0     H39775   3.070  11.117   6.041 -0.3692  1.1101  0.8905
  295MOL0     H39776   3.082  11.475   5.945 -0.2048 -1.1264  1.2016
  295MOL0     H39777   3.106  11.532   5.573 -0.6489  0.2511  0.8977
  295MOL0     H39778   3.166  11.600   5.719 -3.2719  0.4748  0.4447
  295MOL0     H39779   3.311  11.389   5.533  2.8613  0.6887 -0.2298
  295MOL0     H39780   3.385  11.451   5.674 -2.9430  0.4507  2.0098
  295MOL0     H39781   3.266  11.642   5.459 -0.2150  2.5896  1.6338
  295MOL0     H39782   3.410  11.563   5.417 -3.1705 -0.5685 -1.3139
  295MOL0     H39783   3.360  11.715   5.678  0.2638 -2.9726  1.0914
  295MOL0     H39784   3.427  11.802   5.537  1.9045  0.9788  2.2147
  295MOL0     H39785   3.415  11.666   5.870  1.3278 -3.0535  0.8353
  295MOL0     H39786   3.495  11.763   6.168 -1.9138  0.6154  0.2728
  295MOL0     H39787   3.383  11.694   6.075  0.1721  2.5255  0.9693
  295MOL0     H39788   3.488  11.590   6.176 -1.0856  0.1846  0.2019
  295MOL0     H39789   4.129  11.784   6.145 -0.6043  3.4369  1.2816
  295MOL0     H39790   4.292  11.805   6.349  0.3215  0.7403  1.0138
  295MOL0     H39791   4.407  11.640   6.500 -2.0282  0.6652 -0.9955
  295MOL0     H39792   4.389  11.803   6.535  0.0415 -2.1641 -4.2661
  295MOL0     H39793   4.409  11.708   6.795  0.5422 -2.7072  1.0169
  295MOL0     H39794   4.442  11.552   6.720 -0.0905 -0.1757 -0.1842
  295MOL0     H39795   4.618  11.809   6.691  0.5508 -0.3424 -2.7439
  295MOL0     H39796   4.635  11.671   6.593  0.8306  1.1374 -0.2293
  295MOL0     H39797   4.624  11.649   6.897  0.5527  0.3628 -0.2590
  295MOL0     H39798   4.663  11.526   6.783  1.3800 -0.3749 -0.1498
  295MOL0     H39799   4.837  11.771   6.842 -0.6716  0.0924  0.3047
  295MOL0     H39800   4.863  11.659   6.709  0.6621 -1.8028  0.1092
  295MOL0     H39801   4.880  11.632   7.010 -1.3341 -0.5093  0.0127
  295MOL0     H39802   4.885  11.484   6.918  1.8552 -0.7412 -0.9004
  295MOL0     H39803   5.076  11.729   6.907  0.3967  1.4178 -3.7856
  295MOL0     H39804   5.084  11.596   6.788  0.7200 -1.0349 -0.3508
  295MOL0     H39805   5.147  11.432   6.970  0.9053 -0.3085  2.8712
  295MOL0     H39806   5.103  11.552   7.098 -1.0073  1.4166  0.0623
  295MOL0     H39807   3.996  11.582   6.571  0.0636  1.5207  1.1328
  295MOL0     H39808   3.867  11.549   6.385 -0.9994  2.8870  3.5566
  295MOL0     H39809   3.914  11.683   5.890 -0.2082 -1.7484 -0.6472
  295MOL0     H39810   3.804  11.695   5.672 -0.6831 -0.2624 -1.8523
  295MOL0     H39811   3.821  11.331   6.825 -0.2171  0.7906 -0.9730
  295MOL0     H39812   4.026  11.393   6.959 -3.8986  2.0347 -1.5658
  295MOL0     H39813   4.356  11.492   7.091 -0.4563 -1.8608  3.3187
  295MOL0     H39814   4.525  11.556   7.256 -0.2367  1.4417 -0.3985
  295MOL0     H39815   4.710  11.331   7.434  1.6672  0.3931  3.2180
  295MOL0     H39816   4.840  11.258   7.321  3.5096  2.0912 -0.8551
  295MOL0     H39817   4.909  11.324   7.552  2.0112  1.2687  0.4392
  295MOL0     H39818   4.872  11.497   7.509 -2.0798 -0.3408  2.6500
  295MOL0     H39819   5.024  11.496   7.325  0.2193 -1.7171 -2.0761
  295MOL0     H39820   5.039  11.323   7.313  0.7212 -2.9313  2.4799
  295MOL0     H39821   5.132  11.495   7.562  0.1814 -0.5780 -0.0249
  295MOL0     H39822   5.231  11.474   7.427  0.1321  1.3270  0.5379
  295MOL0     H39823   5.270  11.149   7.696  1.4121  1.6774 -0.4378
  295MOL0     H39824   4.804  11.278   7.095 -0.0878  1.3683 -0.1855
  295MOL0     H39825   4.628  11.201   6.923 -0.8332  0.2334  0.1389
  296MOL0     O39826   9.152   6.158   0.847  0.2435  0.0825 -0.5327
  296MOL0     C39827   9.235   6.221   0.783 -0.8327 -0.8294  0.6763
  296MOL0     O39828   9.203   6.324   0.703 -0.0182  0.2398  0.0374
  296MOL0     C39829   9.077   6.375   0.726 -0.6836 -0.6849 -0.0382
  296MOL0     C39830   9.029   6.437   0.843  0.1604  0.1126  0.2854
  296MOL0     C39831   8.906   6.494   0.845  0.9049 -0.4469 -0.1332
  296MOL0     C39832   8.824   6.486   0.733  0.6263 -1.0425 -0.3337
  296MOL0     O39833   8.697   6.532   0.720 -0.0671 -0.2322  0.5399
  296MOL0     C39834   8.636   6.590   0.832 -0.0844 -0.3078  0.2245
  296MOL0     C39835   8.503   6.655   0.778 -0.3894 -0.3324 -0.8950
  296MOL0     C39836   8.411   6.719   0.877 -0.5042 -0.4858 -0.0913
  296MOL0     C39837   8.277   6.761   0.825 -1.0483  0.6767  0.3895
  296MOL0     C39838   8.182   6.800   0.947 -0.0731  0.2020  0.3811
  296MOL0     C39839   8.048   6.848   0.886 -0.6739 -0.5884  0.0772
  296MOL0     C39840   8.048   6.992   0.839  0.0134  0.0724  0.0440
  296MOL0     C39841   7.979   7.022   0.709  0.3384 -0.2654 -0.1683
  296MOL0     N39842   7.837   7.000   0.709 -0.2393 -0.0638 -0.4217
  296MOL0     C39843   7.774   6.890   0.668 -0.5997 -0.2610 -0.4733
  296MOL0     C39844   7.648   6.899   0.697  0.4892 -0.3963  0.2601
  296MOL0     C39845   7.544   6.791   0.679  0.2630  0.2990  0.6336
  296MOL0     C39846   7.421   6.840   0.598  0.0159  0.9736 -0.3798
  296MOL0     C39847   7.331   6.949   0.663  0.3363 -0.2762 -1.0046
  296MOL0     C39848   7.209   6.991   0.574  0.1676 -0.3295  0.5045
  296MOL0     O39849   7.109   6.891   0.592  0.2271 -0.4773  0.5179
  296MOL0     C39850   7.000   6.898   0.505 -0.5407  0.4046  0.5583
  296MOL0     C39851   6.890   6.810   0.532 -0.5058  0.7578 -0.2822
  296MOL0     C39852   6.775   6.818   0.459  0.4710  0.1124 -0.3530
  296MOL0     C39853   6.652   6.738   0.508  0.7859 -0.4659  0.1463
  296MOL0     C39854   6.784   6.885   0.337  0.3545  0.2941  1.1613
  296MOL0     C39855   6.680   6.872   0.228  1.1908 -0.5325 -0.3676
  296MOL0     O39856   6.632   6.976   0.149 -0.1920 -0.1642  0.4493
  296MOL0     C39857   6.512   6.977   0.087  0.6481  0.4019  0.6727
  296MOL0     C39858   6.446   6.869   0.017 -0.4794 -0.0646 -0.1251
  296MOL0     C39859   6.321   6.889  -0.035 -0.1785 -0.1817  1.3658
  296MOL0     C39860   6.268   7.009  -0.033  0.3829 -0.7386 -0.0028
  296MOL0     O39861   6.147   7.035  -0.079  0.2054  0.0678  1.1233
  296MOL0     C39862   6.132   7.015  -0.225  0.6214  0.6200 -0.3387
  296MOL0     C39863   5.988   7.063  -0.251  0.3012 -1.2172 -0.4751
  296MOL0     C39864   5.883   6.958  -0.215  0.5720  0.5388  0.3204
  296MOL0     C39865   5.755   7.012  -0.276  0.0400  0.8067 -0.8593
  296MOL0     C39866   5.648   6.924  -0.222  0.0044  0.7695  0.1564
  296MOL0     C39867   5.511   6.976  -0.267 -0.8784 -0.2872 -0.0520
  296MOL0     C39868   5.488   6.977  -0.413  0.5633  0.0218  0.8079
  296MOL0     C39869   5.344   6.986  -0.451  0.0927  0.1144  0.2391
  296MOL0    Cl39870   5.273   7.144  -0.403  0.3604  0.0973 -0.0376
  296MOL0     C39871   6.326   7.105   0.040  0.0591 -0.2143 -0.2734
  296MOL0     C39872   6.449   7.093   0.095  0.4188 -0.0095  0.1602
  296MOL0     O39873   6.638   6.756   0.216 -0.3468 -0.3331  0.1410
  296MOL0     C39874   6.887   6.973   0.308 -1.1421  0.0323  0.4598
  296MOL0     C39875   6.993   6.982   0.393  0.2400 -1.2898  0.3475
  296MOL0     N39876   7.634   7.020   0.757 -0.2925 -0.0230 -0.2488
  296MOL0     N39877   7.738   7.084   0.747 -0.6647 -0.5076 -0.0980
  296MOL0     C39878   8.873   6.423   0.615  0.4697 -0.6890  0.2524
  296MOL0     C39879   8.998   6.366   0.616  1.0104  0.1667  0.0486
  296MOL0     C39880   9.382   6.196   0.810 -0.0876 -0.8118 -0.7316
  296MOL0     C39881   9.482   6.249   0.721 -0.9074  0.7919  0.2030
  296MOL0     C39882   9.615   6.239   0.752  0.7884 -0.7498  0.3806
  296MOL0     C39883   9.657   6.192   0.877  0.0581  0.2991 -0.8692
  296MOL0     O39884   9.794   6.190   0.897 -0.1425  0.4038 -0.0637
  296MOL0     C39885   9.837   6.189   1.032  1.0495  1.0886 -0.2042
  296MOL0     C39886   9.966   6.269   1.045 -0.1334  0.7483 -0.6200
  296MOL0     C39887  10.084   6.219   0.952  0.7452 -0.2186 -0.5888
  296MOL0     C39888  10.216   6.294   0.986 -0.1667  0.8034 -0.6198
  296MOL0     C39889  10.304   6.269   0.869 -0.1363  0.2150 -0.8010
  296MOL0     C39890  10.368   6.260   0.765  0.4647  0.5036  0.4605
  296MOL0     C39891   9.567   6.127   0.962 -0.1630 -0.3633 -0.3077
  296MOL0     C39892   9.426   6.133   0.933 -0.2140  0.5248  0.4459
  296MOL0     H39893   9.100   6.450   0.925 -0.9420 -0.0589  1.2825
  296MOL0     H39894   8.861   6.542   0.931 -0.5928  1.1828 -1.7228
  296MOL0     H39895   8.621   6.526   0.920  0.4305  0.4000  0.8402
  296MOL0     H39896   8.698   6.673   0.868 -0.8041 -0.1793  1.1945
  296MOL0     H39897   8.536   6.729   0.704  1.8588 -0.2675  0.0941
  296MOL0     H39898   8.450   6.575   0.725  0.1845 -1.0430 -0.4272
  296MOL0     H39899   8.392   6.643   0.953 -1.9856  1.3135  1.4450
  296MOL0     H39900   8.457   6.812   0.914 -2.5162  0.8268 -0.7670
  296MOL0     H39901   8.288   6.835   0.745 -1.5393  0.9983  0.6101
  296MOL0     H39902   8.226   6.676   0.779  2.0891 -2.0234  1.4791
  296MOL0     H39903   8.172   6.713   1.012  0.9661 -2.1669 -2.3812
  296MOL0     H39904   8.225   6.883   1.003 -0.2834  2.0056 -1.9763
  296MOL0     H39905   8.032   6.779   0.802 -1.0358 -2.3714  1.5391
  296MOL0     H39906   7.974   6.846   0.966  0.9585  0.7289  1.7002
  296MOL0     H39907   8.001   7.059   0.911  2.2175  3.0253 -1.0496
  296MOL0     H39908   8.153   7.022   0.840  0.6538 -2.0472  0.2296
  296MOL0     H39909   8.028   6.971   0.626 -1.3211 -1.7469 -0.3011
  296MOL0     H39910   7.982   7.130   0.689 -0.8253 -0.1198  0.3072
  296MOL0     H39911   7.820   6.804   0.619 -0.1571 -0.3592  0.0945
  296MOL0     H39912   7.581   6.706   0.622 -3.5350 -1.4103  0.3649
  296MOL0     H39913   7.514   6.754   0.777 -0.5966  1.5476  0.8761
  296MOL0     H39914   7.357   6.756   0.570  2.3067 -0.8074 -0.5670
  296MOL0     H39915   7.449   6.877   0.499  0.7093 -1.3514 -1.1283
  296MOL0     H39916   7.384   7.044   0.673 -3.7975  2.5993 -3.1889
  296MOL0     H39917   7.294   6.924   0.763  3.0756  1.4504  0.5901
  296MOL0     H39918   7.249   7.002   0.473  0.5145 -2.0102  0.4397
  296MOL0     H39919   7.173   7.087   0.613 -2.7335 -1.3426  0.4743
  296MOL0     H39920   6.897   6.759   0.628  1.1142 -0.1396 -0.8570
  296MOL0     H39921   6.656   6.646   0.449 -1.5969 -1.1834  0.9894
  296MOL0     H39922   6.652   6.702   0.611  2.1220 -1.0058 -0.0305
  296MOL0     H39923   6.555   6.783   0.486  0.2057 -1.0900  1.3094
  296MOL0     H39924   6.495   6.774   0.001  2.1984  0.4029  3.8553
  296MOL0     H39925   6.273   6.806  -0.087  1.7571  0.3181 -1.4757
  296MOL0     H39926   6.207   7.066  -0.286  1.4828 -1.0385 -0.7409
  296MOL0     H39927   6.143   6.908  -0.248  4.1944  0.8339 -0.2125
  296MOL0     H39928   5.974   7.152  -0.189 -0.9781 -1.0014 -1.0420
  296MOL0     H39929   5.980   7.101  -0.353 -0.4314  3.6446  1.1470
  296MOL0     H39930   5.873   6.940  -0.107 -2.1750 -0.1561  0.0250
  296MOL0     H39931   5.909   6.862  -0.262  0.5314 -0.1864  1.7259
  296MOL0     H39932   5.736   7.108  -0.226  1.8952  1.0042 -0.4620
  296MOL0     H39933   5.755   7.024  -0.384  3.8957  2.3146 -0.8790
  296MOL0     H39934   5.649   6.938  -0.113 -0.5440  3.7678 -0.1165
  296MOL0     H39935   5.659   6.821  -0.256 -0.9401  0.3426  1.1113
  296MOL0     H39936   5.431   6.913  -0.225 -0.7095 -0.1707  0.4539
  296MOL0     H39937   5.502   7.076  -0.225  0.4301 -1.5845  3.8067
  296MOL0     H39938   5.516   6.880  -0.456  1.4257  0.9943 -0.9854
  296MOL0     H39939   5.542   7.054  -0.468  0.0575  0.2668  0.6537
  296MOL0     H39940   5.285   6.908  -0.402  1.0915 -0.0921  1.1559
  296MOL0     H39941   5.342   6.976  -0.560 -0.3730  3.9711 -0.2299
  296MOL0     H39942   6.267   7.194   0.059 -1.6982 -1.2062 -0.8624
  296MOL0     H39943   6.481   7.179   0.154  0.8343 -1.5599  2.3118
  296MOL0     H39944   6.895   7.030   0.216 -2.0377 -0.9887 -0.2773
  296MOL0     H39945   7.073   7.048   0.360 -0.3532 -1.5870 -1.8399
  296MOL0     H39946   8.809   6.417   0.527 -0.4788  0.2843  0.8463
  296MOL0     H39947   9.020   6.314   0.523 -1.4500 -0.9936  0.0451
  296MOL0     H39948   9.455   6.290   0.625 -0.0304  1.7863  0.3540
  296MOL0     H39949   9.695   6.271   0.686  1.5861 -2.6256  0.3839
  296MOL0     H39950   9.762   6.232   1.099 -1.5747 -0.0264 -2.2388
  296MOL0     H39951   9.840   6.083   1.060 -2.0194  0.6151 -1.2545
  296MOL0     H39952  10.005   6.255   1.146 -0.1501  3.8441 -0.0861
  296MOL0     H39953   9.948   6.376   1.033 -0.3472  0.6995 -0.7372
  296MOL0     H39954  10.054   6.241   0.850 -3.5190  1.4837  0.8306
  296MOL0     H39955  10.094   6.113   0.978  0.3511 -0.0668  0.2256
  296MOL0     H39956  10.265   6.248   1.073 -2.6280 -4.7433 -1.7330
  296MOL0     H39957  10.205   6.402   1.000 -0.7343  0.8382 -1.3190
  296MOL0     H39958  10.415   6.258   0.668 -0.3247 -2.2995  0.0373
  296MOL0     H39959   9.593   6.075   1.054  0.5771 -0.3066 -0.4813
  296MOL0     H39960   9.365   6.096   1.015  0.2265  0.1341  0.6055
  297MOL0     O39961   7.400   2.103   4.904 -0.2688 -0.6110 -0.4478
  297MOL0     C39962   7.438   2.053   5.013 -0.6306 -0.7412  0.7169
  297MOL0     O39963   7.355   2.012   5.115 -0.2605 -0.0429 -0.1884
  297MOL0     C39964   7.223   2.042   5.127 -0.0760 -0.3926  0.3271
  297MOL0     C39965   7.162   2.160   5.090  0.0801  0.0111 -0.1003
  297MOL0     C39966   7.029   2.182   5.126  0.3644  0.3699 -0.8524
  297MOL0     C39967   6.953   2.088   5.207  0.2261 -0.3330  0.7020
  297MOL0     O39968   6.830   2.106   5.264  0.2990 -0.2585 -0.3589
  297MOL0     C39969   6.794   2.247   5.283 -0.0840 -2.4805  0.8607
  297MOL0     C39970   6.667   2.259   5.363  0.5896 -0.2899 -0.8156
  297MOL0     C39971   6.550   2.179   5.302 -0.7443  0.0472  0.7091
  297MOL0     C39972   6.420   2.207   5.379 -0.5351  0.7096 -0.6520
  297MOL0     C39973   6.299   2.138   5.318  0.9201  0.1936  0.1869
  297MOL0     C39974   6.279   1.984   5.325  0.2331  0.2253  0.3551
  297MOL0     C39975   6.147   1.936   5.260 -0.2464  0.4048 -0.9592
  297MOL0     C39976   6.033   1.964   5.359  0.4063  0.4582 -0.1348
  297MOL0     N39977   5.905   1.915   5.309  0.0157 -0.6908  0.6584
  297MOL0     C39978   5.847   1.791   5.341 -0.7219 -0.0336  0.0295
  297MOL0     C39979   5.726   1.797   5.275  0.1686 -0.7558 -0.1951
  297MOL0     C39980   5.624   1.699   5.288 -0.3487 -0.1854  0.2826
  297MOL0     C39981   5.631   1.594   5.169 -0.1669 -0.4512  0.2683
  297MOL0     C39982   5.629   1.659   5.026 -0.3745 -0.2701 -0.8387
  297MOL0     C39983   5.486   1.701   4.993  0.0920 -0.0736 -0.6162
  297MOL0     O39984   5.402   1.585   4.985  0.1007  0.1157 -0.0950
  297MOL0     C39985   5.279   1.606   4.936 -0.1414 -0.9224 -0.1639
  297MOL0     C39986   5.207   1.714   4.990 -0.6906  0.3059  0.2678
  297MOL0     C39987   5.075   1.740   4.949  0.3802  0.6209  0.1033
  297MOL0     C39988   4.994   1.843   5.018 -0.5043 -0.5965 -0.4199
  297MOL0     C39989   5.025   1.664   4.835 -0.5365  0.4573 -0.1618
  297MOL0     C39990   4.896   1.690   4.768  0.5821  0.0201  0.0343
  297MOL0     O39991   4.858   1.824   4.744  0.0276  0.0315 -0.1641
  297MOL0     C39992   4.724   1.833   4.717  0.8537 -0.5053  0.2442
  297MOL0     C39993   4.677   1.821   4.590 -0.2688 -0.0203 -0.0073
  297MOL0     C39994   4.551   1.849   4.551  0.4110  0.0868  0.0788
  297MOL0     C39995   4.461   1.896   4.644 -0.0738 -0.4257 -1.1399
  297MOL0     O39996   4.341   1.940   4.598 -0.5357 -0.7629 -0.1377
  297MOL0     C39997   4.223   1.912   4.675 -0.6257 -0.4495  0.0551
  297MOL0     C39998   4.110   1.870   4.585  0.0139  0.0430  0.6349
  297MOL0     C39999   3.978   1.837   4.657  0.3287 -0.5309  0.2159
  297MOL0     C40000   3.901   1.947   4.726 -0.4205  0.2852  0.2091
  297MOL0     C40001   3.773   1.894   4.792 -0.0784 -0.5785  0.5645
  297MOL0     C40002   3.669   2.001   4.846  0.2750  0.1901  1.1301
  297MOL0     C40003   3.542   1.929   4.899  0.3920  1.2987  0.1031
  297MOL0     C40004   3.452   2.036   4.968  0.6052  0.1048 -0.1433
  297MOL0    Cl40005   3.303   1.967   5.012  0.0223  0.2143 -0.0661
  297MOL0     C40006   4.502   1.900   4.778  0.8665  0.3164  0.2550
  297MOL0     C40007   4.633   1.868   4.815  0.4429  0.6481  0.6958
  297MOL0     O40008   4.822   1.595   4.731 -0.4016 -0.0328 -0.3175
  297MOL0     C40009   5.102   1.556   4.777 -0.3433  0.2240  0.5065
  297MOL0     C40010   5.229   1.525   4.837  0.1332 -0.0925  0.1511
  297MOL0     N40011   5.711   1.932   5.221  0.9034 -0.3917  0.1021
  297MOL0     N40012   5.823   1.999   5.232 -0.1479  0.7277 -1.2966
  297MOL0     C40013   7.017   1.973   5.243 -0.1410  0.8044 -0.5583
  297MOL0     C40014   7.148   1.950   5.206  0.3576  0.0663 -0.0189
  297MOL0     C40015   7.586   2.045   5.030 -0.2584 -0.4090  0.4189
  297MOL0     C40016   7.683   2.085   4.933  0.0663  0.2602  0.3345
  297MOL0     C40017   7.822   2.083   4.958 -0.2655  0.7058 -0.9408
  297MOL0     C40018   7.863   2.053   5.083 -0.1038  0.4348 -0.5312
  297MOL0     O40019   7.995   2.026   5.117 -0.2413  0.2567 -0.8693
  297MOL0     C40020   8.047   1.896   5.067 -0.3699 -0.5921  0.6305
  297MOL0     C40021   8.194   1.876   5.128  0.7931  0.0504 -0.0429
  297MOL0     C40022   8.290   1.992   5.098 -0.2004  0.0223 -0.3528
  297MOL0     C40023   8.329   1.990   4.949  0.9651 -1.0804 -0.1903
  297MOL0     C40024   8.418   1.869   4.926 -0.1503 -0.4059  0.7154
  297MOL0     C40025   8.498   1.773   4.912 -0.4357  0.5767  0.5272
  297MOL0     C40026   7.771   2.016   5.183  0.2086  0.1157 -0.0475
  297MOL0     C40027   7.634   2.014   5.153  0.1984 -0.0876 -0.6659
  297MOL0     H40028   7.212   2.234   5.028 -4.4877  2.9327 -0.7601
  297MOL0     H40029   6.977   2.268   5.085 -2.4723 -0.4441  0.7795
  297MOL0     H40030   6.872   2.301   5.337 -0.9052 -0.9902  0.6151
  297MOL0     H40031   6.798   2.290   5.183  1.5614  1.4502  2.4082
  297MOL0     H40032   6.675   2.228   5.468  3.8342  1.8398 -0.2682
  297MOL0     H40033   6.633   2.362   5.358 -1.8347 -0.9714  0.3363
  297MOL0     H40034   6.535   2.202   5.197 -3.7477  0.0892  1.0572
  297MOL0     H40035   6.574   2.073   5.316  1.1362  0.4788  1.0531
  297MOL0     H40036   6.429   2.179   5.484  0.4865  3.2849  0.0274
  297MOL0     H40037   6.415   2.316   5.376  1.1975  0.8171 -1.5731
  297MOL0     H40038   6.205   2.177   5.357 -0.9005 -1.1662 -2.5118
  297MOL0     H40039   6.306   2.164   5.212  2.6577  1.0660  0.4754
  297MOL0     H40040   6.351   1.933   5.261  1.0961  0.9118  0.7595
  297MOL0     H40041   6.306   1.941   5.422  3.0955 -2.3940 -1.4164
  297MOL0     H40042   6.135   1.975   5.159 -0.9783 -0.4373 -1.2115
  297MOL0     H40043   6.156   1.828   5.245  2.6580  0.8405 -3.3521
  297MOL0     H40044   6.015   2.070   5.381 -0.2410  0.1417  0.9347
  297MOL0     H40045   6.045   1.901   5.448 -1.4285 -2.3574 -1.7245
  297MOL0     H40046   5.887   1.715   5.408  2.5495  0.6687 -0.9718
  297MOL0     H40047   5.643   1.644   5.381  1.7630  0.0239  0.0137
  297MOL0     H40048   5.526   1.746   5.289 -0.3247 -0.1397  0.6306
  297MOL0     H40049   5.556   1.514   5.166 -0.7465  0.0551  0.9416
  297MOL0     H40050   5.731   1.549   5.176  0.6337  1.4275  1.6694
  297MOL0     H40051   5.671   1.598   4.946 -0.0793  1.6039 -2.1697
  297MOL0     H40052   5.702   1.740   5.026  0.1983 -0.5540  3.5241
  297MOL0     H40053   5.482   1.744   4.893  0.8163  1.3034 -0.0877
  297MOL0     H40054   5.456   1.775   5.068 -1.2179 -1.7533  0.5930
  297MOL0     H40055   5.249   1.786   5.060 -1.5113 -0.2061  1.3139
  297MOL0     H40056   4.991   1.934   4.958  2.3216  0.6987  1.1319
  297MOL0     H40057   4.903   1.800   5.060 -2.1985 -0.0058 -3.2642
  297MOL0     H40058   5.043   1.873   5.112  0.1625  0.1141 -0.9783
  297MOL0     H40059   4.747   1.776   4.521 -0.4452  2.0278 -1.6033
  297MOL0     H40060   4.506   1.829   4.454  0.3916 -1.3478  0.3615
  297MOL0     H40061   4.235   1.828   4.745  0.0600 -0.2625  0.1696
  297MOL0     H40062   4.189   2.005   4.721 -1.5650  0.0917 -1.6733
  297MOL0     H40063   4.089   1.952   4.517 -2.4520 -1.0814 -0.0897
  297MOL0     H40064   4.147   1.780   4.535 -0.3167  0.4288 -0.3206
  297MOL0     H40065   4.000   1.772   4.743  1.1689 -2.2029 -1.1868
  297MOL0     H40066   3.919   1.777   4.587  1.3388  0.5903 -1.6788
  297MOL0     H40067   3.961   1.986   4.809 -1.8714  2.3423  0.3970
  297MOL0     H40068   3.881   2.026   4.653 -0.5219  1.5971  1.5893
  297MOL0     H40069   3.801   1.821   4.868 -1.7098 -0.3096  1.4643
  297MOL0     H40070   3.723   1.835   4.715 -1.0310  2.5193 -1.3970
  297MOL0     H40071   3.711   2.057   4.930  0.8594 -0.2780  1.1499
  297MOL0     H40072   3.640   2.068   4.764  0.1235 -2.8147 -1.4803
  297MOL0     H40073   3.564   1.852   4.973 -0.6324  1.7019  0.8456
  297MOL0     H40074   3.487   1.880   4.818  1.9655  0.1454 -0.3269
  297MOL0     H40075   3.434   2.116   4.895  0.1351  0.6215  0.5225
  297MOL0     H40076   3.497   2.078   5.059  0.9486 -1.2221  0.3204
  297MOL0     H40077   4.426   1.918   4.853 -0.8820 -1.5420 -0.9731
  297MOL0     H40078   4.667   1.867   4.918  0.7405 -0.7238  0.6007
  297MOL0     H40079   5.078   1.498   4.688 -1.9387 -1.1553  1.7813
  297MOL0     H40080   5.287   1.439   4.808 -0.8825 -1.5254  2.1489
  297MOL0     H40081   6.980   1.907   5.321  1.2028  0.4570 -0.1872
  297MOL0     H40082   7.207   1.873   5.254 -0.0613  0.2814  0.8574
  297MOL0     H40083   7.658   2.118   4.833 -1.3219  0.1760  0.6453
  297MOL0     H40084   7.894   2.117   4.885 -0.3973 -0.3735 -1.5837
  297MOL0     H40085   7.986   1.810   5.095 -1.9759  1.2693  3.3388
  297MOL0     H40086   8.051   1.903   4.958  0.2246  4.0512  0.7555
  297MOL0     H40087   8.221   1.774   5.101 -0.8604 -0.2784 -0.5509
  297MOL0     H40088   8.180   1.869   5.236 -0.7317 -1.4491 -0.2850
  297MOL0     H40089   8.387   1.992   5.148  0.3974  0.8341 -1.4687
  297MOL0     H40090   8.238   2.086   5.123  1.4672  1.4439 -1.9673
  297MOL0     H40091   8.379   2.084   4.923 -0.1629 -0.1533  0.9061
  297MOL0     H40092   8.239   1.978   4.889  0.9977 -1.9775 -0.0766
  297MOL0     H40093   8.562   1.689   4.894 -0.3792  0.8526 -0.6157
  297MOL0     H40094   7.805   1.992   5.283 -0.3294 -0.1851  0.0670
  297MOL0     H40095   7.572   1.995   5.240  0.9595  0.9250  0.1174
  298MOL0     O40096  11.222   6.816   9.743 -0.5799  0.2703  0.2785
  298MOL0     C40097  11.259   6.698   9.751 -0.3274 -0.6107 -0.4036
  298MOL0     O40098  11.185   6.586   9.734  0.7968 -0.4185  0.2259
  298MOL0     C40099  11.047   6.614   9.711 -0.2520 -0.2532 -0.4678
  298MOL0     C40100  11.008   6.637   9.578  0.1725  0.4828  1.3479
  298MOL0     C40101  10.876   6.659   9.546 -0.5494  0.7316  0.5685
  298MOL0     C40102  10.780   6.662   9.647  0.2393 -0.1675 -0.2029
  298MOL0     O40103  10.646   6.687   9.625 -0.2029  0.2138 -0.2599
  298MOL0     C40104  10.616   6.784   9.522 -0.0833 -0.2168 -0.2368
  298MOL0     C40105  10.467   6.809   9.514  0.3391  0.0163 -0.8394
  298MOL0     C40106  10.398   6.677   9.493 -0.0672 -1.1187 -0.1301
  298MOL0     C40107  10.262   6.701   9.417 -0.1061 -0.3682 -0.1462
  298MOL0     C40108  10.172   6.572   9.403 -0.7051 -0.5447  0.7312
  298MOL0     C40109  10.037   6.599   9.338  0.5122 -0.7924 -0.8240
  298MOL0     C40110   9.935   6.667   9.434 -1.0089  0.8886  0.1949
  298MOL0     C40111   9.791   6.673   9.392  0.5880  0.3819  0.2353
  298MOL0     N40112   9.720   6.538   9.391 -0.5870  0.1545  0.1178
  298MOL0     C40113   9.688   6.471   9.505  0.7735  0.9528  0.3560
  298MOL0     C40114   9.627   6.358   9.455 -0.5440 -0.0134  0.0184
  298MOL0     C40115   9.575   6.257   9.550 -0.5615  0.2667  0.1263
  298MOL0     C40116   9.431   6.227   9.506 -0.9000  0.2252 -0.6075
  298MOL0     C40117   9.333   6.347   9.517  0.2432  0.7361  0.0512
  298MOL0     C40118   9.182   6.306   9.504 -1.0203 -0.2181 -0.1180
  298MOL0     O40119   9.120   6.434   9.508  0.2241 -0.0822 -0.0233
  298MOL0     C40120   8.984   6.427   9.501  0.5704 -0.3042 -0.0301
  298MOL0     C40121   8.912   6.550   9.481 -0.6264 -0.9253  0.1345
  298MOL0     C40122   8.783   6.560   9.428  0.3454 -0.3014  0.2586
  298MOL0     C40123   8.741   6.701   9.392  0.0760  0.0256  0.0324
  298MOL0     C40124   8.705   6.442   9.387  0.0119 -0.0754  0.1951
  298MOL0     C40125   8.573   6.440   9.313  0.4513  1.0578  0.2417
  298MOL0     O40126   8.536   6.549   9.243 -0.2695  0.1137  0.4357
  298MOL0     C40127   8.427   6.559   9.162 -0.0771 -0.0898 -0.1653
  298MOL0     C40128   8.397   6.685   9.113  0.0049  0.4571 -0.1631
  298MOL0     C40129   8.287   6.716   9.041 -0.1887  0.1786 -0.0984
  298MOL0     C40130   8.198   6.608   8.998 -0.9406 -0.3631 -0.2139
  298MOL0     O40131   8.100   6.636   8.912 -0.6152  0.4201 -0.3392
  298MOL0     C40132   8.143   6.674   8.781  0.2450 -0.2084  0.0191
  298MOL0     C40133   8.049   6.780   8.727 -0.1729  0.5338 -0.0231
  298MOL0     C40134   7.901   6.744   8.731 -0.4044  0.0033  0.7341
  298MOL0     C40135   7.813   6.850   8.668 -0.5858 -0.2097  0.5200
  298MOL0     C40136   7.658   6.826   8.683 -0.3212 -0.1085  0.1696
  298MOL0     C40137   7.586   6.883   8.563 -0.3063 -0.0572  0.6068
  298MOL0     C40138   7.430   6.908   8.588 -1.1708 -0.2059 -0.0175
  298MOL0     C40139   7.400   7.018   8.689  0.1710  0.7073  1.5297
  298MOL0    Cl40140   7.228   7.048   8.674 -0.0850 -0.1254 -0.3325
  298MOL0     C40141   8.238   6.478   9.037  1.0410  0.2366  0.1102
  298MOL0     C40142   8.342   6.455   9.123 -0.7663 -0.1800  0.3080
  298MOL0     O40143   8.503   6.341   9.329  0.6813  0.0711 -0.0292
  298MOL0     C40144   8.772   6.319   9.418  0.7166  0.2044  0.1798
  298MOL0     C40145   8.906   6.312   9.468  0.0122  0.3191  0.5135
  298MOL0     N40146   9.630   6.362   9.313  0.0266 -0.2821 -0.1859
  298MOL0     N40147   9.683   6.473   9.277 -0.4255  0.2867  0.6933
  298MOL0     C40148  10.812   6.616   9.773 -0.1133 -0.1562  0.0873
  298MOL0     C40149  10.948   6.601   9.811  0.6815 -0.3168 -0.2129
  298MOL0     C40150  11.406   6.686   9.763  0.7213  0.9645 -0.8388
  298MOL0     C40151  11.465   6.551   9.774 -0.1287 -0.9179 -0.1571
  298MOL0     C40152  11.588   6.530   9.828 -0.7262 -0.3605 -0.6070
  298MOL0     C40153  11.666   6.633   9.874  0.2762  0.6260  0.1354
  298MOL0     O40154  11.776   6.589   9.939 -0.7065 -0.0320  0.1360
  298MOL0     C40155  11.859   6.697   9.994  0.1199 -0.1840 -0.1792
  298MOL0     C40156  11.982   6.648  10.061  0.1997 -0.4456 -0.1741
  298MOL0     C40157  11.953   6.552  10.180 -0.5235  0.5465  0.5147
  298MOL0     C40158  12.081   6.525  10.253 -0.8079 -0.2358  0.3603
  298MOL0     C40159  12.176   6.457  10.168 -1.1287 -0.1942 -0.1238
  298MOL0     C40160  12.230   6.395  10.080 -0.5934 -0.3768 -0.1279
  298MOL0     C40161  11.628   6.764   9.849 -0.1540  0.2524  0.2730
  298MOL0     C40162  11.500   6.793   9.803  1.0462 -0.0132 -0.0700
  298MOL0     H40163  11.083   6.616   9.503 -0.1491 -0.5905  1.3157
  298MOL0     H40164  10.847   6.668   9.442 -1.7521 -2.0240  0.5969
  298MOL0     H40165  10.668   6.875   9.555  1.0016 -2.1815  4.0486
  298MOL0     H40166  10.643   6.742   9.424 -3.7811 -0.4494 -1.2915
  298MOL0     H40167  10.438   6.850   9.611  0.7235 -0.8215 -0.3552
  298MOL0     H40168  10.446   6.878   9.432  0.2899 -0.0762 -0.9040
  298MOL0     H40169  10.461   6.605   9.440  1.5278  0.5682 -0.6905
  298MOL0     H40170  10.364   6.630   9.585 -2.9649  2.3183  0.7842
  298MOL0     H40171  10.206   6.787   9.456  0.2361  0.2314 -0.9474
  298MOL0     H40172  10.290   6.730   9.316 -0.6534 -2.0779 -0.8164
  298MOL0     H40173  10.225   6.502   9.339 -0.7846 -0.3788  0.4810
  298MOL0     H40174  10.157   6.518   9.497 -2.1520 -0.4444  0.5879
  298MOL0     H40175  10.055   6.668   9.256  0.4193 -0.6008 -0.6812
  298MOL0     H40176   9.996   6.503   9.304  3.3437 -1.5432 -2.4263
  298MOL0     H40177   9.942   6.615   9.530 -0.0445 -1.9592 -1.3172
  298MOL0     H40178   9.971   6.770   9.444 -0.4791  0.7523 -0.2601
  298MOL0     H40179   9.789   6.716   9.291 -2.1441 -3.0953 -1.4236
  298MOL0     H40180   9.763   6.741   9.473  2.1120  0.7097  0.5151
  298MOL0     H40181   9.691   6.492   9.611 -0.2011  0.3774  0.5169
  298MOL0     H40182   9.638   6.167   9.540 -0.7804  0.2027 -0.7627
  298MOL0     H40183   9.582   6.297   9.651 -0.4016  0.6720 -0.0431
  298MOL0     H40184   9.394   6.147   9.571  1.8378 -0.0575  0.7648
  298MOL0     H40185   9.437   6.190   9.403  3.4096 -1.4601  0.0348
  298MOL0     H40186   9.361   6.430   9.452  1.4329  0.8128  0.6505
  298MOL0     H40187   9.347   6.397   9.613 -0.8358  1.6482 -0.2394
  298MOL0     H40188   9.147   6.247   9.589 -0.3156 -1.3507 -0.5846
  298MOL0     H40189   9.176   6.248   9.411  1.2224  0.5096 -0.7984
  298MOL0     H40190   8.950   6.648   9.506  1.0495 -1.9555  1.9754
  298MOL0     H40191   8.763   6.732   9.290 -0.3550  2.9218  0.7336
  298MOL0     H40192   8.635   6.714   9.413  0.3931  1.2035  1.0507
  298MOL0     H40193   8.787   6.776   9.457  0.3587 -0.6083  0.5838
  298MOL0     H40194   8.460   6.772   9.130  0.2036  0.7011 -1.9235
  298MOL0     H40195   8.265   6.813   8.998  0.1035  1.4400  2.4425
  298MOL0     H40196   8.250   6.697   8.779  0.9917 -3.2581 -2.5565
  298MOL0     H40197   8.147   6.583   8.721  4.2948  0.5870 -1.2847
  298MOL0     H40198   8.069   6.869   8.787 -0.7416 -0.1955  1.3031
  298MOL0     H40199   8.076   6.799   8.623  1.2524  1.3437  0.4791
  298MOL0     H40200   7.876   6.716   8.834 -0.5600  0.1341  0.7322
  298MOL0     H40201   7.890   6.651   8.674 -1.4793  1.2684 -1.2143
  298MOL0     H40202   7.843   6.942   8.719  0.4029 -0.9185  1.2451
  298MOL0     H40203   7.836   6.851   8.561  1.3848 -0.0700  0.9042
  298MOL0     H40204   7.631   6.883   8.773  0.9543  1.1066 -0.1926
  298MOL0     H40205   7.628   6.721   8.690 -1.6304 -0.0036 -2.7039
  298MOL0     H40206   7.634   6.978   8.540 -3.2476  1.8248  1.7494
  298MOL0     H40207   7.602   6.827   8.470 -1.6064 -0.2122  0.4531
  298MOL0     H40208   7.382   6.812   8.608 -0.9202 -0.5659 -1.0901
  298MOL0     H40209   7.390   6.932   8.488 -0.3013  3.4198  0.3545
  298MOL0     H40210   7.460   7.106   8.662  1.2675 -0.5404 -0.3025
  298MOL0     H40211   7.437   6.977   8.784  0.9073 -0.3657  0.7968
  298MOL0     H40212   8.170   6.397   9.013  1.9567 -0.8176  0.9747
  298MOL0     H40213   8.371   6.351   9.139  0.9613  0.1220 -0.5828
  298MOL0     H40214   8.735   6.224   9.380  2.2316  0.3918 -1.9849
  298MOL0     H40215   8.943   6.212   9.488 -2.1913 -0.7952 -0.5761
  298MOL0     H40216  10.738   6.598   9.850 -0.5458  1.2604  0.0304
  298MOL0     H40217  10.963   6.575   9.916  0.8410  0.0872 -0.1353
  298MOL0     H40218  11.425   6.459   9.735  1.3277 -2.2067  1.2325
  298MOL0     H40219  11.634   6.433   9.843  0.5604  0.2035 -0.7585
  298MOL0     H40220  11.892   6.767   9.916  1.4307  0.0625  0.5604
  298MOL0     H40221  11.800   6.754  10.066 -0.3250 -1.4141  0.4656
  298MOL0     H40222  12.035   6.735  10.100  2.1911 -1.7162  0.1231
  298MOL0     H40223  12.042   6.596   9.986 -1.4814 -0.3089 -1.6660
  298MOL0     H40224  11.910   6.464  10.133 -0.3283  0.6193  0.1996
  298MOL0     H40225  11.879   6.589  10.252  0.8845 -1.6883  3.3336
  298MOL0     H40226  12.059   6.458  10.337  4.2091 -0.8922  1.4642
  298MOL0     H40227  12.130   6.616  10.290  2.9109 -1.6792 -0.5979
  298MOL0     H40228  12.281   6.323  10.018  1.4863 -0.0005  1.0342
  298MOL0     H40229  11.689   6.852   9.869  0.9823 -1.0454  2.9407
  298MOL0     H40230  11.485   6.900   9.793  1.4774 -0.0812 -1.6231
  299MOL0     O40231   2.313   4.475   4.655 -0.2061  0.4343 -0.0413
  299MOL0     C40232   2.332   4.458   4.533 -0.0527  0.3765  0.1682
  299MOL0     O40233   2.246   4.403   4.445  0.0821  0.2689 -0.3311
  299MOL0     C40234   2.123   4.361   4.486  0.2492 -1.0122  0.6295
  299MOL0     C40235   2.021   4.384   4.398 -0.3180  0.4136 -0.2033
  299MOL0     C40236   1.898   4.341   4.431 -0.0853 -0.4630  0.0106
  299MOL0     C40237   1.867   4.287   4.560  0.1455  0.1403  0.2451
  299MOL0     O40238   1.735   4.257   4.606 -0.6009 -0.2632 -0.4927
  299MOL0     C40239   1.627   4.326   4.549  0.8415 -0.1667 -0.7179
  299MOL0     C40240   1.488   4.254   4.586  0.2379  0.5875 -0.1098
  299MOL0     C40241   1.356   4.319   4.532 -0.2025  0.6223 -0.1961
  299MOL0     C40242   1.236   4.236   4.574  0.1141 -0.3295  0.0298
  299MOL0     C40243   1.106   4.311   4.529  0.1542 -0.0241 -0.2037
  299MOL0     C40244   0.979   4.224   4.567 -0.2930 -0.2516 -0.0426
  299MOL0     C40245   0.846   4.263   4.491  1.2673 -1.0749  0.2009
  299MOL0     C40246   0.743   4.356   4.561 -0.3861 -0.3062  0.5327
  299MOL0     N40247   0.687   4.296   4.682  0.1937 -0.2560 -0.4766
  299MOL0     C40248   0.703   4.349   4.808  0.1531  0.2379  0.2868
  299MOL0     C40249   0.613   4.279   4.882  0.7140 -0.1632 -0.0600
  299MOL0     C40250   0.603   4.306   5.035 -0.5770 -0.7317 -0.8767
  299MOL0     C40251   0.459   4.289   5.082 -1.1862 -0.0215 -0.3411
  299MOL0     C40252   0.358   4.352   4.985  0.1972 -0.1114 -0.2130
  299MOL0     C40253   0.234   4.391   5.059 -0.1636  0.5935  0.0723
  299MOL0     O40254   0.153   4.277   5.104  0.8251 -0.2624 -0.2128
  299MOL0     C40255   0.016   4.295   5.144 -0.1680  0.1442 -0.3994
  299MOL0     C40256  -0.066   4.183   5.153 -0.1929 -0.4968  0.5131
  299MOL0     C40257  -0.199   4.204   5.198  0.4134  1.2327  0.7881
  299MOL0     C40258  -0.278   4.077   5.225 -0.1027  0.0522 -0.2348
  299MOL0     C40259  -0.251   4.332   5.222  1.0660 -0.2303  0.5084
  299MOL0     C40260  -0.388   4.364   5.266  0.3108 -0.0149 -0.4425
  299MOL0     O40261  -0.498   4.279   5.227 -0.9471  0.4206  0.6471
  299MOL0     C40262  -0.613   4.310   5.279  0.0553  0.0599 -0.2427
  299MOL0     C40263  -0.649   4.249   5.400  0.4784 -1.3015  1.2364
  299MOL0     C40264  -0.772   4.294   5.455 -0.0767  0.4377 -0.9069
  299MOL0     C40265  -0.857   4.387   5.401  0.2040  0.3467 -0.7874
  299MOL0     O40266  -0.971   4.430   5.470 -0.4738  0.5156 -0.1220
  299MOL0     C40267  -1.089   4.352   5.449  0.2593  0.1849 -0.5680
  299MOL0     C40268  -1.188   4.379   5.568  0.7192  0.2010 -0.4929
  299MOL0     C40269  -1.315   4.299   5.548 -0.0263  0.2867 -0.0915
  299MOL0     C40270  -1.418   4.314   5.663 -0.9151  0.0956  0.7957
  299MOL0     C40271  -1.536   4.214   5.644 -0.2755  0.1111  0.2315
  299MOL0     C40272  -1.637   4.246   5.749  0.4866 -0.4260 -0.3120
  299MOL0     C40273  -1.751   4.148   5.753 -0.4481  0.7801  0.8599
  299MOL0     C40274  -1.824   4.138   5.879  0.3628 -0.3608 -0.7820
  299MOL0    Cl40275  -1.978   4.051   5.845 -0.1425  0.0761 -0.4622
  299MOL0     C40276  -0.822   4.440   5.278 -0.0090  0.1753  0.4581
  299MOL0     C40277  -0.702   4.398   5.218  0.3197 -0.2486 -0.1518
  299MOL0     O40278  -0.400   4.464   5.340  0.1416  0.2973 -0.1503
  299MOL0     C40279  -0.163   4.444   5.211  0.8527 -0.5849  0.3055
  299MOL0     C40280  -0.031   4.420   5.170  0.2230  0.6229 -1.1040
  299MOL0     N40281   0.538   4.202   4.796 -0.4232 -0.4763  0.0930
  299MOL0     N40282   0.583   4.209   4.677  0.1187  0.4654 -0.3741
  299MOL0     C40283   1.969   4.275   4.648 -0.2694  0.1856 -0.1526
  299MOL0     C40284   2.101   4.302   4.606  0.3678  0.2318 -0.5044
  299MOL0     C40285   2.459   4.513   4.491  0.1291 -0.5029  0.3209
  299MOL0     C40286   2.490   4.510   4.348  0.3365 -0.0260  0.1389
  299MOL0     C40287   2.613   4.545   4.302 -0.1775 -0.2844  0.5568
  299MOL0     C40288   2.719   4.580   4.390  0.4634 -0.1272  0.3602
  299MOL0     O40289   2.853   4.602   4.356 -0.2392 -0.4246  0.4496
  299MOL0     C40290   2.903   4.627   4.219  0.0648 -0.6728  0.6156
  299MOL0     C40291   2.910   4.778   4.212 -1.0167 -0.5090  0.3375
  299MOL0     C40292   2.780   4.856   4.239 -0.0253  0.1245  0.7320
  299MOL0     C40293   2.812   5.003   4.214  0.0779  0.2326 -0.3511
  299MOL0     C40294   2.749   5.087   4.321  0.7006  0.0371  0.4066
  299MOL0     C40295   2.681   5.150   4.402  0.4996  0.7286 -0.3899
  299MOL0     C40296   2.690   4.583   4.527 -0.3043  0.5497  1.0386
  299MOL0     C40297   2.562   4.546   4.582  0.0150 -0.6541  0.2487
  299MOL0     H40298   2.045   4.426   4.301 -2.1847 -0.6181 -1.1693
  299MOL0     H40299   1.809   4.366   4.374 -1.4545 -0.8384  1.8826
  299MOL0     H40300   1.630   4.424   4.597 -0.2118  0.0779 -1.1286
  299MOL0     H40301   1.637   4.345   4.442  0.9161 -0.7281 -0.8137
  299MOL0     H40302   1.496   4.153   4.543 -1.6817  1.8782 -3.9168
  299MOL0     H40303   1.495   4.242   4.695  0.7690  2.0685  0.0345
  299MOL0     H40304   1.353   4.415   4.583 -0.1308 -0.4780  1.9944
  299MOL0     H40305   1.361   4.329   4.423  1.0274  1.1576 -0.1085
  299MOL0     H40306   1.229   4.139   4.525 -4.0609 -1.6031  2.6145
  299MOL0     H40307   1.232   4.222   4.683 -1.4631 -0.8442 -0.0735
  299MOL0     H40308   1.099   4.413   4.566 -1.4102 -0.3548  0.4732
  299MOL0     H40309   1.119   4.316   4.421  1.2092  2.0697 -0.0375
  299MOL0     H40310   1.000   4.118   4.545 -0.1831 -0.2528  0.0690
  299MOL0     H40311   0.961   4.230   4.674 -1.2486  0.1763 -0.2176
  299MOL0     H40312   0.876   4.301   4.393  1.4765  1.5979  1.2140
  299MOL0     H40313   0.785   4.173   4.475 -0.3228  0.2918 -2.0036
  299MOL0     H40314   0.663   4.385   4.492 -1.2060 -0.0870  1.5443
  299MOL0     H40315   0.797   4.448   4.586  2.3406 -1.8648  0.7338
  299MOL0     H40316   0.784   4.406   4.854  1.6099 -0.6203 -1.0954
  299MOL0     H40317   0.666   4.240   5.096 -3.3976 -2.1980  0.6918
  299MOL0     H40318   0.629   4.410   5.056 -1.0774 -1.0178  1.4547
  299MOL0     H40319   0.449   4.326   5.184 -1.2745  0.4715 -0.5258
  299MOL0     H40320   0.434   4.182   5.079 -0.8605 -0.0853 -1.3428
  299MOL0     H40321   0.325   4.282   4.907 -2.3219 -0.5099  1.1147
  299MOL0     H40322   0.394   4.444   4.937  0.8031 -1.1782 -1.9187
  299MOL0     H40323   0.169   4.454   4.998  1.6919  0.6917 -1.9017
  299MOL0     H40324   0.271   4.448   5.145 -0.3642 -1.1543  1.3756
  299MOL0     H40325  -0.021   4.085   5.140  1.3724  0.3589 -0.7664
  299MOL0     H40326  -0.235   3.989   5.177  2.5855  0.7406  0.7566
  299MOL0     H40327  -0.266   4.055   5.331  2.1489  0.6870 -0.3121
  299MOL0     H40328  -0.379   4.075   5.183  0.7971  1.9656 -2.8038
  299MOL0     H40329  -0.594   4.166   5.444  1.3068 -0.1268  2.5211
  299MOL0     H40330  -0.814   4.247   5.543 -3.2383 -2.9519 -3.8643
  299MOL0     H40331  -1.130   4.385   5.353 -2.8315 -1.2338  0.1146
  299MOL0     H40332  -1.071   4.244   5.453  0.8847  0.3251  1.3290
  299MOL0     H40333  -1.131   4.350   5.657 -0.5576  0.5045  0.4528
  299MOL0     H40334  -1.210   4.486   5.578  0.4240 -0.0882  3.1358
  299MOL0     H40335  -1.295   4.192   5.546 -1.0426  0.0715  0.6564
  299MOL0     H40336  -1.361   4.324   5.452 -2.9341 -0.4406  1.0210
  299MOL0     H40337  -1.365   4.300   5.758 -1.3192  3.3681  1.6018
  299MOL0     H40338  -1.452   4.415   5.640  1.3095  0.3464 -2.0660
  299MOL0     H40339  -1.492   4.115   5.657 -2.1465 -0.7494  0.2262
  299MOL0     H40340  -1.587   4.223   5.547 -1.2943  1.4596  0.8488
  299MOL0     H40341  -1.590   4.250   5.847  0.6295  1.8629 -0.4168
  299MOL0     H40342  -1.672   4.347   5.724 -2.0305 -1.1343  0.0874
  299MOL0     H40343  -1.713   4.047   5.732 -0.4744 -0.0484  4.2168
  299MOL0     H40344  -1.813   4.171   5.665  2.2914  0.3531 -1.3371
  299MOL0     H40345  -1.833   4.242   5.912  1.2653 -0.1614 -1.1546
  299MOL0     H40346  -1.767   4.093   5.961 -1.4420  1.5619  1.7206
  299MOL0     H40347  -0.883   4.510   5.222  2.8520  2.7050  0.2672
  299MOL0     H40348  -0.671   4.447   5.127 -1.5464  2.2832  0.4613
  299MOL0     H40349  -0.186   4.547   5.237  0.3447  0.0340 -2.2412
  299MOL0     H40350   0.027   4.511   5.164  1.9546 -0.5022 -2.0842
  299MOL0     H40351   1.957   4.213   4.737 -4.5535  1.9433  0.7134
  299MOL0     H40352   2.183   4.281   4.675 -0.7045 -1.0389  0.4386
  299MOL0     H40353   2.416   4.492   4.270  3.4837  0.8926 -3.3819
  299MOL0     H40354   2.636   4.549   4.196  0.4530  0.1592  0.7004
  299MOL0     H40355   3.006   4.591   4.220  1.8705  3.8390 -0.1742
  299MOL0     H40356   2.833   4.575   4.152  0.0247  1.6448 -1.2783
  299MOL0     H40357   2.960   4.804   4.118  0.9340  1.7917  1.8777
  299MOL0     H40358   2.980   4.806   4.291  2.8428 -1.1090 -2.5761
  299MOL0     H40359   2.756   4.838   4.344  0.0284 -0.2471  0.6834
  299MOL0     H40360   2.692   4.834   4.177 -0.8448  0.6294  1.6843
  299MOL0     H40361   2.775   5.037   4.117 -3.0792  0.0568  0.6967
  299MOL0     H40362   2.919   5.028   4.214 -0.1577  1.3839 -2.1224
  299MOL0     H40363   2.615   5.189   4.477 -0.4022 -0.7733 -0.3554
  299MOL0     H40364   2.768   4.600   4.602 -0.4841  1.3687  1.0422
  299MOL0     H40365   2.562   4.533   4.689  1.2221  0.2458  0.3899
  300MOL0     O40366   8.987   4.115  11.047 -0.1471  0.2802 -0.4958
  300MOL0     C40367   9.074   4.194  11.008 -0.0862  0.3967  0.7721
  300MOL0     O40368   9.059   4.338  10.998 -0.3298  0.5549 -0.0180
  300MOL0     C40369   8.949   4.411  11.034 -0.1202 -0.0258 -0.1104
  300MOL0     C40370   8.965   4.549  11.058 -0.7819 -0.8794 -0.2297
  300MOL0     C40371   8.862   4.618  11.110 -0.2882  0.5612 -0.0806
  300MOL0     C40372   8.735   4.566  11.122 -0.4806  0.2192 -0.5112
  300MOL0     O40373   8.622   4.637  11.155  0.0632 -0.1766 -0.0838
  300MOL0     C40374   8.628   4.774  11.204  0.1569 -0.4664  0.8092
  300MOL0     C40375   8.480   4.811  11.219 -0.3093 -0.1709  0.1777
  300MOL0     C40376   8.469   4.973  11.238 -0.1924  0.0503  0.4343
  300MOL0     C40377   8.333   5.039  11.238  0.0640  0.4730  0.6863
  300MOL0     C40378   8.347   5.188  11.269  0.4074  0.4639 -0.3887
  300MOL0     C40379   8.211   5.253  11.273  0.4667 -0.8816 -0.5324
  300MOL0     C40380   8.225   5.402  11.306 -0.3239  0.0051  0.5477
  300MOL0     C40381   8.202   5.487  11.176  0.3313 -0.4546 -0.3738
  300MOL0     N40382   8.062   5.470  11.130 -0.1983  0.4231 -0.1739
  300MOL0     C40383   7.957   5.559  11.138 -0.3172  0.3243  0.3989
  300MOL0     C40384   7.865   5.527  11.042 -0.4313  0.2399 -0.4881
  300MOL0     C40385   7.736   5.597  11.030 -0.3897  0.0127 -0.3735
  300MOL0     C40386   7.664   5.666  11.157 -0.6140  0.8390  0.4989
  300MOL0     C40387   7.530   5.702  11.122  0.0721 -0.1194 -0.0957
  300MOL0     C40388   7.428   5.591  11.109 -0.3078  0.9286 -0.3411
  300MOL0     O40389   7.320   5.638  11.023 -0.1523  0.0418  0.0199
  300MOL0     C40390   7.205   5.568  11.015  0.4060  0.9897  0.6102
  300MOL0     C40391   7.195   5.430  11.037  0.5038  0.2081  0.8540
  300MOL0     C40392   7.069   5.362  11.016 -0.4368 -0.5505 -0.0489
  300MOL0     C40393   7.070   5.216  11.058  0.1422  0.8445  0.1403
  300MOL0     C40394   6.961   5.432  10.957 -0.2146 -1.0451  0.3872
  300MOL0     C40395   6.830   5.367  10.924  0.8159  0.4434  0.6121
  300MOL0     O40396   6.737   5.454  10.870  0.1076  0.8290  0.0031
  300MOL0     C40397   6.619   5.404  10.837 -0.5921 -0.0736 -0.0075
  300MOL0     C40398   6.532   5.320  10.902 -0.0505  0.4062 -0.1510
  300MOL0     C40399   6.403   5.294  10.853 -0.2847 -0.5912  0.3682
  300MOL0     C40400   6.370   5.340  10.728  0.6101 -0.2210 -1.0623
  300MOL0     O40401   6.242   5.307  10.686  0.3919 -0.3155 -0.0006
  300MOL0     C40402   6.201   5.333  10.545  0.0739  0.0565 -0.2326
  300MOL0     C40403   6.257   5.230  10.446 -0.2301  0.6777 -0.2586
  300MOL0     C40404   6.181   5.236  10.313 -0.0638 -0.0850  0.4810
  300MOL0     C40405   6.228   5.126  10.222  0.3490  0.8065 -0.2107
  300MOL0     C40406   6.180   5.137  10.068  0.3818 -0.2748  0.6194
  300MOL0     C40407   6.028   5.119  10.078  0.5994 -0.1903  0.9855
  300MOL0     C40408   5.980   5.101   9.932  0.1636  0.1926  0.3126
  300MOL0     C40409   5.830   5.130   9.906  0.0428 -0.2840  0.2745
  300MOL0    Cl40410   5.802   5.089   9.733 -0.0386 -0.0988  0.1417
  300MOL0     C40411   6.454   5.429  10.658  0.6577  0.7349  0.1820
  300MOL0     C40412   6.576   5.460  10.713 -0.6250 -0.3458 -0.6519
  300MOL0     O40413   6.810   5.244  10.950  0.5602  0.0612 -0.1947
  300MOL0     C40414   6.974   5.571  10.931 -0.5589 -0.6695 -0.2498
  300MOL0     C40415   7.092   5.634  10.958 -0.4347  0.0509 -0.2215
  300MOL0     N40416   7.924   5.433  10.957  0.7095 -0.8323 -0.5471
  300MOL0     N40417   8.039   5.407  11.015 -0.0329 -0.4638 -0.2812
  300MOL0     C40418   8.712   4.436  11.073  0.9087 -0.2601  0.6086
  300MOL0     C40419   8.822   4.354  11.043  0.0904 -0.4180  0.5489
  300MOL0     C40420   9.200   4.134  10.954 -0.9107  0.1994 -0.6764
  300MOL0     C40421   9.294   4.211  10.887 -0.6425 -0.6946  0.4829
  300MOL0     C40422   9.418   4.153  10.856  0.2592  0.2498 -0.1562
  300MOL0     C40423   9.448   4.024  10.894  0.6188  0.2029  0.3489
  300MOL0     O40424   9.575   3.985  10.855 -0.0722  0.1036  0.0044
  300MOL0     C40425   9.608   3.843  10.846  0.0493  0.1051  0.2521
  300MOL0     C40426   9.546   3.771  10.723 -0.0611  0.7454 -0.4799
  300MOL0     C40427   9.611   3.798  10.587 -0.0039 -1.5089 -0.7399
  300MOL0     C40428   9.549   3.924  10.518  0.4010  0.1697 -0.1728
  300MOL0     C40429   9.408   3.900  10.500 -0.5556  0.7506  0.5700
  300MOL0     C40430   9.299   3.859  10.458 -0.0379  0.0263  0.2293
  300MOL0     C40431   9.348   3.943  10.957  0.3573  0.4869  0.3361
  300MOL0     C40432   9.230   4.001  10.987  0.9763 -0.2562 -0.7450
  300MOL0     H40433   9.055   4.609  11.052 -0.9794 -0.6835 -1.6155
  300MOL0     H40434   8.888   4.715  11.151  2.1004  0.4408 -1.1085
  300MOL0     H40435   8.688   4.792  11.294  2.7746  0.7134 -1.0427
  300MOL0     H40436   8.677   4.845  11.137 -0.3111  3.2131  4.0035
  300MOL0     H40437   8.420   4.769  11.137  0.9311 -0.6150 -0.5440
  300MOL0     H40438   8.438   4.765  11.308 -1.8982  0.9016  0.0271
  300MOL0     H40439   8.526   4.992  11.329  0.2009 -1.0984  0.4543
  300MOL0     H40440   8.522   5.027  11.159 -1.0342  1.3762  0.7443
  300MOL0     H40441   8.285   5.010  11.144  0.2916  0.6436  0.5196
  300MOL0     H40442   8.263   5.000  11.313 -1.6474 -1.0562 -1.5672
  300MOL0     H40443   8.395   5.200  11.366 -0.2127 -3.2130  0.4989
  300MOL0     H40444   8.402   5.238  11.188  0.7852 -0.9834 -1.0646
  300MOL0     H40445   8.151   5.225  11.186 -1.4502  0.0459  0.4448
  300MOL0     H40446   8.153   5.204  11.352  1.4222  2.2452  2.3510
  300MOL0     H40447   8.143   5.439  11.368 -1.1423 -3.4261  1.7019
  300MOL0     H40448   8.317   5.429  11.359 -0.7753 -0.8888  1.8356
  300MOL0     H40449   8.274   5.464  11.097  0.3509  2.0390 -1.1771
  300MOL0     H40450   8.246   5.583  11.206  1.7463 -1.6229  1.5164
  300MOL0     H40451   7.951   5.634  11.215 -0.2321 -0.4129  1.1352
  300MOL0     H40452   7.745   5.673  10.952  0.7207  1.1407  0.7937
  300MOL0     H40453   7.669   5.524  10.984 -0.5140 -2.2292  2.9988
  300MOL0     H40454   7.709   5.764  11.174 -2.0307  1.5896  0.0742
  300MOL0     H40455   7.668   5.605  11.247 -2.0217  1.6853  1.1598
  300MOL0     H40456   7.533   5.756  11.028  1.4585  2.1049  1.1433
  300MOL0     H40457   7.488   5.771  11.196 -0.3971  0.2684 -0.7147
  300MOL0     H40458   7.396   5.575  11.212 -0.7392  1.3323 -0.4061
  300MOL0     H40459   7.473   5.498  11.073 -0.1881  0.5239  0.8133
  300MOL0     H40460   7.272   5.375  11.089  0.9701 -0.2642 -0.3107
  300MOL0     H40461   7.003   5.184  11.138  2.6584  0.7062  2.3527
  300MOL0     H40462   7.058   5.144  10.977 -1.1623 -1.2141  2.0405
  300MOL0     H40463   7.171   5.197  11.097  0.4878  0.8656 -0.7202
  300MOL0     H40464   6.559   5.281  11.000 -2.3117 -1.7561 -0.3139
  300MOL0     H40465   6.323   5.244  10.906 -1.2740  1.0113  0.4803
  300MOL0     H40466   6.092   5.336  10.552  0.1430  1.2781  0.7217
  300MOL0     H40467   6.233   5.430  10.507  1.9157 -0.1462  0.6680
  300MOL0     H40468   6.364   5.247  10.427  0.2645 -2.1605 -0.5797
  300MOL0     H40469   6.266   5.124  10.474  2.4365 -0.2587 -3.8803
  300MOL0     H40470   6.206   5.335  10.272  0.4555  0.2030  1.4596
  300MOL0     H40471   6.072   5.238  10.323  0.0259  0.0065  1.5528
  300MOL0     H40472   6.337   5.112  10.221  0.2431 -0.1388 -1.0250
  300MOL0     H40473   6.187   5.033  10.261  1.5585 -0.5371 -1.9548
  300MOL0     H40474   6.227   5.062  10.004 -1.1046  0.3962 -1.3908
  300MOL0     H40475   6.206   5.234  10.023  2.3520 -1.8470 -1.9409
  300MOL0     H40476   5.995   5.031  10.135 -1.2933 -1.0156 -1.2000
  300MOL0     H40477   5.987   5.210  10.122 -1.2006 -0.0593 -0.7973
  300MOL0     H40478   6.001   4.997   9.905 -1.1956  0.1188 -0.5439
  300MOL0     H40479   6.038   5.166   9.865  1.0070 -0.3128  0.5331
  300MOL0     H40480   5.803   5.236   9.912  0.8185  0.0772 -1.7839
  300MOL0     H40481   5.761   5.064   9.959 -1.0764  0.1843 -0.5528
  300MOL0     H40482   6.423   5.484  10.569 -1.6639 -1.2622 -0.3584
  300MOL0     H40483   6.650   5.522  10.663 -1.4122  0.7178 -0.5289
  300MOL0     H40484   6.885   5.617  10.888 -0.6134 -0.1397  0.4179
  300MOL0     H40485   7.107   5.740  10.946  2.1259 -0.0679  1.1554
  300MOL0     H40486   8.618   4.382  11.072 -0.1471  1.4808 -0.7443
  300MOL0     H40487   8.791   4.251  11.026 -1.0693 -0.0889  0.5842
  300MOL0     H40488   9.263   4.311  10.855  0.0574  0.0004  1.9034
  300MOL0     H40489   9.495   4.215  10.812  0.5146  1.1428  1.4987
  300MOL0     H40490   9.716   3.825  10.849 -0.4352 -3.5349  0.6312
  300MOL0     H40491   9.566   3.791  10.933  3.5805 -0.6801  1.6627
  300MOL0     H40492   9.440   3.795  10.728  0.0983  1.2300  3.2361
  300MOL0     H40493   9.557   3.664  10.737  1.4011  0.9447  0.1240
  300MOL0     H40494   9.610   3.719  10.511  2.7271 -0.3226 -2.1542
  300MOL0     H40495   9.717   3.822  10.603  0.2693  0.2887 -4.2519
  300MOL0     H40496   9.598   3.950  10.424 -0.1171  0.1594 -0.4459
  300MOL0     H40497   9.549   4.005  10.592 -4.7241  1.2748 -1.0367
  300MOL0     H40498   9.211   3.813  10.419 -0.1554  0.7210 -0.3662
  300MOL0     H40499   9.360   3.836  10.975 -3.4943 -0.2038 -0.3797
  300MOL0     H40500   9.156   3.946  11.044  0.8416  0.8558  0.1987
  301MOL0     O40501   5.772   4.478   7.355 -0.7729  0.1424 -0.2054
  301MOL0     C40502   5.822   4.364   7.341  0.0895 -0.1199 -0.0658
  301MOL0     O40503   5.773   4.269   7.258 -0.0641  0.3004  0.2075
  301MOL0     C40504   5.666   4.302   7.179 -0.2316  0.2229  0.6618
  301MOL0     C40505   5.678   4.374   7.061  0.0264 -0.1321 -0.5345
  301MOL0     C40506   5.571   4.398   6.976  0.8606 -0.1196  0.3157
  301MOL0     C40507   5.437   4.356   7.014 -0.1478  0.8984 -0.0408
  301MOL0     O40508   5.334   4.386   6.926  0.1410 -0.4617 -0.3337
  301MOL0     C40509   5.206   4.349   6.976 -0.4084  0.6073  0.4526
  301MOL0     C40510   5.103   4.407   6.880 -0.3455 -0.2612 -0.8391
  301MOL0     C40511   4.963   4.362   6.920  0.7517 -0.1346  0.0692
  301MOL0     C40512   4.851   4.461   6.866 -0.7154  0.2076  0.1122
  301MOL0     C40513   4.713   4.389   6.854  0.3611  0.7656 -0.0965
  301MOL0     C40514   4.595   4.486   6.852 -0.5580  0.4519 -0.3784
  301MOL0     C40515   4.464   4.398   6.861  0.0672 -0.2145  0.3408
  301MOL0     C40516   4.422   4.342   6.725  0.0232 -0.1966  0.6591
  301MOL0     N40517   4.281   4.293   6.726  0.2272 -0.0329  1.3282
  301MOL0     C40518   4.210   4.202   6.802 -0.4134 -1.5035  0.5560
  301MOL0     C40519   4.082   4.227   6.787 -0.6023 -0.2742  0.3613
  301MOL0     C40520   3.975   4.173   6.862  0.8583 -0.1802 -0.1042
  301MOL0     C40521   3.873   4.106   6.769 -0.0351  0.4288 -0.3692
  301MOL0     C40522   3.738   4.051   6.833  0.2750  0.2354 -0.5448
  301MOL0     C40523   3.687   4.149   6.939 -0.2636  0.9215 -0.1089
  301MOL0     O40524   3.548   4.145   6.981  0.4879  0.4702 -0.1338
  301MOL0     C40525   3.500   4.233   7.077 -0.2464  0.4629 -0.1775
  301MOL0     C40526   3.369   4.231   7.126  0.2116  0.8504 -0.2144
  301MOL0     C40527   3.315   4.324   7.215 -0.0005  0.7682  0.0717
  301MOL0     C40528   3.179   4.302   7.272  0.6329  0.9322 -0.2606
  301MOL0     C40529   3.394   4.435   7.254  0.0317  0.5043  0.1966
  301MOL0     C40530   3.348   4.551   7.342  0.6622 -0.2216  0.0723
  301MOL0     O40531   3.439   4.650   7.351 -1.1920 -0.2853  0.2202
  301MOL0     C40532   3.434   4.734   7.458 -0.1839 -0.5283 -0.0729
  301MOL0     C40533   3.321   4.819   7.464  0.3522  0.0233  0.9766
  301MOL0     C40534   3.309   4.905   7.566 -0.0602 -0.9179  0.1047
  301MOL0     C40535   3.398   4.897   7.680  0.2085  0.2381 -0.4509
  301MOL0     O40536   3.370   4.977   7.783  0.3408  0.6988  0.3205
  301MOL0     C40537   3.465   5.034   7.873 -0.5019 -0.2173 -0.1428
  301MOL0     C40538   3.392   5.075   8.004  0.5956 -0.3676  0.1503
  301MOL0     C40539   3.481   5.143   8.117 -0.1137 -0.1315 -0.5672
  301MOL0     C40540   3.529   5.023   8.199 -0.4598  0.7417  0.3185
  301MOL0     C40541   3.593   5.063   8.328 -0.0255  0.1446  0.0681
  301MOL0     C40542   3.622   4.939   8.411 -0.8249 -0.1041 -0.1809
  301MOL0     C40543   3.673   4.969   8.553 -0.3184 -0.5434  0.4928
  301MOL0     C40544   3.810   5.028   8.566 -0.1563  0.3889 -0.5970
  301MOL0    Cl40545   3.850   5.032   8.735 -0.1034 -0.1516 -0.3078
  301MOL0     C40546   3.504   4.805   7.677  0.3939  0.8835  0.1033
  301MOL0     C40547   3.518   4.727   7.562 -0.0261 -0.2588  0.0987
  301MOL0     O40548   3.232   4.549   7.389 -0.3894 -0.1178  0.7800
  301MOL0     C40549   3.524   4.439   7.213 -0.1052  0.1942  0.3965
  301MOL0     C40550   3.583   4.335   7.130  0.1427  0.3884  0.0141
  301MOL0     N40551   4.063   4.342   6.711 -0.0186 -0.5548  0.5001
  301MOL0     N40552   4.184   4.382   6.668 -0.0431  0.3495 -0.2229
  301MOL0     C40553   5.431   4.274   7.128  0.4118  0.0710  0.0367
  301MOL0     C40554   5.538   4.242   7.204  0.3993  0.4872  0.2397
  301MOL0     C40555   5.936   4.325   7.434  0.6478  0.0249  0.3550
  301MOL0     C40556   5.972   4.422   7.528 -0.6509  0.2848 -0.1892
  301MOL0     C40557   6.089   4.398   7.604 -0.3936 -0.1944 -0.0661
  301MOL0     C40558   6.163   4.281   7.593  0.4789  0.7881 -0.7522
  301MOL0     O40559   6.267   4.276   7.679  0.5843  0.1567 -0.2089
  301MOL0     C40560   6.348   4.160   7.687  0.7960 -0.5175  0.1051
  301MOL0     C40561   6.479   4.206   7.743 -0.7696  0.6608 -0.4574
  301MOL0     C40562   6.547   4.322   7.673  0.8781 -0.2745  0.6791
  301MOL0     C40563   6.693   4.339   7.702  0.3372  0.2095 -0.9118
  301MOL0     C40564   6.747   4.456   7.626  0.8393 -0.1226 -0.4484
  301MOL0     C40565   6.801   4.545   7.570  0.2741  0.2267  0.9453
  301MOL0     C40566   6.118   4.180   7.505 -0.0199 -0.1118  0.6870
  301MOL0     C40567   6.008   4.204   7.423 -0.2696  0.4999 -0.2423
  301MOL0     H40568   5.763   4.438   7.036 -0.0564  1.0396  1.8725
  301MOL0     H40569   5.584   4.450   6.882 -0.0424 -3.3327 -1.7238
  301MOL0     H40570   5.193   4.240   6.977  0.2881  0.3572 -3.0585
  301MOL0     H40571   5.191   4.397   7.073  0.3528  0.0388  0.8609
  301MOL0     H40572   5.101   4.516   6.895  1.1561 -0.4692  1.4263
  301MOL0     H40573   5.119   4.379   6.776 -1.6723 -1.6477 -0.7051
  301MOL0     H40574   4.950   4.261   6.882  1.6311 -1.2452  2.5473
  301MOL0     H40575   4.967   4.348   7.028  0.9357 -0.1565  0.0598
  301MOL0     H40576   4.831   4.547   6.932 -0.3952  0.1619  0.2713
  301MOL0     H40577   4.882   4.505   6.771 -0.9994 -1.4398 -0.7701
  301MOL0     H40578   4.710   4.320   6.769  0.1426  1.4154 -0.6237
  301MOL0     H40579   4.697   4.333   6.947 -0.5185  0.5443 -0.3702
  301MOL0     H40580   4.599   4.556   6.936  1.5100  0.7703 -0.6694
  301MOL0     H40581   4.604   4.550   6.763  0.4530  2.0981  0.8599
  301MOL0     H40582   4.479   4.316   6.933 -1.3475 -0.2857  0.5872
  301MOL0     H40583   4.385   4.464   6.899  0.7108  1.6102 -1.3642
  301MOL0     H40584   4.485   4.260   6.691 -0.6540 -0.1771 -0.7369
  301MOL0     H40585   4.433   4.410   6.640 -1.2823 -2.9715 -1.9067
  301MOL0     H40586   4.262   4.129   6.863 -0.4594 -4.1835 -2.3164
  301MOL0     H40587   4.013   4.102   6.936 -0.4658  0.5462  1.3345
  301MOL0     H40588   3.917   4.252   6.911  0.1856 -0.7151 -0.0178
  301MOL0     H40589   3.916   4.018   6.720 -0.6293 -0.9402  1.4791
  301MOL0     H40590   3.841   4.175   6.690  2.6077 -0.8519 -2.7610
  301MOL0     H40591   3.748   3.951   6.878 -0.6027  0.5886  0.4695
  301MOL0     H40592   3.654   4.035   6.765 -0.8115 -1.5108  1.0812
  301MOL0     H40593   3.692   4.251   6.902 -0.0740  1.0352  0.2271
  301MOL0     H40594   3.755   4.132   7.023 -0.4830 -1.7228 -0.3750
  301MOL0     H40595   3.308   4.152   7.082  2.9199  0.0015 -2.7927
  301MOL0     H40596   3.109   4.379   7.239 -1.2513 -0.3931  0.4891
  301MOL0     H40597   3.136   4.206   7.240 -0.5120  1.6255 -0.8700
  301MOL0     H40598   3.186   4.317   7.380 -0.1011 -1.6613  0.2223
  301MOL0     H40599   3.253   4.817   7.379  0.5190 -1.9794  0.8211
  301MOL0     H40600   3.215   4.958   7.570 -1.2975 -3.0725  3.0011
  301MOL0     H40601   3.539   4.956   7.895 -1.7338 -1.5422 -0.5188
  301MOL0     H40602   3.505   5.127   7.832 -1.7130  1.4760  2.2555
  301MOL0     H40603   3.321   5.153   7.973  0.9673  0.7601  1.9456
  301MOL0     H40604   3.337   4.985   8.033  2.2875 -2.5334 -2.8606
  301MOL0     H40605   3.418   5.218   8.167 -1.2121 -1.7861  0.6676
  301MOL0     H40606   3.568   5.192   8.075 -0.7242 -0.4415 -2.2687
  301MOL0     H40607   3.454   4.946   8.220 -0.2797  0.4098 -0.2223
  301MOL0     H40608   3.603   4.982   8.128 -0.6449  1.6002 -0.3922
  301MOL0     H40609   3.523   5.116   8.393  0.6675  1.7929 -0.4693
  301MOL0     H40610   3.686   5.119   8.316  0.0469  0.2479  0.9974
  301MOL0     H40611   3.530   4.879   8.417 -1.5453  0.8037 -1.5808
  301MOL0     H40612   3.706   4.882   8.370 -2.3885 -2.6823 -0.0650
  301MOL0     H40613   3.689   4.874   8.604  3.9240  0.2175  0.9811
  301MOL0     H40614   3.610   5.032   8.616  2.3245 -0.3331  3.1281
  301MOL0     H40615   3.799   5.129   8.525 -1.8845  0.6068  0.3440
  301MOL0     H40616   3.884   4.976   8.504  1.3093  0.4511  1.0123
  301MOL0     H40617   3.577   4.804   7.758  2.9957  1.7415 -2.0891
  301MOL0     H40618   3.602   4.658   7.557  0.8034  0.7215  0.2781
  301MOL0     H40619   3.594   4.517   7.244  0.8202 -0.3276 -0.3083
  301MOL0     H40620   3.690   4.345   7.116  0.2498  4.9349  2.0850
  301MOL0     H40621   5.338   4.236   7.169  1.3636 -4.2261 -1.2166
  301MOL0     H40622   5.537   4.177   7.291  1.2007  2.0661  1.4841
  301MOL0     H40623   5.903   4.503   7.547 -3.7281 -2.0875 -0.4455
  301MOL0     H40624   6.121   4.480   7.668 -1.8124  1.3827 -1.2753
  301MOL0     H40625   6.305   4.074   7.738  1.6715 -1.9754 -1.4978
  301MOL0     H40626   6.364   4.111   7.590 -0.6270 -1.2667  0.2284
  301MOL0     H40627   6.557   4.130   7.745  0.3467  1.7494 -0.8592
  301MOL0     H40628   6.458   4.226   7.849  5.5807 -0.8042  1.5269
  301MOL0     H40629   6.503   4.419   7.696  1.7234 -0.1883  2.0876
  301MOL0     H40630   6.550   4.299   7.566  0.0041 -1.3627  0.8634
  301MOL0     H40631   6.755   4.252   7.679 -1.3843 -1.7089  1.1852
  301MOL0     H40632   6.705   4.348   7.811  2.0549 -2.8435 -0.7438
  301MOL0     H40633   6.851   4.620   7.513  0.7463 -0.5314  0.3306
  301MOL0     H40634   6.165   4.082   7.509 -1.5150 -0.8362  1.3402
  301MOL0     H40635   5.999   4.121   7.354  2.3151 -0.1039  0.0442
  302MOL0     O40636   7.271   4.359   9.749 -0.9827 -0.2407 -0.4815
  302MOL0     C40637   7.285   4.266   9.830  0.6226 -0.6541 -0.4718
  302MOL0     O40638   7.172   4.212   9.903 -0.3366 -0.2261  0.5626
  302MOL0     C40639   7.048   4.241   9.861 -0.2406 -0.6048 -0.7351
  302MOL0     C40640   6.949   4.284   9.956 -0.3834 -0.3226  0.4227
  302MOL0     C40641   6.818   4.307   9.921 -0.1521  0.5929 -0.7134
  302MOL0     C40642   6.781   4.293   9.789  1.0970  0.2392 -0.2523
  302MOL0     O40643   6.648   4.328   9.770 -0.3718 -0.3045  0.1413
  302MOL0     C40644   6.590   4.297   9.641  0.0878  0.0704  0.4847
  302MOL0     C40645   6.578   4.152   9.618  1.6434  0.3741 -0.3125
  302MOL0     C40646   6.453   4.122   9.541  0.2280  0.3077  0.0739
  302MOL0     C40647   6.460   3.978   9.487 -0.3424  0.0309  0.2025
  302MOL0     C40648   6.322   3.932   9.428  0.3855 -0.6129 -0.1986
  302MOL0     C40649   6.328   3.787   9.373 -0.4379 -0.5200  0.0127
  302MOL0     C40650   6.181   3.739   9.354 -0.5595  0.2210 -0.5320
  302MOL0     C40651   6.124   3.675   9.482  0.0049 -0.4502  0.6294
  302MOL0     N40652   5.979   3.656   9.470 -1.4502  0.1600 -0.3035
  302MOL0     C40653   5.931   3.549   9.403 -0.6701 -0.0666 -0.2857
  302MOL0     C40654   5.800   3.570   9.384 -0.1936 -0.3846  0.0785
  302MOL0     C40655   5.702   3.478   9.315  0.3151 -0.4327  0.3265
  302MOL0     C40656   5.563   3.535   9.316  0.1058  0.3948  0.0086
  302MOL0     C40657   5.455   3.452   9.249 -0.0723  0.0857  0.0806
  302MOL0     C40658   5.429   3.317   9.322  0.2211  0.0304 -0.0955
  302MOL0     O40659   5.378   3.346   9.450 -0.2867  0.5771 -0.1314
  302MOL0     C40660   5.257   3.298   9.482 -0.3584  0.3023  0.2096
  302MOL0     C40661   5.235   3.169   9.495 -0.7243  0.0184 -0.0174
  302MOL0     C40662   5.114   3.119   9.538  0.7245  0.6651 -1.0792
  302MOL0     C40663   5.105   2.961   9.552 -0.1242 -0.1321 -0.3371
  302MOL0     C40664   5.002   3.203   9.564 -0.3580 -0.0236 -0.2433
  302MOL0     C40665   4.864   3.173   9.612  0.0346 -0.6288  1.0289
  302MOL0     O40666   4.779   3.280   9.622 -0.6271  0.2437  0.0971
  302MOL0     C40667   4.655   3.261   9.681  0.7466  0.1920  0.2571
  302MOL0     C40668   4.606   3.371   9.753  0.8626 -0.7474 -0.0862
  302MOL0     C40669   4.473   3.372   9.801 -0.4726 -0.3085 -0.0682
  302MOL0     C40670   4.391   3.260   9.781  0.3549 -0.8931 -0.7987
  302MOL0     O40671   4.263   3.247   9.827  0.7896 -0.0156 -0.3953
  302MOL0     C40672   4.189   3.362   9.872 -0.6539 -0.3762  0.2197
  302MOL0     C40673   4.040   3.349   9.833 -0.0239  0.2499  0.0838
  302MOL0     C40674   3.935   3.298   9.936 -0.9988  0.5737 -0.2826
  302MOL0     C40675   3.787   3.324   9.895 -0.2226 -0.1519 -0.3524
  302MOL0     C40676   3.688   3.285  10.003 -0.1525 -0.7498  0.1227
  302MOL0     C40677   3.544   3.291   9.939 -0.0037 -1.1144  0.2191
  302MOL0     C40678   3.423   3.271  10.034 -0.6844 -1.2004 -0.2705
  302MOL0     C40679   3.297   3.319   9.968  0.9437  0.1495 -0.4140
  302MOL0    Cl40680   3.181   3.359  10.092 -0.3617  0.0737 -0.1840
  302MOL0     C40681   4.446   3.155   9.705 -0.1384  0.6080  0.3184
  302MOL0     C40682   4.569   3.156   9.648 -0.7715 -0.2015  0.2969
  302MOL0     O40683   4.849   3.055   9.650  0.1375 -0.7408 -0.1121
  302MOL0     C40684   5.029   3.340   9.541  0.2031 -0.0275 -0.0601
  302MOL0     C40685   5.157   3.388   9.496  0.3650  0.3682 -1.9565
  302MOL0     N40686   5.767   3.691   9.444 -0.2058 -0.9588 -0.1752
  302MOL0     N40687   5.875   3.742   9.494 -0.2497 -0.3674  0.3844
  302MOL0     C40688   6.871   4.255   9.687  0.1162  0.1005  0.0247
  302MOL0     C40689   6.998   4.232   9.731  0.7579  0.6361  0.0186
  302MOL0     C40690   7.423   4.216   9.870 -0.0333  0.6697 -0.1286
  302MOL0     C40691   7.445   4.104   9.945  0.3322  0.4936 -0.3660
  302MOL0     C40692   7.575   4.052   9.955 -0.5247  0.0736  0.7538
  302MOL0     C40693   7.682   4.129   9.905 -0.9301  0.9512 -1.0636
  302MOL0     O40694   7.815   4.093   9.916  0.1415  0.0932  0.7402
  302MOL0     C40695   7.861   3.981   9.982  0.4518  0.1086  0.0736
  302MOL0     C40696   8.008   3.985  10.023  0.1640  0.4913 -0.0540
  302MOL0     C40697   8.095   3.984   9.899  0.5318  0.2290 -0.0357
  302MOL0     C40698   8.247   3.957   9.931 -0.0766  0.1518 -0.0507
  302MOL0     C40699   8.261   3.820   9.973  0.4859 -0.0365 -1.1157
  302MOL0     C40700   8.287   3.704  10.005  0.7401  0.6176  0.1823
  302MOL0     C40701   7.660   4.248   9.845  0.0231  0.7818  1.0076
  302MOL0     C40702   7.529   4.291   9.821  0.1901  0.7005  0.6241
  302MOL0     H40703   6.984   4.298  10.058 -0.3307  1.7862  0.1657
  302MOL0     H40704   6.750   4.340   9.998 -0.7147 -4.5530  1.4298
  302MOL0     H40705   6.492   4.344   9.639  0.8143  1.7228  1.2261
  302MOL0     H40706   6.654   4.348   9.568  1.3474  0.0357  1.5176
  302MOL0     H40707   6.662   4.109   9.562  1.8423 -4.5588  3.0996
  302MOL0     H40708   6.573   4.100   9.714 -1.3050  0.2035 -0.4869
  302MOL0     H40709   6.364   4.130   9.604  0.6584  2.7304  0.4566
  302MOL0     H40710   6.439   4.196   9.462 -0.1697 -0.5206 -0.6604
  302MOL0     H40711   6.531   3.978   9.404 -1.1239  0.1318 -0.4838
  302MOL0     H40712   6.495   3.905   9.561  0.0752 -0.7523 -0.7417
  302MOL0     H40713   6.241   3.939   9.502 -0.0361 -2.6837 -0.3990
  302MOL0     H40714   6.279   3.987   9.343  0.7381 -0.8667 -0.5445
  302MOL0     H40715   6.378   3.777   9.276  0.0188 -1.9316  0.3769
  302MOL0     H40716   6.386   3.724   9.442 -1.6342 -1.2985  0.3306
  302MOL0     H40717   6.110   3.818   9.327 -0.6569 -0.0719 -1.1542
  302MOL0     H40718   6.179   3.659   9.280 -2.0459 -0.2542 -0.0274
  302MOL0     H40719   6.158   3.738   9.565  1.7303  0.6563 -0.8410
  302MOL0     H40720   6.171   3.578   9.498  1.1069 -0.3802 -1.7730
  302MOL0     H40721   5.989   3.467   9.361 -0.6495 -0.8296  1.1771
  302MOL0     H40722   5.729   3.475   9.209 -0.6532 -4.7471 -0.0020
  302MOL0     H40723   5.704   3.376   9.354 -1.1470 -0.9258 -0.7762
  302MOL0     H40724   5.567   3.634   9.270 -3.7761  1.5715  1.7699
  302MOL0     H40725   5.528   3.549   9.419 -0.3190 -3.0702  0.4364
  302MOL0     H40726   5.484   3.427   9.146  1.1140 -2.3300  0.9372
  302MOL0     H40727   5.371   3.522   9.252 -0.4213 -0.3625  1.0793
  302MOL0     H40728   5.527   3.271   9.338  1.0899  2.2609  1.7320
  302MOL0     H40729   5.373   3.242   9.266 -0.7908 -1.5543  2.8069
  302MOL0     H40730   5.323   3.107   9.481 -0.3123  0.2437  1.3553
  302MOL0     H40731   5.126   2.943   9.658  0.8223 -0.6822 -0.6163
  302MOL0     H40732   5.009   2.917   9.522 -0.2753  1.0308 -1.6610
  302MOL0     H40733   5.183   2.921   9.487  0.7096 -0.2888  0.7355
  302MOL0     H40734   4.661   3.459   9.785 -1.9354  1.2720 -0.3888
  302MOL0     H40735   4.448   3.463   9.854  1.7055  0.5343 -0.3903
  302MOL0     H40736   4.195   3.375   9.980 -0.8192  2.5302 -0.0486
  302MOL0     H40737   4.228   3.457   9.833  0.9782  0.5556  3.7129
  302MOL0     H40738   4.011   3.452   9.813 -0.0846  0.2858  0.3539
  302MOL0     H40739   4.038   3.292   9.740  0.2255 -1.0522  0.8509
  302MOL0     H40740   3.949   3.350  10.032 -0.4445  0.1658 -0.1395
  302MOL0     H40741   3.959   3.191   9.938  1.3473  1.0656  1.3108
  302MOL0     H40742   3.780   3.432   9.878  4.7824  0.3142 -0.8564
  302MOL0     H40743   3.756   3.268   9.806 -0.3894 -0.6527  0.0148
  302MOL0     H40744   3.697   3.362  10.081  1.1822  1.1785 -1.8275
  302MOL0     H40745   3.723   3.187  10.038  0.9578 -1.1420 -1.9403
  302MOL0     H40746   3.528   3.387   9.890  2.4852 -1.5949 -1.7302
  302MOL0     H40747   3.546   3.228   9.850  3.0127 -0.3848 -0.3241
  302MOL0     H40748   3.456   3.332  10.119 -0.8416 -0.7309 -0.5408
  302MOL0     H40749   3.408   3.167  10.064  0.8631 -2.2753 -2.8956
  302MOL0     H40750   3.264   3.238   9.903  3.4447  0.0965 -1.7435
  302MOL0     H40751   3.316   3.406   9.904 -0.7212 -0.7799 -2.2445
  302MOL0     H40752   4.384   3.069   9.685 -0.6661  0.7280  1.3630
  302MOL0     H40753   4.605   3.081   9.578  1.7065 -0.3621  1.6168
  302MOL0     H40754   4.967   3.428   9.557  0.0947 -0.2658  0.8985
  302MOL0     H40755   5.174   3.494   9.479 -1.8365  1.5118  1.8861
  302MOL0     H40756   6.850   4.231   9.584  3.6570 -0.0901 -0.7835
  302MOL0     H40757   7.070   4.192   9.659  0.0279 -1.2853  0.2837
  302MOL0     H40758   7.363   4.049   9.988  0.0826  1.5002  0.4631
  302MOL0     H40759   7.594   3.953   9.995 -1.1379 -2.0678 -3.6306
  302MOL0     H40760   7.802   3.975  10.073  0.5977 -0.2803  0.1425
  302MOL0     H40761   7.836   3.887   9.931 -2.5656  0.4382  0.7403
  302MOL0     H40762   8.023   3.889  10.073  0.4556 -0.9893 -2.7803
  302MOL0     H40763   8.037   4.063  10.094  0.2156 -0.4696  1.0137
  302MOL0     H40764   8.078   4.077   9.844 -0.9640  0.2150  0.3660
  302MOL0     H40765   8.062   3.904   9.833 -0.5120  1.1304 -0.6366
  302MOL0     H40766   8.283   4.014  10.018 -0.8734  1.4341 -0.5274
  302MOL0     H40767   8.311   3.966   9.844  0.1344 -0.9053 -0.0110
  302MOL0     H40768   8.316   3.605  10.035 -1.3819 -0.7517 -1.9580
  302MOL0     H40769   7.745   4.302   9.803  0.7507 -1.2158 -0.2815
  302MOL0     H40770   7.526   4.383   9.764  0.1343  0.0410 -0.4890
  303MOL0     O40771   3.765   8.586  10.549  0.5258 -0.4707 -0.5067
  303MOL0     C40772   3.770   8.529  10.439  0.1572  0.2188 -1.1955
  303MOL0     O40773   3.785   8.592  10.312  0.0841 -0.2466  0.6389
  303MOL0     C40774   3.795   8.723  10.306  0.0781  0.2347  0.1525
  303MOL0     C40775   3.685   8.793  10.249  0.2547  0.0653  0.4823
  303MOL0     C40776   3.689   8.934  10.237  0.7688  0.5049 -0.0803
  303MOL0     C40777   3.800   9.013  10.271  0.1947 -0.6207 -0.0317
  303MOL0     O40778   3.826   9.153  10.256 -0.4306  0.5126 -0.7581
  303MOL0     C40779   3.713   9.238  10.216 -0.1058 -0.3237 -0.0720
  303MOL0     C40780   3.728   9.272  10.068  0.3424 -0.9104  0.3601
  303MOL0     C40781   3.621   9.357  10.007  0.2782 -0.3521 -0.3450
  303MOL0     C40782   3.482   9.295   9.983  0.0663 -0.3420  0.3683
  303MOL0     C40783   3.393   9.402   9.942 -0.4663 -0.0631  0.3979
  303MOL0     C40784   3.253   9.343   9.935 -0.2213 -0.8668 -1.0795
  303MOL0     C40785   3.152   9.443   9.883  0.6176  0.8974 -0.3387
  303MOL0     C40786   3.010   9.386   9.894 -0.4472 -0.8279  0.8071
  303MOL0     N40787   2.901   9.486   9.891  0.4040  0.0081 -0.2433
  303MOL0     C40788   2.898   9.589   9.804  0.8326  0.5365  0.0516
  303MOL0     C40789   2.810   9.683   9.842  0.6997  0.5523  0.2263
  303MOL0     C40790   2.776   9.811   9.780  0.4058 -0.2061  0.3603
  303MOL0     C40791   2.673   9.781   9.670 -0.1255  0.1459  0.1977
  303MOL0     C40792   2.608   9.910   9.620  0.2519  0.5075 -0.2635
  303MOL0     C40793   2.477   9.933   9.694  0.0433 -0.1557  0.0982
  303MOL0     O40794   2.396   9.825   9.638  0.2271  0.0992 -0.3900
  303MOL0     C40795   2.256   9.833   9.632 -0.5280 -0.1729 -0.7167
  303MOL0     C40796   2.177   9.941   9.679  0.4263  0.0099 -0.0269
  303MOL0     C40797   2.041   9.940   9.666 -0.1385 -1.5499 -0.6418
  303MOL0     C40798   1.980  10.071   9.707 -0.4443 -0.0836 -0.6792
  303MOL0     C40799   1.970   9.833   9.617 -0.7473 -0.5765  0.1550
  303MOL0     C40800   1.822   9.836   9.586 -0.0655 -0.6059 -0.4000
  303MOL0     O40801   1.762   9.714   9.563 -0.6417  0.2720 -0.7137
  303MOL0     C40802   1.628   9.718   9.536  0.6893 -0.7245 -0.5280
  303MOL0     C40803   1.537   9.708   9.647  0.2512 -0.0275  0.2517
  303MOL0     C40804   1.395   9.707   9.623  0.1756  0.1496 -0.5601
  303MOL0     C40805   1.345   9.714   9.494 -0.5183 -0.5604  0.6681
  303MOL0     O40806   1.209   9.710   9.478 -0.3424 -0.2794 -0.2291
  303MOL0     C40807   1.153   9.832   9.430  0.7716  0.0504  0.4940
  303MOL0     C40808   1.103   9.821   9.279  0.1196 -0.1693 -0.0600
  303MOL0     C40809   1.037   9.681   9.257  0.4070 -0.1838  0.1995
  303MOL0     C40810   0.971   9.671   9.128 -0.2348 -0.3999 -0.8714
  303MOL0     C40811   0.912   9.525   9.116  0.5314  0.6587  0.1888
  303MOL0     C40812   0.824   9.522   8.993 -0.4713  0.2173 -0.1719
  303MOL0     C40813   0.746   9.391   8.974  0.2633 -0.4997 -0.5410
  303MOL0     C40814   0.661   9.399   8.848  0.5507  0.2711  0.4302
  303MOL0    Cl40815   0.538   9.519   8.885 -0.0029  0.3101  0.2271
  303MOL0     C40816   1.434   9.721   9.392 -0.3460 -0.3040  0.2647
  303MOL0     C40817   1.576   9.723   9.407  0.3951 -0.3849  0.3654
  303MOL0     O40818   1.764   9.942   9.570 -0.8113 -0.1974 -0.0656
  303MOL0     C40819   2.047   9.717   9.585  0.2199 -1.2032 -0.2744
  303MOL0     C40820   2.183   9.726   9.575 -0.7466  0.6332  0.1970
  303MOL0     N40821   2.746   9.634   9.948 -0.0123 -0.3486  0.2159
  303MOL0     N40822   2.811   9.524   9.989  1.2878 -0.2929  0.4185
  303MOL0     C40823   3.903   8.944  10.326 -0.2872 -0.4079 -0.2307
  303MOL0     C40824   3.901   8.800  10.349 -0.3500  0.1849 -0.0435
  303MOL0     C40825   3.742   8.385  10.429  0.0392 -0.0858  0.1122
  303MOL0     C40826   3.728   8.312  10.309  0.2348  0.3771 -0.1879
  303MOL0     C40827   3.679   8.176  10.295  0.1000  0.0339 -0.0877
  303MOL0     C40828   3.651   8.100  10.413  0.2998 -0.2613 -0.1634
  303MOL0     O40829   3.603   7.965  10.406  0.3847  0.0079  0.1247
  303MOL0     C40830   3.497   7.948  10.307 -0.0282  0.0013  0.1022
  303MOL0     C40831   3.366   8.024  10.342 -0.0407  0.7047  0.2649
  303MOL0     C40832   3.292   7.958  10.460 -0.1915  0.5128 -0.3770
  303MOL0     C40833   3.361   7.989  10.592  0.1135 -0.1508  0.5153
  303MOL0     C40834   3.269   7.942  10.695 -0.7406  0.2946  0.1824
  303MOL0     C40835   3.198   7.884  10.770 -0.4387 -0.2704  0.5595
  303MOL0     C40836   3.674   8.166  10.531 -0.3635  0.2674  0.3023
  303MOL0     C40837   3.718   8.301  10.537  0.3717  0.1753 -0.1477
  303MOL0     H40838   3.595   8.738  10.221 -1.3667  2.6682  0.2001
  303MOL0     H40839   3.594   8.975  10.204  1.2716  1.2229 -0.6597
  303MOL0     H40840   3.617   9.189  10.236 -1.1536  0.5565 -2.6053
  303MOL0     H40841   3.734   9.330  10.272  1.7375  0.0440 -1.2752
  303MOL0     H40842   3.817   9.333  10.050  0.5948 -1.6183 -0.9225
  303MOL0     H40843   3.747   9.180  10.012 -1.0224 -0.2627 -1.2703
  303MOL0     H40844   3.610   9.441  10.076  0.7117 -0.5960  0.0235
  303MOL0     H40845   3.660   9.394   9.911  0.2884 -1.0261 -0.6039
  303MOL0     H40846   3.485   9.218   9.905 -0.2832  2.0735 -2.1713
  303MOL0     H40847   3.444   9.256  10.077 -0.1341  1.8216  1.2456
  303MOL0     H40848   3.404   9.491  10.005 -1.0620 -1.1048  2.0179
  303MOL0     H40849   3.422   9.418   9.837  2.1248  0.8295  1.1776
  303MOL0     H40850   3.244   9.244   9.891 -1.1463 -0.5355 -1.6801
  303MOL0     H40851   3.230   9.330  10.041  1.9276  0.1760 -0.4297
  303MOL0     H40852   3.154   9.529   9.950 -1.7922 -0.0113  1.0479
  303MOL0     H40853   3.178   9.474   9.781 -0.3956 -1.2828 -1.3334
  303MOL0     H40854   2.975   9.338   9.986 -1.6891 -0.0045  0.7900
  303MOL0     H40855   3.003   9.316   9.811  2.3150  1.8092 -1.9042
  303MOL0     H40856   2.952   9.589   9.710 -2.2958  0.2715 -1.8749
  303MOL0     H40857   2.743   9.877   9.861  0.1592 -0.6927  0.6544
  303MOL0     H40858   2.867   9.851   9.734 -1.3341 -0.0404 -3.3046
  303MOL0     H40859   2.603   9.704   9.705  1.0022 -1.2996 -0.5926
  303MOL0     H40860   2.735   9.748   9.585 -1.6827 -1.0913 -0.5117
  303MOL0     H40861   2.581   9.920   9.514 -0.2449 -0.8822 -0.2890
  303MOL0     H40862   2.683   9.984   9.649  1.0204 -0.8440  1.3833
  303MOL0     H40863   2.436  10.034   9.689 -2.2341 -1.0657 -0.9890
  303MOL0     H40864   2.489   9.910   9.801  1.8197 -1.1109 -0.2726
  303MOL0     H40865   2.225  10.021   9.735 -1.1482 -0.1187  1.6036
  303MOL0     H40866   1.980  10.128   9.613  2.1654 -2.5653 -2.3272
  303MOL0     H40867   1.886  10.069   9.764  0.7237 -0.9623  1.3162
  303MOL0     H40868   2.045  10.127   9.775 -1.1159  1.3992 -1.2052
  303MOL0     H40869   1.587   9.690   9.742  2.1295 -2.7141 -1.1001
  303MOL0     H40870   1.325   9.698   9.705 -3.4284 -3.2427 -3.5900
  303MOL0     H40871   1.060   9.843   9.487  0.7066  1.9739  0.0974
  303MOL0     H40872   1.216   9.921   9.437  1.2825  0.1062 -3.0918
  303MOL0     H40873   1.037   9.906   9.259  0.9773  0.6665  0.5427
  303MOL0     H40874   1.191   9.817   9.214  0.6110 -0.5912  0.6113
  303MOL0     H40875   0.962   9.658   9.332  0.3452  0.7613  0.4346
  303MOL0     H40876   1.120   9.610   9.269 -1.2150 -1.8321  2.4840
  303MOL0     H40877   0.897   9.750   9.144  3.1144  2.5462  1.6267
  303MOL0     H40878   1.035   9.703   9.045 -1.6094  0.3286 -1.6772
  303MOL0     H40879   0.857   9.493   9.205 -2.0925  1.7814 -0.9323
  303MOL0     H40880   0.999   9.458   9.108  1.9452  2.4612 -0.0889
  303MOL0     H40881   0.748   9.600   8.989 -1.1275 -0.3762  0.3252
  303MOL0     H40882   0.896   9.551   8.917  1.3609  0.9381  1.7580
  303MOL0     H40883   0.694   9.351   9.062 -0.1333 -1.3451 -1.1415
  303MOL0     H40884   0.823   9.316   8.956  2.2092  1.4143 -0.5315
  303MOL0     H40885   0.609   9.307   8.819  1.6760 -0.3927  0.4930
  303MOL0     H40886   0.727   9.434   8.769  0.4219  0.7557  0.5371
  303MOL0     H40887   1.398   9.727   9.289  1.7964 -2.5282 -0.7083
  303MOL0     H40888   1.643   9.720   9.322 -0.2125 -0.5066 -0.1124
  303MOL0     H40889   1.983   9.636   9.550 -2.1942  0.2985  0.5058
  303MOL0     H40890   2.247   9.647   9.538 -1.4356  0.0463  0.2346
  303MOL0     H40891   3.993   8.999  10.352 -0.4353  0.8368 -2.1055
  303MOL0     H40892   3.982   8.741  10.390  0.7385  0.1080 -2.1625
  303MOL0     H40893   3.743   8.357  10.212 -2.9453 -1.5423 -1.7523
  303MOL0     H40894   3.666   8.134  10.196  0.0017  0.7809 -0.3948
  303MOL0     H40895   3.533   7.979  10.209 -1.7559  0.9477 -0.2791
  303MOL0     H40896   3.477   7.841  10.297  1.2841 -0.1811 -0.8049
  303MOL0     H40897   3.300   8.024  10.255 -0.0954  1.0485  0.3046
  303MOL0     H40898   3.386   8.129  10.366 -1.7343  0.8123  1.4420
  303MOL0     H40899   3.289   7.850  10.444 -0.8846  0.2348  1.3441
  303MOL0     H40900   3.188   7.991  10.469 -0.8257 -1.8410  3.2200
  303MOL0     H40901   3.392   8.094  10.595  0.9790 -0.3897  0.0941
  303MOL0     H40902   3.453   7.933  10.609  0.4574  0.4460  0.6510
  303MOL0     H40903   3.131   7.835  10.838 -0.7593 -0.8269 -0.1393
  303MOL0     H40904   3.649   8.107  10.619 -1.6706 -0.8695 -0.7847
  303MOL0     H40905   3.708   8.334  10.639  2.9074 -1.7138  0.8176
  304MOL0     O40906   9.625   0.738   0.246  0.2329 -0.4088 -0.1481
  304MOL0     C40907   9.710   0.790   0.174 -0.3469  0.2255 -0.2626
  304MOL0     O40908   9.706   0.901   0.095  0.3503 -0.4366 -0.4015
  304MOL0     C40909   9.620   1.001   0.123  1.0246 -0.5002  0.0082
  304MOL0     C40910   9.480   0.986   0.129  0.2430 -0.7041 -0.0511
  304MOL0     C40911   9.401   1.098   0.159 -0.2493  0.2726 -0.2350
  304MOL0     C40912   9.453   1.227   0.192  0.5326 -0.1390  0.3120
  304MOL0     O40913   9.371   1.334   0.228 -0.4997 -0.4698  0.1585
  304MOL0     C40914   9.243   1.307   0.289  0.3732  0.6148  0.1923
  304MOL0     C40915   9.143   1.329   0.179 -0.0905  0.3854  0.0785
  304MOL0     C40916   8.998   1.321   0.231  0.0229  0.0841  0.1128
  304MOL0     C40917   8.968   1.178   0.269  1.6327  0.5329  0.7233
  304MOL0     C40918   8.816   1.145   0.260  0.4211  0.4340  0.9066
  304MOL0     C40919   8.766   1.132   0.117  0.2741 -0.0874  0.9785
  304MOL0     C40920   8.609   1.113   0.128 -0.6850 -0.0078 -0.1037
  304MOL0     C40921   8.542   1.090  -0.000  0.0083  0.2370  0.9941
  304MOL0     N40922   8.407   1.147  -0.012  0.0402 -0.0894 -0.0796
  304MOL0     C40923   8.391   1.280  -0.028 -0.1954  0.5028 -0.2367
  304MOL0     C40924   8.273   1.297  -0.083 -0.3365 -0.7105  0.0932
  304MOL0     C40925   8.219   1.438  -0.110 -0.4562  0.5948  0.4997
  304MOL0     C40926   8.087   1.435  -0.192 -0.2084  0.1553  0.1038
  304MOL0     C40927   7.972   1.372  -0.119 -0.0427 -0.7592  0.3965
  304MOL0     C40928   7.903   1.259  -0.200  0.6642 -0.3888  0.9018
  304MOL0     O40929   7.857   1.311  -0.332  0.0872 -0.7823 -0.0991
  304MOL0     C40930   7.734   1.367  -0.350 -0.0935  0.0173 -1.0315
  304MOL0     C40931   7.711   1.420  -0.475  1.0270  0.2316  0.5125
  304MOL0     C40932   7.587   1.482  -0.509  0.5027 -0.3742 -0.3419
  304MOL0     C40933   7.579   1.553  -0.644  0.4402  0.7543  0.2315
  304MOL0     C40934   7.475   1.481  -0.410 -0.3849 -0.2982  0.4311
  304MOL0     C40935   7.343   1.540  -0.438 -0.0661 -0.2998 -0.0213
  304MOL0     O40936   7.334   1.639  -0.533  0.1012 -0.0544  0.1802
  304MOL0     C40937   7.223   1.707  -0.547 -0.3429  0.8245  0.1317
  304MOL0     C40938   7.226   1.838  -0.499 -0.7004 -0.5884 -0.1675
  304MOL0     C40939   7.129   1.929  -0.544  0.5874 -0.6750 -0.4253
  304MOL0     C40940   7.033   1.885  -0.638 -0.1799  0.3732  0.6395
  304MOL0     O40941   6.936   1.967  -0.688  0.3607 -0.3721  0.2468
  304MOL0     C40942   6.811   1.910  -0.739 -0.6282 -0.2358 -0.8496
  304MOL0     C40943   6.709   2.015  -0.689 -0.1452  0.7593  0.3866
  304MOL0     C40944   6.568   1.951  -0.690 -0.2349 -0.4331  1.5288
  304MOL0     C40945   6.458   2.046  -0.628  0.0189 -0.0921  0.4515
  304MOL0     C40946   6.436   2.164  -0.719  0.4833 -0.1021 -0.4196
  304MOL0     C40947   6.333   2.254  -0.654 -0.2240  0.6128  0.9819
  304MOL0     C40948   6.352   2.399  -0.714 -0.1460  0.4016 -0.4007
  304MOL0     C40949   6.255   2.499  -0.661 -0.2457  0.7799  0.8944
  304MOL0    Cl40950   6.103   2.453  -0.708  0.3544  0.4331 -0.0292
  304MOL0     C40951   7.038   1.754  -0.688  0.3211 -0.0812  0.4468
  304MOL0     C40952   7.139   1.666  -0.646  0.0170 -0.6928  0.2400
  304MOL0     O40953   7.248   1.493  -0.377 -0.1463 -0.6278  0.5711
  304MOL0     C40954   7.499   1.422  -0.287  0.4407 -0.4191  0.4824
  304MOL0     C40955   7.622   1.362  -0.261 -0.7894  0.2330  0.1520
  304MOL0     N40956   8.217   1.172  -0.114  0.2278  0.8462  0.2652
  304MOL0     N40957   8.298   1.081  -0.062 -0.3063 -0.0626 -0.1631
  304MOL0     C40958   9.589   1.237   0.178  1.2976  0.3049 -0.1814
  304MOL0     C40959   9.667   1.135   0.138  0.1338  0.6499 -0.2394
  304MOL0     C40960   9.834   0.710   0.176  0.8701 -0.9781 -0.6051
  304MOL0     C40961   9.838   0.586   0.241  0.6108 -0.3603 -0.4192
  304MOL0     C40962   9.948   0.498   0.232 -0.0994 -0.0234  0.2481
  304MOL0     C40963  10.055   0.528   0.152 -0.9450 -0.3631 -0.7049
  304MOL0     O40964  10.149   0.429   0.138 -0.5869  0.6565  0.3409
  304MOL0     C40965  10.282   0.458   0.087  0.2821  0.3087  0.3127
  304MOL0     C40966  10.320   0.339   0.002 -0.2548 -0.2309 -0.3356
  304MOL0     C40967  10.272   0.202   0.054  0.5256 -1.2552  0.3889
  304MOL0     C40968  10.334   0.091  -0.020 -0.8573  0.0410  0.0579
  304MOL0     C40969  10.481   0.071   0.012  0.0651  0.0527  0.7930
  304MOL0     C40970  10.599   0.056   0.037  0.1152  0.4311 -0.0863
  304MOL0     C40971  10.055   0.648   0.082  0.1204  0.4609  0.5103
  304MOL0     C40972   9.946   0.744   0.094 -0.3242 -0.5002 -0.4723
  304MOL0     H40973   9.433   0.889   0.119  0.6899 -1.2401  2.3665
  304MOL0     H40974   9.295   1.078   0.150 -0.1431 -1.2006  1.3897
  304MOL0     H40975   9.230   1.211   0.340  1.9834 -0.1783 -0.8137
  304MOL0     H40976   9.234   1.378   0.371  2.2617  0.1721  0.8200
  304MOL0     H40977   9.154   1.423   0.124 -1.4386 -0.7114 -2.2774
  304MOL0     H40978   9.159   1.245   0.109  1.5452  0.9415 -0.2455
  304MOL0     H40979   8.998   1.386   0.319 -2.4770 -0.3640  0.5263
  304MOL0     H40980   8.920   1.357   0.163  0.8371  0.0170 -0.8775
  304MOL0     H40981   9.021   1.104   0.207 -0.8598  0.8207 -1.9742
  304MOL0     H40982   9.003   1.163   0.372  0.7507 -1.6153  0.7659
  304MOL0     H40983   8.795   1.047   0.304 -1.0833 -0.1379 -0.9424
  304MOL0     H40984   8.760   1.224   0.309  0.7003 -0.3615  2.5572
  304MOL0     H40985   8.784   1.220   0.055  0.6681 -0.4090  0.6261
  304MOL0     H40986   8.809   1.044   0.067  1.3671  0.2754  1.2458
  304MOL0     H40987   8.590   1.035   0.202 -0.1846  0.0440  0.0809
  304MOL0     H40988   8.568   1.203   0.174 -0.6153 -0.2920  0.5186
  304MOL0     H40989   8.537   0.981  -0.012 -2.6786  0.4007 -0.0668
  304MOL0     H40990   8.604   1.134  -0.079  0.3600  0.6819  1.5128
  304MOL0     H40991   8.462   1.357  -0.001  0.9416 -0.9949  1.2861
  304MOL0     H40992   8.201   1.489  -0.016  0.0267  2.0594 -0.1758
  304MOL0     H40993   8.303   1.478  -0.167  0.3667 -0.0517  1.2176
  304MOL0     H40994   8.114   1.399  -0.292 -0.6161  3.6751 -1.3923
  304MOL0     H40995   8.051   1.533  -0.224 -0.1759 -0.0335 -0.5460
  304MOL0     H40996   7.896   1.441  -0.082  0.9594  0.6531 -0.1093
  304MOL0     H40997   8.026   1.334  -0.031 -0.3860 -1.0409  0.4883
  304MOL0     H40998   7.822   1.211  -0.143  0.5483  0.9245  1.8847
  304MOL0     H40999   7.975   1.179  -0.218 -0.0218 -0.5674 -1.4100
  304MOL0     H41000   7.782   1.420  -0.556  0.1570 -1.3045 -0.2800
  304MOL0     H41001   7.490   1.518  -0.698  2.1865 -0.7339 -1.8784
  304MOL0     H41002   7.569   1.661  -0.635  1.7385  1.0543 -1.4046
  304MOL0     H41003   7.675   1.537  -0.694  1.9573  0.1097  3.1574
  304MOL0     H41004   7.290   1.886  -0.425 -0.0782 -0.7756 -0.5767
  304MOL0     H41005   7.126   2.028  -0.499  0.0389  0.0065 -1.8999
  304MOL0     H41006   6.804   1.889  -0.847  0.5394 -3.7200 -0.3681
  304MOL0     H41007   6.781   1.816  -0.693 -3.1345  1.1632  0.6085
  304MOL0     H41008   6.732   2.055  -0.590  0.3981  0.6729  0.2936
  304MOL0     H41009   6.723   2.089  -0.768  1.1722 -0.6863 -0.7871
  304MOL0     H41010   6.569   1.863  -0.625  1.0945  1.4683  4.2524
  304MOL0     H41011   6.541   1.922  -0.792  0.3445  2.8425  0.3527
  304MOL0     H41012   6.369   1.982  -0.622  1.5324 -2.3669  0.0260
  304MOL0     H41013   6.489   2.083  -0.530 -1.8513 -0.9778  1.4346
  304MOL0     H41014   6.401   2.129  -0.816  3.7508  1.3846 -2.2744
  304MOL0     H41015   6.535   2.207  -0.734  1.2643 -2.1801 -1.5163
  304MOL0     H41016   6.230   2.220  -0.671 -0.5852  2.3266 -0.6333
  304MOL0     H41017   6.343   2.259  -0.546 -1.3448  1.0301  1.0832
  304MOL0     H41018   6.349   2.390  -0.822  3.7804  0.0269 -0.6359
  304MOL0     H41019   6.455   2.427  -0.690  0.1892 -0.6313 -0.6271
  304MOL0     H41020   6.279   2.597  -0.703  1.0292  0.2253  0.2603
  304MOL0     H41021   6.260   2.512  -0.553  1.4896  1.2019  0.7879
  304MOL0     H41022   6.968   1.721  -0.764 -1.1202 -0.0051  1.6844
  304MOL0     H41023   7.139   1.569  -0.695 -1.7921 -0.2984 -0.6291
  304MOL0     H41024   7.424   1.429  -0.209  1.4336 -1.1520  1.5414
  304MOL0     H41025   7.648   1.331  -0.160  3.9074  3.0695  0.0938
  304MOL0     H41026   9.631   1.336   0.188  0.6995  0.7581 -1.7433
  304MOL0     H41027   9.775   1.143   0.126  0.4962 -0.5764  1.6648
  304MOL0     H41028   9.766   0.534   0.304 -0.6135 -1.0997 -2.3223
  304MOL0     H41029   9.949   0.395   0.267  0.3007  0.1053  0.6301
  304MOL0     H41030  10.306   0.546   0.028  0.5458 -1.5449 -2.5411
  304MOL0     H41031  10.353   0.466   0.170  1.3627  1.5639 -0.6935
  304MOL0     H41032  10.428   0.338  -0.017 -0.2807 -0.6756 -0.4595
  304MOL0     H41033  10.274   0.346  -0.097  1.0589  1.1784 -0.8841
  304MOL0     H41034  10.163   0.195   0.043  0.2328  1.1993  0.9590
  304MOL0     H41035  10.306   0.207   0.158  1.1640  1.5343  0.1353
  304MOL0     H41036  10.322   0.096  -0.128  0.5929  0.3217 -0.0999
  304MOL0     H41037  10.288  -0.006   0.000  3.7337 -2.7383 -1.3043
  304MOL0     H41038  10.704   0.056   0.061 -0.4087 -0.6504  2.4539
  304MOL0     H41039  10.139   0.678   0.021  0.2165  0.7729  0.8003
  304MOL0     H41040   9.948   0.831   0.028  0.3594  1.9079  2.5051
  305MOL0     O41041   9.622   9.922   3.990 -0.0987 -0.8453 -0.8980
  305MOL0     C41042   9.697   9.862   3.910 -0.3541  0.1005 -0.3708
  305MOL0     O41043   9.660   9.822   3.787  0.4598 -0.4884  0.4175
  305MOL0     C41044   9.525   9.844   3.747  0.3477 -0.5990  0.9750
  305MOL0     C41045   9.503   9.938   3.649  0.0948  0.1167  0.1689
  305MOL0     C41046   9.376   9.972   3.608  0.0784  0.1617 -0.4144
  305MOL0     C41047   9.267   9.918   3.668 -0.2474  0.1748 -0.2500
  305MOL0     O41048   9.149   9.952   3.612 -0.1106  0.7518 -0.0987
  305MOL0     C41049   9.049   9.853   3.608 -0.0786 -1.0743 -0.1427
  305MOL0     C41050   8.946   9.894   3.718  0.1340 -0.3435 -0.5539
  305MOL0     C41051   8.812   9.804   3.714 -0.3591  0.0634 -0.0698
  305MOL0     C41052   8.802   9.745   3.852 -0.3682  0.2911  0.0281
  305MOL0     C41053   8.671   9.660   3.859 -0.0837  0.5844  0.6469
  305MOL0     C41054   8.653   9.587   3.997 -0.3168 -0.3467 -0.0058
  305MOL0     C41055   8.537   9.485   3.987  0.6475 -0.0065 -0.0099
  305MOL0     C41056   8.507   9.406   4.121  0.3965 -0.6271  0.2054
  305MOL0     N41057   8.610   9.314   4.156 -0.1701  0.2068 -0.0292
  305MOL0     C41058   8.630   9.184   4.108  0.3336 -0.1776  0.3043
  305MOL0     C41059   8.723   9.134   4.185  0.3513 -0.2342 -1.0816
  305MOL0     C41060   8.777   8.999   4.176  0.3414  0.8263 -0.3221
  305MOL0     C41061   8.666   8.887   4.171  0.4081  0.5373 -0.3116
  305MOL0     C41062   8.735   8.741   4.173 -0.3674  0.3789 -0.0999
  305MOL0     C41063   8.847   8.716   4.067 -0.0429 -0.2092  1.0140
  305MOL0     O41064   8.831   8.771   3.938  0.1620 -0.6351  0.7235
  305MOL0     C41065   8.731   8.728   3.857  0.6670 -0.7273 -0.1677
  305MOL0     C41066   8.706   8.812   3.751 -0.2093  0.2645 -0.6215
  305MOL0     C41067   8.614   8.786   3.644 -0.3268 -0.0789  0.6978
  305MOL0     C41068   8.597   8.896   3.538  0.1696 -0.1735 -0.6602
  305MOL0     C41069   8.540   8.669   3.649 -0.5122  0.1927 -0.6247
  305MOL0     C41070   8.432   8.655   3.557  0.5715 -0.0622 -0.1202
  305MOL0     O41071   8.454   8.626   3.424  0.5262  0.2360 -0.0822
  305MOL0     C41072   8.350   8.577   3.350  0.4681 -0.8298  0.8482
  305MOL0     C41073   8.246   8.494   3.398 -1.0116  0.7669  0.0436
  305MOL0     C41074   8.132   8.459   3.325  0.7653  0.0543  0.0622
  305MOL0     C41075   8.110   8.530   3.205 -0.5235 -0.0050  0.5667
  305MOL0     O41076   7.991   8.503   3.135 -0.5364 -0.3546 -0.4837
  305MOL0     C41077   7.931   8.593   3.041 -0.2124  0.2303  0.7807
  305MOL0     C41078   7.884   8.722   3.100  0.0802  0.2745 -0.5339
  305MOL0     C41079   7.792   8.708   3.221  0.2476  0.2628 -0.0546
  305MOL0     C41080   7.723   8.847   3.234 -0.0875 -0.1694 -0.4668
  305MOL0     C41081   7.631   8.866   3.354  0.0445  0.2446 -0.2579
  305MOL0     C41082   7.529   8.750   3.380  1.1389  1.5368  0.1627
  305MOL0     C41083   7.412   8.731   3.282 -0.0719  0.3689 -0.9723
  305MOL0     C41084   7.325   8.626   3.340 -0.0666  0.1069 -0.2856
  305MOL0    Cl41085   7.407   8.466   3.318 -0.2778 -0.0059 -0.3329
  305MOL0     C41086   8.217   8.595   3.146 -0.2460  0.0471 -0.1617
  305MOL0     C41087   8.338   8.620   3.209 -1.0133  0.6702  1.0480
  305MOL0     O41088   8.322   8.687   3.606 -0.0226  0.6877 -0.0299
  305MOL0     C41089   8.562   8.580   3.754 -0.0244  0.4252 -0.3350
  305MOL0     C41090   8.661   8.604   3.854 -0.2695  0.0191  0.9236
  305MOL0     N41091   8.761   9.234   4.274  0.7347 -0.1848 -0.7982
  305MOL0     N41092   8.696   9.341   4.254 -0.2888  0.5026  0.3138
  305MOL0     C41093   9.282   9.820   3.763 -0.3183  0.7156 -0.1075
  305MOL0     C41094   9.412   9.775   3.797 -0.0811 -0.4492  0.3984
  305MOL0     C41095   9.834   9.824   3.960 -0.2720  0.1949  0.5167
  305MOL0     C41096   9.885   9.871   4.078 -0.0916 -0.4795 -0.2790
  305MOL0     C41097  10.015   9.836   4.113  0.5234  0.4781 -1.2354
  305MOL0     C41098  10.088   9.735   4.043  0.6012  0.1970 -0.5221
  305MOL0     O41099  10.201   9.671   4.082 -0.9779  0.1430 -0.2123
  305MOL0     C41100  10.281   9.710   4.193  0.2857 -0.7258  0.3921
  305MOL0     C41101  10.402   9.615   4.207  0.1622  0.4315  0.2062
  305MOL0     C41102  10.498   9.629   4.095  0.3066 -0.1912 -0.2259
  305MOL0     C41103  10.631   9.553   4.127  0.4170 -0.0855  0.9708
  305MOL0     C41104  10.726   9.628   4.207  0.5352  0.0498  0.0606
  305MOL0     C41105  10.802   9.710   4.255  0.7620  0.1551  0.4892
  305MOL0     C41106  10.030   9.674   3.939  0.1700 -0.2824  0.2252
  305MOL0     C41107   9.909   9.725   3.888 -0.3551  0.1259  0.1399
  305MOL0     H41108   9.595   9.983   3.612  0.3744  0.9691  1.7909
  305MOL0     H41109   9.348  10.047   3.534 -0.6161  1.2047  0.8612
  305MOL0     H41110   8.993   9.869   3.515  0.9840 -0.4141 -0.6934
  305MOL0     H41111   9.078   9.749   3.619  1.2002 -0.9087 -1.6470
  305MOL0     H41112   8.997   9.897   3.815  0.1133  2.1919 -0.5565
  305MOL0     H41113   8.904   9.992   3.696  0.5333 -0.5644 -2.5826
  305MOL0     H41114   8.721   9.863   3.697  0.5797  1.4111 -0.6030
  305MOL0     H41115   8.820   9.722   3.642 -1.5337 -1.3020  1.2970
  305MOL0     H41116   8.891   9.684   3.873  1.4731  2.7122 -0.3862
  305MOL0     H41117   8.803   9.821   3.930 -0.2548 -0.7025  1.0306
  305MOL0     H41118   8.590   9.729   3.833  1.2109  1.2286 -2.0469
  305MOL0     H41119   8.674   9.582   3.782  0.3103  0.7752  0.4612
  305MOL0     H41120   8.744   9.526   4.009 -0.3725 -0.8314 -1.7794
  305MOL0     H41121   8.641   9.662   4.075  3.6713 -1.1835  1.6901
  305MOL0     H41122   8.444   9.534   3.956  0.1391  0.9550  2.7837
  305MOL0     H41123   8.551   9.416   3.903 -0.9638 -0.2846 -0.0925
  305MOL0     H41124   8.415   9.347   4.112 -0.5025  0.8192 -0.6076
  305MOL0     H41125   8.487   9.483   4.196 -5.7508  0.0045 -1.4866
  305MOL0     H41126   8.584   9.129   4.027  1.8618 -1.5983  0.3523
  305MOL0     H41127   8.831   8.996   4.081  1.2733  1.7101  0.1615
  305MOL0     H41128   8.840   8.972   4.262  0.8686  0.7385 -0.7287
  305MOL0     H41129   8.613   8.903   4.077 -1.1924 -1.9771  0.0609
  305MOL0     H41130   8.597   8.908   4.254 -1.6866 -1.1443 -1.5268
  305MOL0     H41131   8.658   8.663   4.168 -1.0444  1.0211  0.2339
  305MOL0     H41132   8.775   8.720   4.273 -0.3527  1.6983  0.1791
  305MOL0     H41133   8.864   8.609   4.054 -1.0457 -0.0170 -3.0426
  305MOL0     H41134   8.933   8.762   4.117  0.7594  1.7944 -1.9416
  305MOL0     H41135   8.772   8.898   3.753  0.0927  0.0249  0.6555
  305MOL0     H41136   8.696   8.929   3.504  0.3387 -0.6469 -0.6264
  305MOL0     H41137   8.534   8.863   3.455  0.1054 -3.7322  0.6404
  305MOL0     H41138   8.546   8.985   3.578 -1.3725 -2.2889  2.5581
  305MOL0     H41139   8.256   8.457   3.499  0.6639 -0.8790 -0.6606
  305MOL0     H41140   8.050   8.400   3.364  1.0549 -0.4413 -0.0651
  305MOL0     H41141   8.012   8.611   2.969 -0.2717 -2.6730 -0.1520
  305MOL0     H41142   7.847   8.551   2.986 -0.3259 -1.0794  1.8999
  305MOL0     H41143   7.972   8.775   3.137  0.4040  0.2113 -1.1959
  305MOL0     H41144   7.833   8.778   3.021 -1.8852  2.4014  2.0369
  305MOL0     H41145   7.843   8.676   3.312 -0.0755 -0.0006  0.0351
  305MOL0     H41146   7.720   8.627   3.203  2.2832 -1.6845  0.1705
  305MOL0     H41147   7.796   8.928   3.241  0.2778 -0.5943  1.0434
  305MOL0     H41148   7.657   8.852   3.147 -0.1258 -0.3262 -0.4472
  305MOL0     H41149   7.583   8.964   3.347  0.5003  0.4400 -0.6736
  305MOL0     H41150   7.692   8.867   3.444 -0.6057 -2.3828  0.3032
  305MOL0     H41151   7.572   8.650   3.393  0.5739  1.1594 -0.8124
  305MOL0     H41152   7.487   8.774   3.478 -0.7001 -1.4452  0.2299
  305MOL0     H41153   7.435   8.703   3.179 -0.1867 -1.1226 -0.6182
  305MOL0     H41154   7.366   8.829   3.267 -0.2645  1.0226  2.9489
  305MOL0     H41155   7.231   8.625   3.285 -2.4062 -0.6170  3.3309
  305MOL0     H41156   7.292   8.644   3.443 -0.4566  2.7636 -0.8140
  305MOL0     H41157   8.192   8.636   3.048 -1.4668  2.5742  1.0935
  305MOL0     H41158   8.404   8.689   3.158 -0.2592  0.3067  1.5101
  305MOL0     H41159   8.498   8.492   3.756 -0.9627  0.9800 -2.6535
  305MOL0     H41160   8.700   8.529   3.922  0.0703 -0.6286  0.0234
  305MOL0     H41161   9.192   9.779   3.808 -1.5488  3.1637 -0.1283
  305MOL0     H41162   9.431   9.705   3.877  0.5819  0.0294  0.6681
  305MOL0     H41163   9.831   9.946   4.136  0.7783  0.0710 -0.1565
  305MOL0     H41164  10.057   9.884   4.201 -2.0536  1.7177 -0.5870
  305MOL0     H41165  10.332   9.805   4.174  0.7283 -1.3328 -1.7642
  305MOL0     H41166  10.216   9.710   4.281 -1.6207  1.0749 -0.9008
  305MOL0     H41167  10.373   9.510   4.213  2.8134 -0.3031  2.1604
  305MOL0     H41168  10.456   9.640   4.299  1.1007  1.6621 -0.6613
  305MOL0     H41169  10.515   9.735   4.072  0.8584 -0.6036 -1.9086
  305MOL0     H41170  10.449   9.581   4.009 -2.1254 -1.3259  1.6891
  305MOL0     H41171  10.678   9.528   4.031 -1.2451 -1.6543  0.5173
  305MOL0     H41172  10.615   9.465   4.189  0.7570 -0.3918  0.6288
  305MOL0     H41173  10.853   9.783   4.315  2.4578 -2.3170  2.2959
  305MOL0     H41174  10.084   9.596   3.887  1.7926 -0.5761  2.1996
  305MOL0     H41175   9.856   9.667   3.813 -1.7423 -1.1121  1.9873
  306MOL0     O41176   2.352  11.260   0.821  0.1945 -0.0068  0.5139
  306MOL0     C41177   2.376  11.373   0.792 -0.4653 -1.5130  0.5388
  306MOL0     O41178   2.290  11.483   0.802 -0.2954 -0.0688 -0.9156
  306MOL0     C41179   2.158  11.470   0.851  0.4766 -0.1027 -0.7193
  306MOL0     C41180   2.078  11.367   0.821  0.1875  0.6504 -1.2964
  306MOL0     C41181   1.946  11.368   0.869 -0.4462 -0.1628  0.2189
  306MOL0     C41182   1.898  11.476   0.947 -0.3587  0.2137  0.9325
  306MOL0     O41183   1.763  11.490   0.985  0.7245  0.7204  0.1823
  306MOL0     C41184   1.671  11.377   0.956  1.0920  1.0050 -0.0967
  306MOL0     C41185   1.532  11.422   1.011  0.0371 -0.8183  0.6540
  306MOL0     C41186   1.437  11.297   0.977  0.9269 -0.1636  0.6179
  306MOL0     C41187   1.294  11.346   1.017  0.2561  0.5742 -1.5067
  306MOL0     C41188   1.211  11.227   1.076 -0.3228 -0.4859 -0.6932
  306MOL0     C41189   1.069  11.268   1.094  0.2758  0.0251  0.3715
  306MOL0     C41190   0.986  11.156   1.147  0.0998  0.4999 -0.6859
  306MOL0     C41191   0.843  11.210   1.147  0.3959 -0.2134  0.3552
  306MOL0     N41192   0.733  11.115   1.168  0.5491  0.0575  0.8937
  306MOL0     C41193   0.603  11.161   1.138 -0.3355  0.0198 -0.4650
  306MOL0     C41194   0.538  11.039   1.125  0.4340 -0.2106 -0.0908
  306MOL0     C41195   0.399  11.019   1.073  0.1828 -0.1956 -0.3157
  306MOL0     C41196   0.282  11.062   1.161 -0.3578  0.1202 -0.2049
  306MOL0     C41197   0.148  10.990   1.126  0.1990  0.1601 -0.4828
  306MOL0     C41198   0.079  11.067   1.009 -0.0451  0.0869 -0.1396
  306MOL0     O41199   0.065  11.205   1.043 -0.3015  0.1737  0.4987
  306MOL0     C41200  -0.025  11.279   0.973 -0.3744  0.2968  0.7333
  306MOL0     C41201  -0.090  11.244   0.854 -0.0365 -0.5304 -0.1303
  306MOL0     C41202  -0.182  11.337   0.793 -0.5470  0.0028 -0.0542
  306MOL0     C41203  -0.266  11.281   0.686 -0.3471  0.1940  0.1954
  306MOL0     C41204  -0.204  11.457   0.855 -0.2667 -0.4098  0.4117
  306MOL0     C41205  -0.305  11.557   0.811  0.5683  0.5430 -0.2564
  306MOL0     O41206  -0.368  11.617   0.908  0.3813  0.3059 -0.5291
  306MOL0     C41207  -0.467  11.712   0.887  0.2429 -0.0636  0.2031
  306MOL0     C41208  -0.488  11.796   0.771  0.1943  0.0645  0.6776
  306MOL0     C41209  -0.598  11.885   0.777  0.6374  0.2284 -0.0262
  306MOL0     C41210  -0.681  11.900   0.888 -0.6841 -0.2170  1.0969
  306MOL0     O41211  -0.785  11.989   0.879  0.7260 -0.5085  0.0538
  306MOL0     C41212  -0.867  12.041   0.991  0.7820 -0.0419  0.0974
  306MOL0     C41213  -1.020  12.038   0.960  0.5818 -0.2681  0.6514
  306MOL0     C41214  -1.062  11.893   0.935  0.0576 -0.3542  0.3394
  306MOL0     C41215  -1.204  11.872   0.869 -0.1812  0.5331  1.2107
  306MOL0     C41216  -1.315  11.956   0.929  0.1664  0.3823  0.8724
  306MOL0     C41217  -1.337  11.928   1.076  0.5580 -0.2537 -0.7930
  306MOL0     C41218  -1.443  12.020   1.135  0.2469  0.3767 -0.1417
  306MOL0     C41219  -1.579  11.962   1.128  0.9988  0.1987  0.4879
  306MOL0    Cl41220  -1.692  12.043   1.252 -0.1462  0.0348  0.2809
  306MOL0     C41221  -0.649  11.829   1.004 -0.4187 -0.1255  0.2619
  306MOL0     C41222  -0.551  11.729   0.994 -0.3958 -0.0068  0.6579
  306MOL0     O41223  -0.332  11.563   0.693 -0.2187 -0.5109  0.7284
  306MOL0     C41224  -0.134  11.493   0.970 -0.4010 -0.0746  0.2431
  306MOL0     C41225  -0.045  11.404   1.026  0.7343  0.1841 -1.0927
  306MOL0     N41226   0.615  10.933   1.167  0.2261  0.5067 -0.0549
  306MOL0     N41227   0.728  10.986   1.185  0.0777  0.2920  0.8806
  306MOL0     C41228   1.985  11.581   0.977 -0.9408  0.7166 -0.4196
  306MOL0     C41229   2.114  11.578   0.924  0.4090  0.3185  1.0334
  306MOL0     C41230   2.512  11.410   0.728 -0.6700  0.0774  0.0998
  306MOL0     C41231   2.545  11.548   0.735  0.5737 -0.0323 -0.5402
  306MOL0     C41232   2.683  11.582   0.694 -0.5381 -0.3098  0.1977
  306MOL0     C41233   2.773  11.488   0.638 -0.2477 -0.0764 -0.3145
  306MOL0     O41234   2.901  11.531   0.600 -0.1701  0.7668  0.1008
  306MOL0     C41235   2.998  11.430   0.576  0.0638  0.3882 -0.0694
  306MOL0     C41236   3.140  11.504   0.567  0.9585 -0.3225  0.0383
  306MOL0     C41237   3.157  11.578   0.702 -0.2289  0.2553  0.0573
  306MOL0     C41238   3.311  11.607   0.725 -0.1105  0.4207 -0.0868
  306MOL0     C41239   3.365  11.718   0.641  0.1116  0.5441  0.3553
  306MOL0     C41240   3.399  11.809   0.571  0.5471  0.1737 -0.2255
  306MOL0     C41241   2.726  11.357   0.624 -0.1098 -0.0143  0.6510
  306MOL0     C41242   2.605  11.319   0.678  0.1885  0.3513 -0.3275
  306MOL0     H41243   2.114  11.293   0.751  0.6629 -0.4884  0.1069
  306MOL0     H41244   1.886  11.282   0.842  0.2759 -2.4557  5.0074
  306MOL0     H41245   1.650  11.364   0.849 -2.8019 -1.7001  0.8022
  306MOL0     H41246   1.716  11.287   0.999 -0.5006 -0.3445 -1.1195
  306MOL0     H41247   1.538  11.452   1.117  2.4138 -1.5059  0.7637
  306MOL0     H41248   1.500  11.514   0.962  0.4137 -0.9359  0.1872
  306MOL0     H41249   1.447  11.272   0.872 -0.8533 -1.4415  0.6957
  306MOL0     H41250   1.475  11.217   1.040  0.9405  1.0185  2.1887
  306MOL0     H41251   1.305  11.432   1.084 -1.9947 -1.5865  1.9979
  306MOL0     H41252   1.237  11.378   0.929 -3.9017  0.4757  0.8649
  306MOL0     H41253   1.193  11.143   1.009 -0.2072 -0.1188 -1.1930
  306MOL0     H41254   1.253  11.198   1.173  3.4258 -1.2556 -2.3736
  306MOL0     H41255   1.067  11.353   1.162  3.7560  0.3541  0.2226
  306MOL0     H41256   1.038  11.303   0.995  0.5343  1.3780  0.7580
  306MOL0     H41257   0.996  11.072   1.078 -1.4802  1.7821 -2.5858
  306MOL0     H41258   1.013  11.129   1.249 -2.3961 -1.3836 -0.4201
  306MOL0     H41259   0.822  11.243   1.045  0.1079  1.1394  0.8389
  306MOL0     H41260   0.822  11.294   1.213  0.6228  2.8395 -3.1543
  306MOL0     H41261   0.559  11.255   1.107  0.1506  1.0069  1.7039
  306MOL0     H41262   0.388  11.067   0.975 -1.1671  1.0575  0.4036
  306MOL0     H41263   0.392  10.910   1.065 -1.5395 -0.2265  1.0173
  306MOL0     H41264   0.279  11.171   1.172  0.8536 -0.0143  2.0881
  306MOL0     H41265   0.317  11.029   1.260  1.0332  0.5666 -0.5384
  306MOL0     H41266   0.084  11.004   1.214  0.0423  5.0169 -1.1036
  306MOL0     H41267   0.155  10.882   1.110  2.8808  0.3402 -1.1159
  306MOL0     H41268  -0.015  11.016   0.986 -1.6377  1.6964  2.2743
  306MOL0     H41269   0.150  11.057   0.927 -0.2088 -1.4648 -0.1256
  306MOL0     H41270  -0.083  11.144   0.811 -0.3438 -1.7447  2.4383
  306MOL0     H41271  -0.374  11.289   0.705 -0.0820 -0.0477  1.9542
  306MOL0     H41272  -0.242  11.342   0.598 -1.2197  2.5113  1.4773
  306MOL0     H41273  -0.243  11.175   0.674 -2.7037 -0.3534 -0.0997
  306MOL0     H41274  -0.429  11.790   0.680 -1.4124  0.4432 -0.4447
  306MOL0     H41275  -0.624  11.942   0.688 -1.0540  0.4196  0.5641
  306MOL0     H41276  -0.855  12.009   1.095 -0.1723 -0.3541  0.1190
  306MOL0     H41277  -0.852  12.149   0.991 -1.9758  0.4535 -1.6293
  306MOL0     H41278  -1.072  12.070   1.051  0.1306  0.1255  0.2607
  306MOL0     H41279  -1.036  12.102   0.873  0.6786 -0.9214  0.1477
  306MOL0     H41280  -1.065  11.837   1.029 -0.5640  2.7169  2.3043
  306MOL0     H41281  -0.989  11.851   0.866 -0.2279  0.7206 -0.6538
  306MOL0     H41282  -1.194  11.886   0.761  3.5942 -0.0606  1.3481
  306MOL0     H41283  -1.229  11.766   0.884 -0.2111  0.4098  0.3426
  306MOL0     H41284  -1.404  11.928   0.871 -0.8134  3.9125  0.4452
  306MOL0     H41285  -1.299  12.062   0.908  1.6457  0.6530  3.1437
  306MOL0     H41286  -1.354  11.822   1.096  0.7522  0.1583  2.0323
  306MOL0     H41287  -1.246  11.951   1.132 -0.0438 -1.3986  0.7276
  306MOL0     H41288  -1.435  12.120   1.093 -1.7948  1.4886  1.9031
  306MOL0     H41289  -1.415  12.042   1.239  0.8523  2.2328 -0.6661
  306MOL0     H41290  -1.573  11.853   1.143  1.0895  0.1033 -0.2241
  306MOL0     H41291  -1.612  11.988   1.027  1.1529  1.2720  0.7060
  306MOL0     H41292  -0.700  11.847   1.098 -0.3060  0.1977  0.2616
  306MOL0     H41293  -0.530  11.669   1.082 -0.8755 -0.7911  0.2509
  306MOL0     H41294  -0.153  11.587   1.020  0.8483  0.4131 -0.1591
  306MOL0     H41295   0.014  11.432   1.113  2.8743 -0.9264 -2.0993
  306MOL0     H41296   1.935  11.658   1.034 -1.1321 -1.5142  2.6946
  306MOL0     H41297   2.180  11.664   0.933 -1.8051  2.0675  1.4297
  306MOL0     H41298   2.501  11.631   0.789  2.8919  0.2723  1.0287
  306MOL0     H41299   2.718  11.683   0.712 -0.5967 -0.3209  0.3781
  306MOL0     H41300   3.011  11.362   0.660 -2.2286  1.1560  0.9899
  306MOL0     H41301   2.966  11.375   0.487 -3.1115  1.3608  0.3295
  306MOL0     H41302   3.128  11.572   0.482 -0.4469 -0.4335  0.1149
  306MOL0     H41303   3.219  11.432   0.545 -0.2912 -1.5380 -0.6390
  306MOL0     H41304   3.103  11.517   0.774 -3.0995  2.6837  0.1840
  306MOL0     H41305   3.102  11.673   0.697 -0.4340  0.1497  0.3400
  306MOL0     H41306   3.377  11.520   0.719  0.6506  0.5499  3.5897
  306MOL0     H41307   3.320  11.640   0.829 -3.4227  0.3840  0.3344
  306MOL0     H41308   3.424  11.903   0.527  0.4996 -0.8604 -2.5703
  306MOL0     H41309   2.800  11.281   0.600 -1.2524 -1.8400  2.5017
  306MOL0     H41310   2.567  11.218   0.682 -0.6364  0.6795  1.7484
  307MOL0     O41311   7.084   3.334   5.403  0.0560  0.7674 -0.7098
  307MOL0     C41312   7.094   3.285   5.297  0.0266  0.5697 -0.5335
  307MOL0     O41313   7.212   3.296   5.233 -1.2165 -0.0281  0.2484
  307MOL0     C41314   7.319   3.360   5.297 -0.3941  0.0271 -0.2920
  307MOL0     C41315   7.341   3.498   5.271  0.5730 -1.0608 -0.7760
  307MOL0     C41316   7.447   3.574   5.327  0.2949  0.1213 -0.4180
  307MOL0     C41317   7.544   3.498   5.401 -0.4989 -0.3596  0.0337
  307MOL0     O41318   7.662   3.543   5.453 -0.6299  0.3699  0.9185
  307MOL0     C41319   7.663   3.686   5.465 -1.1464  0.5090 -1.1373
  307MOL0     C41320   7.802   3.727   5.523  0.0712  0.3667  0.3539
  307MOL0     C41321   7.814   3.868   5.551 -1.1222  0.5338 -0.7869
  307MOL0     C41322   7.964   3.906   5.549 -0.1899 -0.9849 -0.1255
  307MOL0     C41323   7.988   4.060   5.570  0.2442 -0.1875 -0.9143
  307MOL0     C41324   8.133   4.096   5.552  0.7613 -0.2891 -0.2093
  307MOL0     C41325   8.148   4.247   5.582 -0.4179  0.4070  0.1101
  307MOL0     C41326   8.258   4.260   5.688  0.5425 -0.2710  0.4440
  307MOL0     N41327   8.282   4.403   5.714 -0.3016  0.5528  0.5106
  307MOL0     C41328   8.373   4.483   5.640  0.3522 -0.3071 -0.2009
  307MOL0     C41329   8.363   4.604   5.705  0.0694 -0.8297 -0.6182
  307MOL0     C41330   8.436   4.735   5.702 -0.3899  0.3908 -0.9053
  307MOL0     C41331   8.445   4.785   5.557  0.1363 -0.2359 -0.0629
  307MOL0     C41332   8.514   4.928   5.543 -0.1783  0.0086 -0.5002
  307MOL0     C41333   8.500   5.005   5.409 -0.8450 -0.1995  0.6578
  307MOL0     O41334   8.377   5.076   5.416 -0.3921 -0.5350 -0.1226
  307MOL0     C41335   8.339   5.134   5.296  1.3196  0.1262  0.3714
  307MOL0     C41336   8.427   5.189   5.197 -0.3223 -0.1765 -0.2682
  307MOL0     C41337   8.383   5.261   5.085 -0.0846  0.2435 -0.0913
  307MOL0     C41338   8.486   5.319   4.997 -0.3090  0.2724  0.0482
  307MOL0     C41339   8.242   5.277   5.064 -0.1873 -0.1279  0.0466
  307MOL0     C41340   8.187   5.328   4.934  0.4188 -0.4436 -0.0470
  307MOL0     O41341   8.056   5.291   4.915  0.2565  0.2991 -0.2390
  307MOL0     C41342   7.992   5.285   4.792 -0.1811  0.5889 -0.3161
  307MOL0     C41343   8.051   5.325   4.666  0.0615 -0.0608 -0.4461
  307MOL0     C41344   7.978   5.324   4.551 -0.0970  0.3996  0.2610
  307MOL0     C41345   7.835   5.289   4.551  0.1415  0.5066 -0.0839
  307MOL0     O41346   7.770   5.314   4.432 -0.4105 -0.0231  0.0166
  307MOL0     C41347   7.644   5.257   4.412  0.1322 -0.2155 -1.0374
  307MOL0     C41348   7.582   5.306   4.280 -0.3756  0.2009  0.2592
  307MOL0     C41349   7.664   5.284   4.150  0.5182 -0.3575 -0.0769
  307MOL0     C41350   7.566   5.321   4.037  0.0682 -0.5538 -0.6814
  307MOL0     C41351   7.636   5.309   3.900  0.0095  0.0600  0.1250
  307MOL0     C41352   7.749   5.415   3.883 -0.7209  1.0692  0.4729
  307MOL0     C41353   7.811   5.399   3.749 -0.0329  0.2768 -0.0371
  307MOL0     C41354   7.863   5.534   3.701  0.0051  0.1535 -0.0753
  307MOL0    Cl41355   7.981   5.610   3.816  0.5384 -0.5038 -0.0196
  307MOL0     C41356   7.779   5.264   4.677 -0.0056  0.7533 -0.1936
  307MOL0     C41357   7.852   5.248   4.788 -0.1628 -0.1188  0.5761
  307MOL0     O41358   8.247   5.409   4.864  0.8214 -0.4470 -0.0117
  307MOL0     C41359   8.153   5.231   5.163  0.6181  0.3730 -0.5571
  307MOL0     C41360   8.199   5.161   5.274 -0.0413  0.1368 -0.2652
  307MOL0     N41361   8.272   4.593   5.806  0.5503 -0.9666 -0.2084
  307MOL0     N41362   8.231   4.475   5.819  0.0198  0.2345  0.4454
  307MOL0     C41363   7.524   3.357   5.407  0.3782  0.0201  0.2445
  307MOL0     C41364   7.409   3.285   5.363 -0.0138  0.6766 -0.6484
  307MOL0     C41365   6.985   3.211   5.225 -1.0997 -0.4860 -0.0675
  307MOL0     C41366   6.855   3.188   5.274  0.3610  0.4278  0.4466
  307MOL0     C41367   6.754   3.106   5.216 -0.1850 -0.2662 -0.3739
  307MOL0     C41368   6.784   3.060   5.088  0.5141 -0.4727  1.0532
  307MOL0     O41369   6.677   3.001   5.024  0.9711 -0.0271  1.0247
  307MOL0     C41370   6.693   2.966   4.884  0.3898  0.1028  1.2726
  307MOL0     C41371   6.561   2.931   4.801 -0.6173  0.9746 -1.5228
  307MOL0     C41372   6.508   2.797   4.838 -0.2580  0.0746  0.0535
  307MOL0     C41373   6.378   2.756   4.765  0.3658  0.3402  0.7419
  307MOL0     C41374   6.384   2.722   4.619 -0.2317  0.2207 -0.1337
  307MOL0     C41375   6.403   2.701   4.503  0.1542 -0.3287  0.4051
  307MOL0     C41376   6.911   3.079   5.034 -1.2125 -0.9885 -0.4384
  307MOL0     C41377   7.012   3.149   5.099  0.2215 -0.2487  0.2136
  307MOL0     H41378   7.272   3.540   5.198  0.1195  2.0977  1.2682
  307MOL0     H41379   7.442   3.682   5.318  0.3248  0.1330 -0.2963
  307MOL0     H41380   7.633   3.748   5.380 -0.6562  1.8152 -0.3856
  307MOL0     H41381   7.591   3.714   5.544  1.0687  0.3163  1.0617
  307MOL0     H41382   7.819   3.673   5.617  1.1835  1.3470  0.7467
  307MOL0     H41383   7.872   3.692   5.446  1.2102 -1.7310  2.2522
  307MOL0     H41384   7.759   3.928   5.477 -0.8818  1.0585 -0.5484
  307MOL0     H41385   7.762   3.879   5.646 -1.7127 -1.0146 -0.9092
  307MOL0     H41386   8.017   3.849   5.626 -0.3642  1.2050  1.7419
  307MOL0     H41387   8.014   3.892   5.452 -0.4980  2.0969 -0.8348
  307MOL0     H41388   7.930   4.106   5.489 -0.8356 -0.9777 -0.6129
  307MOL0     H41389   7.946   4.095   5.665  2.3142  0.8189 -0.3257
  307MOL0     H41390   8.194   4.038   5.621  1.1764 -0.9389 -1.0972
  307MOL0     H41391   8.154   4.069   5.447 -0.9594 -0.0655 -0.6354
  307MOL0     H41392   8.186   4.294   5.491 -1.4650  1.4393  0.1825
  307MOL0     H41393   8.061   4.303   5.620 -1.0982 -0.4959 -0.0752
  307MOL0     H41394   8.341   4.195   5.660 -0.0652 -0.1996 -1.7151
  307MOL0     H41395   8.213   4.218   5.778  0.5149 -0.0348  0.5432
  307MOL0     H41396   8.439   4.463   5.556  1.6068 -2.7056  1.2260
  307MOL0     H41397   8.397   4.812   5.769  2.5752 -0.3073  1.8943
  307MOL0     H41398   8.542   4.719   5.723 -0.6727 -3.8684 -1.7297
  307MOL0     H41399   8.344   4.792   5.515 -1.3971 -1.3265  3.1443
  307MOL0     H41400   8.496   4.708   5.497  0.6916  1.0273 -1.2626
  307MOL0     H41401   8.620   4.917   5.570  1.1349  1.4842 -4.4055
  307MOL0     H41402   8.466   4.987   5.622  1.0254 -0.4643  0.6295
  307MOL0     H41403   8.506   4.932   5.328  3.7014 -1.1530  1.5766
  307MOL0     H41404   8.580   5.077   5.391 -1.9728  0.2816 -3.2931
  307MOL0     H41405   8.534   5.171   5.204 -0.5781 -2.0387 -0.6456
  307MOL0     H41406   8.476   5.279   4.895 -1.3641  0.0709  0.2142
  307MOL0     H41407   8.476   5.427   4.984 -1.2662 -0.0154 -2.2042
  307MOL0     H41408   8.586   5.302   5.036 -1.7165 -1.9989  3.0631
  307MOL0     H41409   8.151   5.366   4.658 -0.0974  0.2125 -1.0880
  307MOL0     H41410   8.022   5.372   4.464 -0.2625 -1.2522 -0.7807
  307MOL0     H41411   7.648   5.148   4.407 -3.8354 -0.5602 -0.1695
  307MOL0     H41412   7.580   5.280   4.498  1.3222 -1.2488  0.1765
  307MOL0     H41413   7.491   5.245   4.275  0.4163 -1.1045  1.1284
  307MOL0     H41414   7.564   5.413   4.277  3.2972  0.9283  0.2028
  307MOL0     H41415   7.694   5.179   4.138 -0.5150 -0.4997 -1.7685
  307MOL0     H41416   7.760   5.336   4.148  1.2081 -1.5898 -1.1547
  307MOL0     H41417   7.477   5.257   4.041  0.8499 -1.6261  2.9429
  307MOL0     H41418   7.535   5.424   4.055  0.8785 -0.1250 -1.6290
  307MOL0     H41419   7.566   5.318   3.817 -1.0560  0.4598  1.0407
  307MOL0     H41420   7.678   5.208   3.906 -1.4197 -0.6446 -1.2059
  307MOL0     H41421   7.690   5.507   3.890 -1.4257  0.7467 -0.7795
  307MOL0     H41422   7.820   5.417   3.966 -1.1305 -2.4039  1.0442
  307MOL0     H41423   7.728   5.361   3.689  1.6433 -0.5340 -1.9670
  307MOL0     H41424   7.884   5.318   3.736 -0.4971  0.1776 -2.5617
  307MOL0     H41425   7.776   5.597   3.683  0.6729 -0.0025 -5.4732
  307MOL0     H41426   7.914   5.511   3.606  0.1999 -1.0410  0.2980
  307MOL0     H41427   7.674   5.236   4.681  0.1290  0.3835  1.0648
  307MOL0     H41428   7.814   5.212   4.883  0.4077 -1.1720  0.4179
  307MOL0     H41429   8.045   5.235   5.152  0.3564 -2.3176  0.3811
  307MOL0     H41430   8.134   5.114   5.347 -1.2011  1.3918 -0.4584
  307MOL0     H41431   7.597   3.287   5.446  0.9231  1.1361  1.3027
  307MOL0     H41432   7.393   3.182   5.391  2.6970  0.1531 -0.8504
  307MOL0     H41433   6.822   3.225   5.371  1.7709 -1.4249  1.7150
  307MOL0     H41434   6.654   3.093   5.255 -0.2267 -1.1808 -0.7712
  307MOL0     H41435   6.746   3.047   4.835 -0.7584  0.7812  1.1160
  307MOL0     H41436   6.771   2.890   4.887  1.7098  1.3774  0.2311
  307MOL0     H41437   6.585   2.922   4.694  1.5590  1.7996 -1.1626
  307MOL0     H41438   6.488   3.008   4.826 -1.5616 -1.1812  3.8115
  307MOL0     H41439   6.488   2.816   4.944 -1.8416  1.4583 -0.4332
  307MOL0     H41440   6.592   2.728   4.837 -0.9533 -0.8895  2.0775
  307MOL0     H41441   6.301   2.833   4.780 -0.9912 -0.3941 -1.7596
  307MOL0     H41442   6.335   2.670   4.818  0.6942  0.0069  0.4704
  307MOL0     H41443   6.417   2.691   4.397 -0.1101 -1.5176  0.4604
  307MOL0     H41444   6.942   3.044   4.937  1.4208 -1.8390  0.5997
  307MOL0     H41445   7.115   3.144   5.064 -0.8233 -0.7786 -3.1385
  308MOL0     O41446   4.924   2.164   8.404 -0.7656 -0.5046 -0.3206
  308MOL0     C41447   4.987   2.234   8.482 -0.1816 -0.4157 -0.0613
  308MOL0     O41448   4.930   2.333   8.557  0.1675  0.8492 -0.4456
  308MOL0     C41449   4.796   2.357   8.545  0.7654  0.1548 -0.2411
  308MOL0     C41450   4.697   2.259   8.570 -0.5206  0.0021 -0.3849
  308MOL0     C41451   4.564   2.288   8.559  0.9362 -0.6311  0.0212
  308MOL0     C41452   4.519   2.414   8.531  1.4089 -1.0607 -0.1861
  308MOL0     O41453   4.390   2.457   8.530  0.2771 -0.3193  0.1320
  308MOL0     C41454   4.293   2.414   8.627 -0.6685 -0.2230 -0.9465
  308MOL0     C41455   4.174   2.340   8.563 -0.1062 -0.2140  0.6645
  308MOL0     C41456   4.220   2.239   8.451 -0.2348  0.4766 -0.0883
  308MOL0     C41457   4.087   2.200   8.375 -0.0548  0.5027 -0.0324
  308MOL0     C41458   4.098   2.085   8.277 -0.7808 -0.1062 -0.0867
  308MOL0     C41459   4.197   2.135   8.168  0.6326  0.2409  0.1391
  308MOL0     C41460   4.221   2.033   8.065 -0.9287  0.3896  0.0403
  308MOL0     C41461   4.092   2.017   7.971  0.2490 -0.2980 -0.0263
  308MOL0     N41462   4.132   1.931   7.862 -0.2057  0.7055  0.0699
  308MOL0     C41463   4.209   1.957   7.750  0.2972  0.5954  0.0591
  308MOL0     C41464   4.251   1.833   7.703  0.0678  0.1584 -0.4406
  308MOL0     C41465   4.353   1.832   7.590  0.4366 -0.3093  0.3562
  308MOL0     C41466   4.493   1.885   7.626 -0.1313  0.0619  0.5740
  308MOL0     C41467   4.585   1.786   7.695  0.3428  0.0065 -0.1282
  308MOL0     C41468   4.722   1.840   7.713 -0.0056  0.3997 -0.0393
  308MOL0     O41469   4.817   1.753   7.771  0.8190  0.4566 -0.2458
  308MOL0     C41470   4.930   1.804   7.831 -0.7573  0.1531 -0.3228
  308MOL0     C41471   4.937   1.925   7.904  0.3454  0.5148 -1.0339
  308MOL0     C41472   5.059   1.973   7.960 -0.3869  0.0264  0.2536
  308MOL0     C41473   5.044   2.105   8.033 -0.3316  0.2549 -0.3485
  308MOL0     C41474   5.181   1.891   7.948 -0.0424 -0.4489 -1.1307
  308MOL0     C41475   5.319   1.932   7.990 -0.1712  0.0077  0.4844
  308MOL0     O41476   5.420   1.857   7.941  0.3767 -0.1816 -0.3244
  308MOL0     C41477   5.552   1.882   7.976 -0.1260  0.0681 -0.2464
  308MOL0     C41478   5.601   2.008   7.961  0.2591  0.2076  0.3911
  308MOL0     C41479   5.730   2.043   7.995  0.3420  0.1372  0.3222
  308MOL0     C41480   5.817   1.938   8.023 -0.0505 -0.8523  0.4714
  308MOL0     O41481   5.947   1.965   8.041  0.0826 -0.1905 -0.2557
  308MOL0     C41482   5.968   2.017   8.176  0.1628 -0.3758 -0.1189
  308MOL0     C41483   6.122   2.026   8.195 -0.1559  0.0908 -0.3448
  308MOL0     C41484   6.200   1.892   8.178  0.0085  0.9519  0.5330
  308MOL0     C41485   6.344   1.899   8.219  0.1521  0.0200  0.3713
  308MOL0     C41486   6.415   1.764   8.206 -0.4372 -0.0524 -0.2672
  308MOL0     C41487   6.528   1.770   8.308 -0.7769  0.1052  1.0273
  308MOL0     C41488   6.586   1.630   8.336 -0.5035 -0.2537  0.1654
  308MOL0     C41489   6.703   1.627   8.428  0.2158  0.4557  0.0122
  308MOL0    Cl41490   6.661   1.720   8.574 -0.7402 -0.4156  0.2044
  308MOL0     C41491   5.773   1.809   8.036  0.0352  0.5256  0.3850
  308MOL0     C41492   5.635   1.778   8.011 -0.1724  1.0327  0.1289
  308MOL0     O41493   5.324   2.004   8.085  0.7004 -0.8121  0.1201
  308MOL0     C41494   5.162   1.765   7.891 -0.1187 -0.4181 -0.3526
  308MOL0     C41495   5.047   1.727   7.835  0.3220 -0.9578 -0.1986
  308MOL0     N41496   4.192   1.737   7.773 -0.0744 -0.1913 -0.3754
  308MOL0     N41497   4.121   1.795   7.866 -0.1414  0.6000 -0.0297
  308MOL0     C41498   4.615   2.513   8.513 -0.4308  0.2992  0.4573
  308MOL0     C41499   4.755   2.484   8.509  0.0105 -0.3207 -0.1126
  308MOL0     C41500   5.132   2.200   8.506  0.2554 -0.5000 -0.6182
  308MOL0     C41501   5.207   2.268   8.614 -0.6811  0.7004  0.7836
  308MOL0     C41502   5.342   2.236   8.645 -0.7682 -0.0717 -0.3421
  308MOL0     C41503   5.405   2.127   8.578  0.5311 -0.1026  0.1042
  308MOL0     O41504   5.520   2.084   8.630 -0.2019  0.7065  0.4413
  308MOL0     C41505   5.611   2.011   8.543 -0.4411 -0.0759 -0.2272
  308MOL0     C41506   5.757   2.026   8.584  0.1190  0.3207 -0.2021
  308MOL0     C41507   5.783   1.940   8.714  0.3422 -0.7035  0.0852
  308MOL0     C41508   5.753   2.009   8.843  0.4404  0.2613  0.0334
  308MOL0     C41509   5.863   2.070   8.907  0.2280 -0.1304  0.5470
  308MOL0     C41510   5.965   2.118   8.952 -0.9814 -0.6784  0.2298
  308MOL0     C41511   5.334   2.067   8.479 -0.1612  0.9329  0.5462
  308MOL0     C41512   5.202   2.093   8.440 -0.6244  0.3790  0.1841
  308MOL0     H41513   4.728   2.159   8.597  0.3006  0.5025  0.6091
  308MOL0     H41514   4.482   2.219   8.573 -2.4297  2.7320 -1.2504
  308MOL0     H41515   4.344   2.350   8.699  0.9800  0.4741 -1.4280
  308MOL0     H41516   4.257   2.502   8.681  1.6139  0.8398 -1.0324
  308MOL0     H41517   4.119   2.284   8.639  2.2130 -0.5014  2.2252
  308MOL0     H41518   4.108   2.412   8.513  1.1968  0.3742 -0.2827
  308MOL0     H41519   4.295   2.281   8.384 -0.4747 -0.7165 -1.1377
  308MOL0     H41520   4.271   2.157   8.503 -0.6431 -0.1968 -0.7466
  308MOL0     H41521   4.000   2.182   8.438 -2.6368  2.3998 -2.7883
  308MOL0     H41522   4.063   2.287   8.314  1.9882  1.1085 -0.0403
  308MOL0     H41523   4.125   1.993   8.328  0.9840  0.2808 -0.2673
  308MOL0     H41524   4.002   2.065   8.229 -0.6673  1.0463 -0.8476
  308MOL0     H41525   4.159   2.233   8.138 -0.2793  0.4761  1.9399
  308MOL0     H41526   4.293   2.138   8.220  0.1840 -1.2990  1.1027
  308MOL0     H41527   4.306   2.065   8.004 -1.0461 -1.4185 -1.1361
  308MOL0     H41528   4.242   1.932   8.102 -2.4868  0.2573  0.6724
  308MOL0     H41529   4.043   2.113   7.949  1.6527  0.5248  0.3142
  308MOL0     H41530   4.018   1.957   8.025 -1.2385  2.9876  1.9098
  308MOL0     H41531   4.234   2.053   7.707 -2.5905  0.9654 -1.0379
  308MOL0     H41532   4.365   1.728   7.558  0.4404 -0.4128  0.6873
  308MOL0     H41533   4.305   1.893   7.513 -0.3903  0.2901  1.3300
  308MOL0     H41534   4.484   1.978   7.682  2.6993  0.5490  0.4074
  308MOL0     H41535   4.540   1.912   7.531 -0.8787 -2.6574 -0.6646
  308MOL0     H41536   4.580   1.701   7.628  0.8829 -0.4153  0.3559
  308MOL0     H41537   4.547   1.752   7.792  2.6924  1.1646  1.2802
  308MOL0     H41538   4.710   1.927   7.777 -0.0575  1.8046 -1.8748
  308MOL0     H41539   4.756   1.885   7.619  0.2938  2.2712  0.9283
  308MOL0     H41540   4.851   1.989   7.921  1.8527  1.6365  4.2435
  308MOL0     H41541   5.028   2.085   8.140  0.8494  1.6389  0.1294
  308MOL0     H41542   5.127   2.175   8.017 -1.1190  1.0690 -0.9374
  308MOL0     H41543   4.962   2.166   7.994 -0.3685  0.2352 -0.3026
  308MOL0     H41544   5.530   2.085   7.934  0.8235 -0.0737 -2.0904
  308MOL0     H41545   5.768   2.144   7.989  2.1967 -0.5298  0.1859
  308MOL0     H41546   5.922   2.116   8.180 -1.5981 -1.0266 -2.4101
  308MOL0     H41547   5.918   1.962   8.257 -0.1193 -0.3802 -0.2927
  308MOL0     H41548   6.158   2.091   8.115 -0.8701  2.1455  0.9113
  308MOL0     H41549   6.136   2.070   8.295 -0.3747  1.1338 -0.7652
  308MOL0     H41550   6.191   1.856   8.075 -1.1455 -0.4018  1.0742
  308MOL0     H41551   6.163   1.809   8.240  3.1863 -2.8103 -2.1350
  308MOL0     H41552   6.385   1.978   8.155 -2.8068  0.8076 -0.6891
  308MOL0     H41553   6.353   1.947   8.317 -0.4845  1.7495 -0.3805
  308MOL0     H41554   6.449   1.768   8.102  1.4477  3.5378  0.3535
  308MOL0     H41555   6.351   1.678   8.228 -3.1359  1.7483 -0.6046
  308MOL0     H41556   6.604   1.845   8.286 -0.8934  0.1056  0.6232
  308MOL0     H41557   6.492   1.791   8.410  1.1899  1.4613  1.5008
  308MOL0     H41558   6.598   1.566   8.248  0.7449  0.2989 -0.0837
  308MOL0     H41559   6.502   1.590   8.394 -0.6600  1.3167  1.0875
  308MOL0     H41560   6.782   1.682   8.377 -1.0576  0.1169 -2.4913
  308MOL0     H41561   6.729   1.525   8.459  1.3337  1.0572  1.1619
  308MOL0     H41562   5.845   1.728   8.041 -1.4633 -1.3181 -3.4952
  308MOL0     H41563   5.585   1.681   8.014  0.4465  0.7325  0.8766
  308MOL0     H41564   5.250   1.706   7.868  1.3369  1.8002 -0.7990
  308MOL0     H41565   5.057   1.628   7.792  0.3581 -1.1109  0.1562
  308MOL0     H41566   4.587   2.612   8.479 -1.2594  0.2194  0.8887
  308MOL0     H41567   4.835   2.555   8.487  1.5077 -1.1580  2.3163
  308MOL0     H41568   5.149   2.345   8.665 -0.5495  2.5060 -1.6441
  308MOL0     H41569   5.386   2.287   8.730 -0.9311 -0.2696 -0.1389
  308MOL0     H41570   5.573   1.909   8.542 -0.1886 -0.2237  1.6242
  308MOL0     H41571   5.593   2.056   8.445  0.0026 -1.3567 -0.9180
  308MOL0     H41572   5.787   2.131   8.589  1.3405  0.0829 -1.6329
  308MOL0     H41573   5.823   1.984   8.507  1.0103 -1.5031  1.4601
  308MOL0     H41574   5.887   1.905   8.712  0.5303 -0.6669 -4.8783
  308MOL0     H41575   5.714   1.855   8.720 -3.0591  1.8144 -0.3930
  308MOL0     H41576   5.716   1.931   8.910  1.2879 -0.4241 -0.2694
  308MOL0     H41577   5.676   2.085   8.829  0.4721  0.4236  0.7477
  308MOL0     H41578   6.054   2.167   8.986  1.0991 -2.4865 -2.2589
  308MOL0     H41579   5.385   1.981   8.436  0.2027  1.0130  0.8112
  308MOL0     H41580   5.153   2.041   8.358  1.9964 -2.1690  0.0622
  309MOL0     O41581   8.102   2.073   1.766 -0.1202 -0.1471  0.2807
  309MOL0     C41582   8.069   1.999   1.674  0.3121  0.1685  0.0746
  309MOL0     O41583   7.976   2.020   1.579  0.6994  0.0925  0.6293
  309MOL0     C41584   7.893   2.124   1.609  0.3514  0.3085 -0.4075
  309MOL0     C41585   7.782   2.122   1.698 -0.1935 -0.2991 -0.3248
  309MOL0     C41586   7.709   2.232   1.737  0.8533  0.2979  0.0204
  309MOL0     C41587   7.733   2.350   1.665 -0.3563  0.5090  0.3134
  309MOL0     O41588   7.671   2.467   1.673  0.1895  0.0914  0.2735
  309MOL0     C41589   7.613   2.509   1.796 -0.0063  0.2356  0.0097
  309MOL0     C41590   7.532   2.639   1.787  0.0668 -0.4934  0.8148
  309MOL0     C41591   7.402   2.621   1.701  0.0576  0.1375 -0.7999
  309MOL0     C41592   7.370   2.752   1.632 -0.2764  1.0154  0.5808
  309MOL0     C41593   7.254   2.720   1.526 -0.5583  0.0945  1.0996
  309MOL0     C41594   7.138   2.626   1.563  0.4885 -1.2115  0.2719
  309MOL0     C41595   7.059   2.670   1.686 -0.0208  0.6479  0.1418
  309MOL0     C41596   6.919   2.599   1.702 -0.1523 -0.2653  0.2356
  309MOL0     N41597   6.837   2.623   1.585 -0.0227 -0.3296  0.0919
  309MOL0     C41598   6.756   2.731   1.558 -0.4902 -1.0272 -0.2724
  309MOL0     C41599   6.687   2.686   1.448 -0.3498 -0.4863 -0.1182
  309MOL0     C41600   6.596   2.774   1.379  0.6663 -0.9362  0.1848
  309MOL0     C41601   6.505   2.700   1.278 -0.1251  0.2576 -0.2854
  309MOL0     C41602   6.416   2.785   1.207  0.2167 -0.4551 -0.0025
  309MOL0     C41603   6.303   2.706   1.137 -0.5127  1.0217 -0.3343
  309MOL0     O41604   6.225   2.630   1.236 -0.3426  0.1979  0.6931
  309MOL0     C41605   6.088   2.660   1.251 -0.1967  0.0128 -0.1801
  309MOL0     C41606   6.059   2.762   1.344  0.0864  0.1246  0.0309
  309MOL0     C41607   5.920   2.812   1.355 -0.6715  0.2436  0.6205
  309MOL0     C41608   5.892   2.899   1.473 -0.4932  0.3336  0.4166
  309MOL0     C41609   5.824   2.768   1.255  0.1482  0.6411  0.1379
  309MOL0     C41610   5.683   2.827   1.239  0.5340  0.0589  0.1339
  309MOL0     O41611   5.631   2.893   1.351 -0.1445  0.4053  0.3180
  309MOL0     C41612   5.496   2.929   1.351  1.0162 -0.6500  0.2382
  309MOL0     C41613   5.459   3.059   1.390  0.5596  0.2179  0.7692
  309MOL0     C41614   5.325   3.092   1.390 -0.5707 -0.4519  0.4040
  309MOL0     C41615   5.223   3.001   1.361 -0.2127  1.2324  0.6288
  309MOL0     O41616   5.092   3.039   1.367 -0.5065 -0.2349 -0.2370
  309MOL0     C41617   5.051   3.130   1.470 -0.8928  0.8546  0.0275
  309MOL0     C41618   4.912   3.103   1.511  0.4155  0.2544 -0.7825
  309MOL0     C41619   4.812   3.159   1.399 -0.8608 -0.3202  0.4898
  309MOL0     C41620   4.676   3.119   1.441  0.9268 -0.0318  0.3317
  309MOL0     C41621   4.572   3.197   1.354 -0.3130  0.1929  0.4482
  309MOL0     C41622   4.433   3.147   1.380  0.4314 -1.1317  0.0199
  309MOL0     C41623   4.327   3.239   1.308 -0.1716  0.8587 -0.0405
  309MOL0     C41624   4.189   3.209   1.350  0.2489 -0.0166 -0.0302
  309MOL0    Cl41625   4.153   3.039   1.291 -0.3458  0.0886 -0.0990
  309MOL0     C41626   5.260   2.877   1.318 -0.5503  0.2395 -0.8368
  309MOL0     C41627   5.393   2.843   1.319  0.0573 -0.4952  0.3655
  309MOL0     O41628   5.626   2.801   1.138  0.9800  0.6250 -0.0591
  309MOL0     C41629   5.868   2.675   1.155  0.3163 -0.2051 -0.0196
  309MOL0     C41630   5.993   2.616   1.161 -0.9004  0.6107 -0.7251
  309MOL0     N41631   6.730   2.555   1.407  0.1884 -0.3102  0.2027
  309MOL0     N41632   6.816   2.523   1.496  0.5163  0.5488 -0.2374
  309MOL0     C41633   7.835   2.348   1.573  0.4394  0.0263  0.1225
  309MOL0     C41634   7.916   2.241   1.540 -0.5371 -0.2766 -1.5004
  309MOL0     C41635   8.161   1.878   1.657  0.2760  0.1779 -0.3852
  309MOL0     C41636   8.267   1.852   1.740 -0.7399 -0.4322  0.8223
  309MOL0     C41637   8.348   1.744   1.721  0.1774 -0.1099 -0.5804
  309MOL0     C41638   8.335   1.664   1.604 -0.9932  0.3453  0.0355
  309MOL0     O41639   8.427   1.565   1.606 -0.3975 -0.2293  0.2956
  309MOL0     C41640   8.428   1.481   1.490 -0.5619  0.1050 -0.4800
  309MOL0     C41641   8.561   1.406   1.471 -0.5156  0.3177 -0.1537
  309MOL0     C41642   8.684   1.488   1.471 -0.7223 -0.1817 -0.3153
  309MOL0     C41643   8.793   1.393   1.525 -0.4636 -0.9484 -0.1088
  309MOL0     C41644   8.933   1.449   1.526  0.5483 -0.7500 -0.1875
  309MOL0     C41645   9.049   1.489   1.542 -0.2056 -0.7308 -0.0133
  309MOL0     C41646   8.228   1.694   1.518 -0.0321  1.3160  0.1785
  309MOL0     C41647   8.137   1.794   1.552  0.0498 -0.3994 -0.2924
  309MOL0     H41648   7.765   2.030   1.753 -1.5304 -0.0422 -0.2782
  309MOL0     H41649   7.615   2.229   1.792 -1.3496  0.3691 -3.4034
  309MOL0     H41650   7.541   2.437   1.836 -1.3489 -0.1223 -2.7574
  309MOL0     H41651   7.689   2.530   1.870  0.3434  0.7649 -0.4895
  309MOL0     H41652   7.509   2.668   1.890 -1.0415 -0.9478  0.7066
  309MOL0     H41653   7.596   2.718   1.747  0.0407  0.6444  2.9000
  309MOL0     H41654   7.413   2.545   1.624  0.2522  0.2406 -0.8735
  309MOL0     H41655   7.320   2.584   1.763  0.0190  0.9598 -0.3361
  309MOL0     H41656   7.352   2.836   1.700 -1.2736  3.2610 -2.2670
  309MOL0     H41657   7.454   2.790   1.574 -1.2676  1.7884 -0.3908
  309MOL0     H41658   7.220   2.818   1.489  0.9488  0.4522  0.5508
  309MOL0     H41659   7.311   2.680   1.441  2.4681  0.3262  2.8574
  309MOL0     H41660   7.078   2.632   1.472  1.7410 -2.1605 -0.6545
  309MOL0     H41661   7.168   2.521   1.565 -0.3915 -1.4786  2.2706
  309MOL0     H41662   7.110   2.645   1.779 -0.3149 -0.3594  0.0393
  309MOL0     H41663   7.045   2.779   1.691  0.6244  0.7586 -0.3293
  309MOL0     H41664   6.872   2.645   1.790  1.6175 -0.6274  1.4176
  309MOL0     H41665   6.941   2.492   1.709  1.6047 -0.0348 -1.0717
  309MOL0     H41666   6.752   2.825   1.613 -2.5149 -0.8997 -0.5767
  309MOL0     H41667   6.530   2.835   1.441 -0.2550 -0.7635 -0.9173
  309MOL0     H41668   6.661   2.841   1.322 -0.1972 -2.5662 -3.0039
  309MOL0     H41669   6.446   2.634   1.343 -0.7226  1.6048  0.5768
  309MOL0     H41670   6.563   2.643   1.205  2.1848  0.3224  1.3942
  309MOL0     H41671   6.474   2.844   1.135 -0.5129 -0.0142 -0.2394
  309MOL0     H41672   6.371   2.857   1.277 -0.9245 -1.3557  0.2164
  309MOL0     H41673   6.343   2.633   1.066  0.6316  1.7089 -0.4144
  309MOL0     H41674   6.234   2.768   1.079 -1.9210 -0.2814 -0.1145
  309MOL0     H41675   6.134   2.798   1.414 -0.5083 -0.6734  1.1046
  309MOL0     H41676   5.962   2.868   1.551 -0.1491 -1.6938 -0.6305
  309MOL0     H41677   5.912   3.005   1.457  1.6050  0.2887  2.2686
  309MOL0     H41678   5.793   2.881   1.516 -0.6975  2.2234  0.8127
  309MOL0     H41679   5.539   3.129   1.412  1.5318 -0.9837  1.2079
  309MOL0     H41680   5.303   3.194   1.418  0.6383  0.0077 -0.2751
  309MOL0     H41681   5.121   3.127   1.554 -0.2219  0.3616 -0.5461
  309MOL0     H41682   5.052   3.235   1.440  1.5662  0.9528  0.3009
  309MOL0     H41683   4.888   2.997   1.519 -0.9247  0.3537 -2.7821
  309MOL0     H41684   4.899   3.143   1.612 -0.2855 -1.7578 -0.0347
  309MOL0     H41685   4.842   3.115   1.303 -1.4429  1.8998 -0.7661
  309MOL0     H41686   4.827   3.267   1.404  2.9373 -0.7181  0.3217
  309MOL0     H41687   4.658   3.011   1.430  0.4991  0.1356 -0.7610
  309MOL0     H41688   4.668   3.147   1.546 -0.0467 -0.6313  0.4354
  309MOL0     H41689   4.587   3.175   1.248 -4.3508 -1.4175  0.0199
  309MOL0     H41690   4.575   3.307   1.360  2.1421  0.2985 -1.3873
  309MOL0     H41691   4.432   3.041   1.355 -3.0755 -1.0003 -0.9148
  309MOL0     H41692   4.415   3.170   1.485 -1.0770 -0.1605 -0.4198
  309MOL0     H41693   4.346   3.215   1.203 -5.4191 -0.6672 -0.9284
  309MOL0     H41694   4.333   3.346   1.330 -1.8621  0.9696  0.0104
  309MOL0     H41695   4.118   3.278   1.305 -0.5260 -1.4905 -1.1357
  309MOL0     H41696   4.171   3.215   1.458  1.4352 -1.7965  0.3235
  309MOL0     H41697   5.181   2.803   1.310 -0.3564 -0.5852  2.9641
  309MOL0     H41698   5.406   2.736   1.308  1.9137 -0.2860  0.1322
  309MOL0     H41699   5.797   2.657   1.075 -0.1165  0.7576  0.1309
  309MOL0     H41700   6.023   2.551   1.080 -1.3933 -0.1124 -0.3450
  309MOL0     H41701   7.864   2.441   1.525 -2.6098  1.1621  0.2526
  309MOL0     H41702   7.991   2.265   1.465 -0.3299  1.4690 -0.8024
  309MOL0     H41703   8.282   1.915   1.827 -0.0779 -0.0004  0.4087
  309MOL0     H41704   8.433   1.709   1.780  1.6627 -2.6050 -3.8644
  309MOL0     H41705   8.350   1.406   1.501 -0.8493  0.6656  1.6818
  309MOL0     H41706   8.398   1.531   1.397 -0.9682 -2.9091 -2.0950
  309MOL0     H41707   8.556   1.345   1.380  0.1033  3.7186 -2.6788
  309MOL0     H41708   8.575   1.337   1.554 -0.2914 -0.1212 -0.5506
  309MOL0     H41709   8.687   1.577   1.535 -2.9324 -0.0798 -0.2842
  309MOL0     H41710   8.706   1.517   1.367 -0.0619  1.4925  0.2616
  309MOL0     H41711   8.808   1.302   1.465 -0.9159 -1.1918  0.1435
  309MOL0     H41712   8.771   1.361   1.627 -0.7373  1.8661  0.7792
  309MOL0     H41713   9.147   1.530   1.531 -0.3695 -0.8249 -2.4888
  309MOL0     H41714   8.198   1.621   1.444 -1.3005  2.0646 -0.0922
  309MOL0     H41715   8.058   1.817   1.482  2.8712  0.4395 -3.5103
  310MOL0     O41716   8.188   0.145   5.001  0.0571 -0.2731  0.5876
  310MOL0     C41717   8.297   0.116   4.952  1.1384  0.0295 -1.0565
  310MOL0     O41718   8.320   0.014   4.856  1.4076  0.2284  0.1208
  310MOL0     C41719   8.203  -0.054   4.807 -0.9244 -0.9207 -0.7369
  310MOL0     C41720   8.198  -0.183   4.856  0.1659 -0.1228 -0.7459
  310MOL0     C41721   8.090  -0.262   4.832  0.6449  1.3293 -0.2244
  310MOL0     C41722   7.976  -0.209   4.756 -0.2717 -0.5283 -0.5047
  310MOL0     O41723   7.859  -0.274   4.742  0.8510 -0.2252  0.4247
  310MOL0     C41724   7.852  -0.365   4.633 -0.3863  0.4701  0.0681
  310MOL0     C41725   7.732  -0.315   4.558  0.6362 -0.2714 -0.7230
  310MOL0     C41726   7.597  -0.340   4.630 -1.0252 -0.0522  0.8701
  310MOL0     C41727   7.481  -0.270   4.559  0.1597  0.8572  0.7958
  310MOL0     C41728   7.338  -0.297   4.608 -0.0600  0.6148  0.2020
  310MOL0     C41729   7.265  -0.409   4.534 -0.6430  0.4839  0.3819
  310MOL0     C41730   7.125  -0.434   4.586  0.0606  0.1602 -0.2883
  310MOL0     C41731   7.042  -0.525   4.504 -0.6630 -0.8826  0.3676
  310MOL0     N41732   6.899  -0.496   4.522 -0.2465 -0.2944  0.1870
  310MOL0     C41733   6.843  -0.370   4.509 -0.0642  0.2250  0.6261
  310MOL0     C41734   6.711  -0.394   4.512  0.8626  0.8420  0.0488
  310MOL0     C41735   6.603  -0.287   4.507 -0.2373  0.9855  0.4790
  310MOL0     C41736   6.462  -0.334   4.471 -0.3402 -0.4674 -0.8170
  310MOL0     C41737   6.418  -0.441   4.575 -0.6141  0.4230 -0.4217
  310MOL0     C41738   6.268  -0.419   4.610 -0.3246 -0.3793  0.6927
  310MOL0     O41739   6.191  -0.455   4.500  0.3328 -0.3359  0.8346
  310MOL0     C41740   6.073  -0.528   4.512 -0.0378  0.4726  0.6787
  310MOL0     C41741   6.028  -0.601   4.401  0.3770 -0.5870 -0.3574
  310MOL0     C41742   5.898  -0.650   4.398  0.5239 -0.3313 -0.0000
  310MOL0     C41743   5.849  -0.734   4.278  0.4649  0.4829  0.5580
  310MOL0     C41744   5.815  -0.628   4.518  0.2526 -0.3125  0.0794
  310MOL0     C41745   5.677  -0.679   4.534 -0.5648 -0.3168 -0.3522
  310MOL0     O41746   5.635  -0.713   4.656  0.9278  0.2568 -0.0201
  310MOL0     C41747   5.514  -0.784   4.653 -0.2204 -0.0958  0.5404
  310MOL0     C41748   5.501  -0.926   4.677  0.4194 -0.9318 -0.5811
  310MOL0     C41749   5.373  -0.987   4.682  0.1160 -0.1783 -0.8313
  310MOL0     C41750   5.254  -0.909   4.662 -0.6886 -0.4454 -0.2605
  310MOL0     O41751   5.135  -0.977   4.667 -0.2711  0.3339  0.0529
  310MOL0     C41752   5.015  -0.906   4.630 -0.1192  0.5656 -0.1350
  310MOL0     C41753   4.895  -0.994   4.655  0.1642 -0.9692 -0.3421
  310MOL0     C41754   4.849  -0.995   4.799 -0.4845 -0.5538 -0.9255
  310MOL0     C41755   4.733  -1.087   4.833 -0.1522 -0.3649 -0.0026
  310MOL0     C41756   4.690  -1.062   4.973 -0.5134  0.6776 -0.3505
  310MOL0     C41757   4.604  -1.181   5.020 -0.1484 -0.0083  0.7967
  310MOL0     C41758   4.560  -1.162   5.165  0.3135  0.5519 -1.1880
  310MOL0     C41759   4.454  -1.055   5.185  0.1476  0.2208  0.6424
  310MOL0    Cl41760   4.319  -1.123   5.109  0.4713 -0.3212  0.3561
  310MOL0     C41761   5.270  -0.773   4.640  0.1212 -0.4422 -0.0560
  310MOL0     C41762   5.395  -0.709   4.638 -1.1159 -0.0723  0.8055
  310MOL0     O41763   5.611  -0.681   4.434 -0.2876  0.0870  0.6563
  310MOL0     C41764   5.863  -0.559   4.632 -0.7268  0.8718 -0.7861
  310MOL0     C41765   5.990  -0.512   4.626 -0.2732  0.0788  0.1049
  310MOL0     N41766   6.698  -0.531   4.523  0.1207 -0.0656  0.3552
  310MOL0     N41767   6.808  -0.595   4.512 -0.3449 -0.3596  0.4058
  310MOL0     C41768   7.991  -0.080   4.706  0.6162 -0.4921  0.3939
  310MOL0     C41769   8.108  -0.002   4.724 -0.2717 -0.5178 -1.5320
  310MOL0     C41770   8.423   0.192   5.004  0.3233  0.3271 -0.2050
  310MOL0     C41771   8.403   0.315   5.063 -0.3853  0.5705  0.3194
  310MOL0     C41772   8.515   0.387   5.113  1.3383  0.0671 -0.5481
  310MOL0     C41773   8.646   0.350   5.091 -0.5910 -0.0914 -0.1060
  310MOL0     O41774   8.763   0.408   5.125  0.6682  0.0444 -0.2745
  310MOL0     C41775   8.779   0.533   5.201 -0.1495  0.2883 -0.3454
  310MOL0     C41776   8.785   0.499   5.346 -0.6319  0.3397  0.0891
  310MOL0     C41777   8.793   0.629   5.436 -0.2810 -0.2195  0.5991
  310MOL0     C41778   8.826   0.581   5.581  0.5348 -0.2047 -0.0997
  310MOL0     C41779   8.857   0.703   5.662  1.7775  0.6553 -0.4887
  310MOL0     C41780   8.889   0.807   5.718 -0.5549  0.5561 -0.0948
  310MOL0     C41781   8.662   0.230   5.025 -0.2135  0.0434 -1.4009
  310MOL0     C41782   8.559   0.143   4.993 -0.9420 -0.2199  0.0942
  310MOL0     H41783   8.283  -0.204   4.920  0.8669  0.4538 -1.4682
  310MOL0     H41784   8.102  -0.359   4.879 -1.3655  1.9463  1.7337
  310MOL0     H41785   7.939  -0.360   4.566 -0.7425 -0.8727 -0.5470
  310MOL0     H41786   7.827  -0.468   4.661  0.0610 -0.1607 -1.6995
  310MOL0     H41787   7.739  -0.212   4.522  0.5497 -0.3023 -0.8300
  310MOL0     H41788   7.739  -0.380   4.471  1.8304 -1.3226  0.1317
  310MOL0     H41789   7.576  -0.447   4.637 -0.8858 -0.0543  1.2634
  310MOL0     H41790   7.602  -0.291   4.728  0.4514  0.9623  0.3247
  310MOL0     H41791   7.515  -0.166   4.570  1.6624  0.4155  0.5903
  310MOL0     H41792   7.486  -0.296   4.453 -0.4253  4.6300 -0.3129
  310MOL0     H41793   7.346  -0.315   4.716 -0.8035 -0.3780  0.1160
  310MOL0     H41794   7.282  -0.203   4.599  0.6302  0.9238 -0.9723
  310MOL0     H41795   7.254  -0.385   4.428 -0.9741  0.9197  0.5149
  310MOL0     H41796   7.327  -0.499   4.529  0.8485  1.3613  1.7812
  310MOL0     H41797   7.122  -0.481   4.685 -1.1390  0.2303 -0.2848
  310MOL0     H41798   7.087  -0.335   4.612 -0.1335  0.2092 -0.7538
  310MOL0     H41799   7.058  -0.632   4.521 -4.1192 -1.6003 -0.1599
  310MOL0     H41800   7.066  -0.507   4.398  2.4481  2.2959  1.3969
  310MOL0     H41801   6.895  -0.275   4.509  0.1281  0.1681 -1.4139
  310MOL0     H41802   6.598  -0.249   4.610 -2.5749 -1.1530  1.2524
  310MOL0     H41803   6.629  -0.207   4.437 -0.4954 -0.3422 -1.2063
  310MOL0     H41804   6.464  -0.383   4.374 -3.1979 -0.5816 -0.8984
  310MOL0     H41805   6.398  -0.245   4.465  1.8817  1.1958 -1.0665
  310MOL0     H41806   6.472  -0.426   4.668 -0.8397  0.3831 -0.2821
  310MOL0     H41807   6.435  -0.544   4.541 -1.7802 -0.4607  1.4969
  310MOL0     H41808   6.256  -0.315   4.640 -0.6359 -0.4327  0.7683
  310MOL0     H41809   6.244  -0.486   4.694  0.1315 -2.0641 -0.4692
  310MOL0     H41810   6.103  -0.600   4.323  1.3495  4.0645  0.3623
  310MOL0     H41811   5.817  -0.831   4.317 -1.8811  0.6120 -0.8350
  310MOL0     H41812   5.761  -0.686   4.235  1.8121  3.1326  0.4976
  310MOL0     H41813   5.926  -0.747   4.200  0.1538  3.0320 -0.2942
  310MOL0     H41814   5.599  -0.973   4.687  1.3809  0.6167 -2.0523
  310MOL0     H41815   5.380  -1.095   4.678  0.9016 -0.2449  1.4169
  310MOL0     H41816   4.981  -0.824   4.694 -1.1338 -1.1065  1.5886
  310MOL0     H41817   5.022  -0.879   4.524  2.5797 -0.3881 -0.2660
  310MOL0     H41818   4.815  -0.953   4.593 -2.0380 -1.8815  1.7390
  310MOL0     H41819   4.922  -1.096   4.625  0.0985 -1.3948  0.9461
  310MOL0     H41820   4.821  -0.893   4.826  2.9528 -0.4453  3.2267
  310MOL0     H41821   4.930  -1.039   4.857 -0.3713 -2.1103 -2.1819
  310MOL0     H41822   4.650  -1.073   4.763  0.9265  0.0835 -1.2316
  310MOL0     H41823   4.771  -1.190   4.828 -1.4493 -0.8576 -0.2801
  310MOL0     H41824   4.650  -0.960   4.973  1.3913  1.4873 -2.0025
  310MOL0     H41825   4.779  -1.060   5.037 -0.9276 -1.6123  0.3966
  310MOL0     H41826   4.515  -1.198   4.960 -1.0011 -1.7721  2.4355
  310MOL0     H41827   4.673  -1.266   5.016  0.1121  0.2130  0.5470
  310MOL0     H41828   4.646  -1.133   5.227 -0.5402  2.6689 -0.9249
  310MOL0     H41829   4.514  -1.254   5.202 -2.3869  1.4318 -2.1991
  310MOL0     H41830   4.466  -0.954   5.144  1.9948  1.0579  3.0568
  310MOL0     H41831   4.424  -1.042   5.289 -0.8575  2.1147  0.1635
  310MOL0     H41832   5.190  -0.702   4.623  2.2848  1.6557 -2.4610
  310MOL0     H41833   5.402  -0.605   4.608  2.1748 -0.6687 -1.0691
  310MOL0     H41834   5.795  -0.533   4.712  1.1586 -0.2030  1.2590
  310MOL0     H41835   6.028  -0.449   4.706 -0.8933  2.0703 -1.1278
  310MOL0     H41836   7.914  -0.055   4.634 -1.0705  0.1333  2.3245
  310MOL0     H41837   8.119   0.092   4.671  1.6500  0.2056  0.0331
  310MOL0     H41838   8.306   0.364   5.069 -1.8484 -1.3403 -3.9154
  310MOL0     H41839   8.506   0.488   5.152  0.3717  0.6645 -2.2355
  310MOL0     H41840   8.868   0.589   5.171 -0.4876  0.5817 -0.8298
  310MOL0     H41841   8.689   0.594   5.187 -0.5643 -0.0125  0.8687
  310MOL0     H41842   8.879   0.443   5.357  1.4778  3.5219 -0.1968
  310MOL0     H41843   8.700   0.443   5.386 -1.3887  0.8992 -0.6910
  310MOL0     H41844   8.698   0.684   5.440 -1.8126 -2.5329 -1.4175
  310MOL0     H41845   8.878   0.685   5.397 -2.3496  0.8901 -2.7857
  310MOL0     H41846   8.918   0.522   5.579 -0.3447 -1.6577  0.2531
  310MOL0     H41847   8.740   0.535   5.630 -0.4987  1.7008 -0.0180
  310MOL0     H41848   8.917   0.896   5.771 -3.8684  1.1727  0.8124
  310MOL0     H41849   8.765   0.202   5.003  0.8226  0.9972  1.6688
  310MOL0     H41850   8.593   0.052   4.945  0.3471 -1.0440  2.3887
  311MOL0     O41851  10.954   2.136  10.526 -0.1287 -0.5155 -0.0857
  311MOL0     C41852  11.027   2.043  10.575  0.2332 -0.2382  0.7199
  311MOL0     O41853  10.979   1.927  10.620 -0.1108 -0.2141  0.2031
  311MOL0     C41854  10.844   1.909  10.611 -0.8634  0.2608  0.6476
  311MOL0     C41855  10.794   1.817  10.508 -0.9607  0.0865 -0.0567
  311MOL0     C41856  10.652   1.791  10.497 -0.8128 -0.7710  0.7784
  311MOL0     C41857  10.559   1.837  10.589 -0.1915 -0.0409  0.4446
  311MOL0     O41858  10.426   1.814  10.581  0.2657 -0.3705  0.9429
  311MOL0     C41859  10.388   1.682  10.613 -0.3791 -0.5869  0.3398
  311MOL0     C41860  10.237   1.666  10.586  0.2709  1.0667 -0.4468
  311MOL0     C41861  10.199   1.515  10.610  0.2304 -0.5135  0.0109
  311MOL0     C41862  10.175   1.477  10.755 -0.3913 -0.3280 -0.2419
  311MOL0     C41863  10.024   1.449  10.786  0.4667  0.5717 -0.5419
  311MOL0     C41864   9.948   1.583  10.780 -0.2806 -0.0180 -0.0582
  311MOL0     C41865   9.799   1.559  10.770 -0.1139 -0.0871  0.1561
  311MOL0     C41866   9.743   1.536  10.628  0.3349 -0.0597 -0.0505
  311MOL0     N41867   9.591   1.536  10.634 -0.1985  1.0108  0.1408
  311MOL0     C41868   9.504   1.475  10.717 -0.6695 -0.5240 -0.3012
  311MOL0     C41869   9.383   1.531  10.690  0.1753 -0.3277 -0.1896
  311MOL0     C41870   9.252   1.521  10.771 -0.4529  0.3291 -0.2421
  311MOL0     C41871   9.145   1.464  10.667 -0.8005 -0.1316 -0.0181
  311MOL0     C41872   9.016   1.419  10.744 -0.5124 -0.2734  0.8171
  311MOL0     C41873   8.888   1.457  10.672  0.5990  0.2202  0.0318
  311MOL0     O41874   8.881   1.370  10.558  0.7417 -0.5354  0.2073
  311MOL0     C41875   8.786   1.413  10.467 -0.3762  0.1167  0.2179
  311MOL0     C41876   8.819   1.405  10.334 -1.2933 -0.1836 -0.7611
  311MOL0     C41877   8.730   1.457  10.237  0.3357 -0.1467  0.0853
  311MOL0     C41878   8.777   1.435  10.091  0.9017 -0.3924  0.1357
  311MOL0     C41879   8.602   1.504  10.275  0.1330  0.9935  0.1308
  311MOL0     C41880   8.502   1.559  10.182 -0.1118  0.2872  0.3682
  311MOL0     O41881   8.373   1.527  10.203 -0.3620 -0.2968  0.4345
  311MOL0     C41882   8.282   1.612  10.146 -0.0556  0.3215  0.4511
  311MOL0     C41883   8.268   1.745  10.180 -0.3485  0.3867  0.9185
  311MOL0     C41884   8.184   1.826  10.103 -0.5462  0.5500  0.2509
  311MOL0     C41885   8.091   1.772  10.022 -0.0739 -0.1468  0.0541
  311MOL0     O41886   7.991   1.842   9.959  0.0302 -0.1707  0.5653
  311MOL0     C41887   7.865   1.771   9.955 -0.6210 -0.2814 -0.1549
  311MOL0     C41888   7.758   1.871   9.907 -0.0573 -0.5396 -0.0143
  311MOL0     C41889   7.627   1.789   9.867 -0.3628  0.7394  0.5805
  311MOL0     C41890   7.559   1.725   9.987 -0.2174 -0.9863  0.6782
  311MOL0     C41891   7.450   1.622   9.944 -0.1662 -1.0643  0.5589
  311MOL0     C41892   7.417   1.526  10.053  0.2858  0.3465 -0.8696
  311MOL0     C41893   7.266   1.489  10.045 -0.0038 -0.6389  0.6750
  311MOL0     C41894   7.214   1.418  10.170 -0.6163 -0.0685 -0.2330
  311MOL0    Cl41895   7.240   1.515  10.321 -0.2771 -0.1081 -0.0205
  311MOL0     C41896   8.103   1.632   9.987 -0.3344  0.1536  0.3217
  311MOL0     C41897   8.199   1.553  10.049 -0.7262 -0.1914  0.1101
  311MOL0     O41898   8.546   1.623  10.086  0.8576  0.1547 -0.4878
  311MOL0     C41899   8.565   1.498  10.414  0.1958 -0.2100  1.1524
  311MOL0     C41900   8.662   1.462  10.502  0.2696 -0.2504 -0.2406
  311MOL0     N41901   9.403   1.627  10.588 -0.0415  0.0182 -0.1861
  311MOL0     N41902   9.521   1.615  10.552  0.3610  0.2303 -0.0350
  311MOL0     C41903  10.607   1.933  10.685 -0.7510  0.3382  0.3771
  311MOL0     C41904  10.745   1.969  10.695  0.0921  0.0090  0.0762
  311MOL0     C41905  11.175   2.054  10.565 -0.2049 -0.4821  0.7342
  311MOL0     C41906  11.255   1.936  10.552  0.7520  0.7426  0.3195
  311MOL0     C41907  11.389   1.952  10.520  0.3006  0.0113 -0.2489
  311MOL0     C41908  11.453   2.079  10.515  0.3814  0.3015  0.4582
  311MOL0     O41909  11.584   2.095  10.485  0.1528 -0.8396  0.3776
  311MOL0     C41910  11.660   2.094  10.604 -0.2476 -0.2125 -0.2957
  311MOL0     C41911  11.807   2.088  10.569  0.5719  0.3214  0.3657
  311MOL0     C41912  11.862   2.210  10.497  0.3497  0.2782  1.0331
  311MOL0     C41913  11.824   2.350  10.554 -0.2449  0.0465 -0.6019
  311MOL0     C41914  11.901   2.385  10.680  0.2166 -0.0174  0.2671
  311MOL0     C41915  11.956   2.416  10.783  0.2465 -0.8361  0.1178
  311MOL0     C41916  11.370   2.188  10.540 -0.6688  0.6444 -0.2519
  311MOL0     C41917  11.231   2.183  10.561 -0.3902 -0.0035 -1.0209
  311MOL0     H41918  10.855   1.762  10.437  0.0144  1.1693 -0.0857
  311MOL0     H41919  10.614   1.721  10.423 -0.9059 -0.8614  0.9108
  311MOL0     H41920  10.443   1.619  10.542 -1.2698 -0.0555 -0.8783
  311MOL0     H41921  10.410   1.659  10.717 -0.0303 -0.6844  0.2440
  311MOL0     H41922  10.175   1.728  10.652 -0.7364  1.3062 -1.5903
  311MOL0     H41923  10.209   1.699  10.486 -3.2267  2.1428  0.7398
  311MOL0     H41924  10.123   1.495  10.533  1.2514 -2.2500 -0.6103
  311MOL0     H41925  10.282   1.454  10.574 -0.4557 -0.0630 -2.5342
  311MOL0     H41926  10.247   1.399  10.781  1.5060  0.8160 -1.7658
  311MOL0     H41927  10.201   1.558  10.824  1.1701 -0.1019 -1.0362
  311MOL0     H41928   9.986   1.370  10.720  0.1310 -2.1168  2.6324
  311MOL0     H41929  10.012   1.419  10.890 -0.0386 -0.2097 -0.8164
  311MOL0     H41930   9.963   1.647  10.867 -1.4686  0.5527 -0.2533
  311MOL0     H41931   9.979   1.629  10.686  1.3611 -2.9448 -1.0877
  311MOL0     H41932   9.767   1.474  10.832  0.6327 -1.1397 -0.8619
  311MOL0     H41933   9.750   1.648  10.810 -1.3192 -2.0135  3.3818
  311MOL0     H41934   9.789   1.443  10.594  1.9310  1.2727 -1.7509
  311MOL0     H41935   9.767   1.615  10.556 -0.3118 -0.2806 -0.5222
  311MOL0     H41936   9.542   1.406  10.791  0.0480 -0.8547 -0.9722
  311MOL0     H41937   9.266   1.454  10.855  1.8113 -1.0550 -1.6193
  311MOL0     H41938   9.215   1.620  10.801 -0.7292  1.0580 -2.7242
  311MOL0     H41939   9.187   1.377  10.615  0.0698  0.4458 -0.3052
  311MOL0     H41940   9.129   1.549  10.600  2.6576  1.8020  1.3458
  311MOL0     H41941   9.022   1.468  10.842 -1.1258  2.3295 -0.3661
  311MOL0     H41942   9.007   1.311  10.756 -2.0399 -0.0472  1.9898
  311MOL0     H41943   8.885   1.563  10.645 -0.7808  0.1193 -0.2993
  311MOL0     H41944   8.809   1.427  10.743  1.1684 -2.8961 -0.5403
  311MOL0     H41945   8.918   1.375  10.303 -1.8535 -0.4915 -2.3623
  311MOL0     H41946   8.691   1.385  10.044 -0.5112  0.8458  1.3071
  311MOL0     H41947   8.777   1.536  10.047 -0.5802 -0.3861  0.0918
  311MOL0     H41948   8.871   1.381  10.076 -0.0114 -1.9181 -0.3047
  311MOL0     H41949   8.325   1.788  10.263  1.1063 -0.1214  0.2193
  311MOL0     H41950   8.180   1.930  10.133  1.7985 -0.0285  3.0161
  311MOL0     H41951   7.873   1.693   9.879 -0.9723 -0.4324 -0.0368
  311MOL0     H41952   7.850   1.723  10.052  0.2437 -2.1708 -0.9059
  311MOL0     H41953   7.728   1.943   9.984  2.2435  0.6979 -0.1850
  311MOL0     H41954   7.786   1.932   9.820  1.5444 -1.7458 -0.3942
  311MOL0     H41955   7.645   1.713   9.790 -0.3962  1.4330 -0.1236
  311MOL0     H41956   7.551   1.852   9.821 -0.7017 -2.0342 -3.1194
  311MOL0     H41957   7.635   1.675  10.048  1.7138  2.1184  1.0395
  311MOL0     H41958   7.531   1.802  10.059  2.4916  0.6726  0.1248
  311MOL0     H41959   7.474   1.566   9.853 -0.8648 -1.1507  0.4248
  311MOL0     H41960   7.364   1.681   9.914 -0.4194 -1.0125  1.3529
  311MOL0     H41961   7.482   1.438  10.051 -1.0049 -0.6770 -0.0122
  311MOL0     H41962   7.435   1.581  10.145 -1.6665 -1.4291  0.6891
  311MOL0     H41963   7.255   1.424   9.958 -1.2016  0.2275  0.1325
  311MOL0     H41964   7.198   1.572  10.023 -0.6627 -1.1818  0.6314
  311MOL0     H41965   7.274   1.327  10.173 -1.6033 -0.7033  1.1996
  311MOL0     H41966   7.109   1.388  10.163 -0.7875  0.5975 -0.6290
  311MOL0     H41967   8.059   1.579   9.904  2.2051  1.0678 -1.7406
  311MOL0     H41968   8.210   1.452  10.010  0.7147 -1.3048  3.0696
  311MOL0     H41969   8.461   1.523  10.437 -0.8309 -1.9967 -1.1486
  311MOL0     H41970   8.629   1.452  10.605 -0.5319  3.1386 -0.0539
  311MOL0     H41971  10.531   1.980  10.747 -0.1856  1.5458  0.1702
  311MOL0     H41972  10.772   2.042  10.770  0.9928  1.0498 -1.2148
  311MOL0     H41973  11.214   1.835  10.558  0.6855  0.8591  3.3872
  311MOL0     H41974  11.444   1.862  10.494 -0.5144 -1.2689  2.0942
  311MOL0     H41975  11.645   2.178  10.672 -0.7087 -0.0794 -0.5592
  311MOL0     H41976  11.637   2.003  10.660  0.3703 -1.6052 -2.2287
  311MOL0     H41977  11.825   2.002  10.504 -3.4122  0.9197 -1.8368
  311MOL0     H41978  11.870   2.076  10.657  0.7175  1.2875  0.4131
  311MOL0     H41979  11.816   2.222  10.398 -2.3293 -0.3814  2.1260
  311MOL0     H41980  11.971   2.202  10.486  0.2197 -0.3961  0.1004
  311MOL0     H41981  11.716   2.352  10.567 -0.0785 -0.8859  1.0947
  311MOL0     H41982  11.844   2.427  10.478 -4.8465 -0.2857 -2.4191
  311MOL0     H41983  12.012   2.445  10.870  1.6218  0.5955 -1.1770
  311MOL0     H41984  11.436   2.274  10.542 -1.2114  1.1626 -2.3726
  311MOL0     H41985  11.173   2.274  10.567  0.1291  0.2271  2.1069
  312MOL0     O41986   8.020  10.755   9.850  0.2119 -0.3857 -0.1106
  312MOL0     C41987   8.078  10.860   9.848 -0.0031 -0.2780 -0.2954
  312MOL0     O41988   8.015  10.980   9.849  0.4511 -0.0018 -0.0781
  312MOL0     C41989   7.878  10.991   9.871  0.1113  0.0053 -0.2966
  312MOL0     C41990   7.830  11.042   9.995  0.2785  0.5723  0.1999
  312MOL0     C41991   7.696  11.067  10.010 -0.0680 -0.8402  0.2427
  312MOL0     C41992   7.602  11.044   9.913 -0.0728  0.5157  0.2197
  312MOL0     O41993   7.473  11.079   9.932 -0.3300  0.7139 -0.2601
  312MOL0     C41994   7.373  10.974   9.947  0.1208  0.1930  0.2404
  312MOL0     C41995   7.254  11.011   9.856 -0.1787 -0.2433  0.5920
  312MOL0     C41996   7.154  10.900   9.853  0.3885  0.1023 -0.0335
  312MOL0     C41997   7.043  10.936   9.751  0.0224 -0.4246 -0.0853
  312MOL0     C41998   6.916  10.852   9.760 -0.7591  0.8196 -0.6611
  312MOL0     C41999   6.949  10.707   9.727 -0.2698  0.8314  0.1313
  312MOL0     C42000   6.830  10.606   9.722  0.5659 -0.2812  0.0032
  312MOL0     C42001   6.762  10.588   9.859 -0.0530  0.4943  0.2719
  312MOL0     N42002   6.671  10.472   9.867  0.2789 -0.3920  0.2919
  312MOL0     C42003   6.558  10.465   9.786  0.1192  0.1877  0.1298
  312MOL0     C42004   6.524  10.332   9.798 -0.7800  0.5513 -0.0808
  312MOL0     C42005   6.408  10.259   9.730 -0.0551  0.8803  0.5431
  312MOL0     C42006   6.305  10.216   9.834 -0.8458 -0.3318 -0.3313
  312MOL0     C42007   6.193  10.137   9.768 -0.7983  0.3620 -0.0367
  312MOL0     C42008   6.071  10.099   9.862 -0.2030 -0.3764  0.0790
  312MOL0     O42009   6.097   9.981   9.939  0.0942  0.1436 -0.6379
  312MOL0     C42010   6.084   9.860   9.870  0.7654 -0.3925  0.1019
  312MOL0     C42011   6.061   9.850   9.730 -0.2632 -0.8305 -0.0287
  312MOL0     C42012   6.058   9.722   9.667  0.0522 -0.4690  0.5528
  312MOL0     C42013   6.025   9.734   9.515  0.0797 -0.2324 -0.2456
  312MOL0     C42014   6.084   9.604   9.744  0.7790 -1.0563 -0.5952
  312MOL0     C42015   6.098   9.468   9.688 -0.0580  0.2146  0.3412
  312MOL0     O42016   6.154   9.368   9.765 -0.1119  0.1737 -0.8803
  312MOL0     C42017   6.177   9.246   9.722 -0.9539 -0.4703 -1.0167
  312MOL0     C42018   6.246   9.216   9.608  0.1035  0.5057  0.0828
  312MOL0     C42019   6.277   9.082   9.579  0.1230  0.3473  0.4402
  312MOL0     C42020   6.242   8.979   9.672 -0.2880 -0.1153 -0.9324
  312MOL0     O42021   6.262   8.845   9.670  0.1228  0.1915 -0.1917
  312MOL0     C42022   6.367   8.809   9.586 -0.5061  0.3145  0.3297
  312MOL0     C42023   6.380   8.649   9.575 -0.8325  0.1243 -0.1095
  312MOL0     C42024   6.447   8.590   9.703 -1.1007  1.3849  0.2651
  312MOL0     C42025   6.425   8.437   9.708  0.3883  0.1963 -0.3008
  312MOL0     C42026   6.551   8.375   9.632 -0.7894 -0.4467 -0.7128
  312MOL0     C42027   6.683   8.415   9.688 -0.0886  0.4711 -0.1567
  312MOL0     C42028   6.799   8.334   9.626  1.0470  0.2494  0.1932
  312MOL0     C42029   6.929   8.415   9.649 -0.7532  0.0433 -0.5374
  312MOL0    Cl42030   6.965   8.448   9.822  0.1639 -0.1591 -0.0529
  312MOL0     C42031   6.177   9.024   9.789 -0.1669  0.6756 -0.5041
  312MOL0     C42032   6.151   9.152   9.816 -0.2532 -0.8034 -0.0357
  312MOL0     O42033   6.055   9.442   9.578  0.3943 -0.3525  0.1165
  312MOL0     C42034   6.082   9.622   9.883 -0.5653  0.6970 -0.4338
  312MOL0     C42035   6.099   9.745   9.944 -0.0989 -0.1713  0.6016
  312MOL0     N42036   6.609  10.269   9.881 -0.7258 -0.6570  0.3544
  312MOL0     N42037   6.697  10.356   9.932 -0.8518  0.1806  0.0451
  312MOL0     C42038   7.642  10.987   9.793 -0.7601 -0.3613  0.5945
  312MOL0     C42039   7.784  10.964   9.770  0.5254  0.6278 -0.9109
  312MOL0     C42040   8.225  10.852   9.814  0.7609 -1.4143  0.4779
  312MOL0     C42041   8.285  10.720   9.813  0.3708 -0.1108 -0.2846
  312MOL0     C42042   8.408  10.701   9.771 -1.0655 -0.5614  0.0322
  312MOL0     C42043   8.482  10.815   9.729  0.2304  0.2249 -0.2155
  312MOL0     O42044   8.615  10.780   9.700 -0.2529  0.6073 -0.3138
  312MOL0     C42045   8.692  10.877   9.634 -0.3350 -0.0952 -0.3247
  312MOL0     C42046   8.830  10.818   9.606  0.0855 -0.2910 -0.2965
  312MOL0     C42047   8.894  10.894   9.491 -0.1464 -0.5594 -0.4852
  312MOL0     C42048   8.949  11.032   9.545  1.3327 -0.5181  0.3224
  312MOL0     C42049   9.077  10.996   9.613  0.3537 -0.2352 -0.4006
  312MOL0     C42050   9.193  10.976   9.650 -0.2189 -0.8136 -0.8432
  312MOL0     C42051   8.430  10.944   9.725 -0.2272 -0.0829  0.0488
  312MOL0     C42052   8.304  10.962   9.772 -0.1478 -0.4061  0.4509
  312MOL0     H42053   7.899  11.055  10.077 -0.3428 -2.1568  1.2696
  312MOL0     H42054   7.671  11.107  10.107 -1.2588  0.2486 -0.4746
  312MOL0     H42055   7.406  10.871   9.929  1.0195  0.2951  1.1976
  312MOL0     H42056   7.342  10.970  10.052  1.4189 -0.7376  0.6125
  312MOL0     H42057   7.199  11.096   9.898 -1.0176 -1.7460  2.7118
  312MOL0     H42058   7.290  11.030   9.754  1.8899 -0.8027  1.1797
  312MOL0     H42059   7.201  10.806   9.822  1.5668 -0.4405  3.0478
  312MOL0     H42060   7.123  10.893   9.958  2.2870  1.6531  0.6798
  312MOL0     H42061   7.021  11.041   9.776  1.5260  0.4383 -2.1780
  312MOL0     H42062   7.085  10.935   9.650  0.0176  2.9146 -0.2368
  312MOL0     H42063   6.889  10.857   9.866 -1.8929 -3.1498 -0.5928
  312MOL0     H42064   6.845  10.896   9.690  0.9051  1.9582 -1.7163
  312MOL0     H42065   6.995  10.707   9.627  0.2904 -3.8562  0.1670
  312MOL0     H42066   7.023  10.669   9.797 -2.8002 -2.3517  1.2970
  312MOL0     H42067   6.756  10.642   9.650  2.2933  0.1546 -1.6200
  312MOL0     H42068   6.857  10.507   9.683 -0.5879 -0.6306  0.0564
  312MOL0     H42069   6.714  10.681   9.890 -1.6701 -0.4956  0.8506
  312MOL0     H42070   6.844  10.578   9.931 -0.8122  3.2208  1.6536
  312MOL0     H42071   6.528  10.549   9.725 -1.7285 -1.3012 -1.0986
  312MOL0     H42072   6.367  10.321   9.649 -2.1460 -1.6969 -0.5299
  312MOL0     H42073   6.454  10.170   9.687 -2.0248 -0.8870  1.9108
  312MOL0     H42074   6.264  10.304   9.884  1.2999  1.4760 -1.5964
  312MOL0     H42075   6.351  10.156   9.914 -1.7188  0.6136  0.9284
  312MOL0     H42076   6.236  10.044   9.729 -0.9532  0.2261  0.1152
  312MOL0     H42077   6.150  10.203   9.692 -0.0738 -0.7313 -1.4430
  312MOL0     H42078   5.981  10.087   9.801 -1.1377  1.1440  1.1099
  312MOL0     H42079   6.051  10.181   9.931 -0.3978  0.3110 -0.7796
  312MOL0     H42080   6.050   9.942   9.674  2.7027 -0.4292 -0.1375
  312MOL0     H42081   6.098   9.680   9.454 -1.3183 -1.9564 -0.4754
  312MOL0     H42082   5.931   9.681   9.499 -1.4740  2.7480 -1.9306
  312MOL0     H42083   6.009   9.838   9.485 -1.0648 -0.1957  0.4429
  312MOL0     H42084   6.278   9.291   9.536 -0.1517 -0.1802 -0.7613
  312MOL0     H42085   6.322   9.045   9.487 -0.5539  0.6126 -0.0060
  312MOL0     H42086   6.342   8.833   9.482  0.4390  0.8469  0.2146
  312MOL0     H42087   6.462   8.856   9.614 -1.3802  1.2289  1.9176
  312MOL0     H42088   6.284   8.601   9.552  0.0233 -0.2594 -3.3354
  312MOL0     H42089   6.451   8.632   9.494 -0.3064 -2.5199  0.8171
  312MOL0     H42090   6.402   8.631   9.795 -2.0969 -2.5124  1.7190
  312MOL0     H42091   6.551   8.624   9.703  0.3501 -2.5475  0.2232
  312MOL0     H42092   6.433   8.418   9.815  2.3747 -0.6633 -0.5619
  312MOL0     H42093   6.333   8.398   9.665 -0.0002 -1.1844  1.6700
  312MOL0     H42094   6.554   8.398   9.525 -1.7287  0.0916 -0.6344
  312MOL0     H42095   6.552   8.266   9.636  0.0733 -0.4222  0.6365
  312MOL0     H42096   6.699   8.521   9.666  0.5050  0.4582  0.1845
  312MOL0     H42097   6.687   8.400   9.796 -1.9510  2.0352  0.1751
  312MOL0     H42098   6.798   8.333   9.516 -2.2957  2.1272  0.0603
  312MOL0     H42099   6.797   8.233   9.667 -2.2461 -0.0206 -0.2918
  312MOL0     H42100   6.920   8.511   9.598 -4.3399  1.2096  1.8634
  312MOL0     H42101   7.015   8.359   9.611  1.2247  1.2250  1.8813
  312MOL0     H42102   6.150   8.957   9.869  0.2771  1.9222  0.7262
  312MOL0     H42103   6.115   9.182   9.914  0.8039  2.0409 -0.4423
  312MOL0     H42104   6.093   9.530   9.940  0.6731  1.0292 -0.0938
  312MOL0     H42105   6.109   9.741  10.052 -0.4258 -2.4714  0.6001
  312MOL0     H42106   7.578  10.968   9.707  1.7572 -0.6459 -1.3487
  312MOL0     H42107   7.825  10.898   9.694 -1.0278 -0.7119 -0.6378
  312MOL0     H42108   8.230  10.627   9.825  0.8591 -0.7371 -2.5094
  312MOL0     H42109   8.448  10.603   9.796  1.0820  0.6760  1.7215
  312MOL0     H42110   8.643  10.914   9.543 -0.1535  2.1931  0.4509
  312MOL0     H42111   8.699  10.964   9.700  0.3920  0.3401 -0.9699
  312MOL0     H42112   8.832  10.710   9.588 -1.7602 -0.3912 -0.0220
  312MOL0     H42113   8.888  10.821   9.698  2.5461 -1.0157 -1.7202
  312MOL0     H42114   8.816  10.905   9.415 -1.5604  0.2958  1.0184
  312MOL0     H42115   8.983  10.841   9.457 -0.4807 -0.4832 -1.4960
  312MOL0     H42116   8.882  11.102   9.597  2.9942 -1.2847  3.7305
  312MOL0     H42117   8.972  11.088   9.453 -1.6098 -2.7603 -2.0105
  312MOL0     H42118   9.298  10.967   9.672 -0.7584  0.1080  2.8461
  312MOL0     H42119   8.490  11.030   9.695  0.5587 -0.5558  0.2102
  312MOL0     H42120   8.267  11.064   9.777 -1.8554 -0.9447 -0.2823
  313MOL0     O42121   5.236   5.268   7.918 -0.9616  0.2713 -0.2712
  313MOL0     C42122   5.340   5.239   7.857 -0.1551  0.2061 -0.4351
  313MOL0     O42123   5.355   5.166   7.749  0.5562  0.2906 -0.4724
  313MOL0     C42124   5.231   5.102   7.715  0.1980  0.0915  0.2160
  313MOL0     C42125   5.141   5.163   7.621  0.3142  0.0558 -0.4326
  313MOL0     C42126   5.022   5.098   7.577 -0.5280  0.2132 -0.7176
  313MOL0     C42127   4.995   4.976   7.630 -0.4390 -0.3109  0.4256
  313MOL0     O42128   4.878   4.930   7.587 -0.1426 -0.1606  0.7343
  313MOL0     C42129   4.809   4.833   7.656 -0.6307  0.5347  0.1637
  313MOL0     C42130   4.688   4.800   7.577 -0.2597 -0.5133  0.4271
  313MOL0     C42131   4.614   4.688   7.647 -0.1388  0.2018 -0.7369
  313MOL0     C42132   4.463   4.684   7.613 -0.1815 -0.4285  0.4797
  313MOL0     C42133   4.398   4.572   7.699 -0.0856 -0.3874 -0.3023
  313MOL0     C42134   4.259   4.526   7.651  0.4793 -0.2713 -0.3288
  313MOL0     C42135   4.232   4.399   7.719 -0.4351  0.4126 -0.2300
  313MOL0     C42136   4.094   4.345   7.670 -0.7170  0.1607 -0.8854
  313MOL0     N42137   4.078   4.205   7.712 -0.1608 -0.2175  0.1483
  313MOL0     C42138   4.095   4.160   7.840  0.8979  0.0014  0.3538
  313MOL0     C42139   4.079   4.021   7.836 -0.3508 -0.0699 -0.6398
  313MOL0     C42140   4.088   3.931   7.959  0.2634 -0.3321 -0.6307
  313MOL0     C42141   4.041   3.990   8.092  0.5602  1.1857 -0.1021
  313MOL0     C42142   4.085   3.904   8.207 -0.6268 -0.2518  0.2445
  313MOL0     C42143   4.020   3.952   8.335  0.0233  0.4043  0.6145
  313MOL0     O42144   4.096   4.067   8.372 -0.3665  0.3226  0.6820
  313MOL0     C42145   4.031   4.124   8.478  0.7210 -0.9453 -0.5409
  313MOL0     C42146   4.111   4.209   8.545  0.1906  0.0846 -0.6718
  313MOL0     C42147   4.079   4.254   8.676  0.8900  0.7528  0.4826
  313MOL0     C42148   4.182   4.352   8.732  0.5220  0.1831  0.3247
  313MOL0     C42149   3.957   4.221   8.736  0.0089 -0.3332  0.0132
  313MOL0     C42150   3.911   4.261   8.874 -0.1451  0.3289  0.2628
  313MOL0     O42151   3.788   4.231   8.919  0.8112  0.4804 -0.2380
  313MOL0     C42152   3.736   4.286   9.036 -0.1646  0.0074  0.2983
  313MOL0     C42153   3.759   4.418   9.069 -0.2630  0.5702  0.1756
  313MOL0     C42154   3.681   4.476   9.171 -0.2186 -0.3757 -0.2125
  313MOL0     C42155   3.580   4.412   9.242 -0.1156 -0.0183 -1.1701
  313MOL0     O42156   3.498   4.474   9.329 -0.5338  0.0580 -0.6049
  313MOL0     C42157   3.543   4.602   9.391  0.0174 -0.0497  0.0970
  313MOL0     C42158   3.455   4.713   9.329 -0.2897 -0.2651 -0.1129
  313MOL0     C42159   3.304   4.690   9.350 -0.4364 -0.7227 -0.3266
  313MOL0     C42160   3.220   4.805   9.415 -0.4619  0.8438  0.3156
  313MOL0     C42161   3.069   4.785   9.378  0.4733  0.0758 -0.3598
  313MOL0     C42162   3.042   4.854   9.247 -0.2855 -0.2476  0.7769
  313MOL0     C42163   2.912   4.795   9.190  0.2133 -0.6650 -0.5675
  313MOL0     C42164   2.788   4.824   9.279  0.2409 -0.8192 -0.5625
  313MOL0    Cl42165   2.635   4.783   9.197 -0.3136  0.1394 -0.3932
  313MOL0     C42166   3.565   4.278   9.210 -0.0463 -0.4821  0.6516
  313MOL0     C42167   3.635   4.219   9.104 -1.1857 -0.1039  0.4024
  313MOL0     O42168   3.995   4.313   8.944 -0.2832  0.3747 -0.1915
  313MOL0     C42169   3.864   4.151   8.660  0.2285  0.2178 -0.0192
  313MOL0     C42170   3.895   4.114   8.529 -0.1458  0.2028  0.5997
  313MOL0     N42171   4.045   4.002   7.697  0.4685 -0.4309  0.2989
  313MOL0     N42172   4.047   4.108   7.625 -0.2402 -0.0561 -0.0207
  313MOL0     C42173   5.084   4.915   7.720 -0.4456  0.4526  0.2230
  313MOL0     C42174   5.207   4.974   7.758 -0.1192  0.0876 -0.7531
  313MOL0     C42175   5.467   5.298   7.906  0.5630 -0.5680  0.3590
  313MOL0     C42176   5.466   5.391   8.008  0.2491  0.1107 -0.1875
  313MOL0     C42177   5.587   5.451   8.041  0.2524  0.5283  1.1191
  313MOL0     C42178   5.711   5.400   7.994 -0.3704 -0.4401 -0.2765
  313MOL0     O42179   5.838   5.455   8.027  0.1427  0.3693 -1.0446
  313MOL0     C42180   5.862   5.476   8.167  0.3428  0.4828 -0.1219
  313MOL0     C42181   5.999   5.540   8.187  0.0423  0.3608  0.6294
  313MOL0     C42182   6.028   5.553   8.339 -0.4241 -0.2201 -0.0033
  313MOL0     C42183   6.184   5.548   8.363 -0.5537 -0.4168 -0.4694
  313MOL0     C42184   6.246   5.681   8.322  0.1092 -0.4333 -0.3831
  313MOL0     C42185   6.300   5.782   8.274  0.4647  0.0519  1.0792
  313MOL0     C42186   5.705   5.308   7.893  0.5956  0.2163  0.1691
  313MOL0     C42187   5.583   5.256   7.850 -0.2961 -0.1184  0.1349
  313MOL0     H42188   5.152   5.270   7.608  0.4394  0.1618  0.4523
  313MOL0     H42189   4.949   5.159   7.524  0.3960  2.1495  0.1197
  313MOL0     H42190   4.865   4.740   7.667 -2.2042 -0.3988  0.6465
  313MOL0     H42191   4.797   4.868   7.759  1.9884  0.5502  0.5333
  313MOL0     H42192   4.628   4.889   7.555 -0.2786 -0.5716  0.2364
  313MOL0     H42193   4.708   4.760   7.477 -4.1356 -2.2895  0.2069
  313MOL0     H42194   4.669   4.597   7.624 -2.5686 -1.3816 -0.6759
  313MOL0     H42195   4.628   4.702   7.755  0.5449  0.1157 -0.8081
  313MOL0     H42196   4.416   4.775   7.650 -0.6903 -0.5546  0.1466
  313MOL0     H42197   4.442   4.668   7.507 -1.4822 -2.0198  0.9293
  313MOL0     H42198   4.466   4.486   7.693  2.2891  1.3420  0.0265
  313MOL0     H42199   4.395   4.599   7.805 -0.7413 -1.1275 -0.1249
  313MOL0     H42200   4.198   4.614   7.673  2.5828  1.0458  0.5916
  313MOL0     H42201   4.248   4.510   7.543  0.5092  3.2718 -0.9541
  313MOL0     H42202   4.311   4.327   7.696 -0.5223  0.3193 -0.2379
  313MOL0     H42203   4.228   4.411   7.828 -1.0220 -1.5275  0.0040
  313MOL0     H42204   4.083   4.351   7.561 -1.9753 -0.4638 -0.8185
  313MOL0     H42205   4.019   4.411   7.715  0.0275  0.6534 -0.3398
  313MOL0     H42206   4.115   4.218   7.929  0.2461 -1.7986  1.7491
  313MOL0     H42207   4.040   3.835   7.934 -1.0540 -0.0154  0.5337
  313MOL0     H42208   4.193   3.910   7.980 -0.0996 -0.7985  0.8345
  313MOL0     H42209   3.933   4.010   8.091  0.5117  0.8983 -0.8173
  313MOL0     H42210   4.088   4.089   8.103  1.4674  0.7685 -0.1394
  313MOL0     H42211   4.192   3.924   8.212 -1.0850  2.1129  1.9360
  313MOL0     H42212   4.077   3.795   8.198  1.7622 -0.3361 -3.2104
  313MOL0     H42213   4.014   3.868   8.405 -0.4128 -1.0065 -1.0524
  313MOL0     H42214   3.917   3.973   8.306  0.0156  1.0046  1.0495
  313MOL0     H42215   4.206   4.241   8.505 -0.1224  1.1936 -0.5510
  313MOL0     H42216   4.129   4.444   8.757  2.6183  1.2621  1.0311
  313MOL0     H42217   4.232   4.305   8.817 -0.8195  0.1229  1.1027
  313MOL0     H42218   4.261   4.381   8.662 -0.0037  2.2339  0.5204
  313MOL0     H42219   3.839   4.471   9.020  3.2112 -1.4198  3.1505
  313MOL0     H42220   3.702   4.583   9.174 -0.4571 -0.2797 -1.4123
  313MOL0     H42221   3.533   4.599   9.500 -0.9661 -2.5228 -0.0128
  313MOL0     H42222   3.644   4.629   9.360 -1.1658  2.2531 -2.1809
  313MOL0     H42223   3.500   4.807   9.361  4.0003 -1.4420 -1.9459
  313MOL0     H42224   3.470   4.712   9.221 -1.1837  0.7300 -0.2640
  313MOL0     H42225   3.282   4.591   9.389 -0.1107 -1.4176 -1.8199
  313MOL0     H42226   3.265   4.683   9.248  1.0027 -1.5936 -0.8470
  313MOL0     H42227   3.233   4.780   9.521  0.7564 -1.4087 -0.3035
  313MOL0     H42228   3.250   4.905   9.384  0.7649  0.1869 -0.7268
  313MOL0     H42229   3.006   4.839   9.449  0.4333 -3.6049  2.6866
  313MOL0     H42230   3.026   4.685   9.390  0.4505  0.0508 -0.6461
  313MOL0     H42231   3.047   4.963   9.250 -2.1148 -0.0608 -1.0042
  313MOL0     H42232   3.120   4.808   9.186 -2.1673 -2.6648  0.0196
  313MOL0     H42233   2.909   4.686   9.178  0.0456 -0.5636 -1.5020
  313MOL0     H42234   2.895   4.840   9.092 -1.5466 -1.1206 -0.5067
  313MOL0     H42235   2.784   4.928   9.310 -3.2661 -1.2116  0.7663
  313MOL0     H42236   2.774   4.786   9.380  1.5096  1.0844  0.3880
  313MOL0     H42237   3.481   4.227   9.256 -0.4135  0.1904  0.7338
  313MOL0     H42238   3.623   4.112   9.089 -1.0217  0.0377 -0.7956
  313MOL0     H42239   3.777   4.105   8.704 -0.0944  0.2253 -0.6410
  313MOL0     H42240   3.825   4.067   8.460  1.0270  1.0868 -1.2529
  313MOL0     H42241   5.068   4.817   7.764 -0.6501  0.8144  0.9740
  313MOL0     H42242   5.281   4.939   7.829  1.0908  2.8826 -0.5071
  313MOL0     H42243   5.378   5.420   8.065  1.1508 -0.4560  1.5440
  313MOL0     H42244   5.591   5.545   8.096  1.4386  0.9828  0.3004
  313MOL0     H42245   5.777   5.534   8.206 -0.4518  0.3205 -1.5204
  313MOL0     H42246   5.850   5.386   8.227 -3.1828  0.2375 -0.9774
  313MOL0     H42247   6.002   5.638   8.138 -2.3641  0.3723  0.3604
  313MOL0     H42248   6.082   5.480   8.148 -1.9676 -1.9434 -0.3480
  313MOL0     H42249   5.985   5.474   8.401  1.2709  0.3998  2.1326
  313MOL0     H42250   5.988   5.642   8.389  3.0129 -0.5420  3.9146
  313MOL0     H42251   6.224   5.461   8.312  0.1964 -1.9861  2.5794
  313MOL0     H42252   6.212   5.534   8.467  0.6771 -0.8472 -0.8440
  313MOL0     H42253   6.329   5.875   8.230  0.0407 -0.9902 -1.5745
  313MOL0     H42254   5.805   5.295   7.854 -0.2007 -0.8563 -1.6032
  313MOL0     H42255   5.576   5.192   7.762 -0.6312  0.9282 -0.6318
  314MOL0     O42256   3.644   8.100   5.745 -0.3564 -0.1261  0.0571
  314MOL0     C42257   3.627   8.173   5.644 -0.4286 -0.0721 -0.1839
  314MOL0     O42258   3.529   8.264   5.625 -0.6681  0.0991  0.4142
  314MOL0     C42259   3.431   8.286   5.721 -0.1126  0.3796 -0.9485
  314MOL0     C42260   3.468   8.355   5.838  0.0013 -0.3410 -0.3067
  314MOL0     C42261   3.365   8.378   5.928  0.1445 -0.8553 -0.1757
  314MOL0     C42262   3.232   8.370   5.899 -0.5871  0.2706 -0.7757
  314MOL0     O42263   3.135   8.400   5.993  0.3407  0.2180 -0.2868
  314MOL0     C42264   3.122   8.540   6.018 -0.1331  0.1072  0.1787
  314MOL0     C42265   3.039   8.562   6.147 -0.4079 -0.1728 -1.0493
  314MOL0     C42266   3.095   8.509   6.272  0.1962  0.0127 -0.3012
  314MOL0     C42267   3.218   8.591   6.300  0.6069 -0.2671  0.3060
  314MOL0     C42268   3.260   8.581   6.447 -0.5416  0.3970 -0.0265
  314MOL0     C42269   3.390   8.668   6.476 -0.1903 -0.0825 -0.4106
  314MOL0     C42270   3.381   8.820   6.461  0.3792 -0.4910  0.1052
  314MOL0     C42271   3.328   8.901   6.574  0.8456  0.0179 -0.0937
  314MOL0     N42272   3.423   8.917   6.685 -0.0894  0.4436  0.2274
  314MOL0     C42273   3.407   9.013   6.778  0.0169 -0.5125 -0.0810
  314MOL0     C42274   3.521   9.002   6.850 -0.0743  0.5282  0.2634
  314MOL0     C42275   3.570   9.078   6.968  1.0255 -0.6381 -0.0932
  314MOL0     C42276   3.695   9.155   6.941 -0.5443  0.1439 -0.1128
  314MOL0     C42277   3.702   9.241   6.814 -0.3624 -0.3933  0.2371
  314MOL0     C42278   3.587   9.352   6.808 -0.1309 -0.7863  0.7487
  314MOL0     O42279   3.483   9.328   6.712  0.3018  0.3308 -0.9925
  314MOL0     C42280   3.375   9.407   6.718 -0.4564 -0.6076 -0.9229
  314MOL0     C42281   3.375   9.541   6.760 -0.4094  0.3518 -0.3260
  314MOL0     C42282   3.258   9.614   6.770 -1.0421 -0.4400 -0.7733
  314MOL0     C42283   3.269   9.749   6.839 -0.4085 -0.3500 -0.0599
  314MOL0     C42284   3.142   9.564   6.718 -0.1242 -0.3463 -0.1748
  314MOL0     C42285   3.009   9.624   6.740  0.0204  0.0551 -0.0502
  314MOL0     O42286   2.983   9.715   6.841  0.4596  0.6544  0.4551
  314MOL0     C42287   2.850   9.760   6.869 -0.9163  0.4977 -0.1189
  314MOL0     C42288   2.836   9.901   6.897  0.4304  0.0160  0.3757
  314MOL0     C42289   2.715   9.955   6.932  0.1938 -0.0729  0.4755
  314MOL0     C42290   2.601   9.875   6.945  0.3585 -0.4233 -0.1507
  314MOL0     O42291   2.478   9.908   6.998 -0.1929 -0.1490  0.0884
  314MOL0     C42292   2.469  10.001   7.102  0.0936  0.0741  0.0084
  314MOL0     C42293   2.331  10.053   7.124  0.4414 -0.9087  0.5168
  314MOL0     C42294   2.228   9.948   7.151  0.1288  0.3053 -0.7391
  314MOL0     C42295   2.223   9.927   7.302 -0.3152  1.2479  0.6408
  314MOL0     C42296   2.127   9.809   7.328  0.6876  0.4439 -0.1791
  314MOL0     C42297   2.105   9.782   7.481  0.3418 -0.0189 -0.3606
  314MOL0     C42298   2.068   9.631   7.501  0.3490  1.0793 -0.7529
  314MOL0     C42299   2.176   9.526   7.471  0.0036  0.1132  0.0084
  314MOL0    Cl42300   2.318   9.552   7.575  0.1631 -0.4640  0.1637
  314MOL0     C42301   2.615   9.735   6.918  0.3762 -0.3698 -0.2291
  314MOL0     C42302   2.739   9.676   6.881  0.3575  0.0407  0.5603
  314MOL0     O42303   2.923   9.591   6.655  0.5600  0.6820 -0.0229
  314MOL0     C42304   3.143   9.433   6.655 -0.6767  0.2908  0.0615
  314MOL0     C42305   3.265   9.360   6.649  1.0451  0.7374 -0.2880
  314MOL0     N42306   3.584   8.891   6.808 -0.2930 -0.3262  0.2453
  314MOL0     N42307   3.532   8.841   6.704  0.2295 -0.1370 -0.4225
  314MOL0     C42308   3.199   8.301   5.788  0.4907  0.5878 -0.4264
  314MOL0     C42309   3.295   8.257   5.696 -0.5201 -0.6818  0.5232
  314MOL0     C42310   3.725   8.164   5.539 -0.2163 -0.2329  0.6601
  314MOL0     C42311   3.709   8.207   5.410 -0.6054 -0.6030 -0.2339
  314MOL0     C42312   3.813   8.201   5.312 -0.1665 -0.4034  0.3008
  314MOL0     C42313   3.940   8.160   5.346  0.4047  0.2498  0.4162
  314MOL0     O42314   4.035   8.163   5.249 -0.4508 -0.4559 -0.2013
  314MOL0     C42315   4.180   8.166   5.282  0.2266  0.0594 -0.4922
  314MOL0     C42316   4.272   8.166   5.158  0.4232 -0.0559  0.1205
  314MOL0     C42317   4.260   8.307   5.093 -0.4009  1.0467  0.0315
  314MOL0     C42318   4.341   8.284   4.961 -0.5141  0.0627 -0.5913
  314MOL0     C42319   4.251   8.239   4.855  0.5582  0.0096  0.0816
  314MOL0     C42320   4.174   8.212   4.766  0.1878  0.2951  0.4090
  314MOL0     C42321   3.957   8.103   5.473  0.0075  0.0491 -0.7111
  314MOL0     C42322   3.845   8.107   5.563 -0.5042  0.8942  0.6589
  314MOL0     H42323   3.574   8.376   5.847  0.4879 -2.1034 -1.5899
  314MOL0     H42324   3.395   8.422   6.022  2.0231 -2.1345 -0.1138
  314MOL0     H42325   3.218   8.593   6.018  0.1282 -0.2877 -1.4563
  314MOL0     H42326   3.059   8.581   5.939  1.7528 -0.4807 -1.7379
  314MOL0     H42327   3.022   8.669   6.163  1.2343 -0.1262  0.6837
  314MOL0     H42328   2.943   8.510   6.137 -0.9918  1.0365 -1.9658
  314MOL0     H42329   3.017   8.513   6.349 -0.2786  0.4188 -0.7899
  314MOL0     H42330   3.118   8.403   6.264 -2.6066 -0.8593  1.6836
  314MOL0     H42331   3.301   8.566   6.233 -0.7370 -2.6275 -0.6093
  314MOL0     H42332   3.192   8.695   6.280 -0.6072 -0.1938  2.0572
  314MOL0     H42333   3.173   8.610   6.505 -0.0227  2.4475 -0.1735
  314MOL0     H42334   3.289   8.478   6.470  2.2583  1.6640  2.9648
  314MOL0     H42335   3.421   8.629   6.573  0.0976  2.0289  0.3864
  314MOL0     H42336   3.475   8.632   6.416  0.9891  2.1393 -0.1806
  314MOL0     H42337   3.480   8.861   6.441 -0.3651 -0.1197 -3.4594
  314MOL0     H42338   3.335   8.850   6.366  1.2909 -0.7940 -0.4521
  314MOL0     H42339   3.231   8.864   6.611  0.2441 -1.1574 -2.6273
  314MOL0     H42340   3.301   8.995   6.525 -3.9926 -0.0438  1.8845
  314MOL0     H42341   3.330   9.087   6.801  2.6178  1.8741  1.6918
  314MOL0     H42342   3.490   9.147   6.996  0.7291  1.1176 -4.5180
  314MOL0     H42343   3.582   9.000   7.044  2.6084  0.7059  1.1067
  314MOL0     H42344   3.782   9.089   6.937  0.3083  1.2110  0.2400
  314MOL0     H42345   3.702   9.219   7.029 -0.8352  1.2485 -0.8644
  314MOL0     H42346   3.702   9.184   6.721 -0.8597  0.5251 -0.3409
  314MOL0     H42347   3.795   9.297   6.816 -0.8455  0.4561 -0.4167
  314MOL0     H42348   3.647   9.442   6.791 -1.9086  0.1379 -0.9130
  314MOL0     H42349   3.551   9.373   6.909 -0.1178  0.4908  0.5033
  314MOL0     H42350   3.463   9.581   6.810  0.2416  1.3574 -2.1958
  314MOL0     H42351   3.245   9.752   6.946 -2.2748  1.0957 -0.4835
  314MOL0     H42352   3.371   9.785   6.823 -0.7065  2.1803  2.7585
  314MOL0     H42353   3.212   9.826   6.787 -2.2410  0.2726  2.6491
  314MOL0     H42354   2.922   9.968   6.893 -0.0707  0.6298 -0.5617
  314MOL0     H42355   2.700  10.061   6.954  1.8212  0.4045 -0.5679
  314MOL0     H42356   2.495   9.944   7.191  0.5426  1.1689  0.6075
  314MOL0     H42357   2.535  10.088   7.090  0.9780 -0.7925 -1.8425
  314MOL0     H42358   2.333  10.134   7.198 -2.6327 -1.7670  1.7157
  314MOL0     H42359   2.302  10.115   7.038  0.9201 -3.0771 -1.2840
  314MOL0     H42360   2.258   9.859   7.095  1.2388 -0.1441  0.5262
  314MOL0     H42361   2.130   9.984   7.118 -0.9372  0.2038  2.0120
  314MOL0     H42362   2.321   9.914   7.348  0.5632  1.1548 -1.1837
  314MOL0     H42363   2.177  10.013   7.352  1.6515  0.7263  3.6112
  314MOL0     H42364   2.172   9.720   7.283 -1.1406  0.3070 -1.8467
  314MOL0     H42365   2.031   9.823   7.278 -1.1409 -1.9021  2.3544
  314MOL0     H42366   2.199   9.805   7.531 -0.8771  1.9798  1.1760
  314MOL0     H42367   2.017   9.841   7.510 -1.7719 -2.5659 -1.1072
  314MOL0     H42368   1.993   9.601   7.428  1.6218 -2.9017 -0.6446
  314MOL0     H42369   2.035   9.620   7.605 -0.8052  2.2356 -0.9686
  314MOL0     H42370   2.202   9.533   7.365 -0.7492  1.6948 -0.1123
  314MOL0     H42371   2.133   9.426   7.481 -0.4169  0.1467 -1.2500
  314MOL0     H42372   2.526   9.679   6.942  0.1837  0.2144  0.4463
  314MOL0     H42373   2.739   9.569   6.864 -1.1082  0.3392 -1.6536
  314MOL0     H42374   3.051   9.395   6.612  0.8328 -2.7512 -0.8175
  314MOL0     H42375   3.259   9.261   6.604  1.1444  0.7718 -0.3767
  314MOL0     H42376   3.094   8.277   5.775  0.3843  0.5080  0.5036
  314MOL0     H42377   3.265   8.205   5.606  0.6521 -1.3393  0.4885
  314MOL0     H42378   3.615   8.249   5.378 -0.6379 -1.8729 -1.9923
  314MOL0     H42379   3.799   8.232   5.209 -1.9018 -4.0249 -0.7148
  314MOL0     H42380   4.194   8.254   5.346 -3.1002  0.8569 -0.6683
  314MOL0     H42381   4.199   8.079   5.344  0.5159 -0.2013 -0.9390
  314MOL0     H42382   4.251   8.086   5.087  1.7542 -0.7133  0.4317
  314MOL0     H42383   4.372   8.155   5.201  0.3555 -1.8188 -0.0828
  314MOL0     H42384   4.304   8.388   5.152 -2.2781  1.1237  1.4238
  314MOL0     H42385   4.160   8.348   5.079 -0.8471  0.4071  1.2121
  314MOL0     H42386   4.427   8.217   4.975  0.2731  0.9926 -0.8721
  314MOL0     H42387   4.380   8.382   4.933 -0.7368 -0.0735 -1.4069
  314MOL0     H42388   4.101   8.182   4.693  1.8208  0.8850 -1.5357
  314MOL0     H42389   4.051   8.070   5.516 -0.4812 -0.6956 -0.2016
  314MOL0     H42390   3.859   8.072   5.665  0.0721  0.2962  0.3795
  315MOL0     O42391   9.017  10.155   5.533 -0.0817  0.1831 -0.0559
  315MOL0     C42392   8.996  10.237   5.441 -0.8903  0.1722  0.3748
  315MOL0     O42393   8.871  10.243   5.372 -0.0608 -0.0980 -0.6148
  315MOL0     C42394   8.779  10.146   5.412 -0.2589  0.2246 -0.8660
  315MOL0     C42395   8.784  10.006   5.371 -0.3772 -0.1171  0.1466
  315MOL0     C42396   8.670   9.931   5.380  0.9520  0.0121  0.3934
  315MOL0     C42397   8.545   9.981   5.426 -0.3501 -0.3958  0.6757
  315MOL0     O42398   8.419   9.919   5.419 -0.3318 -0.0046  0.2581
  315MOL0     C42399   8.420   9.774   5.413 -0.0963  0.0705  1.0432
  315MOL0     C42400   8.281   9.724   5.436  0.3206 -0.0168 -0.7250
  315MOL0     C42401   8.188   9.747   5.315 -0.4664 -0.5893  0.5746
  315MOL0     C42402   8.037   9.742   5.359 -0.2410  0.1663  0.0677
  315MOL0     C42403   7.949   9.749   5.240  0.8866  0.1210  0.1680
  315MOL0     C42404   7.804   9.752   5.287  0.3866  0.6602  0.1138
  315MOL0     C42405   7.754   9.891   5.334  0.1328 -0.6120  0.2767
  315MOL0     C42406   7.601   9.891   5.378  0.8140 -0.5570  0.4102
  315MOL0     N42407   7.500   9.840   5.279  0.8422  0.0713 -0.3833
  315MOL0     C42408   7.374   9.780   5.304  0.3440 -0.2658 -0.3730
  315MOL0     C42409   7.315   9.769   5.185  0.0485 -0.0975  0.5344
  315MOL0     C42410   7.176   9.716   5.159 -0.5644 -0.5715 -0.2737
  315MOL0     C42411   7.146   9.681   5.013 -0.7165  0.2760 -0.7890
  315MOL0     C42412   7.012   9.611   4.977 -0.0051  0.4994  1.1725
  315MOL0     C42413   6.885   9.698   5.000 -0.4971 -0.3197 -0.1725
  315MOL0     O42414   6.769   9.636   4.943 -0.4946 -0.2746 -0.3992
  315MOL0     C42415   6.643   9.676   4.981 -1.0661  1.3866  0.1050
  315MOL0     C42416   6.616   9.802   5.035  0.3600  0.0597  0.5303
  315MOL0     C42417   6.491   9.861   5.033 -0.1769 -0.4682 -0.7630
  315MOL0     C42418   6.484  10.014   5.042  0.2072  0.4186  0.4268
  315MOL0     C42419   6.386   9.783   4.990 -0.4771  0.1074 -1.1933
  315MOL0     C42420   6.242   9.824   4.991  0.5874 -0.0373 -0.9839
  315MOL0     O42421   6.143   9.736   5.039 -0.4803  0.1287  0.6682
  315MOL0     C42422   6.013   9.765   5.010  0.4871 -0.3222  0.6825
  315MOL0     C42423   5.943   9.855   5.084 -0.2463  0.4770 -0.5795
  315MOL0     C42424   5.815   9.897   5.063  0.5065  0.1323 -0.0764
  315MOL0     C42425   5.755   9.849   4.945  0.4090  0.2318  0.0489
  315MOL0     O42426   5.638   9.907   4.926 -0.2089 -0.2316  0.0619
  315MOL0     C42427   5.561   9.848   4.828  0.8594  0.4233 -1.0523
  315MOL0     C42428   5.438   9.944   4.815 -0.2160 -0.0924  0.1197
  315MOL0     C42429   5.322   9.860   4.759 -0.7194  0.6830 -0.1059
  315MOL0     C42430   5.201   9.947   4.739 -0.0094  0.3352  0.5752
  315MOL0     C42431   5.086   9.848   4.701  0.2257  0.5036  0.6904
  315MOL0     C42432   4.971   9.902   4.632  0.1785 -0.3273 -0.7299
  315MOL0     C42433   4.874   9.797   4.561 -0.0086  1.0334 -0.1616
  315MOL0     C42434   4.762   9.870   4.489  0.0022  0.2451 -0.3673
  315MOL0    Cl42435   4.634   9.920   4.607  0.1892  0.0608  0.1625
  315MOL0     C42436   5.833   9.766   4.859  0.2243  0.4098 -0.6305
  315MOL0     C42437   5.954   9.719   4.891  0.3022  1.3265 -1.0296
  315MOL0     O42438   6.214   9.928   4.937  0.8872  0.9266  0.5330
  315MOL0     C42439   6.415   9.659   4.929  0.1970 -0.7727  0.6456
  315MOL0     C42440   6.543   9.611   4.931  0.1610  0.0186  0.0181
  315MOL0     N42441   7.395   9.833   5.091 -0.7924  0.4468  0.2940
  315MOL0     N42442   7.500   9.876   5.147  0.6062 -0.0777 -0.7452
  315MOL0     C42443   8.543  10.109   5.484  0.0373 -0.3296 -0.8174
  315MOL0     C42444   8.657  10.191   5.472 -0.5813  0.7128  0.5683
  315MOL0     C42445   9.105  10.320   5.376  0.1847 -0.4973 -0.0674
  315MOL0     C42446   9.075  10.373   5.256 -0.4457  0.3944 -0.4909
  315MOL0     C42447   9.171  10.434   5.179 -0.8092  0.0126 -0.1200
  315MOL0     C42448   9.304  10.447   5.219  0.3291  0.0471  0.1941
  315MOL0     O42449   9.399  10.485   5.127  0.3759 -0.7491  0.1475
  315MOL0     C42450   9.536  10.495   5.150  0.5004  0.4600  0.3416
  315MOL0     C42451   9.575  10.621   5.227  0.2370  0.3037  0.5953
  315MOL0     C42452   9.720  10.624   5.278 -0.0075 -1.2311 -0.2923
  315MOL0     C42453   9.834  10.628   5.171 -1.2361 -0.0043 -0.4212
  315MOL0     C42454   9.951  10.686   5.247 -1.2987 -0.6629  0.3464
  315MOL0     C42455  10.038  10.741   5.320  0.3196 -0.2144 -0.7057
  315MOL0     C42456   9.325  10.411   5.345 -0.0624  0.3501 -0.9508
  315MOL0     C42457   9.234  10.347   5.430 -0.3077 -0.0723 -0.0251
  315MOL0     H42458   8.871   9.971   5.316 -2.1113 -1.4073 -1.9954
  315MOL0     H42459   8.673   9.830   5.340  1.5123 -0.1341  0.7949
  315MOL0     H42460   8.445   9.743   5.311 -1.2408  5.0421 -1.0150
  315MOL0     H42461   8.495   9.734   5.482  0.6186 -1.9429 -0.7731
  315MOL0     H42462   8.286   9.617   5.459  0.0380  0.1446  0.1377
  315MOL0     H42463   8.233   9.782   5.515 -2.5346 -1.3252 -1.3962
  315MOL0     H42464   8.211   9.845   5.273 -0.1299 -1.2516 -0.8319
  315MOL0     H42465   8.207   9.676   5.235  1.1328 -0.1583  0.5369
  315MOL0     H42466   8.015   9.650   5.413  0.7348  0.0493  0.2901
  315MOL0     H42467   8.009   9.822   5.429 -0.9137  0.0101 -0.0134
  315MOL0     H42468   7.972   9.838   5.180  2.8016  0.6914  1.6332
  315MOL0     H42469   7.957   9.665   5.171 -1.6295  1.1585 -1.5231
  315MOL0     H42470   7.738   9.725   5.204 -0.5858  2.3438  0.3063
  315MOL0     H42471   7.794   9.678   5.367  3.2350 -0.1049 -0.1308
  315MOL0     H42472   7.804   9.931   5.422 -0.2509 -0.7894  0.5821
  315MOL0     H42473   7.765   9.957   5.247  0.2601 -0.7732  0.1699
  315MOL0     H42474   7.576   9.995   5.399  2.3624 -0.1910  0.5876
  315MOL0     H42475   7.587   9.838   5.473 -2.2587  0.0573  0.3877
  315MOL0     H42476   7.333   9.759   5.402 -0.4122  0.1186 -0.6074
  315MOL0     H42477   7.155   9.626   5.216 -0.5165  0.9155  2.2499
  315MOL0     H42478   7.099   9.791   5.181 -1.3150 -1.5823  0.6178
  315MOL0     H42479   7.220   9.605   4.984 -2.3812 -1.0279 -1.7610
  315MOL0     H42480   7.157   9.773   4.954  2.2222  0.1469 -0.6020
  315MOL0     H42481   6.998   9.520   5.036 -1.3266 -1.2513 -1.6397
  315MOL0     H42482   7.014   9.573   4.875 -1.7516  3.2122  0.0302
  315MOL0     H42483   6.898   9.794   4.950  1.9408 -1.1892 -1.3264
  315MOL0     H42484   6.865   9.718   5.106  1.4591 -2.6106  0.7195
  315MOL0     H42485   6.707   9.858   5.054 -0.0911  1.1790 -0.4889
  315MOL0     H42486   6.584  10.048   5.070  1.1125 -1.4667 -0.3422
  315MOL0     H42487   6.455  10.064   4.949 -2.4986  0.2284  1.0816
  315MOL0     H42488   6.419  10.036   5.127 -0.3141  0.0826  0.1192
  315MOL0     H42489   5.998   9.896   5.168 -0.3029  2.4815 -1.4680
  315MOL0     H42490   5.760   9.956   5.136 -0.3525 -1.8359  0.9503
  315MOL0     H42491   5.609   9.845   4.730  0.9155  0.4742 -1.0268
  315MOL0     H42492   5.534   9.747   4.860  0.8396  0.4355 -1.0301
  315MOL0     H42493   5.414   9.997   4.908  0.0448  1.5508 -0.6976
  315MOL0     H42494   5.466  10.024   4.745 -1.7973  0.7495  0.4072
  315MOL0     H42495   5.309   9.773   4.824  0.4847  0.5927  0.0287
  315MOL0     H42496   5.353   9.814   4.665 -1.0941 -2.7088  1.2923
  315MOL0     H42497   5.161  10.002   4.824 -0.4626  2.7626 -1.1245
  315MOL0     H42498   5.214  10.021   4.660 -0.7542 -3.1097 -3.0589
  315MOL0     H42499   5.052   9.790   4.787 -2.2211  3.0323  1.5804
  315MOL0     H42500   5.123   9.767   4.638  0.4034 -0.5471  2.0860
  315MOL0     H42501   4.904   9.951   4.703 -0.9059 -1.3224 -1.0257
  315MOL0     H42502   4.996   9.971   4.551 -2.9646  1.7225 -0.1337
  315MOL0     H42503   4.838   9.728   4.638 -1.1431  2.3013  0.4893
  315MOL0     H42504   4.936   9.748   4.486  1.7967  2.0829  0.5773
  315MOL0     H42505   4.702   9.803   4.426  0.5900 -1.6260  0.9516
  315MOL0     H42506   4.801   9.961   4.443  0.5664  1.1841  1.8651
  315MOL0     H42507   5.788   9.727   4.768  0.3955  2.7395 -1.7869
  315MOL0     H42508   6.007   9.641   4.837  0.3381  0.5863  0.0270
  315MOL0     H42509   6.336   9.612   4.871  0.1687 -0.6848  0.6123
  315MOL0     H42510   6.566   9.511   4.896 -0.1174 -0.8389  2.1126
  315MOL0     H42511   8.444  10.133   5.522 -0.1825 -0.6325 -1.1976
  315MOL0     H42512   8.648  10.296   5.500 -0.8945  0.6208  0.8184
  315MOL0     H42513   8.975  10.367   5.214 -0.4001  2.1306 -0.9089
  315MOL0     H42514   9.154  10.459   5.075 -0.1461 -4.1471 -1.4020
  315MOL0     H42515   9.572  10.416   5.217 -0.4990 -0.3843 -0.1044
  315MOL0     H42516   9.583  10.486   5.052  2.0709 -0.4516  1.1306
  315MOL0     H42517   9.501  10.639   5.306 -0.7308  0.2252 -0.2654
  315MOL0     H42518   9.564  10.703   5.154 -0.8761  1.1864  1.6980
  315MOL0     H42519   9.736  10.542   5.348  2.6729 -1.4376 -1.0213
  315MOL0     H42520   9.738  10.719   5.327 -0.4571 -1.0436 -0.4817
  315MOL0     H42521   9.806  10.685   5.082 -0.6981  0.9842  0.0230
  315MOL0     H42522   9.843  10.521   5.153 -2.2895 -0.2559  0.4634
  315MOL0     H42523  10.123  10.780   5.372  1.2315 -1.0787 -1.5108
  315MOL0     H42524   9.422  10.430   5.389  0.2142 -0.4446 -1.2018
  315MOL0     H42525   9.260  10.332   5.534 -0.8092 -0.7955  0.0014
  316MOL0     O42526   5.160   9.305   3.447 -0.0504  0.0413 -0.2596
  316MOL0     C42527   5.185   9.224   3.537  0.2210  0.5490 -0.1561
  316MOL0     O42528   5.110   9.202   3.645  0.5787 -0.4530 -0.2987
  316MOL0     C42529   5.019   9.294   3.685 -0.4914 -0.0520 -0.8163
  316MOL0     C42530   4.894   9.243   3.722 -0.0732  0.3058 -0.0027
  316MOL0     C42531   4.788   9.328   3.763  0.0655  0.0430  0.0728
  316MOL0     C42532   4.805   9.468   3.774  0.0144  0.6457  0.9943
  316MOL0     O42533   4.703   9.550   3.825  0.0202 -0.1636  0.3034
  316MOL0     C42534   4.584   9.490   3.866  0.1755 -0.2824  0.3540
  316MOL0     C42535   4.501   9.605   3.923 -0.1799 -0.5285 -0.5932
  316MOL0     C42536   4.358   9.572   3.911 -0.3095  0.4158 -0.3258
  316MOL0     C42537   4.282   9.671   3.993  0.0567  0.1410  0.8330
  316MOL0     C42538   4.123   9.663   3.982 -0.3389  0.4557  0.5172
  316MOL0     C42539   4.053   9.754   4.083  0.1618  0.1566  0.3254
  316MOL0     C42540   3.908   9.705   4.102 -0.5733 -1.0057  0.7657
  316MOL0     C42541   3.859   9.787   4.227 -0.7067  0.3919  0.8519
  316MOL0     N42542   3.726   9.747   4.262  0.0614 -0.7475 -1.2833
  316MOL0     C42543   3.610   9.757   4.176 -0.4766 -0.0522 -0.6313
  316MOL0     C42544   3.512   9.713   4.258  0.3817 -0.7877  0.2327
  316MOL0     C42545   3.372   9.679   4.213  0.1046  0.2893 -0.1434
  316MOL0     C42546   3.274   9.781   4.274 -0.4508  0.6015  0.0066
  316MOL0     C42547   3.127   9.768   4.207 -0.6447 -0.3105  0.0485
  316MOL0     C42548   3.055   9.640   4.244 -0.3278 -0.1914  0.3040
  316MOL0     O42549   2.953   9.640   4.139  0.3067  0.3917 -0.0572
  316MOL0     C42550   2.849   9.555   4.141 -0.2856  0.1065  0.4524
  316MOL0     C42551   2.761   9.560   4.034 -0.6551  0.3222  0.3270
  316MOL0     C42552   2.648   9.484   4.022  0.2389 -0.0196 -1.0738
  316MOL0     C42553   2.551   9.529   3.922 -0.2226  0.8670  0.4503
  316MOL0     C42554   2.630   9.375   4.111 -0.7558 -0.9388 -0.0276
  316MOL0     C42555   2.512   9.283   4.110  0.3999 -0.8244  0.3496
  316MOL0     O42556   2.513   9.187   4.198 -0.3353 -0.5389  0.2238
  316MOL0     C42557   2.392   9.151   4.244 -0.8895  0.0231 -0.4027
  316MOL0     C42558   2.329   9.242   4.342 -0.4096 -0.0912  0.3270
  316MOL0     C42559   2.198   9.216   4.385  0.1728 -0.2929  0.6659
  316MOL0     C42560   2.125   9.096   4.341 -0.3025 -0.3462 -0.1817
  316MOL0     O42561   1.998   9.065   4.374  0.0017 -0.2649 -0.3816
  316MOL0     C42562   1.928   9.168   4.450 -0.8275  0.2121  0.9910
  316MOL0     C42563   1.779   9.125   4.476 -0.7812 -0.8402 -0.4828
  316MOL0     C42564   1.718   9.123   4.336 -0.2149 -0.5206 -0.7748
  316MOL0     C42565   1.567   9.108   4.352 -0.6797 -1.2844  0.8911
  316MOL0     C42566   1.499   9.095   4.215 -0.1538  0.5856  0.6401
  316MOL0     C42567   1.457   8.947   4.195  0.3607 -1.2280  0.4240
  316MOL0     C42568   1.400   8.925   4.048 -0.5173 -0.6978 -0.2831
  316MOL0     C42569   1.277   8.831   4.048 -0.2123 -0.4585 -0.0640
  316MOL0    Cl42570   1.308   8.677   4.120 -0.1870 -0.1251 -0.8314
  316MOL0     C42571   2.194   9.007   4.251  0.1492 -0.3733  0.0696
  316MOL0     C42572   2.320   9.037   4.207 -0.0448  0.3467  0.1114
  316MOL0     O42573   2.412   9.317   4.050  0.9913 -0.2079 -0.5254
  316MOL0     C42574   2.724   9.366   4.218  0.1034  0.5055 -0.6219
  316MOL0     C42575   2.830   9.455   4.229  0.3219 -0.0827  0.5940
  316MOL0     N42576   3.569   9.686   4.378 -0.6364  0.2228 -0.5469
  316MOL0     N42577   3.693   9.693   4.380 -0.3741  0.0689  0.3034
  316MOL0     C42578   4.928   9.519   3.730  0.4575  0.8320 -0.0992
  316MOL0     C42579   5.029   9.432   3.703 -0.4781  0.2246  0.2903
  316MOL0     C42580   5.317   9.142   3.534 -0.3636  0.1431  0.1460
  316MOL0     C42581   5.380   9.099   3.413  0.1142 -0.1664 -0.1300
  316MOL0     C42582   5.497   9.026   3.407 -0.4369  0.0381 -0.2600
  316MOL0     C42583   5.556   8.984   3.528 -0.9035 -0.7666  0.2137
  316MOL0     O42584   5.678   8.914   3.534 -0.2531  0.0975 -0.5326
  316MOL0     C42585   5.786   8.985   3.604  0.0011  0.5664 -1.0313
  316MOL0     C42586   5.860   9.065   3.498  0.1053 -0.9906  0.3465
  316MOL0     C42587   5.919   8.977   3.385 -0.3082 -0.4008  0.8783
  316MOL0     C42588   6.010   9.058   3.290  0.1151  0.6543  0.1883
  316MOL0     C42589   6.117   9.116   3.365  0.7379 -1.1827 -0.3677
  316MOL0     C42590   6.203   9.173   3.427  0.8019 -0.2717 -0.6030
  316MOL0     C42591   5.497   9.019   3.649  0.2363  0.1344  0.0440
  316MOL0     C42592   5.380   9.098   3.649  0.2070 -0.0250  0.2973
  316MOL0     H42593   4.882   9.137   3.704  0.2576  0.4059 -0.8469
  316MOL0     H42594   4.696   9.275   3.788 -0.3175 -0.7744 -2.7827
  316MOL0     H42595   4.531   9.448   3.781 -0.7998  1.8048 -0.1344
  316MOL0     H42596   4.597   9.411   3.940  2.3088  0.4174  0.8216
  316MOL0     H42597   4.520   9.625   4.029  2.2850  0.9468 -1.2107
  316MOL0     H42598   4.525   9.703   3.879  0.6581 -1.3456 -2.0486
  316MOL0     H42599   4.340   9.565   3.804  0.7211 -0.0098 -0.4837
  316MOL0     H42600   4.331   9.473   3.950 -2.6246  1.1718  0.1763
  316MOL0     H42601   4.317   9.658   4.096  0.6570 -1.3693  0.4642
  316MOL0     H42602   4.311   9.775   3.973 -2.5988  0.9772  1.0148
  316MOL0     H42603   4.099   9.690   3.879 -0.0806  0.7310  0.5285
  316MOL0     H42604   4.094   9.558   3.997 -0.8750  0.4382 -0.5509
  316MOL0     H42605   4.103   9.757   4.180 -0.5805 -1.3073  0.7863
  316MOL0     H42606   4.055   9.859   4.054 -0.5413  0.5327  1.5639
  316MOL0     H42607   3.848   9.732   4.014 -1.7717 -0.2836  1.7669
  316MOL0     H42608   3.895   9.598   4.118 -1.5758 -1.3390 -1.7800
  316MOL0     H42609   3.856   9.892   4.197  0.2965  0.2263  0.1088
  316MOL0     H42610   3.928   9.775   4.311  0.8979 -1.0707 -0.5917
  316MOL0     H42611   3.604   9.797   4.075 -0.2937  5.2039  1.1604
  316MOL0     H42612   3.371   9.681   4.103  2.0750  3.9134 -0.2693
  316MOL0     H42613   3.343   9.585   4.259  0.8474  0.8745  1.6035
  316MOL0     H42614   3.317   9.877   4.242  2.9127  0.0729  2.3781
  316MOL0     H42615   3.273   9.777   4.383 -1.0098  1.4089  0.0416
  316MOL0     H42616   3.154   9.773   4.101  1.4387  0.2448  0.5641
  316MOL0     H42617   3.055   9.843   4.240  0.4120 -0.2228  2.2888
  316MOL0     H42618   3.006   9.648   4.342 -2.9552  0.8118 -0.9935
  316MOL0     H42619   3.100   9.541   4.251 -1.0735 -0.4526  1.7359
  316MOL0     H42620   2.780   9.648   3.974 -3.0800 -0.2728 -1.4421
  316MOL0     H42621   2.529   9.447   3.853  1.2166 -0.2809  1.3133
  316MOL0     H42622   2.457   9.562   3.968 -0.8790 -0.9518  0.4776
  316MOL0     H42623   2.593   9.612   3.864 -3.5132  1.7478 -0.9377
  316MOL0     H42624   2.367   9.339   4.373 -0.7815  0.8528 -1.9576
  316MOL0     H42625   2.170   9.294   4.455  1.2296 -0.1206  0.9243
  316MOL0     H42626   1.980   9.189   4.544  2.6819 -1.1126 -0.4888
  316MOL0     H42627   1.921   9.259   4.389  1.1064 -0.1315  0.1802
  316MOL0     H42628   1.784   9.023   4.517  3.3889 -0.1011  1.4319
  316MOL0     H42629   1.728   9.195   4.542  0.3313 -0.4741  0.0073
  316MOL0     H42630   1.751   9.039   4.274 -2.1420  0.0379 -2.6762
  316MOL0     H42631   1.742   9.215   4.283 -0.8797 -0.4747 -0.9948
  316MOL0     H42632   1.544   9.027   4.422  0.6413 -2.3291  0.1664
  316MOL0     H42633   1.534   9.204   4.392  3.7730  0.8491  0.1113
  316MOL0     H42634   1.570   9.116   4.135 -0.1309 -2.6600 -0.3117
  316MOL0     H42635   1.406   9.152   4.204 -0.2697 -0.0274 -2.5864
  316MOL0     H42636   1.549   8.888   4.204  0.2025 -1.5257  0.1509
  316MOL0     H42637   1.386   8.913   4.271  1.6867 -1.4985  1.5715
  316MOL0     H42638   1.476   8.885   3.981  2.1121  1.1774  1.3593
  316MOL0     H42639   1.369   9.021   4.007  0.4506 -0.1346  0.2481
  316MOL0     H42640   1.256   8.807   3.944 -0.0900 -1.8834  0.2263
  316MOL0     H42641   1.190   8.871   4.101  1.3705 -0.9082  3.0958
  316MOL0     H42642   2.131   8.923   4.222 -2.4381  1.3302  0.4251
  316MOL0     H42643   2.360   8.970   4.132  1.7728  0.9736  0.4631
  316MOL0     H42644   2.711   9.292   4.296  1.0219  1.6688  0.6743
  316MOL0     H42645   2.893   9.454   4.317  2.9060  1.0322 -1.1476
  316MOL0     H42646   4.923   9.627   3.729 -0.5181  0.8037 -1.3643
  316MOL0     H42647   5.126   9.471   3.675 -1.1471  1.2555 -0.6662
  316MOL0     H42648   5.330   9.128   3.321  2.7982  2.7789 -0.8367
  316MOL0     H42649   5.535   8.993   3.311 -0.5481 -0.5271 -0.1159
  316MOL0     H42650   5.753   9.058   3.678 -1.5751 -0.8704 -0.2487
  316MOL0     H42651   5.852   8.916   3.658 -0.5683  0.2278 -0.7573
  316MOL0     H42652   5.940   9.120   3.549 -1.6700  0.4030  1.7783
  316MOL0     H42653   5.784   9.139   3.470  0.3876 -0.4264  1.0474
  316MOL0     H42654   5.847   8.916   3.329  0.7963 -2.0537  1.1839
  316MOL0     H42655   5.979   8.902   3.438 -0.0677 -1.9634 -1.4555
  316MOL0     H42656   5.945   9.127   3.234  0.5128  1.2496  0.4597
  316MOL0     H42657   6.054   8.984   3.222 -1.6505 -0.4165  0.1223
  316MOL0     H42658   6.289   9.218   3.472  1.0054 -0.5101 -0.7477
  316MOL0     H42659   5.541   8.987   3.743  0.1887 -0.6293 -0.1857
  316MOL0     H42660   5.348   9.128   3.748 -1.7796  0.7663 -0.5242
  317MOL0     O42661   9.713  10.075   7.357 -0.7292  0.0313 -0.1509
  317MOL0     C42662   9.756  10.190   7.389  0.1314 -0.0130 -0.0157
  317MOL0     O42663   9.677  10.302   7.392 -0.4059  0.5173 -0.9009
  317MOL0     C42664   9.541  10.293   7.373  0.9699  0.8180 -0.6275
  317MOL0     C42665   9.484  10.396   7.300  0.6804  0.7172  0.6647
  317MOL0     C42666   9.342  10.400   7.295 -0.0140 -0.7600  0.2587
  317MOL0     C42667   9.260  10.299   7.349  0.3482 -0.0291 -1.0939
  317MOL0     O42668   9.125  10.306   7.333  0.0799 -0.3241 -0.1878
  317MOL0     C42669   9.039  10.304   7.453  0.2529 -0.9860 -0.0595
  317MOL0     C42670   8.900  10.344   7.410 -0.6977  0.0318  0.8255
  317MOL0     C42671   8.802  10.331   7.526 -0.1815 -0.6874 -0.1549
  317MOL0     C42672   8.658  10.343   7.486  0.1616  0.1637  0.7915
  317MOL0     C42673   8.572  10.379   7.603  0.2894  0.0964  0.7122
  317MOL0     C42674   8.432  10.395   7.548  0.6203  0.2353  0.4412
  317MOL0     C42675   8.335  10.437   7.670 -0.8324 -0.2171  0.2540
  317MOL0     C42676   8.379  10.573   7.729  0.5968 -0.5168 -0.4458
  317MOL0     N42677   8.267  10.636   7.811  0.5936  0.0434  0.3608
  317MOL0     C42678   8.231  10.602   7.940 -0.3247  0.1028  0.0313
  317MOL0     C42679   8.133  10.683   7.966 -0.3553  0.1625 -0.7662
  317MOL0     C42680   8.055  10.677   8.095 -0.5698  0.5904 -0.1580
  317MOL0     C42681   7.923  10.743   8.111  0.5350 -0.4798  0.5601
  317MOL0     C42682   7.823  10.695   8.004 -0.5368  0.4793  0.4227
  317MOL0     C42683   7.801  10.540   7.996  0.6853  0.1015  0.5436
  317MOL0     O42684   7.752  10.492   8.119 -0.2884  0.5034  0.4429
  317MOL0     C42685   7.621  10.527   8.161  0.5057  0.1277  0.4988
  317MOL0     C42686   7.589  10.530   8.301 -0.0841 -0.6057  0.3222
  317MOL0     C42687   7.462  10.566   8.343  0.2414 -0.1108 -0.2915
  317MOL0     C42688   7.448  10.559   8.500 -0.1605 -0.4740 -0.0914
  317MOL0     C42689   7.358  10.617   8.264 -0.3116  0.3270  0.0017
  317MOL0     C42690   7.220  10.651   8.307 -0.5562 -0.1044 -0.0878
  317MOL0     O42691   7.137  10.680   8.202  0.4886 -0.2562  0.2826
  317MOL0     C42692   7.005  10.683   8.225  0.2397  0.4700 -0.1686
  317MOL0     C42693   6.957  10.790   8.302  0.1971  0.3275  0.1842
  317MOL0     C42694   6.816  10.819   8.305  0.8565 -0.6672  0.0804
  317MOL0     C42695   6.723  10.751   8.226 -0.3422  0.1844  0.5915
  317MOL0     O42696   6.589  10.799   8.222  0.3121  0.1174  0.0529
  317MOL0     C42697   6.504  10.731   8.125 -0.4429 -0.2710  0.3241
  317MOL0     C42698   6.366  10.798   8.138  0.0989 -0.1303 -0.1782
  317MOL0     C42699   6.239  10.721   8.084  0.7974  0.4601  0.1138
  317MOL0     C42700   6.114  10.805   8.127  0.3801 -0.4280  0.7538
  317MOL0     C42701   5.987  10.746   8.072 -0.4271  0.1495 -0.1094
  317MOL0     C42702   5.937  10.822   7.954 -0.2227  0.0608 -0.2234
  317MOL0     C42703   5.827  10.749   7.887  0.4227  1.0765  0.8200
  317MOL0     C42704   5.741  10.835   7.795 -0.5011  0.2173 -0.1183
  317MOL0    Cl42705   5.612  10.724   7.743  0.5641 -0.1370 -0.3459
  317MOL0     C42706   6.768  10.644   8.149 -0.2226 -0.7901  0.8133
  317MOL0     C42707   6.905  10.618   8.144 -0.4887  0.5022 -0.1565
  317MOL0     O42708   7.189  10.659   8.426  0.3618  0.1320  0.1511
  317MOL0     C42709   7.385  10.617   8.124 -0.7204  0.2005 -0.5259
  317MOL0     C42710   7.512  10.574   8.074  0.2745 -0.5756 -0.3707
  317MOL0     N42711   8.103  10.766   7.867  0.4526  0.8597 -0.1467
  317MOL0     N42712   8.177  10.729   7.769 -0.4032  0.1692 -0.3595
  317MOL0     C42713   9.319  10.206   7.433 -0.0700  0.2932  0.4900
  317MOL0     C42714   9.459  10.205   7.441 -0.6363  0.0454 -0.0214
  317MOL0     C42715   9.893  10.209   7.429 -0.0435 -0.1217 -0.4372
  317MOL0     C42716   9.973  10.111   7.491  0.0514 -0.3127  0.2817
  317MOL0     C42717  10.106  10.136   7.528  0.0926  0.5073 -0.7980
  317MOL0     C42718  10.171  10.258   7.497 -0.0352  0.2262  0.3280
  317MOL0     O42719  10.302  10.282   7.511 -0.2010 -0.7772 -0.3968
  317MOL0     C42720  10.395  10.195   7.577 -0.3050 -0.2063 -0.4936
  317MOL0     C42721  10.377  10.230   7.723  0.3889 -0.1456 -0.7430
  317MOL0     C42722  10.507  10.206   7.806 -0.8755 -0.4469 -1.2942
  317MOL0     C42723  10.570  10.071   7.801 -0.1048 -0.3014 -0.6973
  317MOL0     C42724  10.489   9.968   7.862  0.0355 -0.3287  0.2695
  317MOL0     C42725  10.414   9.888   7.921 -0.7159  0.7486  0.0547
  317MOL0     C42726  10.092  10.356   7.439  0.3333 -0.0026 -0.1528
  317MOL0     C42727   9.957  10.333   7.411 -0.2782 -0.1619 -0.0665
  317MOL0     H42728   9.534  10.471   7.240 -1.8223  0.4299 -2.0357
  317MOL0     H42729   9.285  10.470   7.236 -0.9328  0.2161  2.2036
  317MOL0     H42730   9.032  10.209   7.506 -2.9691  0.2332  1.9755
  317MOL0     H42731   9.078  10.380   7.521  0.1075 -0.3309 -0.6959
  317MOL0     H42732   8.883  10.447   7.378 -3.3141 -0.6468 -0.2460
  317MOL0     H42733   8.873  10.284   7.322 -0.7729  1.9214 -0.5214
  317MOL0     H42734   8.813  10.232   7.571  1.1390 -1.5280 -2.1760
  317MOL0     H42735   8.820  10.407   7.602 -0.9256 -2.9102  2.3994
  317MOL0     H42736   8.646  10.423   7.413 -2.2058  1.1360  2.1352
  317MOL0     H42737   8.631  10.246   7.443 -0.2321  1.1472 -1.2948
  317MOL0     H42738   8.569  10.294   7.672 -3.1938  0.4284  1.1362
  317MOL0     H42739   8.607  10.472   7.649  2.0045 -1.0951  1.9527
  317MOL0     H42740   8.434  10.470   7.469  2.3400  1.0982  1.2511
  317MOL0     H42741   8.384  10.301   7.519 -0.3368  1.0880 -0.8392
  317MOL0     H42742   8.234  10.438   7.626 -1.0099 -2.2154  0.5309
  317MOL0     H42743   8.328  10.370   7.756  0.4959  0.2829  0.7720
  317MOL0     H42744   8.430  10.633   7.652  2.0613 -2.6229 -1.2182
  317MOL0     H42745   8.454  10.553   7.806  0.1640 -0.0464  0.1107
  317MOL0     H42746   8.276  10.529   8.007 -0.5103  0.7176  0.8341
  317MOL0     H42747   8.037  10.570   8.104 -2.2401  0.8483 -0.1185
  317MOL0     H42748   8.112  10.699   8.186  1.0045 -4.2422  0.3016
  317MOL0     H42749   7.932  10.852   8.102  1.9982 -0.6276 -0.0942
  317MOL0     H42750   7.866  10.712   8.199 -0.8217  0.0240 -0.1232
  317MOL0     H42751   7.850  10.719   7.901  0.0536 -1.6755  0.0332
  317MOL0     H42752   7.725  10.736   8.027 -0.9669 -0.7255  0.7958
  317MOL0     H42753   7.896  10.490   7.976  1.2784 -0.4465  4.0054
  317MOL0     H42754   7.733  10.504   7.919  1.4857  1.1043 -0.6665
  317MOL0     H42755   7.663  10.495   8.373 -0.4337 -2.3765 -0.1373
  317MOL0     H42756   7.420  10.661   8.527  0.9070 -0.0753 -0.4276
  317MOL0     H42757   7.377  10.481   8.527 -2.8716  1.5563 -0.8143
  317MOL0     H42758   7.543  10.547   8.552 -1.2824  1.2176  2.5632
  317MOL0     H42759   7.027  10.855   8.353  0.9955  0.5991 -1.2220
  317MOL0     H42760   6.761  10.890   8.366 -1.8895  0.0540 -2.9813
  317MOL0     H42761   6.546  10.746   8.025  0.6275  1.4484  0.9826
  317MOL0     H42762   6.496  10.629   8.164 -1.0130  0.2906  1.7433
  317MOL0     H42763   6.354  10.812   8.245 -0.4007  1.3880 -0.4057
  317MOL0     H42764   6.370  10.891   8.080 -1.2561 -0.7033 -1.2771
  317MOL0     H42765   6.227  10.625   8.137 -3.8538 -1.0381 -3.0987
  317MOL0     H42766   6.243  10.708   7.976 -4.1272  3.3254 -0.6794
  317MOL0     H42767   6.108  10.811   8.236 -0.6544  4.7822  0.6737
  317MOL0     H42768   6.124  10.905   8.084  1.3678 -1.1446 -0.7661
  317MOL0     H42769   5.914  10.743   8.154  0.1496 -0.9379  0.3704
  317MOL0     H42770   6.013  10.645   8.039 -2.4156 -0.3312 -0.3492
  317MOL0     H42771   5.908  10.922   7.986 -0.6071 -0.5549  1.4595
  317MOL0     H42772   6.025  10.833   7.889  0.5651 -0.9078  0.6472
  317MOL0     H42773   5.758  10.712   7.964  1.1990  2.2047  2.0938
  317MOL0     H42774   5.873  10.663   7.838  0.3478  1.5623 -0.1276
  317MOL0     H42775   5.809  10.865   7.715  2.9548 -0.1490  2.4670
  317MOL0     H42776   5.706  10.928   7.840  0.4630  0.5294  0.0155
  317MOL0     H42777   6.709  10.581   8.083 -1.1466  0.4239  0.4388
  317MOL0     H42778   6.937  10.540   8.076  1.2121  1.4219 -0.4414
  317MOL0     H42779   7.315  10.647   8.047  2.2208  0.5923 -3.2555
  317MOL0     H42780   7.524  10.573   7.966  1.7484 -0.0295 -0.2409
  317MOL0     H42781   9.262  10.124   7.477  0.3964  0.0683  0.6857
  317MOL0     H42782   9.506  10.127   7.500  0.8561 -1.1283 -2.6048
  317MOL0     H42783   9.933  10.016   7.527 -0.0760 -2.0338 -3.9051
  317MOL0     H42784  10.161  10.061   7.583  1.0562 -0.2036 -2.6229
  317MOL0     H42785  10.385  10.091   7.545 -0.6291  0.6187 -3.3003
  317MOL0     H42786  10.490  10.234   7.540 -0.1752 -0.8149 -0.8156
  317MOL0     H42787  10.289  10.175   7.759  0.0374  1.5719  1.2085
  317MOL0     H42788  10.349  10.335   7.734 -0.6357 -0.4587 -0.1679
  317MOL0     H42789  10.484  10.241   7.907 -0.1038 -0.6144 -1.0483
  317MOL0     H42790  10.586  10.273   7.772 -3.6757  3.2679 -1.0611
  317MOL0     H42791  10.663  10.067   7.858 -1.5312 -0.1361  1.7954
  317MOL0     H42792  10.587  10.031   7.701  1.7533  1.1941 -1.0196
  317MOL0     H42793  10.351   9.814   7.965 -0.0082  0.0837 -0.0341
  317MOL0     H42794  10.148  10.449   7.430 -0.3127  0.2921 -1.3184
  317MOL0     H42795   9.906  10.420   7.371 -1.3285 -0.9725 -0.5119
  318MOL0     O42796   3.277   5.288   5.030 -0.4535  0.0515  0.0548
  318MOL0     C42797   3.246   5.186   4.973  0.7111  0.7347  0.2023
  318MOL0     O42798   3.119   5.118   4.982 -0.2236 -0.2789 -0.1457
  318MOL0     C42799   3.020   5.186   5.041  0.2125 -0.0391 -0.0981
  318MOL0     C42800   2.944   5.289   4.968  0.7336  0.5520  0.0545
  318MOL0     C42801   2.826   5.339   5.026  0.2439  0.5341  0.5999
  318MOL0     C42802   2.784   5.291   5.152  0.5077  0.4563 -0.1320
  318MOL0     O42803   2.668   5.346   5.208 -0.5397 -0.2793 -0.3636
  318MOL0     C42804   2.649   5.328   5.347  0.4364  0.3317 -0.5821
  318MOL0     C42805   2.521   5.404   5.393 -0.1899  0.2206  0.1951
  318MOL0     C42806   2.499   5.554   5.355 -0.5426 -0.2514 -0.0175
  318MOL0     C42807   2.429   5.637   5.465 -0.5383  0.3037  0.1159
  318MOL0     C42808   2.280   5.610   5.479 -0.7364  0.2942  0.2292
  318MOL0     C42809   2.241   5.688   5.607 -0.2030  0.9297  1.1552
  318MOL0     C42810   2.099   5.664   5.643  0.2940  0.1068  0.0907
  318MOL0     C42811   2.056   5.522   5.656 -0.8530  0.1074  0.4370
  318MOL0     N42812   1.929   5.515   5.729  0.4004 -0.1587  0.0539
  318MOL0     C42813   1.912   5.535   5.865 -0.5613  0.6463  0.7206
  318MOL0     C42814   1.786   5.513   5.896  0.1049 -0.4068 -0.1375
  318MOL0     C42815   1.729   5.494   6.038 -0.6353 -0.4714  0.7746
  318MOL0     C42816   1.764   5.615   6.131  0.7231 -0.5837  1.7039
  318MOL0     C42817   1.720   5.589   6.271 -0.0079  0.4988  0.1577
  318MOL0     C42818   1.575   5.534   6.293 -0.6687  0.1245 -0.5930
  318MOL0     O42819   1.476   5.631   6.252 -0.3298  0.2982  0.9698
  318MOL0     C42820   1.347   5.609   6.297 -0.0139 -0.8949  0.6886
  318MOL0     C42821   1.269   5.721   6.283  0.1134 -0.2839  0.1053
  318MOL0     C42822   1.140   5.724   6.325 -0.1992 -0.6666 -0.1041
  318MOL0     C42823   1.067   5.856   6.318 -0.4443 -0.2647  0.6699
  318MOL0     C42824   1.078   5.597   6.370 -0.1640  0.0427  0.1402
  318MOL0     C42825   0.948   5.599   6.444 -0.0391 -0.3043  0.3567
  318MOL0     O42826   0.893   5.471   6.458 -0.3797 -0.7462 -0.6022
  318MOL0     C42827   0.765   5.452   6.501  0.7991 -0.4801 -1.2879
  318MOL0     C42828   0.745   5.387   6.625 -0.4708  0.4601  0.4210
  318MOL0     C42829   0.618   5.352   6.659 -0.5186  0.0231 -0.5961
  318MOL0     C42830   0.508   5.393   6.589  0.5694 -1.3482  0.0920
  318MOL0     O42831   0.381   5.355   6.634  0.1061  0.6546 -0.4361
  318MOL0     C42832   0.270   5.442   6.621 -0.0651 -0.1015  0.9818
  318MOL0     C42833   0.140   5.360   6.647  0.0470  0.4083  0.4313
  318MOL0     C42834   0.103   5.268   6.527  0.1926  0.6387 -0.6210
  318MOL0     C42835  -0.013   5.180   6.546 -0.0705 -0.3732 -0.3586
  318MOL0     C42836   0.005   5.057   6.455 -0.0591 -0.2281  0.0993
  318MOL0     C42837  -0.134   5.008   6.401  0.6848 -0.3523 -0.0173
  318MOL0     C42838  -0.201   4.909   6.500 -0.2970 -0.8328  0.2340
  318MOL0     C42839  -0.268   4.975   6.618  0.0952 -0.4882 -0.4453
  318MOL0    Cl42840  -0.392   5.096   6.565 -0.0113 -0.3253  0.1834
  318MOL0     C42841   0.526   5.460   6.469 -0.6692  0.5472 -0.1579
  318MOL0     C42842   0.656   5.492   6.426 -0.0959 -0.4766 -0.6083
  318MOL0     O42843   0.894   5.706   6.478 -0.3126  0.0472 -0.1712
  318MOL0     C42844   1.154   5.482   6.373  0.2090  0.3447 -1.2474
  318MOL0     C42845   1.282   5.496   6.333 -0.3846  0.9611 -1.0371
  318MOL0     N42846   1.721   5.487   5.772  0.2511  0.6050  0.0410
  318MOL0     N42847   1.804   5.500   5.674 -0.0231 -0.0831  0.4176
  318MOL0     C42848   2.863   5.198   5.219  0.0983  0.3139 -0.2612
  318MOL0     C42849   2.973   5.141   5.160  1.0497  0.7082 -0.0039
  318MOL0     C42850   3.355   5.117   4.894  0.4425 -0.8276 -0.1405
  318MOL0     C42851   3.344   4.988   4.837  0.4351  0.6189  0.6705
  318MOL0     C42852   3.446   4.945   4.747  0.1801 -0.8734  0.2445
  318MOL0     C42853   3.559   5.019   4.721 -0.3350 -0.4450 -0.2193
  318MOL0     O42854   3.665   4.987   4.643  0.2880 -0.7967  0.4526
  318MOL0     C42855   3.645   4.876   4.545 -0.0245 -0.1350  0.1718
  318MOL0     C42856   3.759   4.901   4.451 -0.7997 -0.7152  0.4906
  318MOL0     C42857   3.735   5.020   4.354  0.1521  0.2808  0.5780
  318MOL0     C42858   3.839   5.022   4.243  0.3256  1.9038 -0.0987
  318MOL0     C42859   3.817   5.099   4.122  0.2874 -0.4825  0.0313
  318MOL0     C42860   3.795   5.159   4.015 -0.4218 -0.1832  0.0360
  318MOL0     C42861   3.570   5.143   4.784 -0.1155  0.1064 -0.2950
  318MOL0     C42862   3.468   5.192   4.867  0.6031  0.0092  0.9185
  318MOL0     H42863   2.974   5.312   4.866 -1.4115 -3.0109 -1.5928
  318MOL0     H42864   2.764   5.415   4.980  0.6659  1.1759  1.0766
  318MOL0     H42865   2.632   5.222   5.368 -0.9637  0.4971 -0.8178
  318MOL0     H42866   2.731   5.371   5.406 -1.4099  2.0623  0.8414
  318MOL0     H42867   2.431   5.356   5.354 -0.1594 -0.7694  1.2970
  318MOL0     H42868   2.516   5.404   5.502 -3.1490  1.0009  0.1243
  318MOL0     H42869   2.593   5.606   5.334 -1.1533  1.2310  0.7596
  318MOL0     H42870   2.436   5.558   5.266 -3.8433 -2.3118  2.0146
  318MOL0     H42871   2.487   5.635   5.558  1.8179  1.0949 -1.2574
  318MOL0     H42872   2.435   5.741   5.433  2.5098 -0.3649 -1.9121
  318MOL0     H42873   2.231   5.631   5.384 -0.2124  0.6421  0.0341
  318MOL0     H42874   2.269   5.502   5.496  2.7606 -1.0932 -4.3687
  318MOL0     H42875   2.301   5.664   5.695  1.2766  0.4960  0.0646
  318MOL0     H42876   2.257   5.794   5.583 -1.9227  1.3240  1.5397
  318MOL0     H42877   2.072   5.720   5.733 -3.8740 -0.8905 -0.3527
  318MOL0     H42878   2.043   5.698   5.556  0.2578 -0.8012 -0.2570
  318MOL0     H42879   2.125   5.463   5.717 -0.4738 -0.9119 -0.9171
  318MOL0     H42880   2.051   5.475   5.557 -0.6971 -1.0665  0.9670
  318MOL0     H42881   1.991   5.558   5.935 -0.8783 -1.0918  1.6987
  318MOL0     H42882   1.621   5.484   6.022 -0.3098 -0.0961 -2.3801
  318MOL0     H42883   1.774   5.410   6.091  0.4876 -0.0255  0.5511
  318MOL0     H42884   1.702   5.696   6.092 -0.4160 -2.1619  0.0498
  318MOL0     H42885   1.868   5.648   6.125  0.6652 -0.4626  1.2857
  318MOL0     H42886   1.730   5.680   6.331 -1.6122  0.9079 -0.1550
  318MOL0     H42887   1.788   5.513   6.312  0.7148  1.1342  0.1550
  318MOL0     H42888   1.570   5.501   6.398  2.6404  1.4774  0.1025
  318MOL0     H42889   1.560   5.440   6.239  0.6361  0.1883 -1.0792
  318MOL0     H42890   1.317   5.811   6.243 -1.5283 -0.3433 -2.2259
  318MOL0     H42891   1.073   5.908   6.414  2.1262  1.7079 -0.4160
  318MOL0     H42892   1.113   5.911   6.234 -1.2389  0.3479  0.6233
  318MOL0     H42893   0.964   5.844   6.283 -0.9731  3.2517  0.6525
  318MOL0     H42894   0.835   5.365   6.682 -0.7778  2.3013  1.6765
  318MOL0     H42895   0.610   5.300   6.754  0.7886  0.9314  0.0425
  318MOL0     H42896   0.269   5.530   6.685 -0.0500  1.2840 -0.8173
  318MOL0     H42897   0.275   5.486   6.521  2.5052  0.4248  1.2786
  318MOL0     H42898   0.141   5.311   6.745 -0.9953 -0.1201  0.1892
  318MOL0     H42899   0.071   5.445   6.653 -1.8397 -0.9386 -1.0758
  318MOL0     H42900   0.192   5.205   6.516  0.5006  0.9420  0.1044
  318MOL0     H42901   0.092   5.337   6.443  2.4273  1.8698  0.0081
  318MOL0     H42902  -0.014   5.160   6.654 -0.5126  0.3130 -0.2274
  318MOL0     H42903  -0.099   5.245   6.526 -1.0052 -0.9843  1.4131
  318MOL0     H42904   0.070   4.986   6.507 -1.2770 -0.9559  0.6587
  318MOL0     H42905   0.066   5.087   6.369  3.2336 -0.8849  2.0282
  318MOL0     H42906  -0.198   5.094   6.379 -1.4907 -1.6059  1.1093
  318MOL0     H42907  -0.125   4.948   6.310 -0.3659 -0.5964  0.0299
  318MOL0     H42908  -0.129   4.835   6.535 -0.6712 -0.7785  1.1381
  318MOL0     H42909  -0.285   4.868   6.443 -0.4900  0.8580 -0.7771
  318MOL0     H42910  -0.196   5.026   6.683  0.5779 -2.2718  0.5143
  318MOL0     H42911  -0.323   4.896   6.672  1.3266 -0.5199  0.8435
  318MOL0     H42912   0.441   5.490   6.408 -2.0589 -2.0223  0.3754
  318MOL0     H42913   0.663   5.565   6.346 -1.3862  1.6301  1.0794
  318MOL0     H42914   1.132   5.384   6.415 -2.1522  2.1845  2.3562
  318MOL0     H42915   1.349   5.411   6.344 -0.0056  1.0182 -2.7087
  318MOL0     H42916   2.850   5.165   5.322  0.2138 -2.0090 -0.9322
  318MOL0     H42917   3.030   5.065   5.213  3.3423  0.0940 -3.0241
  318MOL0     H42918   3.261   4.920   4.855 -2.1990  2.3299 -3.5023
  318MOL0     H42919   3.448   4.843   4.711  1.8031 -0.5690 -0.6251
  318MOL0     H42920   3.666   4.776   4.583  1.9623  1.6041  4.1689
  318MOL0     H42921   3.543   4.877   4.505 -0.1915  1.0921  0.5809
  318MOL0     H42922   3.778   4.808   4.396  3.1890 -1.5009  2.7398
  318MOL0     H42923   3.861   4.907   4.491  0.2271  0.8415 -2.1316
  318MOL0     H42924   3.739   5.117   4.403  1.2781  0.1603  0.7661
  318MOL0     H42925   3.642   5.010   4.298  1.4630 -1.1782 -1.5368
  318MOL0     H42926   3.847   4.918   4.210  1.9704  1.9859 -0.0516
  318MOL0     H42927   3.939   5.049   4.279  0.4178 -0.2409  1.4067
  318MOL0     H42928   3.776   5.195   3.916 -0.0249 -0.1052 -0.0131
  318MOL0     H42929   3.656   5.203   4.756 -1.0112  1.4304 -0.2931
  318MOL0     H42930   3.484   5.293   4.904  3.9243  0.4251 -1.2156
  319MOL0     O42931   5.788   9.080   2.409 -0.0172  0.4131  0.0880
  319MOL0     C42932   5.811   8.974   2.472  0.0071  0.7936 -0.2199
  319MOL0     O42933   5.938   8.920   2.498  0.1433 -0.2309  0.3305
  319MOL0     C42934   6.048   8.986   2.465 -1.3705 -0.7390  0.4830
  319MOL0     C42935   6.123   8.920   2.367 -0.4669  0.7367 -0.1731
  319MOL0     C42936   6.245   8.972   2.333 -0.2578 -1.0166 -0.5535
  319MOL0     C42937   6.298   9.091   2.385 -0.1146 -0.6562  0.2886
  319MOL0     O42938   6.422   9.142   2.363  0.0581 -0.4436  0.2562
  319MOL0     C42939   6.520   9.073   2.278  0.5062  0.8824  0.5637
  319MOL0     C42940   6.650   9.160   2.267  0.3237  1.2694  0.2218
  319MOL0     C42941   6.763   9.070   2.217 -0.5649 -0.0426 -0.3691
  319MOL0     C42942   6.899   9.151   2.194  0.4348 -0.6407  1.0723
  319MOL0     C42943   6.996   9.071   2.111  0.2119  0.4744  0.4613
  319MOL0     C42944   7.141   9.125   2.140  0.0016  0.5632 -0.2497
  319MOL0     C42945   7.252   9.110   2.035 -0.0890  0.0388 -0.2707
  319MOL0     C42946   7.218   9.163   1.892 -0.0902  0.0073 -0.4902
  319MOL0     N42947   7.178   9.300   1.895 -0.0223  0.8565 -0.0342
  319MOL0     C42948   7.050   9.357   1.876 -0.9019  0.1350 -0.4810
  319MOL0     C42949   7.060   9.491   1.888  0.5582 -0.2218 -0.1235
  319MOL0     C42950   6.943   9.583   1.879  0.4634 -0.2862  0.1398
  319MOL0     C42951   6.851   9.578   2.006 -0.2914  0.6722  0.1666
  319MOL0     C42952   6.920   9.585   2.142  0.9707 -0.2100 -0.0568
  319MOL0     C42953   6.820   9.555   2.260 -0.3623  0.7322  0.1869
  319MOL0     O42954   6.707   9.648   2.242 -0.3053  0.4820  0.2271
  319MOL0     C42955   6.592   9.623   2.316  0.3236 -0.5881  0.2964
  319MOL0     C42956   6.480   9.565   2.252 -0.5422 -0.4418  0.4711
  319MOL0     C42957   6.364   9.547   2.329  0.1357  0.0101 -0.8279
  319MOL0     C42958   6.252   9.471   2.260  0.4707  0.5154 -0.1908
  319MOL0     C42959   6.348   9.587   2.458 -0.0071  0.0929 -0.1148
  319MOL0     C42960   6.231   9.574   2.543  0.2827 -1.1412 -0.4253
  319MOL0     O42961   6.113   9.510   2.494  0.0765 -0.0071 -0.2578
  319MOL0     C42962   5.995   9.524   2.569 -0.8707 -0.2027  0.1936
  319MOL0     C42963   5.901   9.417   2.543  0.2026  0.8440  0.8026
  319MOL0     C42964   5.771   9.426   2.603 -0.3306  0.2968 -0.4251
  319MOL0     C42965   5.734   9.523   2.694  0.8763 -0.1904 -0.0305
  319MOL0     O42966   5.603   9.529   2.734 -0.1993 -0.3529 -0.1208
  319MOL0     C42967   5.586   9.519   2.879  0.2774 -0.1031  0.2047
  319MOL0     C42968   5.505   9.640   2.949  0.6671  0.3099  0.2506
  319MOL0     C42969   5.355   9.628   2.919 -0.1987 -0.0724 -0.3793
  319MOL0     C42970   5.285   9.512   3.007  1.2974  0.4637  0.1355
  319MOL0     C42971   5.137   9.464   2.957 -0.0925  0.0791 -0.6901
  319MOL0     C42972   5.025   9.573   2.953 -0.0429  0.3259 -0.2924
  319MOL0     C42973   5.015   9.651   3.090 -0.7544 -1.0335  0.0414
  319MOL0     C42974   4.924   9.769   3.074  0.0981  0.3583 -0.1185
  319MOL0    Cl42975   4.764   9.712   3.029 -0.2371 -0.0857  0.0070
  319MOL0     C42976   5.820   9.631   2.711  1.0279 -0.5697 -0.0356
  319MOL0     C42977   5.951   9.623   2.663  0.1180  0.1341  0.7178
  319MOL0     O42978   6.239   9.642   2.651 -0.1431 -0.2925  0.6900
  319MOL0     C42979   6.464   9.652   2.510  0.5023  0.1826 -0.6033
  319MOL0     C42980   6.579   9.678   2.435  0.7359  0.2020 -0.3662
  319MOL0     N42981   7.198   9.513   1.907  0.4288 -0.1632  0.6306
  319MOL0     N42982   7.267   9.401   1.904 -0.1231  0.3327  0.2250
  319MOL0     C42983   6.216   9.162   2.474 -0.1660  0.3676  0.7183
  319MOL0     C42984   6.093   9.107   2.522 -0.4592 -0.5720 -0.4180
  319MOL0     C42985   5.696   8.892   2.501  1.0871 -0.3560  0.3994
  319MOL0     C42986   5.694   8.799   2.600 -0.2685  0.5604 -0.2459
  319MOL0     C42987   5.589   8.714   2.624 -0.2557  0.0466 -0.4910
  319MOL0     C42988   5.465   8.720   2.564  0.0683 -0.9022 -0.4792
  319MOL0     O42989   5.357   8.644   2.594 -0.8746  0.2259  0.1141
  319MOL0     C42990   5.266   8.717   2.675  0.7061  0.0429  0.6611
  319MOL0     C42991   5.134   8.636   2.684 -0.2053  0.5044  0.6936
  319MOL0     C42992   5.089   8.622   2.835  0.1614 -0.2199  0.2470
  319MOL0     C42993   4.951   8.558   2.867 -0.6890  0.1769 -0.2725
  319MOL0     C42994   4.898   8.475   2.756  0.3922 -0.5809 -0.6479
  319MOL0     C42995   4.846   8.408   2.674  0.7161 -1.2003  0.1376
  319MOL0     C42996   5.462   8.822   2.468  0.1373 -0.6483  0.5872
  319MOL0     C42997   5.567   8.902   2.436 -0.3743 -0.3106 -0.7088
  319MOL0     H42998   6.097   8.822   2.327 -0.1469  0.1852  0.9112
  319MOL0     H42999   6.307   8.920   2.260 -1.7961 -1.5834 -1.4976
  319MOL0     H43000   6.555   8.980   2.324 -0.8010  0.8693  1.5790
  319MOL0     H43001   6.478   9.054   2.179 -0.9378  0.7432  1.1896
  319MOL0     H43002   6.619   9.241   2.201  0.2992  1.1754  0.1179
  319MOL0     H43003   6.673   9.191   2.370 -0.5559 -0.8826  1.1151
  319MOL0     H43004   6.774   8.981   2.280 -0.0495  0.2469 -0.0459
  319MOL0     H43005   6.738   9.032   2.117 -0.6123  3.0233 -1.6332
  319MOL0     H43006   6.877   9.248   2.148 -5.1343 -1.9136  0.3912
  319MOL0     H43007   6.942   9.174   2.292  0.1443 -3.6164  1.9959
  319MOL0     H43008   6.989   8.966   2.139 -1.4260  0.3022 -0.4852
  319MOL0     H43009   6.973   9.070   2.004 -1.3745 -2.2095  0.7581
  319MOL0     H43010   7.140   9.230   2.171  0.4504  0.6412 -0.4835
  319MOL0     H43011   7.168   9.067   2.229  0.1686  0.1858 -0.5457
  319MOL0     H43012   7.343   9.160   2.069  1.1142 -1.7759 -0.6491
  319MOL0     H43013   7.288   9.008   2.021  3.0893  0.9072  0.7798
  319MOL0     H43014   7.139   9.102   1.848 -1.4767  1.2720  0.1668
  319MOL0     H43015   7.306   9.155   1.826  0.5010 -2.5695  0.4934
  319MOL0     H43016   6.959   9.303   1.851 -1.7614  1.6154 -0.6135
  319MOL0     H43017   6.980   9.685   1.887 -0.5360  0.1821 -0.8514
  319MOL0     H43018   6.878   9.572   1.791  0.7550 -2.7579  0.1566
  319MOL0     H43019   6.794   9.485   2.005  0.3586  0.2537 -1.5777
  319MOL0     H43020   6.781   9.657   1.977  1.0856  0.8686 -3.1148
  319MOL0     H43021   6.970   9.682   2.147 -0.7705  0.8727 -2.0662
  319MOL0     H43022   7.003   9.514   2.144  0.1068 -1.3014 -0.9235
  319MOL0     H43023   6.875   9.575   2.353 -0.5487  0.0605  0.4497
  319MOL0     H43024   6.795   9.449   2.269 -0.3763  0.4361 -2.6650
  319MOL0     H43025   6.476   9.528   2.150 -0.4930  0.5116  0.1175
  319MOL0     H43026   6.169   9.534   2.227  0.5190 -0.4508 -2.2882
  319MOL0     H43027   6.282   9.433   2.162 -0.8041  1.7406 -1.1068
  319MOL0     H43028   6.202   9.386   2.308 -1.6188  0.1989 -2.7256
  319MOL0     H43029   5.924   9.337   2.474 -0.4408  2.6834 -1.6797
  319MOL0     H43030   5.698   9.351   2.573 -3.8557  2.7260  1.3648
  319MOL0     H43031   5.526   9.431   2.904 -1.0050  0.2570 -1.4602
  319MOL0     H43032   5.679   9.503   2.934 -0.5009 -0.4091  1.4823
  319MOL0     H43033   5.526   9.639   3.056 -2.6213 -0.1515  1.0231
  319MOL0     H43034   5.525   9.737   2.902 -0.5000 -0.3742 -1.8365
  319MOL0     H43035   5.341   9.608   2.812  3.0180 -0.6205 -0.7930
  319MOL0     H43036   5.308   9.724   2.944  0.2263 -0.0634  0.4071
  319MOL0     H43037   5.343   9.420   3.020  3.4426  1.7875  0.4817
  319MOL0     H43038   5.270   9.559   3.105  0.3002  2.7754 -1.0418
  319MOL0     H43039   5.102   9.379   3.015 -0.6738  0.4234 -0.5282
  319MOL0     H43040   5.156   9.425   2.857 -2.0836 -0.8132 -0.7559
  319MOL0     H43041   5.038   9.641   2.868  2.0037  0.1696 -0.1587
  319MOL0     H43042   4.931   9.521   2.933 -1.6086  2.0473  2.0559
  319MOL0     H43043   5.113   9.690   3.122 -0.5472  0.6097 -2.3298
  319MOL0     H43044   4.982   9.584   3.170  0.4895 -0.2188  1.3028
  319MOL0     H43045   4.959   9.826   2.988 -1.1950 -1.6604 -2.0862
  319MOL0     H43046   4.919   9.835   3.161 -1.0030 -0.1675  0.2395
  319MOL0     H43047   5.794   9.710   2.781  4.6758 -1.8096  3.1121
  319MOL0     H43048   6.020   9.704   2.685 -2.1206  2.6236 -0.7512
  319MOL0     H43049   6.463   9.692   2.612  3.9062  1.1076 -0.8008
  319MOL0     H43050   6.656   9.734   2.487 -0.5747  1.3869  0.3866
  319MOL0     H43051   6.246   9.258   2.513  3.2002  0.3348 -1.3338
  319MOL0     H43052   6.041   9.153   2.605  1.8177 -0.0332  0.8159
  319MOL0     H43053   5.776   8.786   2.670 -0.8905 -0.2506  0.3613
  319MOL0     H43054   5.609   8.634   2.695 -3.2673  0.4945  1.0255
  319MOL0     H43055   5.312   8.743   2.771  0.7929  2.7625 -0.0506
  319MOL0     H43056   5.236   8.813   2.634 -1.2907 -0.3246  1.1486
  319MOL0     H43057   5.133   8.543   2.626 -2.5600  2.0426 -2.0506
  319MOL0     H43058   5.056   8.702   2.644 -0.3896  2.1957  3.5509
  319MOL0     H43059   5.095   8.721   2.881 -2.6614  0.4124 -0.5393
  319MOL0     H43060   5.152   8.551   2.889 -0.5935 -2.3937 -1.6147
  319MOL0     H43061   4.886   8.645   2.873 -0.9317  0.1620 -2.0434
  319MOL0     H43062   4.954   8.498   2.958  0.2515 -1.3043 -1.2348
  319MOL0     H43063   4.805   8.355   2.590  1.8302  0.5257 -1.5702
  319MOL0     H43064   5.366   8.824   2.417  0.2770  0.5042  0.3514
  319MOL0     H43065   5.568   8.977   2.357  2.2651  1.3217  0.7302
  320MOL0     O43066   9.790   9.840   7.681 -0.2881  0.3216 -0.4769
  320MOL0     C43067   9.783   9.754   7.769 -0.5777 -0.6046 -0.1683
  320MOL0     O43068   9.660   9.698   7.812  0.0623 -0.0278 -0.0453
  320MOL0     C43069   9.542   9.748   7.757  0.1765  0.0804  0.2937
  320MOL0     C43070   9.456   9.807   7.846 -0.3521 -0.2733  1.0179
  320MOL0     C43071   9.334   9.861   7.800  0.5700 -0.6487  0.0340
  320MOL0     C43072   9.289   9.871   7.670  0.3119 -0.5632 -0.3650
  320MOL0     O43073   9.166   9.913   7.615  0.1323  0.0010  0.2630
  320MOL0     C43074   9.059   9.893   7.712  0.0679 -0.2580 -0.7152
  320MOL0     C43075   8.928   9.874   7.631  0.4833  1.4156  0.7112
  320MOL0     C43076   8.806   9.891   7.716 -0.8491 -0.7225 -0.1782
  320MOL0     C43077   8.683   9.897   7.618 -0.4035  0.1015  0.1762
  320MOL0     C43078   8.552   9.950   7.679  1.0020 -0.5842 -0.5188
  320MOL0     C43079   8.454   9.968   7.560  0.5477 -0.6453  0.7721
  320MOL0     C43080   8.310  10.005   7.613  0.3904  1.5146 -0.0583
  320MOL0     C43081   8.214  10.057   7.508  0.5493 -0.2396 -0.3530
  320MOL0     N43082   8.082  10.085   7.567 -0.0034 -0.3664 -0.8077
  320MOL0     C43083   7.996   9.990   7.607  0.1987  0.4663 -0.3826
  320MOL0     C43084   7.902  10.050   7.683  0.4247  0.5582  0.7540
  320MOL0     C43085   7.782   9.978   7.749  0.0376 -0.0285  0.2090
  320MOL0     C43086   7.654  10.065   7.779 -0.5078 -0.2004 -0.6308
  320MOL0     C43087   7.582  10.132   7.659  0.8395  0.5473 -0.0199
  320MOL0     C43088   7.557  10.022   7.550  0.1296 -0.7620  0.1632
  320MOL0     O43089   7.460   9.928   7.611 -0.4385  0.3955  0.6497
  320MOL0     C43090   7.332   9.933   7.568  0.3726 -0.8648  0.6781
  320MOL0     C43091   7.260  10.050   7.523  0.8127 -0.1386 -0.1342
  320MOL0     C43092   7.117  10.040   7.513 -0.5700  0.8048  0.8014
  320MOL0     C43093   7.039  10.158   7.452  0.2968 -1.0029 -0.7505
  320MOL0     C43094   7.045   9.927   7.543  0.5746 -0.2088  0.5194
  320MOL0     C43095   6.891   9.921   7.561 -0.2367  0.5488 -0.2498
  320MOL0     O43096   6.827  10.035   7.574 -0.5924  0.1804  0.2582
  320MOL0     C43097   6.694  10.040   7.562 -0.0628 -0.6430  0.1492
  320MOL0     C43098   6.618  10.073   7.675  0.8685 -0.0599 -0.5294
  320MOL0     C43099   6.477  10.102   7.668 -0.1087  0.6349  0.5294
  320MOL0     C43100   6.413  10.107   7.542 -0.8261 -0.6861 -0.4838
  320MOL0     O43101   6.279  10.129   7.515 -0.2011 -0.2168  0.1306
  320MOL0     C43102   6.195  10.180   7.615  0.2134  0.1106  0.2479
  320MOL0     C43103   6.045  10.172   7.585 -0.8422 -0.2895  0.2433
  320MOL0     C43104   6.004  10.029   7.589 -0.6998  0.1124 -0.1424
  320MOL0     C43105   5.850  10.022   7.627 -0.3770 -0.5454 -0.1915
  320MOL0     C43106   5.804   9.872   7.631  0.9263  0.0203  0.5417
  320MOL0     C43107   5.734   9.845   7.492 -0.4588 -0.4760 -0.2997
  320MOL0     C43108   5.708   9.701   7.468  0.4774  0.6475 -0.1333
  320MOL0     C43109   5.830   9.633   7.413  0.7887 -0.1970  0.3060
  320MOL0    Cl43110   5.953   9.588   7.534  0.0055  0.0307  0.1770
  320MOL0     C43111   6.493  10.061   7.428 -0.4537 -0.2883 -0.1942
  320MOL0     C43112   6.636  10.030   7.434  0.0472 -0.0633 -0.2255
  320MOL0     O43113   6.846   9.809   7.573  0.2706 -0.3681  0.1547
  320MOL0     C43114   7.123   9.818   7.582  0.4169 -0.0729  0.3460
  320MOL0     C43115   7.263   9.822   7.593  0.0197 -0.3972  1.3169
  320MOL0     N43116   7.932  10.185   7.683 -0.1079 -0.4617 -0.2586
  320MOL0     N43117   8.037  10.209   7.608  0.2021 -0.0842 -0.6602
  320MOL0     C43118   9.385   9.820   7.585 -0.2593 -0.2255 -0.1574
  320MOL0     C43119   9.513   9.761   7.621  0.4270 -0.4449  0.0979
  320MOL0     C43120   9.907   9.695   7.826 -0.9076 -0.2255  0.8076
  320MOL0     C43121  10.035   9.712   7.766  0.0409  0.6731 -0.0668
  320MOL0     C43122  10.149   9.664   7.827 -0.5598 -0.6770  0.2290
  320MOL0     C43123  10.135   9.578   7.947 -0.2533  0.3116 -0.3672
  320MOL0     O43124  10.232   9.522   8.024 -0.4631  0.0008 -0.5704
  320MOL0     C43125  10.365   9.505   7.965 -0.5283  0.1053 -0.0826
  320MOL0     C43126  10.441   9.392   8.022 -0.5424  0.0012 -1.0193
  320MOL0     C43127  10.569   9.359   7.944 -0.0337  0.0269  0.1950
  320MOL0     C43128  10.660   9.477   7.928  0.4253 -0.0126  0.0918
  320MOL0     C43129  10.793   9.444   7.877 -0.5002  0.0325 -0.5917
  320MOL0     C43130  10.907   9.436   7.834 -0.1369  0.4485 -0.5731
  320MOL0     C43131  10.007   9.563   7.998 -0.0245 -0.4288 -0.3862
  320MOL0     C43132   9.895   9.627   7.943 -0.3382  0.3956  0.0733
  320MOL0     H43133   9.476   9.813   7.953  0.2009 -1.7055  1.0081
  320MOL0     H43134   9.271   9.914   7.871 -0.8657 -0.1149 -1.5874
  320MOL0     H43135   9.065   9.802   7.773  0.8936  0.8015  0.8597
  320MOL0     H43136   9.045   9.979   7.778 -1.7716 -0.5049 -0.7266
  320MOL0     H43137   8.930   9.956   7.558  0.4292  1.6889  1.0126
  320MOL0     H43138   8.921   9.776   7.584 -1.2449  1.1531  1.4286
  320MOL0     H43139   8.794   9.809   7.788 -0.5911 -1.0116 -0.4606
  320MOL0     H43140   8.807   9.985   7.772 -0.2223 -1.4389  1.0626
  320MOL0     H43141   8.706   9.965   7.536  3.0628 -0.7629  0.2777
  320MOL0     H43142   8.667   9.797   7.576  1.8885 -1.1933  2.1413
  320MOL0     H43143   8.513   9.864   7.735  0.5072 -0.2902 -0.4114
  320MOL0     H43144   8.570  10.040   7.738  1.6649  0.2999 -1.9998
  320MOL0     H43145   8.489  10.052   7.500  0.8338 -1.4423 -0.2027
  320MOL0     H43146   8.456   9.876   7.500 -2.9027 -1.1692  1.2472
  320MOL0     H43147   8.271   9.914   7.658  0.2104  0.8717 -1.4798
  320MOL0     H43148   8.311  10.079   7.694  1.9699  2.5915 -1.0150
  320MOL0     H43149   8.195   9.979   7.434 -2.0015  0.4371 -0.5315
  320MOL0     H43150   8.240  10.152   7.461 -0.0458 -0.8786 -2.0517
  320MOL0     H43151   8.014   9.884   7.600  1.4796  0.7260 -1.7766
  320MOL0     H43152   7.755   9.886   7.697  0.9879 -0.2836  0.1653
  320MOL0     H43153   7.821   9.963   7.850 -0.6114  3.3580  1.1003
  320MOL0     H43154   7.684  10.146   7.846 -0.9735 -0.8817  0.4113
  320MOL0     H43155   7.592   9.999   7.840 -1.1891 -0.0674 -1.1655
  320MOL0     H43156   7.637  10.212   7.610 -1.5505 -0.0094 -3.9907
  320MOL0     H43157   7.489  10.167   7.705  0.6392  0.0308 -0.0220
  320MOL0     H43158   7.651   9.968   7.535  0.7121  0.1987  0.2573
  320MOL0     H43159   7.525  10.069   7.456 -1.4587 -0.7788  0.6745
  320MOL0     H43160   7.313  10.142   7.502  1.5879 -1.1711 -3.1641
  320MOL0     H43161   6.948  10.129   7.400 -0.4823 -3.2265  1.6169
  320MOL0     H43162   7.016  10.233   7.529 -1.0649 -2.1480  0.0037
  320MOL0     H43163   7.112  10.196   7.379  2.3076 -2.4941  0.3652
  320MOL0     H43164   6.672  10.069   7.770  3.0910 -0.9746 -1.7494
  320MOL0     H43165   6.423  10.134   7.757  0.0174  0.3168  0.7208
  320MOL0     H43166   6.218  10.135   7.712  2.1552  1.7512  0.6226
  320MOL0     H43167   6.214  10.287   7.620  1.2806 -0.0530 -0.1662
  320MOL0     H43168   5.992  10.239   7.652 -1.9401  0.1223 -0.9996
  320MOL0     H43169   6.034  10.199   7.479 -0.3979 -0.1321  0.2360
  320MOL0     H43170   6.063   9.971   7.661 -3.9710 -1.9582  1.0486
  320MOL0     H43171   6.023   9.982   7.492  0.9771  1.1730 -0.3879
  320MOL0     H43172   5.848  10.060   7.730 -0.3195 -1.2243  0.0662
  320MOL0     H43173   5.790  10.091   7.567 -2.2236 -0.8616  1.2085
  320MOL0     H43174   5.741   9.865   7.720  1.8232 -0.2588  1.1795
  320MOL0     H43175   5.894   9.812   7.650  0.8909 -0.2068  0.0119
  320MOL0     H43176   5.640   9.898   7.475 -1.2358 -1.8402 -0.4535
  320MOL0     H43177   5.803   9.879   7.415  1.0397 -0.0760  1.1746
  320MOL0     H43178   5.627   9.690   7.396  1.5999 -0.4436 -1.3023
  320MOL0     H43179   5.681   9.644   7.557 -1.5415 -0.3642 -1.3287
  320MOL0     H43180   5.881   9.687   7.332  0.4597 -1.9661 -1.1532
  320MOL0     H43181   5.790   9.542   7.368 -0.4600  1.3923 -1.9830
  320MOL0     H43182   6.441  10.036   7.336 -0.1301  0.4428 -0.5826
  320MOL0     H43183   6.703  10.002   7.353  1.3088  2.8200 -0.3076
  320MOL0     H43184   7.077   9.723   7.605  0.7757 -0.1598  0.7005
  320MOL0     H43185   7.324   9.735   7.617 -0.9302 -1.5503 -0.2648
  320MOL0     H43186   9.369   9.821   7.478  0.2907  0.7564 -0.2407
  320MOL0     H43187   9.585   9.730   7.545  0.5057  1.2527 -0.5872
  320MOL0     H43188  10.047   9.760   7.669 -1.8360 -1.4527 -1.4469
  320MOL0     H43189  10.246   9.677   7.780 -1.4583 -0.4554 -1.6471
  320MOL0     H43190  10.357   9.498   7.856  1.1132  2.0540 -0.4016
  320MOL0     H43191  10.428   9.592   7.988 -1.2343  1.7855 -3.7198
  320MOL0     H43192  10.375   9.306   8.020  0.9498 -1.3470  1.9509
  320MOL0     H43193  10.480   9.408   8.123 -0.3438 -1.5107 -0.8308
  320MOL0     H43194  10.550   9.319   7.845  1.5917  2.0680 -1.0347
  320MOL0     H43195  10.628   9.282   7.995  1.9284  1.3544  0.0570
  320MOL0     H43196  10.670   9.525   8.026 -0.9574  0.7908 -0.1518
  320MOL0     H43197  10.623   9.560   7.867  1.4159  0.8965  0.6764
  320MOL0     H43198  11.010   9.444   7.807  0.3932  0.5129  1.3046
  320MOL0     H43199   9.984   9.485   8.070 -2.6495  1.2226  0.7105
  320MOL0     H43200   9.804   9.602   7.996 -0.4819  0.1936 -0.2697
  321MOL0     O43201   2.665  10.709   9.126  0.1101  0.8389  0.5082
  321MOL0     C43202   2.695  10.597   9.095 -0.8221  0.7972  0.5215
  321MOL0     O43203   2.621  10.506   9.026  0.1306  0.0243  0.1226
  321MOL0     C43204   2.488  10.525   8.998 -0.4209 -0.7038 -0.4493
  321MOL0     C43205   2.395  10.558   9.097  0.1157 -0.7145 -0.0643
  321MOL0     C43206   2.260  10.531   9.069  0.4611 -0.1051 -0.3220
  321MOL0     C43207   2.208  10.487   8.950  0.1709 -0.2319  0.4420
  321MOL0     O43208   2.080  10.443   8.925  0.1827  0.3743  0.2695
  321MOL0     C43209   2.018  10.382   9.040  0.6352  0.0305  0.1363
  321MOL0     C43210   1.899  10.304   8.997 -0.1129  0.0561 -0.2744
  321MOL0     C43211   1.913  10.173   8.917  0.0118  0.5086  0.5239
  321MOL0     C43212   1.958  10.203   8.768  0.0892  0.3944  0.4111
  321MOL0     C43213   2.036  10.081   8.720  0.1480  0.5561 -0.5285
  321MOL0     C43214   2.061  10.077   8.577 -0.5594  0.8509 -0.4900
  321MOL0     C43215   2.136  10.207   8.525 -0.3190  0.1612  0.7547
  321MOL0     C43216   2.208  10.193   8.387 -0.4585 -0.9341 -0.7471
  321MOL0     N43217   2.125  10.132   8.276  0.1615 -0.5470 -1.3128
  321MOL0     C43218   2.031  10.208   8.206  0.0046  0.4212 -0.6016
  321MOL0     C43219   1.952  10.115   8.146  0.4616 -0.3336  0.2980
  321MOL0     C43220   1.842  10.115   8.048  0.1821 -0.3551 -0.6499
  321MOL0     C43221   1.897  10.130   7.905 -0.8541 -0.8319 -0.4121
  321MOL0     C43222   1.791  10.154   7.792 -0.0216  0.2926 -0.5771
  321MOL0     C43223   1.683  10.039   7.790  0.6515 -0.6009 -0.0918
  321MOL0     O43224   1.748   9.918   7.748 -0.7911 -0.7349  0.5059
  321MOL0     C43225   1.720   9.790   7.795 -0.8764  0.5071  0.3950
  321MOL0     C43226   1.763   9.679   7.715 -0.3465 -0.3539  0.2563
  321MOL0     C43227   1.750   9.549   7.766  1.3275  0.3520 -0.1120
  321MOL0     C43228   1.823   9.447   7.679  0.2369 -1.0867 -0.1500
  321MOL0     C43229   1.696   9.524   7.895 -0.0812  0.2649 -0.4049
  321MOL0     C43230   1.683   9.378   7.950 -0.1250 -0.6814 -0.4358
  321MOL0     O43231   1.765   9.283   7.901  0.7414  0.0690  0.9685
  321MOL0     C43232   1.723   9.156   7.930  0.5813  0.4740 -0.7509
  321MOL0     C43233   1.639   9.085   7.845  0.5136  0.7212  0.6508
  321MOL0     C43234   1.588   8.963   7.884 -0.2824  0.7828  0.2977
  321MOL0     C43235   1.634   8.913   8.006  1.1672 -0.3940 -0.1971
  321MOL0     O43236   1.597   8.790   8.059 -0.3574  0.6611  0.0033
  321MOL0     C43237   1.522   8.697   7.978 -0.0472  0.0647  0.8912
  321MOL0     C43238   1.491   8.564   8.045  0.9892  0.2802 -0.4967
  321MOL0     C43239   1.410   8.453   7.962 -0.5966  0.1281  0.1058
  321MOL0     C43240   1.262   8.470   7.937  0.0041 -0.2423 -0.5212
  321MOL0     C43241   1.211   8.356   7.843  0.2953 -0.9970 -0.2576
  321MOL0     C43242   1.181   8.212   7.901  0.0098  0.2043  0.3766
  321MOL0     C43243   1.120   8.118   7.795 -0.0289 -0.5898 -0.1824
  321MOL0     C43244   1.087   7.985   7.860  0.1034 -0.0138  0.1225
  321MOL0    Cl43245   1.031   7.864   7.737 -0.3213  0.3800 -0.0018
  321MOL0     C43246   1.738   8.971   8.083  0.0094  0.3303 -0.8151
  321MOL0     C43247   1.785   9.097   8.047  0.9156 -0.1182  0.2306
  321MOL0     O43248   1.606   9.363   8.046  0.6291 -0.1503 -0.6804
  321MOL0     C43249   1.646   9.629   7.963  0.2736 -1.2856 -0.6390
  321MOL0     C43250   1.653   9.760   7.911  0.1887 -0.5121  0.7846
  321MOL0     N43251   2.003   9.993   8.187 -0.0784 -0.0972  0.7957
  321MOL0     N43252   2.110  10.004   8.266  0.6362 -0.3070  0.2511
  321MOL0     C43253   2.304  10.454   8.852 -0.3134 -0.5176 -0.5789
  321MOL0     C43254   2.443  10.477   8.871  0.0149  0.5172 -0.0632
  321MOL0     C43255   2.828  10.554   9.140 -0.0806 -0.5376  0.7598
  321MOL0     C43256   2.897  10.442   9.083  0.3966 -0.5186 -0.5406
  321MOL0     C43257   3.025  10.407   9.126  0.2058  0.0263  0.5050
  321MOL0     C43258   3.091  10.475   9.228 -0.4221 -0.7253 -0.1062
  321MOL0     O43259   3.220  10.455   9.276  0.2646 -0.0601 -0.2910
  321MOL0     C43260   3.269  10.323   9.250  0.4929 -0.6669 -0.1391
  321MOL0     C43261   3.410  10.302   9.285  0.2903 -0.8882 -1.0151
  321MOL0     C43262   3.508  10.376   9.187  1.1247  0.1549 -0.7819
  321MOL0     C43263   3.534  10.522   9.223 -0.1446 -0.2704 -0.2856
  321MOL0     C43264   3.439  10.612   9.163  0.0387 -0.0763  0.9124
  321MOL0     C43265   3.364  10.692   9.110 -0.5984  0.2493  0.2996
  321MOL0     C43266   3.024  10.591   9.272  0.7092  0.5983  0.4092
  321MOL0     C43267   2.897  10.632   9.233 -0.4810  0.3455 -0.1932
  321MOL0     H43268   2.438  10.593   9.190  1.5009  0.6745 -1.1801
  321MOL0     H43269   2.185  10.533   9.147 -0.4951 -0.7680 -1.1963
  321MOL0     H43270   2.088  10.318   9.094 -0.6498  0.5839  2.6175
  321MOL0     H43271   2.002  10.472   9.100  1.9984  1.0279 -0.9527
  321MOL0     H43272   1.850  10.279   9.091  0.1490  2.2474  0.5051
  321MOL0     H43273   1.826  10.373   8.954 -1.3808  0.4111  2.2570
  321MOL0     H43274   1.974  10.101   8.972 -2.6663 -0.7072  2.1487
  321MOL0     H43275   1.813  10.131   8.903  1.3630 -2.4650 -1.4319
  321MOL0     H43276   1.871  10.215   8.703  0.5250  2.1692  0.0999
  321MOL0     H43277   2.023  10.290   8.758  0.7526 -0.1294  0.0263
  321MOL0     H43278   2.132  10.070   8.770 -0.1763  1.8028  0.3970
  321MOL0     H43279   1.981   9.988   8.742  0.7954  0.4736  0.8209
  321MOL0     H43280   2.127   9.991   8.557 -1.3464  0.1894 -0.3192
  321MOL0     H43281   1.969  10.073   8.518 -1.4725  0.7521  0.8909
  321MOL0     H43282   2.069  10.294   8.524 -2.1594 -1.1407  2.8754
  321MOL0     H43283   2.208  10.243   8.600  1.0118 -0.3228 -0.2490
  321MOL0     H43284   2.298  10.132   8.397  2.2501  3.0695  2.8341
  321MOL0     H43285   2.246  10.293   8.363  1.5652 -1.6631 -0.7337
  321MOL0     H43286   2.026  10.315   8.185 -1.2238  0.2852 -1.0494
  321MOL0     H43287   1.799  10.014   8.048  1.6087 -0.9900 -1.3134
  321MOL0     H43288   1.767  10.194   8.061  1.7802  1.1156  0.0018
  321MOL0     H43289   1.963  10.047   7.878 -0.2454  0.0602 -1.8340
  321MOL0     H43290   1.942  10.230   7.909 -0.1162 -1.0001 -2.8397
  321MOL0     H43291   1.842  10.151   7.696  0.5620  0.1026 -0.2627
  321MOL0     H43292   1.735  10.246   7.812 -1.4428 -0.9370  1.5491
  321MOL0     H43293   1.598  10.057   7.723  1.8818  0.1593 -1.5181
  321MOL0     H43294   1.643  10.039   7.891 -1.4804 -1.4842 -0.8685
  321MOL0     H43295   1.808   9.687   7.617 -3.1113 -1.3358 -1.1702
  321MOL0     H43296   1.781   9.346   7.692 -0.6999 -0.4472  2.3157
  321MOL0     H43297   1.828   9.485   7.577 -0.8996  1.5338  0.7017
  321MOL0     H43298   1.928   9.433   7.705  1.5383  2.3480 -2.8529
  321MOL0     H43299   1.609   9.133   7.752  2.7287  1.3296  0.1914
  321MOL0     H43300   1.536   8.902   7.811  0.8625  0.8833 -0.6440
  321MOL0     H43301   1.424   8.738   7.955 -0.3093 -1.1646 -0.2672
  321MOL0     H43302   1.564   8.687   7.878 -1.5944  2.6575 -0.1101
  321MOL0     H43303   1.582   8.530   8.096  0.3087 -0.4197  0.2856
  321MOL0     H43304   1.413   8.577   8.121  2.2958 -0.3064  0.9989
  321MOL0     H43305   1.422   8.352   8.003 -2.9490 -0.1244  0.2803
  321MOL0     H43306   1.467   8.448   7.869  0.6249 -0.5293  0.8636
  321MOL0     H43307   1.216   8.472   8.036 -0.5051 -0.0355 -0.7608
  321MOL0     H43308   1.250   8.568   7.891  1.9278 -0.6130 -1.9273
  321MOL0     H43309   1.279   8.343   7.758 -0.9092 -3.5298 -0.9281
  321MOL0     H43310   1.124   8.385   7.784  2.5798 -1.3619 -4.1713
  321MOL0     H43311   1.271   8.165   7.940  0.3110 -0.5217 -1.0999
  321MOL0     H43312   1.101   8.219   7.976 -3.2782 -1.0363 -2.6730
  321MOL0     H43313   1.195   8.116   7.715  0.8638 -0.0128  0.6093
  321MOL0     H43314   1.033   8.163   7.747  0.0965  0.6810  0.7137
  321MOL0     H43315   1.001   7.998   7.926 -0.0422  1.2853 -0.2965
  321MOL0     H43316   1.172   7.939   7.913  0.6773  0.8745 -0.0023
  321MOL0     H43317   1.776   8.934   8.178  1.8185  1.5238 -1.0381
  321MOL0     H43318   1.858   9.156   8.101 -0.5398  1.4571  0.5856
  321MOL0     H43319   1.601   9.611   8.060  0.7576 -2.2113 -0.5677
  321MOL0     H43320   1.613   9.839   7.974  1.6374 -1.1441  2.6106
  321MOL0     H43321   2.281  10.405   8.758  2.1114 -1.5379 -0.7078
  321MOL0     H43322   2.519  10.454   8.797  1.8049  1.8353  1.2665
  321MOL0     H43323   2.849  10.387   9.002  0.4420  1.6388 -2.1414
  321MOL0     H43324   3.070  10.315   9.090  0.2721 -0.2856  1.3550
  321MOL0     H43325   3.209  10.249   9.303  0.0048 -0.9748 -1.0924
  321MOL0     H43326   3.264  10.305   9.142  0.1504 -3.5505  0.2745
  321MOL0     H43327   3.437  10.196   9.291 -1.0564 -1.3137 -2.0794
  321MOL0     H43328   3.411  10.338   9.388 -2.8741  0.3507 -1.3175
  321MOL0     H43329   3.465  10.374   9.087 -0.0334 -1.9038 -0.2948
  321MOL0     H43330   3.600  10.317   9.191 -0.3430 -2.3161 -1.9074
  321MOL0     H43331   3.637  10.537   9.190  0.5635 -4.5312 -0.6303
  321MOL0     H43332   3.536  10.533   9.332  0.3194  1.2256 -0.4264
  321MOL0     H43333   3.300  10.769   9.071  0.1910 -0.0642 -1.7103
  321MOL0     H43334   3.071  10.655   9.346 -0.2305  0.6179  1.0062
  321MOL0     H43335   2.850  10.718   9.278  1.4181  1.0245  0.5968
  322MOL0     O43336   0.259   1.179   5.233  0.2969 -0.1016  0.1598
  322MOL0     C43337   0.316   1.105   5.157 -0.0665  0.1883  0.4811
  322MOL0     O43338   0.268   1.005   5.084  0.7943 -0.2545 -0.2388
  322MOL0     C43339   0.155   0.951   5.130  0.5869  0.1010  0.1854
  322MOL0     C43340   0.162   0.826   5.193  0.8149  0.8465 -0.1745
  322MOL0     C43341   0.042   0.765   5.241 -0.4057  0.4481 -0.1597
  322MOL0     C43342  -0.082   0.833   5.210 -0.3133  0.0249  0.1916
  322MOL0     O43343  -0.197   0.779   5.254 -0.0393  0.0947 -0.1627
  322MOL0     C43344  -0.293   0.743   5.157  0.7554  0.6419  0.9351
  322MOL0     C43345  -0.439   0.745   5.205  0.5555 -0.2457  0.3848
  322MOL0     C43346  -0.485   0.622   5.285  0.2558  0.0594  0.9149
  322MOL0     C43347  -0.612   0.652   5.363 -0.3465 -0.4832 -0.0843
  322MOL0     C43348  -0.654   0.535   5.455  0.6259 -0.0213 -0.4592
  322MOL0     C43349  -0.795   0.564   5.521  0.1237 -0.3647  0.3886
  322MOL0     C43350  -0.813   0.471   5.642 -0.0274 -0.4798 -0.3551
  322MOL0     C43351  -0.920   0.523   5.737 -0.2607 -0.8225  0.3927
  322MOL0     N43352  -1.060   0.507   5.702  0.8437  1.0997 -0.1160
  322MOL0     C43353  -1.138   0.532   5.588 -0.3483 -0.3990 -0.7373
  322MOL0     C43354  -1.262   0.485   5.620 -0.1040  0.0139 -0.0813
  322MOL0     C43355  -1.382   0.479   5.525 -0.6101  0.5836  0.8073
  322MOL0     C43356  -1.383   0.358   5.425  0.0397 -0.4649  1.1978
  322MOL0     C43357  -1.379   0.222   5.493 -0.3772  0.2954 -0.1995
  322MOL0     C43358  -1.374   0.108   5.387  0.3485  0.4166 -1.4681
  322MOL0     O43359  -1.297  -0.004   5.445  0.5746  0.1225 -0.3089
  322MOL0     C43360  -1.156  -0.003   5.432 -0.1406 -0.0487 -0.0195
  322MOL0     C43361  -1.088  -0.122   5.455  0.2629  0.6174 -0.3304
  322MOL0     C43362  -0.946  -0.135   5.451 -0.1078  0.3336 -0.7775
  322MOL0     C43363  -0.890  -0.269   5.482 -0.4908 -0.0523 -0.4260
  322MOL0     C43364  -0.875  -0.018   5.411 -0.4793 -1.2797 -0.4982
  322MOL0     C43365  -0.734  -0.019   5.376 -0.4173 -0.2609 -0.0198
  322MOL0     O43366  -0.661   0.101   5.400 -1.2396 -0.1745  0.2145
  322MOL0     C43367  -0.525   0.103   5.392 -0.2185 -0.9843  0.4770
  322MOL0     C43368  -0.426   0.009   5.435  0.1121 -0.2244 -0.5678
  322MOL0     C43369  -0.288   0.037   5.456  0.5868  0.2468  0.5741
  322MOL0     C43370  -0.242   0.156   5.412 -0.5670 -0.3586  1.1635
  322MOL0     O43371  -0.114   0.201   5.428 -0.4827  0.2370 -0.1423
  322MOL0     C43372  -0.008   0.109   5.474 -0.3637  0.5557 -0.0023
  322MOL0     C43373   0.026   0.016   5.357 -0.6558  0.3408  0.2186
  322MOL0     C43374   0.143  -0.077   5.400 -0.3883  0.8282 -0.1047
  322MOL0     C43375   0.279  -0.014   5.356 -0.6445 -0.5309 -0.0502
  322MOL0     C43376   0.387  -0.095   5.419 -0.7080  0.1234  0.5109
  322MOL0     C43377   0.525  -0.072   5.360  0.5360  0.1781  0.1062
  322MOL0     C43378   0.576   0.066   5.388 -0.0694  0.3767 -0.7377
  322MOL0     C43379   0.675   0.096   5.276  0.1417 -0.3357  0.5191
  322MOL0    Cl43380   0.807  -0.019   5.258  0.0110  0.1215  0.0144
  322MOL0     C43381  -0.333   0.251   5.361  0.1977  0.2784  0.2437
  322MOL0     C43382  -0.465   0.225   5.352  0.1083  0.5007 -0.0863
  322MOL0     O43383  -0.691  -0.127   5.333 -0.7665 -0.2549  0.6707
  322MOL0     C43384  -0.939   0.102   5.407 -0.2862  0.7022 -0.2801
  322MOL0     C43385  -1.080   0.108   5.411 -0.2498 -0.5793 -0.6588
  322MOL0     N43386  -1.265   0.433   5.742 -0.0559 -0.4667  0.3909
  322MOL0     N43387  -1.146   0.441   5.794 -0.5321  0.0497  0.4185
  322MOL0     C43388  -0.082   0.953   5.140 -0.5866 -0.1170 -0.0779
  322MOL0     C43389   0.032   1.016   5.107 -0.0075  0.2338  0.5060
  322MOL0     C43390   0.464   1.131   5.136 -0.5792 -0.3028 -0.1082
  322MOL0     C43391   0.542   1.029   5.080 -0.4392 -0.0171 -0.0346
  322MOL0     C43392   0.683   1.054   5.062  0.2583  0.7931 -0.1247
  322MOL0     C43393   0.734   1.168   5.109 -0.3929 -1.6454 -0.3534
  322MOL0     O43394   0.871   1.166   5.099  0.0152  0.4347 -0.8796
  322MOL0     C43395   0.944   1.279   5.147 -0.8119 -0.0503 -0.6531
  322MOL0     C43396   1.074   1.232   5.214 -0.5827  0.1526  0.2801
  322MOL0     C43397   1.176   1.170   5.120  1.3564  0.6135  0.6239
  322MOL0     C43398   1.293   1.107   5.199  0.6914 -0.2470 -0.5388
  322MOL0     C43399   1.411   1.085   5.113  0.2935  0.4641  0.0657
  322MOL0     C43400   1.514   1.068   5.053  0.6743  0.3124  0.3232
  322MOL0     C43401   0.662   1.278   5.161  0.5803  0.4939  0.1918
  322MOL0     C43402   0.525   1.261   5.171  0.2188 -0.5675  0.5428
  322MOL0     H43403   0.261   0.783   5.204  1.6735  2.7409  0.0856
  322MOL0     H43404   0.048   0.670   5.293 -0.1219  0.5156 -0.0662
  322MOL0     H43405  -0.281   0.806   5.068 -1.5126 -2.6929 -1.9927
  322MOL0     H43406  -0.273   0.642   5.121 -2.2742 -0.0236  0.7801
  322MOL0     H43407  -0.465   0.837   5.259  0.0646  0.1724 -0.5358
  322MOL0     H43408  -0.496   0.756   5.112  0.8988  0.9636  0.2932
  322MOL0     H43409  -0.501   0.538   5.217  0.3498 -0.7774  1.9087
  322MOL0     H43410  -0.416   0.585   5.362 -1.4514  4.0119  4.7188
  322MOL0     H43411  -0.606   0.745   5.420  1.1360 -1.0011  0.6780
  322MOL0     H43412  -0.691   0.671   5.290 -2.1049  1.5804  2.1728
  322MOL0     H43413  -0.674   0.448   5.392  1.2483  1.8728 -3.5170
  322MOL0     H43414  -0.569   0.508   5.518 -1.0516  0.0909  1.9533
  322MOL0     H43415  -0.790   0.667   5.557 -0.6197 -0.3576  0.4850
  322MOL0     H43416  -0.878   0.560   5.450  1.9130  0.8697 -1.9401
  322MOL0     H43417  -0.841   0.367   5.618 -0.7599 -0.0133 -1.6319
  322MOL0     H43418  -0.723   0.476   5.704  0.3784 -1.5983 -0.8183
  322MOL0     H43419  -0.897   0.628   5.755  4.3864 -1.6145  0.4490
  322MOL0     H43420  -0.897   0.474   5.833 -1.9269 -0.6161  0.9344
  322MOL0     H43421  -1.109   0.577   5.493 -0.4045 -1.2493 -1.1614
  322MOL0     H43422  -1.475   0.469   5.582 -0.5313  1.6467  1.1419
  322MOL0     H43423  -1.381   0.570   5.465 -1.1445  1.1458  1.6432
  322MOL0     H43424  -1.298   0.357   5.356 -0.8789 -1.0099  0.0289
  322MOL0     H43425  -1.474   0.376   5.366 -0.0606  0.7195  1.6866
  322MOL0     H43426  -1.455   0.206   5.569  0.0507  0.3642  0.2506
  322MOL0     H43427  -1.277   0.217   5.534  0.2718 -1.4504 -1.8931
  322MOL0     H43428  -1.329   0.151   5.297  0.7047  0.0749 -1.4572
  322MOL0     H43429  -1.469   0.063   5.360 -0.9992  1.8124  0.6558
  322MOL0     H43430  -1.143  -0.210   5.484  0.0452  0.3758 -1.4199
  322MOL0     H43431  -0.783  -0.263   5.501 -0.5435  0.2588 -0.2167
  322MOL0     H43432  -0.941  -0.325   5.560  0.2890 -3.7997 -2.3622
  322MOL0     H43433  -0.898  -0.328   5.390  1.2211 -0.0344 -0.6161
  322MOL0     H43434  -0.455  -0.088   5.475 -0.1812  0.3980  0.7726
  322MOL0     H43435  -0.220  -0.029   5.508  1.8551  1.5267  0.5987
  322MOL0     H43436   0.081   0.170   5.493  0.0907 -0.6432  2.0085
  322MOL0     H43437  -0.038   0.051   5.562  1.6327  2.3073  2.0025
  322MOL0     H43438  -0.063  -0.040   5.331  2.1217 -3.0973 -2.9947
  322MOL0     H43439   0.051   0.061   5.261  0.0644 -0.5483 -0.0250
  322MOL0     H43440   0.117  -0.167   5.343 -0.0639  1.1968 -0.8452
  322MOL0     H43441   0.124  -0.105   5.504 -1.3888  1.2143 -0.1748
  322MOL0     H43442   0.290  -0.004   5.248 -1.5169  0.2056 -0.0779
  322MOL0     H43443   0.276   0.090   5.391 -3.4874  0.1140 -1.9406
  322MOL0     H43444   0.364  -0.200   5.395 -0.1748  0.1736 -0.2436
  322MOL0     H43445   0.392  -0.063   5.524 -0.0215 -0.3297  0.6248
  322MOL0     H43446   0.588  -0.146   5.412 -2.6225 -1.8340  1.3771
  322MOL0     H43447   0.528  -0.101   5.255 -2.7256  0.0245 -0.0553
  322MOL0     H43448   0.623   0.063   5.487 -1.1266  3.6835 -0.0009
  322MOL0     H43449   0.504   0.148   5.392 -0.5110 -0.0594  0.6746
  322MOL0     H43450   0.724   0.191   5.297 -3.3004  1.7027  0.0994
  322MOL0     H43451   0.625   0.107   5.180  2.1710 -3.1308 -1.0007
  322MOL0     H43452  -0.297   0.351   5.341  1.4713  0.1953  1.9044
  322MOL0     H43453  -0.534   0.299   5.313  0.2257  1.1459  0.9128
  322MOL0     H43454  -0.887   0.196   5.388 -1.6788  1.7656  0.8599
  322MOL0     H43455  -1.122   0.207   5.398  1.1664  1.1813  5.0768
  322MOL0     H43456  -0.182   0.981   5.110 -0.3127 -1.1493 -2.1693
  322MOL0     H43457   0.030   1.116   5.064 -0.9312  0.0041 -0.0166
  322MOL0     H43458   0.504   0.930   5.055 -2.1737  0.3554  0.9380
  322MOL0     H43459   0.745   0.969   5.033 -2.5384 -2.5335  2.7442
  322MOL0     H43460   0.972   1.347   5.066 -0.9643  0.8577  0.0380
  322MOL0     H43461   0.889   1.342   5.217 -1.6365 -0.6075 -0.7878
  322MOL0     H43462   1.044   1.155   5.286  1.0459  0.4619  1.3469
  322MOL0     H43463   1.126   1.314   5.266  0.4446 -0.3021 -0.0165
  322MOL0     H43464   1.216   1.244   5.050 -0.0234  1.7423  0.9596
  322MOL0     H43465   1.129   1.092   5.059  1.1388  0.7299  0.6417
  322MOL0     H43466   1.257   1.011   5.238  1.1847 -0.1564  0.1626
  322MOL0     H43467   1.320   1.172   5.282 -0.1958 -0.2010 -0.2869
  322MOL0     H43468   1.602   1.057   4.992 -1.1741  1.7185 -2.8585
  322MOL0     H43469   0.706   1.367   5.205 -0.9751  0.7569  1.3013
  322MOL0     H43470   0.471   1.344   5.215 -0.8962 -0.4634 -0.9305
  323MOL0     O43471   3.056   3.356   2.405  0.4183 -0.8201 -0.1704
  323MOL0     C43472   2.999   3.245   2.407  0.8637 -0.1817 -0.7217
  323MOL0     O43473   2.871   3.225   2.377  0.5279  0.3878  0.4343
  323MOL0     C43474   2.782   3.330   2.361  0.5619 -0.2848  0.4180
  323MOL0     C43475   2.736   3.416   2.471  0.2229  0.6459 -0.0032
  323MOL0     C43476   2.631   3.507   2.448 -0.9092 -0.5162 -0.1377
  323MOL0     C43477   2.564   3.514   2.326 -0.1419  0.3021  0.9263
  323MOL0     O43478   2.457   3.602   2.300  1.1386 -0.4913  0.0177
  323MOL0     C43479   2.391   3.611   2.173 -0.0760 -0.6642  0.4867
  323MOL0     C43480   2.263   3.694   2.163 -0.7343 -0.2453 -0.1593
  323MOL0     C43481   2.134   3.607   2.163 -0.1893 -0.4221 -0.3652
  323MOL0     C43482   2.117   3.522   2.037 -0.3029 -0.3886  0.2221
  323MOL0     C43483   1.972   3.535   1.983 -0.6042 -0.6480  0.7272
  323MOL0     C43484   1.969   3.512   1.831  0.1057 -0.4438 -0.6533
  323MOL0     C43485   1.827   3.484   1.784 -0.7256 -0.2365  0.2832
  323MOL0     C43486   1.768   3.349   1.832 -0.0985 -0.3956  0.1543
  323MOL0     N43487   1.828   3.242   1.752 -0.6734 -0.1742  0.7209
  323MOL0     C43488   1.932   3.155   1.781 -0.1460 -0.6791 -0.5568
  323MOL0     C43489   1.947   3.082   1.669  1.0057 -0.0447  1.1934
  323MOL0     C43490   2.033   2.969   1.629 -0.5002  0.7490 -1.0065
  323MOL0     C43491   2.139   3.003   1.528  0.5921  0.1579 -0.0838
  323MOL0     C43492   2.203   2.878   1.482  0.2748 -0.1276  0.9544
  323MOL0     C43493   2.296   2.886   1.364  0.5196 -0.1320 -0.3416
  323MOL0     O43494   2.393   2.777   1.360 -1.2461  0.4403  0.6572
  323MOL0     C43495   2.487   2.790   1.265 -0.6043  0.0290 -0.4757
  323MOL0     C43496   2.474   2.832   1.134  0.8510 -0.6221  0.2087
  323MOL0     C43497   2.574   2.828   1.043 -1.0214  0.3423  0.2581
  323MOL0     C43498   2.539   2.884   0.908  0.1488  0.8228  0.0440
  323MOL0     C43499   2.708   2.778   1.075  0.6021  0.4229  0.2178
  323MOL0     C43500   2.826   2.752   0.984  0.8278 -0.3791 -0.3136
  323MOL0     O43501   2.942   2.722   1.055 -0.3037  0.5062  0.3863
  323MOL0     C43502   3.060   2.721   0.987  0.0232 -0.5615 -0.7074
  323MOL0     C43503   3.104   2.833   0.911 -0.3540 -0.4675  0.1055
  323MOL0     C43504   3.232   2.828   0.848 -0.7793  1.0804  0.2675
  323MOL0     C43505   3.315   2.724   0.871 -0.3239  0.2994  0.8130
  323MOL0     O43506   3.444   2.726   0.831 -0.1445  0.0832 -0.5052
  323MOL0     C43507   3.520   2.835   0.885  0.6086 -0.1253  0.6986
  323MOL0     C43508   3.661   2.845   0.816  0.7649 -0.4970  0.3452
  323MOL0     C43509   3.750   2.713   0.835 -0.1007 -0.9772  0.0662
  323MOL0     C43510   3.887   2.738   0.769  0.7682  0.0128  0.3163
  323MOL0     C43511   3.993   2.630   0.802 -0.1163 -0.1395  0.4719
  323MOL0     C43512   4.129   2.669   0.748  0.0285 -0.5991  0.9247
  323MOL0     C43513   4.229   2.551   0.743  1.2282  0.1154 -0.5243
  323MOL0     C43514   4.358   2.591   0.676  0.9595  0.8626 -0.6292
  323MOL0    Cl43515   4.433   2.723   0.770  0.2910  0.1825 -0.1165
  323MOL0     C43516   3.263   2.612   0.933  0.1869 -0.0134 -0.2854
  323MOL0     C43517   3.136   2.607   0.986 -0.0537  0.2659  0.0903
  323MOL0     O43518   2.811   2.783   0.863 -0.0517 -0.3741 -0.5243
  323MOL0     C43519   2.723   2.737   1.200  0.2187 -0.2314 -0.8175
  323MOL0     C43520   2.621   2.742   1.299 -0.0345 -0.4354  0.1430
  323MOL0     N43521   1.850   3.122   1.575  0.4230  0.0704 -0.6638
  323MOL0     N43522   1.784   3.212   1.628  0.1161 -0.2733 -0.1632
  323MOL0     C43523   2.613   3.433   2.219  0.3784  0.7468 -0.0234
  323MOL0     C43524   2.722   3.350   2.235  0.9113  0.2333 -0.0165
  323MOL0     C43525   3.081   3.126   2.446 -0.4039 -0.1725  0.0692
  323MOL0     C43526   3.062   2.996   2.395  0.4908  0.7300  0.0266
  323MOL0     C43527   3.149   2.891   2.425  0.1912 -0.4137  0.4136
  323MOL0     C43528   3.265   2.911   2.496  0.4515  0.4021 -0.5415
  323MOL0     O43529   3.339   2.809   2.539 -0.4579 -0.1779  0.1230
  323MOL0     C43530   3.405   2.738   2.441  0.6943  0.3653 -0.8510
  323MOL0     C43531   3.512   2.650   2.517  0.2578 -0.1359 -0.0461
  323MOL0     C43532   3.598   2.569   2.413  0.1069 -0.2393 -0.4601
  323MOL0     C43533   3.687   2.665   2.324  0.3185  0.3643 -0.3933
  323MOL0     C43534   3.809   2.610   2.269 -0.9492  0.0141 -0.9386
  323MOL0     C43535   3.912   2.559   2.231 -0.7131 -1.0231  0.2993
  323MOL0     C43536   3.293   3.049   2.543  0.4802  0.1925 -0.3443
  323MOL0     C43537   3.200   3.145   2.524  0.7583 -0.6754 -0.1937
  323MOL0     H43538   2.786   3.408   2.567 -0.0591 -0.4085  0.0653
  323MOL0     H43539   2.595   3.578   2.521  0.0830 -1.0520  0.9000
  323MOL0     H43540   2.467   3.643   2.101 -0.6574  1.6968  0.8228
  323MOL0     H43541   2.353   3.512   2.147  0.7865 -0.0986 -3.7525
  323MOL0     H43542   2.264   3.763   2.248  1.4616  1.0085 -1.1218
  323MOL0     H43543   2.269   3.758   2.075 -0.8371 -0.4251 -0.2987
  323MOL0     H43544   2.107   3.540   2.244 -2.7864 -0.3608 -1.1049
  323MOL0     H43545   2.046   3.671   2.162  0.7571  0.9814  1.2221
  323MOL0     H43546   2.187   3.559   1.962 -0.2137 -1.2480 -0.1215
  323MOL0     H43547   2.141   3.416   2.048 -1.5405 -0.7253 -0.1697
  323MOL0     H43548   1.914   3.460   2.038 -3.3836  1.5861  1.0666
  323MOL0     H43549   1.937   3.637   2.002  3.5179  1.8010 -2.9684
  323MOL0     H43550   1.997   3.607   1.786 -1.5128  1.2282  1.5931
  323MOL0     H43551   2.036   3.436   1.790 -0.3585 -0.3475 -1.6056
  323MOL0     H43552   1.766   3.559   1.836  1.4559  0.1548  2.4664
  323MOL0     H43553   1.822   3.492   1.675 -2.3471 -0.0277  0.3462
  323MOL0     H43554   1.660   3.355   1.812 -0.0660 -1.5444 -0.4298
  323MOL0     H43555   1.778   3.333   1.940 -1.3034  0.5717  0.4327
  323MOL0     H43556   1.989   3.153   1.873 -1.0940  1.0878  0.1113
  323MOL0     H43557   2.079   2.925   1.718 -2.1297 -0.7122 -0.8276
  323MOL0     H43558   1.969   2.892   1.584 -0.0351 -1.3003  1.6078
  323MOL0     H43559   2.208   3.077   1.570  0.0350  1.1915 -0.9594
  323MOL0     H43560   2.091   3.058   1.447 -0.4995 -1.3022 -0.4769
  323MOL0     H43561   2.124   2.812   1.445 -0.0052  1.9306 -2.4546
  323MOL0     H43562   2.263   2.824   1.556  0.3866 -0.1275  0.8648
  323MOL0     H43563   2.352   2.979   1.362  0.1080  0.1053 -1.4585
  323MOL0     H43564   2.238   2.882   1.272 -1.1929 -2.1208  0.7267
  323MOL0     H43565   2.379   2.864   1.091  0.3876 -2.8102 -0.5262
  323MOL0     H43566   2.546   2.800   0.839  2.5652  0.1168  1.0533
  323MOL0     H43567   2.434   2.916   0.914 -0.1476 -0.3618  2.1135
  323MOL0     H43568   2.601   2.969   0.879 -0.5183  1.9725  1.8309
  323MOL0     H43569   3.038   2.919   0.904  0.9004  0.6134  1.0496
  323MOL0     H43570   3.260   2.920   0.797  0.8318  0.7746  0.5295
  323MOL0     H43571   3.473   2.929   0.856  2.1680 -0.1782 -2.3518
  323MOL0     H43572   3.532   2.837   0.994 -0.7434 -0.0465  0.8705
  323MOL0     H43573   3.649   2.875   0.712 -0.4262  1.3100  0.9653
  323MOL0     H43574   3.712   2.930   0.861  0.2974  1.4190 -2.5172
  323MOL0     H43575   3.690   2.635   0.787 -0.6320  0.0521 -1.0013
  323MOL0     H43576   3.762   2.677   0.937 -1.7501 -1.5031  0.0990
  323MOL0     H43577   3.882   2.737   0.660 -0.2262 -0.5385  0.3538
  323MOL0     H43578   3.918   2.837   0.803 -2.0385  0.5399  1.7296
  323MOL0     H43579   3.962   2.532   0.765  0.1332  0.5514 -1.7088
  323MOL0     H43580   3.992   2.633   0.912 -0.4175  2.4828  0.4586
  323MOL0     H43581   4.114   2.708   0.647 -1.3598 -0.8662  1.0042
  323MOL0     H43582   4.168   2.752   0.808 -1.5723  0.4229  0.6089
  323MOL0     H43583   4.172   2.471   0.696 -0.1100 -0.1635  1.4566
  323MOL0     H43584   4.254   2.517   0.844  0.5107 -1.3086 -0.8132
  323MOL0     H43585   4.324   2.624   0.577  0.9036 -1.1423 -1.3192
  323MOL0     H43586   4.424   2.506   0.657 -0.3757 -0.3348 -0.0613
  323MOL0     H43587   3.326   2.524   0.930 -0.8383 -0.7489 -1.0135
  323MOL0     H43588   3.108   2.523   1.048 -1.0493  1.6217  1.5561
  323MOL0     H43589   2.808   2.682   1.239 -0.7405 -0.3095  1.3137
  323MOL0     H43590   2.636   2.701   1.398  2.3346 -3.7177 -1.3841
  323MOL0     H43591   2.566   3.441   2.122  0.3559  0.7893 -0.0091
  323MOL0     H43592   2.763   3.291   2.154  2.6624  0.3296  0.7708
  323MOL0     H43593   2.971   2.957   2.351  0.3077 -0.3610  1.3183
  323MOL0     H43594   3.122   2.793   2.387 -1.5559  0.4210 -0.6122
  323MOL0     H43595   3.343   2.665   2.389 -1.0564  1.2390 -0.1185
  323MOL0     H43596   3.455   2.804   2.369 -0.4280  1.3839 -0.7370
  323MOL0     H43597   3.475   2.577   2.590 -0.4752 -0.3556 -0.6135
  323MOL0     H43598   3.575   2.718   2.574 -3.0712  2.8133  0.4933
  323MOL0     H43599   3.534   2.519   2.340 -2.2680 -1.1204  2.0662
  323MOL0     H43600   3.661   2.497   2.466  0.7837  0.9155  0.3840
  323MOL0     H43601   3.715   2.747   2.391 -0.7507 -1.7720  2.8626
  323MOL0     H43602   3.629   2.704   2.239 -1.6219 -3.0195 -0.7933
  323MOL0     H43603   3.997   2.520   2.180  0.1601  2.3854 -1.1038
  323MOL0     H43604   3.382   3.068   2.602  0.2361  2.8489 -0.6963
  323MOL0     H43605   3.222   3.238   2.576 -3.0076 -0.1873  0.8558
  324MOL0     O43606   1.902   5.790   8.397  0.4554  0.5680  0.0148
  324MOL0     C43607   1.926   5.779   8.277  1.3395 -0.4239 -0.1069
  324MOL0     O43608   1.835   5.755   8.180  0.4570 -0.3211 -0.2910
  324MOL0     C43609   1.704   5.761   8.202  0.6804 -0.7292 -0.9842
  324MOL0     C43610   1.633   5.849   8.122  0.3610  0.0860 -0.1002
  324MOL0     C43611   1.494   5.842   8.126  0.3977  0.4373  0.1974
  324MOL0     C43612   1.427   5.759   8.215  0.1955 -0.7063 -0.3718
  324MOL0     O43613   1.287   5.761   8.224  0.0658 -0.4848 -0.8693
  324MOL0     C43614   1.219   5.755   8.351 -1.1874 -0.4485 -0.7514
  324MOL0     C43615   1.083   5.802   8.330  0.4730  0.1184 -0.3450
  324MOL0     C43616   1.015   5.842   8.462  0.3067 -0.6784 -0.0532
  324MOL0     C43617   0.868   5.865   8.443  0.4066  0.2055  0.6614
  324MOL0     C43618   0.771   5.740   8.438  0.7909 -0.2811  0.0936
  324MOL0     C43619   0.750   5.668   8.575 -0.0279  0.1968  0.0839
  324MOL0     C43620   0.667   5.541   8.566 -0.1181 -0.1859  0.1165
  324MOL0     C43621   0.625   5.498   8.708  0.6121  0.7637  0.0131
  324MOL0     N43622   0.508   5.415   8.705  0.0287 -0.7717 -0.5339
  324MOL0     C43623   0.499   5.284   8.661  0.3771 -0.2231  0.7562
  324MOL0     C43624   0.368   5.256   8.684  0.2062 -0.2637 -0.5723
  324MOL0     C43625   0.296   5.131   8.648  0.1691 -0.7036  0.3605
  324MOL0     C43626   0.163   5.120   8.732 -0.5171 -1.1961 -0.0738
  324MOL0     C43627   0.083   4.991   8.691  0.3615 -0.2242  1.0010
  324MOL0     C43628  -0.012   4.946   8.801  0.5081  0.6197 -0.0356
  324MOL0     O43629  -0.097   4.856   8.742  0.3703 -0.8929  0.3465
  324MOL0     C43630  -0.229   4.839   8.780 -0.2495 -0.1310 -0.2199
  324MOL0     C43631  -0.293   4.910   8.881 -0.1582  0.0566 -0.1945
  324MOL0     C43632  -0.434   4.884   8.916  0.0434  0.0555  0.5163
  324MOL0     C43633  -0.484   4.951   9.034  0.6655 -0.2446 -0.3891
  324MOL0     C43634  -0.507   4.797   8.827 -0.4917  0.5971  0.0077
  324MOL0     C43635  -0.654   4.761   8.850 -0.3775  0.0360  0.2575
  324MOL0     O43636  -0.697   4.653   8.780 -0.1349  0.2935  0.0510
  324MOL0     C43637  -0.822   4.602   8.779  0.5056 -1.1587  0.6481
  324MOL0     C43638  -0.924   4.641   8.862  1.0607  0.2671 -0.6602
  324MOL0     C43639  -1.053   4.596   8.839 -0.1197  0.6916  0.3750
  324MOL0     C43640  -1.076   4.496   8.746 -0.1697  0.3752  0.1766
  324MOL0     O43641  -1.201   4.449   8.734  0.0428  0.6570  0.0573
  324MOL0     C43642  -1.293   4.449   8.845  0.2700  0.3002 -0.4515
  324MOL0     C43643  -1.407   4.358   8.800 -0.0542  0.1032  0.2466
  324MOL0     C43644  -1.515   4.348   8.912  0.1663 -0.1609 -0.5864
  324MOL0     C43645  -1.643   4.276   8.864  0.5219  0.1626  0.0974
  324MOL0     C43646  -1.740   4.237   8.971 -0.9693 -0.1926  0.2160
  324MOL0     C43647  -1.783   4.355   9.059  0.4817  1.1379  0.2197
  324MOL0     C43648  -1.884   4.295   9.159  0.5019 -0.0895  0.1407
  324MOL0     C43649  -1.947   4.405   9.243  0.4794 -0.2880  0.4586
  324MOL0    Cl43650  -2.064   4.328   9.356  0.2182  0.1364  0.0721
  324MOL0     C43651  -0.970   4.442   8.676 -0.0887  0.3424  0.2768
  324MOL0     C43652  -0.845   4.500   8.685 -0.4411  0.0164 -0.1112
  324MOL0     O43653  -0.726   4.841   8.913 -0.1997 -0.6764  0.2197
  324MOL0     C43654  -0.440   4.731   8.723  0.1558 -0.3537 -1.0365
  324MOL0     C43655  -0.302   4.749   8.698 -0.4558 -0.7696 -0.6617
  324MOL0     N43656   0.308   5.364   8.752  0.3385  0.0246  0.1451
  324MOL0     N43657   0.395   5.459   8.771  0.3792  0.2593 -0.3187
  324MOL0     C43658   1.501   5.681   8.302 -0.4758  0.5993  1.3707
  324MOL0     C43659   1.640   5.678   8.296  0.0907  0.3310  0.4270
  324MOL0     C43660   2.069   5.802   8.228 -0.0412 -0.4541 -0.2156
  324MOL0     C43661   2.175   5.810   8.318  0.0682  0.0913 -0.0611
  324MOL0     C43662   2.302   5.832   8.265 -0.0193  0.6944 -0.5566
  324MOL0     C43663   2.329   5.842   8.129 -0.2928  0.0248 -0.1282
  324MOL0     O43664   2.452   5.860   8.068  0.3570  0.6283  0.1738
  324MOL0     C43665   2.575   5.889   8.141  0.0572  0.1155  0.1880
  324MOL0     C43666   2.680   5.964   8.062 -0.6369 -0.5448  0.0072
  324MOL0     C43667   2.752   5.876   7.968 -0.8841 -0.9848 -0.7622
  324MOL0     C43668   2.853   5.940   7.878 -0.4483  0.2906  0.3052
  324MOL0     C43669   2.929   5.846   7.789 -0.2169  0.1693  0.4516
  324MOL0     C43670   3.002   5.776   7.721 -1.0172  0.6190 -0.6716
  324MOL0     C43671   2.223   5.844   8.040  0.4632 -0.0124  0.1483
  324MOL0     C43672   2.093   5.834   8.090  0.0030  0.4770  0.4440
  324MOL0     H43673   1.677   5.921   8.054  1.7763  1.4193  2.1400
  324MOL0     H43674   1.438   5.900   8.053 -0.9294  0.7108  1.3814
  324MOL0     H43675   1.230   5.655   8.394 -0.6672 -1.2379 -2.6016
  324MOL0     H43676   1.282   5.818   8.415 -0.2826 -0.2946 -1.7607
  324MOL0     H43677   1.085   5.886   8.260 -0.0187  2.8382  2.6990
  324MOL0     H43678   1.034   5.722   8.273  0.2339  0.7848 -1.1074
  324MOL0     H43679   1.033   5.775   8.546 -0.7107  0.2900  0.9951
  324MOL0     H43680   1.069   5.932   8.493 -1.3080  0.2535  0.2136
  324MOL0     H43681   0.830   5.933   8.520  0.4458  1.6755 -0.5595
  324MOL0     H43682   0.854   5.926   8.353  3.2134 -0.3051 -0.2117
  324MOL0     H43683   0.671   5.767   8.404 -0.3689 -2.0037  1.9333
  324MOL0     H43684   0.812   5.664   8.371  1.7603  1.7624 -1.7776
  324MOL0     H43685   0.848   5.650   8.621  0.4875  1.9649 -0.2427
  324MOL0     H43686   0.717   5.748   8.642  0.1920 -0.3535  0.8630
  324MOL0     H43687   0.584   5.545   8.494 -0.8631 -0.1918  0.9486
  324MOL0     H43688   0.730   5.461   8.525  1.8193  0.4822  1.6807
  324MOL0     H43689   0.599   5.579   8.777  2.0265  1.4972 -0.2861
  324MOL0     H43690   0.705   5.439   8.753 -1.1987 -0.8719  1.2580
  324MOL0     H43691   0.574   5.221   8.614 -1.7717 -3.0103  0.8363
  324MOL0     H43692   0.265   5.127   8.543 -2.1575 -0.7737  0.9899
  324MOL0     H43693   0.362   5.044   8.657 -0.9999 -1.7974 -0.9109
  324MOL0     H43694   0.103   5.211   8.732  0.2912 -0.4610  4.4523
  324MOL0     H43695   0.208   5.115   8.831  1.6160  2.5543 -0.6797
  324MOL0     H43696   0.155   4.910   8.675  1.9741  1.0749  1.3847
  324MOL0     H43697   0.023   5.015   8.602 -1.5173 -2.1867  1.6472
  324MOL0     H43698  -0.052   5.032   8.856  1.4017  0.1390  1.4489
  324MOL0     H43699   0.040   4.882   8.873  0.3031  1.1771  0.6247
  324MOL0     H43700  -0.242   4.985   8.939  0.9826  0.0643 -1.1706
  324MOL0     H43701  -0.540   4.884   9.099  2.2685 -0.9261  0.3404
  324MOL0     H43702  -0.401   4.996   9.089  0.9928 -0.6313 -0.5647
  324MOL0     H43703  -0.545   5.036   9.000  3.5621  1.2960 -2.2600
  324MOL0     H43704  -0.916   4.717   8.939 -0.5518 -1.4615  1.3350
  324MOL0     H43705  -1.134   4.640   8.896 -0.2786  0.9547 -0.0463
  324MOL0     H43706  -1.248   4.417   8.940  1.4704 -1.4040 -1.5518
  324MOL0     H43707  -1.337   4.549   8.857 -1.4909 -0.2929 -1.6893
  324MOL0     H43708  -1.451   4.382   8.703 -0.3335 -3.0585 -0.5037
  324MOL0     H43709  -1.367   4.257   8.787 -0.6450 -0.2568  1.1708
  324MOL0     H43710  -1.541   4.451   8.935 -0.6487 -0.8042  1.6232
  324MOL0     H43711  -1.480   4.304   9.006  0.5301  0.6691 -0.3265
  324MOL0     H43712  -1.690   4.347   8.796  0.9012  1.5537  1.2529
  324MOL0     H43713  -1.620   4.183   8.811  1.1514  1.0111 -1.1639
  324MOL0     H43714  -1.696   4.166   9.042  1.3749  1.8426  0.9680
  324MOL0     H43715  -1.824   4.186   8.924  0.1189 -0.1178 -1.9260
  324MOL0     H43716  -1.708   4.410   9.115 -0.9520 -1.1545  4.8926
  324MOL0     H43717  -1.845   4.424   9.000 -0.5871 -0.2122 -0.3097
  324MOL0     H43718  -1.844   4.216   9.224 -1.8931  0.1769  2.0926
  324MOL0     H43719  -1.967   4.252   9.103  0.1782 -0.4254  0.8530
  324MOL0     H43720  -1.989   4.489   9.186  3.4797  1.2355  0.2507
  324MOL0     H43721  -1.879   4.456   9.313  1.9487 -0.9293 -0.4535
  324MOL0     H43722  -0.993   4.358   8.611  3.6067 -0.4525 -0.2261
  324MOL0     H43723  -0.762   4.466   8.624  2.6482  2.8042  2.1159
  324MOL0     H43724  -0.494   4.665   8.656 -0.4697  0.8203 -1.7445
  324MOL0     H43725  -0.239   4.707   8.620  1.6626  1.1350 -0.0992
  324MOL0     H43726   1.444   5.614   8.366 -0.6719 -1.0990 -0.4568
  324MOL0     H43727   1.700   5.613   8.359  0.4593  0.2889  0.0398
  324MOL0     H43728   2.151   5.794   8.423 -1.3929  0.0210 -0.3868
  324MOL0     H43729   2.378   5.848   8.341 -0.8014  3.4158 -0.2485
  324MOL0     H43730   2.551   5.958   8.223 -2.3647  2.3119 -2.1831
  324MOL0     H43731   2.613   5.792   8.174 -1.2465  0.3235  2.6051
  324MOL0     H43732   2.747   6.014   8.131 -1.4112 -0.5494  0.7844
  324MOL0     H43733   2.619   6.041   8.013 -1.4335 -1.2522 -0.1407
  324MOL0     H43734   2.680   5.819   7.908 -1.3825  0.4773 -1.5898
  324MOL0     H43735   2.809   5.806   8.030 -0.7701 -0.2967 -0.0846
  324MOL0     H43736   2.927   5.993   7.939 -0.8202 -0.5789  1.5211
  324MOL0     H43737   2.807   6.020   7.819 -1.6312 -0.0176  0.7905
  324MOL0     H43738   3.069   5.702   7.681  0.5529  0.1211  2.5403
  324MOL0     H43739   2.237   5.831   7.933  2.0057 -1.8877  0.5175
  324MOL0     H43740   2.016   5.840   8.014  2.8330 -1.7690 -2.8594
  325MOL0     O43741   1.985   1.922   7.737 -0.3394 -0.0115  0.3195
  325MOL0     C43742   2.034   1.836   7.668  0.4381 -0.0328  0.2061
  325MOL0     O43743   1.959   1.738   7.606 -0.2121 -0.3870  0.5011
  325MOL0     C43744   1.824   1.761   7.610 -0.6071  0.1051 -0.0162
  325MOL0     C43745   1.770   1.865   7.542 -0.2211  0.5987  0.4476
  325MOL0     C43746   1.631   1.881   7.537 -0.6011 -0.3024 -0.1689
  325MOL0     C43747   1.540   1.796   7.610  0.1520 -0.6597 -0.5275
  325MOL0     O43748   1.404   1.813   7.620  0.1046 -0.3403  0.3657
  325MOL0     C43749   1.319   1.711   7.670 -0.1246  0.5960  1.2289
  325MOL0     C43750   1.170   1.740   7.650  0.6774 -0.6714  0.9215
  325MOL0     C43751   1.077   1.643   7.723  0.2110  0.3059 -0.6197
  325MOL0     C43752   0.939   1.694   7.767  0.1736  0.2863  0.0006
  325MOL0     C43753   0.846   1.701   7.651 -0.4319 -0.2767  0.2848
  325MOL0     C43754   0.691   1.710   7.680 -0.1249  0.1717 -0.1809
  325MOL0     C43755   0.616   1.789   7.577  0.2459  0.1503 -0.6963
  325MOL0     C43756   0.654   1.754   7.435  1.4398  0.2301  0.0963
  325MOL0     N43757   0.578   1.833   7.339  0.8044 -0.9754  0.6064
  325MOL0     C43758   0.552   1.972   7.337 -0.3516  0.6331 -0.1039
  325MOL0     C43759   0.449   1.996   7.248  0.7975  0.8579 -0.7018
  325MOL0     C43760   0.394   2.117   7.198  0.7826  0.3810  0.2548
  325MOL0     C43761   0.248   2.128   7.251  0.7020 -0.4242  0.8053
  325MOL0     C43762   0.223   2.114   7.405  0.1123  0.0244  0.7500
  325MOL0     C43763   0.080   2.168   7.436  1.2426  0.3343 -0.9017
  325MOL0     O43764  -0.004   2.045   7.462  0.3211 -1.2442  0.4718
  325MOL0     C43765  -0.134   2.073   7.476 -0.0606 -0.0208 -0.5228
  325MOL0     C43766  -0.205   2.141   7.378 -0.1677  0.4588  0.8637
  325MOL0     C43767  -0.348   2.140   7.383 -0.6639  0.5560  0.1840
  325MOL0     C43768  -0.409   2.210   7.261  0.1423  0.5025 -0.1548
  325MOL0     C43769  -0.416   2.069   7.477 -0.4068 -0.0731  0.7925
  325MOL0     C43770  -0.567   2.070   7.488 -0.0431 -0.0292  0.3118
  325MOL0     O43771  -0.634   2.182   7.443 -0.5814  0.0291 -0.6897
  325MOL0     C43772  -0.767   2.201   7.463 -0.0627  0.0847  0.0642
  325MOL0     C43773  -0.861   2.098   7.470  0.0475  0.1230  0.1039
  325MOL0     C43774  -0.996   2.129   7.497 -0.0905  0.4982  0.8878
  325MOL0     C43775  -1.039   2.262   7.505  0.0466  0.4492  0.3013
  325MOL0     O43776  -1.173   2.303   7.502  0.2393 -0.3127  0.2488
  325MOL0     C43777  -1.276   2.202   7.485 -0.2364 -0.2624 -1.2688
  325MOL0     C43778  -1.410   2.264   7.501  0.1464 -0.4090  0.5319
  325MOL0     C43779  -1.519   2.164   7.485 -0.1765 -0.1633 -0.5944
  325MOL0     C43780  -1.658   2.229   7.471  0.2005 -0.3045  0.3021
  325MOL0     C43781  -1.717   2.300   7.595  0.3790  0.3363  0.2746
  325MOL0     C43782  -1.862   2.352   7.559  0.0847 -0.0106 -0.5099
  325MOL0     C43783  -1.878   2.445   7.443  0.0495  0.4927  0.4480
  325MOL0     C43784  -2.021   2.514   7.455 -0.2196  0.0335  0.0072
  325MOL0    Cl43785  -2.018   2.619   7.316 -0.2767 -0.0213 -0.0621
  325MOL0     C43786  -0.940   2.357   7.513 -0.1169 -0.3977  0.5512
  325MOL0     C43787  -0.808   2.328   7.486  0.0922  0.2516  1.0182
  325MOL0     O43788  -0.619   1.989   7.563  0.4297  0.4268  0.1817
  325MOL0     C43789  -0.335   2.000   7.571 -0.3228  0.0728  0.6356
  325MOL0     C43790  -0.197   1.997   7.572  0.8810 -0.5131  0.2415
  325MOL0     N43791   0.410   1.867   7.197 -0.0099  0.4704 -0.4008
  325MOL0     N43792   0.486   1.775   7.257 -0.0567 -0.4227  0.0946
  325MOL0     C43793   1.607   1.688   7.680 -0.5400 -0.3393 -0.4048
  325MOL0     C43794   1.740   1.669   7.675 -0.1593 -0.0045 -0.4964
  325MOL0     C43795   2.181   1.831   7.688 -0.1727 -0.6754  0.3004
  325MOL0     C43796   2.257   1.722   7.626 -0.5959 -0.4847  0.6887
  325MOL0     C43797   2.395   1.716   7.639 -0.1008 -0.0373 -0.3061
  325MOL0     C43798   2.468   1.812   7.706  0.1611 -0.0131 -0.2665
  325MOL0     O43799   2.606   1.798   7.708  0.0994 -0.1357  0.0503
  325MOL0     C43800   2.694   1.896   7.778  0.6505  0.8795 -0.3490
  325MOL0     C43801   2.720   2.027   7.690  0.4628  0.1077  0.5050
  325MOL0     C43802   2.787   1.987   7.549 -0.4285  0.0273  0.1403
  325MOL0     C43803   2.809   2.093   7.440 -0.4644  1.0952 -0.4637
  325MOL0     C43804   2.870   2.220   7.488 -0.1438  0.3593  1.2194
  325MOL0     C43805   2.886   2.334   7.527 -0.5873 -0.2824  0.3889
  325MOL0     C43806   2.397   1.917   7.770  0.1287 -0.0113  0.8270
  325MOL0     C43807   2.252   1.920   7.767 -0.6225  0.4777 -0.6951
  325MOL0     H43808   1.829   1.930   7.477  2.5977 -1.6616  0.5256
  325MOL0     H43809   1.599   1.967   7.479  0.3618  0.3291  0.2017
  325MOL0     H43810   1.341   1.609   7.635 -0.4397  0.6173  0.9680
  325MOL0     H43811   1.338   1.718   7.778  3.1522 -1.2053  0.9073
  325MOL0     H43812   1.142   1.837   7.693 -0.1038 -0.3724 -0.2148
  325MOL0     H43813   1.145   1.750   7.544  0.6929 -1.6447  0.8183
  325MOL0     H43814   1.049   1.559   7.659 -2.9394 -0.9150  2.0056
  325MOL0     H43815   1.122   1.610   7.817 -1.1663 -1.0430 -0.3878
  325MOL0     H43816   0.898   1.612   7.827  0.1351 -0.3362 -0.8641
  325MOL0     H43817   0.953   1.789   7.820  3.0047  0.5380 -1.0704
  325MOL0     H43818   0.873   1.792   7.595  0.2737  1.0506  2.6543
  325MOL0     H43819   0.867   1.626   7.574 -2.3650  1.1308 -1.7744
  325MOL0     H43820   0.634   1.618   7.697 -0.0130  0.6007  3.1690
  325MOL0     H43821   0.664   1.768   7.768 -4.2121 -0.8764 -0.5140
  325MOL0     H43822   0.509   1.773   7.592  0.5766 -0.4740  1.3388
  325MOL0     H43823   0.634   1.896   7.591 -2.2538  0.6683 -0.8854
  325MOL0     H43824   0.623   1.650   7.423  0.4472  0.5651 -0.3692
  325MOL0     H43825   0.758   1.755   7.401  0.6802 -3.5259 -3.0489
  325MOL0     H43826   0.613   2.041   7.394  0.0410 -0.2858  0.6117
  325MOL0     H43827   0.451   2.205   7.228 -1.2999  0.9551  2.8744
  325MOL0     H43828   0.395   2.113   7.088 -0.2977 -0.5400  0.2522
  325MOL0     H43829   0.188   2.045   7.212 -0.1100 -0.1860  1.5222
  325MOL0     H43830   0.204   2.220   7.213 -0.2882 -2.2106 -2.8651
  325MOL0     H43831   0.296   2.180   7.455  0.7362  1.3157 -1.7086
  325MOL0     H43832   0.241   2.013   7.443  1.1304  0.0481  0.3816
  325MOL0     H43833   0.045   2.228   7.353  0.5329  2.4150  0.8229
  325MOL0     H43834   0.082   2.231   7.525 -1.9881  1.4526 -1.4872
  325MOL0     H43835  -0.143   2.185   7.300 -0.7127 -0.8834 -0.3695
  325MOL0     H43836  -0.481   2.147   7.209 -1.3847  0.0810  2.3288
  325MOL0     H43837  -0.455   2.307   7.285 -1.0736  0.1727 -1.0737
  325MOL0     H43838  -0.328   2.233   7.191  2.7998  2.0126  3.1349
  325MOL0     H43839  -0.834   1.993   7.467 -1.1532 -0.1816 -2.4420
  325MOL0     H43840  -1.066   2.046   7.490  0.6957 -0.2731  1.8398
  325MOL0     H43841  -1.276   2.153   7.387 -0.6450 -1.2041 -0.8131
  325MOL0     H43842  -1.271   2.121   7.559  1.2427  1.9851  1.2791
  325MOL0     H43843  -1.409   2.320   7.595 -1.0984  0.7402 -0.1053
  325MOL0     H43844  -1.416   2.340   7.423 -0.1486  2.2735  2.9856
  325MOL0     H43845  -1.521   2.095   7.571 -0.3470  2.7421  1.9169
  325MOL0     H43846  -1.506   2.106   7.393  0.1354 -0.7756 -0.1746
  325MOL0     H43847  -1.639   2.298   7.389 -0.4855 -1.0970 -0.5409
  325MOL0     H43848  -1.732   2.158   7.433 -3.8672  3.3889  0.5013
  325MOL0     H43849  -1.655   2.388   7.614  1.6998 -0.8045  1.4622
  325MOL0     H43850  -1.721   2.242   7.688 -1.0793 -2.2714 -1.2863
  325MOL0     H43851  -1.934   2.271   7.548 -2.2839  1.5131  2.4178
  325MOL0     H43852  -1.894   2.402   7.651  0.1093 -1.1314  0.1185
  325MOL0     H43853  -1.864   2.395   7.347  3.1649  0.3761  0.8661
  325MOL0     H43854  -1.799   2.520   7.443  0.0087  0.5363  0.3034
  325MOL0     H43855  -2.034   2.563   7.552  0.3483 -1.4936  0.8795
  325MOL0     H43856  -2.103   2.443   7.447 -0.8184  0.3487  2.6591
  325MOL0     H43857  -0.976   2.457   7.532  0.4580 -0.2411  0.8625
  325MOL0     H43858  -0.734   2.406   7.502 -0.1278  0.5372  0.6626
  325MOL0     H43859  -0.384   1.936   7.644  1.6771  0.5543  2.5131
  325MOL0     H43860  -0.160   1.928   7.647 -1.6097 -0.4778  1.6139
  325MOL0     H43861   1.544   1.615   7.729  0.3947 -1.1392 -0.3750
  325MOL0     H43862   1.781   1.590   7.737 -3.5683  0.6496  3.0072
  325MOL0     H43863   2.204   1.653   7.561  2.4870 -2.7000  0.2863
  325MOL0     H43864   2.453   1.642   7.585  1.0333  1.8942 -1.8718
  325MOL0     H43865   2.656   1.929   7.874 -2.3606 -0.0033 -1.1348
  325MOL0     H43866   2.788   1.842   7.797  0.3471  0.0580 -1.0803
  325MOL0     H43867   2.784   2.090   7.753  1.0014 -1.7441  1.9007
  325MOL0     H43868   2.626   2.079   7.668 -0.9272 -1.2241  2.8470
  325MOL0     H43869   2.732   1.902   7.508 -1.8560  0.1529  1.6495
  325MOL0     H43870   2.884   1.951   7.584  0.5170  1.2474 -1.1032
  325MOL0     H43871   2.718   2.108   7.382 -0.2548 -0.1981 -1.1737
  325MOL0     H43872   2.884   2.046   7.375 -1.1198  2.5789 -2.3891
  325MOL0     H43873   2.884   2.436   7.561  1.4867  0.4485 -1.4379
  325MOL0     H43874   2.450   1.991   7.829 -0.2563  2.8416 -2.0881
  325MOL0     H43875   2.197   2.002   7.811 -1.2025 -1.2809  2.1871
  326MOL0     O43876   1.654   0.082   1.635  0.3099 -0.4139 -0.3129
  326MOL0     C43877   1.684   0.052   1.517  0.3569  0.1819 -0.5591
  326MOL0     O43878   1.601   0.007   1.423  0.2341  0.1009  0.0884
  326MOL0     C43879   1.467  -0.020   1.459 -0.3678 -0.7429  1.0921
  326MOL0     C43880   1.372   0.051   1.389 -0.3129  0.4876 -0.0719
  326MOL0     C43881   1.238   0.017   1.413  0.6469 -0.3616  0.5384
  326MOL0     C43882   1.195  -0.087   1.499  0.6724 -0.1043 -0.5447
  326MOL0     O43883   1.065  -0.107   1.507  0.0045  0.4904 -0.3298
  326MOL0     C43884   1.031  -0.239   1.555 -0.3389 -0.2112  0.6279
  326MOL0     C43885   0.889  -0.252   1.511  1.3571 -0.0951 -0.6483
  326MOL0     C43886   0.795  -0.166   1.585  0.7151 -0.5925  0.1815
  326MOL0     C43887   0.651  -0.206   1.570 -0.5123  0.6936  0.7699
  326MOL0     C43888   0.568  -0.085   1.631  0.3181  0.1905  0.0220
  326MOL0     C43889   0.424  -0.134   1.628  0.4399 -0.5095 -0.0838
  326MOL0     C43890   0.333  -0.057   1.716  0.4414 -0.2584 -0.2431
  326MOL0     C43891   0.311   0.080   1.667  0.2736 -0.6131  0.4211
  326MOL0     N43892   0.196   0.091   1.566  0.2140 -0.0738  0.2631
  326MOL0     C43893   0.056   0.119   1.601 -0.7695  0.0519 -0.2256
  326MOL0     C43894  -0.012   0.111   1.474  0.7435 -0.6557  0.1281
  326MOL0     C43895  -0.163   0.141   1.452 -0.1374  0.2060 -0.1026
  326MOL0     C43896  -0.179   0.265   1.362  0.3557 -0.0533  0.0409
  326MOL0     C43897  -0.318   0.332   1.364  0.1440 -0.0306  0.5779
  326MOL0     C43898  -0.438   0.232   1.340  0.7746  0.4853 -0.2862
  326MOL0     O43899  -0.564   0.306   1.334  0.1283 -0.2812 -0.5169
  326MOL0     C43900  -0.669   0.226   1.372 -0.0311  0.3845 -0.2465
  326MOL0     C43901  -0.673   0.087   1.345  0.0685 -0.5716  0.4332
  326MOL0     C43902  -0.782   0.003   1.378  0.1092  0.5191 -0.5354
  326MOL0     C43903  -0.766  -0.146   1.362 -0.5587 -0.0265 -0.7269
  326MOL0     C43904  -0.895   0.064   1.426  0.6288  0.5182 -0.3032
  326MOL0     C43905  -1.021  -0.011   1.451 -0.3087 -0.7101  0.4574
  326MOL0     O43906  -1.137   0.066   1.445  0.6742 -0.2945  0.3861
  326MOL0     C43907  -1.260   0.011   1.434 -0.5504  0.5112  0.1508
  326MOL0     C43908  -1.353   0.058   1.519  0.0625  1.6872  0.9291
  326MOL0     C43909  -1.484  -0.000   1.520  0.2119 -0.0466 -0.0783
  326MOL0     C43910  -1.513  -0.082   1.418  0.1244 -0.5678 -0.8943
  326MOL0     O43911  -1.644  -0.128   1.412 -0.6043 -0.2247  0.4000
  326MOL0     C43912  -1.713  -0.100   1.287 -0.0491 -0.0184  0.3836
  326MOL0     C43913  -1.857  -0.073   1.316 -0.8683  0.3263  1.4846
  326MOL0     C43914  -1.889   0.013   1.440 -0.4606 -0.5526  0.2104
  326MOL0     C43915  -2.033   0.042   1.465 -0.2034  0.2780  0.4680
  326MOL0     C43916  -2.109   0.105   1.343 -0.1368 -0.1110  0.0194
  326MOL0     C43917  -2.237   0.152   1.398  0.0382 -0.5435  0.7654
  326MOL0     C43918  -2.324   0.203   1.286  0.2994 -0.4180 -0.1444
  326MOL0     C43919  -2.471   0.175   1.299  0.7154 -0.2513 -0.7797
  326MOL0    Cl43920  -2.562   0.289   1.191 -0.1588  0.1691 -0.2778
  326MOL0     C43921  -1.413  -0.127   1.324  0.0530 -0.1941  0.0235
  326MOL0     C43922  -1.286  -0.078   1.335  0.1501 -0.5763  0.1232
  326MOL0     O43923  -1.023  -0.133   1.458  0.1910 -0.2030  0.8882
  326MOL0     C43924  -0.901   0.201   1.426 -0.2809  0.0025  0.9017
  326MOL0     C43925  -0.791   0.282   1.402 -0.2055 -0.3041 -1.2087
  326MOL0     N43926   0.081   0.096   1.374  0.1752  0.4153 -0.4541
  326MOL0     N43927   0.203   0.082   1.427  1.0870 -0.1609 -0.2781
  326MOL0     C43928   1.297  -0.150   1.569  1.0057  0.1631 -0.1878
  326MOL0     C43929   1.427  -0.117   1.552 -0.1492 -0.2743 -0.0740
  326MOL0     C43930   1.826   0.052   1.470 -0.9248 -0.1082 -0.2917
  326MOL0     C43931   1.855   0.039   1.332  0.3308 -0.0696  0.6284
  326MOL0     C43932   1.980   0.046   1.284 -1.4643 -0.6478  0.6809
  326MOL0     C43933   2.096   0.037   1.369  0.0126 -0.3432 -0.3098
  326MOL0     O43934   2.227   0.028   1.339  0.2152 -0.0145 -0.4531
  326MOL0     C43935   2.274   0.050   1.214 -0.4704 -0.9146 -0.0573
  326MOL0     C43936   2.352   0.191   1.192  0.1555 -0.1503  0.0068
  326MOL0     C43937   2.466   0.197   1.294  0.0745  0.5575 -0.0630
  326MOL0     C43938   2.591   0.277   1.242  0.2259 -0.0175  0.1863
  326MOL0     C43939   2.659   0.218   1.123  0.5206 -1.0488 -0.2831
  326MOL0     C43940   2.702   0.164   1.027 -0.9087 -0.0522  0.3833
  326MOL0     C43941   2.065   0.039   1.508 -0.5394 -0.2134 -0.0400
  326MOL0     C43942   1.938   0.047   1.561 -0.4892  0.5080 -0.0684
  326MOL0     H43943   1.401   0.121   1.310  0.8120 -0.0427 -0.1330
  326MOL0     H43944   1.167   0.078   1.359  2.5680  0.3053 -1.3715
  326MOL0     H43945   1.090  -0.318   1.507 -0.3033 -1.7639  3.0604
  326MOL0     H43946   1.055  -0.253   1.661 -0.0321 -4.5123  0.1665
  326MOL0     H43947   0.890  -0.232   1.404  0.1864 -1.5798 -0.9625
  326MOL0     H43948   0.866  -0.358   1.526 -0.8892  0.2350 -1.4388
  326MOL0     H43949   0.833  -0.162   1.688  0.0917  1.5095  0.3873
  326MOL0     H43950   0.800  -0.059   1.560 -2.0257  0.3975  3.0978
  326MOL0     H43951   0.613  -0.236   1.472  0.2073 -1.4311  1.0919
  326MOL0     H43952   0.627  -0.296   1.629  1.1708  1.1204  2.1774
  326MOL0     H43953   0.601  -0.067   1.733 -0.1448 -1.2205  0.4498
  326MOL0     H43954   0.583   0.007   1.575 -0.0879 -0.7305 -1.6756
  326MOL0     H43955   0.385  -0.130   1.526  2.0302  0.5787 -0.6851
  326MOL0     H43956   0.413  -0.239   1.656 -2.8321 -0.2285  0.0494
  326MOL0     H43957   0.234  -0.102   1.729  0.7358 -0.6946  0.5562
  326MOL0     H43958   0.375  -0.051   1.817  0.6010  0.6592 -0.3560
  326MOL0     H43959   0.401   0.125   1.624  0.8480 -3.0943 -1.2666
  326MOL0     H43960   0.272   0.141   1.748 -0.0354  0.4588 -0.5020
  326MOL0     H43961   0.014   0.148   1.697  0.5593 -1.1787  0.7759
  326MOL0     H43962  -0.208   0.050   1.410 -0.2866 -0.3296  1.1629
  326MOL0     H43963  -0.201   0.148   1.554  2.3580 -0.1626  0.9213
  326MOL0     H43964  -0.143   0.246   1.260  0.1798  1.1161 -0.2454
  326MOL0     H43965  -0.123   0.349   1.404 -1.3701  0.2634  1.8372
  326MOL0     H43966  -0.324   0.410   1.288  1.1931  0.3707  0.8954
  326MOL0     H43967  -0.329   0.381   1.461  1.0479  0.4828  0.4362
  326MOL0     H43968  -0.443   0.152   1.413  2.1725  1.3353  0.7866
  326MOL0     H43969  -0.426   0.181   1.243  0.8237 -0.5456  0.2486
  326MOL0     H43970  -0.597   0.036   1.286 -1.4527 -3.3771  0.7419
  326MOL0     H43971  -0.665  -0.162   1.323  0.8655 -0.8334  2.8064
  326MOL0     H43972  -0.773  -0.182   1.465  0.9456  1.7219  0.0513
  326MOL0     H43973  -0.841  -0.184   1.292 -0.7101  0.6462 -0.9326
  326MOL0     H43974  -1.322   0.128   1.596  0.9238  1.7059  0.5746
  326MOL0     H43975  -1.554   0.034   1.595 -1.3128  2.1699 -2.3282
  326MOL0     H43976  -1.675  -0.008   1.241  0.4921 -0.8916 -0.9842
  326MOL0     H43977  -1.692  -0.176   1.211 -3.1241 -0.3405 -0.2428
  326MOL0     H43978  -1.899  -0.024   1.228  0.3955  2.2500  1.8897
  326MOL0     H43979  -1.901  -0.173   1.325  1.5166 -0.9161  0.2485
  326MOL0     H43980  -1.853   0.113   1.411 -0.0686 -0.3230  1.4210
  326MOL0     H43981  -1.840  -0.029   1.528  2.6796 -0.5324 -1.3579
  326MOL0     H43982  -2.077  -0.055   1.489  0.5540  0.3470  2.2559
  326MOL0     H43983  -2.032   0.104   1.555  1.0529  1.2314 -0.1724
  326MOL0     H43984  -2.125   0.043   1.255 -1.3373  2.6562 -1.8609
  326MOL0     H43985  -2.055   0.193   1.308  2.2400 -1.3765  0.2915
  326MOL0     H43986  -2.292   0.070   1.448 -0.5964 -1.9692 -2.0581
  326MOL0     H43987  -2.199   0.229   1.465  1.4470 -0.7934  0.2715
  326MOL0     H43988  -2.292   0.165   1.189 -0.1699 -0.6223 -0.2197
  326MOL0     H43989  -2.319   0.312   1.295  0.4351 -0.3359 -1.1418
  326MOL0     H43990  -2.505   0.192   1.402  0.2636  1.4943 -1.1783
  326MOL0     H43991  -2.487   0.068   1.284  1.5891 -1.3026  4.1469
  326MOL0     H43992  -1.441  -0.188   1.239  1.5652 -0.9505  0.0267
  326MOL0     H43993  -1.200  -0.112   1.278 -0.1256  0.0634 -0.6959
  326MOL0     H43994  -0.983   0.258   1.467  0.5735  0.8903  1.4115
  326MOL0     H43995  -0.805   0.390   1.413 -0.9186 -0.1904 -2.9242
  326MOL0     H43996   1.278  -0.239   1.627 -0.7517 -1.3881 -2.9055
  326MOL0     H43997   1.510  -0.152   1.613  0.6611  4.4082  1.9242
  326MOL0     H43998   1.773   0.034   1.260  0.2399 -1.5517  0.8072
  326MOL0     H43999   1.995   0.055   1.177 -0.3903  4.0426  0.9856
  326MOL0     H44000   2.353  -0.024   1.192 -0.5450 -0.4537 -2.1052
  326MOL0     H44001   2.198   0.040   1.136 -0.1453  0.3956 -0.5641
  326MOL0     H44002   2.279   0.271   1.206 -1.7310 -1.9734  1.1219
  326MOL0     H44003   2.392   0.205   1.091 -1.0411 -1.7321 -0.7326
  326MOL0     H44004   2.492   0.095   1.324 -1.6237 -0.6189 -2.2856
  326MOL0     H44005   2.422   0.246   1.381  2.3618 -0.5935  1.8734
  326MOL0     H44006   2.670   0.266   1.318  0.9504 -0.5030 -0.6140
  326MOL0     H44007   2.569   0.384   1.234 -0.0482 -0.1658 -1.3400
  326MOL0     H44008   2.752   0.113   0.947  1.6050  0.3750  1.5771
  326MOL0     H44009   2.151   0.048   1.573 -1.2962  0.3906  0.8931
  326MOL0     H44010   1.933   0.051   1.670  3.2508  2.3496  0.2092
  327MOL0     O44011   5.669   3.829  11.271 -0.1612 -0.1682 -0.0079
  327MOL0     C44012   5.648   3.736  11.351 -0.0391  0.0307 -0.0910
  327MOL0     O44013   5.533   3.669  11.371  0.0543  0.3102  0.4666
  327MOL0     C44014   5.414   3.714  11.333  0.0861 -1.0133 -0.1304
  327MOL0     C44015   5.354   3.657  11.217 -0.2834  0.5244  0.0714
  327MOL0     C44016   5.230   3.711  11.176  0.2653  0.0318 -0.3715
  327MOL0     C44017   5.170   3.820  11.244 -0.2658 -0.6088 -0.2218
  327MOL0     O44018   5.050   3.860  11.195 -0.4283  0.1560  0.2175
  327MOL0     C44019   4.986   3.985  11.239  0.2327 -0.5579  1.0856
  327MOL0     C44020   4.871   4.024  11.137  0.0468 -0.9574 -0.4658
  327MOL0     C44021   4.735   3.951  11.158  0.1487  0.1641  0.4249
  327MOL0     C44022   4.630   4.001  11.055  0.3156  0.0936  0.5551
  327MOL0     C44023   4.487   3.930  11.082 -0.0535 -0.0624  0.8037
  327MOL0     C44024   4.500   3.777  11.066  1.6141 -0.9542  0.1227
  327MOL0     C44025   4.354   3.714  11.080 -0.2843 -0.3321 -0.2366
  327MOL0     C44026   4.287   3.736  11.214 -1.2529  0.5795  0.6590
  327MOL0     N44027   4.155   3.673  11.235  0.1305  0.4089  0.0399
  327MOL0     C44028   4.064   3.720  11.323  0.4351 -0.7222 -0.3626
  327MOL0     C44029   3.949   3.651  11.304  0.3673  0.3378 -0.0725
  327MOL0     C44030   3.833   3.663  11.409 -0.5290 -0.3463 -0.3927
  327MOL0     C44031   3.743   3.780  11.350  0.7566  0.5171  1.0016
  327MOL0     C44032   3.606   3.788  11.434 -0.3537 -0.0406 -0.2192
  327MOL0     C44033   3.516   3.901  11.390 -0.1195  0.6507  0.2067
  327MOL0     O44034   3.407   3.909  11.485 -0.5272 -0.1976  0.3782
  327MOL0     C44035   3.285   3.871  11.450  0.1878  0.5807  0.4361
  327MOL0     C44036   3.186   3.924  11.522 -0.5537  1.5263 -0.8930
  327MOL0     C44037   3.048   3.895  11.505 -0.9334 -0.5294 -0.5447
  327MOL0     C44038   2.948   3.959  11.597 -0.0424  0.3708 -0.8914
  327MOL0     C44039   3.012   3.802  11.403 -0.1932 -0.2282  0.5438
  327MOL0     C44040   2.875   3.765  11.368  0.3449  0.0538  0.1578
  327MOL0     O44041   2.837   3.747  11.238  0.0645  0.1028  0.0566
  327MOL0     C44042   2.711   3.700  11.206  0.1179 -0.4638 -0.6770
  327MOL0     C44043   2.645   3.591  11.268 -0.3535 -0.0702  0.1234
  327MOL0     C44044   2.537   3.530  11.208  0.4013 -1.1533 -0.0242
  327MOL0     C44045   2.473   3.592  11.098 -0.0659 -0.0205  0.0269
  327MOL0     O44046   2.357   3.528  11.063  0.1138 -0.7045 -0.1000
  327MOL0     C44047   2.266   3.588  10.973  0.1446  0.0346 -0.0743
  327MOL0     C44048   2.301   3.563  10.823 -0.1400 -0.1910  0.0406
  327MOL0     C44049   2.196   3.611  10.709 -0.2940  0.2764  0.3426
  327MOL0     C44050   2.177   3.758  10.706  0.4509  0.1447  0.0652
  327MOL0     C44051   2.053   3.796  10.609 -0.3819 -0.2957  0.1075
  327MOL0     C44052   1.917   3.774  10.681  0.0362  0.2846 -0.7433
  327MOL0     C44053   1.793   3.817  10.601 -0.9674 -0.3758 -0.7897
  327MOL0     C44054   1.766   3.740  10.467 -0.4344 -0.6849  0.5622
  327MOL0    Cl44055   1.738   3.568  10.474  0.4053  0.2995 -0.3823
  327MOL0     C44056   2.529   3.707  11.044 -0.7819 -0.4521 -0.8173
  327MOL0     C44057   2.651   3.755  11.097  0.1326  0.5661 -0.2987
  327MOL0     O44058   2.793   3.767  11.459 -0.0748 -0.6152 -0.1977
  327MOL0     C44059   3.123   3.755  11.322  0.0870 -0.4114 -1.2247
  327MOL0     C44060   3.258   3.785  11.346  0.6970 -0.6404 -0.1515
  327MOL0     N44061   3.974   3.550  11.214  0.1967 -0.5839  0.2500
  327MOL0     N44062   4.094   3.571  11.169  0.1017  0.1358  0.6218
  327MOL0     C44063   5.217   3.860  11.367 -0.1624 -0.3822 -0.6443
  327MOL0     C44064   5.337   3.808  11.410 -0.2948  0.4267 -0.6790
  327MOL0     C44065   5.774   3.688  11.422 -0.0214  0.5121  0.0200
  327MOL0     C44066   5.769   3.593  11.527 -0.2099  0.0562  0.7025
  327MOL0     C44067   5.888   3.546  11.581 -0.0845 -0.8123  0.3202
  327MOL0     C44068   6.012   3.603  11.553 -0.1699  0.3694  0.4895
  327MOL0     O44069   6.127   3.555  11.615 -0.1207 -0.2432  0.3295
  327MOL0     C44070   6.253   3.610  11.587  0.2582  0.7537 -0.2104
  327MOL0     C44071   6.361   3.537  11.670  0.5929  0.4132 -0.3445
  327MOL0     C44072   6.350   3.382  11.662 -0.3122  0.1138 -0.1743
  327MOL0     C44073   6.381   3.343  11.519 -0.0270 -0.0857  0.1033
  327MOL0     C44074   6.420   3.204  11.519  0.6473  0.0871  0.1168
  327MOL0     C44075   6.429   3.087  11.519  0.1965 -0.1860  0.9344
  327MOL0     C44076   6.010   3.706  11.464 -0.0482 -0.0938 -0.1837
  327MOL0     C44077   5.897   3.742  11.386  0.0155 -0.2405 -0.3998
  327MOL0     H44078   5.396   3.576  11.158  2.0524  1.1672  0.7449
  327MOL0     H44079   5.179   3.666  11.091 -0.3927  0.4383 -0.1946
  327MOL0     H44080   4.955   3.979  11.344 -0.7567 -0.5968  0.8016
  327MOL0     H44081   5.061   4.061  11.218  0.9324 -2.1948 -3.3956
  327MOL0     H44082   4.854   4.127  11.171  1.7650 -0.9747  0.5722
  327MOL0     H44083   4.915   4.024  11.037  0.1443 -1.2593 -0.4240
  327MOL0     H44084   4.755   3.846  11.136  1.4324  0.7516 -1.5357
  327MOL0     H44085   4.700   3.956  11.261 -1.7052 -3.0177  0.0615
  327MOL0     H44086   4.626   4.110  11.062 -1.5239  0.0576  0.4566
  327MOL0     H44087   4.667   3.986  10.953 -0.3751 -2.0826  0.5758
  327MOL0     H44088   4.448   3.950  11.182 -1.0715 -1.1925  0.6545
  327MOL0     H44089   4.403   3.963  11.020 -0.4507 -1.7004  0.4414
  327MOL0     H44090   4.529   3.770  10.960 -0.0790  0.8126 -0.5181
  327MOL0     H44091   4.576   3.717  11.117  0.4660 -1.5308  1.1975
  327MOL0     H44092   4.288   3.763  11.007 -0.5821  1.8520  1.4340
  327MOL0     H44093   4.373   3.608  11.061 -1.1677 -0.9196  1.9319
  327MOL0     H44094   4.277   3.843  11.234  1.0868  0.7759  1.0486
  327MOL0     H44095   4.347   3.703  11.299  1.6670  0.8701 -1.1221
  327MOL0     H44096   4.086   3.805  11.387 -0.8004 -0.5508 -0.1225
  327MOL0     H44097   3.771   3.573  11.415  0.0337 -0.7504 -0.6694
  327MOL0     H44098   3.874   3.686  11.507  1.1628 -1.9208 -0.6903
  327MOL0     H44099   3.711   3.757  11.248  0.9606  0.7542  0.8833
  327MOL0     H44100   3.800   3.873  11.342  2.3174 -0.4842  0.0452
  327MOL0     H44101   3.618   3.789  11.542  1.2862  0.1971 -0.3786
  327MOL0     H44102   3.553   3.693  11.422  0.6743 -0.6937  0.3003
  327MOL0     H44103   3.481   3.894  11.287 -1.3488  5.1349  0.1286
  327MOL0     H44104   3.564   3.999  11.393 -0.2578  0.7168  0.2647
  327MOL0     H44105   3.201   3.996  11.602 -2.7208  0.6833  0.3736
  327MOL0     H44106   2.978   4.060  11.629  1.1456 -0.2392  0.0170
  327MOL0     H44107   2.853   3.981  11.547 -1.2701  2.3513  1.9753
  327MOL0     H44108   2.938   3.895  11.685 -0.2148  0.0423 -1.1499
  327MOL0     H44109   2.688   3.553  11.360  2.6247  0.3001 -1.0136
  327MOL0     H44110   2.489   3.446  11.258 -0.7470 -1.1012 -0.9950
  327MOL0     H44111   2.169   3.538  10.981 -0.0666 -0.4849 -4.0905
  327MOL0     H44112   2.246   3.694  10.993 -1.1714 -0.7184  3.1502
  327MOL0     H44113   2.399   3.603  10.797 -0.1522  1.6410  2.4455
  327MOL0     H44114   2.316   3.455  10.816 -1.5868 -0.3144 -1.8806
  327MOL0     H44115   2.102   3.561  10.733 -0.2884 -0.4030 -0.9715
  327MOL0     H44116   2.232   3.566  10.616  0.7737 -1.1143  1.3709
  327MOL0     H44117   2.155   3.797  10.806  3.1851  0.5389  0.5880
  327MOL0     H44118   2.271   3.803  10.674 -0.2331  0.0537 -2.2997
  327MOL0     H44119   2.065   3.735  10.519  2.8436 -0.3141  0.4268
  327MOL0     H44120   2.062   3.903  10.592 -3.1996  0.0075  0.0271
  327MOL0     H44121   1.890   3.673  10.713 -1.2925  0.2496 -1.9028
  327MOL0     H44122   1.904   3.833  10.772 -0.1906  0.1038 -0.6579
  327MOL0     H44123   1.814   3.920  10.573  1.3599  0.1505  2.3731
  327MOL0     H44124   1.708   3.807  10.669 -0.5063 -3.2101 -0.4924
  327MOL0     H44125   1.850   3.747  10.397 -1.1390  0.2794 -0.2214
  327MOL0     H44126   1.682   3.785  10.414 -0.5204 -1.7749 -0.2431
  327MOL0     H44127   2.491   3.751  10.952  2.5755  0.8655 -1.7156
  327MOL0     H44128   2.697   3.843  11.051  4.1023 -0.2349  1.7347
  327MOL0     H44129   3.101   3.695  11.234  0.6901 -0.3271 -1.4333
  327MOL0     H44130   3.325   3.736  11.276 -0.7643 -1.9850 -0.6692
  327MOL0     H44131   5.175   3.935  11.433  0.2568  0.4293 -1.2815
  327MOL0     H44132   5.364   3.848  11.507 -0.7694 -1.3578  0.2299
  327MOL0     H44133   5.675   3.548  11.557 -2.0076  3.2927  0.4291
  327MOL0     H44134   5.882   3.479  11.666 -0.2206 -0.5146  0.5470
  327MOL0     H44135   6.274   3.595  11.481  0.3117 -0.1038 -0.0880
  327MOL0     H44136   6.242   3.716  11.612 -1.3344  0.0019  2.8002
  327MOL0     H44137   6.357   3.563  11.776 -0.5857 -1.2451  0.0625
  327MOL0     H44138   6.460   3.562  11.628  1.8370 -0.6524  1.7913
  327MOL0     H44139   6.256   3.344  11.703  0.4896  0.7979  2.5174
  327MOL0     H44140   6.422   3.347  11.737 -0.2620 -0.8123 -0.6413
  327MOL0     H44141   6.470   3.390  11.477  0.6151 -0.9407  0.4565
  327MOL0     H44142   6.296   3.357  11.451  0.2099 -0.3631 -0.2533
  327MOL0     H44143   6.460   2.985  11.525 -0.2519 -0.2218  4.3545
  327MOL0     H44144   6.108   3.746  11.440  0.0946  0.8627  1.7965
  327MOL0     H44145   5.900   3.816  11.306 -0.0025  0.4242  0.1977
  328MOL0     O44146   3.994   2.198   4.128 -0.1136 -0.3876  0.3914
  328MOL0     C44147   3.957   2.269   4.218  0.0550  0.2646 -0.5451
  328MOL0     O44148   3.834   2.321   4.233 -0.0274 -0.0303  0.0068
  328MOL0     C44149   3.744   2.310   4.125 -0.6313 -0.9892  0.1894
  328MOL0     C44150   3.611   2.272   4.155 -0.0462  0.2462  1.0317
  328MOL0     C44151   3.516   2.268   4.055 -0.3325 -0.7221 -0.0555
  328MOL0     C44152   3.555   2.300   3.916  1.5610 -0.1041  0.2538
  328MOL0     O44153   3.458   2.298   3.815 -1.0623 -0.6839  0.0573
  328MOL0     C44154   3.318   2.308   3.838 -1.1516 -0.1176 -0.0424
  328MOL0     C44155   3.253   2.167   3.818  0.1607 -0.3159 -0.0291
  328MOL0     C44156   3.105   2.160   3.805  0.5505  0.4949  0.6488
  328MOL0     C44157   3.030   2.223   3.923  0.1147 -0.0619  0.1490
  328MOL0     C44158   3.062   2.158   4.057 -0.6388 -0.0702 -0.2919
  328MOL0     C44159   2.960   2.207   4.168  0.2008 -0.5914  0.1059
  328MOL0     C44160   2.994   2.144   4.299  1.0397 -0.2832  0.3468
  328MOL0     C44161   2.874   2.150   4.400 -1.0154 -0.0892  0.2500
  328MOL0     N44162   2.837   2.293   4.416  0.0784  1.2517 -0.1437
  328MOL0     C44163   2.892   2.378   4.502 -0.5062  0.5124 -0.0996
  328MOL0     C44164   2.827   2.492   4.492 -0.0215  0.2081  0.8293
  328MOL0     C44165   2.854   2.622   4.571 -0.3224  0.4699 -0.1573
  328MOL0     C44166   2.730   2.677   4.643 -0.0589 -0.7495 -0.1586
  328MOL0     C44167   2.747   2.830   4.704  0.3693 -0.2278  0.5048
  328MOL0     C44168   2.629   2.921   4.683  0.1457  0.3994  0.4098
  328MOL0     O44169   2.514   2.871   4.751  0.0742 -0.4288  0.6575
  328MOL0     C44170   2.423   2.957   4.799  0.7250 -0.1009 -0.3643
  328MOL0     C44171   2.292   2.947   4.759  0.3841  0.0422 -0.4788
  328MOL0     C44172   2.191   3.043   4.800 -0.9007 -0.2329 -0.2488
  328MOL0     C44173   2.061   3.051   4.738  0.9164 -0.5057  0.4055
  328MOL0     C44174   2.239   3.140   4.886  0.3892 -0.6119 -0.1349
  328MOL0     C44175   2.156   3.259   4.930  0.4696  0.2729  0.3029
  328MOL0     O44176   2.177   3.312   5.057  0.4677  0.0562  0.2072
  328MOL0     C44177   2.089   3.399   5.116  0.2577  0.0050 -0.8092
  328MOL0     C44178   2.032   3.512   5.049 -0.8929  0.4414 -0.2102
  328MOL0     C44179   1.972   3.612   5.126  0.0948  0.3818  0.4940
  328MOL0     C44180   1.970   3.606   5.266 -0.4629 -0.4243  0.0706
  328MOL0     O44181   1.904   3.707   5.338 -0.0675 -0.2493 -0.2244
  328MOL0     C44182   1.975   3.762   5.451  0.4035 -0.0433 -0.0026
  328MOL0     C44183   1.980   3.917   5.433 -0.6355  0.7685  0.5715
  328MOL0     C44184   1.848   3.990   5.461 -0.1709  0.7560  0.5468
  328MOL0     C44185   1.861   4.146   5.453 -0.7014 -0.3436  0.0650
  328MOL0     C44186   1.730   4.213   5.499  0.2403  0.3128 -0.0163
  328MOL0     C44187   1.690   4.313   5.391 -0.2382  0.5389  0.3531
  328MOL0     C44188   1.574   4.410   5.452 -0.5310 -0.3409  0.1658
  328MOL0     C44189   1.443   4.340   5.459  0.1500 -0.0420 -0.1093
  328MOL0    Cl44190   1.306   4.443   5.501  0.1049 -0.3284  0.3021
  328MOL0     C44191   2.031   3.496   5.328  0.6176 -0.1013  0.0788
  328MOL0     C44192   2.080   3.386   5.257  0.7057 -1.2690 -0.5047
  328MOL0     O44193   2.072   3.309   4.854 -0.7665  0.6993  0.8384
  328MOL0     C44194   2.364   3.149   4.935 -0.5994  0.2663 -0.9288
  328MOL0     C44195   2.456   3.050   4.898 -0.0042 -0.9976 -0.4651
  328MOL0     N44196   2.733   2.469   4.388  0.6340 -0.1974 -0.1192
  328MOL0     N44197   2.735   2.347   4.345  0.1246  0.1648 -0.0018
  328MOL0     C44198   3.680   2.347   3.889 -0.1347  0.5796 -0.1186
  328MOL0     C44199   3.774   2.350   3.996  0.0111  0.4702 -0.5349
  328MOL0     C44200   4.045   2.286   4.332  0.1595  0.4253  0.3293
  328MOL0     C44201   4.182   2.262   4.310  1.0741 -0.0928  0.7733
  328MOL0     C44202   4.274   2.282   4.414 -0.2424 -0.3615 -0.1418
  328MOL0     C44203   4.224   2.300   4.547  0.9516 -0.2060  0.4911
  328MOL0     O44204   4.298   2.298   4.662 -0.7369 -0.0758  0.4095
  328MOL0     C44205   4.433   2.278   4.656 -0.9762  0.0240 -0.6222
  328MOL0     C44206   4.501   2.252   4.791 -0.2758 -0.4756 -0.5357
  328MOL0     C44207   4.657   2.248   4.772 -0.2497  0.0733 -0.1234
  328MOL0     C44208   4.715   2.228   4.914 -0.9288 -0.1208 -0.0316
  328MOL0     C44209   4.864   2.233   4.894  0.9688  0.0364  0.7662
  328MOL0     C44210   4.978   2.245   4.869  0.3413 -0.2040 -0.4186
  328MOL0     C44211   4.089   2.317   4.563  0.0779 -0.1388  0.4627
  328MOL0     C44212   3.999   2.316   4.453  0.1471 -0.4327  0.6444
  328MOL0     H44213   3.589   2.239   4.256  1.6920 -0.2034  1.2856
  328MOL0     H44214   3.415   2.239   4.081 -0.4124 -1.6068 -1.2675
  328MOL0     H44215   3.297   2.361   3.931 -2.4494 -2.0357  0.8209
  328MOL0     H44216   3.274   2.386   3.775  1.9601  0.8908 -1.1430
  328MOL0     H44217   3.291   2.124   3.725 -1.7283 -1.6867 -0.2256
  328MOL0     H44218   3.276   2.095   3.898 -2.3010 -1.1942 -0.0199
  328MOL0     H44219   3.078   2.217   3.716 -0.7754 -0.5373  0.3504
  328MOL0     H44220   3.083   2.053   3.793  0.7122  0.6886 -2.1922
  328MOL0     H44221   3.063   2.327   3.934  0.9874 -0.4763  1.9463
  328MOL0     H44222   2.924   2.223   3.898  0.4434  0.3633 -1.3427
  328MOL0     H44223   3.061   2.049   4.049  1.9206 -0.2094  0.4353
  328MOL0     H44224   3.162   2.192   4.085 -0.5540 -0.2795 -0.3348
  328MOL0     H44225   2.968   2.316   4.174  1.1782 -0.3812 -3.1866
  328MOL0     H44226   2.858   2.178   4.143  0.5877  0.4046 -3.1744
  328MOL0     H44227   3.020   2.039   4.281  0.1036 -0.7115  1.3000
  328MOL0     H44228   3.084   2.193   4.335  1.1095  1.0817 -1.5383
  328MOL0     H44229   2.907   2.097   4.489 -0.0680 -0.5454 -0.3578
  328MOL0     H44230   2.783   2.104   4.360 -2.1481  0.5140  2.0140
  328MOL0     H44231   2.976   2.367   4.570 -1.0574 -0.2744  0.4684
  328MOL0     H44232   2.933   2.607   4.644  1.4899  0.6571 -1.9890
  328MOL0     H44233   2.882   2.695   4.494 -1.4583  2.1311  0.9316
  328MOL0     H44234   2.692   2.617   4.726 -1.0879  1.1842  0.8229
  328MOL0     H44235   2.648   2.674   4.571 -0.7073 -1.4554  0.5955
  328MOL0     H44236   2.831   2.880   4.655 -0.3622 -0.3452 -0.9393
  328MOL0     H44237   2.769   2.823   4.811 -2.5491 -1.2013  1.1247
  328MOL0     H44238   2.621   2.923   4.574 -1.2490  1.1233  0.5015
  328MOL0     H44239   2.650   3.026   4.706  0.0879  0.5708 -0.3182
  328MOL0     H44240   2.261   2.876   4.683  0.7053  2.7106 -3.2991
  328MOL0     H44241   2.060   3.133   4.665 -0.8114 -3.5895 -3.4335
  328MOL0     H44242   2.035   2.967   4.673 -1.6425  0.2047  0.4030
  328MOL0     H44243   1.983   3.058   4.813  2.2600 -2.5390  2.1140
  328MOL0     H44244   2.032   3.520   4.941  0.4864  0.2242 -0.2403
  328MOL0     H44245   1.938   3.702   5.077 -0.4525  1.5043  2.7844
  328MOL0     H44246   1.921   3.744   5.545  0.5300 -0.9617 -0.1009
  328MOL0     H44247   2.075   3.720   5.464  1.0767  1.6769  0.7807
  328MOL0     H44248   2.062   3.941   5.502  0.9583 -1.8633 -0.2743
  328MOL0     H44249   2.014   3.946   5.333 -0.5386 -0.8360  0.1116
  328MOL0     H44250   1.817   3.958   5.560  2.4200  1.1310  1.5697
  328MOL0     H44251   1.773   3.960   5.387  1.9792 -3.7646 -0.1802
  328MOL0     H44252   1.940   4.192   5.513  0.6841 -2.1461 -0.2915
  328MOL0     H44253   1.893   4.173   5.352  1.5599 -0.5600  0.6708
  328MOL0     H44254   1.741   4.272   5.590  0.3147 -1.2643  1.0344
  328MOL0     H44255   1.651   4.138   5.509  0.9627 -0.4593  0.0215
  328MOL0     H44256   1.774   4.376   5.363 -0.2533  0.6344  0.5213
  328MOL0     H44257   1.656   4.267   5.298  1.7714  2.4171 -1.3942
  328MOL0     H44258   1.561   4.497   5.387 -0.5656  0.4115  1.1460
  328MOL0     H44259   1.605   4.455   5.547 -0.6257 -0.1444  0.1034
  328MOL0     H44260   1.449   4.253   5.525 -0.5964  1.2227  1.7429
  328MOL0     H44261   1.415   4.304   5.360  0.3204 -0.2047 -0.0990
  328MOL0     H44262   2.054   3.496   5.434 -0.7330 -0.4947  0.3887
  328MOL0     H44263   2.132   3.308   5.312  0.1336  1.2918  4.1396
  328MOL0     H44264   2.397   3.230   5.000 -2.1334 -0.0140  0.2522
  328MOL0     H44265   2.558   3.041   4.936 -0.1866 -2.3510 -0.2579
  328MOL0     H44266   3.713   2.374   3.789  0.4954  2.0700  0.4631
  328MOL0     H44267   3.873   2.391   3.977  0.5421 -0.3054  0.4936
  328MOL0     H44268   4.228   2.231   4.217 -0.4156 -3.4685  1.0187
  328MOL0     H44269   4.379   2.270   4.392 -0.2693 -1.1342  0.1489
  328MOL0     H44270   4.451   2.189   4.594 -1.6586 -2.0444  1.9880
  328MOL0     H44271   4.478   2.370   4.617 -0.8820  1.4841  2.6420
  328MOL0     H44272   4.457   2.159   4.827 -0.6854 -0.4146 -0.8744
  328MOL0     H44273   4.491   2.338   4.858 -0.8608 -0.0009 -1.2163
  328MOL0     H44274   4.685   2.337   4.716  2.2802  0.4158  1.5107
  328MOL0     H44275   4.697   2.162   4.717  0.8256  0.5558 -0.1175
  328MOL0     H44276   4.697   2.131   4.962 -0.6326 -0.4300 -0.5309
  328MOL0     H44277   4.679   2.306   4.981 -1.9417  2.2481 -3.1115
  328MOL0     H44278   5.085   2.252   4.863  0.2858  0.7799 -0.5233
  328MOL0     H44279   4.045   2.318   4.662 -1.6219 -3.3464 -0.1304
  328MOL0     H44280   3.892   2.330   4.467  0.4205  0.6730  1.8642
  329MOL0     O44281   2.645   2.232   5.595  0.1375 -0.1566 -1.1313
  329MOL0     C44282   2.681   2.136   5.531  0.2732  0.0004  0.6722
  329MOL0     O44283   2.601   2.029   5.497 -0.0226 -0.5394  0.0025
  329MOL0     C44284   2.475   2.030   5.553 -0.3737  0.0383  0.1412
  329MOL0     C44285   2.439   1.947   5.660  0.0507  0.4115  0.6734
  329MOL0     C44286   2.309   1.951   5.710  0.7023 -0.5333  0.1852
  329MOL0     C44287   2.211   2.040   5.659 -1.0477 -0.6057  0.0739
  329MOL0     O44288   2.087   2.046   5.722 -0.1136 -0.5739 -0.0580
  329MOL0     C44289   1.981   2.124   5.653  0.0327 -1.0275  0.2912
  329MOL0     C44290   1.853   2.121   5.741  0.2187  0.4516  0.7798
  329MOL0     C44291   1.822   1.979   5.793 -0.7182 -0.9581 -0.3428
  329MOL0     C44292   1.669   1.964   5.806  0.2603 -0.4098 -0.1708
  329MOL0     C44293   1.598   1.925   5.671 -0.1919  0.3978 -0.2348
  329MOL0     C44294   1.448   1.886   5.692  0.1538 -0.5089  0.3762
  329MOL0     C44295   1.369   1.991   5.768 -0.7309  0.5158 -0.1404
  329MOL0     C44296   1.229   1.941   5.782  0.0994  0.4046  0.5700
  329MOL0     N44297   1.148   1.953   5.662 -0.8000 -0.3999 -0.4273
  329MOL0     C44298   1.127   2.073   5.603 -0.4404  0.5599  0.5975
  329MOL0     C44299   1.028   2.038   5.519  0.1810 -1.5035  0.2250
  329MOL0     C44300   0.972   2.137   5.408  0.4565  0.4385 -0.6050
  329MOL0     C44301   0.844   2.220   5.451 -0.4832 -0.5526 -0.0617
  329MOL0     C44302   0.859   2.299   5.578 -0.0479  0.3842  0.3454
  329MOL0     C44303   0.725   2.337   5.649  0.0947 -1.1282 -0.0349
  329MOL0     O44304   0.627   2.232   5.643  1.2371 -0.0046 -0.0599
  329MOL0     C44305   0.499   2.262   5.688  0.3219  0.1859 -0.4010
  329MOL0     C44306   0.456   2.389   5.731 -0.7150 -0.4361 -0.2981
  329MOL0     C44307   0.317   2.404   5.766  0.2219  0.5258 -0.1665
  329MOL0     C44308   0.270   2.531   5.817  0.4513 -0.5432 -0.3086
  329MOL0     C44309   0.219   2.293   5.757 -0.8167  0.3099 -0.0894
  329MOL0     C44310   0.075   2.296   5.803  0.0048  0.0825  0.4312
  329MOL0     O44311   0.018   2.175   5.849  0.2892 -0.0895  0.3265
  329MOL0     C44312  -0.118   2.167   5.870  0.4791 -0.1670  0.4670
  329MOL0     C44313  -0.190   2.269   5.933  0.2740  0.1692 -0.1909
  329MOL0     C44314  -0.328   2.248   5.948  0.4749 -0.5321 -0.7133
  329MOL0     C44315  -0.394   2.130   5.895 -0.4462  0.5563  0.0202
  329MOL0     O44316  -0.530   2.127   5.905 -0.3259  0.3049 -0.4387
  329MOL0     C44317  -0.606   2.012   5.868 -0.4276 -0.4996  0.3097
  329MOL0     C44318  -0.757   2.037   5.863 -0.1927  0.1969  0.2024
  329MOL0     C44319  -0.817   2.119   5.973  0.0941  0.1268  0.1725
  329MOL0     C44320  -0.967   2.093   5.977  0.2607  0.6189 -0.1374
  329MOL0     C44321  -1.028   2.183   6.092 -0.2774 -1.0689 -0.0953
  329MOL0     C44322  -1.176   2.145   6.099  0.2843  0.2408 -0.4316
  329MOL0     C44323  -1.201   2.024   6.190  0.1500  0.4077  0.7129
  329MOL0     C44324  -1.336   1.954   6.184  0.3780  0.7499  0.2239
  329MOL0    Cl44325  -1.357   1.826   6.053 -0.1808 -0.1172  0.1670
  329MOL0     C44326  -0.311   2.027   5.840  0.1024  0.1276  0.7696
  329MOL0     C44327  -0.172   2.051   5.834 -0.4193 -0.5067  0.1560
  329MOL0     O44328   0.021   2.405   5.789  0.6895 -0.2675 -0.6751
  329MOL0     C44329   0.259   2.170   5.711 -0.6913 -0.0522  0.2871
  329MOL0     C44330   0.403   2.153   5.678 -0.1199 -0.6663  0.4930
  329MOL0     N44331   1.004   1.907   5.526  0.1019  0.4286  0.0113
  329MOL0     N44332   1.063   1.852   5.623  0.3161  0.3563  0.2014
  329MOL0     C44333   2.254   2.124   5.560  0.8100 -0.6270 -0.4784
  329MOL0     C44334   2.384   2.128   5.509 -0.0309 -0.1235 -0.4773
  329MOL0     C44335   2.814   2.139   5.463 -0.6445  0.6766  0.5774
  329MOL0     C44336   2.853   2.044   5.362 -0.4561 -0.7234 -0.5338
  329MOL0     C44337   2.981   2.049   5.300  0.4437  0.4368 -0.7211
  329MOL0     C44338   3.072   2.146   5.341  0.2986  0.1025 -0.3826
  329MOL0     O44339   3.191   2.143   5.267 -0.0177 -0.1911  0.0063
  329MOL0     C44340   3.287   2.255   5.274 -0.4870  0.7506 -0.5429
  329MOL0     C44341   3.246   2.373   5.191  0.2316 -0.3380 -0.1092
  329MOL0     C44342   3.265   2.355   5.031 -0.0057  0.2765  0.1575
  329MOL0     C44343   3.209   2.481   4.962  0.1631 -0.5014 -0.6100
  329MOL0     C44344   3.255   2.615   5.016  0.1202  0.1761  1.0508
  329MOL0     C44345   3.295   2.710   5.083 -0.0472  0.1293  0.0071
  329MOL0     C44346   3.048   2.236   5.445  0.2562  0.0942  0.4632
  329MOL0     C44347   2.915   2.230   5.500 -0.2119  0.6014 -0.8770
  329MOL0     H44348   2.513   1.880   5.704 -0.0289 -0.1253  0.0022
  329MOL0     H44349   2.279   1.887   5.792  0.9152 -0.2791  0.4664
  329MOL0     H44350   2.001   2.232   5.648 -0.6367 -0.8240  1.5473
  329MOL0     H44351   1.948   2.088   5.556  0.1415 -0.2773 -0.0336
  329MOL0     H44352   1.870   2.186   5.828  2.3356 -0.0445  0.7860
  329MOL0     H44353   1.775   2.153   5.672 -1.2570 -2.2935  1.0395
  329MOL0     H44354   1.851   1.906   5.716  0.9460 -0.6020 -0.1004
  329MOL0     H44355   1.875   1.965   5.887 -1.6171 -1.4570  0.1000
  329MOL0     H44356   1.658   1.886   5.881 -1.5123 -0.1039 -0.0709
  329MOL0     H44357   1.624   2.057   5.842 -0.7364 -1.4371  1.3069
  329MOL0     H44358   1.602   2.010   5.602  3.7439 -0.4982 -1.3576
  329MOL0     H44359   1.650   1.844   5.618  0.8033 -0.3594  1.8095
  329MOL0     H44360   1.402   1.868   5.594  1.9599  3.4146 -1.3898
  329MOL0     H44361   1.444   1.786   5.735  1.4084 -0.7509 -0.0318
  329MOL0     H44362   1.408   1.998   5.870  1.1991 -2.3447 -0.5706
  329MOL0     H44363   1.369   2.090   5.723  1.2003  0.1359 -1.0690
  329MOL0     H44364   1.174   1.995   5.860 -2.6237  0.8806 -1.5092
  329MOL0     H44365   1.228   1.837   5.815  1.0195  0.5034  0.9357
  329MOL0     H44366   1.170   2.169   5.628 -1.7254  0.6340  2.8911
  329MOL0     H44367   1.052   2.201   5.370 -0.1606 -0.0358 -2.8698
  329MOL0     H44368   0.938   2.069   5.329 -0.1007  1.8760 -1.6460
  329MOL0     H44369   0.768   2.144   5.474  0.5851 -1.6798 -0.1648
  329MOL0     H44370   0.801   2.289   5.378 -3.4701 -2.3536 -0.2024
  329MOL0     H44371   0.909   2.394   5.556 -1.5079  0.6465 -2.2631
  329MOL0     H44372   0.922   2.245   5.649 -1.5588 -0.8744  0.7832
  329MOL0     H44373   0.690   2.422   5.590 -1.1381 -0.8790  1.0024
  329MOL0     H44374   0.740   2.359   5.755 -0.3118  0.8026 -0.3368
  329MOL0     H44375   0.518   2.478   5.739 -1.6971  0.1020  3.6062
  329MOL0     H44376   0.181   2.572   5.768 -0.0473  0.7075  1.5291
  329MOL0     H44377   0.244   2.508   5.921  1.3063  0.8586  0.2329
  329MOL0     H44378   0.341   2.613   5.800 -1.6079  1.5505  0.6258
  329MOL0     H44379  -0.142   2.362   5.961 -0.8903  1.0026 -0.8553
  329MOL0     H44380  -0.387   2.327   5.993  3.2126  2.2706 -1.7392
  329MOL0     H44381  -0.566   1.964   5.778  0.5369 -0.0007  0.4501
  329MOL0     H44382  -0.588   1.948   5.955 -1.6788 -0.8848  0.2959
  329MOL0     H44383  -0.783   2.091   5.771 -3.7324  0.4598  1.2102
  329MOL0     H44384  -0.805   1.938   5.861  0.7286 -0.2736  0.4891
  329MOL0     H44385  -0.791   2.225   5.963  2.0413 -0.3383 -0.1974
  329MOL0     H44386  -0.779   2.081   6.069  2.3582 -0.3567 -0.8348
  329MOL0     H44387  -1.017   2.107   5.881 -0.1217 -1.9675 -0.3909
  329MOL0     H44388  -0.982   1.986   5.994 -5.2916  0.9490 -1.0981
  329MOL0     H44389  -1.024   2.284   6.050  0.1087 -1.7154 -1.6759
  329MOL0     H44390  -0.975   2.187   6.187  0.6867  1.7686 -0.6611
  329MOL0     H44391  -1.243   2.221   6.140  1.2694  0.7536  0.2750
  329MOL0     H44392  -1.210   2.123   5.997  0.7268 -1.0521 -0.3147
  329MOL0     H44393  -1.186   2.056   6.293 -0.9223 -2.3091  1.7947
  329MOL0     H44394  -1.118   1.960   6.159  0.1209  0.7497 -0.0966
  329MOL0     H44395  -1.412   2.032   6.177  2.4005  2.9771  1.4362
  329MOL0     H44396  -1.346   1.893   6.274  1.5429 -0.3440 -0.3514
  329MOL0     H44397  -0.351   1.942   5.785  1.6041  0.0675 -0.2786
  329MOL0     H44398  -0.101   1.979   5.796  0.0678 -0.4030  0.8507
  329MOL0     H44399   0.194   2.086   5.691 -0.5531 -0.1454  0.2263
  329MOL0     H44400   0.430   2.056   5.639  1.1326  0.5377 -1.8794
  329MOL0     H44401   2.187   2.201   5.523  1.0263  0.8251  1.9738
  329MOL0     H44402   2.406   2.204   5.435 -0.7465 -0.7412 -1.3533
  329MOL0     H44403   2.775   1.979   5.325  0.8742 -2.4869 -0.3998
  329MOL0     H44404   3.002   1.971   5.227 -1.5701 -0.3489 -0.5363
  329MOL0     H44405   3.301   2.285   5.378  0.6862 -2.2206  0.2679
  329MOL0     H44406   3.387   2.221   5.245 -0.4306  0.3107  0.1230
  329MOL0     H44407   3.318   2.453   5.211  0.1098  0.0721 -1.2353
  329MOL0     H44408   3.148   2.414   5.218  1.5740  2.1053  1.3601
  329MOL0     H44409   3.223   2.262   4.992  2.3432 -0.7101 -0.1637
  329MOL0     H44410   3.373   2.351   5.011  0.4145 -3.3282  2.3880
  329MOL0     H44411   3.100   2.480   4.974 -0.0360  1.3378 -1.9744
  329MOL0     H44412   3.219   2.484   4.853 -1.4128 -4.8279 -1.0835
  329MOL0     H44413   3.321   2.793   5.145 -2.6517 -0.2100  1.6717
  329MOL0     H44414   3.116   2.312   5.483  0.6443 -0.0398  0.0454
  329MOL0     H44415   2.894   2.304   5.576  0.0734 -0.8327  0.6726
  330MOL0     O44416   8.259   0.879   1.924 -0.4907  0.7936  0.3960
  330MOL0     C44417   8.279   0.773   1.873 -0.3240 -0.0831 -0.1533
  330MOL0     O44418   8.243   0.737   1.747  0.1713 -0.3774  0.1256
  330MOL0     C44419   8.192   0.822   1.655 -0.8087  0.3673  0.3321
  330MOL0     C44420   8.137   0.750   1.551 -0.7725 -0.6045  0.1949
  330MOL0     C44421   8.084   0.814   1.434 -0.6215  0.0465  0.4026
  330MOL0     C44422   8.083   0.954   1.423  0.0647 -0.6730  0.0083
  330MOL0     O44423   8.016   1.031   1.329 -0.2839  0.0267  0.3308
  330MOL0     C44424   7.910   0.970   1.251  0.7578 -0.9830  0.3114
  330MOL0     C44425   7.831   1.076   1.183 -0.7571 -0.2165 -0.4448
  330MOL0     C44426   7.789   1.189   1.279  0.1444 -0.2388 -0.8631
  330MOL0     C44427   7.653   1.254   1.238 -0.3793  0.5716 -0.4486
  330MOL0     C44428   7.601   1.365   1.334 -0.2977 -0.1441 -0.1823
  330MOL0     C44429   7.493   1.464   1.290  0.8228  0.4483  0.2814
  330MOL0     C44430   7.366   1.380   1.242 -0.9435  0.7136  0.2429
  330MOL0     C44431   7.253   1.484   1.218 -0.8369 -0.5392 -0.0241
  330MOL0     N44432   7.128   1.414   1.187  0.1058  0.1499 -0.1688
  330MOL0     C44433   7.068   1.427   1.064  0.3004 -0.8749  0.5346
  330MOL0     C44434   6.945   1.363   1.080  0.2764 -0.1199  0.2652
  330MOL0     C44435   6.863   1.319   0.963 -0.1515 -0.6683  0.2433
  330MOL0     C44436   6.715   1.356   0.983  0.6433  0.2254  0.2322
  330MOL0     C44437   6.631   1.348   0.850  0.3224 -0.3135 -0.3116
  330MOL0     C44438   6.502   1.425   0.862 -0.1760  0.3329 -0.3261
  330MOL0     O44439   6.505   1.565   0.824  0.9329 -0.0410 -0.7366
  330MOL0     C44440   6.396   1.642   0.855 -0.1878  0.4776 -0.6032
  330MOL0     C44441   6.408   1.775   0.879 -0.0322 -0.5037 -0.0249
  330MOL0     C44442   6.297   1.858   0.902 -0.1218 -0.0551 -0.0689
  330MOL0     C44443   6.322   2.006   0.921 -0.1535  0.5108  0.6277
  330MOL0     C44444   6.170   1.804   0.905 -0.0695  1.1705 -0.4963
  330MOL0     C44445   6.040   1.873   0.902 -0.4371 -0.4861  0.4954
  330MOL0     O44446   6.048   1.991   0.828 -0.2719 -0.8455 -0.0694
  330MOL0     C44447   5.949   2.077   0.849  0.0146 -0.4356  0.2088
  330MOL0     C44448   5.860   2.101   0.737 -0.7799 -0.0328 -0.0961
  330MOL0     C44449   5.756   2.197   0.755 -0.4117 -0.3026 -0.2385
  330MOL0     C44450   5.741   2.268   0.870  0.3326 -0.1161  0.3142
  330MOL0     O44451   5.646   2.361   0.869  0.6625 -0.1528 -0.5527
  330MOL0     C44452   5.594   2.411   0.997 -0.6019 -0.0654  0.4241
  330MOL0     C44453   5.443   2.441   0.984  0.0218  0.2128 -0.6951
  330MOL0     C44454   5.389   2.476   1.118  0.4667  0.3190 -0.0637
  330MOL0     C44455   5.239   2.518   1.100 -1.1637  0.0913  0.6393
  330MOL0     C44456   5.166   2.527   1.234 -0.1666  0.2064 -0.7852
  330MOL0     C44457   5.016   2.568   1.214  0.1238  0.5208 -0.6043
  330MOL0     C44458   4.952   2.573   1.355 -0.6017  0.2221 -0.2375
  330MOL0     C44459   4.801   2.597   1.360 -0.1972 -0.4161  0.2095
  330MOL0    Cl44460   4.710   2.470   1.274  0.0084  0.2126  0.2577
  330MOL0     C44461   5.832   2.252   0.975 -0.0672  0.8933 -1.0844
  330MOL0     C44462   5.939   2.157   0.964 -0.1269 -0.3106 -0.6495
  330MOL0     O44463   5.942   1.833   0.969  0.6428 -0.2950 -0.5274
  330MOL0     C44464   6.163   1.663   0.896  0.4520  0.1230 -0.1333
  330MOL0     C44465   6.267   1.582   0.864  0.5069  0.4557 -0.3795
  330MOL0     N44466   6.931   1.335   1.217  0.5968  1.1508  0.1031
  330MOL0     N44467   7.049   1.360   1.272  0.0672  0.2091 -0.2945
  330MOL0     C44468   8.125   1.024   1.537  0.1024  0.6277 -0.2007
  330MOL0     C44469   8.180   0.961   1.649 -0.4182  0.4860  0.2115
  330MOL0     C44470   8.346   0.674   1.965  0.2747 -0.0305  0.2232
  330MOL0     C44471   8.332   0.538   1.940  0.0281  1.0498 -0.1349
  330MOL0     C44472   8.386   0.441   2.021  0.0135 -0.8590 -0.4058
  330MOL0     C44473   8.460   0.473   2.136  0.2223  0.0607 -0.1511
  330MOL0     O44474   8.518   0.385   2.222  0.8876  0.9041  0.2794
  330MOL0     C44475   8.659   0.401   2.224  0.7241  0.1390  0.0169
  330MOL0     C44476   8.713   0.254   2.229 -0.2578 -0.3140 -0.0092
  330MOL0     C44477   8.860   0.252   2.222  0.0635  0.7256  0.1554
  330MOL0     C44478   8.915   0.107   2.206 -0.1375 -0.3122 -0.3509
  330MOL0     C44479   9.061   0.113   2.215 -0.8828  0.0391  0.2398
  330MOL0     C44480   9.177   0.131   2.226 -0.9292 -0.5149  0.3574
  330MOL0     C44481   8.475   0.606   2.166  1.1783  0.3725  0.2026
  330MOL0     C44482   8.409   0.702   2.086 -0.3324  0.2636 -0.6406
  330MOL0     H44483   8.150   0.643   1.550 -0.1773 -0.5326 -0.1245
  330MOL0     H44484   8.028   0.767   1.355 -1.6601 -1.8933  2.1880
  330MOL0     H44485   7.957   0.913   1.171 -1.9216 -1.5448 -0.9736
  330MOL0     H44486   7.837   0.909   1.304 -0.5141 -0.4344 -0.7293
  330MOL0     H44487   7.900   1.114   1.107 -2.2682  1.9772 -0.8085
  330MOL0     H44488   7.747   1.028   1.131 -0.1691 -2.8343  0.8608
  330MOL0     H44489   7.793   1.153   1.382 -1.5287 -0.8024 -0.9745
  330MOL0     H44490   7.869   1.263   1.275  0.4166 -0.3654  1.0899
  330MOL0     H44491   7.655   1.301   1.139  1.5820  4.0732  1.0565
  330MOL0     H44492   7.581   1.172   1.241 -1.4199  1.3757 -1.9470
  330MOL0     H44493   7.568   1.322   1.429  1.3020 -1.1637 -0.0467
  330MOL0     H44494   7.685   1.429   1.362 -0.4113 -0.2079  0.3092
  330MOL0     H44495   7.477   1.542   1.365 -2.5225  0.6019 -0.4235
  330MOL0     H44496   7.517   1.518   1.198 -2.2437 -0.3575 -1.1092
  330MOL0     H44497   7.388   1.323   1.151  0.1083  0.8783  0.3784
  330MOL0     H44498   7.336   1.318   1.328  0.4322 -0.7434 -0.2663
  330MOL0     H44499   7.280   1.540   1.128  0.9496  0.6379  1.1759
  330MOL0     H44500   7.242   1.546   1.308 -0.0963 -4.1371  2.7784
  330MOL0     H44501   7.115   1.455   0.970 -0.7815 -3.4825 -0.9082
  330MOL0     H44502   6.893   1.357   0.865 -2.2676 -1.0498 -0.5985
  330MOL0     H44503   6.872   1.210   0.957 -2.1210 -0.7679 -2.5273
  330MOL0     H44504   6.707   1.463   1.007  0.1273  0.1578  0.3713
  330MOL0     H44505   6.671   1.302   1.067  1.0689  2.4026  1.9608
  330MOL0     H44506   6.619   1.245   0.815  1.8174 -0.5934 -0.0692
  330MOL0     H44507   6.682   1.394   0.765 -1.8593  1.0024 -0.9771
  330MOL0     H44508   6.471   1.416   0.967  3.0621 -1.2895  0.6116
  330MOL0     H44509   6.434   1.366   0.799  1.5870 -2.3588  0.1453
  330MOL0     H44510   6.504   1.824   0.877 -0.7376  0.9017 -1.6316
  330MOL0     H44511   6.267   2.036   1.010  0.2564  2.6310  0.2234
  330MOL0     H44512   6.427   2.035   0.932  0.2104  0.6215 -2.2230
  330MOL0     H44513   6.294   2.056   0.827 -1.4087 -0.7826  0.2881
  330MOL0     H44514   5.880   2.050   0.644 -1.2130  0.8891 -0.7167
  330MOL0     H44515   5.698   2.218   0.665  0.6292 -1.4289 -1.2138
  330MOL0     H44516   5.596   2.338   1.079 -0.6643 -1.5151 -0.8234
  330MOL0     H44517   5.647   2.499   1.034  0.4120 -0.6032  0.2846
  330MOL0     H44518   5.426   2.521   0.911  0.6530  1.2510  0.2594
  330MOL0     H44519   5.391   2.350   0.953 -2.2406  1.3021 -0.2559
  330MOL0     H44520   5.438   2.565   1.159 -1.5010  1.2891  0.3331
  330MOL0     H44521   5.399   2.392   1.187 -1.1571 -0.6281 -0.9187
  330MOL0     H44522   5.239   2.613   1.047 -0.0048 -0.9920 -1.4461
  330MOL0     H44523   5.197   2.453   1.022  2.4619  0.0056 -1.4621
  330MOL0     H44524   5.216   2.589   1.309  2.5068 -4.3733  1.6915
  330MOL0     H44525   5.165   2.428   1.281  2.6915 -0.7311 -2.4544
  330MOL0     H44526   5.001   2.665   1.166  1.5217  0.6973 -0.7064
  330MOL0     H44527   4.960   2.496   1.154 -0.7716  0.5146  0.2124
  330MOL0     H44528   4.996   2.654   1.414 -0.6250  0.7095 -0.8773
  330MOL0     H44529   4.968   2.476   1.403 -1.2781 -0.0057 -0.4709
  330MOL0     H44530   4.772   2.695   1.323 -2.1838 -1.6082 -1.6312
  330MOL0     H44531   4.774   2.593   1.466  0.5769 -3.8625  0.4167
  330MOL0     H44532   5.832   2.308   1.067 -0.3344 -0.4182 -0.2587
  330MOL0     H44533   6.014   2.148   1.042 -0.0445  4.3009  0.0653
  330MOL0     H44534   6.064   1.617   0.897 -0.6053  2.1815 -1.8193
  330MOL0     H44535   6.247   1.477   0.845 -3.7911  0.9647  0.3996
  330MOL0     H44536   8.137   1.131   1.552  0.4273  0.5465  0.1185
  330MOL0     H44537   8.231   1.019   1.724  0.0268  0.6571 -0.2209
  330MOL0     H44538   8.278   0.496   1.856  1.8934 -1.5835 -0.1445
  330MOL0     H44539   8.371   0.338   1.992  1.8007 -1.1746 -0.3485
  330MOL0     H44540   8.696   0.450   2.133 -1.0436 -0.6283 -1.1689
  330MOL0     H44541   8.691   0.463   2.308  1.5671 -0.7712  0.3795
  330MOL0     H44542   8.672   0.196   2.145  1.9012  1.1142 -2.1717
  330MOL0     H44543   8.686   0.205   2.323  3.1317  0.5441  1.5362
  330MOL0     H44544   8.907   0.298   2.309  0.9777 -0.7977  0.4962
  330MOL0     H44545   8.887   0.313   2.135  0.7147 -0.6555 -0.6518
  330MOL0     H44546   8.890   0.062   2.110 -1.7350 -1.2731  0.4797
  330MOL0     H44547   8.880   0.057   2.297 -0.0689  0.9273  0.3807
  330MOL0     H44548   9.283   0.126   2.244 -0.9456 -1.4696  0.2548
  330MOL0     H44549   8.510   0.630   2.266  0.4989 -5.2428  2.1356
  330MOL0     H44550   8.414   0.808   2.110 -0.1540  0.5711 -1.9522
  331MOL0     O44551   3.854   3.831   0.896  0.5627 -0.1306 -0.4816
  331MOL0     C44552   3.905   3.731   0.844 -0.5642 -0.8683 -0.0975
  331MOL0     O44553   3.839   3.619   0.809  0.0797  0.0806  0.1234
  331MOL0     C44554   3.714   3.593   0.866  0.2624 -0.5044  0.5918
  331MOL0     C44555   3.615   3.548   0.778 -0.0154  0.9739 -0.1570
  331MOL0     C44556   3.483   3.516   0.824  0.2456  0.2974  0.1595
  331MOL0     C44557   3.452   3.528   0.962 -0.0076 -0.2857 -0.1116
  331MOL0     O44558   3.329   3.516   1.003  0.3205  0.2393  0.0345
  331MOL0     C44559   3.241   3.618   0.948  0.4798  0.5387 -0.3757
  331MOL0     C44560   3.130   3.620   1.055 -0.1765  0.8650  0.0321
  331MOL0     C44561   3.011   3.716   1.038 -0.7842 -0.2471 -0.5491
  331MOL0     C44562   2.912   3.702   1.156  0.5695 -0.1626 -0.7186
  331MOL0     C44563   2.776   3.778   1.142  0.3323 -0.1852  0.5282
  331MOL0     C44564   2.657   3.707   1.218 -0.2078  0.1542 -0.0228
  331MOL0     C44565   2.540   3.810   1.233  1.0843  0.5319  0.3202
  331MOL0     C44566   2.420   3.754   1.305 -0.1040  1.2373 -0.4607
  331MOL0     N44567   2.296   3.831   1.301 -0.1456 -0.7133  0.6720
  331MOL0     C44568   2.216   3.850   1.407  0.8253 -0.4773 -0.4189
  331MOL0     C44569   2.090   3.871   1.352  0.2440 -0.6534  0.3523
  331MOL0     C44570   1.960   3.902   1.425  0.0688  0.5567  0.2845
  331MOL0     C44571   1.890   3.773   1.474 -0.8544  0.4141 -0.7517
  331MOL0     C44572   1.742   3.801   1.511 -0.0765  0.5439 -0.7776
  331MOL0     C44573   1.641   3.786   1.399 -0.7968 -0.7008  0.1312
  331MOL0     O44574   1.505   3.815   1.453 -0.2505 -0.1630 -0.4406
  331MOL0     C44575   1.418   3.714   1.491 -0.8882 -0.0741 -0.3710
  331MOL0     C44576   1.465   3.585   1.506  0.7747  0.0247  0.5356
  331MOL0     C44577   1.382   3.476   1.546  1.1717 -0.1766 -0.7380
  331MOL0     C44578   1.453   3.348   1.581 -1.3445  0.8555  0.0896
  331MOL0     C44579   1.238   3.503   1.565 -0.4931  0.7996 -0.4580
  331MOL0     C44580   1.133   3.401   1.611  0.1978 -0.4552  0.2679
  331MOL0     O44581   1.024   3.446   1.673  0.3239 -0.2084  0.4092
  331MOL0     C44582   0.904   3.380   1.655  0.3835  0.1543  0.4268
  331MOL0     C44583   0.858   3.282   1.748 -0.8346  0.0234 -1.2047
  331MOL0     C44584   0.733   3.230   1.736 -0.8352  0.1100 -0.1440
  331MOL0     C44585   0.643   3.294   1.650 -0.4243  0.3096  0.7328
  331MOL0     O44586   0.507   3.257   1.646 -0.3429 -0.0093  0.2969
  331MOL0     C44587   0.486   3.120   1.638  0.2254  0.2302 -0.3144
  331MOL0     C44588   0.342   3.079   1.595 -0.1316 -0.4961  0.1282
  331MOL0     C44589   0.330   2.929   1.589 -0.3947 -0.6493  0.3198
  331MOL0     C44590   0.188   2.873   1.566  0.7217 -0.3905 -0.7019
  331MOL0     C44591   0.105   2.892   1.696 -1.2058  0.0139 -0.7912
  331MOL0     C44592  -0.040   2.854   1.669  0.1584  0.2678 -0.5603
  331MOL0     C44593  -0.122   2.879   1.791  0.2536 -0.7366  0.0460
  331MOL0     C44594  -0.273   2.887   1.749 -1.1325 -0.0387  0.2327
  331MOL0    Cl44595  -0.303   3.041   1.672  0.3171  0.2538  0.4109
  331MOL0     C44596   0.688   3.392   1.560  0.4280  0.6830 -0.4124
  331MOL0     C44597   0.820   3.429   1.557  0.4818 -0.0074 -0.0834
  331MOL0     O44598   1.144   3.284   1.567 -0.1716  0.0503 -0.1849
  331MOL0     C44599   1.195   3.639   1.555 -1.0599 -0.0229  0.6869
  331MOL0     C44600   1.287   3.741   1.515 -0.2833 -0.2267  0.2716
  331MOL0     N44601   2.101   3.870   1.212 -0.0290  0.0639 -0.4135
  331MOL0     N44602   2.227   3.840   1.187  0.0313  1.1524 -0.9350
  331MOL0     C44603   3.552   3.581   1.045 -0.4891  0.2033 -0.7747
  331MOL0     C44604   3.689   3.600   0.999 -1.2054 -0.7176  0.1233
  331MOL0     C44605   4.050   3.743   0.811 -0.2901  0.4375  0.0678
  331MOL0     C44606   4.096   3.643   0.735 -0.7579 -0.6810 -0.5266
  331MOL0     C44607   4.232   3.653   0.696 -1.0861  0.4260 -0.1385
  331MOL0     C44608   4.313   3.758   0.725  0.4988  0.5951 -0.1605
  331MOL0     O44609   4.446   3.772   0.696  0.3119  0.0529  0.3956
  331MOL0     C44610   4.493   3.676   0.601 -0.9021 -0.0576 -0.6426
  331MOL0     C44611   4.642   3.682   0.566 -0.9943 -0.0154 -0.0210
  331MOL0     C44612   4.673   3.577   0.458 -0.3754  0.4132 -0.1871
  331MOL0     C44613   4.828   3.562   0.445  0.3724  0.8029 -0.5594
  331MOL0     C44614   4.896   3.675   0.387  0.0795  0.3052  0.3412
  331MOL0     C44615   4.955   3.774   0.347  0.0386  0.0011 -0.0438
  331MOL0     C44616   4.258   3.851   0.811  0.2810 -0.4865  0.0949
  331MOL0     C44617   4.128   3.847   0.854  0.2612  0.4074 -0.5128
  331MOL0     H44618   3.634   3.551   0.671 -0.2615 -1.5832 -0.3251
  331MOL0     H44619   3.395   3.477   0.773 -0.4554 -0.6224  1.9816
  331MOL0     H44620   3.295   3.713   0.937  1.5102  0.3444  2.1356
  331MOL0     H44621   3.204   3.581   0.853 -0.4446  1.0999 -0.2430
  331MOL0     H44622   3.081   3.522   1.054 -2.2224  1.8333 -0.7627
  331MOL0     H44623   3.173   3.639   1.154 -1.2585  1.4491  0.4175
  331MOL0     H44624   3.035   3.821   1.024 -0.5493 -0.2777 -0.3886
  331MOL0     H44625   2.969   3.681   0.943  0.8721  1.0697 -1.8354
  331MOL0     H44626   2.891   3.596   1.172 -0.9741 -0.2904 -3.0010
  331MOL0     H44627   2.969   3.737   1.242  0.0997  0.6353 -0.7232
  331MOL0     H44628   2.789   3.881   1.176 -0.2081  0.7915 -1.9725
  331MOL0     H44629   2.748   3.799   1.038  1.3206  1.0867  0.4854
  331MOL0     H44630   2.629   3.613   1.171 -1.9816  1.6441 -2.1745
  331MOL0     H44631   2.685   3.688   1.322 -0.0395  0.3841 -0.0232
  331MOL0     H44632   2.577   3.894   1.293  0.5684  0.0482  1.3440
  331MOL0     H44633   2.518   3.849   1.133  1.7586  2.2080  0.7816
  331MOL0     H44634   2.452   3.746   1.410 -0.3517  2.4296 -0.2811
  331MOL0     H44635   2.391   3.655   1.268 -3.1832  1.8683  0.0121
  331MOL0     H44636   2.246   3.842   1.511 -0.9030 -0.8245  0.0916
  331MOL0     H44637   1.977   3.968   1.510  1.2107  0.0078  0.4928
  331MOL0     H44638   1.895   3.963   1.361 -1.3348 -0.2781  0.8861
  331MOL0     H44639   1.956   3.735   1.552  3.0676  3.3391 -2.2701
  331MOL0     H44640   1.905   3.696   1.398  4.0923  1.2491 -0.9427
  331MOL0     H44641   1.742   3.895   1.566  1.3202 -0.2653  0.7136
  331MOL0     H44642   1.706   3.731   1.587 -0.3521 -1.0897 -2.3389
  331MOL0     H44643   1.651   3.683   1.366 -0.1236 -1.0875  1.4738
  331MOL0     H44644   1.658   3.858   1.318  0.6644 -2.3060 -1.0714
  331MOL0     H44645   1.570   3.556   1.506  0.5643 -0.7814 -0.3012
  331MOL0     H44646   1.392   3.296   1.655 -2.4352  1.1920 -0.5470
  331MOL0     H44647   1.486   3.289   1.495 -2.5178 -0.1018  0.2702
  331MOL0     H44648   1.549   3.378   1.623 -0.4092  1.1301 -2.1006
  331MOL0     H44649   0.921   3.239   1.825 -0.7324 -2.2007 -2.4492
  331MOL0     H44650   0.702   3.149   1.802  1.2044 -0.2512  0.4291
  331MOL0     H44651   0.569   3.082   1.578  1.5639 -0.8308  2.0779
  331MOL0     H44652   0.487   3.085   1.741 -1.8685  2.3452  0.5415
  331MOL0     H44653   0.284   3.109   1.683 -0.0794 -2.9491  1.0708
  331MOL0     H44654   0.311   3.129   1.502 -0.1670  0.7745  0.7928
  331MOL0     H44655   0.369   2.894   1.685 -0.7033  0.8425  1.0220
  331MOL0     H44656   0.395   2.904   1.504  1.7392  0.6046  1.4709
  331MOL0     H44657   0.146   2.928   1.481  2.9169  1.4725 -0.6555
  331MOL0     H44658   0.186   2.768   1.535  2.2256 -0.1980 -1.5276
  331MOL0     H44659   0.107   2.996   1.732 -0.0034 -0.1783 -0.2554
  331MOL0     H44660   0.142   2.830   1.778  0.3234 -0.9104 -2.1170
  331MOL0     H44661  -0.076   2.913   1.585  0.9477  1.0190 -0.3879
  331MOL0     H44662  -0.040   2.749   1.638  2.7923  0.2262 -0.6820
  331MOL0     H44663  -0.096   2.971   1.844 -0.9900 -0.2941 -0.0832
  331MOL0     H44664  -0.105   2.798   1.863  1.6767  0.3976  1.0267
  331MOL0     H44665  -0.340   2.884   1.835 -0.7295 -0.1904  0.5456
  331MOL0     H44666  -0.307   2.800   1.694 -0.6219 -0.4655  0.5798
  331MOL0     H44667   0.615   3.433   1.491 -3.0302 -1.8510  1.4640
  331MOL0     H44668   0.863   3.498   1.485  0.1318 -0.3419 -0.6177
  331MOL0     H44669   1.094   3.673   1.576 -0.5369  0.6065  2.3721
  331MOL0     H44670   1.257   3.845   1.506 -0.3366 -0.2534  0.1342
  331MOL0     H44671   3.532   3.577   1.151 -0.8828  0.3221 -0.8424
  331MOL0     H44672   3.762   3.632   1.072  0.2028 -0.1122 -1.4717
  331MOL0     H44673   4.034   3.555   0.721 -1.1627 -1.2443  3.4628
  331MOL0     H44674   4.271   3.582   0.623  4.2599  2.4159  0.3621
  331MOL0     H44675   4.478   3.572   0.629  4.5033 -1.2775 -1.2112
  331MOL0     H44676   4.445   3.697   0.505  3.6308 -2.9373 -3.9763
  331MOL0     H44677   4.711   3.665   0.648  0.0816  1.9431 -0.4571
  331MOL0     H44678   4.664   3.785   0.537  1.7147 -0.4875  0.1645
  331MOL0     H44679   4.625   3.587   0.360 -0.3501  1.8021 -0.0830
  331MOL0     H44680   4.633   3.485   0.501 -1.3979  0.8089 -0.2491
  331MOL0     H44681   4.838   3.473   0.381 -0.9557 -0.4874  0.9292
  331MOL0     H44682   4.877   3.538   0.540  0.0746  0.3608 -0.5137
  331MOL0     H44683   4.984   3.868   0.304 -3.3210  0.4137 -1.7153
  331MOL0     H44684   4.314   3.936   0.849 -0.5951  0.2828 -0.2934
  331MOL0     H44685   4.093   3.911   0.934  2.7238 -0.6100  1.5110
  332MOL0     O44686  10.068   8.792  11.098  0.0212 -0.4511 -0.6009
  332MOL0     C44687  10.037   8.690  11.158  0.5102  0.7017  0.1778
  332MOL0     O44688   9.918   8.622  11.150 -0.8501  0.5454 -0.2196
  332MOL0     C44689   9.823   8.662  11.063  0.1602 -0.2524  0.5023
  332MOL0     C44690   9.856   8.686  10.931  1.0254 -0.6464  0.1889
  332MOL0     C44691   9.751   8.716  10.841 -0.9029 -0.1727 -0.1709
  332MOL0     C44692   9.606   8.707  10.878 -0.3483  0.1157  0.6578
  332MOL0     O44693   9.500   8.725  10.789 -0.5618 -0.0309 -0.7697
  332MOL0     C44694   9.541   8.786  10.661  0.7809  0.7043  0.2749
  332MOL0     C44695   9.416   8.820  10.583  0.2538  0.0313 -0.6431
  332MOL0     C44696   9.312   8.904  10.647  0.4577  0.3629  0.9954
  332MOL0     C44697   9.181   8.905  10.573  0.8931 -0.5149  0.6662
  332MOL0     C44698   9.208   8.992  10.445 -0.2465  0.1612  0.5188
  332MOL0     C44699   9.074   9.037  10.381  0.6466 -0.4888  0.2830
  332MOL0     C44700   8.999   8.913  10.330 -0.2774  0.3958  0.2697
  332MOL0     C44701   8.860   8.950  10.284  0.5111  0.5482 -0.3227
  332MOL0     N44702   8.780   8.830  10.267  0.1963 -0.4116  0.5553
  332MOL0     C44703   8.747   8.790  10.145  0.0066  0.0002 -0.2461
  332MOL0     C44704   8.659   8.691  10.169  0.1950  0.2858  0.2797
  332MOL0     C44705   8.589   8.605  10.068 -0.2438 -0.0458 -0.3462
  332MOL0     C44706   8.452   8.639  10.026  0.1620 -1.2274 -0.5330
  332MOL0     C44707   8.449   8.785   9.977 -0.3517 -0.1447 -0.3753
  332MOL0     C44708   8.307   8.838   9.945  0.3713  0.5841 -0.3282
  332MOL0     O44709   8.304   8.960   9.878 -0.3545  0.0046  0.2169
  332MOL0     C44710   8.185   9.027   9.855 -0.5629 -0.1774 -0.9553
  332MOL0     C44711   8.197   9.163   9.833 -0.0110  0.0485  0.4089
  332MOL0     C44712   8.094   9.241   9.800  0.6338  0.6678  0.7677
  332MOL0     C44713   8.119   9.381   9.773 -0.7781  0.3277 -0.9044
  332MOL0     C44714   7.964   9.176   9.785  0.5045 -0.3612  0.6364
  332MOL0     C44715   7.835   9.247   9.751  0.3203 -0.1293  0.4710
  332MOL0     O44716   7.732   9.170   9.703 -0.2402 -0.1290  0.1121
  332MOL0     C44717   7.619   9.250   9.676  0.2445  0.3830 -0.1929
  332MOL0     C44718   7.607   9.339   9.573 -1.0662  0.3168 -0.9245
  332MOL0     C44719   7.486   9.400   9.554  0.7286 -0.6792 -0.3264
  332MOL0     C44720   7.372   9.384   9.640  0.5099 -0.4268 -0.3963
  332MOL0     O44721   7.262   9.467   9.614 -0.1233 -0.2574 -0.1901
  332MOL0     C44722   7.162   9.488   9.716 -0.3770  0.1650 -1.0961
  332MOL0     C44723   7.083   9.613   9.698  0.1840 -0.2314  0.3294
  332MOL0     C44724   6.993   9.605   9.568 -0.0375 -0.1550 -0.3005
  332MOL0     C44725   6.961   9.744   9.521 -0.0566 -0.5293  0.3170
  332MOL0     C44726   6.870   9.744   9.398  0.6367  0.1646 -0.3063
  332MOL0     C44727   6.821   9.891   9.381  0.2009 -0.6941  0.5001
  332MOL0     C44728   6.725   9.890   9.271 -0.6489 -0.4757 -0.6279
  332MOL0     C44729   6.651  10.028   9.236 -0.4972 -0.0358 -0.1201
  332MOL0    Cl44730   6.604  10.011   9.066  0.4424 -0.1403 -0.1268
  332MOL0     C44731   7.385   9.290   9.741 -0.2079 -0.0015  0.8902
  332MOL0     C44732   7.507   9.223   9.755 -0.3823 -0.1941  0.2459
  332MOL0     O44733   7.834   9.372   9.765  0.2881 -0.0325  0.1301
  332MOL0     C44734   7.953   9.042   9.803  0.1984 -0.1044  0.1208
  332MOL0     C44735   8.059   8.974   9.844 -0.1690  0.7584 -0.2360
  332MOL0     N44736   8.642   8.681  10.303 -0.4656  0.1952 -0.0242
  332MOL0     N44737   8.705   8.767  10.361 -0.3717 -0.7323  0.1365
  332MOL0     C44738   9.586   8.686  11.011 -0.0741 -0.5721 -0.9943
  332MOL0     C44739   9.689   8.666  11.109  0.1586 -0.5286  0.0354
  332MOL0     C44740  10.127   8.635  11.258 -0.2482  0.0992  0.4143
  332MOL0     C44741  10.075   8.566  11.370 -0.5494 -0.6010  0.5032
  332MOL0     C44742  10.160   8.508  11.461 -0.4712 -0.1572  0.3976
  332MOL0     C44743  10.299   8.528  11.457 -0.5508 -0.3779 -0.1739
  332MOL0     O44744  10.389   8.474  11.556  0.6221 -0.6494 -0.4432
  332MOL0     C44745  10.531   8.476  11.539 -0.7323 -0.3164 -0.4945
  332MOL0     C44746  10.612   8.415  11.652  0.5821  0.5150  0.5841
  332MOL0     C44747  10.767   8.419  11.631  0.0044 -0.4588 -0.4145
  332MOL0     C44748  10.843   8.363  11.755  0.0350  0.0259 -0.0922
  332MOL0     C44749  10.988   8.377  11.738  0.3750 -0.6866  0.2841
  332MOL0     C44750  11.098   8.405  11.716 -1.0160  0.3721 -0.7311
  332MOL0     C44751  10.348   8.601  11.349 -0.1472  0.4700 -0.4063
  332MOL0     C44752  10.268   8.665  11.253 -0.3314 -0.5970 -0.8399
  332MOL0     H44753   9.958   8.695  10.895  0.6694  1.3716 -0.4526
  332MOL0     H44754   9.782   8.736  10.739  0.3286 -0.7829  0.0675
  332MOL0     H44755   9.600   8.877  10.673  1.8476  0.4292 -2.3383
  332MOL0     H44756   9.599   8.723  10.593 -3.1222  0.6533 -3.3800
  332MOL0     H44757   9.440   8.877  10.492  2.4766 -1.9601 -1.3734
  332MOL0     H44758   9.375   8.722  10.557  2.4858 -1.7228  1.8910
  332MOL0     H44759   9.291   8.847  10.738  3.8428  0.1121  1.7479
  332MOL0     H44760   9.350   9.003  10.672  2.0251  0.1048 -0.1821
  332MOL0     H44761   9.150   8.803  10.546 -1.3734 -0.5304  2.9010
  332MOL0     H44762   9.095   8.948  10.626 -0.0021 -0.8369 -0.4857
  332MOL0     H44763   9.273   9.076  10.473  1.8838 -1.9665  2.4201
  332MOL0     H44764   9.267   8.934  10.373 -1.9237 -0.6146 -0.2812
  332MOL0     H44765   9.010   9.096  10.447 -0.1504  0.4606 -1.2805
  332MOL0     H44766   9.092   9.103  10.295 -0.1759  0.6641  0.9709
  332MOL0     H44767   9.055   8.857  10.256 -1.7150 -0.2622 -0.3565
  332MOL0     H44768   8.988   8.839  10.410  0.2002  0.2301  0.1796
  332MOL0     H44769   8.865   9.005  10.189  2.3464 -0.0338 -0.6228
  332MOL0     H44770   8.815   9.017  10.357 -0.8933 -2.3008  1.6281
  332MOL0     H44771   8.782   8.821  10.047 -0.6447  1.6974  0.0269
  332MOL0     H44772   8.652   8.590   9.981  1.1799 -0.5986  0.7360
  332MOL0     H44773   8.585   8.503  10.108 -0.9453  0.1183  0.0376
  332MOL0     H44774   8.386   8.637  10.113  0.9010 -1.3891  0.0386
  332MOL0     H44775   8.414   8.579   9.943 -2.1727 -1.7161  0.8028
  332MOL0     H44776   8.513   8.788   9.888 -0.8348 -4.3876 -1.0397
  332MOL0     H44777   8.480   8.852  10.057  0.9557 -2.3147  1.0254
  332MOL0     H44778   8.266   8.871  10.041  0.0629 -0.9953  0.1097
  332MOL0     H44779   8.245   8.758   9.902 -2.8886  2.9884 -0.5055
  332MOL0     H44780   8.299   9.198   9.844  0.5808 -0.9618 -1.5331
  332MOL0     H44781   8.070   9.437   9.853 -0.5473  0.7879 -1.0774
  332MOL0     H44782   8.224   9.414   9.777 -0.9005  0.6913 -0.7056
  332MOL0     H44783   8.083   9.413   9.674 -0.2604  0.0991 -1.1753
  332MOL0     H44784   7.697   9.362   9.517  1.4064 -3.2521  1.2220
  332MOL0     H44785   7.491   9.483   9.483 -0.2629 -1.0565 -0.8525
  332MOL0     H44786   7.115   9.395   9.748  0.6681  0.6225  2.1563
  332MOL0     H44787   7.217   9.515   9.806 -0.4947 -1.9029 -0.3687
  332MOL0     H44788   7.015   9.617   9.784  0.1170 -2.8561  0.4869
  332MOL0     H44789   7.156   9.693   9.685  1.6932 -1.1433  2.5366
  332MOL0     H44790   6.898   9.554   9.582 -0.4886  0.3688 -1.3212
  332MOL0     H44791   7.043   9.552   9.485 -1.0790 -0.6691 -0.6087
  332MOL0     H44792   6.912   9.794   9.606  0.1971 -0.0511  0.1852
  332MOL0     H44793   7.048   9.807   9.500 -0.3885 -0.3143 -0.4181
  332MOL0     H44794   6.785   9.681   9.427  0.0659  1.1087  0.1189
  332MOL0     H44795   6.905   9.700   9.305  0.1376 -1.6672  0.3159
  332MOL0     H44796   6.767   9.928   9.468 -0.9127  0.2414 -0.5449
  332MOL0     H44797   6.910   9.951   9.358  1.8037 -2.4802  1.6893
  332MOL0     H44798   6.646   9.819   9.297 -0.9868  0.4989  1.1708
  332MOL0     H44799   6.785   9.854   9.187  0.1302  1.2170 -0.8361
  332MOL0     H44800   6.720  10.111   9.253  0.5282 -1.2821  2.2211
  332MOL0     H44801   6.566  10.032   9.304 -0.7228 -0.9109 -0.3398
  332MOL0     H44802   7.297   9.262   9.797 -1.8781 -1.8010 -2.3288
  332MOL0     H44803   7.523   9.162   9.844  1.7499  0.4424  0.3361
  332MOL0     H44804   7.861   8.986   9.788  0.1122  0.0612  0.0310
  332MOL0     H44805   8.050   8.867   9.852  2.4788  0.5892  2.4252
  332MOL0     H44806   9.483   8.673  11.042  0.9731 -3.1758  1.8917
  332MOL0     H44807   9.655   8.636  11.207 -0.9531 -0.1212 -0.2176
  332MOL0     H44808   9.968   8.552  11.382 -0.5034 -0.6792  0.8286
  332MOL0     H44809  10.115   8.455  11.544 -0.0732  1.3678  1.6330
  332MOL0     H44810  10.548   8.406  11.457 -2.1226 -1.8931  0.5061
  332MOL0     H44811  10.562   8.579  11.518  0.2357 -0.0202  2.0621
  332MOL0     H44812  10.577   8.313  11.668 -0.9228  0.6638 -1.3969
  332MOL0     H44813  10.595   8.471  11.744  1.2631 -0.3527  1.2645
  332MOL0     H44814  10.793   8.522  11.608 -1.3734 -0.1558 -0.7126
  332MOL0     H44815  10.790   8.346  11.553 -2.2900 -1.0303 -0.6313
  332MOL0     H44816  10.830   8.255  11.748  3.3122 -0.3550 -3.9041
  332MOL0     H44817  10.802   8.407  11.847  0.8927  0.4680  0.0865
  332MOL0     H44818  11.201   8.409  11.688 -0.6211 -0.0596  0.6145
  332MOL0     H44819  10.455   8.597  11.335  0.2226  0.4016  2.0628
  332MOL0     H44820  10.326   8.724  11.183  0.4652  0.4974  0.6878
  333MOL0     O44821   7.583   9.022   8.690 -0.6580  0.5496  0.4473
  333MOL0     C44822   7.561   9.038   8.807  0.2464  0.2978  0.3550
  333MOL0     O44823   7.442   9.089   8.864 -0.3608  0.1760 -0.5443
  333MOL0     C44824   7.338   9.139   8.787  0.2180 -0.0399 -0.4727
  333MOL0     C44825   7.215   9.113   8.848  0.6642  0.0134  0.5389
  333MOL0     C44826   7.099   9.149   8.789  0.0167 -0.2673 -0.2615
  333MOL0     C44827   7.099   9.204   8.661 -0.1769  0.6572 -0.1428
  333MOL0     O44828   6.979   9.216   8.598 -0.1643  0.5000  0.4333
  333MOL0     C44829   6.895   9.314   8.657 -0.4544  0.2687 -0.0858
  333MOL0     C44830   6.814   9.369   8.538 -0.1431  0.5925  0.7940
  333MOL0     C44831   6.712   9.482   8.561 -0.6494  0.0454  0.0165
  333MOL0     C44832   6.586   9.423   8.626  0.5410 -0.8724 -0.7603
  333MOL0     C44833   6.479   9.538   8.660 -0.5590  0.4358  0.1560
  333MOL0     C44834   6.371   9.484   8.753  0.0327 -0.5230  0.1395
  333MOL0     C44835   6.274   9.595   8.800 -0.2619 -0.1799 -0.6351
  333MOL0     C44836   6.164   9.612   8.691  0.0986 -0.7028  0.8277
  333MOL0     N44837   6.030   9.586   8.748  0.5065  0.3581 -0.3647
  333MOL0     C44838   5.940   9.488   8.699 -0.2040  0.4342 -0.7755
  333MOL0     C44839   5.832   9.499   8.775  0.1923  0.0794  0.1993
  333MOL0     C44840   5.709   9.414   8.762  0.1742  0.5263  0.5646
  333MOL0     C44841   5.581   9.497   8.751  0.6982  0.2206 -0.2228
  333MOL0     C44842   5.462   9.405   8.756  0.2880  0.6419  0.5274
  333MOL0     C44843   5.328   9.471   8.744 -0.5370 -0.0828  0.1999
  333MOL0     O44844   5.321   9.543   8.622  0.3202 -0.2699  0.4417
  333MOL0     C44845   5.196   9.595   8.581  0.3489 -0.8771 -0.3652
  333MOL0     C44846   5.099   9.626   8.673  0.0701 -0.3181 -0.8227
  333MOL0     C44847   4.967   9.682   8.635  0.6020  0.0648  0.9781
  333MOL0     C44848   4.882   9.729   8.741  0.1057 -0.8487 -0.6039
  333MOL0     C44849   4.941   9.695   8.489 -0.1569 -0.7803  0.2177
  333MOL0     C44850   4.816   9.748   8.437  0.2283 -0.6528  0.5216
  333MOL0     O44851   4.828   9.848   8.344 -0.5719  0.0009  0.4637
  333MOL0     C44852   4.722   9.913   8.290 -0.3898  0.4420  0.2526
  333MOL0     C44853   4.673  10.030   8.345 -0.9005  0.0205 -0.0661
  333MOL0     C44854   4.559  10.088   8.282 -0.4161  0.8571 -0.3852
  333MOL0     C44855   4.497  10.028   8.171  0.7630  0.7529 -0.3506
  333MOL0     O44856   4.387  10.088   8.108  0.0438 -0.7089 -0.4207
  333MOL0     C44857   4.278   9.999   8.077 -0.1348 -0.2454  0.2788
  333MOL0     C44858   4.154  10.081   8.035 -0.3403 -0.5655 -0.0355
  333MOL0     C44859   4.030  10.003   8.041 -0.0135 -0.0899 -0.2169
  333MOL0     C44860   3.914  10.103   8.050 -0.3870  0.1906 -0.1809
  333MOL0     C44861   3.774  10.046   8.043  0.5472 -0.4241 -0.3658
  333MOL0     C44862   3.742   9.993   7.905 -0.3282 -0.1353 -0.6127
  333MOL0     C44863   3.595   9.945   7.895  0.5786  0.6369  0.0947
  333MOL0     C44864   3.503  10.047   7.827  0.4115 -0.1439  0.2620
  333MOL0    Cl44865   3.328  10.000   7.819 -0.1727 -0.2088 -0.2060
  333MOL0     C44866   4.552   9.910   8.124 -0.8410  0.2945 -0.2881
  333MOL0     C44867   4.659   9.856   8.178 -0.2550  0.0980  0.1297
  333MOL0     O44868   4.710   9.700   8.479 -0.3418  1.5780 -0.0089
  333MOL0     C44869   5.045   9.661   8.399 -0.1250 -0.0955  0.3760
  333MOL0     C44870   5.171   9.609   8.443 -0.2359 -0.6867  0.3284
  333MOL0     N44871   5.849   9.607   8.862  0.1277 -0.1989  0.5238
  333MOL0     N44872   5.963   9.657   8.844  0.2290  0.0501  0.3524
  333MOL0     C44873   7.215   9.226   8.595 -0.9000  0.1594 -0.3218
  333MOL0     C44874   7.337   9.204   8.662 -0.4421  0.1284 -0.3100
  333MOL0     C44875   7.671   9.013   8.897  1.0709  0.6682  0.4085
  333MOL0     C44876   7.778   8.932   8.862 -0.2607 -0.3897 -1.0165
  333MOL0     C44877   7.894   8.926   8.938 -0.5793  1.0086 -0.7324
  333MOL0     C44878   7.906   8.998   9.063  0.2082  0.7305  0.7459
  333MOL0     O44879   8.022   8.996   9.139  0.5576 -0.3023 -0.0544
  333MOL0     C44880   8.124   9.067   9.067  0.1121 -1.0075  0.0247
  333MOL0     C44881   8.258   9.045   9.145 -0.4785  0.4948 -0.6884
  333MOL0     C44882   8.393   9.082   9.073  0.7180  0.2625  0.0643
  333MOL0     C44883   8.461   8.960   9.009  0.4969 -0.0905  0.7073
  333MOL0     C44884   8.579   9.005   8.939  0.3893 -1.1009 -0.4610
  333MOL0     C44885   8.686   9.042   8.895  0.4340 -0.1520  0.8991
  333MOL0     C44886   7.792   9.052   9.103  0.5503 -0.6784 -0.0643
  333MOL0     C44887   7.675   9.064   9.024 -0.1513 -0.1632  0.4015
  333MOL0     H44888   7.213   9.079   8.951 -0.6630  0.8305  0.8119
  333MOL0     H44889   7.005   9.124   8.838  1.0095  0.3200  2.0824
  333MOL0     H44890   6.828   9.269   8.730 -0.5866 -0.1567 -0.4636
  333MOL0     H44891   6.953   9.389   8.712  1.0306 -1.7458  1.2551
  333MOL0     H44892   6.877   9.399   8.455 -1.9784 -0.1390 -0.9345
  333MOL0     H44893   6.763   9.280   8.500 -0.1737  0.2638  1.5645
  333MOL0     H44894   6.757   9.559   8.624  1.2811 -1.1220  0.1500
  333MOL0     H44895   6.679   9.525   8.466 -0.7519 -1.9974 -0.9389
  333MOL0     H44896   6.537   9.342   8.572  0.5461 -0.6061 -1.1661
  333MOL0     H44897   6.623   9.378   8.719  1.0260  1.8024  0.4541
  333MOL0     H44898   6.535   9.623   8.700  0.3139 -1.2296  2.6831
  333MOL0     H44899   6.430   9.568   8.567 -3.2081  1.3660  1.7331
  333MOL0     H44900   6.316   9.394   8.725  1.9480 -1.5834 -0.4238
  333MOL0     H44901   6.422   9.450   8.845  1.4391  0.0873 -0.3849
  333MOL0     H44902   6.229   9.570   8.896 -1.8906  0.5435 -1.1771
  333MOL0     H44903   6.319   9.693   8.817 -3.4533  1.2537  0.2052
  333MOL0     H44904   6.171   9.543   8.607 -3.0541  0.8593 -0.8976
  333MOL0     H44905   6.170   9.715   8.654 -2.7750  0.1715  2.4388
  333MOL0     H44906   5.962   9.414   8.624 -2.7971 -2.2285  0.8423
  333MOL0     H44907   5.711   9.372   8.662  0.9116 -1.3348  1.3180
  333MOL0     H44908   5.701   9.339   8.842  0.6784 -0.0565  0.0770
  333MOL0     H44909   5.578   9.557   8.659 -0.8338  1.0576  0.3423
  333MOL0     H44910   5.573   9.563   8.838 -2.0848 -1.1291  0.6642
  333MOL0     H44911   5.470   9.360   8.856 -1.9090 -1.1863 -0.0214
  333MOL0     H44912   5.474   9.330   8.677 -0.9346 -3.7073  4.0201
  333MOL0     H44913   5.323   9.536   8.831 -1.2133 -0.2375  0.2777
  333MOL0     H44914   5.248   9.396   8.750 -1.9467  1.3265 -0.3607
  333MOL0     H44915   5.113   9.605   8.778 -2.6118  1.2574 -0.0402
  333MOL0     H44916   4.784   9.679   8.735 -0.2331 -0.1956 -0.6400
  333MOL0     H44917   4.913   9.719   8.845  1.6628 -2.4683 -1.1737
  333MOL0     H44918   4.870   9.837   8.731  1.5923 -0.5718  0.3517
  333MOL0     H44919   4.704  10.086   8.433 -1.0006  1.6635 -1.0414
  333MOL0     H44920   4.520  10.185   8.312  2.0806  1.6955  0.3518
  333MOL0     H44921   4.297   9.937   7.989 -3.5138  0.8225 -1.3910
  333MOL0     H44922   4.263   9.934   8.164 -0.7829  1.5120  1.5388
  333MOL0     H44923   4.152  10.159   8.112  2.7415 -0.5644  0.1713
  333MOL0     H44924   4.174  10.114   7.933  2.5343 -3.9416 -0.7828
  333MOL0     H44925   4.035   9.941   8.131 -1.2776 -0.2350 -0.2363
  333MOL0     H44926   4.021   9.942   7.951  1.8494  1.1362 -1.3075
  333MOL0     H44927   3.924  10.171   8.136  0.2596 -0.1412  0.0081
  333MOL0     H44928   3.916  10.172   7.965  0.3701  1.9742  1.2173
  333MOL0     H44929   3.696  10.119   8.069  0.7073  0.7231 -2.8045
  333MOL0     H44930   3.774   9.971   8.123 -0.9260 -0.0665  0.0060
  333MOL0     H44931   3.751  10.079   7.839 -1.4668  0.8475  0.4603
  333MOL0     H44932   3.815   9.912   7.894  0.7351  0.6109  0.5965
  333MOL0     H44933   3.559   9.922   7.995 -0.3099  2.7914  0.3285
  333MOL0     H44934   3.601   9.850   7.840  0.7303 -0.0005  1.1769
  333MOL0     H44935   3.531  10.071   7.724 -0.3770  1.1957  0.3301
  333MOL0     H44936   3.499  10.138   7.887 -4.6790 -0.8261  1.4495
  333MOL0     H44937   4.515   9.874   8.028  1.2444 -1.0486 -0.6471
  333MOL0     H44938   4.701   9.764   8.139  1.1370  0.5833  0.4478
  333MOL0     H44939   5.030   9.677   8.293 -0.2235 -0.7193  0.2920
  333MOL0     H44940   5.246   9.594   8.367  0.3809  1.7578  0.3750
  333MOL0     H44941   7.235   9.270   8.497 -1.2056 -0.8226 -0.8336
  333MOL0     H44942   7.425   9.230   8.604  0.4261  0.7564  1.2217
  333MOL0     H44943   7.791   8.893   8.762  0.3193  2.0306 -1.9631
  333MOL0     H44944   7.982   8.869   8.910 -2.2319 -1.7765 -0.6555
  333MOL0     H44945   8.146   9.032   8.966  0.3396 -0.3456 -0.1576
  333MOL0     H44946   8.091   9.171   9.070 -1.7679 -1.5520  0.0247
  333MOL0     H44947   8.259   8.938   9.165 -2.7356  0.2776 -1.4769
  333MOL0     H44948   8.268   9.098   9.241 -1.5644 -1.0457  0.3208
  333MOL0     H44949   8.472   9.123   9.136  1.9407  1.1865 -1.9476
  333MOL0     H44950   8.375   9.157   8.995 -1.2091 -2.9409 -2.8555
  333MOL0     H44951   8.385   8.923   8.939  0.2617  1.6019 -0.0003
  333MOL0     H44952   8.482   8.889   9.089 -0.6419 -1.1893  0.0685
  333MOL0     H44953   8.784   9.072   8.863  2.0902 -3.4456  2.3242
  333MOL0     H44954   7.786   9.096   9.202 -2.7069 -1.4033  0.1753
  333MOL0     H44955   7.585   9.110   9.064 -1.4116 -1.0750 -1.2296
  334MOL0     O44956   4.527   5.305   6.819  0.3918 -0.7153  0.7486
  334MOL0     C44957   4.601   5.391   6.776 -0.5198 -1.0845 -0.4680
  334MOL0     O44958   4.548   5.509   6.722  0.0232  0.3623 -0.1841
  334MOL0     C44959   4.412   5.551   6.722  0.0496 -0.1888 -0.6414
  334MOL0     C44960   4.399   5.690   6.694 -0.3412  0.4705 -0.1230
  334MOL0     C44961   4.273   5.749   6.688 -0.2327 -0.4764 -0.3750
  334MOL0     C44962   4.154   5.680   6.709 -0.5093  0.5701 -0.9969
  334MOL0     O44963   4.026   5.737   6.708  0.4958  0.2711  0.1715
  334MOL0     C44964   4.011   5.871   6.656  0.4565  0.5794 -0.0568
  334MOL0     C44965   3.867   5.904   6.629  0.0538  0.3692 -0.4835
  334MOL0     C44966   3.783   5.871   6.766  0.1098 -0.1706 -0.3343
  334MOL0     C44967   3.819   5.946   6.899  0.5869  0.2715 -0.4983
  334MOL0     C44968   3.735   5.907   7.029 -0.8402 -0.3329  0.2553
  334MOL0     C44969   3.592   5.964   7.016  0.1074 -0.5725  0.4122
  334MOL0     C44970   3.508   5.915   7.129  0.5568 -0.7993 -0.2860
  334MOL0     C44971   3.383   5.996   7.151  0.6232 -0.1397  0.1199
  334MOL0     N44972   3.286   5.973   7.044  0.1594  0.2807  1.0099
  334MOL0     C44973   3.225   5.854   7.021  0.4829 -0.3031 -0.0230
  334MOL0     C44974   3.161   5.885   6.892 -0.4346 -0.1513 -0.1209
  334MOL0     C44975   3.079   5.787   6.815  0.1546 -0.5590 -0.1476
  334MOL0     C44976   2.981   5.710   6.907  0.5049 -0.7501 -0.3400
  334MOL0     C44977   2.870   5.788   6.977  0.0279 -1.5570 -0.3685
  334MOL0     C44978   2.780   5.685   7.055 -0.7820 -0.2911  0.3120
  334MOL0     O44979   2.673   5.758   7.113  0.1141  0.3133 -0.0304
  334MOL0     C44980   2.563   5.685   7.156  0.3463  0.0393  1.0476
  334MOL0     C44981   2.445   5.747   7.191  0.3480 -0.2553 -0.5842
  334MOL0     C44982   2.329   5.682   7.223  0.6612 -0.3632 -0.4199
  334MOL0     C44983   2.206   5.768   7.263  0.1519  0.7719  0.0248
  334MOL0     C44984   2.325   5.538   7.229 -0.4583 -0.1562  0.3658
  334MOL0     C44985   2.199   5.467   7.252 -0.6209  0.7857  0.2551
  334MOL0     O44986   2.112   5.513   7.343  0.5339 -0.5953 -0.2646
  334MOL0     C44987   1.987   5.455   7.361  0.1246 -0.4692  0.5479
  334MOL0     C44988   1.877   5.540   7.346  1.2394 -0.6653  0.7326
  334MOL0     C44989   1.753   5.492   7.381 -0.0415  0.9634  0.3283
  334MOL0     C44990   1.739   5.362   7.423  0.0918  0.5762  0.5151
  334MOL0     O44991   1.612   5.302   7.453 -0.1358 -0.1383  0.0234
  334MOL0     C44992   1.523   5.395   7.506 -0.5628 -0.7067 -1.0369
  334MOL0     C44993   1.434   5.328   7.611  0.1066  0.4014  0.0536
  334MOL0     C44994   1.367   5.207   7.562 -0.4948 -0.3499 -0.1084
  334MOL0     C44995   1.282   5.133   7.660  0.3248 -0.0239 -0.2189
  334MOL0     C44996   1.169   5.208   7.730 -0.5395 -0.3480 -0.6497
  334MOL0     C44997   1.101   5.121   7.846  0.2258 -0.9258 -0.5940
  334MOL0     C44998   0.999   5.204   7.926  0.1123 -0.3879  0.3089
  334MOL0     C44999   1.002   5.138   8.065  0.3011 -0.1861  0.6321
  334MOL0    Cl45000   0.933   4.968   8.052 -0.1160 -0.4267  0.6024
  334MOL0     C45001   1.852   5.284   7.451  0.5704  0.1040  0.4459
  334MOL0     C45002   1.978   5.331   7.410 -0.8226  0.1603 -0.7903
  334MOL0     O45003   2.177   5.360   7.191 -0.4005  0.5687  0.6793
  334MOL0     C45004   2.448   5.476   7.211 -0.2316  0.2787  0.7147
  334MOL0     C45005   2.566   5.545   7.166 -0.2096  0.3246 -1.0711
  334MOL0     N45006   3.193   6.008   6.852  0.0800 -0.0389 -1.4296
  334MOL0     N45007   3.263   6.056   6.946  0.5673 -0.5910  0.8981
  334MOL0     C45008   4.169   5.545   6.736 -0.4367 -0.6309  0.1553
  334MOL0     C45009   4.295   5.476   6.743  0.4493  0.4472 -0.4742
  334MOL0     C45010   4.755   5.376   6.769  0.2832 -0.1064  0.0157
  334MOL0     C45011   4.810   5.244   6.754 -0.3742 -0.5589 -0.0578
  334MOL0     C45012   4.946   5.223   6.735 -0.2761 -0.0361 -0.4834
  334MOL0     C45013   5.035   5.333   6.738  0.1928  0.2417 -0.6071
  334MOL0     O45014   5.163   5.297   6.730 -0.2684 -0.5061 -0.6535
  334MOL0     C45015   5.251   5.388   6.808 -0.1018  0.4091 -0.2726
  334MOL0     C45016   5.394   5.348   6.809 -0.4016 -0.4097  1.0678
  334MOL0     C45017   5.453   5.338   6.668 -0.4331 -0.0244  0.2841
  334MOL0     C45018   5.608   5.333   6.669  0.3238  0.9130 -1.2968
  334MOL0     C45019   5.649   5.227   6.753 -0.2804  0.0672  0.1541
  334MOL0     C45020   5.718   5.161   6.829  0.1649  0.8287  0.8415
  334MOL0     C45021   4.981   5.465   6.754  0.6481 -0.2168 -0.7076
  334MOL0     C45022   4.842   5.483   6.768 -0.2725 -0.4566  0.9092
  334MOL0     H45023   4.494   5.738   6.673  1.1273 -2.8807 -1.9449
  334MOL0     H45024   4.281   5.857   6.681  2.5318 -0.6002 -0.4141
  334MOL0     H45025   4.057   5.940   6.727  0.9014 -2.3713  2.7448
  334MOL0     H45026   4.063   5.886   6.561 -2.2503  0.7139 -1.6066
  334MOL0     H45027   3.864   6.005   6.586 -1.4430 -0.0549 -1.4375
  334MOL0     H45028   3.831   5.837   6.551  0.3296  1.9572 -2.0321
  334MOL0     H45029   3.680   5.905   6.760 -0.1741 -0.1449  2.8318
  334MOL0     H45030   3.781   5.763   6.784 -0.0279 -0.0155  0.6374
  334MOL0     H45031   3.926   5.929   6.916  1.0334  2.3668 -0.8774
  334MOL0     H45032   3.808   6.051   6.871 -1.9780  0.5755  1.2615
  334MOL0     H45033   3.742   5.797   7.025 -1.4972 -0.3970  0.6884
  334MOL0     H45034   3.776   5.935   7.127 -2.4020 -0.3035  0.9324
  334MOL0     H45035   3.593   6.072   7.030 -3.4895 -0.6470  2.4719
  334MOL0     H45036   3.556   5.943   6.915  2.4557  2.8263 -1.3282
  334MOL0     H45037   3.478   5.811   7.116 -0.6145 -0.3013 -1.9547
  334MOL0     H45038   3.559   5.923   7.225 -2.6400 -0.9968  1.5883
  334MOL0     H45039   3.394   6.103   7.171  0.5842 -0.3605  1.4610
  334MOL0     H45040   3.331   5.959   7.240 -0.1119 -1.4202 -0.8217
  334MOL0     H45041   3.214   5.763   7.079 -1.2875 -1.1398 -1.5591
  334MOL0     H45042   3.013   5.834   6.742 -0.3668  0.4037  0.9130
  334MOL0     H45043   3.143   5.716   6.762 -1.0790 -3.4333  1.9463
  334MOL0     H45044   3.043   5.668   6.987 -1.7818  1.2851  2.7383
  334MOL0     H45045   2.932   5.633   6.847  1.4543 -1.2620 -0.4682
  334MOL0     H45046   2.818   5.842   6.898  0.9691  0.9340  0.6148
  334MOL0     H45047   2.907   5.863   7.046  0.0931 -0.7729 -1.2383
  334MOL0     H45048   2.851   5.649   7.129  2.0112 -0.7256 -2.3479
  334MOL0     H45049   2.753   5.607   6.983 -1.6382  0.7268 -0.5113
  334MOL0     H45050   2.451   5.855   7.182 -1.8169 -0.2456 -3.4469
  334MOL0     H45051   2.196   5.789   7.370 -0.0358  0.8441 -0.0050
  334MOL0     H45052   2.215   5.863   7.208 -2.1444  0.3773 -1.1425
  334MOL0     H45053   2.109   5.739   7.221  0.4237 -0.6840  0.3652
  334MOL0     H45054   1.889   5.644   7.318 -0.2243 -0.9322 -1.0543
  334MOL0     H45055   1.668   5.556   7.357 -2.7729 -2.7203 -0.6761
  334MOL0     H45056   1.559   5.487   7.554 -2.0817 -0.6206  0.0454
  334MOL0     H45057   1.453   5.436   7.432  1.4314 -2.0407 -3.8285
  334MOL0     H45058   1.502   5.300   7.693  1.8180 -1.3199 -1.8411
  334MOL0     H45059   1.361   5.401   7.645  0.2548 -1.1669  4.3557
  334MOL0     H45060   1.441   5.140   7.518 -1.5335 -1.9513  0.4654
  334MOL0     H45061   1.314   5.237   7.471  2.3104  1.2745 -1.3210
  334MOL0     H45062   1.233   5.051   7.605 -0.6572  0.5731 -0.2593
  334MOL0     H45063   1.344   5.096   7.742 -1.1276  1.9492  1.9019
  334MOL0     H45064   1.086   5.223   7.660 -0.2109  2.6602 -0.5480
  334MOL0     H45065   1.203   5.306   7.766 -1.4729  1.1919 -3.5806
  334MOL0     H45066   1.059   5.032   7.798  0.7813 -2.3416  1.3896
  334MOL0     H45067   1.183   5.086   7.910  1.2558 -1.4098 -2.1372
  334MOL0     H45068   0.902   5.204   7.876  1.3438 -0.4854 -2.2960
  334MOL0     H45069   1.033   5.307   7.938 -0.5766 -0.1681  0.3957
  334MOL0     H45070   0.939   5.193   8.136 -1.5727  0.6293 -1.5284
  334MOL0     H45071   1.100   5.132   8.112  1.2720 -0.2568 -1.3031
  334MOL0     H45072   1.840   5.187   7.499 -0.5479 -0.1236 -0.2549
  334MOL0     H45073   2.065   5.265   7.413 -0.2416  0.9080 -0.7757
  334MOL0     H45074   2.451   5.371   7.237 -2.7091 -1.0072 -3.2796
  334MOL0     H45075   2.654   5.483   7.148 -0.2116  0.1725 -0.5650
  334MOL0     H45076   4.082   5.481   6.750  1.7822 -3.6396  1.6400
  334MOL0     H45077   4.287   5.370   6.765  1.0697  0.3249 -0.8227
  334MOL0     H45078   4.743   5.158   6.752 -0.6856 -0.3328  0.4788
  334MOL0     H45079   4.989   5.124   6.730 -0.1129  0.0471 -0.7426
  334MOL0     H45080   5.248   5.493   6.778 -0.1598  0.3272 -0.5532
  334MOL0     H45081   5.217   5.383   6.912 -2.2148 -1.2542 -0.9509
  334MOL0     H45082   5.408   5.252   6.860 -1.4952 -0.6000  1.0256
  334MOL0     H45083   5.443   5.432   6.859  0.0602  0.1452 -0.2674
  334MOL0     H45084   5.431   5.436   6.625  1.0818  0.0200 -0.4743
  334MOL0     H45085   5.410   5.258   6.607 -0.9365 -0.6164  1.3906
  334MOL0     H45086   5.659   5.424   6.703  2.1058 -0.0443 -1.3200
  334MOL0     H45087   5.644   5.307   6.569  2.7041  1.6071 -0.6731
  334MOL0     H45088   5.787   5.096   6.878  3.4041  0.1471 -3.8985
  334MOL0     H45089   5.040   5.556   6.761 -2.5403  2.1877 -2.2096
  334MOL0     H45090   4.801   5.584   6.778 -1.3279 -0.2722 -3.3401
  335MOL0     O45091   5.941   6.665   0.856 -0.4158  0.3211  0.2681
  335MOL0     C45092   5.997   6.772   0.831  0.2651 -0.8173  0.2763
  335MOL0     O45093   5.942   6.878   0.779  0.3572  0.2438 -0.0303
  335MOL0     C45094   5.808   6.878   0.757  0.0933  0.3012 -0.6697
  335MOL0     C45095   5.714   6.856   0.855 -0.0778  0.8855  0.1795
  335MOL0     C45096   5.577   6.868   0.828 -0.1343  0.3264  0.7860
  335MOL0     C45097   5.531   6.907   0.702 -0.1002 -0.4223  0.8565
  335MOL0     O45098   5.403   6.941   0.666 -0.5837  0.5830  0.2793
  335MOL0     C45099   5.306   6.863   0.733  0.0246  0.9846  0.2221
  335MOL0     C45100   5.187   6.848   0.646 -0.3916  0.3568  0.0530
  335MOL0     C45101   5.091   6.758   0.714  0.9055 -0.7568  0.3400
  335MOL0     C45102   4.942   6.786   0.673 -0.6253 -0.5501  0.3390
  335MOL0     C45103   4.851   6.695   0.752 -0.2266 -0.3096 -0.8758
  335MOL0     C45104   4.704   6.718   0.730  0.9021 -0.0145  0.0458
  335MOL0     C45105   4.611   6.614   0.808 -0.7738 -0.6463  0.6192
  335MOL0     C45106   4.596   6.624   0.956 -1.0336  0.0371 -0.0372
  335MOL0     N45107   4.531   6.749   0.999 -0.1635 -0.8571  0.4013
  335MOL0     C45108   4.433   6.805   0.923  0.4988  0.3294  0.0618
  335MOL0     C45109   4.419   6.928   0.975 -0.0748  0.8875 -0.3996
  335MOL0     C45110   4.326   7.037   0.932 -0.5702 -0.1347 -0.3781
  335MOL0     C45111   4.200   7.026   1.013 -0.7270  0.8813  0.1756
  335MOL0     C45112   4.083   7.111   0.950  0.1386  1.0668 -0.1273
  335MOL0     C45113   3.946   7.044   0.945 -0.5270  0.2323  0.3280
  335MOL0     O45114   3.863   7.124   0.859  0.6958  0.3245 -0.1118
  335MOL0     C45115   3.736   7.061   0.822 -0.2671  0.3471  0.4081
  335MOL0     C45116   3.679   6.940   0.873 -0.8982 -0.5452  0.8858
  335MOL0     C45117   3.555   6.893   0.826 -0.9680 -0.4245  0.1477
  335MOL0     C45118   3.510   6.756   0.879 -0.7322 -0.8369 -0.0250
  335MOL0     C45119   3.481   6.971   0.739 -0.0788  0.2248  0.4821
  335MOL0     C45120   3.366   6.921   0.663 -0.4452 -0.0812  0.2242
  335MOL0     O45121   3.301   7.012   0.593  0.8259 -0.1178 -0.5044
  335MOL0     C45122   3.193   6.987   0.509 -0.3341  0.5793 -0.5726
  335MOL0     C45123   3.100   6.885   0.529  0.4095  0.1937  0.0677
  335MOL0     C45124   3.002   6.868   0.425 -1.4241  0.3308  0.0523
  335MOL0     C45125   2.995   6.948   0.317 -0.1935  0.5655 -0.4321
  335MOL0     O45126   2.921   6.907   0.211 -0.2389  0.0402 -0.6891
  335MOL0     C45127   2.786   6.861   0.222 -0.2029  0.3214  0.0372
  335MOL0     C45128   2.704   6.929   0.126  0.3852  0.1568  0.7045
  335MOL0     C45129   2.561   6.872   0.119  0.5330 -0.1046 -0.1734
  335MOL0     C45130   2.481   6.953   0.029 -0.4497  0.5602  0.0779
  335MOL0     C45131   2.342   6.904   0.011 -0.5967  1.0499  0.7622
  335MOL0     C45132   2.263   7.001  -0.073 -0.2219 -0.5912 -0.3138
  335MOL0     C45133   2.120   6.952  -0.064 -0.1229  0.4899  0.0697
  335MOL0     C45134   2.027   7.048  -0.129  0.2232 -0.0760  0.1960
  335MOL0    Cl45135   1.864   6.979  -0.109 -0.2390 -0.3011  0.0068
  335MOL0     C45136   3.087   7.048   0.304  0.4621 -0.4140  0.3613
  335MOL0     C45137   3.183   7.063   0.394 -0.2715 -0.9431  0.6140
  335MOL0     O45138   3.350   6.801   0.658  0.8436 -0.4898 -0.6682
  335MOL0     C45139   3.526   7.102   0.700  0.3020  0.2702  0.1960
  335MOL0     C45140   3.651   7.146   0.747 -1.1533  0.4125 -0.4577
  335MOL0     N45141   4.511   6.945   1.082  0.1407  0.2133 -0.5522
  335MOL0     N45142   4.575   6.845   1.097 -0.6640  0.1082 -0.0062
  335MOL0     C45143   5.633   6.953   0.608  0.8395  0.5100  0.1418
  335MOL0     C45144   5.766   6.925   0.637  0.4856 -0.2436 -0.4097
  335MOL0     C45145   6.146   6.776   0.852  0.0475  0.2859 -0.5901
  335MOL0     C45146   6.215   6.899   0.868  0.6162 -0.0089  0.3061
  335MOL0     C45147   6.350   6.904   0.868  0.3956 -0.4776  0.0854
  335MOL0     C45148   6.431   6.789   0.840 -0.1392 -0.4959 -0.8488
  335MOL0     O45149   6.566   6.776   0.852 -0.2029  0.1717  0.1385
  335MOL0     C45150   6.647   6.894   0.848  0.2291  1.0523  0.3285
  335MOL0     C45151   6.668   6.950   0.986  0.6577 -0.3089 -0.6736
  335MOL0     C45152   6.773   7.056   0.980  0.1367 -0.7198  1.1387
  335MOL0     C45153   6.861   7.075   1.097 -0.0956 -0.0822  0.3685
  335MOL0     C45154   6.783   7.092   1.223  0.2855 -0.1129  0.1621
  335MOL0     C45155   6.720   7.091   1.328  0.6395 -0.1904  0.3665
  335MOL0     C45156   6.366   6.667   0.833 -0.4318  0.1010  0.1126
  335MOL0     C45157   6.229   6.658   0.835 -0.0647  0.4718 -0.6560
  335MOL0     H45158   5.758   6.812   0.944  1.0481  0.0247 -0.7696
  335MOL0     H45159   5.505   6.841   0.905 -0.0138 -2.7574 -0.0432
  335MOL0     H45160   5.348   6.769   0.771 -1.8258  1.1687  3.0521
  335MOL0     H45161   5.271   6.902   0.829  1.1602 -2.4546  2.1998
  335MOL0     H45162   5.138   6.945   0.635 -0.3255  0.4068  0.1958
  335MOL0     H45163   5.204   6.811   0.544 -0.0159  1.8820 -0.4673
  335MOL0     H45164   5.111   6.657   0.677 -0.4561 -0.7872 -0.4115
  335MOL0     H45165   5.099   6.760   0.823  3.6431 -3.1186  0.2702
  335MOL0     H45166   4.921   6.890   0.702 -1.0587 -0.5000 -0.1243
  335MOL0     H45167   4.935   6.766   0.565 -1.0068 -1.3581  0.5083
  335MOL0     H45168   4.876   6.591   0.733 -0.2084 -1.5279  4.4137
  335MOL0     H45169   4.874   6.703   0.859 -0.0147 -0.2631 -0.9243
  335MOL0     H45170   4.682   6.820   0.762 -2.8306 -0.4579 -0.7195
  335MOL0     H45171   4.672   6.718   0.626  0.0322  1.1537  0.2947
  335MOL0     H45172   4.514   6.627   0.761 -0.6306  0.7274  0.6761
  335MOL0     H45173   4.642   6.510   0.794  0.8552 -0.1076 -0.0562
  335MOL0     H45174   4.696   6.608   0.998 -1.6809 -2.6968  0.6851
  335MOL0     H45175   4.530   6.545   0.993 -0.6308 -0.9333 -1.3263
  335MOL0     H45176   4.383   6.768   0.834  1.5899  3.9211 -2.2513
  335MOL0     H45177   4.369   7.138   0.931 -3.5203  1.3138 -3.6529
  335MOL0     H45178   4.296   7.019   0.828  0.7764  2.0508 -1.2067
  335MOL0     H45179   4.220   7.056   1.117 -0.8702  0.7538  0.2396
  335MOL0     H45180   4.178   6.920   1.005  1.5045  0.5191 -3.2033
  335MOL0     H45181   4.103   7.137   0.846 -1.7961  2.6873 -0.1363
  335MOL0     H45182   4.069   7.205   1.004 -0.7027  1.1015 -0.3896
  335MOL0     H45183   3.912   7.031   1.048  2.0972 -1.3236  1.1105
  335MOL0     H45184   3.951   6.944   0.901 -0.1315 -1.0298  3.0189
  335MOL0     H45185   3.740   6.889   0.947  1.1071 -0.5558 -0.6944
  335MOL0     H45186   3.409   6.780   0.915  0.7822  1.3927  3.2990
  335MOL0     H45187   3.513   6.683   0.798 -3.4541 -0.5890 -0.4341
  335MOL0     H45188   3.564   6.726   0.970 -1.1836 -3.2844 -0.5042
  335MOL0     H45189   3.106   6.827   0.620  2.7649 -0.7050 -0.6141
  335MOL0     H45190   2.946   6.776   0.440  1.1658 -1.3823 -0.1575
  335MOL0     H45191   2.767   6.755   0.201 -0.9470  0.9090 -2.6964
  335MOL0     H45192   2.745   6.874   0.322 -0.1043  0.7829  0.0179
  335MOL0     H45193   2.708   7.038   0.139  2.7279  0.3188 -0.8327
  335MOL0     H45194   2.744   6.911   0.026 -5.4032  0.7369 -2.1479
  335MOL0     H45195   2.516   6.884   0.218  1.4525 -2.6197  0.6380
  335MOL0     H45196   2.565   6.769   0.083  1.9380  0.3777 -1.5120
  335MOL0     H45197   2.469   7.052   0.075  2.6666  0.8803  0.3997
  335MOL0     H45198   2.532   6.956  -0.068 -0.3582 -2.0876 -0.0286
  335MOL0     H45199   2.306   6.869   0.109 -1.6016 -0.0751  0.0148
  335MOL0     H45200   2.344   6.807  -0.038 -1.0238  2.1525 -1.5498
  335MOL0     H45201   2.282   7.100  -0.031 -0.8287 -1.0072  0.9882
  335MOL0     H45202   2.306   7.002  -0.173 -0.8730  1.3656 -0.6267
  335MOL0     H45203   2.083   6.946   0.039 -0.7198  1.1674 -0.0933
  335MOL0     H45204   2.100   6.853  -0.106 -6.3154  2.1111 -1.8550
  335MOL0     H45205   2.055   7.072  -0.232  2.1237  0.3048  0.7625
  335MOL0     H45206   2.034   7.145  -0.080 -0.9074  1.9705 -3.3403
  335MOL0     H45207   3.073   7.119   0.223 -0.6346 -0.9084  0.0993
  335MOL0     H45208   3.254   7.146   0.396  0.2055 -1.1709 -2.6271
  335MOL0     H45209   3.461   7.169   0.645  0.4056  1.9713  2.0219
  335MOL0     H45210   3.705   7.234   0.716 -0.2390  1.0117  2.5285
  335MOL0     H45211   5.598   6.989   0.512  0.8134 -0.4425 -0.2207
  335MOL0     H45212   5.837   6.943   0.557 -0.6626 -0.3436 -1.4900
  335MOL0     H45213   6.153   6.988   0.878 -1.1264 -1.0147 -0.9573
  335MOL0     H45214   6.394   7.002   0.887 -3.4238  1.3902  0.1687
  335MOL0     H45215   6.743   6.874   0.798  0.2008  2.6022 -0.4145
  335MOL0     H45216   6.597   6.976   0.796 -2.4399 -0.1351  0.8724
  335MOL0     H45217   6.707   6.867   1.045  0.9432 -0.3959 -0.9815
  335MOL0     H45218   6.573   6.986   1.027  1.0911  0.0947 -0.0206
  335MOL0     H45219   6.716   7.147   0.959 -0.6053 -1.1706  1.1432
  335MOL0     H45220   6.847   7.047   0.900 -0.4926  0.4953  0.3907
  335MOL0     H45221   6.930   7.159   1.085  2.5664 -2.2051 -0.0078
  335MOL0     H45222   6.925   6.988   1.114 -0.0994 -0.0196  0.7223
  335MOL0     H45223   6.679   7.088   1.427 -0.2430  0.6806  0.0528
  335MOL0     H45224   6.432   6.582   0.822 -2.5713 -1.5517 -0.6253
  335MOL0     H45225   6.182   6.564   0.808 -1.7205  0.4730  1.8852
  336MOL0     O45226   7.233   0.572   1.761  0.4159 -0.2155  0.3062
  336MOL0     C45227   7.247   0.450   1.774 -0.1873 -0.7553  0.3605
  336MOL0     O45228   7.133   0.365   1.789  0.6443 -0.3245 -0.0572
  336MOL0     C45229   7.008   0.413   1.784  0.0102  0.5202  0.5037
  336MOL0     C45230   6.925   0.360   1.684 -0.1713  0.6561 -0.6763
  336MOL0     C45231   6.789   0.398   1.688 -0.4018  0.0394  0.1728
  336MOL0     C45232   6.740   0.483   1.792 -0.5009  0.0903 -0.4214
  336MOL0     O45233   6.610   0.523   1.790  0.2232 -0.1227 -0.1955
  336MOL0     C45234   6.540   0.500   1.912 -1.2619  0.5804 -0.3890
  336MOL0     C45235   6.398   0.537   1.895 -0.1023  0.2276  0.3361
  336MOL0     C45236   6.329   0.452   1.790 -0.2788  0.9460  0.3058
  336MOL0     C45237   6.192   0.520   1.773 -0.2497 -0.0612  0.2036
  336MOL0     C45238   6.102   0.421   1.689  0.2562 -0.1063 -0.1210
  336MOL0     C45239   5.966   0.488   1.689 -0.2426 -0.4061 -0.2294
  336MOL0     C45240   5.868   0.402   1.610 -0.5865 -0.2926  0.3088
  336MOL0     C45241   5.864   0.462   1.474 -0.0738  0.6943 -0.6476
  336MOL0     N45242   5.754   0.390   1.405 -0.6984 -0.4160 -0.4795
  336MOL0     C45243   5.779   0.304   1.306 -0.6002  0.5159 -0.2195
  336MOL0     C45244   5.674   0.301   1.225 -0.1306 -0.6034  0.3806
  336MOL0     C45245   5.653   0.218   1.099  0.4082  0.0323  0.2340
  336MOL0     C45246   5.534   0.270   1.012 -0.5154  0.0947  0.3722
  336MOL0     C45247   5.532   0.187   0.876 -0.4328  0.5528 -0.1287
  336MOL0     C45248   5.414   0.237   0.787  0.8989  1.3421 -0.6465
  336MOL0     O45249   5.293   0.180   0.832 -0.2764  0.7015 -0.5494
  336MOL0     C45250   5.181   0.197   0.746 -0.0750  0.1732  0.0771
  336MOL0     C45251   5.190   0.254   0.615 -0.5770  0.4854 -0.0757
  336MOL0     C45252   5.074   0.276   0.536  0.6475 -0.2132  0.4942
  336MOL0     C45253   5.091   0.357   0.411 -0.3072  0.0422  0.2577
  336MOL0     C45254   4.953   0.227   0.581  0.2224 -0.0700 -0.4749
  336MOL0     C45255   4.830   0.230   0.498  0.3956  0.1308  0.1498
  336MOL0     O45256   4.719   0.184   0.565 -0.0883  0.5584  0.2531
  336MOL0     C45257   4.586   0.205   0.515 -0.7552 -0.1597 -0.7251
  336MOL0     C45258   4.535   0.118   0.421  0.3799  0.2026  0.7298
  336MOL0     C45259   4.408   0.162   0.359  0.0216  0.9252 -0.4091
  336MOL0     C45260   4.343   0.281   0.386 -0.4314  0.6213  0.3457
  336MOL0     O45261   4.215   0.296   0.324 -0.1431 -0.4961 -0.0827
  336MOL0     C45262   4.121   0.379   0.385  1.1323 -0.0851  0.2859
  336MOL0     C45263   3.987   0.359   0.309  0.0145 -0.4250 -0.1359
  336MOL0     C45264   3.887   0.463   0.356  1.2111  0.6206 -0.5276
  336MOL0     C45265   3.772   0.487   0.247 -0.3002  0.0094  0.2857
  336MOL0     C45266   3.660   0.573   0.279 -0.0596 -0.6042 -0.1906
  336MOL0     C45267   3.588   0.617   0.150 -0.6332  0.0163  0.2972
  336MOL0     C45268   3.489   0.720   0.190  0.3468  0.0777 -0.9558
  336MOL0     C45269   3.412   0.768   0.072 -0.2209  0.8294  1.7141
  336MOL0    Cl45270   3.510   0.872  -0.044  0.5792  0.2423  0.0483
  336MOL0     C45271   4.397   0.358   0.490  0.8335 -0.4058  0.1821
  336MOL0     C45272   4.520   0.327   0.542  0.0922  0.6579 -0.3807
  336MOL0     O45273   4.830   0.261   0.383 -0.0802  0.6469  0.2337
  336MOL0     C45274   4.944   0.171   0.714 -0.2385  0.0553  0.4339
  336MOL0     C45275   5.057   0.158   0.794  0.0843 -0.7692 -0.1367
  336MOL0     N45276   5.585   0.396   1.276  0.1755  0.1837  0.7404
  336MOL0     N45277   5.635   0.451   1.376  0.4868  0.7906 -0.5906
  336MOL0     C45278   6.831   0.531   1.886  0.0274 -0.1957 -0.7794
  336MOL0     C45279   6.965   0.491   1.894  1.2626 -0.6174 -0.0630
  336MOL0     C45280   7.378   0.400   1.782 -0.1985  0.2521 -0.2397
  336MOL0     C45281   7.408   0.262   1.768 -0.4319 -0.1026 -0.4320
  336MOL0     C45282   7.536   0.213   1.779 -0.4950 -1.5310 -0.0766
  336MOL0     C45283   7.644   0.299   1.790  0.2621 -0.8920 -1.0716
  336MOL0     O45284   7.764   0.252   1.799 -0.2559 -0.2746  0.2411
  336MOL0     C45285   7.836   0.271   1.929 -0.5837 -0.0422 -0.6471
  336MOL0     C45286   7.976   0.237   1.911  0.3582 -0.0603 -0.0686
  336MOL0     C45287   8.017   0.088   1.902  0.1713 -0.2545  0.3092
  336MOL0     C45288   8.157   0.067   1.863 -0.0849  0.2303 -0.7038
  336MOL0     C45289   8.238   0.089   1.984 -0.8249 -0.1751 -0.8331
  336MOL0     C45290   8.303   0.102   2.085 -0.6593 -0.7996  0.5294
  336MOL0     C45291   7.624   0.437   1.800 -0.0604 -0.2598  0.0384
  336MOL0     C45292   7.487   0.490   1.793  0.5214 -0.1320  1.1382
  336MOL0     H45293   6.956   0.316   1.589  0.0666  0.0797 -0.3366
  336MOL0     H45294   6.726   0.369   1.604 -0.5623  1.5150 -0.2431
  336MOL0     H45295   6.545   0.394   1.939  3.2307  1.1612  2.1045
  336MOL0     H45296   6.585   0.566   1.988  2.5163  0.6480 -2.4227
  336MOL0     H45297   6.346   0.542   1.991  0.6616  0.8405  0.7343
  336MOL0     H45298   6.380   0.639   1.857 -0.4810  0.6254  1.5516
  336MOL0     H45299   6.384   0.439   1.697 -2.9496 -3.2755 -0.9459
  336MOL0     H45300   6.319   0.350   1.827 -3.3351  1.0569  0.0331
  336MOL0     H45301   6.151   0.550   1.870 -0.1257  0.0483  0.2219
  336MOL0     H45302   6.203   0.614   1.719  0.0742 -0.2749 -0.1130
  336MOL0     H45303   6.135   0.403   1.587 -1.8556 -1.2277 -0.6597
  336MOL0     H45304   6.093   0.324   1.740 -1.8477  0.4241  0.6259
  336MOL0     H45305   5.919   0.493   1.788  0.6313 -3.2784  0.4068
  336MOL0     H45306   5.968   0.591   1.651 -1.7903  0.3924  1.6598
  336MOL0     H45307   5.903   0.299   1.601  0.4552  0.1367 -0.8615
  336MOL0     H45308   5.768   0.405   1.653  0.4996 -1.0916  3.1421
  336MOL0     H45309   5.957   0.466   1.417 -0.3789  1.5970 -1.1043
  336MOL0     H45310   5.830   0.565   1.488  0.8226  0.7188  1.9057
  336MOL0     H45311   5.872   0.260   1.273  0.0663  0.8110  1.1880
  336MOL0     H45312   5.742   0.217   1.036  0.4578  0.2354  0.3009
  336MOL0     H45313   5.630   0.117   1.135 -0.2361  0.4512  1.0384
  336MOL0     H45314   5.560   0.374   0.990  1.2227 -0.6383 -1.3315
  336MOL0     H45315   5.440   0.268   1.068  0.2033 -0.1369  1.5909
  336MOL0     H45316   5.528   0.078   0.883 -1.6352  0.4769 -1.6005
  336MOL0     H45317   5.625   0.207   0.822  1.3629 -2.9373  1.3513
  336MOL0     H45318   5.434   0.191   0.689  3.4829 -1.2138  0.9039
  336MOL0     H45319   5.418   0.346   0.778  3.8185  1.1982 -3.0168
  336MOL0     H45320   5.281   0.301   0.579  0.2382  0.4906  1.8494
  336MOL0     H45321   5.197   0.386   0.413  0.0634 -0.8423  4.6273
  336MOL0     H45322   5.059   0.302   0.322 -0.8708 -0.3257  0.6788
  336MOL0     H45323   5.038   0.451   0.422  1.4427  1.3359 -1.6625
  336MOL0     H45324   4.588   0.031   0.384 -3.1557 -1.2249 -1.5434
  336MOL0     H45325   4.355   0.108   0.281 -2.5742  1.1502  1.0981
  336MOL0     H45326   4.106   0.353   0.490 -1.2541  0.6133  0.1752
  336MOL0     H45327   4.151   0.484   0.394  1.2005 -0.0444 -0.3688
  336MOL0     H45328   3.996   0.378   0.201  0.3988 -1.0298 -0.2134
  336MOL0     H45329   3.954   0.255   0.303 -1.8643  0.1836 -1.3735
  336MOL0     H45330   3.932   0.561   0.375 -1.9978  2.0986 -0.0456
  336MOL0     H45331   3.844   0.415   0.445  0.5971 -1.3757 -1.8435
  336MOL0     H45332   3.818   0.520   0.153 -0.8987  1.1515  0.3742
  336MOL0     H45333   3.728   0.393   0.211  0.8811  0.0780 -1.4723
  336MOL0     H45334   3.707   0.665   0.314  3.3968 -1.7007 -1.5412
  336MOL0     H45335   3.585   0.530   0.345 -0.3730  1.6260  0.9886
  336MOL0     H45336   3.658   0.652   0.073 -1.3384 -1.6132 -1.1624
  336MOL0     H45337   3.542   0.525   0.112 -0.5866  0.3176 -0.5075
  336MOL0     H45338   3.542   0.806   0.232 -1.1120 -0.9287  3.4623
  336MOL0     H45339   3.422   0.676   0.264  0.3291  1.4085 -0.1495
  336MOL0     H45340   3.324   0.831   0.089 -0.6729  1.5017 -2.0923
  336MOL0     H45341   3.373   0.679   0.020  0.3958  1.3506  0.3114
  336MOL0     H45342   4.345   0.449   0.519  0.5527 -0.8675  1.1418
  336MOL0     H45343   4.568   0.386   0.620  0.8361 -1.6736  1.0139
  336MOL0     H45344   4.852   0.130   0.755 -0.2781  0.5019  0.8003
  336MOL0     H45345   5.049   0.116   0.893  1.4000 -2.7466 -0.7881
  336MOL0     H45346   6.800   0.603   1.962 -1.2427  0.6383 -2.0333
  336MOL0     H45347   7.033   0.531   1.969  1.2713 -1.9853  0.6959
  336MOL0     H45348   7.327   0.191   1.756 -0.0118 -1.6422  3.9105
  336MOL0     H45349   7.577   0.113   1.768  2.9389  0.0288 -4.5970
  336MOL0     H45350   7.834   0.375   1.966  0.8323  0.6369 -2.3520
  336MOL0     H45351   7.787   0.215   2.010 -1.2295  2.3650  0.7430
  336MOL0     H45352   8.029   0.258   2.004  0.1624 -2.9539  0.7699
  336MOL0     H45353   8.016   0.296   1.828 -0.3329 -1.0611 -1.1527
  336MOL0     H45354   7.958   0.044   1.822  2.9367  0.2944 -2.2075
  336MOL0     H45355   8.004   0.035   1.997  2.0273 -1.0330  0.1760
  336MOL0     H45356   8.194   0.132   1.783 -0.5077  0.4917 -0.6882
  336MOL0     H45357   8.168  -0.037   1.832 -2.2658  0.5587 -2.9005
  336MOL0     H45358   8.357   0.113   2.177 -1.8937  0.8356  1.1083
  336MOL0     H45359   7.715   0.495   1.802  0.5456 -1.2063  0.3113
  336MOL0     H45360   7.462   0.595   1.803  0.4316 -0.0792  0.3826
  337MOL0     O45361   4.434   9.220  10.498 -0.3962  1.1145  0.3789
  337MOL0     C45362   4.527   9.197  10.576  0.0462  0.7987  0.0678
  337MOL0     O45363   4.538   9.245  10.695  0.2072 -0.1621 -0.9420
  337MOL0     C45364   4.465   9.356  10.747 -0.5277  0.3833 -0.2763
  337MOL0     C45365   4.381   9.440  10.671 -0.1746  0.5265 -0.0500
  337MOL0     C45366   4.306   9.544  10.733 -0.6172 -0.1189  0.3211
  337MOL0     C45367   4.327   9.579  10.867  0.5173  1.0804 -0.3098
  337MOL0     O45368   4.274   9.694  10.918  0.6024  0.6839  0.0177
  337MOL0     C45369   4.152   9.749  10.868  0.6006 -1.5404 -0.2154
  337MOL0     C45370   4.033   9.659  10.921  0.0132  0.5770 -0.1307
  337MOL0     C45371   3.891   9.713  10.895  0.4862 -0.1040  0.9129
  337MOL0     C45372   3.870   9.769  10.750  0.5575 -0.6889 -0.2501
  337MOL0     C45373   3.735   9.820  10.716 -0.3539  0.0800 -0.1796
  337MOL0     C45374   3.638   9.702  10.718  0.1053 -0.0371 -0.1503
  337MOL0     C45375   3.507   9.762  10.653  0.4241 -0.1882  0.2715
  337MOL0     C45376   3.386   9.669  10.640  0.1317 -0.1992  0.2421
  337MOL0     N45377   3.413   9.539  10.576  0.0063  0.1652 -0.2724
  337MOL0     C45378   3.477   9.432  10.648  0.3856 -0.8177  0.1714
  337MOL0     C45379   3.521   9.344  10.557  0.2198  1.0065 -0.0824
  337MOL0     C45380   3.580   9.205  10.572  0.1415 -0.5098 -0.1953
  337MOL0     C45381   3.605   9.163  10.720 -0.8573 -0.0758  0.0938
  337MOL0     C45382   3.649   9.014  10.733 -0.3288  0.3458  0.5646
  337MOL0     C45383   3.599   8.906  10.631 -0.1129 -0.0379  0.2743
  337MOL0     O45384   3.457   8.911  10.634 -0.1629 -0.2254 -0.1730
  337MOL0     C45385   3.385   8.843  10.542  0.9067 -0.3848 -0.3434
  337MOL0     C45386   3.421   8.721  10.480 -0.2532  0.1339 -0.4533
  337MOL0     C45387   3.330   8.657  10.395  0.0206 -0.0726  0.4805
  337MOL0     C45388   3.370   8.520  10.348 -0.1094 -0.0561  0.1134
  337MOL0     C45389   3.208   8.720  10.358 -0.2813  0.0681  0.0817
  337MOL0     C45390   3.113   8.663  10.260 -0.2273  0.3166 -0.2241
  337MOL0     O45391   3.011   8.740  10.227  0.4107 -0.1770 -0.4600
  337MOL0     C45392   2.897   8.685  10.168 -0.0831  0.0499 -0.1881
  337MOL0     C45393   2.781   8.657  10.239 -1.0584 -0.6193 -1.0493
  337MOL0     C45394   2.666   8.615  10.178  0.5029 -0.3297 -0.0618
  337MOL0     C45395   2.669   8.583  10.042 -0.8319 -0.3374 -0.0041
  337MOL0     O45396   2.555   8.526   9.991 -0.0439 -0.0527 -0.2658
  337MOL0     C45397   2.492   8.611   9.894  0.0796 -0.9463  0.6696
  337MOL0     C45398   2.344   8.623   9.932  0.5891 -0.3927  0.4156
  337MOL0     C45399   2.339   8.667  10.078 -0.8904 -0.2572  0.2633
  337MOL0     C45400   2.209   8.749  10.102  0.8815  0.1505 -0.1398
  337MOL0     C45401   2.172   8.757  10.249  0.1282  0.3479  0.6058
  337MOL0     C45402   2.031   8.817  10.271  0.0218  0.1846 -1.0150
  337MOL0     C45403   1.931   8.696  10.261  0.0721  0.1795  1.0967
  337MOL0     C45404   1.792   8.736  10.320  0.8225 -0.6450 -0.5287
  337MOL0    Cl45405   1.793   8.745  10.496  0.2806 -0.0655  0.0374
  337MOL0     C45406   2.787   8.612   9.966 -0.3637  0.1048 -0.2189
  337MOL0     C45407   2.898   8.665  10.029  0.7204  0.1916 -0.1872
  337MOL0     O45408   3.129   8.549  10.223 -0.2976 -0.1802  0.1098
  337MOL0     C45409   3.173   8.838  10.418  0.0796 -0.4460 -0.9092
  337MOL0     C45410   3.265   8.898  10.506  0.0955 -0.0505  0.0616
  337MOL0     N45411   3.494   9.401  10.431  0.1732 -0.3655 -0.0778
  337MOL0     N45412   3.423   9.515  10.445 -0.4924 -0.2403 -0.3970
  337MOL0     C45413   4.415   9.492  10.942 -0.2026 -0.3846 -0.2445
  337MOL0     C45414   4.487   9.390  10.879 -0.3302  0.6128 -0.0841
  337MOL0     C45415   4.623   9.094  10.530  0.2785 -0.6370 -0.0518
  337MOL0     C45416   4.728   9.068  10.619  0.3548 -0.8077  0.5380
  337MOL0     C45417   4.813   8.961  10.593  0.8456 -1.0262 -0.4175
  337MOL0     C45418   4.804   8.887  10.480 -0.8089 -0.4271  0.6662
  337MOL0     O45419   4.903   8.791  10.472 -0.2090 -0.3065  0.4634
  337MOL0     C45420   4.884   8.675  10.391  0.1485 -0.1408  0.2380
  337MOL0     C45421   4.935   8.688  10.248 -0.6739 -0.7608  0.2215
  337MOL0     C45422   4.871   8.596  10.148 -0.4674  0.0397  0.8186
  337MOL0     C45423   4.736   8.639  10.109 -0.0503  0.1255  0.9134
  337MOL0     C45424   4.670   8.524  10.041 -0.6727 -0.1059  0.5835
  337MOL0     C45425   4.590   8.447   9.995  0.4704 -0.1890 -0.4361
  337MOL0     C45426   4.708   8.926  10.383 -0.0728 -0.3585 -0.9024
  337MOL0     C45427   4.610   9.023  10.411  0.6160 -0.0828 -0.9809
  337MOL0     H45428   4.388   9.435  10.563  2.4285  3.9730 -0.2321
  337MOL0     H45429   4.251   9.613  10.670  1.0629  2.7820  1.8198
  337MOL0     H45430   4.145   9.850  10.908 -1.4654 -1.9516  0.5513
  337MOL0     H45431   4.142   9.763  10.760  0.7588 -3.3785 -0.5047
  337MOL0     H45432   4.039   9.563  10.868 -2.1711  0.0382  0.4984
  337MOL0     H45433   4.041   9.636  11.027 -0.3684 -0.2650 -0.2767
  337MOL0     H45434   3.819   9.631  10.906  0.6563 -0.7907 -2.1991
  337MOL0     H45435   3.873   9.789  10.971 -0.2706  0.7532 -0.0784
  337MOL0     H45436   3.937   9.854  10.731 -0.3049  0.0576  0.0175
  337MOL0     H45437   3.888   9.693  10.674  0.5857 -1.4609  0.5192
  337MOL0     H45438   3.706   9.895  10.791  1.0977 -0.1606  0.6667
  337MOL0     H45439   3.745   9.874  10.622  1.3910 -1.8541 -1.1693
  337MOL0     H45440   3.667   9.626  10.644 -3.1551  0.0657 -1.7130
  337MOL0     H45441   3.612   9.656  10.814 -0.3718 -1.1972 -0.8088
  337MOL0     H45442   3.470   9.848  10.709 -1.1066 -0.2731 -0.5473
  337MOL0     H45443   3.528   9.792  10.549 -1.0811 -0.1814 -0.0532
  337MOL0     H45444   3.299   9.720  10.598 -2.3587 -4.4544 -0.2708
  337MOL0     H45445   3.361   9.645  10.744  0.8196 -1.2794  0.1746
  337MOL0     H45446   3.470   9.419  10.756 -1.5483 -2.4371 -0.0917
  337MOL0     H45447   3.505   9.134  10.535  1.5591 -3.4343  2.1624
  337MOL0     H45448   3.665   9.203  10.504  0.5009  1.8614  0.0995
  337MOL0     H45449   3.511   9.166  10.776 -2.0071 -1.2256 -1.6481
  337MOL0     H45450   3.674   9.227  10.776 -1.0640 -1.0385  1.5149
  337MOL0     H45451   3.615   8.983  10.831 -0.2158  0.5186  0.6599
  337MOL0     H45452   3.758   9.002  10.735 -0.1931  1.3589  0.0754
  337MOL0     H45453   3.628   8.807  10.667 -0.8014 -0.4294 -0.2387
  337MOL0     H45454   3.637   8.908  10.529  0.0027  0.3723  0.3246
  337MOL0     H45455   3.519   8.676  10.494  0.0786  0.8230 -0.5117
  337MOL0     H45456   3.385   8.535  10.241 -2.8528 -1.9941 -0.6612
  337MOL0     H45457   3.459   8.489  10.403  1.0712  0.1880 -1.5875
  337MOL0     H45458   3.294   8.444  10.369 -0.2254  0.3589  1.2589
  337MOL0     H45459   2.775   8.664  10.347 -0.5483 -1.0652 -0.9893
  337MOL0     H45460   2.573   8.592  10.230 -0.0108  1.0882 -0.3215
  337MOL0     H45461   2.534   8.711   9.890 -0.2534 -0.8411 -0.7266
  337MOL0     H45462   2.498   8.570   9.792 -1.9232  2.7622 -1.1504
  337MOL0     H45463   2.292   8.685   9.858 -1.4938 -3.7482 -1.1833
  337MOL0     H45464   2.311   8.524   9.901  0.3796  0.3346 -1.8553
  337MOL0     H45465   2.431   8.723  10.098  0.1059 -1.8270  0.3054
  337MOL0     H45466   2.329   8.577  10.140 -0.4479 -0.9971 -0.7217
  337MOL0     H45467   2.218   8.850  10.060 -2.7081  0.0317 -1.4913
  337MOL0     H45468   2.132   8.709  10.036  0.4527  1.9767 -0.8133
  337MOL0     H45469   2.255   8.811  10.294 -0.7736  1.6786  0.7410
  337MOL0     H45470   2.184   8.657  10.291  0.1683 -0.1107 -0.4668
  337MOL0     H45471   2.013   8.849  10.374 -0.3168 -1.3236 -0.5766
  337MOL0     H45472   2.010   8.900  10.204  2.5737  1.0887 -0.8059
  337MOL0     H45473   1.960   8.605  10.313  1.5807  1.2336  2.2103
  337MOL0     H45474   1.911   8.674  10.156 -1.2557  0.0711  1.3547
  337MOL0     H45475   1.718   8.666  10.280  0.6672 -1.7241  1.4753
  337MOL0     H45476   1.760   8.833  10.280 -0.1467 -0.1463  1.3031
  337MOL0     H45477   2.773   8.601   9.859 -1.3569  1.0972 -0.1998
  337MOL0     H45478   2.981   8.687   9.963 -0.9186  0.0559 -2.4219
  337MOL0     H45479   3.075   8.880  10.396 -0.8837 -1.2095  1.6396
  337MOL0     H45480   3.229   8.992  10.545  1.2228  0.0593  0.8922
  337MOL0     H45481   4.427   9.525  11.045 -0.6569 -1.7229  0.2512
  337MOL0     H45482   4.559   9.331  10.935 -0.2234  2.4636  1.8761
  337MOL0     H45483   4.746   9.121  10.712  3.6856  1.9181 -1.3995
  337MOL0     H45484   4.893   8.944  10.664  1.1523 -1.7158 -0.9110
  337MOL0     H45485   4.938   8.594  10.443 -0.4117 -1.0369 -0.5425
  337MOL0     H45486   4.777   8.652  10.384  0.0517  0.1471  0.7056
  337MOL0     H45487   5.043   8.672  10.241 -0.0431  3.3476 -2.1709
  337MOL0     H45488   4.929   8.792  10.218  1.1481 -0.4011  0.9854
  337MOL0     H45489   4.867   8.491  10.179 -2.0246 -0.0550  0.3743
  337MOL0     H45490   4.934   8.598  10.059 -1.1173  0.3296  0.3604
  337MOL0     H45491   4.743   8.722  10.038  1.4519  0.5278  1.4807
  337MOL0     H45492   4.682   8.678  10.196 -0.4303  0.4735  0.5222
  337MOL0     H45493   4.514   8.384   9.954  0.4579  0.5947 -1.6677
  337MOL0     H45494   4.702   8.876  10.287 -1.2016  0.4725 -1.2839
  337MOL0     H45495   4.532   9.044  10.338 -1.4462 -1.4645  0.6680
  338MOL0     O45496  10.072   3.303   0.103 -0.5013  0.2634  0.1071
  338MOL0     C45497  10.017   3.262   0.204  0.8949  0.2034 -0.3585
  338MOL0     O45498   9.888   3.228   0.208  0.7778 -0.0333 -0.4420
  338MOL0     C45499   9.799   3.265   0.110  0.2898  0.5781 -0.9219
  338MOL0     C45500   9.736   3.384   0.139  0.7684  0.8636  0.3299
  338MOL0     C45501   9.645   3.441   0.049  0.1963 -0.1626  0.1129
  338MOL0     C45502   9.631   3.376  -0.079  0.1628 -0.1307  0.6820
  338MOL0     O45503   9.556   3.446  -0.170  0.3827 -0.2895  0.1090
  338MOL0     C45504   9.472   3.361  -0.251  0.6543  0.0598  0.5004
  338MOL0     C45505   9.379   3.437  -0.355  0.4892 -0.0230  0.4025
  338MOL0     C45506   9.251   3.488  -0.292  0.0731  0.7161  0.0311
  338MOL0     C45507   9.159   3.554  -0.396 -0.4973 -0.8144 -0.0838
  338MOL0     C45508   9.016   3.569  -0.345  0.1501  0.3298 -0.9671
  338MOL0     C45509   8.939   3.654  -0.440  0.0817 -0.5274  0.5390
  338MOL0     C45510   8.957   3.803  -0.389  0.5172  0.1580  0.2591
  338MOL0     C45511   8.908   3.902  -0.503 -0.4180  0.3233 -0.7465
  338MOL0     N45512   8.762   3.898  -0.515 -0.4655 -0.3730 -0.1682
  338MOL0     C45513   8.667   3.899  -0.414  1.0243 -0.3393 -0.9556
  338MOL0     C45514   8.555   3.900  -0.486 -0.5068 -0.3527 -0.8861
  338MOL0     C45515   8.420   3.878  -0.421 -1.0918 -0.3349  0.6337
  338MOL0     C45516   8.335   3.998  -0.422  0.3756 -0.1004 -0.7944
  338MOL0     C45517   8.221   4.007  -0.526  0.2035 -0.0354 -0.4951
  338MOL0     C45518   8.102   4.096  -0.482 -0.1226  0.3637  0.0268
  338MOL0     O45519   7.982   4.024  -0.509 -0.1347 -0.1300  0.2748
  338MOL0     C45520   7.867   4.106  -0.521 -0.5829  0.1835 -0.3742
  338MOL0     C45521   7.870   4.245  -0.500  0.2830 -0.4431  0.2250
  338MOL0     C45522   7.756   4.321  -0.530  0.0134 -1.1709 -0.2385
  338MOL0     C45523   7.765   4.476  -0.512  0.8690  0.3577  0.0352
  338MOL0     C45524   7.635   4.266  -0.577 -0.2882 -1.0560  0.2833
  338MOL0     C45525   7.517   4.343  -0.623  0.2506 -0.1903 -1.1096
  338MOL0     O45526   7.454   4.305  -0.739  0.1255  0.0161 -0.3123
  338MOL0     C45527   7.320   4.333  -0.751  0.6641  0.7337  0.1693
  338MOL0     C45528   7.239   4.227  -0.703 -0.1366 -0.5337  0.4737
  338MOL0     C45529   7.103   4.235  -0.731  0.1666  0.9708 -0.0864
  338MOL0     C45530   7.049   4.348  -0.788 -0.1468  0.3607 -0.1843
  338MOL0     O45531   6.925   4.368  -0.838  0.3580 -0.2693  0.1235
  338MOL0     C45532   6.818   4.275  -0.799  0.0381 -0.6315 -0.0404
  338MOL0     C45533   6.682   4.317  -0.849  0.7830  0.2186 -0.0574
  338MOL0     C45534   6.684   4.364  -0.992 -0.2802  0.1459 -0.4100
  338MOL0     C45535   6.543   4.373  -1.052  0.6040  0.2958 -0.0319
  338MOL0     C45536   6.485   4.234  -1.100  0.2574 -0.3523 -0.5109
  338MOL0     C45537   6.341   4.239  -1.147  0.3664 -0.1656  0.1613
  338MOL0     C45538   6.342   4.264  -1.301  0.0148 -0.0964  0.2649
  338MOL0     C45539   6.202   4.295  -1.340  0.2473 -0.5006  0.0884
  338MOL0    Cl45540   6.207   4.330  -1.516  0.2269 -0.3873  0.0409
  338MOL0     C45541   7.129   4.449  -0.819 -0.1573 -0.6584  0.0587
  338MOL0     C45542   7.264   4.452  -0.795 -0.6777  0.0536  0.0498
  338MOL0     O45543   7.474   4.432  -0.549 -0.1330 -0.0711 -0.1874
  338MOL0     C45544   7.635   4.121  -0.603  1.0074  1.1833 -0.1121
  338MOL0     C45545   7.744   4.047  -0.568  0.6012  0.1444 -0.0849
  338MOL0     N45546   8.578   3.921  -0.620 -0.0480 -0.6681  0.7100
  338MOL0     N45547   8.706   3.916  -0.634 -0.5099  0.4411 -0.3712
  338MOL0     C45548   9.692   3.254  -0.106 -0.1169 -0.8352  0.8601
  338MOL0     C45549   9.780   3.197  -0.003  0.4544 -0.1306  0.9857
  338MOL0     C45550  10.098   3.232   0.322 -0.2730  0.3940  0.0815
  338MOL0     C45551  10.049   3.151   0.428 -0.6256  0.4012 -0.0643
  338MOL0     C45552  10.121   3.119   0.541 -0.4069  0.4425  0.3005
  338MOL0     C45553  10.244   3.171   0.556 -1.0298 -0.1845 -0.3426
  338MOL0     O45554  10.305   3.150   0.679 -0.5202  0.2371 -1.0711
  338MOL0     C45555  10.416   3.227   0.724  0.1903  0.2483 -0.1549
  338MOL0     C45556  10.368   3.345   0.808 -0.1875  1.1657  0.1849
  338MOL0     C45557  10.334   3.470   0.730 -0.7738 -0.0944  0.2835
  338MOL0     C45558  10.307   3.585   0.831 -0.4660 -0.0389 -0.5734
  338MOL0     C45559  10.230   3.690   0.765 -0.1518  0.5195 -0.8350
  338MOL0     C45560  10.169   3.776   0.704  0.4068  0.7385 -0.5400
  338MOL0     C45561  10.302   3.239   0.443 -0.2640 -0.0365  0.1712
  338MOL0     C45562  10.234   3.268   0.324  0.8528 -0.5879 -0.6886
  338MOL0     H45563   9.745   3.435   0.234 -0.8745 -1.1289  1.6363
  338MOL0     H45564   9.598   3.538   0.061 -0.8320 -0.8268  1.9047
  338MOL0     H45565   9.530   3.289  -0.309 -1.4273 -2.0153  0.8389
  338MOL0     H45566   9.408   3.307  -0.180  0.0283 -0.2056 -0.2593
  338MOL0     H45567   9.436   3.522  -0.393  2.5313 -1.3179  0.4356
  338MOL0     H45568   9.350   3.371  -0.437 -1.2324  1.7062 -0.4455
  338MOL0     H45569   9.196   3.408  -0.241  0.1770 -0.2537 -1.3109
  338MOL0     H45570   9.277   3.563  -0.217  3.9476 -0.3091 -0.0671
  338MOL0     H45571   9.201   3.654  -0.415 -1.1692 -0.7819 -1.5964
  338MOL0     H45572   9.157   3.508  -0.495  3.6811  0.9743 -1.2173
  338MOL0     H45573   8.961   3.474  -0.347 -0.9944  0.8963  1.1369
  338MOL0     H45574   9.005   3.609  -0.244  3.6636  0.9616 -0.7286
  338MOL0     H45575   8.982   3.645  -0.540  1.6275 -0.0387  1.1225
  338MOL0     H45576   8.832   3.633  -0.434  0.0098 -0.6264 -0.9050
  338MOL0     H45577   8.911   3.835  -0.296 -0.8897  0.7181 -0.5961
  338MOL0     H45578   9.066   3.811  -0.375  0.6823 -1.2027 -0.0783
  338MOL0     H45579   8.960   3.881  -0.597  1.6266 -2.2418  0.8061
  338MOL0     H45580   8.935   4.004  -0.474 -2.3931  1.5152 -2.7811
  338MOL0     H45581   8.691   3.894  -0.308  1.1275 -1.1393 -1.0099
  338MOL0     H45582   8.378   3.796  -0.479 -0.7343  1.3172 -2.1727
  338MOL0     H45583   8.443   3.839  -0.321 -1.0807 -1.2983  0.2620
  338MOL0     H45584   8.401   4.085  -0.420  0.4820 -0.0922 -2.8663
  338MOL0     H45585   8.281   4.000  -0.326  0.5798  0.7045 -0.6921
  338MOL0     H45586   8.192   3.903  -0.541  3.5069 -0.7391 -3.0712
  338MOL0     H45587   8.269   4.038  -0.619  1.8591  0.6547  0.5358
  338MOL0     H45588   8.109   4.185  -0.545  2.5417  2.2649  2.7389
  338MOL0     H45589   8.104   4.120  -0.375 -3.8894  1.9389 -0.1119
  338MOL0     H45590   7.949   4.294  -0.443 -1.7283  1.9886  1.1196
  338MOL0     H45591   7.869   4.505  -0.493  0.8584  1.9632 -2.0169
  338MOL0     H45592   7.732   4.537  -0.597 -1.5876 -0.6893  0.1576
  338MOL0     H45593   7.706   4.507  -0.426 -0.4203  2.7678 -1.6094
  338MOL0     H45594   7.296   4.144  -0.663  0.6328  0.1565  0.8471
  338MOL0     H45595   7.031   4.154  -0.719  0.3003  1.0175  1.1036
  338MOL0     H45596   6.822   4.178  -0.850 -0.2174 -1.2387  1.0658
  338MOL0     H45597   6.824   4.248  -0.693  3.0249  1.3420  0.3979
  338MOL0     H45598   6.620   4.227  -0.845  2.9554 -1.5133 -2.0103
  338MOL0     H45599   6.640   4.396  -0.787 -1.7723 -1.5839  0.6764
  338MOL0     H45600   6.738   4.288  -1.049 -1.2616 -1.5184  0.7763
  338MOL0     H45601   6.733   4.461  -1.003  2.0642 -1.1246 -2.2153
  338MOL0     H45602   6.471   4.424  -0.988 -1.2100 -0.4748 -1.3634
  338MOL0     H45603   6.552   4.437  -1.141  0.8940  2.3299  1.3794
  338MOL0     H45604   6.500   4.160  -1.021  1.9304 -0.3909 -0.8349
  338MOL0     H45605   6.547   4.204  -1.185  1.4443 -1.1941  0.6045
  338MOL0     H45606   6.289   4.145  -1.127 -1.1453  0.6138 -0.0425
  338MOL0     H45607   6.288   4.313  -1.087 -2.1028 -2.5154  1.0678
  338MOL0     H45608   6.380   4.177  -1.355  3.2130  2.4797 -2.0921
  338MOL0     H45609   6.401   4.347  -1.341 -1.2582  0.4173 -0.5839
  338MOL0     H45610   6.152   4.378  -1.289 -0.7669  0.0229 -1.6397
  338MOL0     H45611   6.138   4.208  -1.325  1.8011 -1.6207  0.5055
  338MOL0     H45612   7.102   4.543  -0.866  0.7495 -0.1751  0.4737
  338MOL0     H45613   7.338   4.525  -0.825  2.3995 -0.8144  4.5468
  338MOL0     H45614   7.540   4.078  -0.634  0.1621  1.5552  1.7955
  338MOL0     H45615   7.747   3.939  -0.576  2.4355  0.1166  0.5186
  338MOL0     H45616   9.673   3.199  -0.197  3.2104  0.5420 -0.8350
  338MOL0     H45617   9.834   3.105  -0.021 -0.3889 -0.3090 -0.9711
  338MOL0     H45618   9.944   3.122   0.429 -0.8307  1.0269  2.2381
  338MOL0     H45619  10.080   3.076   0.632 -0.7439 -1.1510 -0.5662
  338MOL0     H45620  10.491   3.169   0.778  0.2641  1.8219  1.5242
  338MOL0     H45621  10.468   3.261   0.634  1.0533 -2.3647 -0.7417
  338MOL0     H45622  10.438   3.365   0.889 -0.5697  0.4795  0.6943
  338MOL0     H45623  10.280   3.306   0.860 -0.8376 -0.2050 -1.8073
  338MOL0     H45624  10.247   3.441   0.672  0.9242 -2.3963 -1.2690
  338MOL0     H45625  10.423   3.494   0.671 -0.5588  3.3945  1.7768
  338MOL0     H45626  10.406   3.621   0.858 -0.3629 -0.8275  0.1537
  338MOL0     H45627  10.251   3.557   0.921 -0.0515  3.4495  0.8956
  338MOL0     H45628  10.114   3.855   0.657 -0.4920  2.5334  3.1825
  338MOL0     H45629  10.408   3.261   0.439 -0.4486  0.7806 -0.7064
  338MOL0     H45630  10.280   3.302   0.233  0.8251 -1.4911 -1.0527
  339MOL0     O45631  10.490   6.821   7.018  0.0216  0.2245  0.2266
  339MOL0     C45632  10.544   6.806   7.126 -0.9736 -0.2547 -0.2697
  339MOL0     O45633  10.500   6.867   7.248  0.3003  0.2440 -0.1675
  339MOL0     C45634  10.371   6.918   7.259 -0.5733 -0.3013  1.1073
  339MOL0     C45635  10.372   7.031   7.335 -0.4893  0.4243 -0.0243
  339MOL0     C45636  10.262   7.102   7.346  0.3803 -0.0235  0.7910
  339MOL0     C45637  10.144   7.060   7.281 -0.2658 -0.4959 -0.4062
  339MOL0     O45638  10.023   7.121   7.293  0.1197  0.0980  0.0826
  339MOL0     C45639  10.020   7.256   7.246 -0.1666  1.1115 -0.4703
  339MOL0     C45640   9.880   7.297   7.199  0.0604 -0.8406 -0.4606
  339MOL0     C45641   9.812   7.358   7.318  0.5133 -0.4466 -0.3763
  339MOL0     C45642   9.657   7.336   7.310 -0.1050  0.3190 -0.4651
  339MOL0     C45643   9.579   7.395   7.431  0.3002  0.4316 -0.4647
  339MOL0     C45644   9.431   7.419   7.408  0.0745 -0.1612 -0.9651
  339MOL0     C45645   9.353   7.287   7.421 -0.7568  0.6159 -1.3418
  339MOL0     C45646   9.205   7.291   7.357  0.7500  0.7155 -0.2410
  339MOL0     N45647   9.102   7.379   7.420  0.2694 -0.0449  0.1570
  339MOL0     C45648   8.961   7.365   7.404  1.0479 -0.5409  0.2502
  339MOL0     C45649   8.909   7.458   7.490 -0.8713  0.5647 -0.1932
  339MOL0     C45650   8.760   7.479   7.522  0.2894 -0.7249 -0.3374
  339MOL0     C45651   8.721   7.476   7.673 -0.1994  0.0072  0.2037
  339MOL0     C45652   8.562   7.497   7.694  0.7435 -0.1355 -0.1733
  339MOL0     C45653   8.506   7.445   7.825 -0.1135 -0.2303  0.3427
  339MOL0     O45654   8.458   7.543   7.912  0.1994 -0.6766  0.4663
  339MOL0     C45655   8.346   7.611   7.877 -0.6052  0.9172 -0.3557
  339MOL0     C45656   8.262   7.577   7.772  0.9020  0.0963  0.5962
  339MOL0     C45657   8.132   7.636   7.754  0.3686 -0.2230  0.4626
  339MOL0     C45658   8.040   7.564   7.652 -0.0694  0.7341  0.3746
  339MOL0     C45659   8.096   7.738   7.848  0.1177  1.0703  1.0923
  339MOL0     C45660   7.967   7.817   7.845 -0.8669  0.1240  0.4740
  339MOL0     O45661   7.945   7.896   7.956 -0.0428 -0.4677  1.0454
  339MOL0     C45662   7.823   7.960   7.959  0.1077 -0.8353  0.1116
  339MOL0     C45663   7.729   7.918   8.047  0.0182  0.3835 -0.6580
  339MOL0     C45664   7.614   7.999   8.080 -0.6358  0.3273  0.3284
  339MOL0     C45665   7.596   8.118   8.006 -0.5360 -0.5122 -0.1571
  339MOL0     O45666   7.493   8.205   8.051  0.1638 -0.6254  0.2110
  339MOL0     C45667   7.447   8.317   7.975 -0.3542  0.1728  0.5690
  339MOL0     C45668   7.320   8.368   8.034 -0.2641  0.2163 -0.0483
  339MOL0     C45669   7.216   8.258   8.040  0.3450 -0.1686  0.4114
  339MOL0     C45670   7.083   8.322   8.094 -0.7318 -0.3058  0.5267
  339MOL0     C45671   6.972   8.234   8.074  0.0535 -0.1087 -0.6859
  339MOL0     C45672   6.851   8.293   8.143  0.0857  0.4470  0.6888
  339MOL0     C45673   6.729   8.234   8.064  0.2335 -0.0530 -0.3399
  339MOL0     C45674   6.608   8.327   8.074 -0.3576  0.7357  0.1718
  339MOL0    Cl45675   6.561   8.362   8.246  0.2531  0.2835 -0.1711
  339MOL0     C45676   7.685   8.164   7.912 -0.1261  0.7304 -0.1424
  339MOL0     C45677   7.800   8.081   7.891  0.0983 -0.0709  0.0410
  339MOL0     O45678   7.897   7.818   7.743 -0.0733  0.6635 -0.2840
  339MOL0     C45679   8.189   7.766   7.949  0.8148  0.6137  0.1428
  339MOL0     C45680   8.310   7.705   7.963  0.1948 -0.7340  0.1202
  339MOL0     N45681   9.017   7.535   7.542 -0.0638  0.3905  0.3022
  339MOL0     N45682   9.133   7.485   7.502  0.7450 -0.6672 -0.2327
  339MOL0     C45683  10.138   6.942   7.205 -0.1521 -0.4583  0.6751
  339MOL0     C45684  10.256   6.874   7.189 -0.2837  0.4553  1.0476
  339MOL0     C45685  10.662   6.726   7.131 -0.1002 -0.2341  0.2542
  339MOL0     C45686  10.736   6.713   7.014  0.3570  0.4147  1.0972
  339MOL0     C45687  10.845   6.624   7.023 -0.8242  0.2330  0.9015
  339MOL0     C45688  10.899   6.572   7.140 -0.0982  0.4169  0.7540
  339MOL0     O45689  11.017   6.500   7.158 -0.0738  0.6817 -0.0593
  339MOL0     C45690  11.092   6.445   7.050  0.1703  0.2850  0.3160
  339MOL0     C45691  11.230   6.395   7.094  0.8002 -0.3464 -0.6369
  339MOL0     C45692  11.291   6.296   6.995  0.1164  0.7505  0.1503
  339MOL0     C45693  11.413   6.244   7.065  0.1050 -0.3413  0.1532
  339MOL0     C45694  11.481   6.158   6.974  0.2457 -0.0871  0.7613
  339MOL0     C45695  11.538   6.096   6.883 -0.1263  0.5950 -0.3028
  339MOL0     C45696  10.817   6.590   7.246  1.1076  0.9995  0.1809
  339MOL0     C45697  10.707   6.669   7.246 -0.2699 -0.0342 -0.9707
  339MOL0     H45698  10.462   7.076   7.376  1.0076 -0.2374 -2.3428
  339MOL0     H45699  10.256   7.193   7.406 -1.9334 -0.4699  1.3412
  339MOL0     H45700  10.065   7.325   7.318  0.6342  1.3277 -1.1554
  339MOL0     H45701  10.087   7.267   7.160  1.0018  0.0471  0.2774
  339MOL0     H45702   9.890   7.373   7.121 -0.6654 -1.5290 -1.2392
  339MOL0     H45703   9.830   7.209   7.158 -0.4058 -0.5191 -0.5750
  339MOL0     H45704   9.832   7.322   7.419 -0.1139  0.3319  0.0434
  339MOL0     H45705   9.837   7.465   7.318 -2.7956  0.6972  4.5721
  339MOL0     H45706   9.624   7.387   7.219  4.0020  0.4977 -2.0797
  339MOL0     H45707   9.643   7.228   7.303 -1.1651  0.3864  0.3868
  339MOL0     H45708   9.595   7.321   7.509  2.2182 -1.1590 -2.2385
  339MOL0     H45709   9.626   7.490   7.457  0.0220  1.1588 -2.4014
  339MOL0     H45710   9.411   7.491   7.488 -0.0766 -0.9053 -0.3189
  339MOL0     H45711   9.414   7.468   7.312 -1.4035  1.3376 -0.0044
  339MOL0     H45712   9.408   7.209   7.369 -0.5254 -0.0506 -0.1093
  339MOL0     H45713   9.356   7.250   7.524 -4.1276  0.6712 -1.0963
  339MOL0     H45714   9.155   7.194   7.357  2.5037 -0.2868 -3.1585
  339MOL0     H45715   9.210   7.308   7.249 -0.9123 -0.3244 -0.5245
  339MOL0     H45716   8.899   7.296   7.348  0.7058 -1.9827  2.2996
  339MOL0     H45717   8.722   7.575   7.487  1.4290  0.6118  1.8362
  339MOL0     H45718   8.702   7.397   7.478 -0.5612 -0.6517  0.6162
  339MOL0     H45719   8.783   7.545   7.731  0.8519  0.7431 -1.7446
  339MOL0     H45720   8.737   7.373   7.708 -1.9504 -0.9528 -1.6141
  339MOL0     H45721   8.511   7.443   7.614  0.1042  0.8376 -0.4332
  339MOL0     H45722   8.541   7.603   7.682 -0.8334 -0.2669  1.1013
  339MOL0     H45723   8.594   7.398   7.869  0.1953  1.0331  1.1206
  339MOL0     H45724   8.433   7.366   7.807  0.1158 -0.1621 -1.0815
  339MOL0     H45725   8.305   7.499   7.711  0.0325 -0.8670  1.1822
  339MOL0     H45726   7.971   7.499   7.707 -0.0452  0.0839 -0.3489
  339MOL0     H45727   7.991   7.634   7.584 -2.3407 -1.9253 -0.8836
  339MOL0     H45728   8.107   7.502   7.591  1.1541  1.3895  0.9933
  339MOL0     H45729   7.725   7.821   8.095 -0.3938 -0.0499 -1.5461
  339MOL0     H45730   7.543   7.965   8.156 -0.4707 -0.6972  0.0457
  339MOL0     H45731   7.524   8.394   7.962  0.1310 -0.6724 -2.0187
  339MOL0     H45732   7.421   8.289   7.873 -0.7988  1.1197  0.4059
  339MOL0     H45733   7.344   8.408   8.133  0.4688  1.6190 -0.7624
  339MOL0     H45734   7.282   8.452   7.975 -0.3377 -0.9070 -1.6590
  339MOL0     H45735   7.252   8.178   8.106  2.8457  1.5167  1.2473
  339MOL0     H45736   7.201   8.206   7.945  1.5320 -2.2758  1.2952
  339MOL0     H45737   7.091   8.346   8.201 -2.7832 -0.8352  0.8396
  339MOL0     H45738   7.056   8.411   8.036 -2.7069 -0.7884  0.6295
  339MOL0     H45739   6.986   8.133   8.115 -1.5143 -0.4515 -0.9128
  339MOL0     H45740   6.962   8.224   7.965 -2.5871  2.4663 -0.8215
  339MOL0     H45741   6.840   8.259   8.246 -0.8466 -0.1875  0.4008
  339MOL0     H45742   6.845   8.402   8.136  1.4658  0.4947 -0.0477
  339MOL0     H45743   6.710   8.133   8.102  1.5509 -0.2688 -0.2141
  339MOL0     H45744   6.750   8.231   7.957  2.1244 -1.3639  0.0161
  339MOL0     H45745   6.515   8.294   8.028 -1.5513  2.4142  1.2251
  339MOL0     H45746   6.638   8.423   8.030  0.4816 -0.1323 -1.2211
  339MOL0     H45747   7.667   8.257   7.858 -1.1062 -0.1590 -1.3987
  339MOL0     H45748   7.885   8.106   7.829 -0.3587 -3.1714 -2.0204
  339MOL0     H45749   8.179   7.853   8.013 -0.7629  0.7249 -0.2171
  339MOL0     H45750   8.360   7.731   8.056 -1.4891  1.1615  0.5651
  339MOL0     H45751  10.042   6.910   7.166 -0.5019 -0.1207  1.2363
  339MOL0     H45752  10.265   6.786   7.127 -0.2755  0.8805  0.4412
  339MOL0     H45753  10.699   6.752   6.920 -0.9535 -1.5086  0.7535
  339MOL0     H45754  10.885   6.586   6.929 -0.5327  1.9748  0.2742
  339MOL0     H45755  11.047   6.358   7.002 -0.7070  0.9873 -0.1896
  339MOL0     H45756  11.114   6.526   6.979  1.0924 -0.6522 -0.4902
  339MOL0     H45757  11.212   6.354   7.194  2.8363  0.2813  0.0366
  339MOL0     H45758  11.298   6.480   7.107  1.9526 -1.2881 -0.3017
  339MOL0     H45759  11.313   6.349   6.902  1.4206  0.8916  0.5236
  339MOL0     H45760  11.227   6.209   6.979  1.9520 -0.2092 -2.8105
  339MOL0     H45761  11.400   6.186   7.157 -0.1905 -0.2956  0.1394
  339MOL0     H45762  11.478   6.330   7.083 -2.6981  1.4971  2.4196
  339MOL0     H45763  11.586   6.046   6.801 -2.2577  0.2843 -1.4205
  339MOL0     H45764  10.841   6.540   7.339  0.6109 -2.8268 -1.5498
  339MOL0     H45765  10.655   6.675   7.341  1.5744 -0.1197  0.0959
  340MOL0     O45766   2.285   2.023   3.174  0.1388 -0.3436 -0.3426
  340MOL0     C45767   2.325   1.925   3.114  0.6574  0.7082 -0.3585
  340MOL0     O45768   2.235   1.839   3.051  1.2527 -0.4805  0.8970
  340MOL0     C45769   2.095   1.837   3.081  0.7124  0.2337  0.8298
  340MOL0     C45770   2.023   1.957   3.075  0.3781 -0.2967  0.6801
  340MOL0     C45771   1.885   1.966   3.080 -0.2718  0.3641  0.1812
  340MOL0     C45772   1.807   1.850   3.088 -0.2386  0.3751 -0.4295
  340MOL0     O45773   1.666   1.837   3.101 -0.4857 -0.0074 -0.4908
  340MOL0     C45774   1.597   1.960   3.071  0.2785 -0.2577  0.2685
  340MOL0     C45775   1.456   1.931   3.036 -0.2612  0.2403 -0.0629
  340MOL0     C45776   1.375   2.056   3.006  0.1590 -0.3422 -0.1549
  340MOL0     C45777   1.242   2.034   2.953 -0.1716 -0.1914  0.8160
  340MOL0     C45778   1.148   2.000   3.074  0.4506 -0.1086 -0.0576
  340MOL0     C45779   1.107   2.136   3.146  0.1385  0.9726  0.2768
  340MOL0     C45780   0.977   2.099   3.223 -0.7306  0.7720 -0.6925
  340MOL0     C45781   0.991   1.989   3.328  0.5089  0.0765 -0.2979
  340MOL0     N45782   0.886   2.017   3.438 -0.5248  0.7887 -0.1942
  340MOL0     C45783   0.907   2.113   3.531  0.3643  0.3354 -0.0061
  340MOL0     C45784   0.791   2.127   3.600 -0.2070  0.6265  1.0270
  340MOL0     C45785   0.785   2.218   3.720  0.9261 -0.3164  0.1814
  340MOL0     C45786   0.827   2.154   3.850  0.5631  0.3543  0.8826
  340MOL0     C45787   0.831   2.244   3.971 -0.4682 -0.2720  0.3315
  340MOL0     C45788   0.695   2.295   4.025  0.4638  0.7763 -1.0176
  340MOL0     O45789   0.621   2.187   4.084 -0.4775 -0.4660  0.9398
  340MOL0     C45790   0.530   2.222   4.173 -0.0519 -0.3012  0.0960
  340MOL0     C45791   0.520   2.157   4.299 -0.1917  0.5257 -0.3859
  340MOL0     C45792   0.421   2.185   4.394  0.1996  0.6088 -0.2161
  340MOL0     C45793   0.406   2.088   4.502  0.1973  0.9646  0.5522
  340MOL0     C45794   0.337   2.298   4.376 -0.3868 -0.3473  1.2212
  340MOL0     C45795   0.221   2.326   4.458  0.4299 -1.1170 -0.2313
  340MOL0     O45796   0.114   2.382   4.394 -0.6535 -0.6699  0.0032
  340MOL0     C45797  -0.008   2.398   4.456 -0.6009  0.2595 -0.3310
  340MOL0     C45798  -0.073   2.504   4.409  0.8971  0.5803  0.4296
  340MOL0     C45799  -0.203   2.541   4.447 -0.1495 -0.6521  0.0725
  340MOL0     C45800  -0.271   2.445   4.516  0.2842 -0.0096  0.2343
  340MOL0     O45801  -0.406   2.450   4.530 -0.4703  0.0802  0.4178
  340MOL0     C45802  -0.476   2.491   4.417 -0.0226 -0.1808  0.6766
  340MOL0     C45803  -0.610   2.414   4.418  1.4771 -0.5339 -0.5065
  340MOL0     C45804  -0.685   2.410   4.282 -1.0328 -0.0814  0.0250
  340MOL0     C45805  -0.721   2.555   4.237  0.0705  0.5902  0.5410
  340MOL0     C45806  -0.842   2.571   4.149  0.0903 -1.2242  0.1706
  340MOL0     C45807  -0.861   2.485   4.018  0.7397 -0.0431 -0.4645
  340MOL0     C45808  -0.972   2.535   3.924 -0.0129  0.3214  0.6341
  340MOL0     C45809  -0.994   2.449   3.795 -0.8553  0.7569  0.0665
  340MOL0    Cl45810  -1.131   2.521   3.702  0.6915  0.0966 -0.1897
  340MOL0     C45811  -0.204   2.338   4.579 -0.2860  0.1339 -0.1644
  340MOL0     C45812  -0.070   2.314   4.551  0.1454  0.1770  0.1511
  340MOL0     O45813   0.229   2.313   4.580  0.3636 -0.0381 -0.3406
  340MOL0     C45814   0.340   2.371   4.258  0.4949 -0.1504  0.7318
  340MOL0     C45815   0.438   2.333   4.148 -0.0618  0.5286 -0.3365
  340MOL0     N45816   0.696   2.048   3.544  0.5427 -0.3852 -0.5347
  340MOL0     N45817   0.757   1.979   3.453  0.3377  0.2113  0.9297
  340MOL0     C45818   1.878   1.732   3.095  0.9977 -0.1385 -0.6154
  340MOL0     C45819   2.017   1.723   3.096 -0.0389  1.9599 -0.2098
  340MOL0     C45820   2.472   1.917   3.102  0.0045 -0.1557 -0.3480
  340MOL0     C45821   2.530   1.810   3.030  0.3431 -0.3745  0.9336
  340MOL0     C45822   2.673   1.798   3.027 -0.3747 -0.7435  0.5951
  340MOL0     C45823   2.751   1.898   3.092 -0.7193 -0.2706 -0.6224
  340MOL0     O45824   2.888   1.901   3.076  0.5930 -0.1606 -0.6396
  340MOL0     C45825   2.966   2.018   3.102 -0.5524 -0.0700  0.0652
  340MOL0     C45826   3.098   2.017   3.017  0.1516 -0.0521  0.3531
  340MOL0     C45827   3.082   2.045   2.872  0.1340 -0.3739  0.6523
  340MOL0     C45828   3.225   2.060   2.797 -0.1308 -0.1369 -0.8918
  340MOL0     C45829   3.216   2.041   2.650 -0.7336  1.0234 -0.4990
  340MOL0     C45830   3.213   2.004   2.538 -0.3635  1.1790  0.8094
  340MOL0     C45831   2.690   1.994   3.171  0.3654  0.2280  0.4290
  340MOL0     C45832   2.554   2.012   3.169 -0.3060  0.1075  0.1547
  340MOL0     H45833   2.067   2.056   3.071 -2.9570  1.2663 -1.1535
  340MOL0     H45834   1.829   2.058   3.072 -3.5912 -1.5698 -0.8694
  340MOL0     H45835   1.592   2.025   3.159  0.9968  0.1841 -0.0039
  340MOL0     H45836   1.646   2.012   2.987 -1.3224  0.0814 -0.4864
  340MOL0     H45837   1.443   1.863   2.951 -1.8420 -1.3678  1.3873
  340MOL0     H45838   1.400   1.882   3.116 -3.1047 -0.2858 -2.1870
  340MOL0     H45839   1.381   2.128   3.088  1.0204 -0.0376 -0.4705
  340MOL0     H45840   1.426   2.105   2.922  0.4886  3.9224  2.2226
  340MOL0     H45841   1.202   2.120   2.897  1.9449  0.7957  0.7220
  340MOL0     H45842   1.237   1.954   2.878  0.1918  0.1389  0.4353
  340MOL0     H45843   1.066   1.934   3.043  0.2753 -1.1112  2.2918
  340MOL0     H45844   1.210   1.950   3.149  3.6367  1.3171 -1.5195
  340MOL0     H45845   1.190   2.173   3.206  0.8969 -0.4066  0.1145
  340MOL0     H45846   1.091   2.218   3.075 -0.1448  1.1275  0.5201
  340MOL0     H45847   0.948   2.189   3.277 -2.9985 -1.0616  1.3953
  340MOL0     H45848   0.892   2.070   3.161 -0.0728 -3.4087  0.0533
  340MOL0     H45849   1.086   1.993   3.381 -0.4951 -0.7755  1.6799
  340MOL0     H45850   0.984   1.892   3.279  2.4800  0.3510 -1.2166
  340MOL0     H45851   0.996   2.168   3.559  0.0720 -0.7684  3.5010
  340MOL0     H45852   0.842   2.309   3.701  1.5774 -1.0007 -1.3277
  340MOL0     H45853   0.680   2.246   3.735  1.0575  2.2053 -2.7011
  340MOL0     H45854   0.931   2.120   3.843 -0.0147 -1.2481 -0.7844
  340MOL0     H45855   0.765   2.064   3.856 -1.0099  1.2541 -0.6839
  340MOL0     H45856   0.885   2.331   3.931  1.2130 -1.5223 -0.1880
  340MOL0     H45857   0.884   2.195   4.053  0.3759 -1.8015 -1.0671
  340MOL0     H45858   0.635   2.328   3.940  0.3086 -0.1245 -1.2697
  340MOL0     H45859   0.710   2.368   4.105  2.0307 -0.6700  0.0880
  340MOL0     H45860   0.593   2.078   4.308 -2.5337 -1.5754  1.8052
  340MOL0     H45861   0.460   2.116   4.593  1.7165 -0.0995  0.0186
  340MOL0     H45862   0.301   2.067   4.523  0.2772  1.5884  1.6624
  340MOL0     H45863   0.443   1.988   4.478 -1.4254  0.6277 -0.6940
  340MOL0     H45864  -0.023   2.567   4.335 -1.2321  0.1588 -1.4862
  340MOL0     H45865  -0.253   2.632   4.416  0.8805 -0.4049 -0.9453
  340MOL0     H45866  -0.495   2.599   4.421  1.4959  0.1146  0.2967
  340MOL0     H45867  -0.418   2.481   4.324 -0.8531  1.0061 -0.0022
  340MOL0     H45868  -0.593   2.309   4.444 -0.8238 -1.3456 -1.9346
  340MOL0     H45869  -0.679   2.455   4.492  0.8956  1.3632 -2.0292
  340MOL0     H45870  -0.773   2.346   4.292  1.3172 -3.5145  0.4868
  340MOL0     H45871  -0.618   2.363   4.209  2.3259  2.7323  0.9749
  340MOL0     H45872  -0.742   2.608   4.331  0.4863 -0.2461  1.1196
  340MOL0     H45873  -0.634   2.606   4.195  0.1844 -0.3978 -0.4706
  340MOL0     H45874  -0.827   2.678   4.128  1.5842 -1.2230  1.0859
  340MOL0     H45875  -0.935   2.561   4.205 -1.4953 -3.6865 -2.6602
  340MOL0     H45876  -0.769   2.482   3.959 -0.2230  2.1244 -2.2198
  340MOL0     H45877  -0.889   2.389   4.063  1.7040  0.8473  2.2249
  340MOL0     H45878  -0.952   2.637   3.890 -0.3323  0.9432  2.2535
  340MOL0     H45879  -1.064   2.532   3.983 -1.1049 -0.9821 -1.0534
  340MOL0     H45880  -1.009   2.348   3.834  3.1490  0.7382  2.1054
  340MOL0     H45881  -0.907   2.450   3.730 -1.3391 -1.3597 -0.6835
  340MOL0     H45882  -0.260   2.273   4.647 -1.4354 -0.2726 -1.4647
  340MOL0     H45883  -0.020   2.224   4.584  1.3305  1.7271  3.0018
  340MOL0     H45884   0.264   2.443   4.231 -0.7687 -1.1750  1.4591
  340MOL0     H45885   0.436   2.388   4.054 -2.0203  1.4936  0.2262
  340MOL0     H45886   1.816   1.647   3.121 -0.9189  1.1809 -0.6832
  340MOL0     H45887   2.059   1.624   3.102 -1.0242  1.5808  0.7392
  340MOL0     H45888   2.464   1.736   2.986  0.0465  1.6453 -2.4428
  340MOL0     H45889   2.723   1.714   2.980  0.3638 -0.1882  0.3652
  340MOL0     H45890   2.908   2.109   3.085  0.6462  0.4332 -1.5762
  340MOL0     H45891   2.996   1.998   3.205 -2.5099 -2.9553  0.1839
  340MOL0     H45892   3.162   1.931   3.037  0.4275 -0.0738 -0.5973
  340MOL0     H45893   3.152   2.103   3.060  0.7368  0.1031 -0.6659
  340MOL0     H45894   3.041   2.147   2.870  3.0382  0.8901  0.0393
  340MOL0     H45895   3.024   1.968   2.820  1.4364 -0.1302 -1.2851
  340MOL0     H45896   3.290   1.981   2.835 -1.9751 -0.8407  0.9922
  340MOL0     H45897   3.274   2.156   2.817 -0.1478 -0.4696  0.9896
  340MOL0     H45898   3.215   1.962   2.439 -2.3622  1.3640  0.6615
  340MOL0     H45899   2.747   2.071   3.222  0.6420  2.1422 -2.5562
  340MOL0     H45900   2.509   2.090   3.230  0.4115  0.3706  0.3588
  341MOL0     O45901   5.263   6.541   3.293  0.0423 -0.1417  0.3576
  341MOL0     C45902   5.298   6.624   3.212  0.3387  0.4957  0.7307
  341MOL0     O45903   5.210   6.693   3.126 -0.1566  0.8462 -1.0040
  341MOL0     C45904   5.082   6.649   3.122 -0.1158 -0.4319  0.3088
  341MOL0     C45905   4.995   6.656   3.232 -0.0196 -0.4152 -0.3088
  341MOL0     C45906   4.858   6.623   3.221  0.5196  0.4235  0.0343
  341MOL0     C45907   4.806   6.589   3.094 -0.1239 -0.0920 -0.1508
  341MOL0     O45908   4.671   6.550   3.091  0.0188  0.5105 -0.1007
  341MOL0     C45909   4.639   6.451   2.991 -0.2226  0.1091 -0.2088
  341MOL0     C45910   4.492   6.413   3.002  0.2554 -0.0603 -0.4244
  341MOL0     C45911   4.405   6.534   2.992  0.1862 -0.2688  0.6027
  341MOL0     C45912   4.266   6.489   2.943  0.6659  1.3146 -0.3281
  341MOL0     C45913   4.155   6.590   2.971 -0.3381 -0.4258 -0.4283
  341MOL0     C45914   4.039   6.556   2.884 -0.4135  0.3641  0.0529
  341MOL0     C45915   3.915   6.643   2.904 -0.2454 -0.0968 -0.0393
  341MOL0     C45916   3.801   6.585   2.818 -0.1947  0.3601  0.6576
  341MOL0     N45917   3.676   6.661   2.805  0.1920 -0.3260 -0.2962
  341MOL0     C45918   3.641   6.747   2.704 -0.4760  0.4652 -0.1079
  341MOL0     C45919   3.534   6.814   2.755 -0.2773 -0.7748  0.4990
  341MOL0     C45920   3.465   6.921   2.677 -0.2549 -0.1434  0.0941
  341MOL0     C45921   3.391   7.012   2.778 -0.1671 -0.8837 -0.2193
  341MOL0     C45922   3.307   7.112   2.695 -0.3341 -0.3050 -0.5105
  341MOL0     C45923   3.198   7.056   2.606  0.0479 -0.0152 -0.3214
  341MOL0     O45924   3.084   7.032   2.689 -0.3625 -0.3356  0.0733
  341MOL0     C45925   2.966   7.014   2.621 -0.3773 -0.5271 -0.0875
  341MOL0     C45926   2.919   7.119   2.542 -0.4287 -0.8464  0.9868
  341MOL0     C45927   2.794   7.124   2.477  0.4970  0.3046 -0.0003
  341MOL0     C45928   2.766   7.250   2.391 -0.2474 -0.3147 -0.3814
  341MOL0     C45929   2.716   7.009   2.482 -0.4406 -0.6886 -0.3437
  341MOL0     C45930   2.586   6.989   2.408  0.5763 -0.0328  0.3890
  341MOL0     O45931   2.525   7.106   2.376 -0.2391  0.6083  0.3366
  341MOL0     C45932   2.400   7.103   2.318 -0.0191 -0.4319  0.1600
  341MOL0     C45933   2.288   7.065   2.394 -0.0016 -0.0776 -0.2276
  341MOL0     C45934   2.161   7.064   2.343  0.1116  0.1611 -0.0979
  341MOL0     C45935   2.138   7.106   2.213  0.3331 -0.5204 -0.0235
  341MOL0     O45936   2.004   7.101   2.174  0.5474 -0.0570 -0.4996
  341MOL0     C45937   1.963   7.167   2.052 -0.2400  0.2933  0.4813
  341MOL0     C45938   1.813   7.182   2.040 -0.7952  0.5338  0.0414
  341MOL0     C45939   1.746   7.050   1.997  0.3284  1.0879 -0.2091
  341MOL0     C45940   1.600   7.037   2.009 -0.1981  0.4391 -0.0831
  341MOL0     C45941   1.554   6.895   1.971  0.6828  0.5423 -0.6092
  341MOL0     C45942   1.401   6.875   1.975 -0.1608 -0.6499 -0.1273
  341MOL0     C45943   1.345   6.734   1.932 -0.8266 -0.2324  0.6207
  341MOL0     C45944   1.197   6.744   1.928  0.7725  0.1829  0.2585
  341MOL0    Cl45945   1.115   6.781   2.090  0.5417 -0.2737 -0.0177
  341MOL0     C45946   2.245   7.142   2.127  0.7222  0.6976 -0.1405
  341MOL0     C45947   2.379   7.143   2.182  0.4354  0.3085  0.5571
  341MOL0     O45948   2.537   6.880   2.395  0.1390  0.6344  0.3212
  341MOL0     C45949   2.766   6.900   2.553 -0.5061  0.0945  0.0950
  341MOL0     C45950   2.886   6.903   2.623 -0.2381  0.1620  0.2719
  341MOL0     N45951   3.499   6.762   2.880  0.2465 -0.3191  0.0526
  341MOL0     N45952   3.586   6.668   2.908  0.0024 -0.4936 -0.5107
  341MOL0     C45953   4.890   6.589   2.985 -0.3149  0.1358 -0.2904
  341MOL0     C45954   5.025   6.622   2.995 -0.0471  0.2049  0.7781
  341MOL0     C45955   5.446   6.647   3.204 -0.7723  0.3951 -0.6856
  341MOL0     C45956   5.483   6.753   3.115 -0.8010  0.5198 -0.2870
  341MOL0     C45957   5.620   6.792   3.106  0.2571  0.2831  0.4730
  341MOL0     C45958   5.724   6.725   3.179  0.0721 -0.2039  0.4888
  341MOL0     O45959   5.856   6.767   3.184  0.2820  0.2206  0.1215
  341MOL0     C45960   5.891   6.865   3.089 -0.1730  0.3112  0.2810
  341MOL0     C45961   6.043   6.882   3.098  0.0331  1.2478 -0.7210
  341MOL0     C45962   6.097   6.978   2.990 -1.4949  0.8332  0.5042
  341MOL0     C45963   6.247   6.994   2.994 -0.1671 -0.7607  0.1343
  341MOL0     C45964   6.288   7.096   2.894  0.4547 -0.2180 -0.6478
  341MOL0     C45965   6.302   7.181   2.815  0.4862  0.0107 -0.3151
  341MOL0     C45966   5.679   6.620   3.261 -0.1121  0.5186 -0.1404
  341MOL0     C45967   5.547   6.579   3.282 -0.2177 -0.3828 -0.0804
  341MOL0     H45968   5.037   6.693   3.325 -1.6441  0.4212  0.1326
  341MOL0     H45969   4.788   6.632   3.303  1.2588 -0.6311  0.7942
  341MOL0     H45970   4.643   6.488   2.888  0.3409 -0.8090 -0.5305
  341MOL0     H45971   4.706   6.364   2.995  1.3084  1.2805  0.4821
  341MOL0     H45972   4.471   6.325   2.940  0.4160  1.7930 -3.3072
  341MOL0     H45973   4.461   6.379   3.101 -0.7712 -0.2940 -0.8111
  341MOL0     H45974   4.403   6.573   3.095 -0.1169 -2.2458  1.3824
  341MOL0     H45975   4.444   6.615   2.930  2.3730 -0.0373  2.1439
  341MOL0     H45976   4.287   6.467   2.838  0.2793 -1.8866  0.1494
  341MOL0     H45977   4.237   6.395   2.990 -0.3461  1.6681 -0.2362
  341MOL0     H45978   4.122   6.578   3.074  0.3541  0.7106 -0.0680
  341MOL0     H45979   4.179   6.695   2.957 -1.5808  0.0097  0.5564
  341MOL0     H45980   4.075   6.572   2.782  1.4291  2.3685  0.9425
  341MOL0     H45981   4.009   6.454   2.909  3.1577 -0.3639  2.0122
  341MOL0     H45982   3.880   6.651   3.007 -4.4218 -0.6033 -1.2495
  341MOL0     H45983   3.936   6.749   2.886 -0.0835 -0.0431  0.4397
  341MOL0     H45984   3.778   6.487   2.862  1.0886  0.1770  0.9589
  341MOL0     H45985   3.844   6.566   2.720  0.3794  0.7732  0.8305
  341MOL0     H45986   3.679   6.763   2.604 -2.6290  2.9252 -0.6214
  341MOL0     H45987   3.534   6.984   2.619 -0.6160  1.9808  1.8632
  341MOL0     H45988   3.410   6.865   2.601  2.2702 -0.8706 -1.3272
  341MOL0     H45989   3.468   7.067   2.832  0.9043 -1.4574 -1.1013
  341MOL0     H45990   3.322   6.959   2.844  0.3247  0.6193  1.5572
  341MOL0     H45991   3.375   7.177   2.638 -0.3960  3.5015  3.2528
  341MOL0     H45992   3.258   7.184   2.761 -2.7757  0.1500 -2.6362
  341MOL0     H45993   3.207   6.963   2.550  0.1147 -1.5894  2.1383
  341MOL0     H45994   3.179   7.140   2.540 -2.3872  0.7364  1.1994
  341MOL0     H45995   2.972   7.214   2.545  1.4990 -1.8327  0.3642
  341MOL0     H45996   2.849   7.321   2.395 -0.9144  0.5684 -1.6855
  341MOL0     H45997   2.756   7.226   2.285  1.4222  2.9446 -1.3860
  341MOL0     H45998   2.678   7.304   2.427 -1.4439 -1.9606 -0.6931
  341MOL0     H45999   2.305   7.025   2.493  2.3750  2.2664  0.4141
  341MOL0     H46000   2.082   7.028   2.409 -0.4872  1.5586 -0.0017
  341MOL0     H46001   2.003   7.268   2.054  0.8258 -0.0680 -0.7930
  341MOL0     H46002   2.014   7.112   1.972 -0.2471  0.2515  0.5055
  341MOL0     H46003   1.783   7.200   2.144 -0.8110 -3.0319  0.7873
  341MOL0     H46004   1.796   7.269   1.975  2.8979  1.9639  0.7369
  341MOL0     H46005   1.783   6.975   2.068 -2.8628  0.5793  1.0882
  341MOL0     H46006   1.768   7.008   1.899 -0.1140 -2.4860  1.0682
  341MOL0     H46007   1.576   7.074   2.109  1.1992  0.4926  0.2552
  341MOL0     H46008   1.547   7.107   1.944 -2.7898 -1.3654 -0.0349
  341MOL0     H46009   1.596   6.820   2.038  2.1676  1.5793 -0.3184
  341MOL0     H46010   1.586   6.862   1.872 -3.3562 -0.8314 -1.6616
  341MOL0     H46011   1.369   6.885   2.079 -1.1258 -0.2736 -0.4514
  341MOL0     H46012   1.347   6.947   1.913 -2.6906 -0.6709  1.8550
  341MOL0     H46013   1.369   6.649   1.997  3.4895 -1.4088 -2.1077
  341MOL0     H46014   1.384   6.715   1.832 -0.2852  0.9373  0.5982
  341MOL0     H46015   1.157   6.652   1.885 -1.0363  1.2092 -0.3444
  341MOL0     H46016   1.170   6.823   1.857  1.9356 -1.2569 -1.9039
  341MOL0     H46017   2.229   7.168   2.023 -3.0461 -3.4854 -0.8892
  341MOL0     H46018   2.460   7.176   2.118 -1.1557  1.4831 -0.9419
  341MOL0     H46019   2.704   6.815   2.578  0.7601 -0.8224  0.1833
  341MOL0     H46020   2.908   6.822   2.692 -0.4752  0.7127  1.0041
  341MOL0     H46021   4.851   6.561   2.887  0.6702 -2.7217  0.0413
  341MOL0     H46022   5.091   6.622   2.908  2.1398 -1.3676  2.3262
  341MOL0     H46023   5.415   6.800   3.046  2.0810  0.7188 -3.1908
  341MOL0     H46024   5.644   6.878   3.044 -1.9814  0.6180 -0.0096
  341MOL0     H46025   5.872   6.822   2.990 -1.2389  0.0488  0.5854
  341MOL0     H46026   5.851   6.966   3.095  1.1272  0.8210  0.8479
  341MOL0     H46027   6.094   6.786   3.104 -0.4085  1.1100  1.5358
  341MOL0     H46028   6.060   6.925   3.197  0.5409  3.0866 -1.5708
  341MOL0     H46029   6.047   7.073   3.013 -1.1651  0.7664  1.5419
  341MOL0     H46030   6.076   6.955   2.885  1.1507  2.1893 -0.4133
  341MOL0     H46031   6.298   6.899   2.973 -0.1143 -1.1552  1.9333
  341MOL0     H46032   6.276   7.027   3.094 -2.3924  1.4416  0.1429
  341MOL0     H46033   6.308   7.249   2.732  1.3175 -1.5870 -1.6214
  341MOL0     H46034   5.756   6.576   3.323  0.0445  0.3025 -0.4858
  341MOL0     H46035   5.517   6.510   3.360 -1.1405  1.1373  0.9472
  342MOL0     O46036  10.932   5.197   1.109  0.5499  0.0632 -0.6458
  342MOL0     C46037  10.985   5.266   1.204  0.1249  0.1158  0.3295
  342MOL0     O46038  10.929   5.291   1.321  0.3239 -0.3502  0.1353
  342MOL0     C46039  10.793   5.274   1.359 -0.5908  0.3368 -0.0553
  342MOL0     C46040  10.686   5.243   1.277  0.4997 -0.0165  0.1935
  342MOL0     C46041  10.560   5.218   1.331  0.8292  1.7312 -0.1878
  342MOL0     C46042  10.541   5.203   1.480 -0.4030  0.1150 -0.3390
  342MOL0     O46043  10.416   5.178   1.532  0.3808  0.1782  0.8835
  342MOL0     C46044  10.397   5.144   1.667 -0.8721  0.3396  0.1712
  342MOL0     C46045  10.270   5.068   1.678 -0.0155 -0.1983 -0.4414
  342MOL0     C46046  10.149   5.165   1.675 -1.1092  0.8131  0.2814
  342MOL0     C46047  10.032   5.108   1.764 -0.2542  0.4133 -0.0624
  342MOL0     C46048   9.903   5.177   1.736 -0.2094 -0.4403  0.2465
  342MOL0     C46049   9.776   5.107   1.796  0.4448 -0.2804  0.2847
  342MOL0     C46050   9.643   5.173   1.760  0.4056  0.2428 -0.4810
  342MOL0     C46051   9.639   5.200   1.604 -0.5227 -0.0785 -0.0620
  342MOL0     N46052   9.501   5.238   1.574  0.1903  0.3794 -0.1818
  342MOL0     C46053   9.451   5.367   1.575 -0.1453 -0.0409 -0.4556
  342MOL0     C46054   9.325   5.364   1.529  0.0653  0.8462  0.6626
  342MOL0     C46055   9.257   5.490   1.489  0.6409  0.5020  0.2158
  342MOL0     C46056   9.106   5.465   1.476 -0.4107 -0.4056 -0.1171
  342MOL0     C46057   9.051   5.580   1.383 -0.9119  0.1085  0.1265
  342MOL0     C46058   8.902   5.584   1.384 -0.0471 -0.4510 -0.2199
  342MOL0     O46059   8.847   5.683   1.296 -0.2741 -0.3289 -0.2439
  342MOL0     C46060   8.714   5.704   1.306  1.0120  0.1726  0.2209
  342MOL0     C46061   8.618   5.645   1.389  0.7756 -0.8441 -0.6527
  342MOL0     C46062   8.480   5.679   1.380  0.0887  0.4383 -0.0185
  342MOL0     C46063   8.384   5.587   1.455 -0.2224  0.1393 -0.2116
  342MOL0     C46064   8.435   5.786   1.290  0.4211  0.4653  0.3192
  342MOL0     C46065   8.299   5.824   1.269 -0.2476  0.4343  0.5554
  342MOL0     O46066   8.278   5.948   1.229  0.4684  0.3819  0.0814
  342MOL0     C46067   8.154   5.974   1.175 -0.4109  1.1857  0.5569
  342MOL0     C46068   8.126   5.933   1.040  0.1972  0.2670  0.3089
  342MOL0     C46069   8.003   5.959   0.992 -0.1029  0.0811  0.2294
  342MOL0     C46070   7.899   6.009   1.065 -0.4675  0.7128 -0.1080
  342MOL0     O46071   7.774   6.023   1.002 -0.0383 -0.2984 -0.2849
  342MOL0     C46072   7.712   6.154   1.033 -0.2785  1.1912  0.9207
  342MOL0     C46073   7.587   6.176   0.938  0.7155  0.3661  0.9548
  342MOL0     C46074   7.533   6.313   0.961  0.7300  1.1011  0.0794
  342MOL0     C46075   7.388   6.317   0.921  0.1524 -0.0348 -0.2990
  342MOL0     C46076   7.340   6.461   0.914 -0.0050  0.5478  0.2953
  342MOL0     C46077   7.192   6.455   0.883  0.5115 -0.6106  0.8346
  342MOL0     C46078   7.135   6.594   0.839  0.8924 -0.5456 -0.7661
  342MOL0     C46079   7.152   6.714   0.934  0.3309 -0.8753 -0.8139
  342MOL0    Cl46080   7.046   6.846   0.892  0.0660  0.0879  0.0271
  342MOL0     C46081   7.921   6.042   1.203  0.3141  0.4522  0.4556
  342MOL0     C46082   8.049   6.026   1.248 -0.1476  0.1549 -0.2883
  342MOL0     O46083   8.212   5.739   1.292  0.3394  0.2297  0.1557
  342MOL0     C46084   8.538   5.848   1.222 -0.5059 -0.2617  0.0439
  342MOL0     C46085   8.670   5.798   1.216  1.2821  0.2780  0.2497
  342MOL0     N46086   9.291   5.228   1.509 -0.1384  1.1344 -0.1417
  342MOL0     N46087   9.398   5.160   1.530  0.4313  1.2686 -0.0443
  342MOL0     C46088  10.649   5.239   1.558 -0.3608  0.2757  0.3440
  342MOL0     C46089  10.764   5.283   1.495  0.1355 -0.8947  0.5567
  342MOL0     C46090  11.116   5.317   1.172 -0.2251 -0.8551  0.5959
  342MOL0     C46091  11.188   5.266   1.060  0.9273  0.1884  0.4263
  342MOL0     C46092  11.313   5.310   1.020 -0.0506  0.4108  0.8213
  342MOL0     C46093  11.373   5.411   1.095 -0.2861  0.3380 -0.2391
  342MOL0     O46094  11.499   5.461   1.071 -0.4153  0.0039 -0.0082
  342MOL0     C46095  11.592   5.395   0.976  0.8737 -0.4668  0.0352
  342MOL0     C46096  11.671   5.278   1.043 -0.2215  0.0712  0.9795
  342MOL0     C46097  11.785   5.216   0.955 -0.0905  0.4463 -1.0643
  342MOL0     C46098  11.900   5.314   0.917  0.0361 -0.1113 -1.0002
  342MOL0     C46099  11.986   5.247   0.819  0.2117 -0.5182  0.0575
  342MOL0     C46100  12.047   5.193   0.735 -0.5089  0.4423  0.5025
  342MOL0     C46101  11.311   5.473   1.200 -0.6320  0.5084  0.3360
  342MOL0     C46102  11.181   5.428   1.244  0.6091 -0.7195  0.0375
  342MOL0     H46103  10.704   5.251   1.170 -1.9321  1.2723 -0.1913
  342MOL0     H46104  10.475   5.210   1.265  0.0555  1.5803  0.7989
  342MOL0     H46105  10.468   5.062   1.682 -2.0494 -0.7267  0.0784
  342MOL0     H46106  10.410   5.226   1.738  0.1452  1.0659 -0.8045
  342MOL0     H46107  10.249   4.994   1.600 -2.0230  0.1978 -0.3506
  342MOL0     H46108  10.269   5.013   1.772  0.0900 -0.8298 -0.8024
  342MOL0     H46109  10.171   5.264   1.717 -1.3737  0.3115  1.6452
  342MOL0     H46110  10.114   5.185   1.573  0.1217 -1.4741 -0.6819
  342MOL0     H46111  10.012   5.005   1.736 -0.6949  0.8232 -1.3061
  342MOL0     H46112  10.072   5.116   1.866  2.6310 -1.7483 -0.8912
  342MOL0     H46113   9.914   5.283   1.763  0.4253 -0.6232  0.7535
  342MOL0     H46114   9.901   5.173   1.627  0.2092  1.6616  0.1182
  342MOL0     H46115   9.772   5.001   1.771  2.1150 -1.3547  3.9272
  342MOL0     H46116   9.790   5.101   1.904 -0.2272 -1.5757  0.3132
  342MOL0     H46117   9.564   5.100   1.780  1.2150 -0.0847  1.9072
  342MOL0     H46118   9.622   5.259   1.826  1.8541  0.6688 -0.5516
  342MOL0     H46119   9.667   5.113   1.544 -4.3350 -2.0612  0.7389
  342MOL0     H46120   9.694   5.294   1.590 -3.2713  2.1901  2.9060
  342MOL0     H46121   9.516   5.453   1.586 -1.8629  1.0907  1.4980
  342MOL0     H46122   9.281   5.576   1.552  0.5433  0.2709  0.5700
  342MOL0     H46123   9.296   5.505   1.387 -2.0673  0.2674 -0.9536
  342MOL0     H46124   9.055   5.459   1.572 -0.0309 -3.5030  0.0023
  342MOL0     H46125   9.085   5.373   1.421  0.3004 -0.4534 -0.3247
  342MOL0     H46126   9.082   5.567   1.279 -1.6806 -2.9875  0.1829
  342MOL0     H46127   9.096   5.677   1.408  2.3205 -1.5261  1.0998
  342MOL0     H46128   8.863   5.605   1.484  0.4917 -1.7071  0.2745
  342MOL0     H46129   8.867   5.485   1.354  0.6792 -1.1770  1.2059
  342MOL0     H46130   8.644   5.569   1.461  2.2489  0.7241  0.5690
  342MOL0     H46131   8.326   5.641   1.531 -3.8031 -3.2866 -0.2207
  342MOL0     H46132   8.315   5.546   1.380 -1.1392  1.9202 -0.4156
  342MOL0     H46133   8.429   5.499   1.501 -0.9570 -0.3008 -0.3138
  342MOL0     H46134   8.208   5.901   0.977  1.3360 -0.5574  2.1231
  342MOL0     H46135   7.994   5.943   0.885  2.8204 -2.0655  0.1940
  342MOL0     H46136   7.676   6.155   1.136 -1.6072  1.5497  0.4826
  342MOL0     H46137   7.780   6.237   1.015  0.4565  0.5864  0.8507
  342MOL0     H46138   7.619   6.164   0.834 -3.3005  1.5715 -0.6057
  342MOL0     H46139   7.509   6.101   0.956  1.0130 -0.1556  0.1437
  342MOL0     H46140   7.589   6.383   0.898  1.0176  0.3084 -0.5664
  342MOL0     H46141   7.541   6.349   1.064 -0.0562 -0.4893  0.7259
  342MOL0     H46142   7.369   6.271   0.824 -0.2006  0.9530 -0.7154
  342MOL0     H46143   7.327   6.261   0.993  1.4759 -0.7501  0.2919
  342MOL0     H46144   7.383   6.525   0.838 -1.1742 -0.0972 -0.9494
  342MOL0     H46145   7.347   6.503   1.015  0.6345 -0.1294  0.5499
  342MOL0     H46146   7.166   6.377   0.811 -1.1947 -1.5616  2.3911
  342MOL0     H46147   7.144   6.419   0.975 -1.3320  2.6446  1.3097
  342MOL0     H46148   7.030   6.589   0.811  0.8003 -2.3786 -0.1732
  342MOL0     H46149   7.189   6.628   0.750 -0.9518 -0.5034 -1.9121
  342MOL0     H46150   7.255   6.753   0.932 -0.3755  1.1329 -0.0065
  342MOL0     H46151   7.143   6.686   1.039 -0.0601 -3.2555 -1.4216
  342MOL0     H46152   7.844   6.070   1.274 -0.2552  0.1417 -0.0361
  342MOL0     H46153   8.075   6.066   1.345  3.8528 -0.9822 -0.7141
  342MOL0     H46154   8.512   5.926   1.151 -0.2369  1.8600  2.1254
  342MOL0     H46155   8.742   5.836   1.143  0.6629 -0.4300 -0.7462
  342MOL0     H46156  10.645   5.231   1.666 -4.2678 -0.9217  0.2551
  342MOL0     H46157  10.839   5.323   1.563 -1.4753  0.6678  1.5010
  342MOL0     H46158  11.149   5.187   0.997 -1.6411 -0.5327  2.7006
  342MOL0     H46159  11.365   5.262   0.938 -0.1534  0.9823  0.4133
  342MOL0     H46160  11.545   5.362   0.883 -0.0060  0.0519  0.2788
  342MOL0     H46161  11.662   5.475   0.951 -0.6962  1.2693  0.9937
  342MOL0     H46162  11.600   5.199   1.072 -0.2074  1.1098  4.2326
  342MOL0     H46163  11.705   5.319   1.139  0.8182 -0.6599  0.9393
  342MOL0     H46164  11.737   5.178   0.865 -0.3033 -1.8619 -0.0475
  342MOL0     H46165  11.821   5.134   1.018  1.3905  4.4581  3.9945
  342MOL0     H46166  11.947   5.347   1.011 -0.6775 -0.9868 -0.3274
  342MOL0     H46167  11.867   5.406   0.867  1.4116 -0.6074 -2.9582
  342MOL0     H46168  12.097   5.155   0.649 -1.2994 -0.0648  0.2602
  342MOL0     H46169  11.356   5.560   1.247 -0.9860  0.1976  1.2544
  342MOL0     H46170  11.125   5.466   1.329  2.3167 -2.7265  2.1887
  343MOL0     O46171   5.680   2.922   0.756  0.3337 -0.0283  0.5380
  343MOL0     C46172   5.672   2.804   0.745  0.8595  0.1098 -0.5387
  343MOL0     O46173   5.558   2.735   0.729 -0.3124  0.2187  0.5802
  343MOL0     C46174   5.434   2.788   0.764  0.5721 -0.3555 -0.2108
  343MOL0     C46175   5.383   2.807   0.894 -0.0418 -0.1010 -0.3510
  343MOL0     C46176   5.262   2.879   0.916  0.0297 -0.1095 -0.9268
  343MOL0     C46177   5.178   2.911   0.820 -0.7685 -0.2001 -0.6627
  343MOL0     O46178   5.060   2.959   0.840  0.3897  1.1631  0.0845
  343MOL0     C46179   4.986   2.925   0.954 -0.1269 -0.0287 -0.6232
  343MOL0     C46180   4.838   2.959   0.944 -0.7695  0.6965 -0.0162
  343MOL0     C46181   4.758   2.887   1.062 -0.7702 -0.9773 -0.9470
  343MOL0     C46182   4.609   2.928   1.047 -0.3157 -0.2209 -0.2196
  343MOL0     C46183   4.532   2.872   1.164  0.0583  0.3984  0.8311
  343MOL0     C46184   4.502   2.722   1.146 -0.5055 -0.1598 -0.0013
  343MOL0     C46185   4.391   2.663   1.237  0.3167  0.7721 -0.0704
  343MOL0     C46186   4.418   2.659   1.387  0.0104 -0.1403  0.6072
  343MOL0     N46187   4.311   2.580   1.447  0.1012  0.1740  0.3966
  343MOL0     C46188   4.180   2.618   1.469 -0.2120 -0.2157  0.1713
  343MOL0     C46189   4.117   2.507   1.506 -0.2658  0.4082  0.0626
  343MOL0     C46190   3.978   2.484   1.548  0.4145 -0.2443 -0.2067
  343MOL0     C46191   3.953   2.508   1.704 -0.1465  0.4410  0.6443
  343MOL0     C46192   3.807   2.515   1.745 -0.4267  0.0794  0.5348
  343MOL0     C46193   3.784   2.512   1.898  0.2053 -0.4783  0.0677
  343MOL0     O46194   3.657   2.447   1.928  0.3679  0.6305  0.0311
  343MOL0     C46195   3.545   2.526   1.947  0.1417 -0.5824  0.5822
  343MOL0     C46196   3.429   2.475   2.008 -0.6247  0.0184 -0.0188
  343MOL0     C46197   3.315   2.551   2.025 -0.0084 -0.9423  0.0454
  343MOL0     C46198   3.199   2.482   2.096  0.6220 -0.3248 -0.9778
  343MOL0     C46199   3.311   2.690   2.005  0.1050 -0.2584  0.3708
  343MOL0     C46200   3.205   2.789   2.035 -0.2755 -0.4409 -0.0517
  343MOL0     O46201   3.085   2.736   2.073  0.0766  0.2073  0.0172
  343MOL0     C46202   2.971   2.805   2.104 -0.0309 -1.2281  0.8930
  343MOL0     C46203   2.858   2.735   2.145  0.3523  1.2919 -0.1438
  343MOL0     C46204   2.732   2.790   2.178 -0.0568  0.8182  0.7865
  343MOL0     C46205   2.713   2.925   2.155 -0.9725 -0.5006 -0.7628
  343MOL0     O46206   2.603   2.992   2.187  0.2226 -0.3446 -0.8621
  343MOL0     C46207   2.559   2.980   2.332  0.2795 -0.2964 -0.2845
  343MOL0     C46208   2.409   3.016   2.346 -0.0938  0.4278  0.5495
  343MOL0     C46209   2.388   3.163   2.298 -0.1210  0.1751 -0.1495
  343MOL0     C46210   2.247   3.213   2.335  0.1932 -0.2833  0.1290
  343MOL0     C46211   2.125   3.129   2.294 -0.0845  0.4397  0.0672
  343MOL0     C46212   1.999   3.198   2.339 -0.0476  0.1937  0.4798
  343MOL0     C46213   1.887   3.111   2.286 -0.0370 -0.5995  0.7645
  343MOL0     C46214   1.753   3.188   2.306  0.0406  0.5617  0.3139
  343MOL0    Cl46215   1.724   3.337   2.207 -0.1316  0.1788 -0.3247
  343MOL0     C46216   2.823   2.994   2.095  0.5592 -0.5305 -0.8781
  343MOL0     C46217   2.946   2.935   2.076  0.1904 -0.3222  0.1678
  343MOL0     O46218   3.235   2.913   2.033  0.5512  0.9788 -0.3956
  343MOL0     C46219   3.424   2.732   1.943 -0.7568  0.1760 -0.0658
  343MOL0     C46220   3.537   2.663   1.910  0.5715 -0.6747  0.1839
  343MOL0     N46221   4.214   2.407   1.501  0.6451 -0.0294  0.3246
  343MOL0     N46222   4.326   2.450   1.467  0.3250 -0.7374  0.3687
  343MOL0     C46223   5.225   2.894   0.686  0.1153  0.0978  0.4923
  343MOL0     C46224   5.354   2.838   0.660 -0.1639 -0.7857  0.0631
  343MOL0     C46225   5.807   2.738   0.758  0.2824 -0.2767 -0.4860
  343MOL0     C46226   5.812   2.599   0.740  0.3374  0.3138  0.5834
  343MOL0     C46227   5.933   2.528   0.746  0.2606 -0.5072 -1.0450
  343MOL0     C46228   6.054   2.602   0.776 -0.3046  0.5053  0.6797
  343MOL0     O46229   6.184   2.558   0.766  0.0187  0.2013 -0.3428
  343MOL0     C46230   6.199   2.422   0.719  0.0936  0.7912  0.2914
  343MOL0     C46231   6.347   2.385   0.737 -0.0329 -0.2145  0.8557
  343MOL0     C46232   6.375   2.358   0.888 -0.3892  0.8734  0.6783
  343MOL0     C46233   6.521   2.329   0.909  0.1430 -0.0817  0.7380
  343MOL0     C46234   6.551   2.330   1.051  0.0093  0.2224  0.8504
  343MOL0     C46235   6.576   2.339   1.173  0.2543 -0.6438 -0.3259
  343MOL0     C46236   6.044   2.738   0.806 -0.3217 -0.1953  0.4845
  343MOL0     C46237   5.924   2.803   0.795  0.0299  0.0429  0.2421
  343MOL0     H46238   5.441   2.767   0.977  1.3877  1.0902 -0.7463
  343MOL0     H46239   5.221   2.891   1.016 -0.1530 -1.8710 -0.7564
  343MOL0     H46240   4.989   2.818   0.978  0.6834  0.0969 -0.1341
  343MOL0     H46241   5.028   2.983   1.037 -0.6419  2.2661 -1.9025
  343MOL0     H46242   4.815   3.066   0.944 -0.2240  0.8173  0.0967
  343MOL0     H46243   4.805   2.913   0.851  2.7757  0.9766 -1.5703
  343MOL0     H46244   4.771   2.779   1.054  1.2072 -0.9067  0.2846
  343MOL0     H46245   4.795   2.917   1.161 -0.9526 -2.3953 -0.4359
  343MOL0     H46246   4.596   3.036   1.047 -0.8681 -0.2770  1.0416
  343MOL0     H46247   4.569   2.890   0.952 -2.1117  1.2088 -0.0855
  343MOL0     H46248   4.592   2.885   1.254  1.0240  2.5586 -0.0462
  343MOL0     H46249   4.433   2.918   1.177  0.0346  0.4291  0.5452
  343MOL0     H46250   4.465   2.698   1.046 -1.4735  0.4514  0.1929
  343MOL0     H46251   4.591   2.661   1.163 -1.1047 -0.8751  0.6575
  343MOL0     H46252   4.304   2.727   1.219  0.4612  1.1492  0.5649
  343MOL0     H46253   4.365   2.560   1.208  0.4768  0.3406  1.2358
  343MOL0     H46254   4.416   2.761   1.427  1.6795 -0.4895  1.7107
  343MOL0     H46255   4.521   2.624   1.397  0.3016  0.3582 -0.5985
  343MOL0     H46256   4.135   2.716   1.469 -0.1862 -0.1781 -1.3567
  343MOL0     H46257   3.912   2.560   1.504 -0.2573 -0.1937  0.8566
  343MOL0     H46258   3.945   2.384   1.519 -0.3356  0.2473 -1.0904
  343MOL0     H46259   4.002   2.603   1.722 -0.1742  0.4247  0.8110
  343MOL0     H46260   4.004   2.436   1.769  1.8388  1.4910  0.3288
  343MOL0     H46261   3.762   2.429   1.694  3.2530  0.3903 -3.8473
  343MOL0     H46262   3.760   2.602   1.697  2.0026  1.9660  1.4117
  343MOL0     H46263   3.778   2.608   1.949 -2.2952  1.3138 -3.1572
  343MOL0     H46264   3.859   2.449   1.947 -1.3345 -0.9227  1.9593
  343MOL0     H46265   3.437   2.374   2.046 -0.9332  1.0758  3.1621
  343MOL0     H46266   3.118   2.464   2.025 -2.0943  0.4094  1.6651
  343MOL0     H46267   3.216   2.379   2.129 -2.4785 -0.9150 -0.8728
  343MOL0     H46268   3.163   2.543   2.180 -0.5942 -0.8078 -1.1255
  343MOL0     H46269   2.859   2.629   2.167  0.4200  0.7463 -2.5937
  343MOL0     H46270   2.653   2.734   2.228 -1.2461  1.6942 -0.0700
  343MOL0     H46271   2.565   2.876   2.364 -3.2908 -0.6069 -0.2638
  343MOL0     H46272   2.618   3.044   2.398 -0.9020 -0.0668  0.5850
  343MOL0     H46273   2.352   2.947   2.282 -0.3234  1.7846 -0.7730
  343MOL0     H46274   2.383   3.008   2.452  1.1001 -1.4759  0.7321
  343MOL0     H46275   2.396   3.167   2.189  1.6182 -1.2993 -0.1205
  343MOL0     H46276   2.472   3.218   2.340  0.4116 -1.1435  0.5866
  343MOL0     H46277   2.234   3.226   2.443  0.1919  1.2207 -0.0262
  343MOL0     H46278   2.234   3.303   2.274  1.4968 -1.1287 -1.4518
  343MOL0     H46279   2.133   3.033   2.346 -1.8976  0.3632  0.2389
  343MOL0     H46280   2.119   3.119   2.185 -1.0573 -0.2070  0.1732
  343MOL0     H46281   1.989   3.198   2.448  0.1036 -1.2776  0.5216
  343MOL0     H46282   2.000   3.300   2.301  2.3039 -0.6950 -2.1516
  343MOL0     H46283   1.870   3.013   2.332 -0.0965  0.7922  3.9862
  343MOL0     H46284   1.903   3.088   2.180  3.6507  2.5925  0.3928
  343MOL0     H46285   1.729   3.219   2.408  2.3706  0.3251  0.9967
  343MOL0     H46286   1.682   3.118   2.259 -1.1367  1.5616  0.5700
  343MOL0     H46287   2.803   3.095   2.058  0.5389  0.5283  1.8163
  343MOL0     H46288   3.017   2.998   2.024  2.4406 -1.6223  1.4786
  343MOL0     H46289   3.438   2.835   1.911  2.3375 -0.3201 -0.6203
  343MOL0     H46290   3.621   2.717   1.866  0.8019 -1.0791  0.1130
  343MOL0     H46291   5.164   2.905   0.597  0.1541 -2.0298  0.1616
  343MOL0     H46292   5.381   2.822   0.556 -0.0769 -0.2360  0.0014
  343MOL0     H46293   5.734   2.535   0.701  3.3835 -3.5004  0.1456
  343MOL0     H46294   5.928   2.421   0.730 -0.3731 -0.8325  0.9793
  343MOL0     H46295   6.136   2.348   0.770  3.3166  0.6261  4.6030
  343MOL0     H46296   6.161   2.418   0.616  0.6549  0.4357  0.0900
  343MOL0     H46297   6.407   2.464   0.691  0.2529 -0.7027  0.3795
  343MOL0     H46298   6.370   2.295   0.680 -0.1960 -0.0408  0.5158
  343MOL0     H46299   6.315   2.273   0.922 -1.3358  0.7406 -1.2380
  343MOL0     H46300   6.339   2.447   0.941 -0.2406  1.2974  0.0697
  343MOL0     H46301   6.581   2.410   0.866 -0.2417  0.5990  1.4637
  343MOL0     H46302   6.533   2.229   0.866 -2.1521  0.2565 -0.8905
  343MOL0     H46303   6.597   2.353   1.277  1.3559 -0.6779 -0.5362
  343MOL0     H46304   6.140   2.786   0.824 -0.7519  1.0747 -0.4674
  343MOL0     H46305   5.918   2.909   0.817 -0.6748  0.4142 -1.5462
  344MOL0     O46306   1.380   8.791   8.844  0.0530  0.3076 -0.3914
  344MOL0     C46307   1.323   8.892   8.888 -0.3142  0.4563  0.3100
  344MOL0     O46308   1.389   9.009   8.905 -0.0749 -0.1579  0.3390
  344MOL0     C46309   1.522   9.005   8.908  0.2088  0.0030  0.7169
  344MOL0     C46310   1.613   8.908   8.947 -0.4037  0.5763  0.2951
  344MOL0     C46311   1.755   8.942   8.955  0.0076 -0.2475 -0.4088
  344MOL0     C46312   1.804   9.063   8.900 -0.1635  0.4929 -0.3739
  344MOL0     O46313   1.943   9.076   8.918  0.2125  0.5507  0.0361
  344MOL0     C46314   2.016   9.168   8.835  0.4254  0.1217  0.3485
  344MOL0     C46315   2.149   9.182   8.899  0.5759  0.5381 -0.6298
  344MOL0     C46316   2.255   9.249   8.814 -0.3333 -0.2428 -0.1131
  344MOL0     C46317   2.361   9.298   8.910 -0.2413  0.6726  0.0137
  344MOL0     C46318   2.478   9.373   8.839 -0.1736 -0.2600 -0.2744
  344MOL0     C46319   2.572   9.279   8.776 -0.7133  0.8511  0.2543
  344MOL0     C46320   2.695   9.347   8.725  0.1294  0.3859  0.4625
  344MOL0     C46321   2.786   9.244   8.641  1.1777  0.4821 -0.4530
  344MOL0     N46322   2.889   9.318   8.576 -0.4403  0.4813  0.4859
  344MOL0     C46323   2.986   9.382   8.647  0.7226 -0.4396 -0.1998
  344MOL0     C46324   3.053   9.454   8.549  0.3729 -0.4916  1.1448
  344MOL0     C46325   3.170   9.549   8.560 -0.3648  0.4686  0.4764
  344MOL0     C46326   3.300   9.494   8.617 -0.7834 -0.6599 -0.0481
  344MOL0     C46327   3.415   9.600   8.607  0.7949 -0.7242  0.2125
  344MOL0     C46328   3.528   9.555   8.682 -1.2172  0.7949 -0.3171
  344MOL0     O46329   3.507   9.557   8.823  0.6135 -0.1666 -0.3657
  344MOL0     C46330   3.617   9.539   8.909  0.1263 -0.0655  0.0014
  344MOL0     C46331   3.594   9.475   9.032  0.0440 -0.5475  0.3378
  344MOL0     C46332   3.693   9.443   9.116 -0.5911 -0.5015  0.1515
  344MOL0     C46333   3.657   9.366   9.239 -0.3471  0.1372  0.2071
  344MOL0     C46334   3.825   9.483   9.079 -0.0845 -0.1447 -0.6085
  344MOL0     C46335   3.942   9.468   9.165 -1.4155  0.0670  0.0329
  344MOL0     O46336   4.061   9.481   9.095 -0.5603  0.0156 -0.4533
  344MOL0     C46337   4.186   9.457   9.150  0.8984  0.3227  0.1391
  344MOL0     C46338   4.217   9.512   9.270 -0.6660  0.6225  0.0423
  344MOL0     C46339   4.342   9.492   9.324 -0.1415 -0.0591  0.4952
  344MOL0     C46340   4.438   9.414   9.262  0.1790 -0.3208  0.6727
  344MOL0     O46341   4.555   9.397   9.337  0.0897  0.4714 -0.3566
  344MOL0     C46342   4.639   9.286   9.301 -0.5979  1.1898  0.3565
  344MOL0     C46343   4.747   9.275   9.412  0.1741 -1.0933 -0.8274
  344MOL0     C46344   4.846   9.164   9.391 -0.0840 -0.1322  0.2857
  344MOL0     C46345   4.980   9.198   9.460  0.2038 -0.2997 -0.0680
  344MOL0     C46346   5.085   9.093   9.432  0.6577 -0.2745  0.4797
  344MOL0     C46347   5.232   9.129   9.462  0.3513  0.1592  0.1971
  344MOL0     C46348   5.282   9.094   9.602  0.5071  0.4316  0.5221
  344MOL0     C46349   5.432   9.140   9.602 -0.0248 -1.0138  0.1899
  344MOL0    Cl46350   5.433   9.319   9.592  0.0230 -0.0141 -0.1495
  344MOL0     C46351   4.411   9.372   9.129  1.1154 -0.3545 -0.0354
  344MOL0     C46352   4.284   9.397   9.071  0.5409  0.1873 -0.3749
  344MOL0     O46353   3.927   9.447   9.281 -0.1686 -0.0323  0.5178
  344MOL0     C46354   3.851   9.549   8.957 -0.1345  0.0627  0.0614
  344MOL0     C46355   3.744   9.574   8.875 -1.0310  0.3996  1.0338
  344MOL0     N46356   2.984   9.420   8.426 -0.1626  0.2676  0.7586
  344MOL0     N46357   2.886   9.342   8.448  0.3820 -0.7276 -0.1495
  344MOL0     C46358   1.720   9.155   8.859 -0.2121 -0.0556  0.4372
  344MOL0     C46359   1.580   9.125   8.860  0.0698  0.6477  0.2492
  344MOL0     C46360   1.181   8.885   8.909  0.2873 -0.2264  0.7894
  344MOL0     C46361   1.117   8.767   8.865  0.8290  0.3607  0.1428
  344MOL0     C46362   0.979   8.741   8.886  0.1405  0.2383  0.4212
  344MOL0     C46363   0.902   8.842   8.942  0.2571 -0.6886 -0.8399
  344MOL0     O46364   0.765   8.822   8.945  0.8437 -0.5588  0.4902
  344MOL0     C46365   0.678   8.933   8.987 -0.2435  0.0528  0.6466
  344MOL0     C46366   0.536   8.901   8.946  0.1796  0.0770 -0.3719
  344MOL0     C46367   0.511   8.926   8.800 -0.7099  0.0404  0.5737
  344MOL0     C46368   0.364   8.887   8.764  0.1748 -0.7660  0.6460
  344MOL0     C46369   0.343   8.873   8.616 -0.3600  0.3474  0.2376
  344MOL0     C46370   0.302   8.850   8.499 -0.1019  0.3356  0.2774
  344MOL0     C46371   0.965   8.951   9.008 -0.0735  0.1152  0.5295
  344MOL0     C46372   1.103   8.975   8.992 -0.2084 -0.4555 -0.0888
  344MOL0     H46373   1.580   8.823   9.005 -0.8867  0.6724  0.1621
  344MOL0     H46374   1.824   8.878   9.008  0.4426  2.8915  3.2121
  344MOL0     H46375   2.015   9.146   8.728  1.0283  2.5920 -0.2371
  344MOL0     H46376   1.970   9.268   8.837  1.1021  0.8030 -4.7026
  344MOL0     H46377   2.139   9.251   8.984  1.8946 -2.6974  2.3461
  344MOL0     H46378   2.187   9.088   8.939  2.9398  2.8057  3.1071
  344MOL0     H46379   2.302   9.175   8.749 -1.3191 -1.1701  0.1905
  344MOL0     H46380   2.215   9.333   8.756 -0.2733  0.2353  0.5259
  344MOL0     H46381   2.320   9.369   8.981 -1.8000 -0.5406  0.3786
  344MOL0     H46382   2.399   9.211   8.964  0.4553 -0.3424 -1.9972
  344MOL0     H46383   2.437   9.435   8.759  0.3636  1.4498  0.7460
  344MOL0     H46384   2.539   9.432   8.907  0.3494 -0.2284 -0.7722
  344MOL0     H46385   2.615   9.208   8.847 -2.6707  0.7206  1.3757
  344MOL0     H46386   2.535   9.228   8.687  2.0365 -2.6546  0.9078
  344MOL0     H46387   2.669   9.428   8.655  0.7123 -2.1873 -3.0135
  344MOL0     H46388   2.739   9.385   8.817 -2.7065 -0.5113  2.3092
  344MOL0     H46389   2.723   9.188   8.571  0.8574 -1.5447  1.3400
  344MOL0     H46390   2.822   9.162   8.705 -0.4454  0.4502  0.4718
  344MOL0     H46391   3.005   9.357   8.751 -0.3205 -1.1503 -0.1690
  344MOL0     H46392   3.201   9.583   8.461 -1.1212 -0.5668 -0.1366
  344MOL0     H46393   3.136   9.636   8.617 -2.2629  0.3003 -0.3251
  344MOL0     H46394   3.321   9.401   8.562 -1.5218 -1.0284  0.2763
  344MOL0     H46395   3.290   9.486   8.726 -2.2329  0.5376 -0.0721
  344MOL0     H46396   3.385   9.698   8.645  2.7630 -0.0613  0.1468
  344MOL0     H46397   3.445   9.625   8.505  0.8342  2.4066  0.8849
  344MOL0     H46398   3.605   9.629   8.658  1.0611 -1.7198 -1.2690
  344MOL0     H46399   3.562   9.454   8.659 -2.8713  0.3684 -1.0659
  344MOL0     H46400   3.492   9.444   9.054 -0.3161 -0.2934 -0.8467
  344MOL0     H46401   3.637   9.427   9.328 -0.1986  0.3412  0.1002
  344MOL0     H46402   3.560   9.319   9.219 -0.6117  1.0432 -0.7087
  344MOL0     H46403   3.727   9.286   9.263 -0.5673 -0.4825 -1.1193
  344MOL0     H46404   4.150   9.575   9.326 -0.0714  0.0516  1.4470
  344MOL0     H46405   4.358   9.531   9.424 -0.6732 -0.5731  0.7866
  344MOL0     H46406   4.581   9.195   9.315  2.1381 -0.4402  1.9427
  344MOL0     H46407   4.688   9.292   9.203  0.6873 -0.7661  0.8395
  344MOL0     H46408   4.799   9.370   9.427 -2.6051  0.5468 -0.7761
  344MOL0     H46409   4.695   9.244   9.503 -1.6572 -1.2960 -1.8859
  344MOL0     H46410   4.861   9.152   9.283 -2.7592 -1.7086  0.0203
  344MOL0     H46411   4.809   9.069   9.428 -1.0162  0.6040  1.2985
  344MOL0     H46412   5.014   9.299   9.432  3.6881 -1.5737 -1.0044
  344MOL0     H46413   4.963   9.210   9.567  2.0554 -1.6431  0.4293
  344MOL0     H46414   5.073   9.064   9.328  1.6329  0.8011  0.0498
  344MOL0     H46415   5.067   8.998   9.484 -1.2506 -0.0988  0.2323
  344MOL0     H46416   5.289   9.069   9.390 -0.0955 -1.8791  1.4812
  344MOL0     H46417   5.254   9.234   9.438  1.7177  0.2282  1.5954
  344MOL0     H46418   5.280   8.989   9.632  0.7892  0.6714  1.3824
  344MOL0     H46419   5.231   9.147   9.683 -0.7210  1.7909 -1.0646
  344MOL0     H46420   5.481   9.104   9.511  0.4232 -1.6039  0.6534
  344MOL0     H46421   5.480   9.111   9.696 -1.3155 -1.1449  0.8295
  344MOL0     H46422   4.490   9.320   9.077  2.5438  1.0845  0.5996
  344MOL0     H46423   4.281   9.367   8.967  1.1432 -1.1931 -0.0186
  344MOL0     H46424   3.949   9.580   8.924  0.3884 -2.6791 -1.3148
  344MOL0     H46425   3.762   9.635   8.787  4.0223  0.3423  1.7061
  344MOL0     H46426   1.747   9.256   8.830  2.3273 -0.3436  1.5368
  344MOL0     H46427   1.509   9.205   8.843  0.5473  1.4399  1.7630
  344MOL0     H46428   1.176   8.695   8.810  0.7825  0.4701 -0.0518
  344MOL0     H46429   0.927   8.651   8.857  1.1286 -1.1519  2.6853
  344MOL0     H46430   0.677   8.938   9.096 -0.4393 -3.6821  0.9630
  344MOL0     H46431   0.695   9.031   8.942 -3.3990 -0.5020 -2.1677
  344MOL0     H46432   0.466   8.974   8.990 -0.3710 -0.2813 -0.6419
  344MOL0     H46433   0.504   8.803   8.982  2.0553  0.3454  2.3244
  344MOL0     H46434   0.573   8.859   8.741 -1.7136 -1.0693  0.7489
  344MOL0     H46435   0.525   9.029   8.764 -2.0816 -0.5126 -1.7406
  344MOL0     H46436   0.309   8.976   8.794 -1.4475 -0.2904 -3.1880
  344MOL0     H46437   0.328   8.800   8.821 -1.0082 -1.3082 -0.8584
  344MOL0     H46438   0.287   8.830   8.395  1.9490  0.0523 -0.0163
  344MOL0     H46439   0.907   9.020   9.069 -0.3932  0.0714  0.2805
  344MOL0     H46440   1.153   9.055   9.045 -2.8017 -0.0787  1.9813
  345MOL0     O46441  11.198   4.361  10.350 -0.2214  0.5924  0.0531
  345MOL0     C46442  11.257   4.472  10.361  0.0434 -0.9146 -0.2244
  345MOL0     O46443  11.206   4.585  10.424  0.3432 -0.0704  0.5727
  345MOL0     C46444  11.074   4.578  10.467  0.8111  0.3339  0.3371
  345MOL0     C46445  11.045   4.495  10.572  0.0439 -0.5063 -0.1462
  345MOL0     C46446  10.916   4.474  10.616 -0.2702 -0.1785  0.4779
  345MOL0     C46447  10.811   4.524  10.538 -0.9075 -0.1475  0.0282
  345MOL0     O46448  10.687   4.499  10.584  0.4992 -0.0454  0.2142
  345MOL0     C46449  10.571   4.516  10.489 -0.2902  0.1109 -0.3209
  345MOL0     C46450  10.459   4.417  10.524 -0.5150 -0.6530  0.2061
  345MOL0     C46451  10.319   4.459  10.496  0.6934  0.2889  0.3901
  345MOL0     C46452  10.276   4.443  10.352 -0.4911  0.2874  0.1929
  345MOL0     C46453  10.131   4.488  10.326  0.3214  0.5091  0.6911
  345MOL0     C46454  10.097   4.518  10.185 -0.1214 -0.0434  0.0594
  345MOL0     C46455  10.123   4.663  10.157  0.3187 -0.2873 -0.2758
  345MOL0     C46456  10.024   4.769  10.207  0.3225 -0.1153 -0.7341
  345MOL0     N46457   9.881   4.734  10.191  0.8912 -0.6511  0.5185
  345MOL0     C46458   9.800   4.646  10.267  0.6995 -0.0297  0.0605
  345MOL0     C46459   9.676   4.676  10.227 -0.2183 -0.1501  0.4945
  345MOL0     C46460   9.552   4.618  10.277 -0.0374  0.1189  0.3164
  345MOL0     C46461   9.435   4.706  10.235 -0.5039  0.3514  0.0313
  345MOL0     C46462   9.305   4.634  10.270  0.6923  0.0814 -0.2209
  345MOL0     C46463   9.186   4.732  10.242 -1.1358  0.0896 -0.0618
  345MOL0     O46464   9.070   4.649  10.251  0.6140  0.0046 -0.1473
  345MOL0     C46465   8.946   4.708  10.229  0.4118 -0.9380  0.6528
  345MOL0     C46466   8.830   4.644  10.286 -1.0691  0.1145  0.1975
  345MOL0     C46467   8.705   4.691  10.258 -0.4242  0.6131 -0.5537
  345MOL0     C46468   8.603   4.603  10.300  1.1322  0.6359 -0.2021
  345MOL0     C46469   8.687   4.816  10.186  0.3996 -0.4732 -0.8152
  345MOL0     C46470   8.557   4.883  10.161 -0.0089  0.0374 -0.3623
  345MOL0     O46471   8.438   4.819  10.195 -0.0064  0.1373  0.1352
  345MOL0     C46472   8.316   4.891  10.193 -0.0234  0.1706  0.0480
  345MOL0     C46473   8.256   4.925  10.320 -0.1381 -0.3249  0.2701
  345MOL0     C46474   8.127   4.983  10.317 -0.7415 -0.5363 -0.4985
  345MOL0     C46475   8.061   4.999  10.195 -0.0782  0.2098 -0.6580
  345MOL0     O46476   7.932   5.043  10.184  0.5011  0.7608  0.7419
  345MOL0     C46477   7.883   5.138  10.277 -0.0705  0.1627 -0.5417
  345MOL0     C46478   7.752   5.195  10.227 -0.4348  0.1152  0.4573
  345MOL0     C46479   7.734   5.326  10.306 -0.7565  0.3592 -0.8102
  345MOL0     C46480   7.589   5.375  10.275 -0.7317  0.2161 -0.7838
  345MOL0     C46481   7.573   5.523  10.322 -1.2503  0.0119 -0.1024
  345MOL0     C46482   7.463   5.580  10.251 -0.0852 -0.2363 -0.2615
  345MOL0     C46483   7.328   5.540  10.308  0.4173 -0.4189 -0.4830
  345MOL0     C46484   7.218   5.594  10.214 -0.2561  0.1295  0.2597
  345MOL0    Cl46485   7.232   5.757  10.130  0.4915  0.2046  0.3203
  345MOL0     C46486   8.121   4.965  10.071  0.4495  0.1063 -1.0868
  345MOL0     C46487   8.252   4.912  10.072  0.7910 -1.2501  0.1634
  345MOL0     O46488   8.562   4.976  10.072 -0.0355  0.5482 -0.3503
  345MOL0     C46489   8.800   4.885  10.142  0.0604 -0.2834  0.6299
  345MOL0     C46490   8.925   4.834  10.167 -0.1113 -0.1654 -0.3104
  345MOL0     N46491   9.679   4.773  10.126 -0.3530  0.9143 -0.2750
  345MOL0     N46492   9.798   4.807  10.107 -0.3834 -0.3599 -0.5248
  345MOL0     C46493  10.846   4.612  10.431  0.6598 -0.4635 -0.5836
  345MOL0     C46494  10.976   4.647  10.399  0.3135  0.3481 -0.7542
  345MOL0     C46495  11.373   4.513  10.280 -0.3187  0.2163  0.4569
  345MOL0     C46496  11.449   4.635  10.298  0.3043 -0.2361 -0.1287
  345MOL0     C46497  11.561   4.658  10.222  0.3825 -0.8895 -0.0354
  345MOL0     C46498  11.602   4.574  10.127  0.5830  0.1356  0.2201
  345MOL0     O46499  11.704   4.605  10.043 -0.2171  0.0983  0.7571
  345MOL0     C46500  11.817   4.692  10.074 -0.3876  0.2102  0.2859
  345MOL0     C46501  11.911   4.704   9.953 -0.5076 -0.5387 -0.5704
  345MOL0     C46502  11.941   4.565   9.903  0.3239  1.0778 -0.0952
  345MOL0     C46503  11.980   4.569   9.754 -0.4920 -0.4717  0.9917
  345MOL0     C46504  11.876   4.621   9.672  0.4479 -0.1465  0.3376
  345MOL0     C46505  11.792   4.665   9.596  0.0796 -0.6908  0.7144
  345MOL0     C46506  11.524   4.461  10.106 -0.1202  0.6294  0.0117
  345MOL0     C46507  11.420   4.415  10.193  0.6703 -0.0470 -0.4243
  345MOL0     H46508  11.132   4.460  10.626 -0.6435 -1.4282  0.3794
  345MOL0     H46509  10.880   4.417  10.701  0.3512  0.4205  1.1587
  345MOL0     H46510  10.536   4.619  10.498  1.1609  0.5350  1.1742
  345MOL0     H46511  10.598   4.501  10.385 -0.2609 -2.7099  0.0274
  345MOL0     H46512  10.479   4.323  10.471 -2.6921 -0.0489 -1.8394
  345MOL0     H46513  10.471   4.386  10.629  0.5510 -1.0064 -0.0034
  345MOL0     H46514  10.260   4.391  10.559 -0.9690  1.1266 -0.1980
  345MOL0     H46515  10.308   4.564  10.524  0.9118  0.5560 -0.5194
  345MOL0     H46516  10.332   4.504  10.281  1.0321 -2.7694 -1.4169
  345MOL0     H46517  10.281   4.337  10.326  0.3476  0.1287  0.9768
  345MOL0     H46518  10.060   4.413  10.361  0.4552  0.7108  1.4135
  345MOL0     H46519  10.107   4.573  10.390  1.6811 -1.0527  3.4220
  345MOL0     H46520  10.160   4.457  10.120  1.2627  0.6302  0.7400
  345MOL0     H46521   9.995   4.492  10.155 -0.0403  2.5113 -2.9368
  345MOL0     H46522  10.220   4.691  10.199  1.1116  0.3692 -2.3915
  345MOL0     H46523  10.125   4.672  10.048 -4.1157  1.7759 -0.4032
  345MOL0     H46524  10.046   4.862  10.153  0.5225  1.7064  2.2420
  345MOL0     H46525  10.047   4.784  10.313  2.6954 -1.3125 -1.0003
  345MOL0     H46526   9.827   4.577  10.347 -0.2849  2.0129  2.2600
  345MOL0     H46527   9.540   4.520  10.230  0.8250  1.8042 -3.8752
  345MOL0     H46528   9.564   4.597  10.383  2.4822  2.3109  0.5608
  345MOL0     H46529   9.437   4.731  10.128  1.5420  0.8628  0.1497
  345MOL0     H46530   9.449   4.791  10.302 -0.8552 -0.9390  1.8128
  345MOL0     H46531   9.299   4.598  10.373 -0.9241 -2.5016 -1.1052
  345MOL0     H46532   9.293   4.547  10.204  1.8161  0.5286 -1.0412
  345MOL0     H46533   9.180   4.766  10.138 -1.2056 -1.5936 -0.6337
  345MOL0     H46534   9.192   4.815  10.312  1.2408 -0.8238  0.9220
  345MOL0     H46535   8.846   4.541  10.315 -1.7257  0.4043  1.6888
  345MOL0     H46536   8.550   4.643  10.387 -0.5673 -1.4511 -0.1936
  345MOL0     H46537   8.521   4.579  10.231 -0.3771  1.0629  1.3555
  345MOL0     H46538   8.647   4.510  10.336  1.0523  0.1337 -1.3550
  345MOL0     H46539   8.296   4.905  10.419 -1.6333 -0.0152  0.9635
  345MOL0     H46540   8.071   4.992  10.410  1.7018 -1.1941  1.1379
  345MOL0     H46541   7.864   5.105  10.380  1.6871 -1.8851 -0.7982
  345MOL0     H46542   7.957   5.218  10.270  3.0845 -2.2865  1.7797
  345MOL0     H46543   7.751   5.223  10.121  1.7052 -1.3522 -0.0319
  345MOL0     H46544   7.668   5.128  10.248  1.9462 -3.1860  0.2679
  345MOL0     H46545   7.801   5.401  10.262  0.1512 -0.4952 -0.9195
  345MOL0     H46546   7.756   5.321  10.413 -2.3029 -2.8732 -0.5251
  345MOL0     H46547   7.579   5.368  10.166 -1.2837  0.3568 -0.7458
  345MOL0     H46548   7.508   5.319  10.323 -1.4791  1.2570 -0.8004
  345MOL0     H46549   7.662   5.579  10.293 -1.9657 -0.1804 -2.9982
  345MOL0     H46550   7.556   5.513  10.429 -0.5424  0.5808  0.0656
  345MOL0     H46551   7.464   5.688  10.237 -1.1002 -0.5557 -3.7885
  345MOL0     H46552   7.466   5.555  10.145 -3.2284  2.4191 -1.1432
  345MOL0     H46553   7.307   5.580  10.408 -0.5252  0.0393 -0.8530
  345MOL0     H46554   7.314   5.432  10.316 -0.9296 -0.3384 -1.3528
  345MOL0     H46555   7.125   5.592  10.272  0.2493  2.5350  1.2681
  345MOL0     H46556   7.207   5.521  10.133 -2.8536  0.2687  0.3831
  345MOL0     H46557   8.067   4.974   9.977 -1.2971  0.7908 -0.0716
  345MOL0     H46558   8.305   4.877   9.984 -0.3900  0.8584 -1.4855
  345MOL0     H46559   8.786   4.988  10.113 -2.4486 -0.9865 -0.9912
  345MOL0     H46560   9.014   4.893  10.148 -0.6446  1.5218  1.9858
  345MOL0     H46561  10.762   4.656  10.379 -0.1011 -0.9859  0.1749
  345MOL0     H46562  10.989   4.699  10.305  0.5002 -0.4311 -1.1620
  345MOL0     H46563  11.421   4.719  10.360 -1.6408  0.8807 -2.3502
  345MOL0     H46564  11.612   4.750  10.248 -0.7096 -1.3240  4.4025
  345MOL0     H46565  11.783   4.792  10.102  1.0547  0.1700  2.3612
  345MOL0     H46566  11.873   4.647  10.157 -0.6696  2.1244  1.5589
  345MOL0     H46567  11.998   4.757   9.992 -2.0346 -0.6585  3.4595
  345MOL0     H46568  11.862   4.764   9.876 -0.4673  0.3725  0.0987
  345MOL0     H46569  11.861   4.493   9.919  0.7544  0.8233  1.0019
  345MOL0     H46570  12.032   4.533   9.956 -1.2406 -0.5992  1.7230
  345MOL0     H46571  12.009   4.473   9.709 -1.6775  1.0171 -3.4659
  345MOL0     H46572  12.065   4.636   9.740 -1.1549  0.0361 -1.0161
  345MOL0     H46573  11.718   4.699   9.526  1.1505 -1.8191 -1.0285
  345MOL0     H46574  11.560   4.381  10.042 -4.2188 -1.4101 -0.0245
  345MOL0     H46575  11.382   4.314  10.182  0.6367 -0.3146  1.7400
  346MOL0     O46576   0.534   5.181   5.466 -0.0674 -0.3149  0.0176
  346MOL0     C46577   0.595   5.175   5.570  0.5760  0.3716 -0.8426
  346MOL0     O46578   0.545   5.205   5.696 -0.2571 -0.2471 -0.3931
  346MOL0     C46579   0.415   5.249   5.711 -0.1555 -0.0556  0.5886
  346MOL0     C46580   0.398   5.342   5.815 -0.1906 -1.2204  0.3120
  346MOL0     C46581   0.275   5.408   5.825  0.4184 -1.0464 -0.1338
  346MOL0     C46582   0.169   5.381   5.745  0.2616 -0.4600  0.6150
  346MOL0     O46583   0.045   5.448   5.758  0.4761 -0.4913  0.3326
  346MOL0     C46584   0.044   5.597   5.742 -0.8951  0.3314  0.5918
  346MOL0     C46585  -0.095   5.648   5.724 -0.0894  0.2360  0.2881
  346MOL0     C46586  -0.207   5.601   5.808  0.2539  0.4095 -0.4659
  346MOL0     C46587  -0.349   5.644   5.756 -0.2493 -0.1272 -0.4819
  346MOL0     C46588  -0.472   5.602   5.841  0.1017  0.3207 -0.3209
  346MOL0     C46589  -0.598   5.617   5.760  0.7298 -0.7695  0.8098
  346MOL0     C46590  -0.640   5.765   5.753  0.6626  0.3528 -0.1898
  346MOL0     C46591  -0.786   5.805   5.731 -0.5745 -0.1455 -0.0206
  346MOL0     N46592  -0.808   5.949   5.715 -0.1443  0.2220 -0.4842
  346MOL0     C46593  -0.934   6.004   5.713 -0.0488  0.1842 -0.4406
  346MOL0     C46594  -0.920   6.137   5.728 -0.3132  0.2430 -0.5234
  346MOL0     C46595  -1.025   6.238   5.739 -0.9405  0.3583 -0.4812
  346MOL0     C46596  -1.038   6.302   5.607  0.3634 -0.4224 -0.3524
  346MOL0     C46597  -1.112   6.212   5.508 -0.3577 -0.0822 -0.7481
  346MOL0     C46598  -1.155   6.292   5.378 -0.0473  0.2482  0.0378
  346MOL0     O46599  -1.264   6.384   5.414  0.7513 -0.1202  0.5682
  346MOL0     C46600  -1.331   6.442   5.313 -0.9639  0.4794  0.7768
  346MOL0     C46601  -1.449   6.488   5.350  0.0161  0.5536 -0.4780
  346MOL0     C46602  -1.547   6.534   5.259  0.3681  0.3039  1.1734
  346MOL0     C46603  -1.688   6.547   5.322  0.9142 -0.8015  0.1983
  346MOL0     C46604  -1.515   6.523   5.120 -0.2172  0.0474 -1.3442
  346MOL0     C46605  -1.619   6.544   5.011 -0.7142  0.6529  0.2310
  346MOL0     O46606  -1.595   6.491   4.880 -0.4944 -0.6941  0.5503
  346MOL0     C46607  -1.692   6.483   4.781 -0.4166 -0.1802  0.9745
  346MOL0     C46608  -1.832   6.471   4.806 -0.0324 -0.4262  0.2191
  346MOL0     C46609  -1.923   6.448   4.702 -0.2469 -0.3563 -0.0977
  346MOL0     C46610  -1.888   6.451   4.568  0.4876 -0.6779 -0.6540
  346MOL0     O46611  -1.984   6.436   4.469  0.0600 -0.2218  0.4869
  346MOL0     C46612  -2.068   6.548   4.471 -0.0216 -0.1694  0.6850
  346MOL0     C46613  -2.192   6.548   4.374 -0.7072 -0.2233  0.1759
  346MOL0     C46614  -2.290   6.440   4.441  0.2618  1.4027  0.5504
  346MOL0     C46615  -2.400   6.394   4.346 -0.0440 -0.1559  1.3414
  346MOL0     C46616  -2.470   6.268   4.401  0.2663 -0.5829  0.1217
  346MOL0     C46617  -2.574   6.299   4.515  0.0230 -0.7710  0.7864
  346MOL0     C46618  -2.679   6.191   4.519  0.1351 -1.1562 -0.5289
  346MOL0     C46619  -2.745   6.183   4.665 -0.0563 -0.0041  1.0282
  346MOL0    Cl46620  -2.878   6.317   4.665 -0.2015  0.0570  0.4138
  346MOL0     C46621  -1.753   6.468   4.540 -0.0449 -0.2915 -0.4836
  346MOL0     C46622  -1.654   6.482   4.640  0.2103  0.4137  0.0894
  346MOL0     O46623  -1.715   6.612   5.043 -0.0651  0.4581 -0.1725
  346MOL0     C46624  -1.381   6.491   5.081  0.2150  0.0633  0.0209
  346MOL0     C46625  -1.294   6.451   5.175 -0.0192 -0.5783 -0.1968
  346MOL0     N46626  -0.783   6.164   5.728 -0.0075  0.3638 -0.3942
  346MOL0     N46627  -0.719   6.049   5.726 -0.3251  0.0670 -0.2033
  346MOL0     C46628   0.180   5.274   5.654 -0.1453  0.3038 -0.2605
  346MOL0     C46629   0.300   5.206   5.639 -0.7551 -0.3075  0.4566
  346MOL0     C46630   0.734   5.121   5.561  0.9162 -0.0019  0.7021
  346MOL0     C46631   0.786   5.070   5.685 -0.2634  0.4770 -0.0364
  346MOL0     C46632   0.923   5.018   5.682 -0.4197  0.2139  0.6687
  346MOL0     C46633   0.991   5.002   5.563  0.0170 -0.1467 -0.1390
  346MOL0     O46634   1.121   4.958   5.551 -0.5330  0.2942 -0.1723
  346MOL0     C46635   1.179   4.889   5.668 -0.0001  0.0390  0.3707
  346MOL0     C46636   1.333   4.858   5.648 -0.1397  0.1902  0.8096
  346MOL0     C46637   1.411   4.982   5.610 -0.8276  0.4103 -0.0959
  346MOL0     C46638   1.564   4.960   5.588 -0.0452  0.4533 -0.8120
  346MOL0     C46639   1.624   5.061   5.506 -0.0347  0.1317  0.3360
  346MOL0     C46640   1.670   5.152   5.444 -0.5476  0.1289  0.0981
  346MOL0     C46641   0.933   5.047   5.442  0.0288  0.7536  0.2622
  346MOL0     C46642   0.809   5.113   5.441 -0.5190 -0.2788  0.2770
  346MOL0     H46643   0.477   5.372   5.883  1.4302 -0.5689 -1.7535
  346MOL0     H46644   0.252   5.481   5.902  2.5557 -0.0425 -0.3832
  346MOL0     H46645   0.103   5.644   5.822 -1.3872  2.0493 -0.0137
  346MOL0     H46646   0.095   5.624   5.649 -1.5328  0.5442  0.3028
  346MOL0     H46647  -0.093   5.757   5.719 -0.4573  0.2557 -4.5426
  346MOL0     H46648  -0.127   5.619   5.623 -2.8046  0.2585  1.0513
  346MOL0     H46649  -0.185   5.494   5.817  1.0956  0.6284  0.2342
  346MOL0     H46650  -0.209   5.648   5.907  0.3402  0.4112 -0.4654
  346MOL0     H46651  -0.370   5.749   5.732 -3.1090 -0.5909 -0.3273
  346MOL0     H46652  -0.362   5.598   5.658  1.2227  0.6877 -1.0973
  346MOL0     H46653  -0.461   5.494   5.854 -1.1654  0.3987  1.8057
  346MOL0     H46654  -0.461   5.654   5.936  1.3413 -1.5997  0.6667
  346MOL0     H46655  -0.580   5.570   5.663  2.7079  2.9937 -0.8350
  346MOL0     H46656  -0.679   5.571   5.818  1.0613 -3.0815 -0.4397
  346MOL0     H46657  -0.615   5.821   5.844 -0.5323  0.2651  0.1987
  346MOL0     H46658  -0.580   5.812   5.674  0.2784 -2.3036 -2.2036
  346MOL0     H46659  -0.836   5.783   5.826 -1.8854 -0.3546 -0.7277
  346MOL0     H46660  -0.835   5.746   5.653 -1.3371  0.2145  0.1677
  346MOL0     H46661  -1.022   5.942   5.697  2.5142 -4.3557  1.1400
  346MOL0     H46662  -1.121   6.204   5.779  0.7735  0.7563  4.7369
  346MOL0     H46663  -0.982   6.312   5.807 -1.3794  0.2120 -0.0424
  346MOL0     H46664  -0.941   6.340   5.573  1.2742  0.3498  2.7354
  346MOL0     H46665  -1.092   6.397   5.617 -0.8118 -1.0671 -0.3448
  346MOL0     H46666  -1.208   6.177   5.549 -0.6253  0.9294 -0.4939
  346MOL0     H46667  -1.056   6.122   5.480 -0.8436 -0.8177  0.5410
  346MOL0     H46668  -1.187   6.222   5.301  3.2974  0.5469 -1.8264
  346MOL0     H46669  -1.070   6.344   5.333  1.7141 -1.2575  1.4241
  346MOL0     H46670  -1.483   6.483   5.453 -0.2575 -1.5726 -0.6324
  346MOL0     H46671  -1.691   6.507   5.424 -0.3552 -2.2967 -0.3876
  346MOL0     H46672  -1.718   6.652   5.317 -2.0761 -1.6170 -1.5044
  346MOL0     H46673  -1.763   6.485   5.272  0.6646 -2.0688  2.0325
  346MOL0     H46674  -1.870   6.472   4.908  0.2457 -0.0790  0.3208
  346MOL0     H46675  -2.025   6.433   4.735  0.1757  1.9995  2.5914
  346MOL0     H46676  -2.111   6.565   4.570 -1.0250  0.2884  0.1769
  346MOL0     H46677  -2.005   6.628   4.433 -0.7615 -0.4135 -1.1658
  346MOL0     H46678  -2.238   6.647   4.366 -1.2942 -0.1754  2.8976
  346MOL0     H46679  -2.155   6.518   4.276  1.1223 -0.5344  0.9161
  346MOL0     H46680  -2.340   6.473   4.533  0.4634  0.5552  0.9754
  346MOL0     H46681  -2.234   6.351   4.472  1.4381  1.7955 -0.3625
  346MOL0     H46682  -2.462   6.484   4.343  3.3029  2.3117 -0.0913
  346MOL0     H46683  -2.367   6.379   4.243 -2.8326 -2.0977  0.6218
  346MOL0     H46684  -2.395   6.192   4.425 -2.3985 -2.8365  1.8499
  346MOL0     H46685  -2.528   6.221   4.322 -0.8975  0.0594  0.5714
  346MOL0     H46686  -2.514   6.312   4.605  4.5448 -0.8151 -1.9310
  346MOL0     H46687  -2.617   6.398   4.496 -0.3327 -0.6196  2.2410
  346MOL0     H46688  -2.645   6.094   4.481  1.8770 -1.1517  0.8660
  346MOL0     H46689  -2.752   6.226   4.445  2.3719  0.6843 -2.0224
  346MOL0     H46690  -2.671   6.193   4.745  1.4675  0.0762 -0.3608
  346MOL0     H46691  -2.786   6.083   4.677  0.5312 -0.7883 -2.4736
  346MOL0     H46692  -1.717   6.473   4.438 -1.3494  0.0994 -0.9435
  346MOL0     H46693  -1.551   6.488   4.609 -0.1336 -1.5080 -1.6839
  346MOL0     H46694  -1.360   6.489   4.974 -0.0330 -0.1499 -0.0266
  346MOL0     H46695  -1.196   6.430   5.134 -1.0972 -2.4229 -2.0102
  346MOL0     H46696   0.106   5.242   5.582  2.4952 -0.6878 -2.7495
  346MOL0     H46697   0.307   5.133   5.558  1.5886  3.1443 -2.7721
  346MOL0     H46698   0.720   5.066   5.770 -0.5415 -1.4202 -0.3115
  346MOL0     H46699   0.957   4.998   5.783 -2.6994  3.2369  2.1909
  346MOL0     H46700   1.174   4.953   5.756 -1.1304 -0.4197  0.6602
  346MOL0     H46701   1.132   4.794   5.694  0.1553 -0.1858 -0.1432
  346MOL0     H46702   1.346   4.790   5.564  1.3988  2.0283 -0.5068
  346MOL0     H46703   1.369   4.816   5.743 -1.4057 -1.2516  0.6972
  346MOL0     H46704   1.393   5.043   5.699  0.1795 -3.3512  2.9649
  346MOL0     H46705   1.371   5.034   5.523  0.2313  0.1781 -0.7349
  346MOL0     H46706   1.587   4.867   5.536 -0.0694 -1.0371  1.6533
  346MOL0     H46707   1.624   4.947   5.678 -0.1840 -2.5004 -1.0580
  346MOL0     H46708   1.695   5.244   5.395 -2.4494 -0.8793 -3.0951
  346MOL0     H46709   0.991   5.026   5.353 -0.7172 -1.7670  0.3127
  346MOL0     H46710   0.769   5.142   5.344 -3.2270 -0.4050  1.2632
  347MOL0     O46711   5.989  10.442   1.654  0.0586 -0.6858 -0.3059
  347MOL0     C46712   6.106  10.407   1.681  0.8573  0.4150 -0.1242
  347MOL0     O46713   6.220  10.461   1.629 -0.7138 -0.3148  0.1529
  347MOL0     C46714   6.224  10.537   1.515 -0.4330  0.5841  0.4731
  347MOL0     C46715   6.112  10.563   1.431 -0.0156  0.1930 -0.7541
  347MOL0     C46716   6.125  10.644   1.323  0.1280  0.0035  0.3692
  347MOL0     C46717   6.245  10.698   1.284 -0.1674  0.6854  0.2960
  347MOL0     O46718   6.250  10.783   1.174 -0.2339 -0.0994 -1.0614
  347MOL0     C46719   6.330  10.907   1.183  0.0883  0.1800  0.2785
  347MOL0     C46720   6.232  11.007   1.229  1.0361 -0.2718  0.2494
  347MOL0     C46721   6.151  11.057   1.108  0.8934 -0.0520 -0.2455
  347MOL0     C46722   6.038  11.154   1.144 -0.0187 -0.7040 -0.6068
  347MOL0     C46723   5.962  11.222   1.031  0.4114 -0.2177  0.5221
  347MOL0     C46724   5.881  11.118   0.937  1.1155 -0.0822 -0.5917
  347MOL0     C46725   5.763  11.182   0.869 -0.6193 -0.3287  0.4681
  347MOL0     C46726   5.740  11.129   0.724 -0.4171 -0.1905 -0.2181
  347MOL0     N46727   5.611  11.176   0.665  0.0872 -0.0527  0.3427
  347MOL0     C46728   5.487  11.130   0.701 -0.1781 -0.0468 -0.6533
  347MOL0     C46729   5.404  11.185   0.604  0.4626  0.1751  0.1912
  347MOL0     C46730   5.263  11.156   0.584  0.4729  0.5238  0.2795
  347MOL0     C46731   5.226  11.187   0.433 -0.0251 -0.1355  0.1831
  347MOL0     C46732   5.080  11.138   0.409 -0.2427  1.0365  0.5820
  347MOL0     C46733   5.020  11.186   0.280  0.1510  0.5162 -0.2999
  347MOL0     O46734   4.892  11.121   0.259  0.5804  0.2192 -0.9406
  347MOL0     C46735   4.830  11.143   0.138 -0.1662 -0.3286 -0.2563
  347MOL0     C46736   4.897  11.138   0.016  0.1623 -0.6870 -0.6324
  347MOL0     C46737   4.834  11.161  -0.109  0.4967  0.0150 -0.1923
  347MOL0     C46738   4.924  11.157  -0.228 -0.1470 -0.1883 -0.3194
  347MOL0     C46739   4.692  11.180  -0.108  0.6551 -0.0001 -0.7596
  347MOL0     C46740   4.610  11.207  -0.226 -0.4918 -0.4751  0.0508
  347MOL0     O46741   4.483  11.257  -0.203  0.2078  0.0634  0.3175
  347MOL0     C46742   4.401  11.267  -0.309 -0.1696 -0.3325 -0.6519
  347MOL0     C46743   4.386  11.396  -0.363  0.1775 -1.0579 -0.3895
  347MOL0     C46744   4.310  11.409  -0.477  0.3779 -0.1983  0.1814
  347MOL0     C46745   4.237  11.301  -0.539  0.6671 -0.4190  0.0030
  347MOL0     O46746   4.154  11.344  -0.640  0.2210 -1.1682  0.3498
  347MOL0     C46747   4.039  11.256  -0.668  0.2631 -0.1944 -0.4733
  347MOL0     C46748   3.948  11.308  -0.782 -0.3284 -0.7575 -0.3590
  347MOL0     C46749   3.813  11.238  -0.783  0.7328  0.4230 -0.3393
  347MOL0     C46750   3.714  11.310  -0.874  0.7589 -0.4166  0.6243
  347MOL0     C46751   3.602  11.205  -0.899 -0.5874 -0.8248  0.6469
  347MOL0     C46752   3.486  11.246  -0.988  0.1209 -0.9153  0.5281
  347MOL0     C46753   3.415  11.372  -0.939 -0.4434 -0.4295  0.4940
  347MOL0     C46754   3.305  11.423  -1.037 -0.3328 -0.8701  0.9174
  347MOL0    Cl46755   3.181  11.302  -1.087 -0.1206  0.2870  0.6305
  347MOL0     C46756   4.250  11.177  -0.479  0.0062  0.3237 -0.0040
  347MOL0     C46757   4.332  11.158  -0.368 -0.4312 -0.7583  0.2267
  347MOL0     O46758   4.660  11.199  -0.339 -0.2159 -0.1485  0.1903
  347MOL0     C46759   4.627  11.184   0.025  0.0550 -1.1890 -0.1507
  347MOL0     C46760   4.691  11.154   0.141  0.4766 -0.1994  0.7308
  347MOL0     N46761   5.488  11.243   0.509  0.2573 -1.0285 -0.5694
  347MOL0     N46762   5.609  11.241   0.545  0.3481  0.2182 -0.5254
  347MOL0     C46763   6.356  10.663   1.351 -0.6014  0.5351 -0.5111
  347MOL0     C46764   6.348  10.578   1.464  1.2203  0.3488 -0.1491
  347MOL0     C46765   6.132  10.301   1.780  0.7275 -0.5730  0.3522
  347MOL0     C46766   6.255  10.302   1.839 -0.4840 -0.1417 -0.4238
  347MOL0     C46767   6.289  10.208   1.936 -0.0525  0.3040  0.4279
  347MOL0     C46768   6.190  10.123   1.988  0.0812  0.5677  0.9703
  347MOL0     O46769   6.224  10.042   2.094 -0.2809 -0.3483  0.0164
  347MOL0     C46770   6.144   9.944   2.151 -0.4717  0.0338 -0.5216
  347MOL0     C46771   6.197   9.901   2.290 -0.9251  0.5991 -0.0526
  347MOL0     C46772   6.232  10.023   2.379  0.8224  0.4931 -0.6577
  347MOL0     C46773   6.202  10.006   2.535  0.7736 -0.4374 -0.3430
  347MOL0     C46774   6.057  10.010   2.565  0.5634  0.8150 -1.0145
  347MOL0     C46775   5.940  10.013   2.583 -0.0421  0.0506 -0.7105
  347MOL0     C46776   6.058  10.128   1.934 -0.9790  0.2260 -0.1930
  347MOL0     C46777   6.032  10.210   1.823 -0.0788 -0.1079  0.1954
  347MOL0     H46778   6.010  10.528   1.440  0.0188  0.1189 -0.6462
  347MOL0     H46779   6.035  10.671   1.268  0.8344  4.0853  0.9300
  347MOL0     H46780   6.415  10.901   1.251 -0.2702 -0.4314  0.6739
  347MOL0     H46781   6.365  10.931   1.082 -3.0887  0.8338 -0.8137
  347MOL0     H46782   6.170  10.960   1.306  1.0048  0.2206  0.5239
  347MOL0     H46783   6.282  11.096   1.269 -0.7689  2.3501 -2.8538
  347MOL0     H46784   6.213  11.108   1.034 -0.2815  1.7848 -0.0077
  347MOL0     H46785   6.115  10.966   1.060  1.5246 -0.3367 -0.1987
  347MOL0     H46786   5.959  11.097   1.193  0.2008 -2.1452 -1.8477
  347MOL0     H46787   6.075  11.229   1.215 -2.0650 -0.1536 -0.0688
  347MOL0     H46788   5.880  11.285   1.070 -0.8952 -1.1487 -0.6344
  347MOL0     H46789   6.027  11.276   0.962 -3.5347  1.4870 -2.2386
  347MOL0     H46790   5.945  11.066   0.865  0.5059 -0.0772 -1.1363
  347MOL0     H46791   5.838  11.050   1.010 -3.1383  2.6067 -0.2651
  347MOL0     H46792   5.681  11.184   0.940  0.2026  1.3068  1.4153
  347MOL0     H46793   5.789  11.288   0.861 -2.4184  0.2829  2.0360
  347MOL0     H46794   5.747  11.020   0.725  0.6735 -0.1269  0.1431
  347MOL0     H46795   5.818  11.162   0.654  0.6920 -1.4458  0.3819
  347MOL0     H46796   5.461  11.073   0.790  1.0716  0.2424 -0.0831
  347MOL0     H46797   5.242  11.052   0.610 -0.2185  1.2487  2.8667
  347MOL0     H46798   5.207  11.210   0.661  0.8832 -0.1966  1.1000
  347MOL0     H46799   5.297  11.138   0.366 -0.0631 -1.0228  0.7767
  347MOL0     H46800   5.240  11.292   0.404  0.0952 -0.7449 -2.2281
  347MOL0     H46801   5.013  11.170   0.490  0.3478  1.4104  0.9262
  347MOL0     H46802   5.075  11.028   0.413 -0.0646  1.0013  0.0023
  347MOL0     H46803   5.091  11.150   0.205  0.4202 -1.7306  0.9448
  347MOL0     H46804   5.008  11.294   0.283  1.7986  0.6996  2.0629
  347MOL0     H46805   5.004  11.123   0.011  0.6048  1.4377  0.9080
  347MOL0     H46806   5.013  11.098  -0.204  0.1633 -0.4215 -1.9372
  347MOL0     H46807   4.871  11.110  -0.312  2.1867  0.1668 -2.0721
  347MOL0     H46808   4.949  11.259  -0.260  1.0870 -0.7442 -1.1860
  347MOL0     H46809   4.446  11.477  -0.323  1.1998 -0.8561 -2.1844
  347MOL0     H46810   4.290  11.509  -0.516  2.0677  0.1589  0.1441
  347MOL0     H46811   4.081  11.161  -0.700  2.8207  1.2168 -1.6112
  347MOL0     H46812   3.981  11.244  -0.576  1.5717  0.2626  0.4339
  347MOL0     H46813   3.931  11.415  -0.772 -2.3438 -0.9706 -0.9205
  347MOL0     H46814   3.996  11.295  -0.880  0.2107 -1.5003 -0.0066
  347MOL0     H46815   3.774  11.243  -0.681 -1.4330  1.3561 -1.1575
  347MOL0     H46816   3.828  11.132  -0.801  0.6055  0.5985 -1.5255
  347MOL0     H46817   3.678  11.405  -0.832  0.5154  1.4207 -3.2802
  347MOL0     H46818   3.769  11.345  -0.961 -0.7846  1.8468  0.4576
  347MOL0     H46819   3.568  11.181  -0.797  0.7343  0.3129  1.3919
  347MOL0     H46820   3.641  11.111  -0.938  0.2566 -0.8070  1.4161
  347MOL0     H46821   3.532  11.258  -1.087  1.3704 -3.1018  0.7852
  347MOL0     H46822   3.410  11.169  -0.993 -0.8868  0.0800  0.0172
  347MOL0     H46823   3.487  11.450  -0.916 -0.2579 -0.3287 -0.3712
  347MOL0     H46824   3.372  11.354  -0.840 -0.5390  0.4538  0.6266
  347MOL0     H46825   3.350  11.458  -1.130 -2.3974  1.8117  0.8084
  347MOL0     H46826   3.255  11.509  -0.991 -2.1796 -2.8627  2.8684
  347MOL0     H46827   4.202  11.090  -0.522 -0.2000  0.8563 -0.8766
  347MOL0     H46828   4.355  11.056  -0.338 -0.2553 -0.4261  1.2733
  347MOL0     H46829   4.521  11.204   0.031  0.4851  1.9014 -1.1317
  347MOL0     H46830   4.658  11.159   0.244  4.5113 -0.8705  2.2362
  347MOL0     H46831   6.454  10.688   1.311 -1.0240  0.2508 -1.7893
  347MOL0     H46832   6.430  10.547   1.528  0.1631  0.9726  1.5598
  347MOL0     H46833   6.331  10.372   1.808  0.0914 -0.1427  0.9171
  347MOL0     H46834   6.392  10.211   1.970  0.5417 -2.4093 -0.8314
  347MOL0     H46835   6.043   9.983   2.164 -0.1987  0.5487  0.0780
  347MOL0     H46836   6.141   9.863   2.077  1.0854  0.9034 -1.6072
  347MOL0     H46837   6.287   9.839   2.280  1.5299  3.2518  3.3266
  347MOL0     H46838   6.105   9.859   2.332 -1.4391  1.5357 -0.2292
  347MOL0     H46839   6.190  10.118   2.345  0.0763  1.2299  2.0300
  347MOL0     H46840   6.340  10.037   2.379  1.0244 -0.6720  1.2398
  347MOL0     H46841   6.256  10.088   2.584  1.1749 -0.4720 -0.7181
  347MOL0     H46842   6.251   9.918   2.577  0.2704  0.0808  1.4084
  347MOL0     H46843   5.834  10.011   2.596  0.2210 -1.3372  1.9929
  347MOL0     H46844   5.986  10.054   1.969  0.4889 -0.5726  1.2687
  347MOL0     H46845   5.936  10.187   1.778  0.1072 -1.0032  0.2277
  348MOL0     O46846   5.190   0.620   4.539 -0.3704 -0.1982 -0.0437
  348MOL0     C46847   5.235   0.676   4.639  0.2951  0.6282  0.3245
  348MOL0     O46848   5.163   0.713   4.746  0.3773 -0.6329 -0.3391
  348MOL0     C46849   5.030   0.687   4.763  0.7841 -0.3405  0.4381
  348MOL0     C46850   4.947   0.796   4.790 -0.2375 -0.8701  0.2186
  348MOL0     C46851   4.808   0.784   4.818 -1.1084  0.4696 -0.2538
  348MOL0     C46852   4.741   0.663   4.807  0.2158  0.2114  0.1543
  348MOL0     O46853   4.599   0.653   4.823  0.0747 -0.3183  1.0327
  348MOL0     C46854   4.540   0.579   4.714  0.2318 -1.0691  0.3092
  348MOL0     C46855   4.411   0.651   4.680  1.2059 -0.4644 -0.1284
  348MOL0     C46856   4.289   0.620   4.769 -0.0360 -0.0694 -0.1244
  348MOL0     C46857   4.149   0.670   4.729 -0.0698  0.4209 -0.8829
  348MOL0     C46858   4.053   0.634   4.849  0.8191  0.5357  0.5664
  348MOL0     C46859   3.908   0.666   4.819 -0.7590 -0.2795 -0.7787
  348MOL0     C46860   3.807   0.646   4.947 -0.3314 -0.0918  1.0304
  348MOL0     C46861   3.660   0.670   4.919  0.0985 -0.0734 -0.3927
  348MOL0     N46862   3.584   0.640   5.045  0.1316  0.1657 -0.4037
  348MOL0     C46863   3.453   0.613   5.040 -0.5593 -1.2810 -1.1198
  348MOL0     C46864   3.408   0.620   5.173 -0.1046  0.0866  0.2437
  348MOL0     C46865   3.270   0.587   5.218 -0.2979  0.0121  0.3895
  348MOL0     C46866   3.190   0.709   5.268  0.7735 -0.0709 -0.2253
  348MOL0     C46867   3.039   0.682   5.291 -0.6350  0.6926 -0.3418
  348MOL0     C46868   2.973   0.793   5.363  0.8874 -0.0712 -0.4416
  348MOL0     O46869   2.835   0.771   5.351 -0.0910 -0.4762 -0.0807
  348MOL0     C46870   2.745   0.875   5.364 -0.2689 -0.2175 -0.1938
  348MOL0     C46871   2.762   0.985   5.449 -0.2599  0.4089 -0.0172
  348MOL0     C46872   2.670   1.089   5.450 -0.6021  0.0715  0.4524
  348MOL0     C46873   2.692   1.205   5.554 -0.1016  0.3135  0.1133
  348MOL0     C46874   2.545   1.081   5.380  0.1734 -0.2584  0.6762
  348MOL0     C46875   2.436   1.190   5.364  0.6969  0.5791 -0.2618
  348MOL0     O46876   2.327   1.146   5.295  0.2085 -0.4698  0.3303
  348MOL0     C46877   2.214   1.225   5.267 -0.2128 -0.1315 -0.1168
  348MOL0     C46878   2.109   1.152   5.215 -0.4810 -0.3989  0.9631
  348MOL0     C46879   1.987   1.206   5.173 -0.1934 -0.8971  0.5084
  348MOL0     C46880   1.970   1.348   5.184  0.3138 -0.3030 -0.0343
  348MOL0     O46881   1.848   1.405   5.151 -0.1939  0.0543 -0.4067
  348MOL0     C46882   1.840   1.543   5.113  0.8157  0.6899  0.5577
  348MOL0     C46883   1.704   1.568   5.037 -0.2319  0.2733  0.6368
  348MOL0     C46884   1.579   1.535   5.125 -0.2887 -0.4715  0.2476
  348MOL0     C46885   1.445   1.566   5.047  0.9024 -0.4028 -0.5431
  348MOL0     C46886   1.331   1.588   5.155  0.2289 -0.8110 -0.1299
  348MOL0     C46887   1.202   1.645   5.076  0.0590  0.8916 -0.7613
  348MOL0     C46888   1.098   1.686   5.175 -0.2729 -0.3439 -0.1670
  348MOL0     C46889   0.962   1.705   5.103 -0.4055  0.0228 -0.5721
  348MOL0    Cl46890   0.911   1.604   4.976 -0.1070 -0.0337 -0.2484
  348MOL0     C46891   2.075   1.422   5.227 -0.7655  0.4156 -0.5645
  348MOL0     C46892   2.201   1.361   5.266 -0.2630 -0.0110 -1.4771
  348MOL0     O46893   2.448   1.297   5.419 -0.0878 -0.0039 -0.1290
  348MOL0     C46894   2.517   0.961   5.306 -0.7725 -0.0293 -0.2703
  348MOL0     C46895   2.618   0.859   5.305  0.0059 -0.4298 -0.2117
  348MOL0     N46896   3.525   0.620   5.242  0.3838  0.0108 -0.0021
  348MOL0     N46897   3.631   0.658   5.173  0.2399 -0.1139  0.1042
  348MOL0     C46898   4.823   0.551   4.776  0.7085  0.5827  0.4523
  348MOL0     C46899   4.964   0.564   4.753 -0.2361 -0.0583 -0.4964
  348MOL0     C46900   5.378   0.712   4.639 -0.0572 -0.4079  1.4224
  348MOL0     C46901   5.446   0.759   4.750 -0.3458 -0.5219  0.6587
  348MOL0     C46902   5.579   0.796   4.752 -0.4317  0.4475 -0.1355
  348MOL0     C46903   5.657   0.777   4.637  0.5943 -0.2519 -0.4622
  348MOL0     O46904   5.787   0.815   4.641 -0.2495 -0.7965  0.1880
  348MOL0     C46905   5.867   0.813   4.517 -0.5645 -0.4672 -0.1713
  348MOL0     C46906   6.012   0.862   4.557  0.3387 -0.0448 -0.1474
  348MOL0     C46907   6.093   0.902   4.432 -0.7282 -0.2414  0.8012
  348MOL0     C46908   6.102   0.789   4.333  0.1467 -0.0315  0.1378
  348MOL0     C46909   6.208   0.800   4.235  0.0264  0.1458  0.3332
  348MOL0     C46910   6.301   0.786   4.151 -1.0463 -0.7572  0.3173
  348MOL0     C46911   5.588   0.722   4.524  0.1619 -0.1492 -0.5697
  348MOL0     C46912   5.457   0.697   4.520 -0.0258  0.4078 -0.2792
  348MOL0     H46913   4.988   0.895   4.776 -0.7979 -0.6177  0.3367
  348MOL0     H46914   4.766   0.880   4.846 -2.2538 -0.3469  1.0037
  348MOL0     H46915   4.599   0.581   4.622 -2.0053 -0.6925 -1.1948
  348MOL0     H46916   4.520   0.473   4.732 -3.2208 -1.0383 -2.1520
  348MOL0     H46917   4.423   0.760   4.685 -3.5872  0.7365 -4.8234
  348MOL0     H46918   4.383   0.625   4.578 -0.6523 -1.0749  0.4946
  348MOL0     H46919   4.297   0.511   4.777  0.1488 -0.0776 -0.4217
  348MOL0     H46920   4.316   0.662   4.867 -0.2468  0.4822 -0.2976
  348MOL0     H46921   4.144   0.777   4.711 -2.2934  0.3692 -0.8903
  348MOL0     H46922   4.117   0.620   4.637 -0.4947 -1.5503  0.2485
  348MOL0     H46923   4.055   0.528   4.874 -0.3657 -0.0899 -1.7284
  348MOL0     H46924   4.090   0.691   4.936 -0.4442 -1.1505  2.2786
  348MOL0     H46925   3.901   0.772   4.793  1.0446 -0.7345 -3.4977
  348MOL0     H46926   3.883   0.603   4.733  2.7935  0.1043 -2.2339
  348MOL0     H46927   3.813   0.539   4.968  1.1327  0.0976  1.7031
  348MOL0     H46928   3.843   0.712   5.026 -1.1057  1.7178 -0.0568
  348MOL0     H46929   3.626   0.597   4.845  1.1019  0.5657 -1.5212
  348MOL0     H46930   3.646   0.775   4.892  1.6607  0.7270  1.5994
  348MOL0     H46931   3.399   0.614   4.946  3.5653  0.1651 -3.7792
  348MOL0     H46932   3.216   0.541   5.135 -1.5938  0.4371  0.9636
  348MOL0     H46933   3.272   0.515   5.300 -1.0897 -2.4132 -1.6078
  348MOL0     H46934   3.195   0.791   5.196 -0.0395 -2.0409 -2.6503
  348MOL0     H46935   3.234   0.745   5.362  1.4802  1.8384 -1.2281
  348MOL0     H46936   3.040   0.605   5.369  0.1096  0.8757 -0.1632
  348MOL0     H46937   2.973   0.657   5.208 -0.1350  0.2903 -0.6245
  348MOL0     H46938   2.993   0.891   5.318 -1.5326  0.8414  0.3371
  348MOL0     H46939   3.003   0.792   5.468 -1.8837  1.0731  0.4297
  348MOL0     H46940   2.854   1.001   5.503 -1.3387  3.4695  1.1764
  348MOL0     H46941   2.715   1.302   5.510 -0.9795  1.4652  2.0629
  348MOL0     H46942   2.597   1.215   5.606  0.3114 -0.2364  0.9992
  348MOL0     H46943   2.767   1.179   5.630 -0.7563  1.3188  1.1259
  348MOL0     H46944   2.099   1.046   5.192 -0.6936  0.2607 -2.5819
  348MOL0     H46945   1.900   1.150   5.140 -0.4712 -0.7694  1.0154
  348MOL0     H46946   1.848   1.601   5.206  2.1535 -2.1956  2.4021
  348MOL0     H46947   1.928   1.569   5.054  2.4761  1.6312  3.2785
  348MOL0     H46948   1.704   1.672   5.005  1.9647  0.0896 -0.1763
  348MOL0     H46949   1.724   1.510   4.946  1.2734 -1.2249  1.8329
  348MOL0     H46950   1.575   1.602   5.211 -0.7773  1.5355 -1.2632
  348MOL0     H46951   1.575   1.430   5.156 -1.5742 -0.4317  0.2667
  348MOL0     H46952   1.453   1.657   4.986 -1.6446 -0.0554 -0.5049
  348MOL0     H46953   1.423   1.490   4.972  0.5309 -2.2186  1.3026
  348MOL0     H46954   1.352   1.662   5.233  1.1466 -1.5564  0.3374
  348MOL0     H46955   1.301   1.494   5.201 -1.5846  0.4865  1.5202
  348MOL0     H46956   1.237   1.734   5.023  1.2403  0.8534 -0.0776
  348MOL0     H46957   1.168   1.567   5.008 -3.0472  0.1181  1.4469
  348MOL0     H46958   1.118   1.780   5.227  0.1473 -0.7657  0.4499
  348MOL0     H46959   1.094   1.607   5.250  0.3875 -1.8136 -1.6029
  348MOL0     H46960   0.963   1.803   5.054 -0.6664 -0.0358 -0.6910
  348MOL0     H46961   0.878   1.700   5.173 -0.5585 -2.4318 -0.8602
  348MOL0     H46962   2.059   1.529   5.235 -0.5235  0.3939  0.3998
  348MOL0     H46963   2.286   1.420   5.298  0.5100 -2.2845  1.0234
  348MOL0     H46964   2.425   0.943   5.252  0.2844  1.4517 -2.7479
  348MOL0     H46965   2.606   0.769   5.245  1.0901 -0.8204  0.1377
  348MOL0     H46966   4.790   0.449   4.763 -0.8231  1.2262 -1.0505
  348MOL0     H46967   5.027   0.481   4.721  1.7314  0.5174  1.5962
  348MOL0     H46968   5.382   0.774   4.837  1.5741 -0.3758  2.1215
  348MOL0     H46969   5.613   0.840   4.845 -2.0179  3.8595 -1.0440
  348MOL0     H46970   5.871   0.713   4.472 -2.0986 -1.1478  1.0701
  348MOL0     H46971   5.818   0.882   4.448  0.7635  2.1466  1.3394
  348MOL0     H46972   6.059   0.787   4.621  1.6206  2.5391  2.1680
  348MOL0     H46973   5.999   0.952   4.618 -0.8349 -0.1816 -0.1836
  348MOL0     H46974   6.195   0.922   4.464 -0.3478  0.8775 -0.9726
  348MOL0     H46975   6.059   0.996   4.387 -1.4264 -1.6029 -1.7332
  348MOL0     H46976   6.016   0.777   4.266  0.2138 -1.4967  0.2941
  348MOL0     H46977   6.117   0.696   4.389 -0.1120 -0.3685 -0.3458
  348MOL0     H46978   6.394   0.776   4.099 -1.3008 -2.9493  0.1794
  348MOL0     H46979   5.644   0.694   4.435 -1.3642 -0.1772 -1.5628
  348MOL0     H46980   5.423   0.635   4.438  0.8827 -1.6945  0.8621
  349MOL0     O46981   9.819   3.701   5.997 -0.2200 -0.0100 -0.8799
  349MOL0     C46982   9.707   3.745   6.021  0.1476 -0.3917 -0.1951
  349MOL0     O46983   9.678   3.871   6.062 -0.3611  0.2006  0.7319
  349MOL0     C46984   9.773   3.977   6.074  1.1175 -0.2925 -0.3836
  349MOL0     C46985   9.758   4.056   6.182  0.3872  0.3350  0.0184
  349MOL0     C46986   9.846   4.157   6.211 -0.1460 -0.4028  0.4588
  349MOL0     C46987   9.964   4.179   6.133  0.0845 -0.0157  0.1041
  349MOL0     O46988  10.054   4.279   6.161  0.4815 -0.2450  0.5604
  349MOL0     C46989  10.081   4.311   6.298  0.4827 -0.4805 -0.4714
  349MOL0     C46990  10.230   4.309   6.333  0.6967  0.1105 -1.8989
  349MOL0     C46991  10.306   4.174   6.306 -0.2008 -0.7637 -0.2589
  349MOL0     C46992  10.374   4.151   6.170 -0.0733 -0.3865  0.0957
  349MOL0     C46993  10.427   4.008   6.168  1.1407 -0.1710  0.2946
  349MOL0     C46994  10.497   3.993   6.036  1.1268  0.5477  0.4238
  349MOL0     C46995  10.524   3.844   6.012 -0.0468 -0.0927 -0.2294
  349MOL0     C46996  10.595   3.769   6.131 -0.4429  0.6775 -0.5682
  349MOL0     N46997  10.636   3.625   6.104 -0.5981  0.4440  0.5785
  349MOL0     C46998  10.734   3.581   6.016  0.2352 -0.3934 -0.1334
  349MOL0     C46999  10.762   3.453   6.060  1.0242 -0.1193  0.5614
  349MOL0     C47000  10.865   3.370   6.016 -0.7478 -0.2432  0.5502
  349MOL0     C47001  10.828   3.297   5.884  0.3433  0.1663  0.4433
  349MOL0     C47002  10.743   3.165   5.909 -0.4558 -0.6806  0.3489
  349MOL0     C47003  10.682   3.095   5.788  1.1988 -0.2160 -0.0820
  349MOL0     O47004  10.584   3.174   5.717 -0.6886  0.1804 -0.3353
  349MOL0     C47005  10.456   3.153   5.763 -0.6485  0.1530  0.4938
  349MOL0     C47006  10.380   3.042   5.724 -1.5223 -0.0738 -0.3153
  349MOL0     C47007  10.256   3.023   5.789 -0.7224  0.5054  0.5970
  349MOL0     C47008  10.183   2.895   5.742 -0.4959  0.1139  0.3272
  349MOL0     C47009  10.192   3.124   5.861  0.3780  0.7307  0.2466
  349MOL0     C47010  10.046   3.117   5.888 -0.2248  0.1819  0.1321
  349MOL0     O47011   9.991   2.995   5.919  0.4544  0.0425 -0.0323
  349MOL0     C47012   9.860   2.980   5.962 -0.2156 -0.0563  0.1696
  349MOL0     C47013   9.758   2.944   5.872 -0.9173 -0.5970  0.6984
  349MOL0     C47014   9.631   2.930   5.910  0.7582 -0.5048  0.0649
  349MOL0     C47015   9.590   2.955   6.038 -0.2598  0.0958 -0.2469
  349MOL0     O47016   9.454   2.941   6.054 -0.5263 -0.2880  0.2435
  349MOL0     C47017   9.402   2.929   6.187 -0.3007 -0.8247  0.3551
  349MOL0     C47018   9.295   2.816   6.192  0.1655 -0.0769 -0.2242
  349MOL0     C47019   9.161   2.844   6.109 -1.5242  0.5819  0.1116
  349MOL0     C47020   9.056   2.742   6.154  0.0932  0.8939 -0.0167
  349MOL0     C47021   8.929   2.779   6.073 -0.3656  0.7226  0.2810
  349MOL0     C47022   8.816   2.672   6.101  0.0423 -0.0706  0.6500
  349MOL0     C47023   8.699   2.703   6.006 -0.0802  0.4203  0.0757
  349MOL0     C47024   8.581   2.612   6.044 -0.1896 -0.9313 -0.8166
  349MOL0    Cl47025   8.435   2.651   5.946 -0.3402  0.5717  0.4570
  349MOL0     C47026   9.686   3.015   6.126  1.4130 -0.0030  0.4308
  349MOL0     C47027   9.823   3.024   6.093 -0.4533  0.4770  1.1447
  349MOL0     O47028   9.977   3.222   5.883 -0.2346  0.0446 -0.3269
  349MOL0     C47029  10.266   3.248   5.884  0.2157  0.5151  0.7691
  349MOL0     C47030  10.400   3.257   5.836 -0.4075 -0.3041 -0.9710
  349MOL0     N47031  10.676   3.416   6.161  0.2212  0.0107  0.2436
  349MOL0     N47032  10.614   3.527   6.195 -0.0694  0.8710 -0.0486
  349MOL0     C47033   9.984   4.083   6.025 -0.4020 -0.2011 -0.5201
  349MOL0     C47034   9.881   3.995   5.985  1.2129  0.2587  0.4245
  349MOL0     C47035   9.594   3.649   6.022 -0.0182  0.4696  0.0615
  349MOL0     C47036   9.612   3.515   5.983  0.6149  0.4505 -0.2040
  349MOL0     C47037   9.501   3.431   5.993  0.3366  0.4899  0.1856
  349MOL0     C47038   9.371   3.467   6.036  0.3873  0.2031 -0.3712
  349MOL0     O47039   9.256   3.388   6.031 -0.8253  0.7371 -0.1303
  349MOL0     C47040   9.250   3.273   5.945 -0.4123  0.4867  0.6962
  349MOL0     C47041   9.112   3.216   5.947  0.0337 -0.0961 -0.1851
  349MOL0     C47042   9.019   3.317   5.867  0.3188 -0.1016  0.5297
  349MOL0     C47043   8.866   3.295   5.863  0.1423  0.1861 -0.6644
  349MOL0     C47044   8.838   3.150   5.848 -0.2530  0.9418 -0.2691
  349MOL0     C47045   8.803   3.026   5.840 -1.3815 -0.2675 -0.1923
  349MOL0     C47046   9.351   3.599   6.073 -0.9017 -0.2034  0.4262
  349MOL0     C47047   9.465   3.689   6.066 -0.2995  0.4186  0.2166
  349MOL0     H47048   9.684   4.027   6.256  1.2434  1.4261  1.3646
  349MOL0     H47049   9.827   4.225   6.293  1.2694  0.9052 -0.2428
  349MOL0     H47050  10.038   4.409   6.322  1.5107  0.4857 -2.3476
  349MOL0     H47051  10.054   4.233   6.369  3.3854 -0.8473  0.3609
  349MOL0     H47052  10.278   4.390   6.275  1.5982  0.1501 -1.1239
  349MOL0     H47053  10.232   4.330   6.440 -3.5629 -1.6921 -1.2708
  349MOL0     H47054  10.391   4.169   6.375 -0.2318 -2.1585 -0.2860
  349MOL0     H47055  10.230   4.099   6.330 -2.6764  2.1545  1.7746
  349MOL0     H47056  10.301   4.158   6.088 -1.2670 -1.9810  0.9592
  349MOL0     H47057  10.459   4.219   6.161 -0.3959  0.5276  3.0788
  349MOL0     H47058  10.490   3.993   6.256 -1.7630 -0.2624  2.5084
  349MOL0     H47059  10.338   3.946   6.183 -0.6142  2.7481  3.0838
  349MOL0     H47060  10.426   4.011   5.954  2.8463  1.7639 -0.8940
  349MOL0     H47061  10.586   4.055   6.022  0.6786  0.7475 -2.0979
  349MOL0     H47062  10.436   3.788   5.979  1.8674 -2.8749 -0.9392
  349MOL0     H47063  10.596   3.841   5.929  2.4313 -1.6890  1.8366
  349MOL0     H47064  10.544   3.765   6.227 -0.0528  0.3172 -0.3717
  349MOL0     H47065  10.686   3.829   6.144 -0.1448  0.5423 -1.8702
  349MOL0     H47066  10.804   3.641   5.960  1.3170 -0.6436  0.9214
  349MOL0     H47067  10.951   3.437   6.014 -2.5390  2.3276  2.1481
  349MOL0     H47068  10.874   3.300   6.100  2.3810 -1.6537 -0.8333
  349MOL0     H47069  10.920   3.272   5.829  0.9948  0.6140  1.3092
  349MOL0     H47070  10.769   3.359   5.815  0.2518  0.0232  0.3929
  349MOL0     H47071  10.657   3.184   5.975 -1.2572 -1.9290 -0.2909
  349MOL0     H47072  10.803   3.092   5.963  0.8993  2.1523  2.9692
  349MOL0     H47073  10.640   3.001   5.824  1.9487 -1.1553 -1.5521
  349MOL0     H47074  10.762   3.067   5.718  1.3708  0.1129 -0.0193
  349MOL0     H47075  10.428   2.963   5.667  3.7392  1.9338  0.7710
  349MOL0     H47076  10.139   2.830   5.818 -0.0429  1.2495  1.5836
  349MOL0     H47077  10.105   2.922   5.669 -2.0506 -0.4272  1.7392
  349MOL0     H47078  10.252   2.835   5.683 -2.0224 -0.2845 -1.1572
  349MOL0     H47079   9.786   2.909   5.774  0.0543  1.6266  0.1161
  349MOL0     H47080   9.557   2.884   5.845 -1.1386 -0.5706  2.1361
  349MOL0     H47081   9.493   2.913   6.246  0.0878  1.6313  0.5063
  349MOL0     H47082   9.349   3.017   6.223 -0.2820 -0.6600 -0.0156
  349MOL0     H47083   9.343   2.721   6.165  1.0371  0.2391  0.1690
  349MOL0     H47084   9.270   2.801   6.297  0.1675  1.3672  0.0006
  349MOL0     H47085   9.179   2.832   6.002  1.1818 -0.2942  0.5638
  349MOL0     H47086   9.127   2.947   6.121  2.1439  1.9315  0.0825
  349MOL0     H47087   9.082   2.637   6.143  1.5132  1.4170 -2.2364
  349MOL0     H47088   9.030   2.743   6.261  0.4740  2.3346  0.0903
  349MOL0     H47089   8.944   2.779   5.964  0.8116 -1.9016  0.3740
  349MOL0     H47090   8.892   2.878   6.101 -0.3764  0.2188  2.1787
  349MOL0     H47091   8.846   2.568   6.084  3.2032  1.0868 -1.8625
  349MOL0     H47092   8.793   2.682   6.207 -2.0549 -0.9702  0.3244
  349MOL0     H47093   8.735   2.687   5.904  3.0267  3.9253  0.4238
  349MOL0     H47094   8.677   2.808   6.026  2.5630  1.0500  0.1419
  349MOL0     H47095   8.561   2.625   6.151  2.0840  3.1751 -0.6787
  349MOL0     H47096   8.612   2.508   6.033  3.0269 -0.4430  1.9016
  349MOL0     H47097   9.660   3.040   6.229  0.1619 -1.1963  0.4445
  349MOL0     H47098   9.897   3.063   6.162  2.0310 -0.8793 -0.6158
  349MOL0     H47099  10.209   3.333   5.918 -1.0957  0.6833 -1.6017
  349MOL0     H47100  10.461   3.347   5.837  2.8290 -2.2376  2.4183
  349MOL0     H47101  10.070   4.083   5.958  1.5738 -3.4058  1.7038
  349MOL0     H47102   9.895   3.946   5.889  1.0270  4.3624 -1.9312
  349MOL0     H47103   9.704   3.466   5.952  2.6699  1.0618  4.1439
  349MOL0     H47104   9.502   3.327   5.959 -0.1665  0.6657 -0.3973
  349MOL0     H47105   9.284   3.294   5.843  0.7877  1.0363  1.1895
  349MOL0     H47106   9.319   3.195   5.976 -2.3796 -1.9324 -0.6607
  349MOL0     H47107   9.079   3.205   6.050 -0.5361 -0.9151 -0.4451
  349MOL0     H47108   9.105   3.117   5.900 -2.2209 -0.5356  0.9384
  349MOL0     H47109   9.043   3.320   5.761 -0.5996 -0.5842  0.3044
  349MOL0     H47110   9.020   3.416   5.914 -2.0560  0.4914 -0.5416
  349MOL0     H47111   8.824   3.361   5.787 -0.9556  0.4798  0.1724
  349MOL0     H47112   8.832   3.327   5.962  2.7065 -1.8063  1.0096
  349MOL0     H47113   8.786   2.921   5.837  0.5675 -0.6304  0.0123
  349MOL0     H47114   9.251   3.626   6.105 -0.5641  0.7282  0.7508
  349MOL0     H47115   9.445   3.792   6.095 -0.5283 -0.0095  1.6341
  350MOL0     O47116   2.948   5.431   6.118  0.2507  0.1698 -0.3821
  350MOL0     C47117   2.913   5.551   6.135 -0.4875  0.1528  0.3908
  350MOL0     O47118   2.981   5.663   6.088  0.0898 -0.7356  0.3434
  350MOL0     C47119   3.111   5.645   6.037 -0.2544 -0.6777  0.7036
  350MOL0     C47120   3.164   5.532   5.973 -0.6425  0.3772 -0.2815
  350MOL0     C47121   3.300   5.529   5.935 -0.4952 -0.2937 -0.5049
  350MOL0     C47122   3.385   5.644   5.939 -0.3741  0.4843 -0.3939
  350MOL0     O47123   3.520   5.631   5.910  0.0449 -0.8205 -0.0858
  350MOL0     C47124   3.569   5.693   5.792  0.4928  0.4701 -0.2191
  350MOL0     C47125   3.596   5.587   5.681 -0.1265 -0.5940 -0.1912
  350MOL0     C47126   3.606   5.634   5.532 -0.2325 -0.2257 -0.3596
  350MOL0     C47127   3.483   5.607   5.440  0.4010  0.1275 -0.4407
  350MOL0     C47128   3.438   5.717   5.346 -0.4623  0.0661  0.5791
  350MOL0     C47129   3.339   5.656   5.253  0.4511 -0.0267  0.2892
  350MOL0     C47130   3.379   5.703   5.109  0.8652 -0.8001  0.1894
  350MOL0     C47131   3.310   5.627   4.994  0.1363  0.4321 -0.0596
  350MOL0     N47132   3.174   5.669   5.004  1.0886 -0.5451  1.1690
  350MOL0     C47133   3.062   5.625   5.079  0.1502  0.7054 -0.1517
  350MOL0     C47134   2.961   5.717   5.081 -0.2854 -0.8886  0.2105
  350MOL0     C47135   2.837   5.708   5.164 -0.9387 -0.3102  1.3225
  350MOL0     C47136   2.715   5.777   5.094 -0.5138  1.1761  0.8580
  350MOL0     C47137   2.660   5.703   4.975 -0.2186 -0.3137  0.2222
  350MOL0     C47138   2.520   5.753   4.929 -0.9300  0.4484  0.6758
  350MOL0     O47139   2.413   5.681   5.002  0.3988 -0.8608 -0.3517
  350MOL0     C47140   2.281   5.712   4.970 -0.3258  2.3070 -0.8563
  350MOL0     C47141   2.233   5.788   4.859  0.0853  0.0832  0.4800
  350MOL0     C47142   2.094   5.824   4.850 -0.5323  0.4353  0.1257
  350MOL0     C47143   2.045   5.914   4.736 -0.2171  0.1594  0.5610
  350MOL0     C47144   2.004   5.782   4.945  0.5669  0.1745 -0.3009
  350MOL0     C47145   1.863   5.814   4.944 -0.8846  0.7597 -0.1377
  350MOL0     O47146   1.800   5.817   5.066 -0.2168  0.4762  0.4473
  350MOL0     C47147   1.664   5.840   5.072 -0.1216 -0.5061  0.7588
  350MOL0     C47148   1.614   5.972   5.069  0.9476 -0.7097  0.6663
  350MOL0     C47149   1.475   6.002   5.080 -0.2260 -0.6392 -0.7768
  350MOL0     C47150   1.383   5.904   5.104  0.1086 -0.0155  0.2313
  350MOL0     O47151   1.255   5.919   5.126  0.0031 -0.2451 -0.3036
  350MOL0     C47152   1.194   6.051   5.142  0.1797 -0.6682  0.3929
  350MOL0     C47153   1.159   6.073   5.294  0.7564  0.6208 -0.0884
  350MOL0     C47154   1.054   5.976   5.350  0.8618  0.0771  0.4280
  350MOL0     C47155   1.058   5.997   5.499  0.0031 -0.2037 -0.5608
  350MOL0     C47156   0.954   5.908   5.575  0.0197  0.7531  0.3072
  350MOL0     C47157   0.809   5.955   5.542 -0.2965 -0.2808 -0.7573
  350MOL0     C47158   0.781   6.100   5.578 -0.7232  0.6113 -0.1036
  350MOL0     C47159   0.637   6.128   5.609  0.1263 -0.3828  0.4533
  350MOL0    Cl47160   0.630   6.285   5.690  0.3550  0.3274 -0.6326
  350MOL0     C47161   1.435   5.771   5.113 -0.7627 -0.3700 -0.4498
  350MOL0     C47162   1.569   5.735   5.094  0.6789  0.2951  0.0327
  350MOL0     O47163   1.806   5.812   4.836 -0.6234 -0.4680  0.2417
  350MOL0     C47164   2.054   5.708   5.052  0.0768  0.6109  0.4378
  350MOL0     C47165   2.187   5.674   5.061  0.3666 -1.4319 -0.0624
  350MOL0     N47166   3.000   5.814   4.989 -0.3894  0.5088 -1.0072
  350MOL0     N47167   3.126   5.789   4.945  0.2594  0.3586 -0.2752
  350MOL0     C47168   3.330   5.750   6.001 -0.0959 -0.6345  0.5072
  350MOL0     C47169   3.200   5.755   6.050 -1.1412 -0.2131 -1.1846
  350MOL0     C47170   2.785   5.590   6.190  0.4866 -0.0452 -0.3064
  350MOL0     C47171   2.699   5.492   6.242 -1.1144  0.5197  0.6162
  350MOL0     C47172   2.577   5.511   6.298 -0.1802 -0.1474  0.7852
  350MOL0     C47173   2.529   5.639   6.326  0.3544  0.1970 -0.2510
  350MOL0     O47174   2.404   5.651   6.381  0.1853  0.0815  0.3944
  350MOL0     C47175   2.340   5.784   6.381 -0.7594  0.3660  0.3713
  350MOL0     C47176   2.197   5.767   6.430 -0.3662 -0.1113 -0.9035
  350MOL0     C47177   2.131   5.898   6.454  0.2578  0.2422  0.1607
  350MOL0     C47178   2.071   5.964   6.330  0.0979  0.6143 -0.0900
  350MOL0     C47179   1.924   5.964   6.335 -0.1218  0.1136 -0.1452
  350MOL0     C47180   1.807   5.954   6.341  0.6375  0.0443 -0.0474
  350MOL0     C47181   2.604   5.741   6.259  0.0055 -0.8804 -0.5264
  350MOL0     C47182   2.734   5.721   6.196  0.2588  0.7628  0.3073
  350MOL0     H47183   3.103   5.443   5.962 -0.1476  0.1236 -1.0369
  350MOL0     H47184   3.351   5.439   5.905  2.3260  0.9691  0.1500
  350MOL0     H47185   3.483   5.748   5.752 -1.6846  0.4832  3.9816
  350MOL0     H47186   3.656   5.757   5.809 -0.6208  1.5145  1.8985
  350MOL0     H47187   3.687   5.530   5.704  0.9494  0.7178 -0.9931
  350MOL0     H47188   3.526   5.504   5.688 -0.6927 -0.1280 -0.1915
  350MOL0     H47189   3.627   5.741   5.538 -4.0848  0.6821 -0.1931
  350MOL0     H47190   3.690   5.579   5.488  1.0313 -1.6181  3.3979
  350MOL0     H47191   3.493   5.518   5.378 -3.5913  0.5697 -1.9988
  350MOL0     H47192   3.399   5.589   5.508  0.4752  1.5759  0.0562
  350MOL0     H47193   3.399   5.802   5.403 -1.2903  0.2830 -0.2968
  350MOL0     H47194   3.524   5.763   5.297  1.7802 -2.2599  2.0418
  350MOL0     H47195   3.337   5.547   5.247  2.9401 -0.3677  3.3230
  350MOL0     H47196   3.242   5.697   5.283 -0.2771 -0.1034 -1.7637
  350MOL0     H47197   3.354   5.808   5.093 -1.1097 -1.2830 -0.0887
  350MOL0     H47198   3.487   5.684   5.100  1.1178 -0.9564  2.8128
  350MOL0     H47199   3.318   5.518   4.996  0.7539  0.2188 -4.4192
  350MOL0     H47200   3.361   5.659   4.903  0.3991 -0.0087 -0.0722
  350MOL0     H47201   3.072   5.532   5.135 -1.3951 -0.5632 -1.8620
  350MOL0     H47202   2.818   5.601   5.180  3.4422 -1.2899  1.4019
  350MOL0     H47203   2.862   5.760   5.257  2.1555 -2.2561  1.7379
  350MOL0     H47204   2.746   5.877   5.063  1.2108  1.1459  2.3111
  350MOL0     H47205   2.643   5.787   5.175 -0.3340  0.0714  1.1710
  350MOL0     H47206   2.665   5.595   4.994 -1.1248 -1.0434 -3.0317
  350MOL0     H47207   2.726   5.733   4.892 -0.7645 -0.5224 -0.2956
  350MOL0     H47208   2.499   5.710   4.831 -0.2658  0.4221  0.5428
  350MOL0     H47209   2.497   5.860   4.927 -2.4402  0.2194  2.5791
  350MOL0     H47210   2.304   5.829   4.788 -0.6034  1.5771  0.6123
  350MOL0     H47211   1.981   5.995   4.772 -3.5076 -1.1614 -1.7301
  350MOL0     H47212   2.132   5.956   4.686 -0.1940 -0.0318  0.4366
  350MOL0     H47213   1.988   5.864   4.656 -0.1763  1.4680 -0.3120
  350MOL0     H47214   1.687   6.050   5.052  0.0983  0.1983  1.0398
  350MOL0     H47215   1.449   6.107   5.079  1.3117 -0.2358 -1.8440
  350MOL0     H47216   1.256   6.135   5.108  0.7465 -1.1474  0.2222
  350MOL0     H47217   1.106   6.046   5.077  1.0419 -3.4967 -0.7124
  350MOL0     H47218   1.248   6.056   5.355  0.0556 -2.0507  0.3448
  350MOL0     H47219   1.122   6.175   5.305 -0.4383  0.2336 -0.2916
  350MOL0     H47220   1.093   5.875   5.333  5.0175  1.8089 -2.0421
  350MOL0     H47221   0.954   6.004   5.316  0.6223  1.4752  2.1013
  350MOL0     H47222   1.158   5.967   5.529  0.1155  0.1797 -0.5414
  350MOL0     H47223   1.043   6.102   5.529 -0.7846  0.1734 -2.1780
  350MOL0     H47224   0.981   5.897   5.680 -0.5670 -0.4286  0.3487
  350MOL0     H47225   0.970   5.811   5.527 -3.5761  0.7384 -1.1422
  350MOL0     H47226   0.785   5.943   5.436  0.8956  0.0847 -1.0820
  350MOL0     H47227   0.739   5.893   5.599 -0.3237 -1.2350 -1.8052
  350MOL0     H47228   0.815   6.154   5.490 -0.6964 -1.8444 -1.6986
  350MOL0     H47229   0.840   6.130   5.665 -1.2072  1.5753 -0.1015
  350MOL0     H47230   0.601   6.059   5.686 -1.2668 -0.8621 -0.5888
  350MOL0     H47231   0.575   6.126   5.519 -0.2687  0.2623  0.6949
  350MOL0     H47232   1.366   5.690   5.131 -1.4721 -0.1585 -2.0456
  350MOL0     H47233   1.614   5.637   5.098  2.0059  0.8789 -0.0299
  350MOL0     H47234   1.989   5.670   5.131 -0.5225 -2.4284 -1.3646
  350MOL0     H47235   2.227   5.629   5.151 -0.3266  1.1092  1.6256
  350MOL0     H47236   3.382   5.845   6.015 -1.5411  0.1231  0.9248
  350MOL0     H47237   3.173   5.842   6.109  0.7090 -1.0559  1.0309
  350MOL0     H47238   2.732   5.390   6.223 -4.1180  0.2297 -5.3898
  350MOL0     H47239   2.515   5.425   6.320 -3.3383  2.1711  1.7617
  350MOL0     H47240   2.397   5.851   6.447  1.8890 -0.8851 -0.5053
  350MOL0     H47241   2.343   5.830   6.282 -0.6834 -0.6740 -0.1230
  350MOL0     H47242   2.196   5.712   6.524  1.5684  0.5413 -0.4583
  350MOL0     H47243   2.140   5.711   6.355 -0.3407 -0.4877 -0.6435
  350MOL0     H47244   2.206   5.966   6.496 -0.8918  1.8648 -0.2966
  350MOL0     H47245   2.055   5.893   6.532  0.3734  0.8086  0.3171
  350MOL0     H47246   2.097   5.907   6.241  1.6862 -3.4962  2.7178
  350MOL0     H47247   2.094   6.071   6.332 -0.1741  0.6670  0.2850
  350MOL0     H47248   1.700   5.947   6.350  0.6053 -0.4180 -0.7178
  350MOL0     H47249   2.565   5.842   6.258  1.7280 -0.1717 -1.1672
  350MOL0     H47250   2.784   5.802   6.143  2.8567  0.2506  1.8254
  351MOL0     O47251   2.956   2.304   8.716 -0.2764 -0.1012 -0.5249
  351MOL0     C47252   3.007   2.259   8.612  0.2054 -0.2671  0.9415
  351MOL0     O47253   2.952   2.167   8.526 -0.4632 -0.1126  0.3359
  351MOL0     C47254   2.825   2.127   8.553  1.2864  0.3172  0.1999
  351MOL0     C47255   2.800   2.027   8.643 -0.3030 -0.2395  0.4690
  351MOL0     C47256   2.671   1.992   8.676  0.8839 -0.1525 -0.2444
  351MOL0     C47257   2.564   2.050   8.607  0.2914  0.4479 -0.6618
  351MOL0     O47258   2.437   2.018   8.631  0.1601  0.2674 -0.5434
  351MOL0     C47259   2.407   1.907   8.714  0.1697 -0.5152 -0.9039
  351MOL0     C47260   2.264   1.851   8.705 -0.1393  0.6369  0.9844
  351MOL0     C47261   2.155   1.929   8.778  0.9106 -0.4430  0.1515
  351MOL0     C47262   2.009   1.878   8.754  0.5008  0.7214 -0.0231
  351MOL0     C47263   1.909   1.944   8.856 -0.2004  0.7082 -0.2130
  351MOL0     C47264   1.874   2.090   8.812  0.0950 -0.4639  0.1199
  351MOL0     C47265   1.741   2.141   8.865 -0.5366 -0.1981  0.3961
  351MOL0     C47266   1.733   2.179   9.008 -0.7655  0.3709  0.1130
  351MOL0     N47267   1.822   2.295   9.051 -0.0081  0.4224  0.1033
  351MOL0     C47268   1.820   2.348   9.179  0.4613 -1.1444 -0.5275
  351MOL0     C47269   1.874   2.471   9.170 -0.3840  0.5584  0.2202
  351MOL0     C47270   1.851   2.574   9.276  0.2066  1.0256 -0.0264
  351MOL0     C47271   1.707   2.629   9.272 -0.0102 -0.0675  0.3144
  351MOL0     C47272   1.654   2.730   9.373 -0.0841  0.2806 -0.5391
  351MOL0     C47273   1.518   2.785   9.332  0.0579 -0.2514  0.5743
  351MOL0     O47274   1.407   2.707   9.378  0.4193 -0.2313 -0.0754
  351MOL0     C47275   1.280   2.745   9.341 -0.1467  1.3071  0.4784
  351MOL0     C47276   1.250   2.823   9.229  0.3453 -0.1371 -1.0600
  351MOL0     C47277   1.118   2.855   9.201  0.0607 -0.2112 -0.2014
  351MOL0     C47278   1.092   2.954   9.085 -0.4234 -0.6390 -0.7328
  351MOL0     C47279   1.008   2.798   9.272  0.2807  0.2452 -0.5821
  351MOL0     C47280   0.862   2.799   9.230 -0.1953 -0.0411  0.1221
  351MOL0     O47281   0.788   2.684   9.244  0.5222 -0.6651  0.2774
  351MOL0     C47282   0.652   2.698   9.251 -0.0539 -0.1878  0.5721
  351MOL0     C47283   0.572   2.711   9.134 -0.9486  0.3252  0.1470
  351MOL0     C47284   0.433   2.719   9.149 -0.5180 -0.4199 -0.7483
  351MOL0     C47285   0.363   2.713   9.275  0.6298 -0.0822 -0.1296
  351MOL0     O47286   0.230   2.719   9.292  0.3194 -0.3514 -0.0063
  351MOL0     C47287   0.180   2.762   9.414 -0.4528  0.0061  0.2405
  351MOL0     C47288   0.027   2.781   9.394 -0.2374 -0.0395  0.8483
  351MOL0     C47289  -0.051   2.647   9.367 -0.5616  0.1353 -0.0847
  351MOL0     C47290  -0.196   2.672   9.389  1.0225 -0.2241  1.0739
  351MOL0     C47291  -0.278   2.557   9.326 -0.2138 -0.4597  0.0788
  351MOL0     C47292  -0.422   2.596   9.304 -0.3284 -0.5618  0.7817
  351MOL0     C47293  -0.503   2.493   9.225  0.6308 -0.4050  0.7256
  351MOL0     C47294  -0.647   2.543   9.203 -0.8089 -0.1952 -0.6189
  351MOL0    Cl47295  -0.731   2.585   9.344 -0.1174  0.1204 -0.1145
  351MOL0     C47296   0.446   2.693   9.389  0.3638  0.2656  0.2299
  351MOL0     C47297   0.586   2.695   9.372  0.0096  0.7214  0.3182
  351MOL0     O47298   0.822   2.903   9.179  0.8823  0.7235  0.7558
  351MOL0     C47299   1.043   2.718   9.373  0.5747  0.2771  0.0507
  351MOL0     C47300   1.172   2.683   9.406 -0.3687 -0.5041  0.6790
  351MOL0     N47301   1.923   2.481   9.035 -0.5534 -0.1432  0.1350
  351MOL0     N47302   1.895   2.371   8.970  0.4847 -0.1728 -0.2909
  351MOL0     C47303   2.587   2.146   8.518  0.3786  0.9862 -0.0172
  351MOL0     C47304   2.720   2.190   8.485 -0.0224 -0.8230 -0.6473
  351MOL0     C47305   3.149   2.302   8.587  0.3344  0.4462  0.1308
  351MOL0     C47306   3.221   2.278   8.468  0.1451  0.3485 -0.8600
  351MOL0     C47307   3.347   2.330   8.440  0.5535 -0.2109  0.0317
  351MOL0     C47308   3.409   2.417   8.530 -0.5004  0.1933 -0.1374
  351MOL0     O47309   3.530   2.471   8.499 -0.0727  0.1357 -0.4263
  351MOL0     C47310   3.622   2.492   8.605 -0.2316 -0.9753 -0.9052
  351MOL0     C47311   3.700   2.363   8.638 -0.4212  0.9018 -0.7838
  351MOL0     C47312   3.843   2.397   8.684 -0.1927 -0.0406  0.8045
  351MOL0     C47313   3.846   2.475   8.819 -0.3485  0.1952  0.3520
  351MOL0     C47314   3.983   2.495   8.868  0.5517  0.5210  0.4160
  351MOL0     C47315   4.093   2.514   8.916  0.3007 -0.2328  0.4380
  351MOL0     C47316   3.346   2.438   8.649 -0.1812 -0.7187 -0.1720
  351MOL0     C47317   3.221   2.389   8.671 -0.1426 -0.2369  0.4305
  351MOL0     H47318   2.871   1.963   8.695 -0.6157 -2.4178 -1.6183
  351MOL0     H47319   2.651   1.912   8.747 -2.2885 -0.6313 -1.5533
  351MOL0     H47320   2.476   1.825   8.693  0.6084 -0.1832 -0.7837
  351MOL0     H47321   2.424   1.930   8.820  0.3901 -0.5382 -0.9341
  351MOL0     H47322   2.237   1.850   8.599  0.4014  0.5263  0.8479
  351MOL0     H47323   2.259   1.744   8.728 -1.6588 -0.0599 -2.1004
  351MOL0     H47324   2.175   1.932   8.885  1.2441 -3.2083  0.2498
  351MOL0     H47325   2.167   2.033   8.746  1.1939 -0.0502  1.4901
  351MOL0     H47326   1.988   1.892   8.647  2.1635 -2.1504 -0.8202
  351MOL0     H47327   2.011   1.772   8.777  0.2319  0.3566 -1.5523
  351MOL0     H47328   1.823   1.876   8.858  1.6298 -1.7337 -0.0048
  351MOL0     H47329   1.957   1.950   8.954 -0.4048  2.1281 -0.1697
  351MOL0     H47330   1.953   2.159   8.842 -0.7492  0.0316  1.2733
  351MOL0     H47331   1.865   2.085   8.703  1.1513 -0.2352  0.0141
  351MOL0     H47332   1.720   2.231   8.807  0.1088 -0.3893 -0.1445
  351MOL0     H47333   1.657   2.077   8.835 -1.7626  2.2842 -1.9582
  351MOL0     H47334   1.757   2.092   9.070 -0.4345  0.6605  0.3924
  351MOL0     H47335   1.628   2.194   9.036 -1.6916 -1.3612 -2.1156
  351MOL0     H47336   1.768   2.310   9.267  1.8932  1.6372  1.7217
  351MOL0     H47337   1.886   2.532   9.371  1.9393  1.3545 -0.4793
  351MOL0     H47338   1.926   2.653   9.268  0.8142  0.4378 -0.1776
  351MOL0     H47339   1.635   2.547   9.285 -0.3699  0.2849  0.5786
  351MOL0     H47340   1.706   2.666   9.169  0.0902 -3.6565 -1.1207
  351MOL0     H47341   1.728   2.811   9.376  3.1618 -2.4481 -1.2016
  351MOL0     H47342   1.640   2.688   9.473  0.1091 -0.7390 -0.9333
  351MOL0     H47343   1.518   2.804   9.225 -1.3374 -2.2306  0.1881
  351MOL0     H47344   1.507   2.888   9.369  1.6730  0.3820 -0.5693
  351MOL0     H47345   1.331   2.867   9.172  1.7715 -2.3753 -0.8977
  351MOL0     H47346   1.046   3.045   9.124  1.5979 -0.6264  1.9386
  351MOL0     H47347   1.189   2.975   9.039  1.4563 -0.7648  2.8266
  351MOL0     H47348   1.027   2.912   9.008  0.4331 -0.6399 -1.4731
  351MOL0     H47349   0.617   2.707   9.035 -1.5263 -1.1777 -0.0746
  351MOL0     H47350   0.378   2.720   9.056  2.2902 -0.9084 -2.5245
  351MOL0     H47351   0.202   2.689   9.491 -0.1499  0.8107  0.9287
  351MOL0     H47352   0.234   2.851   9.448  1.4487 -0.9468 -0.1718
  351MOL0     H47353  -0.024   2.836   9.473  0.5232 -0.4432  1.6388
  351MOL0     H47354   0.013   2.847   9.308 -0.7134  1.2337  1.8786
  351MOL0     H47355  -0.002   2.573   9.431 -0.2283  2.3116  2.3119
  351MOL0     H47356  -0.039   2.624   9.261 -1.9807 -1.1129 -0.0055
  351MOL0     H47357  -0.209   2.682   9.497 -4.0904 -0.2710  0.6850
  351MOL0     H47358  -0.228   2.767   9.345  0.0135 -0.8829  0.3408
  351MOL0     H47359  -0.277   2.472   9.395  1.0731 -0.9485 -0.5065
  351MOL0     H47360  -0.232   2.535   9.229  0.5234  2.6169 -0.3556
  351MOL0     H47361  -0.464   2.613   9.403  2.5926  0.0308  2.0212
  351MOL0     H47362  -0.422   2.684   9.238 -0.2603 -1.2537 -0.1614
  351MOL0     H47363  -0.508   2.399   9.281 -0.6428 -0.4278  0.5933
  351MOL0     H47364  -0.445   2.466   9.136  0.4509  0.7849  0.2290
  351MOL0     H47365  -0.714   2.470   9.157 -2.9967  1.7339 -0.6830
  351MOL0     H47366  -0.634   2.631   9.138  2.0028 -1.9509 -2.6659
  351MOL0     H47367   0.410   2.686   9.491  0.3123 -2.3860  0.0823
  351MOL0     H47368   0.641   2.677   9.464 -0.7017 -0.0729  0.6050
  351MOL0     H47369   0.970   2.652   9.419  0.2639  0.8617  0.4142
  351MOL0     H47370   1.181   2.616   9.490 -0.4497  2.1679  2.9734
  351MOL0     H47371   2.504   2.196   8.468 -0.5429  0.3032  0.7850
  351MOL0     H47372   2.736   2.260   8.404  2.1621 -2.2809 -1.5443
  351MOL0     H47373   3.181   2.217   8.388  0.7157  1.4083 -1.9983
  351MOL0     H47374   3.402   2.306   8.349 -0.6179 -2.8467 -0.0880
  351MOL0     H47375   3.700   2.564   8.576 -0.7735  0.0207  0.0198
  351MOL0     H47376   3.571   2.541   8.688  0.5881 -1.5603 -0.0326
  351MOL0     H47377   3.706   2.302   8.547  0.2433  0.8060 -0.6830
  351MOL0     H47378   3.654   2.318   8.726  2.0079 -0.1719  0.0307
  351MOL0     H47379   3.891   2.469   8.616  0.7549  0.2046  1.7165
  351MOL0     H47380   3.900   2.304   8.687  1.8186  1.1699  2.2703
  351MOL0     H47381   3.793   2.417   8.896  0.1549 -1.7988 -0.7483
  351MOL0     H47382   3.803   2.575   8.807 -1.6119 -0.4477 -0.7865
  351MOL0     H47383   4.186   2.531   8.967 -0.3541 -0.5948  1.8119
  351MOL0     H47384   3.392   2.490   8.732 -0.8440 -3.0318  1.7278
  351MOL0     H47385   3.172   2.416   8.764 -1.4938  4.1536 -1.2607
  352MOL0     O47386   8.602   3.847   6.476 -0.4664  0.7043  0.0530
  352MOL0     C47387   8.599   3.944   6.403 -0.3863 -0.7807  0.5332
  352MOL0     O47388   8.496   3.979   6.321  0.5581  0.0693  0.5056
  352MOL0     C47389   8.391   3.894   6.325 -0.4430  0.7516 -0.4641
  352MOL0     C47390   8.299   3.926   6.427 -0.3347 -0.1822 -0.4514
  352MOL0     C47391   8.193   3.838   6.460  0.2118  0.2685  0.0633
  352MOL0     C47392   8.158   3.733   6.364  0.0286 -0.9396  0.0722
  352MOL0     O47393   8.044   3.655   6.361  0.7166 -0.4953 -0.3246
  352MOL0     C47394   7.924   3.714   6.417 -0.4106  0.5382 -0.6609
  352MOL0     C47395   7.873   3.826   6.337 -0.0725 -0.3116  0.1906
  352MOL0     C47396   7.869   3.802   6.183  0.7773 -0.2563 -0.4492
  352MOL0     C47397   7.756   3.705   6.145  0.0258  0.0548  0.7238
  352MOL0     C47398   7.737   3.679   5.992 -0.2481  0.1008 -0.6074
  352MOL0     C47399   7.630   3.573   5.975  0.2941 -0.1012  0.7745
  352MOL0     C47400   7.606   3.541   5.826  0.5954 -0.1145 -1.1291
  352MOL0     C47401   7.482   3.460   5.790  0.7864 -0.2097  0.1498
  352MOL0     N47402   7.358   3.540   5.808  0.6329 -0.8214  0.2124
  352MOL0     C47403   7.277   3.560   5.912  1.1581  0.3903 -0.3202
  352MOL0     C47404   7.171   3.627   5.877  0.0338  0.0616 -0.1531
  352MOL0     C47405   7.063   3.671   5.969 -0.7748 -0.4705  0.1682
  352MOL0     C47406   6.924   3.649   5.898 -0.0183  0.3196  0.4226
  352MOL0     C47407   6.883   3.764   5.812 -0.1246 -0.2194 -0.1962
  352MOL0     C47408   6.764   3.842   5.877 -0.3216 -0.8773  0.1926
  352MOL0     O47409   6.634   3.778   5.852 -0.5446 -0.0573 -0.3737
  352MOL0     C47410   6.565   3.803   5.726 -0.3559  0.7520 -0.5956
  352MOL0     C47411   6.622   3.859   5.612 -0.6315 -1.0435  0.1768
  352MOL0     C47412   6.551   3.879   5.494 -0.1022  0.6839 -0.6371
  352MOL0     C47413   6.620   3.912   5.374  0.0283 -0.8959 -0.1924
  352MOL0     C47414   6.420   3.832   5.492  0.1774  0.4403 -0.1860
  352MOL0     C47415   6.328   3.838   5.376 -0.3961  0.5535 -0.4758
  352MOL0     O47416   6.251   3.728   5.355 -0.1146 -0.3700  1.0125
  352MOL0     C47417   6.193   3.709   5.232  0.0375  0.1920  0.0926
  352MOL0     C47418   6.063   3.750   5.215  0.5766 -0.0097  0.3610
  352MOL0     C47419   6.010   3.748   5.084  0.3253  0.2062  0.4891
  352MOL0     C47420   6.086   3.698   4.971  0.4351  0.2943 -0.4570
  352MOL0     O47421   6.023   3.697   4.842  0.5761  0.1445 -1.0749
  352MOL0     C47422   6.080   3.627   4.725  0.4184  0.0079 -1.0836
  352MOL0     C47423   6.091   3.473   4.745  0.4366  0.8537 -0.0104
  352MOL0     C47424   5.955   3.403   4.766  0.1185  0.3976 -0.7468
  352MOL0     C47425   5.872   3.395   4.641 -0.6556  0.1369 -0.2516
  352MOL0     C47426   5.733   3.335   4.641  0.0688 -0.3995 -0.1398
  352MOL0     C47427   5.726   3.192   4.704  1.2349 -0.6120 -0.0225
  352MOL0     C47428   5.593   3.123   4.675  0.0473  0.5342 -0.3789
  352MOL0     C47429   5.603   2.969   4.704 -0.0546 -0.3085 -0.7886
  352MOL0    Cl47430   5.466   2.884   4.647  0.5496 -0.3249  0.2629
  352MOL0     C47431   6.217   3.651   4.998 -0.7099 -0.1945 -0.2642
  352MOL0     C47432   6.271   3.658   5.129 -0.4018 -0.1742  0.3477
  352MOL0     O47433   6.330   3.938   5.301  0.1798 -0.1309 -0.2631
  352MOL0     C47434   6.362   3.778   5.606  0.1649  0.4656  0.6243
  352MOL0     C47435   6.433   3.761   5.722 -0.4793 -0.2900  0.5851
  352MOL0     N47436   7.186   3.648   5.742  0.6564 -0.5457 -0.1564
  352MOL0     N47437   7.289   3.596   5.699 -0.3166  0.6830  0.3399
  352MOL0     C47438   8.250   3.702   6.263  0.6693 -0.2577  0.2544
  352MOL0     C47439   8.372   3.779   6.248 -0.4255  0.0772 -0.7277
  352MOL0     C47440   8.711   4.046   6.408  0.3516 -0.5304 -0.2439
  352MOL0     C47441   8.837   4.021   6.474 -0.7826 -0.6001 -1.0509
  352MOL0     C47442   8.944   4.114   6.463  0.6224 -0.1249  0.1660
  352MOL0     C47443   8.929   4.233   6.384  0.8900  0.1471 -0.8217
  352MOL0     O47444   9.037   4.319   6.358  0.2380 -0.0001 -0.3111
  352MOL0     C47445   9.024   4.444   6.279 -0.2055  0.3326  0.6306
  352MOL0     C47446   8.957   4.563   6.354  0.2995 -0.6285  0.7669
  352MOL0     C47447   8.996   4.586   6.505 -0.7251 -0.9281  1.1499
  352MOL0     C47448   8.887   4.687   6.569 -0.2901  0.1809  0.0966
  352MOL0     C47449   8.945   4.749   6.693  0.2387 -0.1467  0.1193
  352MOL0     C47450   8.999   4.798   6.788 -0.5084 -0.0673  0.0384
  352MOL0     C47451   8.803   4.253   6.322 -0.8159  0.0498  0.8273
  352MOL0     C47452   8.694   4.165   6.335  0.1219 -0.2360  0.4091
  352MOL0     H47453   8.316   4.010   6.493  1.1249 -0.2182 -0.7316
  352MOL0     H47454   8.136   3.847   6.552  1.2050  2.7351  0.5180
  352MOL0     H47455   7.859   3.627   6.410 -1.4957  1.2732 -0.1096
  352MOL0     H47456   7.948   3.736   6.522 -0.6632 -1.5302 -0.1348
  352MOL0     H47457   7.782   3.859   6.387  0.3186  0.0648  0.6698
  352MOL0     H47458   7.935   3.916   6.349 -1.3020  0.5414  0.2645
  352MOL0     H47459   7.847   3.900   6.140  0.6053  1.3988  3.0384
  352MOL0     H47460   7.962   3.760   6.144 -0.4802 -0.0356 -4.1279
  352MOL0     H47461   7.777   3.610   6.196  3.2339  0.2048 -0.0949
  352MOL0     H47462   7.664   3.741   6.191  1.5620  0.4975  3.7553
  352MOL0     H47463   7.704   3.777   5.956  0.0480  0.5960  0.4150
  352MOL0     H47464   7.827   3.648   5.939 -0.0161 -1.3457  0.5657
  352MOL0     H47465   7.676   3.485   6.021  0.2010  0.4795  1.9977
  352MOL0     H47466   7.536   3.598   6.024  0.1379 -4.2008  3.0809
  352MOL0     H47467   7.614   3.634   5.769  2.1413 -0.0297 -0.8039
  352MOL0     H47468   7.692   3.481   5.796  0.6276 -0.4422 -0.4104
  352MOL0     H47469   7.477   3.363   5.840  1.5903 -0.6136 -0.5295
  352MOL0     H47470   7.496   3.436   5.685  0.1208  0.6930 -0.1557
  352MOL0     H47471   7.296   3.528   6.014 -2.2547  1.8561  0.9166
  352MOL0     H47472   7.063   3.606   6.057  0.3679 -1.2974 -0.4094
  352MOL0     H47473   7.071   3.773   6.008  0.5905 -0.7539  0.6836
  352MOL0     H47474   6.851   3.644   5.980  0.6561 -2.9229  0.9975
  352MOL0     H47475   6.930   3.553   5.846 -1.2831  0.6591 -0.3917
  352MOL0     H47476   6.850   3.725   5.715  1.0994 -1.2932 -0.2160
  352MOL0     H47477   6.965   3.836   5.811 -1.4273  1.3196 -1.3898
  352MOL0     H47478   6.765   3.947   5.848 -0.4518 -0.9826 -0.2001
  352MOL0     H47479   6.780   3.837   5.985  4.3761 -2.6838 -0.3400
  352MOL0     H47480   6.724   3.894   5.619 -0.3108 -2.0801  0.9750
  352MOL0     H47481   6.563   3.948   5.288 -2.8115 -0.4580  1.7255
  352MOL0     H47482   6.693   3.991   5.392 -0.2022 -0.2590 -1.8429
  352MOL0     H47483   6.675   3.819   5.358  0.1697 -1.0433  1.0389
  352MOL0     H47484   5.994   3.781   5.293 -2.1536  2.5439 -2.7315
  352MOL0     H47485   5.910   3.784   5.066  1.2914  3.0445  0.2691
  352MOL0     H47486   6.029   3.653   4.632  0.4305  1.3390 -0.7451
  352MOL0     H47487   6.184   3.654   4.706  0.9012 -1.0649 -0.0883
  352MOL0     H47488   6.139   3.430   4.656 -0.0055 -2.7942  1.3651
  352MOL0     H47489   6.159   3.460   4.830 -0.3069  2.2164  0.8161
  352MOL0     H47490   5.904   3.454   4.848 -0.0682  1.5583 -1.5658
  352MOL0     H47491   5.973   3.301   4.802  0.4987 -0.0636 -2.1958
  352MOL0     H47492   5.859   3.498   4.608 -0.5305 -0.0633 -0.9467
  352MOL0     H47493   5.923   3.344   4.559 -2.9941 -0.8862 -1.1501
  352MOL0     H47494   5.699   3.339   4.537  1.4609 -2.8578 -0.7518
  352MOL0     H47495   5.666   3.404   4.694  3.5917  2.7568  0.6431
  352MOL0     H47496   5.803   3.130   4.657 -0.9855 -3.6276  0.0032
  352MOL0     H47497   5.730   3.193   4.813 -2.7176 -4.7828  0.4430
  352MOL0     H47498   5.567   3.145   4.571  1.7292 -0.9069 -1.1766
  352MOL0     H47499   5.530   3.184   4.739  0.1595  1.1600 -0.8559
  352MOL0     H47500   5.616   2.953   4.811  1.2650 -1.5037 -1.1024
  352MOL0     H47501   5.691   2.930   4.652 -0.0800 -1.4985  0.0204
  352MOL0     H47502   6.285   3.616   4.921  0.6824  0.1608  0.7682
  352MOL0     H47503   6.371   3.619   5.142 -0.3848  0.1494  1.2295
  352MOL0     H47504   6.262   3.736   5.599  0.3748  0.0193  0.2474
  352MOL0     H47505   6.396   3.711   5.811 -0.8567 -1.7610 -0.3634
  352MOL0     H47506   8.239   3.607   6.211  0.4631 -0.0121 -0.1534
  352MOL0     H47507   8.448   3.738   6.183 -1.1253  0.0605 -1.5594
  352MOL0     H47508   8.868   3.929   6.524 -1.2430 -1.8290 -2.9045
  352MOL0     H47509   9.041   4.096   6.508  0.5319 -2.1021 -0.3361
  352MOL0     H47510   9.127   4.466   6.250  0.5111 -3.3404 -0.1655
  352MOL0     H47511   8.962   4.430   6.191 -1.4981  0.7698  1.4448
  352MOL0     H47512   8.849   4.546   6.361 -0.6628  4.2123  1.4790
  352MOL0     H47513   8.974   4.654   6.296  1.9472 -1.7007 -0.5160
  352MOL0     H47514   9.092   4.637   6.515 -0.7637 -0.6011 -0.0682
  352MOL0     H47515   8.998   4.496   6.567 -2.5091 -1.1657  0.9105
  352MOL0     H47516   8.787   4.649   6.593 -1.4696  2.3196 -1.0785
  352MOL0     H47517   8.865   4.771   6.503 -0.5732 -0.1535 -0.2359
  352MOL0     H47518   9.031   4.853   6.874 -1.3550  0.8834 -0.2400
  352MOL0     H47519   8.795   4.346   6.267  1.3874 -0.9843 -1.4178
  352MOL0     H47520   8.605   4.180   6.275  0.7062 -2.3985 -1.1310
  353MOL0     O47521   3.389   4.037  11.068  0.4431 -0.1151 -0.4187
  353MOL0     C47522   3.439   4.149  11.072  0.3312 -1.2892  0.0738
  353MOL0     O47523   3.373   4.259  11.121 -0.4051 -0.1656 -0.2097
  353MOL0     C47524   3.257   4.243  11.184  0.0703 -0.5704 -0.1529
  353MOL0     C47525   3.133   4.253  11.112 -0.6871 -0.3934  0.0884
  353MOL0     C47526   3.013   4.231  11.175 -0.1267 -0.1831  0.4765
  353MOL0     C47527   3.016   4.205  11.311  0.4172 -0.7437 -0.2861
  353MOL0     O47528   2.904   4.175  11.383 -0.0812 -0.2588  0.4773
  353MOL0     C47529   2.771   4.182  11.327 -0.0317  0.7154 -0.1219
  353MOL0     C47530   2.667   4.182  11.442  0.5150  0.4381  0.3430
  353MOL0     C47531   2.525   4.213  11.392  0.0625 -0.5516 -0.1173
  353MOL0     C47532   2.510   4.366  11.365 -0.9603 -0.7604  0.3310
  353MOL0     C47533   2.370   4.426  11.359  0.1414  0.0127 -0.5857
  353MOL0     C47534   2.285   4.365  11.247 -0.4292  0.2579 -0.0043
  353MOL0     C47535   2.147   4.430  11.231  0.1657 -1.1475 -0.0880
  353MOL0     C47536   2.040   4.398  11.332  0.2591  0.5643 -0.0630
  353MOL0     N47537   1.931   4.502  11.326  0.4052 -0.0586  0.0618
  353MOL0     C47538   1.897   4.591  11.420 -1.1753  0.2209 -0.8598
  353MOL0     C47539   1.794   4.663  11.366 -0.0548  0.6100  0.1175
  353MOL0     C47540   1.732   4.791  11.423  0.2815 -0.3989 -0.4998
  353MOL0     C47541   1.573   4.771  11.424 -0.4891  0.1361  0.0431
  353MOL0     C47542   1.515   4.903  11.487 -0.1709  0.1760  0.7731
  353MOL0     C47543   1.369   4.884  11.544 -1.1984  0.2890 -0.6401
  353MOL0     O47544   1.287   4.871  11.435 -1.0795 -0.0231  0.3335
  353MOL0     C47545   1.156   4.836  11.463 -0.0304  0.2211  0.0699
  353MOL0     C47546   1.088   4.895  11.576  0.5636  0.9333  0.2208
  353MOL0     C47547   0.945   4.880  11.586 -0.3695  0.3570 -0.9240
  353MOL0     C47548   0.885   4.937  11.716 -0.4112 -0.6656 -0.4001
  353MOL0     C47549   0.873   4.812  11.487  0.2492 -0.1296 -0.2746
  353MOL0     C47550   0.728   4.798  11.488 -0.3325 -0.0444 -0.0069
  353MOL0     O47551   0.652   4.834  11.600 -0.7059  0.4408 -0.8840
  353MOL0     C47552   0.533   4.772  11.613 -0.2719  0.7491 -0.1776
  353MOL0     C47553   0.516   4.650  11.681 -0.2098 -1.0479 -0.2354
  353MOL0     C47554   0.385   4.604  11.711 -0.6598  0.3167 -0.6249
  353MOL0     C47555   0.271   4.681  11.683 -0.5121 -0.2243 -0.7276
  353MOL0     O47556   0.134   4.643  11.695  0.6476  0.4682  0.0182
  353MOL0     C47557   0.100   4.518  11.751  1.2889 -0.1618  0.7140
  353MOL0     C47558  -0.042   4.475  11.708 -0.2338  0.3105  0.2356
  353MOL0     C47559  -0.097   4.367  11.808  0.0592  0.0419  1.0153
  353MOL0     C47560  -0.243   4.340  11.769  0.0926  0.3843 -1.1093
  353MOL0     C47561  -0.290   4.203  11.824 -0.3178 -0.3974  0.4178
  353MOL0     C47562  -0.437   4.186  11.779 -0.4315 -0.0925 -0.2870
  353MOL0     C47563  -0.507   4.059  11.830 -0.4697  0.0768  0.1432
  353MOL0     C47564  -0.575   3.984  11.716 -0.2748 -0.6135  0.9612
  353MOL0    Cl47565  -0.746   4.022  11.697  0.1809  0.1884 -0.0070
  353MOL0     C47566   0.292   4.796  11.613  0.2370 -0.3959 -0.6243
  353MOL0     C47567   0.421   4.848  11.581 -0.0645  0.7704 -0.4198
  353MOL0     O47568   0.673   4.753  11.385  0.6698  0.3156 -0.6381
  353MOL0     C47569   0.954   4.755  11.380 -0.0843 -0.8236  0.4925
  353MOL0     C47570   1.090   4.764  11.363 -0.6134 -0.5648  0.2652
  353MOL0     N47571   1.760   4.609  11.249 -0.5005 -0.2865  0.8685
  353MOL0     N47572   1.835   4.505  11.230  0.8735 -0.4237 -1.2280
  353MOL0     C47573   3.135   4.200  11.381  0.4194 -0.5859  0.5603
  353MOL0     C47574   3.255   4.207  11.318 -0.5817 -0.1528 -0.4574
  353MOL0     C47575   3.570   4.167  11.004 -0.0246 -0.5148  0.0760
  353MOL0     C47576   3.640   4.058  10.953 -0.2973 -0.8140  0.8891
  353MOL0     C47577   3.762   4.078  10.889 -0.2203  0.5732  0.1631
  353MOL0     C47578   3.822   4.202  10.891 -1.0598 -0.4945  0.5048
  353MOL0     O47579   3.940   4.197  10.824 -0.6821  0.6155 -0.3903
  353MOL0     C47580   4.035   4.303  10.836 -0.6865  0.9585 -0.2786
  353MOL0     C47581   4.163   4.267  10.757  0.3495 -0.0834  0.1529
  353MOL0     C47582   4.227   4.140  10.813 -0.4402 -0.4235  0.2028
  353MOL0     C47583   4.343   4.098  10.720  0.5070 -0.1546 -0.6537
  353MOL0     C47584   4.469   4.176  10.739  0.0603 -0.4560 -0.2286
  353MOL0     C47585   4.555   4.249  10.776 -0.5899 -1.0502  0.5376
  353MOL0     C47586   3.762   4.317  10.950  0.4124 -0.5452  0.7622
  353MOL0     C47587   3.631   4.294  11.002  0.0468 -0.1540 -0.7706
  353MOL0     H47588   3.131   4.291  11.010 -1.2934  0.0622  0.2643
  353MOL0     H47589   2.923   4.218  11.117  0.0004  1.1762 -0.0602
  353MOL0     H47590   2.747   4.266  11.261 -2.5895  0.7331  0.6933
  353MOL0     H47591   2.750   4.090  11.272 -1.4638 -0.1100  1.6548
  353MOL0     H47592   2.665   4.093  11.506  1.1274 -0.5308 -0.9499
  353MOL0     H47593   2.704   4.260  11.508  4.7038 -2.1937  1.4726
  353MOL0     H47594   2.512   4.164  11.295  0.0547  2.0108 -1.5001
  353MOL0     H47595   2.446   4.184  11.462 -1.4938  2.9380 -0.1969
  353MOL0     H47596   2.564   4.427  11.438 -0.2305  3.3317 -3.2564
  353MOL0     H47597   2.564   4.394  11.274 -0.7316 -1.7555  0.1476
  353MOL0     H47598   2.312   4.413  11.451  0.7144  0.4214 -0.1605
  353MOL0     H47599   2.381   4.533  11.339  0.8764 -0.1420 -1.0403
  353MOL0     H47600   2.345   4.355  11.156 -0.3211  0.9829 -0.0192
  353MOL0     H47601   2.263   4.265  11.287 -0.2213 -0.1085 -0.7853
  353MOL0     H47602   2.164   4.538  11.240  2.9143 -1.5464  0.5652
  353MOL0     H47603   2.115   4.408  11.129  1.0809  1.0892 -0.9168
  353MOL0     H47604   2.090   4.399  11.429  0.3887  2.7297 -0.0955
  353MOL0     H47605   1.991   4.302  11.312 -0.9984  0.9324  1.1025
  353MOL0     H47606   1.950   4.619  11.510 -2.2657  0.4705 -0.2672
  353MOL0     H47607   1.770   4.803  11.525  1.1495 -4.4262 -0.1785
  353MOL0     H47608   1.760   4.872  11.356  0.5124 -0.6151 -0.6680
  353MOL0     H47609   1.542   4.682  11.479  2.3399 -1.2323 -0.3943
  353MOL0     H47610   1.527   4.769  11.325  0.3528 -1.5404 -0.3452
  353MOL0     H47611   1.541   4.987  11.422  1.2616 -0.5857  0.3227
  353MOL0     H47612   1.570   4.933  11.577  0.8676  0.9304 -0.0840
  353MOL0     H47613   1.349   4.975  11.602  2.8987  0.7454  0.3640
  353MOL0     H47614   1.365   4.792  11.602  1.6554 -0.4278 -1.4214
  353MOL0     H47615   1.139   4.955  11.650 -2.0751  1.2889  1.8916
  353MOL0     H47616   0.959   5.004  11.760  0.2543 -1.4635 -0.2702
  353MOL0     H47617   0.799   4.999  11.691 -0.6343 -1.8978 -2.9501
  353MOL0     H47618   0.858   4.854  11.783 -0.1963  1.3233  2.3054
  353MOL0     H47619   0.597   4.587  11.717  0.4942  0.7135  1.4350
  353MOL0     H47620   0.380   4.509  11.762 -2.8841  1.0350  0.6250
  353MOL0     H47621   0.163   4.438  11.711  2.6987  2.0687 -1.8701
  353MOL0     H47622   0.103   4.526  11.860  2.0538 -0.6137  0.7373
  353MOL0     H47623  -0.110   4.560  11.710  0.9044  1.2624 -0.6027
  353MOL0     H47624  -0.031   4.442  11.605  2.9013  0.2294  0.4844
  353MOL0     H47625  -0.100   4.388  11.915  0.5420  0.8486  0.8825
  353MOL0     H47626  -0.036   4.276  11.801 -0.4043 -0.3895  2.3074
  353MOL0     H47627  -0.299   4.429  11.799 -3.0658 -1.5881 -0.6571
  353MOL0     H47628  -0.258   4.339  11.661 -0.0640 -1.0410 -1.1031
  353MOL0     H47629  -0.289   4.204  11.933 -1.9362  2.2576  0.5077
  353MOL0     H47630  -0.238   4.118  11.781 -0.5178 -0.5395  0.4561
  353MOL0     H47631  -0.498   4.272  11.808  0.4444  1.0098 -1.5789
  353MOL0     H47632  -0.434   4.182  11.669 -0.8489 -0.2034 -0.2957
  353MOL0     H47633  -0.575   4.075  11.915 -0.4671 -1.2574  0.4193
  353MOL0     H47634  -0.424   3.999  11.868 -2.4156 -1.6837  1.8365
  353MOL0     H47635  -0.566   3.877  11.736  0.8197 -0.4377  1.4962
  353MOL0     H47636  -0.519   3.996  11.622 -0.8870 -4.8156 -0.1469
  353MOL0     H47637   0.202   4.848  11.579  0.4971 -1.0490 -2.4084
  353MOL0     H47638   0.439   4.935  11.520  0.4251  0.1880 -1.1282
  353MOL0     H47639   0.900   4.703  11.301 -1.3526  1.5687 -0.3130
  353MOL0     H47640   1.133   4.736  11.267 -1.5179 -1.1782  0.0288
  353MOL0     H47641   3.146   4.168  11.484  2.3573 -2.0451 -0.0505
  353MOL0     H47642   3.345   4.208  11.378 -0.0544  1.5766 -1.2032
  353MOL0     H47643   3.604   3.958  10.975  0.9791 -1.1591  1.5529
  353MOL0     H47644   3.826   3.997  10.855  4.6325  3.3664  1.7564
  353MOL0     H47645   3.988   4.397  10.806 -2.2415  0.5754  0.8457
  353MOL0     H47646   4.065   4.319  10.940  0.5667  1.9616 -0.7584
  353MOL0     H47647   4.228   4.354  10.764 -1.8332  1.7850 -1.2425
  353MOL0     H47648   4.147   4.266  10.649 -1.9182 -0.5987  0.4325
  353MOL0     H47649   4.147   4.066  10.816 -2.3583  1.5490  1.2033
  353MOL0     H47650   4.263   4.153  10.915 -1.5566  0.0705  0.5499
  353MOL0     H47651   4.315   4.114  10.615  0.3673  3.0549 -0.2274
  353MOL0     H47652   4.366   3.993  10.736  0.0030 -0.5810 -2.4335
  353MOL0     H47653   4.630   4.314  10.817 -1.7756 -0.5740  2.0252
  353MOL0     H47654   3.818   4.409  10.935  0.4755 -0.7293 -0.1862
  353MOL0     H47655   3.578   4.379  11.043 -0.2698 -1.5126  1.9164
  354MOL0     O47656   7.574   2.209   8.834  0.2550 -0.2465 -0.2088
  354MOL0     C47657   7.593   2.271   8.728  0.0461  0.4026  0.2050
  354MOL0     O47658   7.495   2.280   8.632  0.2116 -0.2323  0.2370
  354MOL0     C47659   7.364   2.260   8.667  0.2698  0.3901 -0.5011
  354MOL0     C47660   7.305   2.339   8.764  0.1673 -0.6958  0.1020
  354MOL0     C47661   7.178   2.318   8.816 -0.2445  0.1800  0.6018
  354MOL0     C47662   7.104   2.213   8.758  0.2141 -0.8045  0.1558
  354MOL0     O47663   6.977   2.193   8.816  0.1431  0.0529  0.8324
  354MOL0     C47664   6.908   2.064   8.801  0.0081 -0.4339 -0.2623
  354MOL0     C47665   6.780   2.056   8.883 -0.1446 -0.3051 -0.2951
  354MOL0     C47666   6.670   2.120   8.805  1.0390  0.8260 -0.5272
  354MOL0     C47667   6.538   2.126   8.889 -1.0975  0.0046  0.1453
  354MOL0     C47668   6.442   2.236   8.844  0.3308 -0.6621 -0.2180
  354MOL0     C47669   6.419   2.243   8.694 -0.4717  0.6599 -0.0745
  354MOL0     C47670   6.386   2.103   8.622 -0.1099  0.9039 -0.4418
  354MOL0     C47671   6.265   2.035   8.689 -0.2233  0.0417 -0.7911
  354MOL0     N47672   6.249   1.900   8.642  0.7312 -0.2463  0.1885
  354MOL0     C47673   6.160   1.864   8.542  0.2252 -0.0806  1.3107
  354MOL0     C47674   6.166   1.737   8.541  0.3472  0.3454  0.6512
  354MOL0     C47675   6.063   1.642   8.483 -0.3923 -0.2580 -0.8165
  354MOL0     C47676   5.930   1.712   8.437 -0.2773 -0.8367 -1.0009
  354MOL0     C47677   5.829   1.599   8.409  0.0247 -0.6152 -0.7846
  354MOL0     C47678   5.696   1.648   8.356 -0.4119  0.6314 -0.0677
  354MOL0     O47679   5.587   1.571   8.408 -0.2760 -0.2306  0.2162
  354MOL0     C47680   5.454   1.588   8.385 -0.7944  0.1420  0.7643
  354MOL0     C47681   5.377   1.477   8.417  0.5351  0.2198  0.0521
  354MOL0     C47682   5.233   1.478   8.396  0.2899  0.0781 -0.5601
  354MOL0     C47683   5.154   1.354   8.430  0.5708 -0.1664 -1.1751
  354MOL0     C47684   5.177   1.594   8.341 -0.4886 -0.2566  0.1920
  354MOL0     C47685   5.029   1.615   8.312  0.6246  0.5987  0.0324
  354MOL0     O47686   4.962   1.503   8.278  0.0228  0.0187 -0.4664
  354MOL0     C47687   4.824   1.509   8.253  0.2574  0.0967 -0.0527
  354MOL0     C47688   4.771   1.507   8.122 -0.3309  1.0416 -0.3518
  354MOL0     C47689   4.630   1.522   8.106  0.3189  0.0178 -0.2807
  354MOL0     C47690   4.544   1.530   8.222 -0.9162  0.0373 -0.6385
  354MOL0     O47691   4.408   1.546   8.229  0.5424 -0.2548 -0.5563
  354MOL0     C47692   4.342   1.582   8.113  0.7295 -0.1735  0.7419
  354MOL0     C47693   4.203   1.521   8.114  0.4261  0.4356 -0.1516
  354MOL0     C47694   4.121   1.596   8.217 -0.4080  0.0553 -0.4414
  354MOL0     C47695   3.977   1.569   8.209 -0.0034  0.1446  0.1442
  354MOL0     C47696   3.893   1.633   8.316  0.5446  0.6132 -0.6045
  354MOL0     C47697   3.740   1.616   8.310  0.2081  0.4025  0.0820
  354MOL0     C47698   3.667   1.667   8.183  0.0200  0.0055 -0.4116
  354MOL0     C47699   3.702   1.818   8.138 -0.1320  0.3640 -0.7663
  354MOL0    Cl47700   3.619   1.937   8.249  0.0514 -0.0196  0.1150
  354MOL0     C47701   4.598   1.504   8.347 -0.6612 -0.1886  0.7550
  354MOL0     C47702   4.739   1.504   8.362 -0.2853  1.0459  1.0053
  354MOL0     O47703   4.991   1.727   8.307  0.1454 -0.3986  0.3247
  354MOL0     C47704   5.264   1.700   8.299 -0.0659  0.8034 -0.6784
  354MOL0     C47705   5.399   1.692   8.314 -0.9538  0.1485  0.0652
  354MOL0     N47706   6.260   1.689   8.631 -0.3065 -0.2990  0.3126
  354MOL0     N47707   6.313   1.787   8.689  0.8285 -0.1385  0.1515
  354MOL0     C47708   7.163   2.125   8.661  0.0904 -0.8693 -0.1076
  354MOL0     C47709   7.296   2.142   8.617 -0.2493  0.4108 -0.6130
  354MOL0     C47710   7.730   2.301   8.686  0.0263  0.7677 -0.1978
  354MOL0     C47711   7.834   2.263   8.777 -0.5843 -0.2298 -0.7045
  354MOL0     C47712   7.968   2.299   8.742 -0.2666 -0.1911  0.4176
  354MOL0     C47713   7.992   2.368   8.621  0.1069  0.0277  0.4803
  354MOL0     O47714   8.117   2.402   8.566 -0.0102  0.3241 -0.0519
  354MOL0     C47715   8.234   2.355   8.625 -0.2175  0.3845 -0.3859
  354MOL0     C47716   8.272   2.431   8.754 -0.0905  0.2930 -0.2774
  354MOL0     C47717   8.393   2.358   8.821 -0.3267  0.2473  0.4071
  354MOL0     C47718   8.514   2.313   8.731  0.0798 -0.6756 -0.5381
  354MOL0     C47719   8.609   2.217   8.791  0.3025  0.5049  0.4025
  354MOL0     C47720   8.699   2.141   8.834  0.6215  0.5634 -0.4198
  354MOL0     C47721   7.887   2.402   8.529  0.3881 -0.6199 -0.4376
  354MOL0     C47722   7.756   2.361   8.557  0.9266 -0.2801 -0.1898
  354MOL0     H47723   7.363   2.429   8.780  3.0488 -2.0257 -1.9380
  354MOL0     H47724   7.131   2.385   8.886 -1.5999  2.1786 -2.0717
  354MOL0     H47725   6.887   2.022   8.702 -0.8366  0.9039 -0.6674
  354MOL0     H47726   6.978   1.998   8.854  0.5851 -0.2293 -0.7637
  354MOL0     H47727   6.748   1.953   8.904 -0.3974 -0.9415 -3.3245
  354MOL0     H47728   6.792   2.106   8.980  1.7812 -0.5991 -0.3434
  354MOL0     H47729   6.696   2.222   8.773  1.5240  1.2133  0.9807
  354MOL0     H47730   6.656   2.058   8.717  1.2601 -1.4305  0.9303
  354MOL0     H47731   6.493   2.028   8.872 -0.9166  0.0758 -0.7876
  354MOL0     H47732   6.558   2.126   8.997 -0.8820  0.0204  0.1060
  354MOL0     H47733   6.343   2.229   8.890 -0.3800  2.2672 -1.1390
  354MOL0     H47734   6.483   2.324   8.895 -0.5837 -0.3928  0.0668
  354MOL0     H47735   6.340   2.316   8.672 -2.3239 -1.1331  0.2827
  354MOL0     H47736   6.508   2.285   8.647  0.2893 -0.5490  0.2468
  354MOL0     H47737   6.376   2.112   8.514  2.4621  0.7783 -0.7635
  354MOL0     H47738   6.470   2.034   8.634 -1.5229 -0.4535  3.1888
  354MOL0     H47739   6.170   2.087   8.671 -1.7375 -2.5540 -0.9259
  354MOL0     H47740   6.272   2.016   8.797  0.0205 -1.2941 -1.0174
  354MOL0     H47741   6.098   1.934   8.487  1.3066 -0.5054 -0.5195
  354MOL0     H47742   6.111   1.593   8.398 -2.1876 -1.7044 -1.0737
  354MOL0     H47743   6.025   1.573   8.559 -1.2967  1.6739  0.5672
  354MOL0     H47744   5.953   1.776   8.352 -1.4873  2.4132  0.9290
  354MOL0     H47745   5.890   1.775   8.517  1.7503  3.1432 -2.8117
  354MOL0     H47746   5.800   1.551   8.503 -1.8544 -0.1802 -1.1063
  354MOL0     H47747   5.875   1.521   8.346 -1.4455 -0.4799 -2.0855
  354MOL0     H47748   5.698   1.653   8.247 -0.5854 -1.9716 -0.2398
  354MOL0     H47749   5.691   1.753   8.386 -0.1309  0.5288  0.3453
  354MOL0     H47750   5.426   1.388   8.455 -1.5777  0.5727  4.1643
  354MOL0     H47751   5.211   1.288   8.495  1.3666  3.1578  1.8438
  354MOL0     H47752   5.066   1.384   8.488  1.4480 -1.8317  1.1501
  354MOL0     H47753   5.122   1.303   8.339 -0.1299 -2.4979  0.3128
  354MOL0     H47754   4.837   1.507   8.036 -2.3396 -2.6554 -2.1311
  354MOL0     H47755   4.587   1.523   8.007  0.7200  1.8446 -0.4817
  354MOL0     H47756   4.336   1.691   8.099  0.5930 -0.4865 -2.2132
  354MOL0     H47757   4.395   1.551   8.023  0.2846 -0.3374  0.5353
  354MOL0     H47758   4.156   1.530   8.016  0.2522  0.1095 -0.0994
  354MOL0     H47759   4.211   1.415   8.140  0.8001  0.5139  0.0550
  354MOL0     H47760   4.137   1.704   8.210 -2.3137  0.4803  0.9989
  354MOL0     H47761   4.150   1.562   8.317 -0.2001 -1.6873 -1.0591
  354MOL0     H47762   3.939   1.610   8.115  1.6218  0.5371 -0.3582
  354MOL0     H47763   3.967   1.461   8.220  1.8327  0.0537  1.2581
  354MOL0     H47764   3.921   1.739   8.313  0.1749  0.6979 -1.2290
  354MOL0     H47765   3.911   1.595   8.417 -1.7744  1.9517  0.3843
  354MOL0     H47766   3.713   1.511   8.322  1.1169  0.0193 -1.1234
  354MOL0     H47767   3.700   1.668   8.398 -0.3755  1.9613 -1.0632
  354MOL0     H47768   3.559   1.651   8.183  0.0969 -0.9581 -2.8868
  354MOL0     H47769   3.694   1.596   8.104 -2.6206 -1.6189  0.0619
  354MOL0     H47770   3.679   1.833   8.033 -0.2391 -1.6295 -1.0657
  354MOL0     H47771   3.810   1.837   8.150 -0.0053  0.2544 -1.6997
  354MOL0     H47772   4.537   1.521   8.435  0.6637  2.9581  1.2118
  354MOL0     H47773   4.778   1.499   8.463 -0.0523  2.0022  0.9707
  354MOL0     H47774   5.223   1.786   8.247 -3.7749 -0.5364 -0.2678
  354MOL0     H47775   5.456   1.770   8.264  1.2318 -2.5839 -2.0538
  354MOL0     H47776   7.103   2.045   8.619  0.4280 -1.8709  1.2838
  354MOL0     H47777   7.353   2.074   8.555  3.2792  1.5997  1.0884
  354MOL0     H47778   7.806   2.206   8.864 -2.3641 -1.5918 -2.1106
  354MOL0     H47779   8.046   2.253   8.802 -1.1525 -1.0715  0.9383
  354MOL0     H47780   8.237   2.247   8.642 -1.3198  0.8217  3.5151
  354MOL0     H47781   8.314   2.378   8.554  2.4042 -2.6032  1.3603
  354MOL0     H47782   8.188   2.424   8.824 -0.8516 -2.1783 -1.3376
  354MOL0     H47783   8.296   2.536   8.733  2.0328 -0.1797 -0.3997
  354MOL0     H47784   8.354   2.265   8.863 -1.9031  0.9694  0.6040
  354MOL0     H47785   8.428   2.424   8.900 -0.8399  2.7279 -1.3156
  354MOL0     H47786   8.572   2.400   8.700 -0.1095  0.1830  1.3509
  354MOL0     H47787   8.472   2.265   8.643 -0.1379 -0.3124 -0.6363
  354MOL0     H47788   8.766   2.061   8.859 -2.2627 -1.5120  1.3754
  354MOL0     H47789   7.909   2.448   8.433  0.3821  2.4901  0.9291
  354MOL0     H47790   7.672   2.380   8.491  0.4097  0.7118  0.7320
  355MOL0     O47791   3.372  10.550   7.678 -0.1109  0.5403  0.5683
  355MOL0     C47792   3.415  10.511   7.784 -0.1068  0.4776 -0.0332
  355MOL0     O47793   3.348  10.457   7.892  0.2251  0.0421  0.3323
  355MOL0     C47794   3.211  10.443   7.888 -0.0067 -0.5036 -0.0343
  355MOL0     C47795   3.128  10.555   7.858 -0.6015 -0.2047 -0.2915
  355MOL0     C47796   2.990  10.541   7.867  0.8262 -0.4473  0.4353
  355MOL0     C47797   2.934  10.415   7.906 -0.2221 -0.7834  0.5347
  355MOL0     O47798   2.799  10.393   7.908  0.5779 -0.4865 -0.1701
  355MOL0     C47799   2.715  10.473   7.994 -0.6075 -0.5431  0.1108
  355MOL0     C47800   2.704  10.431   8.139  0.4625 -0.0748 -0.0191
  355MOL0     C47801   2.835  10.440   8.228 -0.3398 -0.1883  0.3594
  355MOL0     C47802   2.889  10.586   8.228 -0.1562 -0.2329 -0.3663
  355MOL0     C47803   3.049  10.592   8.240  0.6467 -0.1456  0.5749
  355MOL0     C47804   3.109  10.526   8.362 -0.8188 -0.1962 -0.8365
  355MOL0     C47805   3.264  10.522   8.354  1.2171 -0.6148 -0.3881
  355MOL0     C47806   3.315  10.407   8.264  0.7698  0.5538 -0.4615
  355MOL0     N47807   3.461  10.390   8.273 -0.0788 -0.8440 -0.4773
  355MOL0     C47808   3.525  10.326   8.371 -0.2102  0.2915  0.9102
  355MOL0     C47809   3.659  10.345   8.346  0.2070 -0.2017 -0.8508
  355MOL0     C47810   3.763  10.285   8.438  0.0886  0.4955 -0.8098
  355MOL0     C47811   3.850  10.383   8.520  0.3286  0.0912 -0.5696
  355MOL0     C47812   3.949  10.470   8.450  0.4937 -0.6934 -0.7278
  355MOL0     C47813   4.030  10.399   8.339  0.0266 -0.3612 -0.3686
  355MOL0     O47814   4.081  10.275   8.395  0.2574  0.3512  0.2764
  355MOL0     C47815   4.184  10.286   8.480 -0.0853 -0.0369  0.4002
  355MOL0     C47816   4.300  10.354   8.449  0.1583  0.2389 -0.2857
  355MOL0     C47817   4.400  10.373   8.540 -0.5777  0.0364  0.4912
  355MOL0     C47818   4.513  10.459   8.496 -0.2980  0.0312  0.5375
  355MOL0     C47819   4.389  10.311   8.666  0.2571 -0.3772 -0.2507
  355MOL0     C47820   4.499  10.301   8.762 -0.5003 -0.4682 -0.4161
  355MOL0     O47821   4.478  10.250   8.883 -0.0799  0.5366 -0.6000
  355MOL0     C47822   4.579  10.223   8.971 -0.6940  0.8999 -0.6088
  355MOL0     C47823   4.569  10.274   9.105  0.3047  0.2840 -0.9201
  355MOL0     C47824   4.670  10.250   9.204  0.7052  0.0234 -1.0194
  355MOL0     C47825   4.782  10.166   9.171 -0.1321 -0.5385 -0.4125
  355MOL0     O47826   4.882  10.138   9.258  0.7122  0.2381  0.3556
  355MOL0     C47827   4.864  10.156   9.395 -0.2802 -0.2038 -0.1829
  355MOL0     C47828   4.999  10.110   9.461 -0.2428  0.1344  0.5499
  355MOL0     C47829   5.000  10.135   9.617 -0.1328 -0.6969 -0.0279
  355MOL0     C47830   5.027  10.282   9.657  0.4974  0.6487  0.1759
  355MOL0     C47831   5.176  10.320   9.652  0.8157 -0.2501 -0.0090
  355MOL0     C47832   5.184  10.475   9.691  0.1863  0.1405  0.0650
  355MOL0     C47833   5.327  10.536   9.677 -0.9960  1.1197 -0.0705
  355MOL0     C47834   5.432  10.484   9.780  0.0857 -0.6135 -0.1466
  355MOL0    Cl47835   5.367  10.517   9.940  0.2312  0.0881  0.0627
  355MOL0     C47836   4.803  10.142   9.038 -0.3228  0.1367  0.4257
  355MOL0     C47837   4.701  10.152   8.941  0.1816 -0.1087 -0.3620
  355MOL0     O47838   4.609  10.339   8.727  0.1231  0.1506 -0.7428
  355MOL0     C47839   4.267  10.253   8.701  0.1393 -0.3297 -0.2430
  355MOL0     C47840   4.158  10.249   8.613 -0.2499  0.0285  0.6462
  355MOL0     N47841   3.672  10.414   8.230  0.3243 -0.2059  0.1905
  355MOL0     N47842   3.557  10.448   8.193 -0.1680 -0.1579  0.0056
  355MOL0     C47843   3.014  10.306   7.924  0.3429  0.4821  0.7458
  355MOL0     C47844   3.152  10.326   7.916  0.2377  0.2951  0.1184
  355MOL0     C47845   3.559  10.521   7.789 -0.7104  0.0232  0.5463
  355MOL0     C47846   3.626  10.451   7.887 -0.6971  0.4888 -0.1716
  355MOL0     C47847   3.768  10.463   7.909  0.0238  0.1659 -0.6561
  355MOL0     C47848   3.844  10.545   7.827 -0.8755  0.6933 -0.3146
  355MOL0     O47849   3.981  10.576   7.835 -0.0057  0.1263 -0.1819
  355MOL0     C47850   4.053  10.534   7.953 -0.3970 -1.1868 -0.2220
  355MOL0     C47851   4.191  10.580   7.933  0.1833 -1.0392  0.2333
  355MOL0     C47852   4.285  10.500   8.025  0.4930  0.1818  0.7071
  355MOL0     C47853   4.423  10.547   7.990  0.6651 -0.6331 -0.2896
  355MOL0     C47854   4.535  10.487   8.062 -0.2594 -0.7273 -1.0253
  355MOL0     C47855   4.629  10.434   8.113 -0.8827  0.1878  1.0889
  355MOL0     C47856   3.770  10.614   7.728 -0.4428  0.3410 -0.3041
  355MOL0     C47857   3.637  10.601   7.702 -0.0598  0.1660  0.2470
  355MOL0     H47858   3.162  10.654   7.829  1.4633 -0.8895 -0.4321
  355MOL0     H47859   2.925  10.622   7.834  0.5882 -0.7077  0.2615
  355MOL0     H47860   2.741  10.578   7.981  0.6863 -0.6243  1.6354
  355MOL0     H47861   2.617  10.463   7.948 -0.0973  0.9905 -1.4211
  355MOL0     H47862   2.624  10.489   8.187 -0.4495 -1.3895  0.1313
  355MOL0     H47863   2.674  10.326   8.146 -0.8012  0.3379  1.4795
  355MOL0     H47864   2.823  10.412   8.333 -1.6212  0.8078  0.5025
  355MOL0     H47865   2.913  10.380   8.181 -3.1156 -1.4260 -3.0557
  355MOL0     H47866   2.869  10.637   8.133 -0.6172 -2.9858 -1.8541
  355MOL0     H47867   2.835  10.642   8.305  2.0314 -0.7302  1.6397
  355MOL0     H47868   3.088  10.546   8.149 -0.5575  0.0077 -0.0333
  355MOL0     H47869   3.069  10.700   8.237  1.8158 -0.3624 -0.2321
  355MOL0     H47870   3.093  10.575   8.458  0.0319 -1.3135 -0.0941
  355MOL0     H47871   3.062  10.427   8.371 -0.2338 -0.4913 -0.9770
  355MOL0     H47872   3.301  10.619   8.318 -0.5716  0.6813  1.0402
  355MOL0     H47873   3.292  10.507   8.459 -1.1955 -1.2456  0.2434
  355MOL0     H47874   3.286  10.418   8.158  0.0450 -2.0562 -0.6040
  355MOL0     H47875   3.264  10.316   8.297  2.2460  0.2919  1.1796
  355MOL0     H47876   3.476  10.283   8.458 -2.0620  0.0213 -0.2113
  355MOL0     H47877   3.715  10.227   8.518  2.0577  0.9609  0.7968
  355MOL0     H47878   3.829  10.220   8.380  3.4009  2.4439  0.5248
  355MOL0     H47879   3.887  10.319   8.601 -2.5469 -1.7527 -0.5426
  355MOL0     H47880   3.784  10.455   8.569 -2.5453 -0.9405 -2.6684
  355MOL0     H47881   4.024  10.516   8.515 -0.1834 -0.4013 -0.1308
  355MOL0     H47882   3.888  10.544   8.398  2.0580  1.0170 -0.2209
  355MOL0     H47883   4.117  10.454   8.303 -0.4802  0.7394  0.0372
  355MOL0     H47884   3.969  10.366   8.255  0.3472 -0.5719 -0.5222
  355MOL0     H47885   4.317  10.389   8.347  1.3955  2.4399  0.5968
  355MOL0     H47886   4.592  10.408   8.442 -1.3819  0.2377 -1.3254
  355MOL0     H47887   4.476  10.532   8.423  2.4484  1.9922  0.9438
  355MOL0     H47888   4.554  10.522   8.576 -1.2058  1.4394 -0.0685
  355MOL0     H47889   4.480  10.325   9.140  2.4639  3.6534  0.1736
  355MOL0     H47890   4.653  10.309   9.294 -1.6633 -0.2894 -1.2010
  355MOL0     H47891   4.846  10.263   9.413  1.6182  0.5945 -2.4180
  355MOL0     H47892   4.778  10.100   9.431 -2.3016  2.7748 -0.0298
  355MOL0     H47893   5.012  10.002   9.453 -1.4744  0.0634 -1.0661
  355MOL0     H47894   5.079  10.156   9.402  0.3697 -0.4064  0.9516
  355MOL0     H47895   5.066  10.063   9.666 -1.8370 -2.7598 -0.6500
  355MOL0     H47896   4.901  10.106   9.652  0.1163 -1.3570  0.1333
  355MOL0     H47897   4.972  10.352   9.595 -0.9032  0.4917  1.1907
  355MOL0     H47898   4.987  10.284   9.759 -3.5792 -3.0015 -1.0339
  355MOL0     H47899   5.211  10.308   9.549 -1.6110  1.2653 -1.0960
  355MOL0     H47900   5.247  10.262   9.712  0.2756 -0.8665  0.0456
  355MOL0     H47901   5.128  10.530   9.615  1.2921 -0.3264 -1.1401
  355MOL0     H47902   5.146  10.490   9.792  0.8866  1.4667  0.1461
  355MOL0     H47903   5.328  10.646   9.676  0.3613  1.1400 -1.6759
  355MOL0     H47904   5.355  10.505   9.576 -0.0328 -1.9862  1.0448
  355MOL0     H47905   5.523  10.544   9.764 -0.2677  1.0207  3.0857
  355MOL0     H47906   5.444  10.376   9.774  0.2356 -0.7761  2.1209
  355MOL0     H47907   4.891  10.089   9.002  1.1923  3.0236 -0.4358
  355MOL0     H47908   4.725  10.132   8.837  2.1225  1.6444 -0.3170
  355MOL0     H47909   4.252  10.208   8.799 -0.3535 -0.2569 -0.2803
  355MOL0     H47910   4.065  10.204   8.646  0.0232  0.7614  2.5420
  355MOL0     H47911   2.969  10.208   7.936 -2.6586  2.0189  3.1216
  355MOL0     H47912   3.208  10.234   7.933 -1.8117 -1.0937 -0.2320
  355MOL0     H47913   3.573  10.395   7.963  0.1221  1.7833  1.4033
  355MOL0     H47914   3.809  10.408   7.994 -1.2244  2.2836  1.4044
  355MOL0     H47915   4.002  10.567   8.044 -0.8550 -3.7332  0.5318
  355MOL0     H47916   4.033  10.426   7.957  1.8901 -1.6147  2.0566
  355MOL0     H47917   4.197  10.689   7.948 -1.9528 -0.4278 -2.3851
  355MOL0     H47918   4.227  10.560   7.831  2.8402  0.5048  0.7686
  355MOL0     H47919   4.268  10.392   8.021 -5.3896  0.7898 -0.0649
  355MOL0     H47920   4.254  10.521   8.128 -3.1657  2.5602 -0.6814
  355MOL0     H47921   4.419  10.654   8.013  1.1926 -0.6654 -0.0344
  355MOL0     H47922   4.436  10.545   7.881 -2.1050  2.2029 -0.8430
  355MOL0     H47923   4.712  10.393   8.167  1.1476  0.0636 -1.9095
  355MOL0     H47924   3.813  10.695   7.669 -0.3977  0.3240 -0.2940
  355MOL0     H47925   3.592  10.658   7.622 -0.8918 -1.1592 -0.2595
  356MOL0     O47926   3.711   4.986   6.224  0.0085 -0.8302  0.8651
  356MOL0     C47927   3.789   5.079   6.204 -0.5847 -0.3388  0.5287
  356MOL0     O47928   3.742   5.216   6.207  0.6311 -0.0176  0.0262
  356MOL0     C47929   3.623   5.247   6.256 -0.0988  0.5335 -0.2627
  356MOL0     C47930   3.561   5.356   6.202 -0.6487  1.1426 -0.4205
  356MOL0     C47931   3.446   5.412   6.248 -0.5198  0.0030 -0.2290
  356MOL0     C47932   3.391   5.360   6.367  0.3592  0.5489  0.2099
  356MOL0     O47933   3.278   5.408   6.428  0.8983 -0.2192  0.2892
  356MOL0     C47934   3.195   5.505   6.352 -0.9716  0.7620  0.2101
  356MOL0     C47935   3.083   5.559   6.436  0.6030 -0.3484  0.4253
  356MOL0     C47936   2.974   5.452   6.469  1.3179  0.2872  0.4673
  356MOL0     C47937   2.866   5.515   6.555  0.2608 -0.0165  0.0732
  356MOL0     C47938   2.776   5.408   6.604  0.4750  0.0666  0.1509
  356MOL0     C47939   2.654   5.468   6.678 -0.4111  0.4970  0.0182
  356MOL0     C47940   2.571   5.356   6.732 -0.3731  0.5056  0.9119
  356MOL0     C47941   2.446   5.387   6.814  0.0968 -0.0693 -0.4767
  356MOL0     N47942   2.383   5.257   6.846 -0.1927  0.1109 -0.6753
  356MOL0     C47943   2.347   5.206   6.970 -0.1778 -0.3166  0.5344
  356MOL0     C47944   2.297   5.084   6.947 -1.0430 -0.1496  0.6150
  356MOL0     C47945   2.237   4.997   7.056  0.4788 -0.7878 -0.1088
  356MOL0     C47946   2.113   5.050   7.124 -0.4431 -0.1839  0.2061
  356MOL0     C47947   2.019   5.098   7.017 -0.3433  0.1572  0.5650
  356MOL0     C47948   1.891   5.144   7.063 -0.3587 -0.2526  0.3786
  356MOL0     O47949   1.824   5.023   7.108 -0.3504 -0.3643  0.1500
  356MOL0     C47950   1.685   5.016   7.085 -0.4493 -0.8575  1.0213
  356MOL0     C47951   1.637   4.882   7.099 -0.4100 -0.2066 -0.7720
  356MOL0     C47952   1.494   4.867   7.086  0.1415 -0.0808 -0.2309
  356MOL0     C47953   1.452   4.728   7.105  0.1792  0.5200 -0.3917
  356MOL0     C47954   1.411   4.975   7.061  0.1160 -0.1126  0.0618
  356MOL0     C47955   1.268   4.964   7.033  0.1249  0.4283 -0.0946
  356MOL0     O47956   1.209   5.087   7.047  0.0461  0.0743  0.0243
  356MOL0     C47957   1.072   5.103   7.033  0.5801  0.0126 -0.0186
  356MOL0     C47958   0.982   5.014   7.085  0.2096  0.2719 -0.3673
  356MOL0     C47959   0.842   5.028   7.064 -0.4720 -0.6725 -0.1902
  356MOL0     C47960   0.793   5.138   6.992  0.0264 -0.6688 -0.3405
  356MOL0     O47961   0.661   5.160   6.969  0.2339 -0.4394  0.8213
  356MOL0     C47962   0.563   5.081   7.033 -0.1463  0.4067 -0.6288
  356MOL0     C47963   0.421   5.130   7.001 -0.7400  0.1078  0.5242
  356MOL0     C47964   0.358   5.090   6.866 -1.0940  0.1909  0.3566
  356MOL0     C47965   0.330   4.946   6.865 -0.0434  0.0465  0.1880
  356MOL0     C47966   0.253   4.898   6.741 -0.0957 -0.0216 -0.2631
  356MOL0     C47967   0.340   4.919   6.615  0.2999  0.7514  0.2359
  356MOL0     C47968   0.350   4.793   6.518 -0.3422  0.2634 -0.0143
  356MOL0     C47969   0.222   4.765   6.443  0.8231 -0.0495  0.2749
  356MOL0    Cl47970   0.235   4.621   6.343  0.1655 -0.3696 -0.2262
  356MOL0     C47971   0.875   5.235   6.946 -0.6856 -0.0488  0.6139
  356MOL0     C47972   1.017   5.217   6.969  0.6957 -0.9496 -0.0305
  356MOL0     O47973   1.222   4.871   6.979  0.2183  0.4020 -0.3494
  356MOL0     C47974   1.471   5.106   7.054 -0.7592  0.1137 -0.1918
  356MOL0     C47975   1.601   5.124   7.061  0.3509  0.1574  0.0787
  356MOL0     N47976   2.290   5.061   6.813 -0.2596 -0.2851  0.6542
  356MOL0     N47977   2.345   5.160   6.755  0.8217 -0.3761 -0.1340
  356MOL0     C47978   3.450   5.244   6.421 -0.7089 -0.3086  0.1524
  356MOL0     C47979   3.567   5.186   6.363  1.2740 -0.5614 -0.1130
  356MOL0     C47980   3.936   5.055   6.176  0.2242  0.0264  0.2302
  356MOL0     C47981   4.012   5.169   6.139  0.1283  0.2895  0.4073
  356MOL0     C47982   4.149   5.145   6.110  0.1100 -0.1841  0.3524
  356MOL0     C47983   4.210   5.021   6.124 -0.2282 -0.7164 -1.1010
  356MOL0     O47984   4.346   5.011   6.095  0.4893 -0.7111  0.6083
  356MOL0     C47985   4.407   4.884   6.109  0.4618  0.0948 -0.3023
  356MOL0     C47986   4.541   4.896   6.042  0.2943  0.9441  0.2855
  356MOL0     C47987   4.632   4.982   6.128  0.5525  0.0948 -0.6323
  356MOL0     C47988   4.761   5.011   6.042  0.1537  0.1041 -0.6957
  356MOL0     C47989   4.835   4.896   6.003 -0.4503  0.1646  0.4513
  356MOL0     C47990   4.910   4.809   5.968  0.1183 -0.8752 -1.0134
  356MOL0     C47991   4.133   4.909   6.162  0.6732 -0.2087 -0.1863
  356MOL0     C47992   3.995   4.928   6.173 -0.2564 -0.1268 -0.3288
  356MOL0     H47993   3.603   5.397   6.111 -0.8185  2.7457  0.1869
  356MOL0     H47994   3.406   5.499   6.197  0.1298  0.0285 -0.7086
  356MOL0     H47995   3.256   5.582   6.305  1.1166 -1.4290 -0.9000
  356MOL0     H47996   3.160   5.448   6.265  2.1049 -1.4023  0.2390
  356MOL0     H47997   3.118   5.601   6.530 -0.1082 -0.3621  0.6972
  356MOL0     H47998   3.042   5.635   6.369  1.2003 -0.8021 -0.4786
  356MOL0     H47999   2.921   5.417   6.380  2.0732 -0.5336  0.3183
  356MOL0     H48000   3.024   5.367   6.515  1.8986 -1.1511 -2.5420
  356MOL0     H48001   2.903   5.565   6.645 -1.5658  1.7943 -0.1164
  356MOL0     H48002   2.814   5.590   6.495  2.4280 -1.2479 -3.6728
  356MOL0     H48003   2.734   5.356   6.518 -0.3055 -1.3036  1.3275
  356MOL0     H48004   2.829   5.333   6.663  2.3102 -0.5165 -2.0964
  356MOL0     H48005   2.685   5.535   6.759 -0.5564  1.9668 -1.0841
  356MOL0     H48006   2.600   5.530   6.605 -0.9164 -1.3685 -1.2781
  356MOL0     H48007   2.544   5.294   6.646  0.1661 -0.1617  1.2182
  356MOL0     H48008   2.641   5.296   6.790  1.8994  0.0516 -2.0894
  356MOL0     H48009   2.369   5.441   6.758 -1.6337 -0.2876  1.5906
  356MOL0     H48010   2.473   5.437   6.908 -3.4847  1.5128 -0.1121
  356MOL0     H48011   2.359   5.255   7.066 -0.0601  2.6917 -0.9092
  356MOL0     H48012   2.203   4.907   7.004 -1.9583 -0.4796  0.7931
  356MOL0     H48013   2.314   4.968   7.128 -0.5976 -1.3059  0.8686
  356MOL0     H48014   2.131   5.132   7.194 -1.3735  2.6687 -2.6452
  356MOL0     H48015   2.063   4.968   7.176  2.4555 -1.3931  1.2543
  356MOL0     H48016   2.014   5.020   6.941  2.1132  1.7114 -1.3872
  356MOL0     H48017   2.059   5.184   6.961 -0.9779  0.0370 -0.0809
  356MOL0     H48018   1.849   5.196   6.976  0.2601 -1.4958 -0.7003
  356MOL0     H48019   1.915   5.208   7.148 -0.6008  0.7920 -0.3107
  356MOL0     H48020   1.700   4.796   7.117  0.6125  0.4294 -1.2240
  356MOL0     H48021   1.352   4.719   7.148  1.1178  1.6838  2.2012
  356MOL0     H48022   1.456   4.664   7.016 -0.0636 -0.8168  0.5249
  356MOL0     H48023   1.515   4.674   7.176 -0.1518  1.7209  0.8631
  356MOL0     H48024   1.011   4.920   7.132  0.9626  0.5037 -0.3707
  356MOL0     H48025   0.761   4.970   7.106 -1.2125 -0.7415 -1.6566
  356MOL0     H48026   0.566   4.974   7.011  2.3560  0.0618  0.9406
  356MOL0     H48027   0.582   5.092   7.141 -2.1391  0.5604 -0.2604
  356MOL0     H48028   0.361   5.089   7.083 -2.0976 -0.4106 -0.6901
  356MOL0     H48029   0.423   5.240   7.009  0.8822  0.2152 -0.8415
  356MOL0     H48030   0.435   5.121   6.794  1.5974 -1.7682  2.1913
  356MOL0     H48031   0.271   5.153   6.847  0.0180  1.4976 -0.7046
  356MOL0     H48032   0.423   4.890   6.877  0.3777  0.7364  0.1577
  356MOL0     H48033   0.270   4.924   6.955 -1.4569 -0.8985 -0.9409
  356MOL0     H48034   0.159   4.953   6.731  0.0471  0.1881 -0.4563
  356MOL0     H48035   0.234   4.790   6.742  2.2455 -0.4979 -0.3658
  356MOL0     H48036   0.307   5.001   6.551  1.8943 -0.0385 -1.7156
  356MOL0     H48037   0.443   4.942   6.644  1.2053 -0.7599 -1.5462
  356MOL0     H48038   0.373   4.698   6.567 -1.5968 -0.2636 -0.3935
  356MOL0     H48039   0.433   4.821   6.454  0.4991  1.8841  1.6783
  356MOL0     H48040   0.201   4.845   6.372 -1.7246 -1.3212 -0.5103
  356MOL0     H48041   0.137   4.751   6.510 -0.4138  0.3584 -1.1521
  356MOL0     H48042   0.834   5.328   6.908  0.8829  1.9658  3.4532
  356MOL0     H48043   1.081   5.301   6.941 -0.2766  0.1158  0.8403
  356MOL0     H48044   1.421   5.198   7.024  2.5577  2.1567  0.0510
  356MOL0     H48045   1.633   5.227   7.068  1.3359  0.2333 -3.4194
  356MOL0     H48046   3.422   5.204   6.518 -0.7880  1.1677  0.7662
  356MOL0     H48047   3.617   5.101   6.409 -0.7810 -1.3136  0.8385
  356MOL0     H48048   3.979   5.273   6.135  2.0136  0.9155  0.0030
  356MOL0     H48049   4.211   5.230   6.084 -0.4678 -0.2246 -1.3384
  356MOL0     H48050   4.435   4.851   6.209  0.3431 -0.2244 -0.3756
  356MOL0     H48051   4.350   4.802   6.065 -0.1039 -0.4420  1.3718
  356MOL0     H48052   4.529   4.932   5.939 -0.2891  0.2832  0.1134
  356MOL0     H48053   4.579   4.794   6.036  1.1138  1.3404 -3.2214
  356MOL0     H48054   4.656   4.944   6.228  1.2668  3.1721  0.4988
  356MOL0     H48055   4.585   5.081   6.128  2.1284  0.8757 -0.0989
  356MOL0     H48056   4.828   5.070   6.105 -2.1092  2.0044  0.0651
  356MOL0     H48057   4.734   5.066   5.952  0.0332  0.5401 -0.3962
  356MOL0     H48058   4.983   4.744   5.923  0.0925 -1.6192 -0.0187
  356MOL0     H48059   4.165   4.805   6.172 -2.0010 -1.0043  1.0175
  356MOL0     H48060   3.938   4.847   6.215  0.3613 -0.3639  0.0634
  357MOL0     O48061   9.805   1.984   4.904 -0.2344 -0.3605 -0.0554
  357MOL0     C48062   9.712   2.051   4.963  0.2963  0.4086  0.7111
  357MOL0     O48063   9.733   2.142   5.065  0.1017 -0.1171  0.0678
  357MOL0     C48064   9.843   2.223   5.061  0.2443 -0.0492  0.2276
  357MOL0     C48065   9.971   2.188   5.079 -0.7248  0.3230  0.0300
  357MOL0     C48066  10.078   2.264   5.080 -0.6250  0.1207 -0.6302
  357MOL0     C48067  10.064   2.403   5.055  0.0915 -0.2473  0.4769
  357MOL0     O48068  10.182   2.473   5.064 -0.8220 -0.6544 -0.4413
  357MOL0     C48069  10.179   2.614   5.052  0.2453 -0.1087  0.3030
  357MOL0     C48070  10.309   2.674   5.108 -0.1882 -0.2110 -0.0210
  357MOL0     C48071  10.419   2.663   5.008 -0.0195 -0.3651 -0.1285
  357MOL0     C48072  10.548   2.739   5.048  1.0661 -0.0304  0.1582
  357MOL0     C48073  10.525   2.883   5.104 -0.2345  0.0879 -0.0026
  357MOL0     C48074  10.659   2.948   5.138 -0.5557 -0.1280  0.1596
  357MOL0     C48075  10.724   2.905   5.269  0.1963  0.6609  0.8748
  357MOL0     C48076  10.638   2.932   5.384 -0.0530  0.5355 -0.0325
  357MOL0     N48077  10.599   3.078   5.405 -0.2627 -0.0974  0.2558
  357MOL0     C48078  10.476   3.123   5.375 -0.8902 -0.4556 -0.4482
  357MOL0     C48079  10.502   3.251   5.378 -0.3063 -0.1562 -0.0058
  357MOL0     C48080  10.384   3.346   5.362 -0.0900 -0.3808 -0.2633
  357MOL0     C48081  10.351   3.410   5.499 -0.1769 -0.4809  0.5316
  357MOL0     C48082  10.250   3.522   5.485 -0.5775  0.1347  0.5412
  357MOL0     C48083  10.105   3.500   5.437  0.1273 -0.1622  0.6907
  357MOL0     O48084  10.020   3.442   5.531  0.3854  0.9952 -0.0730
  357MOL0     C48085   9.886   3.412   5.498  0.0811 -0.1831  1.2923
  357MOL0     C48086   9.808   3.335   5.588 -0.9194 -0.1614  1.0637
  357MOL0     C48087   9.675   3.299   5.566 -0.1268 -0.2133  0.3304
  357MOL0     C48088   9.619   3.206   5.682 -0.1539 -0.6780  0.1602
  357MOL0     C48089   9.610   3.343   5.452  0.1654  0.6810  0.0597
  357MOL0     C48090   9.476   3.303   5.411 -0.0813 -0.0771 -0.5288
  357MOL0     O48091   9.430   3.367   5.294 -0.6519  0.3154 -0.0843
  357MOL0     C48092   9.321   3.319   5.226 -0.4605  0.1675 -0.0532
  357MOL0     C48093   9.333   3.329   5.094 -0.0257  0.6727  0.1668
  357MOL0     C48094   9.224   3.301   5.004  0.1335 -0.0792 -0.1840
  357MOL0     C48095   9.105   3.254   5.060 -0.1064 -0.1333  0.0115
  357MOL0     O48096   8.997   3.207   4.988  0.2512 -0.0452 -0.8145
  357MOL0     C48097   9.005   3.210   4.846 -0.5615  0.5108  0.6181
  357MOL0     C48098   8.882   3.130   4.796 -0.2626  0.5395 -0.1237
  357MOL0     C48099   8.822   3.010   4.877 -0.9623  0.8295 -0.7685
  357MOL0     C48100   8.903   2.886   4.861 -0.7365  0.0063  0.5989
  357MOL0     C48101   8.821   2.762   4.902 -0.4376  0.1489 -0.6465
  357MOL0     C48102   8.680   2.757   4.845 -0.2425  0.1529  0.4925
  357MOL0     C48103   8.616   2.620   4.852  0.0111 -0.5449 -0.1368
  357MOL0     C48104   8.584   2.567   4.987  0.5532 -0.2183  0.3260
  357MOL0    Cl48105   8.469   2.433   4.980  0.1308  0.1825  0.0785
  357MOL0     C48106   9.088   3.260   5.208  0.8562  0.5886 -0.2185
  357MOL0     C48107   9.204   3.283   5.287 -0.4558  0.5863  0.5322
  357MOL0     O48108   9.419   3.206   5.473  0.3587  0.2322 -0.1010
  357MOL0     C48109   9.690   3.413   5.358  0.5926 -0.7964 -0.0794
  357MOL0     C48110   9.825   3.448   5.376  0.0240  1.2584 -0.6306
  357MOL0     N48111  10.634   3.289   5.410  0.5092 -0.3064 -0.5756
  357MOL0     N48112  10.695   3.173   5.414 -0.3470 -0.4006 -0.8087
  357MOL0     C48113   9.929   2.442   5.031  0.1689  0.3784 -0.5574
  357MOL0     C48114   9.819   2.347   5.017 -0.1746  0.3007 -0.0549
  357MOL0     C48115   9.562   2.011   4.941 -1.0117  0.1118  0.2256
  357MOL0     C48116   9.534   1.909   4.849 -0.4298 -0.6075 -0.4102
  357MOL0     C48117   9.402   1.886   4.811  0.9217  0.1161 -0.0787
  357MOL0     C48118   9.291   1.936   4.878 -0.4835 -0.3855  0.0328
  357MOL0     O48119   9.163   1.916   4.844 -0.4972 -0.3624 -0.8249
  357MOL0     C48120   9.126   1.840   4.732  0.1540  0.1961  0.0373
  357MOL0     C48121   8.978   1.858   4.709 -0.5209 -0.1648  0.2989
  357MOL0     C48122   8.954   1.983   4.619  0.4054 -0.3471  0.1828
  357MOL0     C48123   8.811   2.017   4.606 -0.2225 -0.9698 -0.6702
  357MOL0     C48124   8.765   2.091   4.726  1.1279  0.4670 -0.7639
  357MOL0     C48125   8.725   2.154   4.823  0.2825  1.2669  0.5347
  357MOL0     C48126   9.315   2.034   4.973 -0.5942  0.3034 -0.6461
  357MOL0     C48127   9.448   2.070   5.005 -0.1900  0.6783 -0.0837
  357MOL0     H48128   9.985   2.083   5.101  0.2052  0.2069 -1.0067
  357MOL0     H48129  10.174   2.228   5.114 -0.9512 -0.2113 -0.0507
  357MOL0     H48130  10.179   2.632   4.944  0.5095 -1.0851  0.1288
  357MOL0     H48131  10.096   2.666   5.101 -0.0320  1.4696 -1.7222
  357MOL0     H48132  10.282   2.775   5.139  1.4801 -0.4658  2.5341
  357MOL0     H48133  10.339   2.622   5.199 -0.2467 -0.8601 -0.3652
  357MOL0     H48134  10.444   2.557   4.999  0.0675 -0.2768 -1.0186
  357MOL0     H48135  10.382   2.693   4.910  0.8986 -1.7724 -0.9283
  357MOL0     H48136  10.615   2.687   5.117  0.0651 -0.4773  0.8153
  357MOL0     H48137  10.611   2.744   4.958  0.8127 -1.4921 -0.1177
  357MOL0     H48138  10.484   2.943   5.022 -0.8259 -2.6307 -1.8528
  357MOL0     H48139  10.459   2.882   5.191  0.4025 -0.3524  0.4826
  357MOL0     H48140  10.715   2.935   5.045 -0.6764  0.4339 -0.0013
  357MOL0     H48141  10.624   3.051   5.149  1.3743  0.5008  0.6918
  357MOL0     H48142  10.753   2.800   5.268  1.3002  0.9503 -0.9687
  357MOL0     H48143  10.821   2.953   5.280 -0.4715  1.9429  1.3771
  357MOL0     H48144  10.675   2.906   5.484  1.0195  1.7493 -0.0792
  357MOL0     H48145  10.546   2.873   5.379 -1.1946  2.0928  1.2683
  357MOL0     H48146  10.383   3.076   5.343 -1.1259 -0.0493 -0.3706
  357MOL0     H48147  10.410   3.427   5.293 -2.3857  1.1479  0.5406
  357MOL0     H48148  10.293   3.302   5.319  0.2907 -1.4665  0.0119
  357MOL0     H48149  10.446   3.437   5.546 -0.0356 -1.4800  0.8381
  357MOL0     H48150  10.313   3.334   5.568 -2.0448  0.6742  0.8472
  357MOL0     H48151  10.287   3.594   5.411  0.1751 -2.5969 -1.9040
  357MOL0     H48152  10.234   3.578   5.578 -0.8087  1.2135 -0.1317
  357MOL0     H48153  10.125   3.449   5.343  2.1754  2.6404 -0.5329
  357MOL0     H48154  10.056   3.595   5.414  0.6806  0.8995  3.4331
  357MOL0     H48155   9.860   3.306   5.679 -0.4962 -0.8814  0.5977
  357MOL0     H48156   9.521   3.252   5.697  0.8803  2.5999 -2.0024
  357MOL0     H48157   9.601   3.102   5.655 -0.6803 -0.1831 -1.5115
  357MOL0     H48158   9.687   3.220   5.767 -1.4899  1.9795  0.9116
  357MOL0     H48159   9.430   3.356   5.052  0.5330 -0.3591  0.7588
  357MOL0     H48160   9.236   3.326   4.899 -1.9591  0.6586 -0.3039
  357MOL0     H48161   9.009   3.308   4.798 -0.0951 -0.7338 -2.0407
  357MOL0     H48162   9.092   3.150   4.819 -1.1841 -1.0715  1.9137
  357MOL0     H48163   8.805   3.207   4.784  0.4391  0.9119 -3.1925
  357MOL0     H48164   8.896   3.105   4.691 -1.8562 -0.0221 -0.2280
  357MOL0     H48165   8.721   3.000   4.837 -1.3993 -1.2988  0.7035
  357MOL0     H48166   8.820   3.028   4.985 -2.1430 -2.4507 -0.1425
  357MOL0     H48167   8.951   2.878   4.763  0.6271 -0.3296  1.2746
  357MOL0     H48168   8.987   2.886   4.930  1.6934 -0.4528 -2.1509
  357MOL0     H48169   8.815   2.764   5.011 -0.7091  1.0954 -0.6703
  357MOL0     H48170   8.882   2.678   4.868 -0.9500  0.4900 -2.5729
  357MOL0     H48171   8.617   2.830   4.897  1.9371  0.9552  2.1713
  357MOL0     H48172   8.688   2.777   4.738  0.3600 -2.3965 -0.0041
  357MOL0     H48173   8.688   2.553   4.804  0.5502  0.4101 -0.6898
  357MOL0     H48174   8.531   2.626   4.784  2.1251  0.3436 -2.8610
  357MOL0     H48175   8.543   2.646   5.050  0.7886  1.0101 -1.0002
  357MOL0     H48176   8.670   2.526   5.041  0.1856 -1.7016 -0.1537
  357MOL0     H48177   8.991   3.245   5.256  1.1222 -0.5019 -0.0005
  357MOL0     H48178   9.203   3.298   5.395 -0.7617 -0.3382  0.6689
  357MOL0     H48179   9.653   3.437   5.259 -0.0189  0.4560  0.4359
  357MOL0     H48180   9.870   3.504   5.295 -1.5920  0.1533 -2.3745
  357MOL0     H48181   9.903   2.548   5.034 -1.4594 -0.0095  0.9834
  357MOL0     H48182   9.720   2.389   5.001  0.5094  2.7238  1.4925
  357MOL0     H48183   9.613   1.847   4.807 -0.1275 -0.3535 -0.2137
  357MOL0     H48184   9.380   1.802   4.747 -1.4120 -0.5582  1.4906
  357MOL0     H48185   9.183   1.870   4.643  0.1711  1.9787  0.6138
  357MOL0     H48186   9.133   1.733   4.752 -2.3478 -0.4251 -1.9241
  357MOL0     H48187   8.930   1.872   4.806 -0.1175 -3.3294  1.0669
  357MOL0     H48188   8.942   1.772   4.651 -0.7914 -1.6035  2.4780
  357MOL0     H48189   8.987   1.960   4.518 -1.4314  0.6927 -0.7045
  357MOL0     H48190   9.004   2.070   4.662  0.7851 -0.9610  1.0182
  357MOL0     H48191   8.748   1.928   4.611  0.3009 -1.3021  0.5969
  357MOL0     H48192   8.805   2.075   4.514  2.5426 -0.5190 -0.6648
  357MOL0     H48193   8.690   2.198   4.914  0.6601  0.9960  0.8164
  357MOL0     H48194   9.237   2.094   5.019  0.4536  0.6393  0.8077
  357MOL0     H48195   9.465   2.142   5.084 -1.8670  0.5970  0.3975
  358MOL0     O48196   8.247   9.873   5.875 -0.4415 -0.2226  0.1376
  358MOL0     C48197   8.333   9.853   5.959  0.3882  0.0946 -0.4054
  358MOL0     O48198   8.302   9.817   6.086  0.6265  0.3922 -0.3588
  358MOL0     C48199   8.171   9.810   6.134  1.0996  0.3530  1.2120
  358MOL0     C48200   8.084   9.700   6.092 -0.8295 -0.2366 -0.0760
  358MOL0     C48201   7.956   9.687   6.152 -0.7093 -0.8856 -0.0332
  358MOL0     C48202   7.923   9.773   6.257 -0.0518  0.2765  0.1302
  358MOL0     O48203   7.792   9.768   6.295 -0.3417  0.6710  0.2236
  358MOL0     C48204   7.728   9.848   6.401 -0.5763  0.0355  0.2892
  358MOL0     C48205   7.613   9.775   6.448 -0.6918 -0.1914 -0.0012
  358MOL0     C48206   7.505   9.864   6.503 -0.0874  0.1802 -0.1263
  358MOL0     C48207   7.528   9.919   6.647  0.2313 -0.2787  0.1650
  358MOL0     C48208   7.419  10.020   6.669  0.0772  0.7507  0.1706
  358MOL0     C48209   7.418  10.051   6.820 -0.6397 -0.4945 -0.4624
  358MOL0     C48210   7.323  10.176   6.852  0.6854  0.6328 -0.3515
  358MOL0     C48211   7.389  10.302   6.810 -0.0982 -0.0972  1.0110
  358MOL0     N48212   7.315  10.425   6.850  0.3555  0.5038 -0.0783
  358MOL0     C48213   7.183  10.439   6.872 -0.1125 -0.2871 -0.0596
  358MOL0     C48214   7.171  10.569   6.884  0.1563 -0.6439 -0.1415
  358MOL0     C48215   7.046  10.655   6.905  0.6804 -0.3701  0.2532
  358MOL0     C48216   6.919  10.585   6.860  0.0134 -0.2076 -0.1268
  358MOL0     C48217   6.783  10.652   6.912  0.0253 -0.2987 -0.4515
  358MOL0     C48218   6.659  10.625   6.826 -0.0396  1.0466 -0.2406
  358MOL0     O48219   6.673  10.660   6.692  0.7674 -0.0460  0.2454
  358MOL0     C48220   6.556  10.712   6.628 -0.4573  0.1312  0.1281
  358MOL0     C48221   6.507  10.649   6.517 -0.4642  0.5671  1.4014
  358MOL0     C48222   6.383  10.686   6.456 -0.6463 -0.9386 -0.3444
  358MOL0     C48223   6.352  10.637   6.320 -0.2957  0.2408 -0.0237
  358MOL0     C48224   6.313  10.791   6.520  0.6718  0.6292 -0.8900
  358MOL0     C48225   6.170  10.824   6.483 -0.5161  0.1826 -0.5183
  358MOL0     O48226   6.110  10.928   6.553 -0.4610 -0.6270  0.6173
  358MOL0     C48227   5.982  10.964   6.510  0.6020  0.6739  0.3312
  358MOL0     C48228   5.959  11.086   6.447  0.0854 -0.3595  0.0683
  358MOL0     C48229   5.834  11.126   6.418 -0.1048  0.4164  0.5247
  358MOL0     C48230   5.720  11.041   6.438  0.7285 -0.2371  0.0648
  358MOL0     O48231   5.598  11.093   6.437  0.2090  0.4753  0.2301
  358MOL0     C48232   5.504  11.016   6.356 -0.4900 -0.4166  0.3907
  358MOL0     C48233   5.380  11.107   6.351  0.5121  0.5881 -0.2822
  358MOL0     C48234   5.281  11.045   6.260 -0.3136 -0.8632  0.0319
  358MOL0     C48235   5.158  11.138   6.241 -0.1116  0.7251  0.8636
  358MOL0     C48236   5.034  11.051   6.202 -0.3292 -0.5948  0.1646
  358MOL0     C48237   4.916  11.140   6.160 -0.7103 -0.2909 -0.0396
  358MOL0     C48238   4.793  11.050   6.125  0.0419  0.8297 -0.3370
  358MOL0     C48239   4.673  11.136   6.097  0.7589 -0.1719  1.0827
  358MOL0    Cl48240   4.703  11.264   5.982  0.3433 -0.0933 -0.0418
  358MOL0     C48241   5.748  10.912   6.493  0.6949 -0.1886  0.1437
  358MOL0     C48242   5.880  10.878   6.521 -0.8565  0.4018  0.9538
  358MOL0     O48243   6.128  10.768   6.380  0.0372 -0.4600 -0.1106
  358MOL0     C48244   6.365  10.858   6.633 -0.8551 -0.2092  0.6630
  358MOL0     C48245   6.484  10.813   6.685 -0.6206 -0.1708  0.0388
  358MOL0     N48246   7.289  10.630   6.883  0.0857 -0.4579  0.0525
  358MOL0     N48247   7.380  10.541   6.853  0.7779 -0.6723  0.6066
  358MOL0     C48248   8.016   9.868   6.306  0.2593 -0.3063  0.0315
  358MOL0     C48249   8.134   9.891   6.246 -0.2849  0.6095  0.2531
  358MOL0     C48250   8.485   9.854   5.920 -0.0876 -0.8850 -0.4294
  358MOL0     C48251   8.593   9.841   6.016 -0.5111  0.6198  0.0884
  358MOL0     C48252   8.726   9.833   5.975 -0.1464 -0.8649  0.7538
  358MOL0     C48253   8.752   9.840   5.837 -0.0507  0.2969 -0.6432
  358MOL0     O48254   8.886   9.817   5.809  0.6992 -0.5053 -0.0195
  358MOL0     C48255   8.927   9.862   5.682 -0.8141  0.1817 -0.0510
  358MOL0     C48256   9.082   9.858   5.679 -0.2910  0.1756  0.8972
  358MOL0     C48257   9.133   9.951   5.789 -0.2560 -0.3758 -1.0676
  358MOL0     C48258   9.286   9.955   5.785  0.0583 -0.6500  0.4950
  358MOL0     C48259   9.331  10.004   5.655 -0.0257 -0.2914  0.6165
  358MOL0     C48260   9.356  10.042   5.538  0.2711 -0.3228 -0.1218
  358MOL0     C48261   8.650   9.865   5.746  0.8273  0.8300  0.2695
  358MOL0     C48262   8.515   9.874   5.786 -0.2691 -0.4306 -0.0728
  358MOL0     H48263   8.119   9.634   6.014 -1.2928  0.0905 -0.5742
  358MOL0     H48264   7.891   9.602   6.133  1.9580 -3.3885  1.2477
  358MOL0     H48265   7.794   9.880   6.482  1.4652  0.6251 -1.5029
  358MOL0     H48266   7.708   9.942   6.347  3.5724 -0.1883 -2.0035
  358MOL0     H48267   7.559   9.721   6.369 -2.5507  0.7671  0.5547
  358MOL0     H48268   7.654   9.707   6.523  1.7020  0.5928 -0.4997
  358MOL0     H48269   7.489   9.948   6.434  1.2225  0.0871 -0.5652
  358MOL0     H48270   7.413   9.806   6.511 -0.2527  0.4341 -0.1584
  358MOL0     H48271   7.521   9.839   6.722 -1.9546  1.0407  1.4812
  358MOL0     H48272   7.618   9.979   6.661 -2.7706  4.9975 -0.6107
  358MOL0     H48273   7.437  10.116   6.620 -1.0067  1.0953  0.4078
  358MOL0     H48274   7.323   9.971   6.651  0.9678 -1.2758  0.6492
  358MOL0     H48275   7.384   9.963   6.876 -0.4365  0.2787  0.9184
  358MOL0     H48276   7.517  10.078   6.858 -1.2491  0.3523  0.5937
  358MOL0     H48277   7.221  10.164   6.814  1.8596 -3.5657 -2.9477
  358MOL0     H48278   7.308  10.185   6.959 -0.0940  3.3713 -0.6285
  358MOL0     H48279   7.417  10.313   6.705 -0.4356 -0.4694  0.8813
  358MOL0     H48280   7.488  10.320   6.853 -0.4068 -0.9535  2.1194
  358MOL0     H48281   7.103  10.367   6.863  0.4388 -1.2192  1.8030
  358MOL0     H48282   7.034  10.695   7.006  2.2241  2.2103 -0.4761
  358MOL0     H48283   7.059  10.748   6.848 -1.2144 -1.2660 -1.7852
  358MOL0     H48284   6.919  10.483   6.899 -2.3366  0.5018  2.0088
  358MOL0     H48285   6.912  10.587   6.751 -3.1874  2.3813 -0.0452
  358MOL0     H48286   6.797  10.757   6.940  0.1799 -0.3161 -0.4634
  358MOL0     H48287   6.763  10.603   7.008 -1.5384 -0.7905 -0.9917
  358MOL0     H48288   6.574  10.672   6.876 -0.3330  1.4999 -1.1459
  358MOL0     H48289   6.648  10.516   6.825 -0.5235  1.0828  0.5434
  358MOL0     H48290   6.568  10.572   6.473 -0.1017  1.1995  0.7829
  358MOL0     H48291   6.278  10.557   6.324  0.3723 -0.3256  2.4854
  358MOL0     H48292   6.324  10.714   6.248 -1.1163  0.1320  0.1738
  358MOL0     H48293   6.439  10.584   6.279  0.5295 -2.6514  4.7350
  358MOL0     H48294   6.043  11.153   6.432  1.2004 -1.9538 -1.1981
  358MOL0     H48295   5.808  11.225   6.382 -1.7726 -0.4671 -0.8371
  358MOL0     H48296   5.558  11.001   6.263  1.1685  2.2970  0.8395
  358MOL0     H48297   5.475  10.923   6.408 -3.2612  1.6676  2.9795
  358MOL0     H48298   5.336  11.118   6.450 -1.4193  0.6459 -1.1009
  358MOL0     H48299   5.407  11.204   6.309 -2.3036  1.6561  0.1916
  358MOL0     H48300   5.241  10.953   6.305 -2.8578  0.0567 -0.1837
  358MOL0     H48301   5.325  11.022   6.162  0.9396 -0.2380  0.4355
  358MOL0     H48302   5.133  11.188   6.335 -0.7623  0.3748  0.8830
  358MOL0     H48303   5.187  11.219   6.174  0.3022 -0.3175 -0.2466
  358MOL0     H48304   5.010  10.998   6.294  1.7295 -1.2505  0.3858
  358MOL0     H48305   5.054  10.978   6.122  1.8973 -0.3993  0.4722
  358MOL0     H48306   4.888  11.216   6.233 -1.5283  0.7141 -1.3425
  358MOL0     H48307   4.949  11.190   6.069  3.2432  0.7875  1.7941
  358MOL0     H48308   4.761  10.992   6.212 -1.4291 -0.0703 -1.4183
  358MOL0     H48309   4.816  10.982   6.042 -2.3714  1.9457 -2.0334
  358MOL0     H48310   4.646  11.186   6.190  1.5736 -2.5941  2.7187
  358MOL0     H48311   4.596  11.079   6.044  0.5642  0.2301  0.9294
  358MOL0     H48312   5.660  10.855   6.524 -2.4981  4.3821  0.4060
  358MOL0     H48313   5.907  10.780   6.559  2.2263 -0.2825 -2.4885
  358MOL0     H48314   6.319  10.939   6.689  2.4784  1.4203  1.2644
  358MOL0     H48315   6.534  10.863   6.767 -0.7560  0.7052 -0.4020
  358MOL0     H48316   7.985   9.932   6.387  1.4581 -0.6003  0.7398
  358MOL0     H48317   8.199   9.970   6.281 -1.6962  1.2315  1.5722
  358MOL0     H48318   8.575   9.824   6.122 -2.2048 -0.5310 -0.3334
  358MOL0     H48319   8.806   9.811   6.045  0.0139 -0.3114  0.7558
  358MOL0     H48320   8.883   9.796   5.606 -2.0373 -0.9797  1.5991
  358MOL0     H48321   8.895   9.965   5.663 -2.2088  0.6164  3.8823
  358MOL0     H48322   9.104   9.894   5.578  0.0660 -1.3119  0.4255
  358MOL0     H48323   9.115   9.755   5.692 -0.0550  0.5620  4.0457
  358MOL0     H48324   9.108   9.904   5.884  0.5083 -3.1587 -2.1346
  358MOL0     H48325   9.092  10.051   5.772  3.5968  1.9611  1.7190
  358MOL0     H48326   9.335   9.858   5.798 -0.5272 -0.7934  1.7593
  358MOL0     H48327   9.323  10.015   5.869  1.2765 -0.9818  0.2090
  358MOL0     H48328   9.386  10.076   5.441  0.3370  0.4158  0.1532
  358MOL0     H48329   8.666   9.874   5.639  0.3542  1.6836  0.2621
  358MOL0     H48330   8.435   9.891   5.715 -0.4959 -2.1719 -0.2740
  359MOL0     O48331   5.510   6.279  10.398  0.5853  0.5159  0.2448
  359MOL0     C48332   5.534   6.288  10.521  0.1843  0.1926  0.1565
  359MOL0     O48333   5.449   6.256  10.622  0.4583 -1.0876 -0.1309
  359MOL0     C48334   5.328   6.191  10.605 -0.3094 -1.1853  0.1729
  359MOL0     C48335   5.295   6.095  10.516 -0.1447 -0.3757 -0.0487
  359MOL0     C48336   5.162   6.044  10.510 -0.4235 -0.3159  0.1022
  359MOL0     C48337   5.063   6.104  10.581  1.4522 -0.0911  0.8136
  359MOL0     O48338   4.939   6.046  10.557 -0.0400 -0.3655 -0.7064
  359MOL0     C48339   4.822   6.115  10.606  0.5045 -0.4697 -1.0137
  359MOL0     C48340   4.689   6.079  10.552  0.7379 -0.6430  0.2823
  359MOL0     C48341   4.575   6.173  10.608 -0.9248  0.5767  0.0115
  359MOL0     C48342   4.443   6.120  10.582 -0.0484 -0.0477 -0.0284
  359MOL0     C48343   4.319   6.190  10.646  0.8913 -0.5077 -0.1047
  359MOL0     C48344   4.194   6.103  10.623  0.2941  0.5361  0.5105
  359MOL0     C48345   4.096   6.151  10.734 -0.0058 -0.4204  0.2912
  359MOL0     C48346   3.953   6.113  10.701  0.2851 -0.7622  0.2878
  359MOL0     N48347   3.847   6.163  10.788  0.6321  0.1627  0.0538
  359MOL0     C48348   3.795   6.101  10.896  0.4916 -0.5358 -0.0803
  359MOL0     C48349   3.699   6.186  10.951  0.1569 -0.6257  0.3935
  359MOL0     C48350   3.607   6.160  11.068  0.3568  0.0699  1.1509
  359MOL0     C48351   3.454   6.148  11.021 -0.2704 -0.2200 -0.6189
  359MOL0     C48352   3.353   6.131  11.136 -0.0260  0.3397 -0.0490
  359MOL0     C48353   3.343   6.237  11.244  0.7770  0.2664 -0.4289
  359MOL0     O48354   3.273   6.210  11.373 -0.3446 -0.2106 -0.0812
  359MOL0     C48355   3.149   6.161  11.388  0.2105  0.0901 -0.0664
  359MOL0     C48356   3.047   6.165  11.296  0.3123 -0.1296 -0.1943
  359MOL0     C48357   2.926   6.111  11.328  0.8895 -0.7526 -0.4679
  359MOL0     C48358   2.807   6.140  11.237  0.5258  0.1805 -0.2347
  359MOL0     C48359   2.905   6.046  11.453  0.6020 -0.2478  0.0078
  359MOL0     C48360   2.774   5.989  11.512 -0.0497  0.1602 -0.7795
  359MOL0     O48361   2.662   6.028  11.450  0.7600  0.0164  0.7446
  359MOL0     C48362   2.540   6.018  11.514 -0.1475  0.7633  0.7323
  359MOL0     C48363   2.501   6.099  11.620 -0.1131  0.3669  0.6491
  359MOL0     C48364   2.393   6.086  11.700  0.2652 -0.1262  0.4623
  359MOL0     C48365   2.310   5.975  11.682  0.0075  0.0518 -0.6470
  359MOL0     O48366   2.215   5.967  11.782 -0.1989  0.4693  0.7469
  359MOL0     C48367   2.083   5.916  11.751  0.3457  0.0632 -0.1557
  359MOL0     C48368   1.994   5.983  11.644  0.3432 -0.2179  2.1466
  359MOL0     C48369   2.031   6.138  11.647  0.7000  0.5403 -0.1814
  359MOL0     C48370   1.939   6.219  11.564 -0.2407  0.6465  0.6378
  359MOL0     C48371   1.948   6.369  11.613 -0.4870 -0.6401 -0.0361
  359MOL0     C48372   1.881   6.478  11.517  0.9387  0.2160  0.0062
  359MOL0     C48373   1.887   6.616  11.574 -0.3198 -0.5758 -0.3076
  359MOL0     C48374   1.798   6.708  11.489  0.4762 -0.5601  0.2018
  359MOL0    Cl48375   1.831   6.879  11.534 -0.0426 -0.2586 -0.2081
  359MOL0     C48376   2.336   5.890  11.568 -0.2109 -0.0481 -0.3956
  359MOL0     C48377   2.455   5.910  11.489  0.4458 -0.1504 -0.3699
  359MOL0     O48378   2.777   5.895  11.602  0.1709 -0.3327 -0.6732
  359MOL0     C48379   3.013   6.035  11.536  0.6725  0.4492  0.2028
  359MOL0     C48380   3.130   6.095  11.504 -0.6355 -0.4669 -0.5865
  359MOL0     N48381   3.685   6.285  10.863 -0.2498 -0.3290 -0.2488
  359MOL0     N48382   3.775   6.280  10.769  0.1955  0.2355 -0.5427
  359MOL0     C48383   5.099   6.195  10.676  0.1373 -0.4046  0.5706
  359MOL0     C48384   5.230   6.234  10.692  0.1419  0.0205  0.1622
  359MOL0     C48385   5.652   6.361  10.567  0.0632  0.8659  0.3071
  359MOL0     C48386   5.723   6.439  10.478  0.6034 -0.4028  0.6304
  359MOL0     C48387   5.841   6.503  10.515 -0.2633  0.0811  0.0799
  359MOL0     C48388   5.891   6.502  10.643  0.5410 -0.3127 -0.4740
  359MOL0     O48389   6.003   6.573  10.670 -0.8624 -0.0778 -0.1065
  359MOL0     C48390   6.080   6.548  10.785  0.0788 -0.0965 -0.2188
  359MOL0     C48391   6.052   6.655  10.899  0.1311 -0.1774  0.5601
  359MOL0     C48392   6.123   6.610  11.020 -0.6396  0.6636 -0.0912
  359MOL0     C48393   6.280   6.598  11.011 -0.2451  0.4887 -0.2266
  359MOL0     C48394   6.332   6.690  10.913  0.8152 -0.2942 -0.2325
  359MOL0     C48395   6.352   6.790  10.841  0.0943 -0.0502  0.8280
  359MOL0     C48396   5.819   6.419  10.732 -0.0789  0.0954  0.3001
  359MOL0     C48397   5.703   6.346  10.695  0.1961 -0.4760 -0.5421
  359MOL0     H48398   5.371   6.046  10.455  0.2192 -2.4596  1.9451
  359MOL0     H48399   5.137   5.969  10.436  1.7496 -1.7251  0.7007
  359MOL0     H48400   4.818   6.085  10.711  3.1460 -0.9034 -0.9760
  359MOL0     H48401   4.832   6.222  10.589 -0.9397  0.0692  1.1434
  359MOL0     H48402   4.695   6.095  10.444  0.6513  0.8069  0.4632
  359MOL0     H48403   4.670   5.975  10.579 -1.9118 -0.2706  0.1470
  359MOL0     H48404   4.586   6.187  10.715  0.6762 -0.5759  0.0428
  359MOL0     H48405   4.590   6.274  10.569  0.9091 -0.0952 -1.1346
  359MOL0     H48406   4.419   6.123  10.476 -3.8719  1.0928  0.7257
  359MOL0     H48407   4.447   6.016  10.616  1.5290 -0.3917 -1.1688
  359MOL0     H48408   4.333   6.191  10.755  2.3348 -1.9419 -0.2297
  359MOL0     H48409   4.294   6.289  10.610  1.2807 -0.7495 -1.0584
  359MOL0     H48410   4.155   6.110  10.521  3.1755 -1.9227 -0.9126
  359MOL0     H48411   4.220   5.998  10.642 -1.2584 -0.2780 -1.5130
  359MOL0     H48412   4.122   6.123  10.837 -2.5531 -0.4123  1.0083
  359MOL0     H48413   4.093   6.261  10.740  0.0285 -0.4707  1.4230
  359MOL0     H48414   3.943   6.006  10.681  0.5069 -1.1447  2.0598
  359MOL0     H48415   3.923   6.153  10.604 -2.0072 -1.3399  0.6845
  359MOL0     H48416   3.827   6.003  10.931  5.3048  1.5961  2.4123
  359MOL0     H48417   3.634   6.060  11.104 -1.9326 -1.5139 -1.1830
  359MOL0     H48418   3.619   6.242  11.140  1.2011  2.7341 -1.8088
  359MOL0     H48419   3.439   6.062  10.954 -4.6866  0.6749 -1.1168
  359MOL0     H48420   3.431   6.241  10.969  0.0761 -0.1363 -0.6236
  359MOL0     H48421   3.387   6.035  11.176  1.2496  0.5186 -0.6363
  359MOL0     H48422   3.253   6.102  11.102 -0.0631 -1.0003  1.1159
  359MOL0     H48423   3.301   6.325  11.196 -0.2597 -0.2886 -0.5570
  359MOL0     H48424   3.444   6.262  11.280 -0.1265  0.6686  1.9994
  359MOL0     H48425   3.060   6.215  11.201 -0.0737  1.2470  0.4617
  359MOL0     H48426   2.836   6.204  11.152 -0.2797  0.3761 -0.3691
  359MOL0     H48427   2.765   6.046  11.202  2.5052 -1.7845  2.3110
  359MOL0     H48428   2.732   6.200  11.289 -2.7553 -1.7687 -2.4078
  359MOL0     H48429   2.566   6.186  11.622  1.2633 -0.5876 -0.0085
  359MOL0     H48430   2.356   6.162  11.768  0.7291 -0.2241  0.8266
  359MOL0     H48431   2.082   5.807  11.747 -0.0257  0.0933 -1.8714
  359MOL0     H48432   2.035   5.936  11.847  2.1671  1.0470  0.5875
  359MOL0     H48433   2.018   5.943  11.545 -2.9489  0.4791  0.9518
  359MOL0     H48434   1.891   5.950  11.661 -0.9427 -0.0247 -3.3839
  359MOL0     H48435   2.135   6.163  11.622  0.6108  0.2337 -0.8838
  359MOL0     H48436   2.023   6.170  11.751  0.8823  1.1761 -0.3602
  359MOL0     H48437   1.962   6.203  11.459  0.8761  1.6612  0.7052
  359MOL0     H48438   1.840   6.175  11.577  0.1840 -1.2877 -1.9716
  359MOL0     H48439   2.050   6.408  11.611 -1.2763  1.5712  0.1753
  359MOL0     H48440   1.897   6.372  11.710  0.4299  0.0915  0.4452
  359MOL0     H48441   1.935   6.466  11.422  1.7366 -0.7891  0.5669
  359MOL0     H48442   1.776   6.451  11.500  0.4555  1.1659  1.3129
  359MOL0     H48443   1.992   6.648  11.570 -0.2674 -0.3596  1.7027
  359MOL0     H48444   1.857   6.617  11.679 -0.9611 -0.4930 -0.4883
  359MOL0     H48445   1.697   6.674  11.515  0.7437 -0.8188  0.9289
  359MOL0     H48446   1.817   6.699  11.382 -0.6263  2.7801 -0.4018
  359MOL0     H48447   2.270   5.815  11.527  0.4036 -0.6222 -0.3504
  359MOL0     H48448   2.468   5.825  11.423 -2.0565 -1.8780  1.1887
  359MOL0     H48449   3.005   5.975  11.627  0.4225  0.2555  0.0544
  359MOL0     H48450   3.209   6.091  11.579  1.6282 -0.9205 -2.8614
  359MOL0     H48451   5.023   6.224  10.749 -3.9034 -3.4992 -1.9631
  359MOL0     H48452   5.269   6.293  10.775 -2.8180 -0.2160  1.8789
  359MOL0     H48453   5.705   6.459  10.373 -0.5437 -3.0264  0.2300
  359MOL0     H48454   5.896   6.556  10.438 -0.7793 -0.0852 -0.4102
  359MOL0     H48455   6.057   6.449  10.826 -0.0047  0.6008  1.5291
  359MOL0     H48456   6.187   6.552  10.763  0.1093  0.4721  0.0003
  359MOL0     H48457   5.944   6.655  10.914 -0.2995 -2.7910 -1.7362
  359MOL0     H48458   6.078   6.751  10.852  2.1464 -1.2749 -0.7358
  359MOL0     H48459   6.093   6.510  11.055 -0.3566  0.9412  0.9865
  359MOL0     H48460   6.090   6.681  11.096  1.1407 -0.5575  1.9441
  359MOL0     H48461   6.313   6.499  10.975  0.6221  0.1437  1.4320
  359MOL0     H48462   6.312   6.604  11.115 -3.6324  3.8372  0.8384
  359MOL0     H48463   6.359   6.876  10.777 -0.2841 -1.0885 -0.6476
  359MOL0     H48464   5.847   6.396  10.834 -2.7291 -1.4051  0.7823
  359MOL0     H48465   5.648   6.283  10.764  0.8796 -0.5080 -0.0157
  360MOL0     O48466   8.263   7.554   9.413  0.5656  0.2612  0.1682
  360MOL0     C48467   8.254   7.634   9.321 -0.3218 -0.6806  0.0491
  360MOL0     O48468   8.137   7.683   9.261  0.2241  0.5720  0.2269
  360MOL0     C48469   8.017   7.635   9.311  0.2290  0.0915  1.0208
  360MOL0     C48470   7.925   7.738   9.336  0.4515  0.1489  0.3175
  360MOL0     C48471   7.799   7.694   9.378  0.4545 -0.0206 -0.6097
  360MOL0     C48472   7.763   7.560   9.404 -0.2517  0.7659  0.4913
  360MOL0     O48473   7.635   7.529   9.437  0.7956 -0.4006  0.6065
  360MOL0     C48474   7.607   7.395   9.479 -0.0165  0.2681 -0.2022
  360MOL0     C48475   7.553   7.388   9.625  0.3760  0.5329 -0.3345
  360MOL0     C48476   7.416   7.455   9.632 -0.2483  0.1581 -0.8237
  360MOL0     C48477   7.366   7.448   9.771  0.2067 -0.1902 -0.0913
  360MOL0     C48478   7.242   7.537   9.786 -0.7720  0.3454 -0.4063
  360MOL0     C48479   7.116   7.457   9.761  0.1515  0.3443  0.3331
  360MOL0     C48480   6.987   7.534   9.789  0.3947 -0.4121  0.4739
  360MOL0     C48481   6.868   7.440   9.766 -0.3921  0.0178 -0.3313
  360MOL0     N48482   6.742   7.504   9.784  0.2041 -0.2470 -0.4537
  360MOL0     C48483   6.696   7.550   9.905  0.0120  0.2437 -0.5686
  360MOL0     C48484   6.573   7.597   9.881  0.4293  0.0133  0.2952
  360MOL0     C48485   6.489   7.668   9.992 -0.2577 -0.3674  0.2667
  360MOL0     C48486   6.358   7.595  10.024  0.1794 -0.1233  0.4802
  360MOL0     C48487   6.280   7.673  10.126  0.2225 -0.6399 -0.1365
  360MOL0     C48488   6.128   7.656  10.104 -0.1583  0.3329 -1.2827
  360MOL0     O48489   6.100   7.512  10.081 -0.4364 -0.2979 -0.1520
  360MOL0     C48490   5.971   7.470  10.101  0.2837 -0.2758 -0.0973
  360MOL0     C48491   5.858   7.521  10.037 -0.2037 -0.1091  0.4523
  360MOL0     C48492   5.722   7.477  10.052  0.0306  0.0301  0.3310
  360MOL0     C48493   5.614   7.550   9.967  0.2227  0.6124  0.0312
  360MOL0     C48494   5.697   7.390  10.157  0.1989  0.0199  0.1315
  360MOL0     C48495   5.561   7.334  10.196  0.4461  1.3370 -0.4258
  360MOL0     O48496   5.567   7.211  10.253  0.4816  0.6659  0.2519
  360MOL0     C48497   5.453   7.168  10.309  0.1286 -1.5425  0.3295
  360MOL0     C48498   5.436   7.177  10.447  0.5747 -0.3733 -0.5525
  360MOL0     C48499   5.314   7.144  10.504 -0.3350  0.8232 -0.1217
  360MOL0     C48500   5.211   7.088  10.430  0.7766 -0.4448 -0.1105
  360MOL0     O48501   5.090   7.047  10.473  0.6104  0.7773 -0.2437
  360MOL0     C48502   5.046   7.106  10.596  0.6916 -0.5214  0.3165
  360MOL0     C48503   4.893   7.080  10.611  0.1534  0.5434 -0.6245
  360MOL0     C48504   4.833   7.145  10.735  0.0171 -0.3729  0.1509
  360MOL0     C48505   4.684   7.122  10.742  0.1806  0.2935 -0.5851
  360MOL0     C48506   4.632   7.172  10.876 -0.8145 -0.1802 -0.8073
  360MOL0     C48507   4.484   7.126  10.900  0.2254 -0.4233 -0.5517
  360MOL0     C48508   4.437   7.181  11.038 -0.3793 -0.4376  0.3025
  360MOL0     C48509   4.286   7.178  11.068 -0.5614  0.7617  0.0450
  360MOL0    Cl48510   4.209   7.020  11.089  0.2085  0.0600 -0.0772
  360MOL0     C48511   5.227   7.074  10.291 -0.1678  0.5504 -0.1107
  360MOL0     C48512   5.341   7.123  10.228 -0.7109  0.7037 -0.9066
  360MOL0     O48513   5.459   7.403  10.190 -0.4719 -0.0445 -0.5862
  360MOL0     C48514   5.807   7.333  10.229 -0.3487 -1.6881 -0.0121
  360MOL0     C48515   5.939   7.370  10.196 -0.2730 -0.8552  0.6854
  360MOL0     N48516   6.542   7.572   9.745 -0.1579  0.6519  0.1056
  360MOL0     N48517   6.644   7.515   9.685  0.8740 -0.2009 -0.6550
  360MOL0     C48518   7.856   7.462   9.381  0.0766 -0.4996  0.1203
  360MOL0     C48519   7.979   7.502   9.330 -0.1700  1.2476  0.5237
  360MOL0     C48520   8.378   7.688   9.269 -0.5941  0.5208  0.0727
  360MOL0     C48521   8.375   7.761   9.144 -0.1971  0.0139  0.3344
  360MOL0     C48522   8.493   7.823   9.097  0.6299 -0.0769  0.3594
  360MOL0     C48523   8.616   7.803   9.166  0.4843 -0.1200  0.3711
  360MOL0     O48524   8.735   7.841   9.108  0.2441 -0.4639 -0.0688
  360MOL0     C48525   8.736   7.920   8.987  0.4219  0.9062  0.2947
  360MOL0     C48526   8.888   7.960   8.972 -0.4410  0.2381  0.6305
  360MOL0     C48527   8.993   7.849   8.995  0.4538 -0.6606 -0.0933
  360MOL0     C48528   8.980   7.724   8.907 -1.0771  0.4173  1.5811
  360MOL0     C48529   8.993   7.759   8.761 -0.0582 -0.1889  0.0781
  360MOL0     C48530   9.026   7.785   8.649  0.9649  0.1982 -0.1920
  360MOL0     C48531   8.623   7.720   9.279  0.3846 -0.0708  0.0567
  360MOL0     C48532   8.503   7.663   9.331  0.7671 -0.4537 -0.2113
  360MOL0     H48533   7.942   7.845   9.336 -0.6776  0.3366  0.4820
  360MOL0     H48534   7.722   7.760   9.417  0.0023 -1.0090  0.2339
  360MOL0     H48535   7.527   7.357   9.416  0.5162  1.7535 -1.8415
  360MOL0     H48536   7.686   7.318   9.485 -1.9414 -1.7008  3.6815
  360MOL0     H48537   7.540   7.285   9.659 -1.8911  1.0616  0.6205
  360MOL0     H48538   7.632   7.436   9.684 -0.6159 -1.3084  2.7287
  360MOL0     H48539   7.416   7.553   9.585  0.7616 -0.0416 -1.2627
  360MOL0     H48540   7.355   7.391   9.567  0.2315 -0.9704 -0.1886
  360MOL0     H48541   7.339   7.346   9.799  0.9987 -0.4314 -0.1750
  360MOL0     H48542   7.448   7.482   9.836  0.2931  2.5818 -1.5046
  360MOL0     H48543   7.246   7.580   9.887  1.3484 -2.5093  0.8851
  360MOL0     H48544   7.242   7.618   9.712 -0.4748  0.3707 -0.3819
  360MOL0     H48545   7.111   7.435   9.654 -1.0223 -0.2822  0.5047
  360MOL0     H48546   7.122   7.359   9.810 -0.5538 -0.0770 -0.4021
  360MOL0     H48547   6.982   7.578   9.889  0.3614  0.6300  0.0282
  360MOL0     H48548   6.976   7.610   9.711  3.1716  0.0980  0.4532
  360MOL0     H48549   6.880   7.353   9.832 -0.3588 -0.0745 -0.4594
  360MOL0     H48550   6.869   7.405   9.662 -0.1817  0.0563 -0.3428
  360MOL0     H48551   6.745   7.550  10.002 -1.1115 -0.7407  0.0234
  360MOL0     H48552   6.546   7.673  10.085 -0.2868  0.5623  0.2499
  360MOL0     H48553   6.472   7.770   9.955  2.5745 -0.0597 -0.4135
  360MOL0     H48554   6.385   7.495  10.060  0.0992 -1.0336 -1.7906
  360MOL0     H48555   6.294   7.585   9.936  4.4197  0.6645 -3.0718
  360MOL0     H48556   6.306   7.779  10.123 -1.3483 -0.2570 -2.1965
  360MOL0     H48557   6.316   7.638  10.224 -2.6348  0.4392  1.4133
  360MOL0     H48558   6.089   7.716  10.021 -0.7992  1.7117 -0.0313
  360MOL0     H48559   6.075   7.689  10.194 -0.1886 -2.1996 -0.3006
  360MOL0     H48560   5.872   7.609   9.975 -0.7878 -0.2164  0.1609
  360MOL0     H48561   5.541   7.588  10.039 -0.2037 -1.8461  0.9801
  360MOL0     H48562   5.656   7.635   9.912 -0.4621 -0.6797 -2.6212
  360MOL0     H48563   5.574   7.482   9.892  1.6302 -1.3430  0.9750
  360MOL0     H48564   5.524   7.205  10.504  0.2908  0.3548 -0.4600
  360MOL0     H48565   5.302   7.153  10.612 -2.3215 -1.3745 -0.0906
  360MOL0     H48566   5.097   7.071  10.686 -0.8814  0.1740  1.5198
  360MOL0     H48567   5.050   7.215  10.593 -1.0092 -0.3158  2.7420
  360MOL0     H48568   4.838   7.113  10.522 -0.1046  0.1208 -0.6266
  360MOL0     H48569   4.876   6.972  10.623 -0.8991  0.9007  1.8166
  360MOL0     H48570   4.840   7.253  10.716  1.8927 -0.6200 -0.7761
  360MOL0     H48571   4.885   7.106  10.823 -1.6821 -1.7340  0.5987
  360MOL0     H48572   4.629   7.169  10.659  0.8593 -1.5544 -2.1668
  360MOL0     H48573   4.664   7.014  10.734 -1.0610 -0.0118  4.0282
  360MOL0     H48574   4.632   7.281  10.866 -0.9540 -0.2796 -1.9180
  360MOL0     H48575   4.695   7.140  10.960 -0.1671  1.4206 -0.6459
  360MOL0     H48576   4.422   7.167  10.820  0.3990  3.2787  0.9840
  360MOL0     H48577   4.475   7.018  10.909  4.0691 -0.8232  0.3313
  360MOL0     H48578   4.470   7.286  11.041  0.7396 -0.7247 -1.0424
  360MOL0     H48579   4.503   7.130  11.108 -0.6834 -0.0932  0.8537
  360MOL0     H48580   4.239   7.235  10.988 -1.4336 -0.3500 -0.2634
  360MOL0     H48581   4.268   7.236  11.159 -1.9421  2.4674 -1.2686
  360MOL0     H48582   5.163   7.015  10.226  0.6299 -2.4377  1.6158
  360MOL0     H48583   5.365   7.107  10.123  1.3851 -0.5589 -0.3058
  360MOL0     H48584   5.789   7.277  10.320 -0.6367  1.3062  1.9241
  360MOL0     H48585   6.024   7.327  10.249  0.0053  0.5028  1.3833
  360MOL0     H48586   7.841   7.354   9.387 -0.6151 -0.4151 -0.0862
  360MOL0     H48587   8.057   7.428   9.311 -0.1985  1.1235  0.8839
  360MOL0     H48588   8.285   7.786   9.088  1.3142  2.5276 -1.1240
  360MOL0     H48589   8.476   7.875   9.003 -1.0424 -0.8408  0.2047
  360MOL0     H48590   8.707   7.853   8.906 -1.1406  1.9394 -0.0406
  360MOL0     H48591   8.660   7.998   8.993 -2.9632 -1.6266 -3.6279
  360MOL0     H48592   8.902   8.045   9.039  0.6645 -0.5780  1.4828
  360MOL0     H48593   8.908   7.989   8.868  0.6491 -1.0428  0.4569
  360MOL0     H48594   8.987   7.810   9.097  1.3400  0.5327  0.4436
  360MOL0     H48595   9.089   7.899   8.979  0.1069  0.5379  1.3179
  360MOL0     H48596   8.877   7.687   8.914 -0.6286 -0.7620  2.3008
  360MOL0     H48597   9.053   7.647   8.933  1.4012  1.7088 -1.0758
  360MOL0     H48598   9.036   7.820   8.549 -2.1549 -1.3352 -1.1603
  360MOL0     H48599   8.708   7.690   9.340 -0.2611 -1.9328  0.1072
  360MOL0     H48600   8.506   7.598   9.418  0.8653  0.6081  0.5944
  361MOL0     O48601   7.295   2.535   3.218  0.0785 -0.2590 -0.1972
  361MOL0     C48602   7.271   2.418   3.191 -0.2842  0.3545 -0.2009
  361MOL0     O48603   7.149   2.367   3.150  0.2787 -0.1511  0.1580
  361MOL0     C48604   7.046   2.452   3.132  0.0298 -0.1082  0.0374
  361MOL0     C48605   6.959   2.434   3.025  0.1036  0.1339  0.5436
  361MOL0     C48606   6.838   2.503   3.019 -0.1822 -0.4903 -0.4233
  361MOL0     C48607   6.799   2.604   3.112 -0.1796 -0.1720  0.1028
  361MOL0     O48608   6.683   2.683   3.132  0.0336  0.5685  0.4305
  361MOL0     C48609   6.589   2.672   3.024  0.6487 -0.9601 -0.5611
  361MOL0     C48610   6.496   2.792   3.019  0.4059 -0.8079 -0.2018
  361MOL0     C48611   6.459   2.819   2.871 -0.4336 -0.7747 -0.9008
  361MOL0     C48612   6.360   2.935   2.864 -0.0836 -0.4086 -0.6748
  361MOL0     C48613   6.308   2.961   2.715 -0.3510 -0.3409  0.1111
  361MOL0     C48614   6.213   2.854   2.664 -1.0904  0.1105  0.6840
  361MOL0     C48615   6.103   2.911   2.574 -0.1977  0.0306 -0.2621
  361MOL0     C48616   6.034   2.802   2.495 -0.3780  0.0373 -0.8209
  361MOL0     N48617   5.930   2.723   2.575 -0.0549 -0.2807  0.7281
  361MOL0     C48618   5.821   2.777   2.653  0.2687 -1.0090  0.0035
  361MOL0     C48619   5.773   2.671   2.719  0.0659  0.2593 -0.4106
  361MOL0     C48620   5.659   2.688   2.823 -1.0631  0.4042  0.3558
  361MOL0     C48621   5.527   2.748   2.761  0.6993  0.5241 -0.2226
  361MOL0     C48622   5.485   2.705   2.620 -0.7123 -0.2254  0.1750
  361MOL0     C48623   5.338   2.751   2.583 -0.0116  0.2042 -0.1863
  361MOL0     O48624   5.315   2.871   2.648 -0.4751 -0.3926  0.3562
  361MOL0     C48625   5.186   2.909   2.651  0.2069 -1.1714  0.5638
  361MOL0     C48626   5.075   2.861   2.581 -0.2637  0.5486  0.4425
  361MOL0     C48627   4.943   2.908   2.587 -0.0359 -0.0845 -0.1030
  361MOL0     C48628   4.840   2.818   2.513 -0.1564  0.2320  0.5177
  361MOL0     C48629   4.916   3.018   2.665 -0.4012  0.2164 -0.9818
  361MOL0     C48630   4.780   3.082   2.679 -0.5980  0.7887  0.3940
  361MOL0     O48631   4.781   3.198   2.763  0.3331 -0.3165 -0.3711
  361MOL0     C48632   4.671   3.268   2.801  0.8227 -0.1345 -0.3678
  361MOL0     C48633   4.707   3.382   2.865 -0.3388 -0.0763  0.4108
  361MOL0     C48634   4.606   3.467   2.917 -0.7714  0.6283  0.3283
  361MOL0     C48635   4.470   3.436   2.913  0.4342  0.4670 -0.3669
  361MOL0     O48636   4.362   3.521   2.942 -0.8383  0.1332 -0.1804
  361MOL0     C48637   4.374   3.600   3.063 -0.6368 -0.7870  0.3681
  361MOL0     C48638   4.406   3.528   3.193  1.0465  0.4529 -0.2888
  361MOL0     C48639   4.280   3.433   3.219  0.3486  0.1378 -0.8139
  361MOL0     C48640   4.233   3.447   3.364 -0.0585 -0.1335 -0.9196
  361MOL0     C48641   4.140   3.333   3.403  0.0733 -0.5443 -1.1890
  361MOL0     C48642   4.199   3.196   3.397  0.0992 -0.3941  0.3736
  361MOL0     C48643   4.123   3.090   3.471  0.7764 -0.0756 -0.2370
  361MOL0     C48644   4.202   2.960   3.479  0.2072  0.3115  0.6995
  361MOL0    Cl48645   4.120   2.815   3.528  0.2877 -0.1601  0.2201
  361MOL0     C48646   4.441   3.331   2.839 -1.0575 -0.1498 -0.3066
  361MOL0     C48647   4.538   3.245   2.789  0.5215  0.2266 -0.1280
  361MOL0     O48648   4.679   3.030   2.628 -0.8461 -0.2588 -0.4887
  361MOL0     C48649   5.027   3.081   2.730 -0.3997  0.1094 -0.5874
  361MOL0     C48650   5.158   3.021   2.721  0.1590 -0.9836  0.5881
  361MOL0     N48651   5.842   2.557   2.689  0.1653  0.6041 -0.0410
  361MOL0     N48652   5.936   2.595   2.605 -0.3508 -0.9970 -0.4367
  361MOL0     C48653   6.887   2.618   3.218  0.1340 -0.5919  0.8591
  361MOL0     C48654   7.012   2.553   3.223  0.8129 -0.8779 -0.2892
  361MOL0     C48655   7.382   2.328   3.200  0.3678 -0.5920 -0.1030
  361MOL0     C48656   7.363   2.189   3.199 -0.0499 -0.1307  0.7994
  361MOL0     C48657   7.471   2.101   3.196  0.4635  0.8444 -0.1455
  361MOL0     C48658   7.599   2.150   3.183 -0.8679  0.4902 -0.1651
  361MOL0     O48659   7.696   2.057   3.156  0.2981 -0.6876  0.3995
  361MOL0     C48660   7.824   2.113   3.131 -0.9858 -0.1598  0.9784
  361MOL0     C48661   7.930   2.002   3.113 -0.5104  0.0734  0.1596
  361MOL0     C48662   8.005   1.978   3.243  0.3904  0.5078  1.0155
  361MOL0     C48663   8.099   1.861   3.217  0.1809 -0.0781 -0.0063
  361MOL0     C48664   8.148   1.821   3.351 -0.1251  0.4069 -0.4540
  361MOL0     C48665   8.187   1.777   3.461  0.4944  0.4297 -0.0130
  361MOL0     C48666   7.622   2.284   3.195  1.1782 -0.8388 -0.4798
  361MOL0     C48667   7.517   2.374   3.210  0.0810  0.1202  0.1921
  361MOL0     H48668   6.976   2.368   2.940  0.4930  0.6317  0.2269
  361MOL0     H48669   6.764   2.478   2.944 -1.4527  0.5057  0.4619
  361MOL0     H48670   6.655   2.667   2.937 -0.2643 -0.2106 -1.3229
  361MOL0     H48671   6.535   2.578   3.037  1.9358 -1.4335  1.7720
  361MOL0     H48672   6.407   2.769   3.077 -1.6683  3.0541 -1.4765
  361MOL0     H48673   6.555   2.879   3.050 -0.0655 -0.1581 -1.1125
  361MOL0     H48674   6.547   2.849   2.813  1.1796 -1.3036  1.1713
  361MOL0     H48675   6.414   2.733   2.819 -1.4516 -1.8945  1.6711
  361MOL0     H48676   6.277   2.915   2.931  0.5639  2.0106  1.0016
  361MOL0     H48677   6.404   3.030   2.896  2.0456 -1.0194 -1.6149
  361MOL0     H48678   6.246   3.051   2.712 -0.6613 -0.5202  0.9294
  361MOL0     H48679   6.389   2.969   2.642 -0.3305  1.4425  0.2654
  361MOL0     H48680   6.272   2.778   2.612  1.9658  2.4911  0.3600
  361MOL0     H48681   6.163   2.813   2.752  0.4887  1.1603  2.1515
  361MOL0     H48682   6.029   2.972   2.627  0.1364 -0.3652  0.6897
  361MOL0     H48683   6.149   2.981   2.504 -0.8810 -0.9910 -1.7820
  361MOL0     H48684   6.105   2.735   2.447 -2.5289 -2.7212 -0.3829
  361MOL0     H48685   5.987   2.848   2.407 -0.3459 -2.7675 -2.3966
  361MOL0     H48686   5.779   2.876   2.643 -2.0665 -2.1041 -2.4015
  361MOL0     H48687   5.632   2.586   2.852 -2.7634 -0.6065 -4.0432
  361MOL0     H48688   5.689   2.755   2.904  2.3444  0.4125 -0.7643
  361MOL0     H48689   5.528   2.857   2.770 -1.2408  0.4616  1.4648
  361MOL0     H48690   5.451   2.719   2.834  1.9949 -0.2060  0.8842
  361MOL0     H48691   5.485   2.595   2.622 -0.5787 -0.2237  1.2254
  361MOL0     H48692   5.557   2.743   2.547 -0.6437  0.4487  0.5815
  361MOL0     H48693   5.272   2.667   2.605  0.8648 -1.0425 -2.0419
  361MOL0     H48694   5.334   2.766   2.475  1.5236 -0.0683 -0.3041
  361MOL0     H48695   5.094   2.768   2.528  0.8517 -0.7585  2.9392
  361MOL0     H48696   4.883   2.724   2.478  0.1646  1.1066 -1.5708
  361MOL0     H48697   4.749   2.794   2.569 -0.5648 -1.8451 -0.8871
  361MOL0     H48698   4.804   2.879   2.430  0.7554  1.8530  1.2806
  361MOL0     H48699   4.812   3.408   2.874 -0.1984 -0.0915 -0.9745
  361MOL0     H48700   4.645   3.553   2.970  1.6427 -0.3091  0.1767
  361MOL0     H48701   4.450   3.676   3.042 -1.3576 -0.0403  0.3924
  361MOL0     H48702   4.285   3.662   3.078  1.0903  0.9206  5.8951
  361MOL0     H48703   4.494   3.466   3.173 -0.3746 -0.9061 -2.8361
  361MOL0     H48704   4.422   3.604   3.271 -1.1575  1.9897 -1.2384
  361MOL0     H48705   4.309   3.330   3.197 -1.6864 -1.0508  1.5529
  361MOL0     H48706   4.196   3.453   3.153  1.4507  1.9424 -1.7583
  361MOL0     H48707   4.322   3.447   3.428  0.8546 -0.0761 -2.1601
  361MOL0     H48708   4.181   3.542   3.380 -0.0358  0.1503 -2.3743
  361MOL0     H48709   4.061   3.338   3.327 -0.1142 -2.3952 -1.1649
  361MOL0     H48710   4.099   3.348   3.503 -0.2402  0.8481 -1.5057
  361MOL0     H48711   4.201   3.157   3.294 -0.3149 -2.1133  0.9747
  361MOL0     H48712   4.300   3.177   3.436 -0.6122 -0.8542  2.0759
  361MOL0     H48713   4.034   3.066   3.413  2.1557 -1.9430 -1.6864
  361MOL0     H48714   4.092   3.123   3.571 -2.6746 -2.5174 -0.3280
  361MOL0     H48715   4.281   2.970   3.554 -1.9955  0.9764  3.0815
  361MOL0     H48716   4.256   2.943   3.385  2.4070 -0.2287  1.9823
  361MOL0     H48717   4.334   3.318   2.826 -1.2510  1.1011 -0.0824
  361MOL0     H48718   4.507   3.158   2.732  1.7720 -1.0937  1.1497
  361MOL0     H48719   5.006   3.162   2.799 -1.1389 -0.0846 -0.5728
  361MOL0     H48720   5.244   3.066   2.770 -0.5825  1.7111 -0.4326
  361MOL0     H48721   6.853   2.687   3.293  0.7578 -0.7681  1.3162
  361MOL0     H48722   7.073   2.588   3.305  0.2275  0.4469 -0.3953
  361MOL0     H48723   7.260   2.155   3.189 -0.2269  0.2945  1.1641
  361MOL0     H48724   7.440   1.997   3.202  0.3638  0.9701  2.0443
  361MOL0     H48725   7.822   2.180   3.045  1.7013 -1.5017 -0.2342
  361MOL0     H48726   7.863   2.176   3.212  2.0322 -0.1702 -0.3477
  361MOL0     H48727   8.002   2.034   3.038 -0.6927 -0.2394 -0.1542
  361MOL0     H48728   7.878   1.910   3.085  0.6097  0.1817 -2.4709
  361MOL0     H48729   7.929   1.938   3.310 -1.4361 -2.9478 -2.6638
  361MOL0     H48730   8.051   2.074   3.269 -0.2441  1.0436  0.1927
  361MOL0     H48731   8.178   1.910   3.159 -1.3362  1.2941 -0.9906
  361MOL0     H48732   8.068   1.770   3.166  2.1383 -0.8440  0.0654
  361MOL0     H48733   8.232   1.742   3.552 -0.6325  1.1320  0.8447
  361MOL0     H48734   7.723   2.325   3.192  1.2021 -0.6055  1.8234
  361MOL0     H48735   7.531   2.480   3.230  0.3669  0.0665  0.2917
  362MOL0     O48736   4.207   1.943   2.670 -0.4358 -0.5550 -0.2977
  362MOL0     C48737   4.241   2.025   2.751  0.5676  0.1029 -1.3337
  362MOL0     O48738   4.174   2.046   2.872 -0.3951  0.0143  0.3315
  362MOL0     C48739   4.066   1.971   2.901  0.1375  0.1938 -0.2128
  362MOL0     C48740   3.943   2.029   2.924  0.6959 -0.1051 -0.2790
  362MOL0     C48741   3.841   1.958   2.975  0.9704  0.8228 -0.2712
  362MOL0     C48742   3.851   1.822   3.005  0.2315  0.0891 -0.4999
  362MOL0     O48743   3.749   1.739   3.043  0.4552  0.1546 -0.4480
  362MOL0     C48744   3.613   1.766   3.013  0.3156  1.0634  0.4536
  362MOL0     C48745   3.522   1.651   3.071  0.4486 -0.6738 -0.3354
  362MOL0     C48746   3.371   1.685   3.042 -0.7287  0.6794  0.2772
  362MOL0     C48747   3.279   1.593   3.129 -0.5343  0.5673  0.0589
  362MOL0     C48748   3.139   1.624   3.092  0.9783 -0.1519  0.4222
  362MOL0     C48749   3.043   1.509   3.134 -0.5809  0.2668  0.1983
  362MOL0     C48750   2.897   1.525   3.083 -0.0435 -0.4702  0.0007
  362MOL0     C48751   2.820   1.384   3.073  0.1642 -0.1519 -0.0747
  362MOL0     N48752   2.688   1.390   3.149  0.0035 -0.0766  0.1483
  362MOL0     C48753   2.579   1.474   3.126 -0.6468  0.3726  0.0648
  362MOL0     C48754   2.496   1.450   3.230 -0.4163  0.0999 -0.1996
  362MOL0     C48755   2.358   1.511   3.242 -0.8429  0.0016  0.0653
  362MOL0     C48756   2.364   1.591   3.370  0.0565  0.6234 -0.4752
  362MOL0     C48757   2.232   1.662   3.412 -0.3877  0.5825 -0.1524
  362MOL0     C48758   2.251   1.743   3.544 -0.3792  0.8029  0.7157
  362MOL0     O48759   2.130   1.783   3.601  0.8819 -0.1310  0.5257
  362MOL0     C48760   2.057   1.892   3.552  0.1844 -0.8129  0.1010
  362MOL0     C48761   1.930   1.913   3.606 -0.2484  0.1124  0.0877
  362MOL0     C48762   1.839   2.009   3.548  0.6398 -0.0655 -0.0571
  362MOL0     C48763   1.706   2.015   3.617 -0.2273  0.2796  0.7271
  362MOL0     C48764   1.883   2.091   3.445  0.5209 -0.3168  0.1716
  362MOL0     C48765   1.798   2.208   3.385 -0.4717  0.4647 -0.2671
  362MOL0     O48766   1.697   2.275   3.455 -0.1632  0.5071  0.7311
  362MOL0     C48767   1.617   2.367   3.390  0.6638  0.8672  0.8738
  362MOL0     C48768   1.481   2.332   3.347 -0.5704  0.5650  0.3683
  362MOL0     C48769   1.411   2.425   3.276 -0.6201 -0.5523 -0.1655
  362MOL0     C48770   1.457   2.553   3.230 -0.6831  0.1929  0.1247
  362MOL0     O48771   1.371   2.628   3.158  0.0046  1.0451  0.2642
  362MOL0     C48772   1.432   2.744   3.097  0.1141  0.4665  0.0336
  362MOL0     C48773   1.303   2.813   3.042  0.4551 -0.1959  0.0731
  362MOL0     C48774   1.330   2.940   2.966  0.4639 -0.5668 -0.1956
  362MOL0     C48775   1.214   2.995   2.876  0.5910 -0.3456  0.0131
  362MOL0     C48776   1.117   3.076   2.958 -0.7147 -0.2359 -0.1375
  362MOL0     C48777   0.990   3.097   2.876  0.4536  0.7952 -0.5227
  362MOL0     C48778   0.890   3.182   2.951 -0.1493 -0.4007 -1.0126
  362MOL0     C48779   0.751   3.125   2.910 -0.3573  0.3411  0.0624
  362MOL0    Cl48780   0.718   3.192   2.751 -0.2062 -0.3432 -0.1072
  362MOL0     C48781   1.595   2.579   3.269 -0.1261 -0.2244  0.4491
  362MOL0     C48782   1.671   2.491   3.348  0.1393 -0.2788 -0.4359
  362MOL0     O48783   1.831   2.233   3.266 -0.3805  0.2105 -0.1014
  362MOL0     C48784   2.012   2.065   3.392 -0.4410 -0.6035  0.8995
  362MOL0     C48785   2.096   1.973   3.449  0.4073  0.1963 -0.3231
  362MOL0     N48786   2.548   1.352   3.314  0.3238  0.1514 -0.5673
  362MOL0     N48787   2.667   1.332   3.266  0.4384 -0.3039 -0.8542
  362MOL0     C48788   3.974   1.764   2.982 -0.8804 -0.6247 -0.3048
  362MOL0     C48789   4.083   1.836   2.935  0.4920 -0.8675  0.9658
  362MOL0     C48790   4.372   2.090   2.724  0.6419 -0.4940 -0.0080
  362MOL0     C48791   4.391   2.222   2.763 -0.0728 -0.1918 -0.1703
  362MOL0     C48792   4.507   2.286   2.741 -0.2937 -0.8910  0.6260
  362MOL0     C48793   4.616   2.211   2.679  0.3826 -0.3713  0.7759
  362MOL0     O48794   4.739   2.271   2.644  0.7071  0.5538 -0.2270
  362MOL0     C48795   4.762   2.406   2.654  0.2301 -0.5488  0.1486
  362MOL0     C48796   4.912   2.428   2.615  0.2241 -0.4904  0.3830
  362MOL0     C48797   5.017   2.366   2.714  0.1449  0.0130  0.2278
  362MOL0     C48798   5.156   2.346   2.643  0.9143 -0.1641  0.6149
  362MOL0     C48799   5.267   2.383   2.723 -1.3404  0.1383 -0.7752
  362MOL0     C48800   5.369   2.400   2.793  0.1412  0.1723  0.2076
  362MOL0     C48801   4.597   2.074   2.657  1.0790  0.6235  0.5306
  362MOL0     C48802   4.473   2.014   2.668  0.2937  0.0814 -0.7792
  362MOL0     H48803   3.930   2.136   2.914 -2.3933 -0.1347  1.9012
  362MOL0     H48804   3.750   2.016   2.984  0.2753 -0.5255  3.5002
  362MOL0     H48805   3.582   1.853   3.072 -0.7336 -0.3160  2.0060
  362MOL0     H48806   3.596   1.768   2.904  0.6499 -0.7867  0.3343
  362MOL0     H48807   3.550   1.558   3.020  0.4621 -1.8931  1.7721
  362MOL0     H48808   3.530   1.644   3.180  0.4466 -0.8718 -0.3486
  362MOL0     H48809   3.348   1.788   3.069 -0.9966  1.0323 -1.1746
  362MOL0     H48810   3.343   1.667   2.937 -0.4001  0.6053  0.2001
  362MOL0     H48811   3.304   1.490   3.101 -1.9929  0.7419 -2.1216
  362MOL0     H48812   3.304   1.611   3.234 -0.5127 -0.9244  0.3442
  362MOL0     H48813   3.114   1.714   3.148  1.4520 -0.0590  0.4857
  362MOL0     H48814   3.123   1.646   2.986  1.0545 -0.0928  0.4237
  362MOL0     H48815   3.091   1.412   3.119  0.2614  0.4825  1.3744
  362MOL0     H48816   3.035   1.525   3.242  1.7828  1.1507  0.3014
  362MOL0     H48817   2.838   1.589   3.149 -0.2380  0.0484 -0.6624
  362MOL0     H48818   2.885   1.568   2.983 -0.7907  3.2167  1.5012
  362MOL0     H48819   2.887   1.300   3.092  0.2141 -0.9390 -3.2673
  362MOL0     H48820   2.793   1.374   2.968  1.8718  2.4670 -0.8832
  362MOL0     H48821   2.565   1.531   3.034 -0.5608 -1.6018 -1.2185
  362MOL0     H48822   2.347   1.571   3.152 -0.3298 -2.4859 -1.7511
  362MOL0     H48823   2.280   1.434   3.247 -1.8984  1.0684  0.5010
  362MOL0     H48824   2.441   1.668   3.355  2.6143 -1.0007  2.9079
  362MOL0     H48825   2.397   1.528   3.452 -0.1696  1.8155  0.5646
  362MOL0     H48826   2.161   1.581   3.430 -1.3211  1.1757 -1.0393
  362MOL0     H48827   2.193   1.723   3.330  1.0621  3.5115  1.1779
  362MOL0     H48828   2.307   1.835   3.528 -0.9254  1.1476  0.7691
  362MOL0     H48829   2.311   1.688   3.617  0.9513  2.2321  0.7495
  362MOL0     H48830   1.897   1.851   3.689 -4.7490  2.4943  0.3975
  362MOL0     H48831   1.694   2.081   3.703 -0.3441  1.0424  0.1393
  362MOL0     H48832   1.632   2.048   3.543 -0.2294 -1.8297 -0.2742
  362MOL0     H48833   1.669   1.917   3.646  1.0391 -0.6602 -0.6662
  362MOL0     H48834   1.443   2.232   3.361 -1.4092  0.5784 -1.5323
  362MOL0     H48835   1.316   2.386   3.241 -0.4446  0.0536 -1.3754
  362MOL0     H48836   1.480   2.809   3.172  2.8840  1.2562 -2.2383
  362MOL0     H48837   1.498   2.713   3.016  0.1187 -0.4840  0.3974
  362MOL0     H48838   1.249   2.746   2.975  0.2924  0.0855 -0.0756
  362MOL0     H48839   1.235   2.832   3.126  2.4888  2.2129  1.3244
  362MOL0     H48840   1.412   2.913   2.900  0.0736  1.5854 -1.6782
  362MOL0     H48841   1.361   3.028   3.024 -2.8987  1.6005 -1.3719
  362MOL0     H48842   1.245   3.048   2.785 -0.3397  0.8048  0.3498
  362MOL0     H48843   1.158   2.906   2.845 -2.5120  1.1048  1.0644
  362MOL0     H48844   1.161   3.176   2.966  1.2078 -1.1313  1.0020
  362MOL0     H48845   1.108   3.037   3.060  0.3853 -0.2548 -0.0418
  362MOL0     H48846   1.018   3.147   2.783  1.1922  4.5445  1.5442
  362MOL0     H48847   0.945   2.997   2.870 -3.0700  1.9369  2.8251
  362MOL0     H48848   0.885   3.291   2.948 -2.9967 -0.4053 -0.2608
  362MOL0     H48849   0.907   3.153   3.056  2.7660  0.3462 -1.1953
  362MOL0     H48850   0.672   3.156   2.979  1.1015 -1.9438  2.9293
  362MOL0     H48851   0.755   3.016   2.915  0.9297  0.1939 -2.3798
  362MOL0     H48852   1.633   2.679   3.249  0.7677 -0.3160  1.5808
  362MOL0     H48853   1.776   2.508   3.366 -0.0372 -0.7719  1.1690
  362MOL0     H48854   2.047   2.130   3.313  1.0579 -0.0562  1.9814
  362MOL0     H48855   2.196   1.955   3.410 -0.3313 -2.5770 -1.1476
  362MOL0     H48856   3.974   1.656   2.996  0.1187 -0.6851 -0.6602
  362MOL0     H48857   4.179   1.784   2.929  0.5811 -0.7422  1.2821
  362MOL0     H48858   4.308   2.272   2.812  1.0983 -0.4744  2.2783
  362MOL0     H48859   4.520   2.387   2.778 -2.3001  0.1957 -1.3967
  362MOL0     H48860   4.703   2.448   2.572  0.2921 -0.9527 -0.1050
  362MOL0     H48861   4.739   2.459   2.747  0.2829  0.0163 -0.1555
  362MOL0     H48862   4.939   2.533   2.599  0.4446 -0.7346 -0.9313
  362MOL0     H48863   4.925   2.372   2.522  1.1297  0.3762 -0.0274
  362MOL0     H48864   4.983   2.266   2.742  1.1772 -1.5709 -3.5694
  362MOL0     H48865   5.019   2.433   2.801 -4.1146 -0.5744  0.9926
  362MOL0     H48866   5.160   2.417   2.560 -2.4641 -0.8216 -0.2401
  362MOL0     H48867   5.165   2.246   2.598  3.2987 -0.0862  0.7732
  362MOL0     H48868   5.452   2.398   2.860 -1.0227 -2.1656  1.7062
  362MOL0     H48869   4.664   2.008   2.603  0.1261  0.7447 -0.8600
  362MOL0     H48870   4.456   1.912   2.634 -2.3614  0.6801 -1.4494
  363MOL0     O48871   0.588  10.067   4.820  0.3230 -0.6276  0.4188
  363MOL0     C48872   0.566  10.176   4.775 -0.2050 -0.8346 -0.1942
  363MOL0     O48873   0.448  10.238   4.763  0.0005 -0.4226 -0.7520
  363MOL0     C48874   0.339  10.169   4.814 -0.2155  0.1495  0.0140
  363MOL0     C48875   0.306  10.034   4.778  0.1114 -0.0489  0.3212
  363MOL0     C48876   0.184   9.977   4.825  0.4757  0.6050 -0.6685
  363MOL0     C48877   0.095  10.046   4.907 -0.1376  0.3416 -0.3878
  363MOL0     O48878  -0.029   9.983   4.922  0.5480 -0.2951 -0.2347
  363MOL0     C48879  -0.136  10.062   4.979  0.5526 -0.0245  0.9428
  363MOL0     C48880  -0.272   9.980   4.975  0.0643 -0.9761  0.4719
  363MOL0     C48881  -0.262   9.862   5.069 -0.7170 -0.2737  0.2672
  363MOL0     C48882  -0.385   9.775   5.080  0.4303 -0.4302  0.8398
  363MOL0     C48883  -0.375   9.658   5.171 -0.2920  0.3390  0.2913
  363MOL0     C48884  -0.254   9.572   5.140  0.0176  1.0051  0.1376
  363MOL0     C48885  -0.264   9.505   5.001  0.0443 -0.4642  0.2941
  363MOL0     C48886  -0.182   9.384   4.985 -0.0097  0.0083  1.0353
  363MOL0     N48887  -0.185   9.343   4.849 -0.7468  0.0943 -0.0329
  363MOL0     C48888  -0.309   9.308   4.780  0.0068  0.0780  0.3933
  363MOL0     C48889  -0.259   9.275   4.652 -0.2354  0.2046  0.1930
  363MOL0     C48890  -0.350   9.260   4.532  0.5097 -0.1163 -0.3466
  363MOL0     C48891  -0.419   9.124   4.559  0.4514  0.1207 -0.2361
  363MOL0     C48892  -0.492   9.070   4.434 -0.7984 -0.2800 -0.0596
  363MOL0     C48893  -0.569   8.939   4.460  0.3423  0.0128  0.1288
  363MOL0     O48894  -0.629   8.911   4.323 -0.2127  0.0592 -0.1904
  363MOL0     C48895  -0.755   8.954   4.289 -0.1551  0.7473  0.2543
  363MOL0     C48896  -0.824   9.055   4.344  0.4503 -0.4159 -0.1965
  363MOL0     C48897  -0.958   9.089   4.311  0.2191 -0.4790 -0.3885
  363MOL0     C48898  -1.022   9.210   4.385  0.1483 -0.2395 -0.0231
  363MOL0     C48899  -1.019   9.025   4.200  0.6205  1.1069 -0.3136
  363MOL0     C48900  -1.158   9.036   4.152  0.4713 -0.5582 -0.4073
  363MOL0     O48901  -1.216   8.937   4.081 -0.0198  0.1945 -0.5243
  363MOL0     C48902  -1.346   8.963   4.039 -0.0370  0.2808 -0.1149
  363MOL0     C48903  -1.447   8.981   4.131 -0.0068 -1.8271 -0.2068
  363MOL0     C48904  -1.578   9.002   4.088  0.2847 -0.0356  0.3150
  363MOL0     C48905  -1.606   8.986   3.950 -0.1030 -0.6146 -0.3972
  363MOL0     O48906  -1.741   8.989   3.911 -0.6229 -0.2673 -0.8019
  363MOL0     C48907  -1.793   8.928   3.797  0.7535 -0.0806  0.2932
  363MOL0     C48908  -1.940   8.900   3.822  0.3076  0.0082 -0.1101
  363MOL0     C48909  -2.009   8.829   3.707  0.6848  0.0677 -0.9537
  363MOL0     C48910  -2.153   8.793   3.754 -0.2545  0.6292  0.2639
  363MOL0     C48911  -2.230   8.712   3.642 -0.2123  0.1959 -0.7820
  363MOL0     C48912  -2.240   8.779   3.510 -0.0356 -0.2534 -1.0212
  363MOL0     C48913  -2.338   8.704   3.424 -0.4139 -0.7021 -0.6316
  363MOL0     C48914  -2.367   8.778   3.294  0.0663  0.5195 -0.2546
  363MOL0    Cl48915  -2.470   8.696   3.170  0.2931  0.2337 -0.1949
  363MOL0     C48916  -1.499   8.966   3.856 -0.4024 -0.2465 -0.2376
  363MOL0     C48917  -1.371   8.954   3.904 -0.9459  0.5674 -0.2074
  363MOL0     O48918  -1.216   9.143   4.165 -0.4452  0.6132 -0.2095
  363MOL0     C48919  -0.944   8.922   4.135 -0.1277  0.8606  0.3291
  363MOL0     C48920  -0.808   8.899   4.168  0.8269  0.2644  0.0469
  363MOL0     N48921  -0.120   9.276   4.643 -0.8815 -0.0123  0.0695
  363MOL0     N48922  -0.082   9.329   4.761  0.0414  0.7367 -0.3102
  363MOL0     C48923   0.129  10.180   4.944  0.3010  0.0553  0.3008
  363MOL0     C48924   0.252  10.235   4.888  0.2954 -0.5881 -0.6353
  363MOL0     C48925   0.685  10.258   4.725 -0.8952  0.1907  1.1319
  363MOL0     C48926   0.813  10.213   4.760  0.0590 -0.2777 -1.2796
  363MOL0     C48927   0.925  10.271   4.712  0.4350 -0.5400 -0.0971
  363MOL0     C48928   0.920  10.385   4.619 -0.2954 -0.1665 -0.9207
  363MOL0     O48929   1.028  10.449   4.570 -0.5036  0.1932 -0.7387
  363MOL0     C48930   1.118  10.475   4.671 -1.0621  0.0502 -0.6252
  363MOL0     C48931   1.145  10.625   4.696  0.4312  0.2946 -0.1698
  363MOL0     C48932   1.245  10.674   4.584 -0.0455  0.2215 -0.1264
  363MOL0     C48933   1.241  10.828   4.586 -0.3532 -0.5061  0.0475
  363MOL0     C48934   1.116  10.887   4.546 -0.1837 -0.3681  0.5378
  363MOL0     C48935   1.007  10.930   4.522 -0.4643  0.1199  0.2985
  363MOL0     C48936   0.788  10.427   4.584 -1.0063 -1.0669  0.4338
  363MOL0     C48937   0.676  10.361   4.637 -0.6864 -0.0296 -0.0216
  363MOL0     H48938   0.367   9.973   4.712 -1.8862 -2.1617  0.2765
  363MOL0     H48939   0.158   9.877   4.791  0.9084 -0.4181  1.7365
  363MOL0     H48940  -0.109  10.085   5.083  3.8673 -0.5603  0.2924
  363MOL0     H48941  -0.142  10.151   4.917 -1.7367  0.3055  1.5313
  363MOL0     H48942  -0.358  10.042   5.004  1.2828  1.0919 -0.1586
  363MOL0     H48943  -0.292   9.948   4.873 -1.9274 -0.2003  0.5619
  363MOL0     H48944  -0.176   9.803   5.037 -1.2939 -1.3559  0.6926
  363MOL0     H48945  -0.235   9.887   5.172  0.5311  0.4926 -0.2170
  363MOL0     H48946  -0.456   9.846   5.124 -0.2903 -0.8782  0.4204
  363MOL0     H48947  -0.424   9.752   4.981  1.8490  2.0093 -0.3817
  363MOL0     H48948  -0.363   9.689   5.275  1.5642 -0.2949  0.2985
  363MOL0     H48949  -0.471   9.608   5.163 -0.9187  1.7357 -1.5646
  363MOL0     H48950  -0.165   9.636   5.145  1.9006 -1.3312 -1.5136
  363MOL0     H48951  -0.237   9.497   5.218 -0.7849  0.6977  0.0342
  363MOL0     H48952  -0.368   9.475   4.986 -0.4238  1.3802 -0.5347
  363MOL0     H48953  -0.252   9.579   4.921  0.4162 -0.4980  0.3168
  363MOL0     H48954  -0.223   9.295   5.033 -1.0498 -1.4390 -2.2309
  363MOL0     H48955  -0.082   9.393   5.028 -0.1319 -0.5452  1.4547
  363MOL0     H48956  -0.414   9.326   4.799 -0.3561  1.4510 -2.4255
  363MOL0     H48957  -0.428   9.336   4.518 -1.4235 -2.1278 -1.0729
  363MOL0     H48958  -0.290   9.252   4.441  3.1768 -2.5437  1.4260
  363MOL0     H48959  -0.485   9.127   4.647  0.0705  5.1226 -0.3941
  363MOL0     H48960  -0.337   9.055   4.580  0.6599  0.7170  1.0131
  363MOL0     H48961  -0.414   9.050   4.360  0.2366  0.9131  0.6720
  363MOL0     H48962  -0.562   9.148   4.404 -0.5920 -0.3818 -0.8162
  363MOL0     H48963  -0.647   8.949   4.536  2.3066  2.5640  1.9724
  363MOL0     H48964  -0.507   8.856   4.495  1.4439 -0.4803 -2.6799
  363MOL0     H48965  -0.790   9.098   4.438  1.6484 -1.9303  0.1059
  363MOL0     H48966  -0.969   9.242   4.475  1.6584 -0.8657 -0.6476
  363MOL0     H48967  -1.023   9.294   4.314 -0.6190 -0.9133 -0.8269
  363MOL0     H48968  -1.125   9.193   4.417  0.7670 -2.8097  0.8596
  363MOL0     H48969  -1.427   8.977   4.238 -0.9591 -1.9865 -0.0249
  363MOL0     H48970  -1.652   9.018   4.165  0.1855 -0.0226  0.2176
  363MOL0     H48971  -1.783   9.002   3.716  1.1914 -1.7412 -1.2274
  363MOL0     H48972  -1.738   8.836   3.777  0.0928 -1.0963  2.7716
  363MOL0     H48973  -1.947   8.836   3.910  1.6303 -2.0792 -1.4370
  363MOL0     H48974  -1.994   8.995   3.836 -0.9233 -0.6400 -0.3348
  363MOL0     H48975  -1.946   8.742   3.688  1.3696 -0.1533  1.8829
  363MOL0     H48976  -2.010   8.901   3.624 -0.3665  0.5423 -0.5407
  363MOL0     H48977  -2.139   8.741   3.849  0.8905  0.5148  0.0514
  363MOL0     H48978  -2.203   8.888   3.774 -0.5225  0.3795  0.7835
  363MOL0     H48979  -2.331   8.692   3.679 -0.2955  0.5661 -0.8054
  363MOL0     H48980  -2.183   8.614   3.630 -3.4356 -1.9034  1.8852
  363MOL0     H48981  -2.278   8.880   3.524 -1.9384 -1.1622  0.8910
  363MOL0     H48982  -2.143   8.784   3.458 -0.2176  0.1113 -1.3346
  363MOL0     H48983  -2.431   8.683   3.477 -0.2045 -0.2228 -0.0705
  363MOL0     H48984  -2.291   8.610   3.393  0.4422 -0.3467 -0.4424
  363MOL0     H48985  -2.280   8.810   3.237 -0.4341  0.9647 -0.7783
  363MOL0     H48986  -2.429   8.866   3.315 -0.0762 -0.0050  1.7205
  363MOL0     H48987  -1.517   8.952   3.750  1.0776  0.3555 -0.5949
  363MOL0     H48988  -1.280   8.940   3.845 -0.3266 -0.0492  0.8504
  363MOL0     H48989  -0.991   8.859   4.059  2.4775 -3.7439  2.1068
  363MOL0     H48990  -0.755   8.821   4.113  2.0416 -2.1203  4.1767
  363MOL0     H48991   0.065  10.253   4.993  1.2724  1.3375 -0.2670
  363MOL0     H48992   0.275  10.339   4.909  2.0865 -1.3753  1.7822
  363MOL0     H48993   0.826  10.127   4.825 -1.3604  0.0172 -0.5583
  363MOL0     H48994   1.024  10.238   4.741  0.0482 -0.0351  1.9712
  363MOL0     H48995   1.084  10.445   4.771 -0.2893 -0.5449 -0.5392
  363MOL0     H48996   1.213  10.427   4.648  0.2962  2.9710 -1.7170
  363MOL0     H48997   1.190  10.645   4.793  0.3424  2.3283 -0.5040
  363MOL0     H48998   1.048  10.677   4.698 -1.1860 -2.5189  1.1778
  363MOL0     H48999   1.226  10.624   4.489 -1.0289 -1.4112  0.8981
  363MOL0     H49000   1.348  10.644   4.605  0.6387  1.1866 -1.8596
  363MOL0     H49001   1.318  10.864   4.518 -0.6265 -1.0996 -0.5889
  363MOL0     H49002   1.267  10.877   4.681  1.6057 -0.2596 -0.5781
  363MOL0     H49003   0.912  10.967   4.492  0.2733  1.2027 -0.8227
  363MOL0     H49004   0.791  10.518   4.525  0.4998 -1.5205 -0.2410
  363MOL0     H49005   0.575  10.396   4.618 -0.6555 -0.4757 -1.0988
  364MOL0     O49006   6.598   6.703   5.751 -0.8022 -0.3974  0.3397
  364MOL0     C49007   6.627   6.751   5.643  0.5692 -0.0878 -0.8294
  364MOL0     O49008   6.537   6.784   5.545 -0.4614 -0.1847 -0.2820
  364MOL0     C49009   6.421   6.712   5.546  0.3913 -0.1323 -0.7447
  364MOL0     C49010   6.302   6.786   5.559  0.0128 -0.3539 -0.5105
  364MOL0     C49011   6.180   6.712   5.551 -0.2035 -0.1672  0.9243
  364MOL0     C49012   6.184   6.574   5.549  0.3285 -0.0323 -1.0468
  364MOL0     O49013   6.072   6.485   5.540  0.1946 -0.6648  0.5326
  364MOL0     C49014   5.931   6.540   5.545 -0.4053  0.2669 -0.3479
  364MOL0     C49015   5.849   6.410   5.505 -0.7400 -0.5389  0.2765
  364MOL0     C49016   5.700   6.441   5.491 -0.2424  0.4757 -0.7545
  364MOL0     C49017   5.614   6.312   5.465  0.4630  0.5494  0.6759
  364MOL0     C49018   5.468   6.344   5.452 -0.5346 -0.1635  0.1305
  364MOL0     C49019   5.435   6.432   5.337  0.3011 -0.2842  1.2558
  364MOL0     C49020   5.278   6.444   5.308 -0.6704 -0.4398 -0.5123
  364MOL0     C49021   5.253   6.541   5.191 -0.3037 -0.5586  0.4118
  364MOL0     N49022   5.122   6.513   5.134  0.5602  0.7399  0.8249
  364MOL0     C49023   5.001   6.523   5.202  0.0248  0.5902  0.1851
  364MOL0     C49024   4.908   6.521   5.096 -0.0531 -0.0174 -0.0808
  364MOL0     C49025   4.763   6.535   5.096  0.5446 -0.1518 -0.2411
  364MOL0     C49026   4.708   6.653   5.015  0.7460  0.2389  0.1503
  364MOL0     C49027   4.558   6.646   5.010 -0.2729 -0.1881  0.5255
  364MOL0     C49028   4.512   6.778   5.077  0.3234 -0.2461 -0.1045
  364MOL0     O49029   4.372   6.751   5.096 -0.2359  0.3031 -0.0632
  364MOL0     C49030   4.297   6.829   5.179  0.7235  0.7946 -0.7502
  364MOL0     C49031   4.167   6.775   5.217  0.1932  0.4335  0.2600
  364MOL0     C49032   4.078   6.845   5.297  0.6104  0.4190  0.1631
  364MOL0     C49033   3.941   6.791   5.314 -0.9260  0.2303  0.1288
  364MOL0     C49034   4.116   6.976   5.345  0.0358 -0.3655  0.4140
  364MOL0     C49035   4.035   7.055   5.438 -0.7598 -0.0594  0.0137
  364MOL0     O49036   4.096   7.126   5.535 -0.2275 -0.2008  0.5184
  364MOL0     C49037   4.026   7.212   5.608 -0.2391 -0.0188 -0.1879
  364MOL0     C49038   3.980   7.327   5.548 -0.1953  0.3408  0.3758
  364MOL0     C49039   3.902   7.417   5.623  0.3187  0.2545 -0.2511
  364MOL0     C49040   3.868   7.402   5.755  0.3933  0.5695  0.5226
  364MOL0     O49041   3.775   7.493   5.806 -0.0669 -0.3768  0.0224
  364MOL0     C49042   3.718   7.467   5.936  0.0079 -0.2697 -0.0726
  364MOL0     C49043   3.595   7.550   5.965 -0.7255 -0.6490 -0.2176
  364MOL0     C49044   3.514   7.481   6.073  0.7874 -0.3042 -0.4627
  364MOL0     C49045   3.386   7.563   6.104 -0.6409 -0.4612  0.1764
  364MOL0     C49046   3.316   7.478   6.207 -0.5232  0.8010  0.5634
  364MOL0     C49047   3.170   7.528   6.218 -0.8501  0.5778 -0.6477
  364MOL0     C49048   3.095   7.439   6.314  0.3956  0.3663  0.3068
  364MOL0     C49049   2.944   7.471   6.314 -0.6277 -0.0862 -0.0810
  364MOL0    Cl49050   2.856   7.362   6.421  0.0508 -0.2187  0.1111
  364MOL0     C49051   3.917   7.278   5.814  0.4759  0.3266  0.3573
  364MOL0     C49052   3.988   7.186   5.741  0.0197  0.3422  0.2404
  364MOL0     O49053   3.915   7.056   5.419 -0.0809  0.5544 -0.7237
  364MOL0     C49054   4.244   7.027   5.310  0.8043  0.1468  1.0699
  364MOL0     C49055   4.330   6.957   5.221 -0.6756 -0.2746  1.1210
  364MOL0     N49056   4.976   6.531   4.978 -0.4244  0.2495  0.3303
  364MOL0     N49057   5.107   6.517   4.995 -0.9330 -0.2656  0.3030
  364MOL0     C49058   6.300   6.500   5.550 -0.0037 -0.3334  0.0480
  364MOL0     C49059   6.419   6.570   5.536 -0.3665  0.4406 -0.0813
  364MOL0     C49060   6.760   6.815   5.638  0.0575 -0.0919 -0.0473
  364MOL0     C49061   6.801   6.891   5.529 -0.4625 -0.2056  0.1141
  364MOL0     C49062   6.925   6.957   5.536  0.3884 -0.1934 -0.1905
  364MOL0     C49063   7.013   6.941   5.644 -0.7546 -0.0987  0.4205
  364MOL0     O49064   7.140   7.002   5.627 -0.0137  0.7962 -0.9943
  364MOL0     C49065   7.242   6.988   5.727 -0.7327 -0.7358 -0.0182
  364MOL0     C49066   7.359   7.091   5.708  0.4542  0.3932  0.1271
  364MOL0     C49067   7.300   7.240   5.719 -0.3951 -0.2201  0.0543
  364MOL0     C49068   7.408   7.336   5.677 -0.8572 -0.3447 -0.0708
  364MOL0     C49069   7.365   7.472   5.660 -0.1161  0.5104 -0.8299
  364MOL0     C49070   7.331   7.590   5.651  0.0147 -0.4580  0.7648
  364MOL0     C49071   6.977   6.850   5.746 -0.4571 -0.2017 -0.4710
  364MOL0     C49072   6.851   6.801   5.751 -0.0493  0.6329 -0.2431
  364MOL0     H49073   6.306   6.894   5.549 -0.7259 -0.3138 -0.4183
  364MOL0     H49074   6.088   6.769   5.553  0.2926  0.7569 -0.7179
  364MOL0     H49075   5.902   6.568   5.647  1.2213 -0.1816  0.2710
  364MOL0     H49076   5.918   6.616   5.468  2.1832  0.9421 -0.2118
  364MOL0     H49077   5.887   6.369   5.412  1.0704  1.4787  0.0565
  364MOL0     H49078   5.852   6.330   5.580 -2.5337 -1.3087 -0.4079
  364MOL0     H49079   5.666   6.483   5.587  3.5533  0.9759  0.5342
  364MOL0     H49080   5.677   6.516   5.415 -3.1172  0.1681 -0.3101
  364MOL0     H49081   5.650   6.260   5.375  2.4259  0.9866  1.1615
  364MOL0     H49082   5.625   6.246   5.551 -2.5769 -2.9082 -1.2823
  364MOL0     H49083   5.416   6.248   5.445  0.6776 -1.0349  2.1925
  364MOL0     H49084   5.432   6.394   5.542  0.2738  2.9153 -1.1199
  364MOL0     H49085   5.474   6.533   5.353 -1.0709  0.3215  0.9902
  364MOL0     H49086   5.500   6.398   5.257 -2.5396  2.5677 -2.6633
  364MOL0     H49087   5.237   6.348   5.277 -0.6552 -0.7362  0.3679
  364MOL0     H49088   5.237   6.478   5.404  0.2432 -2.1517  0.5201
  364MOL0     H49089   5.326   6.526   5.111 -2.9384 -1.4903 -1.9260
  364MOL0     H49090   5.252   6.641   5.236  0.5311  0.1965 -1.1585
  364MOL0     H49091   4.988   6.528   5.309  3.9541 -0.4444  0.8577
  364MOL0     H49092   4.728   6.449   5.038 -1.3429  1.9624 -2.4512
  364MOL0     H49093   4.714   6.527   5.194 -3.2055 -2.8945 -2.1014
  364MOL0     H49094   4.739   6.653   4.909  1.1521  1.0501  0.2575
  364MOL0     H49095   4.733   6.747   5.065 -1.3740  0.9448 -0.0368
  364MOL0     H49096   4.518   6.558   5.060 -1.7120 -0.6375 -1.2894
  364MOL0     H49097   4.517   6.632   4.909 -1.6590 -1.6892  1.2654
  364MOL0     H49098   4.512   6.865   5.010 -3.0330 -0.4095 -0.4997
  364MOL0     H49099   4.554   6.791   5.177 -1.6297  0.1338  0.7130
  364MOL0     H49100   4.136   6.681   5.171 -2.6394  2.3466 -2.1024
  364MOL0     H49101   3.875   6.814   5.399 -1.8838 -2.4001  0.1851
  364MOL0     H49102   3.878   6.834   5.235 -0.3527  1.6592  0.4207
  364MOL0     H49103   3.947   6.686   5.285 -0.4157 -0.2490  1.8358
  364MOL0     H49104   4.003   7.333   5.442 -0.8330 -1.9423  0.0524
  364MOL0     H49105   3.859   7.502   5.571 -1.9630  0.9907  2.5586
  364MOL0     H49106   3.702   7.362   5.962 -0.6558  0.2215  1.6188
  364MOL0     H49107   3.793   7.489   6.013  1.5869  1.4000 -1.9567
  364MOL0     H49108   3.623   7.653   5.989  2.9102 -1.6636  0.4955
  364MOL0     H49109   3.531   7.568   5.878  0.3421 -1.3674 -1.1836
  364MOL0     H49110   3.580   7.455   6.155  0.2105 -3.2613 -0.8035
  364MOL0     H49111   3.482   7.381   6.040  0.8241 -1.4239  2.6039
  364MOL0     H49112   3.415   7.663   6.139  0.5751 -0.9108  0.5142
  364MOL0     H49113   3.318   7.567   6.019 -1.1560  1.5725  0.6176
  364MOL0     H49114   3.367   7.482   6.304 -1.4823 -4.6057  1.6026
  364MOL0     H49115   3.315   7.374   6.173 -0.4034  1.0774 -0.3241
  364MOL0     H49116   3.161   7.633   6.247  0.3980  0.3013  0.9096
  364MOL0     H49117   3.121   7.514   6.121  1.0528 -0.2493 -1.5424
  364MOL0     H49118   3.132   7.453   6.416  1.5865 -0.0671 -0.0488
  364MOL0     H49119   3.108   7.335   6.282 -0.2734  0.3239  0.1519
  364MOL0     H49120   2.904   7.449   6.214 -0.5189  0.3707 -0.2280
  364MOL0     H49121   2.925   7.575   6.341 -2.1167 -0.8165  1.8800
  364MOL0     H49122   3.890   7.260   5.918 -2.4098  3.3382  0.3237
  364MOL0     H49123   4.008   7.086   5.776  0.7904  0.4848  0.2153
  364MOL0     H49124   4.273   7.122   5.355  1.1443  0.0208  1.1255
  364MOL0     H49125   4.422   7.009   5.198  0.7417 -3.4973 -1.1668
  364MOL0     H49126   6.303   6.392   5.540  0.8116 -0.2185 -1.1728
  364MOL0     H49127   6.512   6.517   5.519 -0.2760  0.9059 -1.1065
  364MOL0     H49128   6.736   6.923   5.448 -1.8961 -0.8423  0.9713
  364MOL0     H49129   6.949   7.030   5.459  2.4247 -1.8957 -1.2866
  364MOL0     H49130   7.192   7.006   5.823 -2.5909  1.1527 -1.2657
  364MOL0     H49131   7.288   6.888   5.724 -0.0456 -0.4643  0.9282
  364MOL0     H49132   7.398   7.071   5.608  1.1568  3.2931 -0.2706
  364MOL0     H49133   7.436   7.075   5.784  0.9957  1.8014 -0.0921
  364MOL0     H49134   7.265   7.262   5.821  2.7192  2.0941  0.8068
  364MOL0     H49135   7.224   7.257   5.643  0.7095  1.3628 -0.7503
  364MOL0     H49136   7.438   7.304   5.577  0.5511 -1.9557  0.8113
  364MOL0     H49137   7.496   7.324   5.742 -1.8582  0.3653  1.4630
  364MOL0     H49138   7.294   7.690   5.641 -1.2935 -1.1849 -5.7585
  364MOL0     H49139   7.041   6.820   5.829 -0.2236 -0.8600 -0.8829
  364MOL0     H49140   6.825   6.723   5.821  1.0919 -1.1972 -1.7804
  365MOL0     O49141   6.372  10.324   2.486 -0.2304  1.0493 -0.5837
  365MOL0     C49142   6.427  10.301   2.600 -0.0046 -0.3083 -0.3493
  365MOL0     O49143   6.363  10.308   2.722  1.1811  0.8839  0.6104
  365MOL0     C49144   6.228  10.325   2.728 -0.0352 -0.3433 -0.2943
  365MOL0     C49145   6.136  10.401   2.648  0.3889  0.0817  0.8584
  365MOL0     C49146   5.996  10.391   2.682  0.0172 -0.7001  0.0571
  365MOL0     C49147   5.956  10.318   2.798 -1.3124 -0.5229 -0.0477
  365MOL0     O49148   5.827  10.333   2.848  0.2800  0.2909 -0.2540
  365MOL0     C49149   5.727  10.286   2.756  0.4662  0.5345 -0.5359
  365MOL0     C49150   5.650  10.177   2.824  0.1409 -0.1519  0.1298
  365MOL0     C49151   5.557  10.114   2.722 -0.9077  0.9421  0.4456
  365MOL0     C49152   5.453  10.031   2.798  0.0487 -0.7099 -0.5114
  365MOL0     C49153   5.347   9.961   2.705  0.0789  0.8224 -0.1687
  365MOL0     C49154   5.409   9.846   2.619 -0.3074 -0.2011  0.4042
  365MOL0     C49155   5.302   9.750   2.567  1.2799  1.0028  0.7510
  365MOL0     C49156   5.366   9.663   2.461 -0.3376  1.0032  0.1049
  365MOL0     N49157   5.259   9.603   2.376  0.4535  0.0671 -0.5609
  365MOL0     C49158   5.209   9.478   2.396  0.5677 -0.2101  0.5944
  365MOL0     C49159   5.102   9.477   2.311 -0.4750 -0.2723 -0.5228
  365MOL0     C49160   5.023   9.350   2.289 -0.7502  0.2015  0.6745
  365MOL0     C49161   4.877   9.383   2.270  0.3972 -0.1605 -0.6089
  365MOL0     C49162   4.793   9.265   2.216 -0.1967  0.4358 -0.1260
  365MOL0     C49163   4.654   9.300   2.161 -0.2290 -0.4007 -0.4565
  365MOL0     O49164   4.582   9.180   2.124  0.9591  0.0522  0.0565
  365MOL0     C49165   4.450   9.208   2.114  1.1199 -0.3062 -0.4512
  365MOL0     C49166   4.393   9.262   1.995 -0.0514  0.9779  0.0198
  365MOL0     C49167   4.259   9.285   1.978 -0.4012 -1.0044 -0.3753
  365MOL0     C49168   4.208   9.336   1.849  1.0650 -0.2761  1.1088
  365MOL0     C49169   4.172   9.240   2.080 -0.4314  0.5544  0.2203
  365MOL0     C49170   4.031   9.219   2.063 -0.0730  0.9913  0.0021
  365MOL0     O49171   3.971   9.195   1.937 -0.6923  0.4495  0.3261
  365MOL0     C49172   3.834   9.191   1.931 -0.8093  1.2847  0.1175
  365MOL0     C49173   3.767   9.298   1.889 -0.0870 -0.2451 -0.9523
  365MOL0     C49174   3.624   9.304   1.882  0.4516 -0.7467 -1.0297
  365MOL0     C49175   3.556   9.188   1.911 -0.1410  0.0027  0.5362
  365MOL0     O49176   3.418   9.196   1.906 -0.0871 -0.2651  0.3977
  365MOL0     C49177   3.354   9.141   2.015  0.3936 -0.6841  0.5898
  365MOL0     C49178   3.200   9.151   1.999 -0.1698 -0.3167  0.2158
  365MOL0     C49179   3.116   9.085   2.107  0.2177  1.2405 -0.7092
  365MOL0     C49180   2.971   9.119   2.098  0.3950 -0.5375 -0.0128
  365MOL0     C49181   2.890   9.062   2.215  0.0169  0.0417  0.3549
  365MOL0     C49182   2.745   9.109   2.202  0.6828  0.3759  0.5438
  365MOL0     C49183   2.682   9.105   2.345  0.5302 -0.0672 -0.3014
  365MOL0     C49184   2.625   8.968   2.397  0.6354 -0.4073 -0.3093
  365MOL0    Cl49185   2.467   8.937   2.337  0.0712 -0.0789 -0.3401
  365MOL0     C49186   3.625   9.071   1.956 -0.3815  0.0319  0.0386
  365MOL0     C49187   3.766   9.077   1.969  0.3273 -0.0334 -0.2576
  365MOL0     O49188   3.966   9.252   2.164  0.6773 -0.2122  0.5938
  365MOL0     C49189   4.226   9.186   2.199 -0.0710 -0.7756  0.3206
  365MOL0     C49190   4.358   9.169   2.221  0.5272  1.0169 -0.4145
  365MOL0     N49191   5.086   9.597   2.248  0.3056 -0.4382  0.0358
  365MOL0     N49192   5.195   9.667   2.277  0.5597  0.2494 -0.5010
  365MOL0     C49193   6.054  10.254   2.883  0.6601 -0.9588 -0.3426
  365MOL0     C49194   6.185  10.259   2.846 -0.7407 -0.0225  0.0432
  365MOL0     C49195   6.568  10.303   2.593 -0.0358  0.0178  0.1231
  365MOL0     C49196   6.635  10.333   2.707  0.4457 -0.6424  0.2233
  365MOL0     C49197   6.773  10.314   2.720 -0.8990  0.0710  0.8151
  365MOL0     C49198   6.845  10.267   2.604  0.5938 -0.1826 -0.6328
  365MOL0     O49199   6.977  10.250   2.622 -0.5974  0.2670 -0.7414
  365MOL0     C49200   7.061  10.247   2.511  0.3917 -0.0785  0.3204
  365MOL0     C49201   7.210  10.230   2.550  0.1862  0.3790 -0.0505
  365MOL0     C49202   7.267  10.361   2.603 -0.2127  0.6790 -0.5870
  365MOL0     C49203   7.410  10.354   2.647 -0.4805 -0.0856 -0.5191
  365MOL0     C49204   7.462  10.494   2.673 -0.3608  0.5834 -0.2803
  365MOL0     C49205   7.512  10.600   2.694 -0.3775  0.4656  0.2902
  365MOL0     C49206   6.771  10.257   2.481 -0.1781 -1.3620  0.3181
  365MOL0     C49207   6.629  10.266   2.473 -0.7372  0.1551  0.0270
  365MOL0     H49208   6.168  10.462   2.564  0.7619 -1.5575 -0.2347
  365MOL0     H49209   5.932  10.459   2.626  1.6620  0.1447 -0.8652
  365MOL0     H49210   5.665  10.373   2.733 -0.3064 -0.5864 -3.0151
  365MOL0     H49211   5.765  10.255   2.658  1.2440 -0.4812  0.0648
  365MOL0     H49212   5.704  10.095   2.873 -1.5116 -0.5773  1.3286
  365MOL0     H49213   5.588  10.210   2.908  0.7787  0.7282  0.2675
  365MOL0     H49214   5.511  10.192   2.660  0.2055  2.3949  1.3873
  365MOL0     H49215   5.619  10.048   2.661 -2.5238 -0.5499  0.3576
  365MOL0     H49216   5.502   9.967   2.871  0.5402 -1.1378 -1.2041
  365MOL0     H49217   5.391  10.095   2.862  3.5088  0.2439  2.1893
  365MOL0     H49218   5.285   9.905   2.775 -1.2612  1.4239 -0.8524
  365MOL0     H49219   5.286  10.029   2.644 -0.9216  1.9298  1.9610
  365MOL0     H49220   5.473   9.883   2.539  0.1127  1.3164  1.4121
  365MOL0     H49221   5.479   9.789   2.682  1.8235  1.3330 -0.4479
  365MOL0     H49222   5.252   9.687   2.640  0.2357  0.0555 -0.7214
  365MOL0     H49223   5.221   9.807   2.519  1.3881  1.2943  0.9144
  365MOL0     H49224   5.427   9.582   2.501 -0.8190 -0.2303 -1.5218
  365MOL0     H49225   5.436   9.723   2.402  1.7036 -0.8558  0.5079
  365MOL0     H49226   5.252   9.401   2.460  0.9809  1.9262  3.0789
  365MOL0     H49227   5.065   9.318   2.193  1.9054 -1.1365  2.1813
  365MOL0     H49228   5.028   9.278   2.371 -0.2057  1.1804  1.5286
  365MOL0     H49229   4.870   9.474   2.210  1.9226 -0.0646 -0.6855
  365MOL0     H49230   4.841   9.412   2.369 -0.6815  0.6915 -1.2299
  365MOL0     H49231   4.789   9.196   2.301 -0.8067  0.8818  0.2106
  365MOL0     H49232   4.847   9.227   2.128 -2.7209 -0.5322 -1.3632
  365MOL0     H49233   4.673   9.353   2.067  0.1866 -2.2171 -1.4467
  365MOL0     H49234   4.607   9.357   2.242  0.2529 -2.1201  1.1066
  365MOL0     H49235   4.467   9.276   1.917  1.4235 -0.8368  1.0168
  365MOL0     H49236   4.183   9.259   1.775  0.1756 -0.5001  1.6317
  365MOL0     H49237   4.123   9.401   1.874  2.7468  1.9623  1.3486
  365MOL0     H49238   4.283   9.399   1.800  0.7545 -0.9786 -0.3344
  365MOL0     H49239   3.818   9.388   1.856  0.0251 -0.4850 -1.4530
  365MOL0     H49240   3.568   9.382   1.831 -1.0650 -1.9400 -1.2417
  365MOL0     H49241   3.380   9.035   2.023 -2.1390 -1.4367 -0.1878
  365MOL0     H49242   3.380   9.200   2.103  1.2450  1.7254 -1.1816
  365MOL0     H49243   3.182   9.258   2.004 -0.5311 -0.2447 -1.9306
  365MOL0     H49244   3.168   9.112   1.902 -1.5280  2.0472 -0.3723
  365MOL0     H49245   3.150   9.105   2.209 -1.3668 -0.5435  0.2226
  365MOL0     H49246   3.126   8.977   2.096  0.9337  1.1671  0.5250
  365MOL0     H49247   2.953   9.227   2.091  0.0630 -0.5611  0.4326
  365MOL0     H49248   2.937   9.072   2.005  0.7968  0.4097 -0.6582
  365MOL0     H49249   2.931   9.098   2.310 -1.3639  0.6769  0.7279
  365MOL0     H49250   2.877   8.954   2.228 -2.4384 -0.0738 -2.2123
  365MOL0     H49251   2.734   9.206   2.153 -2.2288  0.4265  1.0838
  365MOL0     H49252   2.686   9.036   2.145  2.6250 -1.3153  0.5866
  365MOL0     H49253   2.597   9.174   2.349  0.5342 -0.0140 -1.0294
  365MOL0     H49254   2.751   9.142   2.422 -1.6811  0.8472  1.3364
  365MOL0     H49255   2.607   8.966   2.505  2.2286  0.3893 -0.0040
  365MOL0     H49256   2.694   8.885   2.380  3.2445  0.7498  3.4533
  365MOL0     H49257   3.576   8.979   1.985 -1.2258  1.3801  3.4010
  365MOL0     H49258   3.833   8.997   2.001 -0.4489  0.1331  1.9402
  365MOL0     H49259   4.162   9.137   2.271  1.2120 -1.9293  0.7163
  365MOL0     H49260   4.389   9.119   2.313  0.8206  1.1832 -0.4227
  365MOL0     H49261   6.024  10.215   2.979  1.4561 -0.4748  0.1134
  365MOL0     H49262   6.241  10.209   2.925 -0.9048 -1.2514 -0.5851
  365MOL0     H49263   6.590  10.369   2.800  1.7437  1.2729  0.1685
  365MOL0     H49264   6.817  10.342   2.815  2.6250 -3.9320  0.6304
  365MOL0     H49265   7.028  10.171   2.440 -1.1216  1.4469 -0.6756
  365MOL0     H49266   7.049  10.345   2.465  0.7527 -0.3466 -0.3603
  365MOL0     H49267   7.253  10.204   2.453  1.0216  3.3468 -0.5631
  365MOL0     H49268   7.227  10.146   2.618  4.0014  1.9589  1.2047
  365MOL0     H49269   7.206  10.407   2.682  2.5709  0.7135  1.7085
  365MOL0     H49270   7.267  10.436   2.523 -0.3444  0.4359 -0.8164
  365MOL0     H49271   7.479  10.319   2.569 -0.6303 -1.1238 -0.2017
  365MOL0     H49272   7.421  10.287   2.733  1.4654  3.6525  2.4541
  365MOL0     H49273   7.568  10.686   2.723 -1.4961  1.1363  0.5021
  365MOL0     H49274   6.828  10.216   2.398  0.4124  0.7234 -0.3886
  365MOL0     H49275   6.583  10.247   2.377  0.1913 -5.1038  0.3288
  366MOL0     O49276   8.303   3.060   0.494 -0.1438  0.4349 -0.5561
  366MOL0     C49277   8.326   3.170   0.532 -0.6547 -0.2228  0.5248
  366MOL0     O49278   8.234   3.265   0.541  0.0266 -0.1752  0.1082
  366MOL0     C49279   8.102   3.252   0.507 -0.2050 -0.2451  0.5183
  366MOL0     C49280   8.010   3.326   0.577  0.3255 -1.0290 -0.5379
  366MOL0     C49281   7.875   3.337   0.549 -0.3052  0.2511  0.1179
  366MOL0     C49282   7.828   3.266   0.436 -0.1687  0.0629 -0.4821
  366MOL0     O49283   7.697   3.255   0.420  0.4127  0.6508  0.7896
  366MOL0     C49284   7.634   3.375   0.381 -0.9523 -0.1840 -0.0250
  366MOL0     C49285   7.502   3.356   0.317 -0.7182 -0.2274 -0.6773
  366MOL0     C49286   7.411   3.269   0.403 -0.0885  0.1538 -0.2150
  366MOL0     C49287   7.274   3.260   0.341  0.3229 -0.3752 -0.1576
  366MOL0     C49288   7.186   3.185   0.428  0.8784 -0.3993 -0.6844
  366MOL0     C49289   7.040   3.165   0.375 -0.3746  0.2104  0.4690
  366MOL0     C49290   6.948   3.112   0.489  0.1536 -0.9984 -0.0844
  366MOL0     C49291   6.805   3.132   0.439  0.9226 -0.0143  0.3354
  366MOL0     N49292   6.759   3.253   0.506 -0.1137 -0.6793 -0.7346
  366MOL0     C49293   6.674   3.251   0.618  1.3156 -0.2980  0.1431
  366MOL0     C49294   6.648   3.384   0.638  0.0334  0.1773  0.4449
  366MOL0     C49295   6.547   3.433   0.731  0.2848  0.7496 -0.4934
  366MOL0     C49296   6.558   3.374   0.870 -1.0321  0.3318 -0.2436
  366MOL0     C49297   6.480   3.453   0.981 -0.3397 -0.2659  0.1208
  366MOL0     C49298   6.330   3.442   0.958  0.1930  0.0514 -0.1266
  366MOL0     O49299   6.280   3.500   0.837  0.0124  0.6633 -0.6477
  366MOL0     C49300   6.153   3.545   0.835  0.1178 -0.1899  0.0552
  366MOL0     C49301   6.103   3.608   0.717 -0.5742 -0.5740 -0.0343
  366MOL0     C49302   5.969   3.658   0.701  0.0889  0.0234  0.0849
  366MOL0     C49303   5.939   3.741   0.588 -0.1843  0.4911 -0.8646
  366MOL0     C49304   5.877   3.632   0.808  0.0370 -0.2279  0.3757
  366MOL0     C49305   5.730   3.666   0.801 -0.6685 -0.8565  0.3921
  366MOL0     O49306   5.662   3.655   0.914 -0.3894  0.3624 -0.5422
  366MOL0     C49307   5.528   3.694   0.911 -0.6620  0.6139 -0.8259
  366MOL0     C49308   5.478   3.812   0.975  0.9671 -0.1152  0.8739
  366MOL0     C49309   5.346   3.846   0.972 -0.1645 -0.5574  0.1564
  366MOL0     C49310   5.254   3.771   0.904 -0.3602 -0.1679  0.1466
  366MOL0     O49311   5.118   3.800   0.899  0.1360 -0.0212 -0.5532
  366MOL0     C49312   5.054   3.781   0.766  0.7069  0.3822  0.3061
  366MOL0     C49313   4.950   3.888   0.754  0.8401 -0.2626  0.2544
  366MOL0     C49314   4.832   3.877   0.850 -0.7327 -0.5431 -0.6034
  366MOL0     C49315   4.736   3.987   0.831 -0.2720  0.2535  0.4799
  366MOL0     C49316   4.628   3.997   0.934  0.4075  0.1702  0.9076
  366MOL0     C49317   4.534   4.113   0.884 -0.0551  0.4029 -0.1191
  366MOL0     C49318   4.448   4.146   1.002  0.2544 -0.8872  0.4304
  366MOL0     C49319   4.365   4.263   0.962  0.1626  0.0786  0.3542
  366MOL0    Cl49320   4.244   4.219   0.830  0.1836  0.3627  0.5013
  366MOL0     C49321   5.297   3.643   0.859 -0.5774  0.4123 -0.0829
  366MOL0     C49322   5.430   3.610   0.855  0.2968 -0.8678  0.6685
  366MOL0     O49323   5.675   3.696   0.691 -0.2112 -0.0581 -0.4275
  366MOL0     C49324   5.923   3.562   0.919  1.7034  0.1744  0.5789
  366MOL0     C49325   6.049   3.524   0.932 -0.5516  0.0986 -0.3615
  366MOL0     N49326   6.719   3.459   0.548 -0.7290 -0.2333  0.4216
  366MOL0     N49327   6.797   3.379   0.477  0.4466  0.5014  1.0824
  366MOL0     C49328   7.915   3.196   0.356  0.5658 -0.1840 -0.6409
  366MOL0     C49329   8.050   3.180   0.401 -1.1535 -0.6468 -0.3716
  366MOL0     C49330   8.457   3.196   0.583 -0.3627  0.5912  0.3243
  366MOL0     C49331   8.549   3.096   0.612  0.4447 -0.7004 -0.7623
  366MOL0     C49332   8.676   3.130   0.654  0.0864  0.2230  0.1217
  366MOL0     C49333   8.717   3.266   0.661  0.1636  1.1218 -0.6015
  366MOL0     O49334   8.841   3.289   0.711  0.3401  0.3699  0.4166
  366MOL0     C49335   8.891   3.421   0.717 -0.3364 -0.1527 -0.4701
  366MOL0     C49336   9.043   3.428   0.749 -0.3228  0.5582  0.4281
  366MOL0     C49337   9.129   3.378   0.629 -0.7936  0.0590  0.2352
  366MOL0     C49338   9.277   3.361   0.676 -0.0422  0.2012 -0.4898
  366MOL0     C49339   9.283   3.264   0.777 -0.4789 -0.3189 -0.3396
  366MOL0     C49340   9.287   3.182   0.865  0.8266  0.2906 -0.6055
  366MOL0     C49341   8.628   3.364   0.626 -0.8679 -0.6257  0.2576
  366MOL0     C49342   8.500   3.331   0.598 -1.1870 -0.2885  0.8081
  366MOL0     H49343   8.039   3.390   0.659 -4.3523  1.8667 -0.8086
  366MOL0     H49344   7.803   3.396   0.605  0.3808  1.0241  0.2081
  366MOL0     H49345   7.626   3.431   0.474 -3.1221  1.4825 -1.1140
  366MOL0     H49346   7.692   3.436   0.310 -0.4150 -2.8233 -2.0192
  366MOL0     H49347   7.459   3.451   0.282  0.4562  0.0926 -1.3015
  366MOL0     H49348   7.527   3.308   0.222  1.6645  0.7929 -0.6306
  366MOL0     H49349   7.448   3.167   0.411 -1.2360 -0.2008  0.7797
  366MOL0     H49350   7.408   3.320   0.500  0.2037  0.3611 -0.3113
  366MOL0     H49351   7.249   3.367   0.338  1.7294 -0.0276 -0.5413
  366MOL0     H49352   7.269   3.226   0.237 -1.6603  2.0296 -0.9692
  366MOL0     H49353   7.233   3.093   0.463  0.5707 -0.6858 -1.0170
  366MOL0     H49354   7.180   3.240   0.522 -0.2379  0.2005 -1.0885
  366MOL0     H49355   7.009   3.263   0.336 -3.4597 -0.0587  2.0089
  366MOL0     H49356   7.038   3.088   0.298  1.0113  1.3432 -0.7581
  366MOL0     H49357   6.971   3.005   0.492  0.8993 -0.8493 -0.2273
  366MOL0     H49358   6.962   3.163   0.584 -2.0473  0.5696 -0.5434
  366MOL0     H49359   6.742   3.048   0.469 -0.1225  1.1562  1.5377
  366MOL0     H49360   6.798   3.146   0.331  2.4849  0.2662  0.2502
  366MOL0     H49361   6.622   3.174   0.675  1.3403  0.2799  0.9553
  366MOL0     H49362   6.563   3.542   0.736 -0.4265  0.8972 -1.2258
  366MOL0     H49363   6.445   3.417   0.694 -0.3443  0.2267  1.3635
  366MOL0     H49364   6.665   3.380   0.895 -1.4977  0.9660  1.7649
  366MOL0     H49365   6.528   3.269   0.870  1.4995 -0.6400  4.0896
  366MOL0     H49366   6.506   3.559   0.978 -1.5992  0.0831 -3.9659
  366MOL0     H49367   6.519   3.411   1.074  2.0738  1.1417 -0.1678
  366MOL0     H49368   6.279   3.488   1.044  1.7857 -1.5362  1.7561
  366MOL0     H49369   6.300   3.338   0.973 -1.0931  0.0445 -2.2940
  366MOL0     H49370   6.182   3.624   0.644 -0.5620  1.5704  0.3647
  366MOL0     H49371   6.032   3.775   0.541  1.5507  1.0451  2.6494
  366MOL0     H49372   5.884   3.687   0.511 -0.6428  0.6314 -0.6366
  366MOL0     H49373   5.877   3.825   0.621 -1.0320  0.0453 -1.3073
  366MOL0     H49374   5.545   3.882   1.024  0.5745  0.2030  0.9640
  366MOL0     H49375   5.315   3.935   1.027  1.2089 -0.2347  0.4489
  366MOL0     H49376   5.128   3.777   0.685 -1.5567 -2.8369 -1.8617
  366MOL0     H49377   5.000   3.686   0.756 -5.1583  3.1982  0.8980
  366MOL0     H49378   5.001   3.984   0.760  2.7172 -1.1011 -1.2119
  366MOL0     H49379   4.906   3.868   0.656  0.3366  2.5022 -0.1398
  366MOL0     H49380   4.882   3.892   0.946 -0.3587 -0.7828 -0.7598
  366MOL0     H49381   4.777   3.783   0.857 -3.0502  0.7066 -0.8253
  366MOL0     H49382   4.791   4.081   0.816 -0.7263  0.3800 -0.4845
  366MOL0     H49383   4.688   3.975   0.733  1.0040  1.6609 -0.3568
  366MOL0     H49384   4.671   4.024   1.031 -0.1502  0.1511  1.1618
  366MOL0     H49385   4.576   3.901   0.944 -1.2786  0.8720 -0.5715
  366MOL0     H49386   4.584   4.209   0.871 -3.2018  2.1101 -0.6468
  366MOL0     H49387   4.479   4.086   0.793  1.8524 -2.0571 -0.6494
  366MOL0     H49388   4.507   4.190   1.083  0.9296  2.6485 -1.7623
  366MOL0     H49389   4.384   4.063   1.034  0.2517 -1.3289 -0.6712
  366MOL0     H49390   4.421   4.355   0.940 -1.6246  1.3689  0.9339
  366MOL0     H49391   4.307   4.296   1.049  0.2384 -0.0828  0.4675
  366MOL0     H49392   5.235   3.562   0.822  2.8872 -2.4193 -0.2434
  366MOL0     H49393   5.465   3.513   0.823 -0.4614 -0.5261 -1.3334
  366MOL0     H49394   5.857   3.528   0.999  1.8485 -1.2035  0.1372
  366MOL0     H49395   6.065   3.490   1.034  1.9298 -1.6453 -1.2524
  366MOL0     H49396   7.879   3.142   0.269 -1.4400  1.6849 -1.0614
  366MOL0     H49397   8.115   3.119   0.340  0.3016  0.9258 -0.4746
  366MOL0     H49398   8.513   2.995   0.595  0.0881 -0.3381 -2.2473
  366MOL0     H49399   8.747   3.057   0.691 -1.6703 -1.9813 -0.5978
  366MOL0     H49400   8.877   3.468   0.619 -0.4396 -0.5289 -0.6377
  366MOL0     H49401   8.853   3.481   0.799  1.5776 -0.8431  0.9968
  366MOL0     H49402   9.056   3.367   0.839  0.9444  2.5332  1.6556
  366MOL0     H49403   9.074   3.530   0.772  2.6993  0.1187 -1.1200
  366MOL0     H49404   9.127   3.451   0.547  0.3147  2.5030  2.2079
  366MOL0     H49405   9.080   3.288   0.593  2.2128 -0.9379 -1.7841
  366MOL0     H49406   9.316   3.452   0.724  0.1342 -0.8761  1.5359
  366MOL0     H49407   9.339   3.328   0.592 -1.0391 -0.9703 -0.7766
  366MOL0     H49408   9.288   3.105   0.939 -1.2319  0.1336 -0.6809
  366MOL0     H49409   8.670   3.464   0.627 -0.8150 -0.5845 -1.7521
  366MOL0     H49410   8.444   3.422   0.580 -0.1429 -0.0694 -1.7822
  367MOL0     O49411   1.564   9.064  10.487  0.5809  0.1230  0.2178
  367MOL0     C49412   1.605   9.153  10.564  0.5103 -0.8075  0.4878
  367MOL0     O49413   1.531   9.231  10.637  0.2818 -0.6498 -0.0560
  367MOL0     C49414   1.410   9.243  10.588 -0.5837  0.0578  0.6981
  367MOL0     C49415   1.310   9.154  10.623 -0.4047  0.5558  1.0038
  367MOL0     C49416   1.180   9.182  10.587 -1.0678 -0.0207  0.0556
  367MOL0     C49417   1.149   9.286  10.497  0.0384 -0.1112 -0.3008
  367MOL0     O49418   1.021   9.312  10.455 -0.2015  0.1892  0.4458
  367MOL0     C49419   0.991   9.346  10.319 -0.2423 -0.6374 -0.8520
  367MOL0     C49420   0.924   9.234  10.254  0.2200  0.1488 -0.0433
  367MOL0     C49421   0.782   9.198  10.321 -0.0672 -0.0162  0.7073
  367MOL0     C49422   0.677   9.192  10.207  0.3804 -0.1257  0.8212
  367MOL0     C49423   0.543   9.125  10.252  0.3943 -0.0457  0.1550
  367MOL0     C49424   0.438   9.227  10.300  0.1514  0.4763  0.1677
  367MOL0     C49425   0.307   9.158  10.344 -0.0537  0.2312 -0.0644
  367MOL0     C49426   0.201   9.267  10.391  0.9226  0.4400 -0.2917
  367MOL0     N49427   0.060   9.232  10.359 -0.1453  0.1551 -0.5673
  367MOL0     C49428   0.016   9.188  10.234  0.0304 -0.3774  0.7319
  367MOL0     C49429  -0.103   9.136  10.250  0.3619  0.6525 -0.8498
  367MOL0     C49430  -0.188   9.060  10.144 -0.6700  0.1381  0.7732
  367MOL0     C49431  -0.337   9.100  10.140  0.2181 -0.3289 -0.1753
  367MOL0     C49432  -0.407   9.090   9.996 -0.0745  0.6642  1.8077
  367MOL0     C49433  -0.549   9.151   9.999 -0.3618 -0.1826 -0.5016
  367MOL0     O49434  -0.601   9.146   9.864  0.5219  0.6206 -0.4648
  367MOL0     C49435  -0.742   9.174   9.847 -0.5791  0.0372 -1.0699
  367MOL0     C49436  -0.795   9.288   9.903  1.0261 -0.5452 -0.7054
  367MOL0     C49437  -0.926   9.339   9.882 -1.2735  0.4653  0.6121
  367MOL0     C49438  -0.972   9.456   9.964  0.3304 -0.5253 -0.9428
  367MOL0     C49439  -1.008   9.274   9.789  0.0275 -0.0151  1.2783
  367MOL0     C49440  -1.155   9.313   9.760 -0.2691  0.0925 -0.0623
  367MOL0     O49441  -1.225   9.225   9.683 -0.0236  0.5696 -0.1022
  367MOL0     C49442  -1.358   9.260   9.653 -0.7965 -0.3702 -0.4316
  367MOL0     C49443  -1.386   9.350   9.553  0.4079  0.1225  0.5335
  367MOL0     C49444  -1.522   9.387   9.526 -0.0949 -0.0417  0.5197
  367MOL0     C49445  -1.624   9.321   9.605  0.2290 -0.1403  0.5629
  367MOL0     O49446  -1.754   9.349   9.575 -0.0351  0.3434  0.1209
  367MOL0     C49447  -1.862   9.332   9.671 -0.2953 -0.2376  0.5370
  367MOL0     C49448  -1.997   9.381   9.611 -0.9247 -0.0250  0.0035
  367MOL0     C49449  -2.087   9.454   9.705  0.6002 -1.2585  0.2064
  367MOL0     C49450  -2.230   9.451   9.658 -1.0651 -0.3268  0.0229
  367MOL0     C49451  -2.320   9.519   9.757  0.0098 -0.2542 -0.6767
  367MOL0     C49452  -2.466   9.504   9.719  0.1325 -0.0140 -0.1973
  367MOL0     C49453  -2.546   9.605   9.808  0.4096  0.2582 -0.3089
  367MOL0     C49454  -2.685   9.638   9.758 -0.2336 -0.2389  0.1550
  367MOL0    Cl49455  -2.802   9.496   9.759  0.3573  0.0698  0.0313
  367MOL0     C49456  -1.587   9.234   9.707  0.3534  0.1433 -0.3521
  367MOL0     C49457  -1.457   9.201   9.735 -0.1398 -0.0791  0.3472
  367MOL0     O49458  -1.200   9.415   9.815  0.8419  0.6009 -0.9231
  367MOL0     C49459  -0.957   9.149   9.732  0.1456  0.6974  0.1599
  367MOL0     C49460  -0.821   9.105   9.759 -0.8047 -0.3233 -0.4625
  367MOL0     N49461  -0.139   9.151  10.386 -0.3078  0.6494  0.1578
  367MOL0     N49462  -0.036   9.199  10.447  0.2652  0.0461  0.0014
  367MOL0     C49463   1.249   9.382  10.470 -0.2271  0.7886  0.3977
  367MOL0     C49464   1.380   9.361  10.515 -0.3093  0.2664 -0.1224
  367MOL0     C49465   1.747   9.167  10.589 -0.3180 -0.5637 -0.9769
  367MOL0     C49466   1.798   9.249  10.694 -0.3177  0.0686  1.1380
  367MOL0     C49467   1.942   9.261  10.721  0.5811  0.1188  0.5354
  367MOL0     C49468   2.028   9.190  10.640  0.5642  0.0660 -0.2831
  367MOL0     O49469   2.160   9.188  10.662 -0.2586 -0.4751  0.0233
  367MOL0     C49470   2.224   9.324  10.657 -0.0418  1.0251 -0.4078
  367MOL0     C49471   2.371   9.304  10.693 -0.3003  1.2487  0.0125
  367MOL0     C49472   2.438   9.213  10.585  0.0361  0.2393  0.9085
  367MOL0     C49473   2.590   9.214  10.613 -0.8616 -0.3370 -0.0065
  367MOL0     C49474   2.635   9.192  10.751  0.4432 -0.6371  0.5242
  367MOL0     C49475   2.676   9.188  10.864  0.0691 -0.5055  1.2642
  367MOL0     C49476   1.978   9.118  10.532 -0.0578  0.3342 -0.5035
  367MOL0     C49477   1.836   9.107  10.504  0.5147  0.5112 -0.0798
  367MOL0     H49478   1.322   9.067  10.688 -2.9166  0.1303  0.9927
  367MOL0     H49479   1.097   9.119  10.617 -1.5772  0.6230  0.0087
  367MOL0     H49480   0.938   9.441  10.318  1.1581  0.1865  0.0603
  367MOL0     H49481   1.078   9.375  10.259 -2.0699  2.7111 -2.1460
  367MOL0     H49482   0.903   9.246  10.147 -0.3955 -0.6177 -0.0231
  367MOL0     H49483   0.985   9.144  10.265 -0.0515  0.2407  3.1397
  367MOL0     H49484   0.791   9.100  10.369 -0.1260 -1.0549 -1.2792
  367MOL0     H49485   0.743   9.273  10.389 -2.2219  2.7239 -3.1373
  367MOL0     H49486   0.669   9.296  10.175  1.8803 -0.0889  0.4572
  367MOL0     H49487   0.707   9.123  10.128 -0.6703  0.2555  0.0754
  367MOL0     H49488   0.493   9.068  10.173  0.7172  1.1238 -0.9373
  367MOL0     H49489   0.551   9.070  10.346 -0.7943 -3.1226 -1.4041
  367MOL0     H49490   0.495   9.279  10.378  1.9980 -1.1528 -0.0055
  367MOL0     H49491   0.414   9.298  10.221 -0.5648  0.3011  0.2216
  367MOL0     H49492   0.269   9.105  10.257  1.0373  2.1805 -1.8430
  367MOL0     H49493   0.325   9.083  10.421  1.8555 -1.1434 -1.7567
  367MOL0     H49494   0.229   9.361  10.343  0.2092 -0.4206 -2.5251
  367MOL0     H49495   0.197   9.281  10.500  2.1246  1.0815 -0.3127
  367MOL0     H49496   0.066   9.199  10.138  0.2369  0.9574  0.9766
  367MOL0     H49497  -0.141   9.069  10.046  0.9185 -1.0264  1.3779
  367MOL0     H49498  -0.194   8.952  10.160 -0.2426  0.0813  0.5638
  367MOL0     H49499  -0.342   9.207  10.163 -0.1864 -0.0987 -1.2560
  367MOL0     H49500  -0.390   9.054  10.224  1.6386  1.7572  1.9974
  367MOL0     H49501  -0.398   8.989   9.956  1.4823  1.2969  0.4451
  367MOL0     H49502  -0.344   9.142   9.923  0.1342 -0.6020  1.0631
  367MOL0     H49503  -0.530   9.253  10.036  0.1790 -0.6344  0.5295
  367MOL0     H49504  -0.608   9.101  10.076  0.6325 -0.1591  0.3146
  367MOL0     H49505  -0.752   9.345   9.985 -4.1020 -0.9909  2.8433
  367MOL0     H49506  -1.001   9.535   9.893 -0.8586 -1.0902 -1.1062
  367MOL0     H49507  -1.059   9.421  10.020  1.8204  0.0639  1.9079
  367MOL0     H49508  -0.902   9.504  10.032  1.2884  0.2834 -2.4456
  367MOL0     H49509  -1.305   9.392   9.493  2.3039 -1.0077  2.1429
  367MOL0     H49510  -1.553   9.452   9.445  1.9217  0.1540 -0.1384
  367MOL0     H49511  -1.874   9.228   9.703 -0.3037 -1.2667 -2.4875
  367MOL0     H49512  -1.843   9.398   9.755  0.1836 -0.2964  0.4760
  367MOL0     H49513  -1.970   9.443   9.525  2.1153 -0.4301  0.5538
  367MOL0     H49514  -2.053   9.293   9.580 -1.6941  0.7543 -0.8703
  367MOL0     H49515  -2.054   9.559   9.712  1.3039 -1.3574 -1.2582
  367MOL0     H49516  -2.073   9.407   9.803  0.5593  1.4389  1.6187
  367MOL0     H49517  -2.248   9.499   9.561 -3.4765  0.3168  0.7141
  367MOL0     H49518  -2.261   9.346   9.646  2.5601 -1.8202  2.2051
  367MOL0     H49519  -2.290   9.624   9.747  1.5560 -0.8119 -2.4839
  367MOL0     H49520  -2.307   9.475   9.856 -1.1298  1.0947  0.1098
  367MOL0     H49521  -2.489   9.518   9.613  0.1105 -3.7759 -0.8256
  367MOL0     H49522  -2.490   9.400   9.746 -0.6428  0.9149  3.2049
  367MOL0     H49523  -2.493   9.699   9.825  2.4388 -1.2479  2.4174
  367MOL0     H49524  -2.558   9.566   9.909  0.6715  0.6296 -0.1323
  367MOL0     H49525  -2.683   9.668   9.653 -1.9190 -1.0347 -0.1414
  367MOL0     H49526  -2.730   9.720   9.815  0.0584  0.8378 -1.1134
  367MOL0     H49527  -1.663   9.199   9.775  0.2850 -1.2302 -1.0970
  367MOL0     H49528  -1.427   9.141   9.820 -0.0744  3.6467  3.1745
  367MOL0     H49529  -1.015   9.087   9.664  2.8322 -3.6537  1.3642
  367MOL0     H49530  -0.779   9.016   9.714  0.4060  0.4732 -0.9754
  367MOL0     H49531   1.222   9.479  10.432 -0.1824  0.9465  0.7670
  367MOL0     H49532   1.453   9.441  10.525  2.9162 -2.4806  0.0357
  367MOL0     H49533   1.738   9.307  10.763 -2.1526  0.1480 -0.4419
  367MOL0     H49534   1.970   9.324  10.804  0.0589  1.3997 -0.2253
  367MOL0     H49535   2.214   9.368  10.558  0.1734  0.4353 -0.6936
  367MOL0     H49536   2.186   9.395  10.732  1.4536  1.4970 -0.0731
  367MOL0     H49537   2.392   9.252  10.787 -0.8985  0.0261 -0.5013
  367MOL0     H49538   2.422   9.400  10.701  0.2336  0.8320  2.6194
  367MOL0     H49539   2.427   9.247  10.482 -0.2104 -2.0786  0.1189
  367MOL0     H49540   2.400   9.111  10.583 -0.9727  0.6048  0.8500
  367MOL0     H49541   2.632   9.306  10.570  2.6861 -1.0417  1.5427
  367MOL0     H49542   2.641   9.141  10.549  1.9263  0.6924  0.8894
  367MOL0     H49543   2.729   9.179  10.957 -3.1990  0.2379  3.3802
  367MOL0     H49544   2.044   9.047  10.484 -0.5041 -1.1995  1.0665
  367MOL0     H49545   1.809   9.037  10.426  1.1969 -0.5250  0.5869
  368MOL0     O49546  11.103   5.802   0.125 -0.8417  0.0880  0.2844
  368MOL0     C49547  11.152   5.732   0.219 -1.1855  0.2436  0.3766
  368MOL0     O49548  11.087   5.659   0.314  0.1131 -0.4022 -0.4554
  368MOL0     C49549  10.955   5.669   0.328 -0.4191 -0.5359 -0.2480
  368MOL0     C49550  10.860   5.718   0.237 -1.5772  0.1210 -0.3124
  368MOL0     C49551  10.729   5.729   0.286 -0.5488 -0.9388 -0.1622
  368MOL0     C49552  10.691   5.700   0.415 -0.2995 -0.3465  0.0946
  368MOL0     O49553  10.564   5.710   0.457 -0.5213  0.0913  0.0770
  368MOL0     C49554  10.465   5.656   0.376  0.1204 -0.5137  0.0682
  368MOL0     C49555  10.338   5.661   0.461 -0.2354  0.4094  0.9187
  368MOL0     C49556  10.224   5.568   0.398  0.1544  0.0643  0.1864
  368MOL0     C49557  10.113   5.541   0.494  0.4565 -0.2204  0.3902
  368MOL0     C49558  10.003   5.457   0.430 -0.1302  0.6850  0.2085
  368MOL0     C49559   9.900   5.523   0.334 -0.3470 -0.4257 -0.3298
  368MOL0     C49560   9.828   5.636   0.401  0.2145  0.6362 -0.6866
  368MOL0     C49561   9.691   5.679   0.326 -0.1390  0.2436 -0.0860
  368MOL0     N49562   9.585   5.579   0.320  0.1196  0.2609 -0.1754
  368MOL0     C49563   9.487   5.562   0.224 -0.0928 -1.1315  0.1801
  368MOL0     C49564   9.413   5.458   0.265 -0.5800  0.2564  0.2227
  368MOL0     C49565   9.327   5.377   0.166 -0.4140 -1.4782 -0.0207
  368MOL0     C49566   9.179   5.427   0.162  0.0272 -0.2733  0.3233
  368MOL0     C49567   9.110   5.443   0.296 -0.3737  0.3386  0.8555
  368MOL0     C49568   8.963   5.462   0.289  0.9807 -0.4116  0.6208
  368MOL0     O49569   8.928   5.597   0.259  0.0280  0.1843 -0.6598
  368MOL0     C49570   8.806   5.643   0.224  0.2735  0.9160 -0.3714
  368MOL0     C49571   8.793   5.778   0.191 -1.2060 -0.6225  0.3373
  368MOL0     C49572   8.678   5.835   0.147 -0.1659 -0.6140  0.0022
  368MOL0     C49573   8.698   5.978   0.100  0.4161 -0.7365 -0.0003
  368MOL0     C49574   8.559   5.756   0.138 -0.1901 -0.6896 -0.1225
  368MOL0     C49575   8.426   5.817   0.098  0.4633 -0.6881 -0.1882
  368MOL0     O49576   8.306   5.754   0.135  0.4010 -0.3422 -1.2392
  368MOL0     C49577   8.179   5.819   0.139  0.1988 -0.4047 -1.2647
  368MOL0     C49578   8.080   5.726   0.159  0.7736 -0.2788 -0.1149
  368MOL0     C49579   7.948   5.761   0.160 -0.3752 -0.8203  0.2534
  368MOL0     C49580   7.911   5.896   0.148  0.7972 -0.4034 -0.9210
  368MOL0     O49581   7.774   5.919   0.162  0.6846  0.1806  0.4567
  368MOL0     C49582   7.716   6.025   0.081 -0.2075  0.4962 -0.2140
  368MOL0     C49583   7.561   6.023   0.101 -0.4464  0.1779  0.0689
  368MOL0     C49584   7.490   6.123   0.008 -0.8326 -0.0042  1.0811
  368MOL0     C49585   7.507   6.267   0.050  0.2193 -0.4121  0.4616
  368MOL0     C49586   7.435   6.352  -0.054  0.7051 -0.5729  0.1789
  368MOL0     C49587   7.444   6.501  -0.016  0.2248 -0.0267  0.5486
  368MOL0     C49588   7.364   6.542   0.102  0.7826  0.3379  0.0051
  368MOL0     C49589   7.325   6.694   0.100 -0.7358 -0.0440  0.4489
  368MOL0    Cl49590   7.207   6.706   0.239  0.1226 -0.0011 -0.3234
  368MOL0     C49591   8.014   5.997   0.137 -0.0490 -0.9509 -0.1148
  368MOL0     C49592   8.147   5.961   0.135  0.4802 -0.3503  0.1220
  368MOL0     O49593   8.435   5.902   0.012  0.1145  0.0823 -0.9361
  368MOL0     C49594   8.559   5.627   0.191 -0.0781 -0.9811  0.1174
  368MOL0     C49595   8.685   5.562   0.216  0.9201  0.2783 -0.6785
  368MOL0     N49596   9.470   5.404   0.379  0.0285 -0.6130 -0.4621
  368MOL0     N49597   9.563   5.482   0.414  0.5280  0.3295  0.6762
  368MOL0     C49598  10.791   5.664   0.503  0.6914 -1.1563  0.4827
  368MOL0     C49599  10.910   5.631   0.458 -0.4044 -0.0293  0.2177
  368MOL0     C49600  11.296   5.755   0.247 -0.6189  0.6537 -1.0215
  368MOL0     C49601  11.385   5.800   0.151 -0.2615 -0.3857 -0.3089
  368MOL0     C49602  11.520   5.797   0.164  0.7489  0.1920 -0.7746
  368MOL0     C49603  11.582   5.759   0.285  0.0471 -0.3839 -0.9078
  368MOL0     O49604  11.716   5.771   0.314  0.5149  0.2944 -0.4169
  368MOL0     C49605  11.802   5.774   0.202  0.3766  0.0769  0.7127
  368MOL0     C49606  11.946   5.763   0.240 -0.1800  0.0243  0.4394
  368MOL0     C49607  12.037   5.778   0.114 -0.0578  0.0138 -0.0212
  368MOL0     C49608  12.071   5.634   0.066 -0.3341 -0.0357 -0.1200
  368MOL0     C49609  12.182   5.636  -0.036  0.5960  0.4656  0.6897
  368MOL0     C49610  12.280   5.631  -0.108 -0.4636  0.9759  0.4038
  368MOL0     C49611  11.500   5.719   0.395  0.8872 -0.9231 -0.0082
  368MOL0     C49612  11.360   5.714   0.369  0.3008 -0.0434 -0.2682
  368MOL0     H49613  10.882   5.734   0.131  1.2623 -0.9320  0.0421
  368MOL0     H49614  10.657   5.783   0.224 -0.8157 -0.9979  0.0962
  368MOL0     H49615  10.444   5.704   0.280 -2.0698 -2.5612 -0.5819
  368MOL0     H49616  10.481   5.550   0.355 -1.5648 -1.1014  1.5456
  368MOL0     H49617  10.371   5.613   0.554  0.4999 -0.4434  0.2241
  368MOL0     H49618  10.311   5.767   0.467  2.5549  1.1756  1.1024
  368MOL0     H49619  10.178   5.615   0.311 -0.5071  1.3961  1.2239
  368MOL0     H49620  10.266   5.468   0.381  2.2779  0.8795  0.2394
  368MOL0     H49621  10.153   5.496   0.585 -1.3212 -1.1681  0.7380
  368MOL0     H49622  10.080   5.641   0.524 -0.5717  0.1024 -1.6410
  368MOL0     H49623  10.051   5.372   0.381 -0.1863  0.0572  1.2027
  368MOL0     H49624   9.938   5.418   0.509  2.2252 -0.1086  1.8844
  368MOL0     H49625   9.943   5.565   0.243  0.9382  1.5069  1.0935
  368MOL0     H49626   9.820   5.452   0.308 -0.5651 -0.2796 -0.0726
  368MOL0     H49627   9.784   5.602   0.496  0.0849 -1.2049 -1.3530
  368MOL0     H49628   9.905   5.713   0.411  1.5082 -0.8848  3.4876
  368MOL0     H49629   9.720   5.704   0.223 -4.1520 -0.6794 -1.6143
  368MOL0     H49630   9.642   5.769   0.364 -0.5098  0.5678 -1.2775
  368MOL0     H49631   9.480   5.614   0.129 -1.2102  0.7693  1.2331
  368MOL0     H49632   9.374   5.378   0.067  0.9498 -1.0461  0.6065
  368MOL0     H49633   9.318   5.278   0.212 -0.1693 -0.8381  1.4728
  368MOL0     H49634   9.128   5.365   0.088  2.7992 -2.4639  0.1032
  368MOL0     H49635   9.189   5.528   0.120 -1.3742  0.2488  1.1657
  368MOL0     H49636   9.157   5.522   0.356  1.6191  1.1159 -1.5336
  368MOL0     H49637   9.121   5.351   0.354  0.9606  0.5221  0.9379
  368MOL0     H49638   8.920   5.438   0.386 -1.2792 -2.4191 -0.7791
  368MOL0     H49639   8.928   5.390   0.215 -0.3672 -0.4613  1.2756
  368MOL0     H49640   8.886   5.833   0.197 -2.5215  2.1414 -1.9682
  368MOL0     H49641   8.638   5.997   0.010  0.5910  1.5793  0.3055
  368MOL0     H49642   8.663   6.050   0.175 -0.6883  0.8707 -1.9466
  368MOL0     H49643   8.804   5.989   0.077  0.8406 -1.3176  1.5790
  368MOL0     H49644   8.103   5.621   0.176 -1.6042 -0.5781  1.8398
  368MOL0     H49645   7.870   5.685   0.166 -1.3081 -0.1837 -2.3619
  368MOL0     H49646   7.754   6.125   0.102  0.8870  0.1150 -0.2894
  368MOL0     H49647   7.734   6.003  -0.025  1.8113 -0.8547  0.3479
  368MOL0     H49648   7.521   5.922   0.088 -1.3934  0.7123 -1.4285
  368MOL0     H49649   7.542   6.053   0.205 -1.2341 -0.1160  0.0197
  368MOL0     H49650   7.383   6.102  -0.003 -1.3851  3.1362 -1.0314
  368MOL0     H49651   7.526   6.109  -0.094 -1.5297 -0.4965  0.8976
  368MOL0     H49652   7.472   6.286   0.152  1.9880  2.7130  0.6100
  368MOL0     H49653   7.612   6.294   0.033 -0.2751  1.5291  0.2942
  368MOL0     H49654   7.334   6.314  -0.070  0.8136 -1.2898  1.0907
  368MOL0     H49655   7.485   6.346  -0.151  0.4058 -0.8164  0.0390
  368MOL0     H49656   7.546   6.537  -0.007 -0.2568  2.7157 -2.8257
  368MOL0     H49657   7.403   6.554  -0.103 -0.4945  0.4255  1.1478
  368MOL0     H49658   7.423   6.515   0.189 -0.6859  0.0126  0.9479
  368MOL0     H49659   7.268   6.488   0.095 -0.2451  2.0412  0.4054
  368MOL0     H49660   7.278   6.722   0.006 -0.5879  0.7710  0.6015
  368MOL0     H49661   7.413   6.758   0.114  0.1446 -1.1804  0.1914
  368MOL0     H49662   7.989   6.102   0.142  0.0357 -0.8517 -1.5655
  368MOL0     H49663   8.226   6.035   0.134  4.4141 -4.2015  0.7202
  368MOL0     H49664   8.465   5.578   0.215  1.3216 -2.5519  2.8461
  368MOL0     H49665   8.688   5.456   0.237 -1.5360  0.3786  0.4277
  368MOL0     H49666  10.768   5.653   0.609 -0.4796 -1.7843  0.1857
  368MOL0     H49667  10.987   5.590   0.522  0.6664  0.2707 -0.8343
  368MOL0     H49668  11.335   5.839   0.063  0.6527  0.6966 -0.3623
  368MOL0     H49669  11.584   5.831   0.082  2.0505  0.6555  0.3873
  368MOL0     H49670  11.791   5.677   0.153 -0.0263 -0.4246  1.7644
  368MOL0     H49671  11.785   5.864   0.142 -0.1891 -1.1554 -1.0717
  368MOL0     H49672  11.958   5.668   0.293  1.1168 -1.3641 -2.1271
  368MOL0     H49673  11.965   5.854   0.297  1.9673  1.7236 -2.6799
  368MOL0     H49674  12.127   5.835   0.141  1.2472 -2.5095  1.4394
  368MOL0     H49675  11.979   5.837   0.043 -2.0430 -0.3141  1.2532
  368MOL0     H49676  11.992   5.568   0.028  1.0290 -0.8057 -1.7153
  368MOL0     H49677  12.117   5.585   0.152 -0.4419  2.5033  1.4881
  368MOL0     H49678  12.374   5.611  -0.156 -1.8472 -2.2451 -1.3178
  368MOL0     H49679  11.544   5.693   0.491  3.1862  2.5103  0.0450
  368MOL0     H49680  11.296   5.705   0.456 -0.6827  0.1618 -0.9485
  369MOL0     O49681   9.044   8.508   3.989  0.5229 -0.1061  0.5390
  369MOL0     C49682   9.095   8.424   4.062 -0.5821  0.1423 -0.1445
  369MOL0     O49683   9.033   8.323   4.122  0.0023  0.0204  0.0585
  369MOL0     C49684   8.904   8.307   4.083 -0.4179 -0.3529  0.4422
  369MOL0     C49685   8.869   8.247   3.959 -1.2854  0.1109 -0.3883
  369MOL0     C49686   8.738   8.245   3.923 -0.8079 -0.2212 -0.2778
  369MOL0     C49687   8.638   8.297   4.009  0.0115  0.3050  0.0883
  369MOL0     O49688   8.508   8.305   3.976 -0.3702  0.6260 -0.0827
  369MOL0     C49689   8.462   8.216   3.877  0.6471  0.5133 -0.2555
  369MOL0     C49690   8.312   8.216   3.882  0.9561 -0.4386  0.2276
  369MOL0     C49691   8.249   8.154   4.011 -0.0562 -0.4617 -0.1109
  369MOL0     C49692   8.102   8.187   4.025  0.9357 -0.8074  0.4440
  369MOL0     C49693   8.027   8.088   4.123 -0.0409 -0.0176 -0.0184
  369MOL0     C49694   8.072   8.132   4.266 -0.1210 -0.4777  0.2038
  369MOL0     C49695   7.957   8.092   4.365  0.0626  0.1344 -0.0094
  369MOL0     C49696   7.975   8.129   4.514 -1.5319  0.7778  0.4863
  369MOL0     N49697   7.857   8.096   4.594 -0.9839 -0.1387 -0.1201
  369MOL0     C49698   7.858   8.031   4.711  0.7668 -0.1941  0.3264
  369MOL0     C49699   7.729   8.018   4.743 -0.0505 -1.1830  0.3578
  369MOL0     C49700   7.685   7.966   4.873 -0.7299  0.2297 -0.6373
  369MOL0     C49701   7.531   7.931   4.866  0.4777 -0.5129  0.8122
  369MOL0     C49702   7.478   7.837   4.749 -0.2062 -0.2557 -0.6755
  369MOL0     C49703   7.340   7.802   4.796 -0.2183  0.7977 -0.0882
  369MOL0     O49704   7.261   7.915   4.777  0.1774 -0.3448  0.9925
  369MOL0     C49705   7.128   7.919   4.801 -1.0321  1.0388  0.2214
  369MOL0     C49706   7.055   7.809   4.848  1.1602  0.6964  0.4858
  369MOL0     C49707   6.914   7.830   4.878  0.3896  0.2051 -0.5564
  369MOL0     C49708   6.830   7.713   4.915 -0.6804 -0.0530  0.4270
  369MOL0     C49709   6.854   7.959   4.855 -0.8359  0.5122 -0.1673
  369MOL0     C49710   6.708   7.992   4.871  0.4993  0.7475  0.3712
  369MOL0     O49711   6.665   8.110   4.819 -0.5700  0.6341 -1.0254
  369MOL0     C49712   6.536   8.109   4.785  0.6561  0.0049  0.8496
  369MOL0     C49713   6.487   8.029   4.683  0.9626 -0.3148  0.0193
  369MOL0     C49714   6.350   8.028   4.662  0.6431  0.4568  0.4777
  369MOL0     C49715   6.259   8.104   4.736  0.1005  0.6331  0.2012
  369MOL0     O49716   6.126   8.101   4.703 -0.0108  0.0460 -0.1555
  369MOL0     C49717   6.035   8.184   4.779 -0.8302  0.1348 -0.1735
  369MOL0     C49718   5.905   8.194   4.704  0.6372  0.5508  0.7807
  369MOL0     C49719   5.810   8.286   4.781 -0.4502 -0.3557 -0.0615
  369MOL0     C49720   5.735   8.200   4.888  0.3055 -0.0892 -0.3705
  369MOL0     C49721   5.644   8.284   4.972  0.3875  0.1720  0.3572
  369MOL0     C49722   5.722   8.331   5.101 -0.4463  0.6070  0.3501
  369MOL0     C49723   5.668   8.454   5.164 -0.1861 -0.1044  0.4237
  369MOL0     C49724   5.524   8.444   5.212  0.1882 -0.2859  0.7706
  369MOL0    Cl49725   5.473   8.596   5.283  0.4430 -0.1602  0.0162
  369MOL0     C49726   6.308   8.181   4.845 -0.7150  0.2308 -0.8509
  369MOL0     C49727   6.448   8.186   4.865 -0.6111 -0.2065  0.5392
  369MOL0     O49728   6.631   7.910   4.933  0.1828  0.1990 -0.4943
  369MOL0     C49729   6.942   8.057   4.813  0.2198  0.9246 -0.0877
  369MOL0     C49730   7.071   8.037   4.771  0.0455 -0.3313 -0.2111
  369MOL0     N49731   7.656   8.082   4.648 -0.2678  0.2068  0.6513
  369MOL0     N49732   7.730   8.120   4.555 -0.3603 -0.1357 -0.1721
  369MOL0     C49733   8.678   8.349   4.134  0.0330 -0.7005 -0.2859
  369MOL0     C49734   8.813   8.353   4.171  0.2257  0.5207 -0.3320
  369MOL0     C49735   9.233   8.451   4.102 -0.2957  0.6632  0.2296
  369MOL0     C49736   9.325   8.508   4.014 -0.3472  0.0612  0.0143
  369MOL0     C49737   9.462   8.521   4.047  0.2733 -0.0474  0.0598
  369MOL0     C49738   9.512   8.483   4.174  1.0357 -0.0215  0.3647
  369MOL0     O49739   9.645   8.489   4.206 -0.2254 -0.4456 -0.0726
  369MOL0     C49740   9.745   8.559   4.127  0.2288  0.4546 -0.2731
  369MOL0     C49741   9.868   8.590   4.211  0.1145 -0.0756 -0.2909
  369MOL0     C49742   9.999   8.565   4.128  0.2510  0.2971 -1.7774
  369MOL0     C49743  10.129   8.598   4.195  0.5526 -0.3058 -0.3782
  369MOL0     C49744  10.244   8.564   4.110 -0.1114  0.3365  0.1559
  369MOL0     C49745  10.314   8.520   4.022 -0.1927 -0.8818  0.5945
  369MOL0     C49746   9.418   8.419   4.264 -0.3716  0.1769 -0.7847
  369MOL0     C49747   9.286   8.402   4.219  0.7281  0.1117 -0.7140
  369MOL0     H49748   8.943   8.203   3.893  0.3155  0.7927  0.8694
  369MOL0     H49749   8.720   8.199   3.826  1.3444  0.1049 -0.8829
  369MOL0     H49750   8.486   8.235   3.772 -1.7436  3.1229 -0.4373
  369MOL0     H49751   8.501   8.116   3.902  0.7031  0.0024 -2.2018
  369MOL0     H49752   8.270   8.315   3.861 -0.5636 -0.8018  1.3468
  369MOL0     H49753   8.269   8.153   3.804 -2.1169  0.4409  1.0600
  369MOL0     H49754   8.250   8.045   3.998 -1.9913 -0.5296  0.1322
  369MOL0     H49755   8.297   8.178   4.106 -3.5629 -2.6260  2.4613
  369MOL0     H49756   8.090   8.292   4.053  1.0445 -0.3667 -1.0438
  369MOL0     H49757   8.060   8.185   3.923  2.0359  0.5937 -0.0585
  369MOL0     H49758   7.920   8.105   4.112 -0.1419  0.0648  1.0030
  369MOL0     H49759   8.054   7.984   4.099 -0.4993 -0.2439  0.4253
  369MOL0     H49760   8.167   8.083   4.290 -0.7120 -1.0206  1.5424
  369MOL0     H49761   8.081   8.241   4.261  0.9639 -0.6107 -2.2938
  369MOL0     H49762   7.873   8.156   4.336  0.1059  0.3739  0.3800
  369MOL0     H49763   7.941   7.986   4.343  3.5262 -0.6714  0.7145
  369MOL0     H49764   8.009   8.231   4.535  0.9310  0.1096  0.1596
  369MOL0     H49765   8.067   8.075   4.541 -0.1490  3.0546  0.6497
  369MOL0     H49766   7.936   7.994   4.778  0.2816 -1.6611  0.1303
  369MOL0     H49767   7.742   7.873   4.882  0.0960  0.7098 -0.8574
  369MOL0     H49768   7.712   8.026   4.960 -0.1022  0.0724 -0.7175
  369MOL0     H49769   7.474   8.025   4.863  0.1404 -0.7413 -1.2315
  369MOL0     H49770   7.517   7.874   4.958  0.3054  1.2413  1.9081
  369MOL0     H49771   7.554   7.759   4.743  1.0724  0.8815  0.1340
  369MOL0     H49772   7.469   7.892   4.654 -1.4776  0.9856  0.1245
  369MOL0     H49773   7.342   7.773   4.901  0.3241  0.1727 -0.2622
  369MOL0     H49774   7.306   7.717   4.736  1.5246 -1.1492  1.5506
  369MOL0     H49775   7.095   7.708   4.852 -1.7128 -0.4951  2.4959
  369MOL0     H49776   6.797   7.722   5.019 -0.6141 -0.8731  0.5310
  369MOL0     H49777   6.737   7.712   4.857  1.2184  0.7789 -2.8700
  369MOL0     H49778   6.889   7.621   4.911 -0.2711  0.1379  1.5648
  369MOL0     H49779   6.557   7.969   4.625 -0.1756 -1.7837  0.1093
  369MOL0     H49780   6.303   7.976   4.579  0.7844 -0.2293  0.8187
  369MOL0     H49781   6.016   8.152   4.882 -0.5461  0.7945  0.0847
  369MOL0     H49782   6.068   8.288   4.773 -3.1978  1.0912  1.6861
  369MOL0     H49783   5.926   8.231   4.603 -0.4323 -0.9003 -0.0196
  369MOL0     H49784   5.860   8.094   4.704  0.7849  0.4798  0.2072
  369MOL0     H49785   5.736   8.327   4.712 -0.3394  1.1387  0.6718
  369MOL0     H49786   5.866   8.368   4.827 -0.0461  0.1958 -1.4660
  369MOL0     H49787   5.677   8.121   4.839  1.6585  0.6507 -3.4193
  369MOL0     H49788   5.799   8.150   4.962  1.3530  3.4968  1.3523
  369MOL0     H49789   5.555   8.231   5.005 -0.3326  1.9347  1.4168
  369MOL0     H49790   5.604   8.375   4.925  2.5322  0.7111 -0.5630
  369MOL0     H49791   5.729   8.255   5.179 -1.7207  0.7335  0.6159
  369MOL0     H49792   5.822   8.357   5.065 -0.2908  0.4186  0.6436
  369MOL0     H49793   5.670   8.531   5.086 -1.2378 -2.4532 -2.1126
  369MOL0     H49794   5.740   8.482   5.241 -0.9241 -0.3190  1.2102
  369MOL0     H49795   5.505   8.373   5.293 -0.4160 -3.0487 -1.6325
  369MOL0     H49796   5.458   8.420   5.128 -1.8361  0.9166  1.9285
  369MOL0     H49797   6.241   8.239   4.908 -1.6262 -3.2615  1.6714
  369MOL0     H49798   6.481   8.256   4.941 -1.6458  0.4956  0.3562
  369MOL0     H49799   6.905   8.157   4.793 -0.0141  0.4443 -2.3765
  369MOL0     H49800   7.121   8.124   4.730 -0.8949  0.8156  1.0076
  369MOL0     H49801   8.596   8.375   4.200 -1.0258 -2.6940 -0.7211
  369MOL0     H49802   8.845   8.395   4.265 -2.6383  2.2547 -0.0119
  369MOL0     H49803   9.308   8.536   3.910  1.8517  1.1523 -0.0985
  369MOL0     H49804   9.535   8.570   3.983  0.5300 -0.7401 -0.1936
  369MOL0     H49805   9.771   8.482   4.054 -0.0311 -1.0265  1.1418
  369MOL0     H49806   9.704   8.652   4.086 -2.1161  0.0760  1.0612
  369MOL0     H49807   9.866   8.520   4.295 -0.0877 -1.2066 -1.2111
  369MOL0     H49808   9.872   8.696   4.237  0.6327 -0.2190  0.2438
  369MOL0     H49809   9.977   8.619   4.035 -3.4933  3.1257  0.4709
  369MOL0     H49810   9.994   8.460   4.100 -4.2198 -0.3628  0.6575
  369MOL0     H49811  10.126   8.531   4.281 -0.7783  2.6504  2.0334
  369MOL0     H49812  10.121   8.702   4.228  0.4470 -0.7889  1.1678
  369MOL0     H49813  10.381   8.473   3.952 -1.3958  1.0942 -2.0825
  369MOL0     H49814   9.447   8.386   4.363 -1.8236  1.0662 -0.0265
  369MOL0     H49815   9.219   8.373   4.299  1.7605  1.1255  0.5666
  370MOL0     O49816   4.845   3.603   8.321  0.2175  1.1102  0.1600
  370MOL0     C49817   4.850   3.524   8.413 -0.6486  0.4557  0.4526
  370MOL0     O49818   4.746   3.458   8.470 -0.3239  0.1950 -0.8185
  370MOL0     C49819   4.617   3.449   8.428 -0.5089 -0.9835  0.4662
  370MOL0     C49820   4.562   3.519   8.317 -0.1207  0.3112 -0.3829
  370MOL0     C49821   4.420   3.495   8.291 -0.4415  0.9018 -0.7335
  370MOL0     C49822   4.338   3.417   8.379  0.3243 -0.1332 -0.3565
  370MOL0     O49823   4.202   3.423   8.365 -0.2906  0.8696 -0.0682
  370MOL0     C49824   4.121   3.369   8.467  0.2447 -0.4335  0.7749
  370MOL0     C49825   3.977   3.385   8.413 -0.4525 -0.1764  0.1745
  370MOL0     C49826   3.877   3.333   8.518 -0.8056 -0.3955  0.5983
  370MOL0     C49827   3.744   3.379   8.461 -0.1963  0.2472  0.0526
  370MOL0     C49828   3.625   3.304   8.529  0.1699  0.2518  0.3639
  370MOL0     C49829   3.493   3.357   8.469 -0.0222 -0.2016 -0.3225
  370MOL0     C49830   3.383   3.311   8.555 -0.4066  0.2582 -0.1157
  370MOL0     C49831   3.255   3.333   8.488  0.1291  0.0674  0.1941
  370MOL0     N49832   3.147   3.252   8.545  0.3029 -1.1626  0.0889
  370MOL0     C49833   3.090   3.145   8.483  0.2050 -0.1298 -0.6877
  370MOL0     C49834   2.988   3.106   8.565 -0.2167  0.7119 -0.4967
  370MOL0     C49835   2.892   2.990   8.529 -0.5481 -0.4178 -0.3521
  370MOL0     C49836   2.743   3.030   8.537 -0.0523 -0.0212  0.5237
  370MOL0     C49837   2.678   2.987   8.671  0.3810 -0.2019 -0.4367
  370MOL0     C49838   2.542   3.049   8.661 -0.3724 -1.6420  0.2629
  370MOL0     O49839   2.476   2.997   8.782 -0.1825 -0.9080 -0.0478
  370MOL0     C49840   2.378   3.065   8.843  0.4339  0.5520 -0.1326
  370MOL0     C49841   2.328   2.999   8.959  0.7599 -0.4377  0.3215
  370MOL0     C49842   2.216   3.047   9.021  0.2941  0.3719 -0.5809
  370MOL0     C49843   2.165   2.950   9.127 -0.1487 -0.7065  0.0245
  370MOL0     C49844   2.167   3.175   8.996  0.3185 -0.6304  0.4481
  370MOL0     C49845   2.053   3.229   9.067  0.6413 -0.1689  0.5828
  370MOL0     O49846   2.033   3.195   9.197  0.5236  0.1693  0.3317
  370MOL0     C49847   1.932   3.263   9.267 -0.5250  0.6131  0.0959
  370MOL0     C49848   1.818   3.192   9.282  1.1821  0.0845  0.1606
  370MOL0     C49849   1.720   3.237   9.368  0.6381 -0.2796  0.2951
  370MOL0     C49850   1.738   3.354   9.446  0.1466 -0.1910  0.5369
  370MOL0     O49851   1.640   3.389   9.541 -0.3737 -0.1872  0.0136
  370MOL0     C49852   1.684   3.466   9.653 -0.3694 -0.1266  0.1639
  370MOL0     C49853   1.573   3.473   9.767  0.1650  0.2606 -0.1167
  370MOL0     C49854   1.439   3.499   9.700  0.0986 -0.3688 -0.2396
  370MOL0     C49855   1.329   3.521   9.802  0.3848 -0.5205  0.2204
  370MOL0     C49856   1.196   3.561   9.740 -0.3892  0.7497 -0.1619
  370MOL0     C49857   1.200   3.700   9.670 -0.3068  0.1553  0.3938
  370MOL0     C49858   1.076   3.720   9.582  0.0117 -0.0665 -0.1057
  370MOL0     C49859   0.959   3.777   9.670 -0.7942  0.2062 -0.2030
  370MOL0    Cl49860   0.821   3.773   9.571 -0.3192  0.2791  0.1251
  370MOL0     C49861   1.857   3.433   9.426  0.4675 -0.5306  0.1363
  370MOL0     C49862   1.954   3.382   9.340  0.3460 -0.0888  0.7190
  370MOL0     O49863   1.985   3.311   9.007 -0.2594  0.3718  0.2026
  370MOL0     C49864   2.220   3.241   8.880 -0.6388  0.0075 -0.1260
  370MOL0     C49865   2.319   3.183   8.802 -0.1019 -0.6273  0.6036
  370MOL0     N49866   2.986   3.184   8.681 -0.1635  0.4820 -0.5089
  370MOL0     N49867   3.083   3.275   8.660 -0.1303 -0.6293  0.1758
  370MOL0     C49868   4.403   3.348   8.480  0.8772 -0.0804  0.2543
  370MOL0     C49869   4.542   3.357   8.508 -0.7328  0.0863 -0.1903
  370MOL0     C49870   4.985   3.499   8.472  0.4728  0.2033 -0.0670
  370MOL0     C49871   4.990   3.416   8.584 -0.1887  0.5204 -0.1641
  370MOL0     C49872   5.117   3.378   8.624 -0.6117  0.8503 -0.0527
  370MOL0     C49873   5.242   3.433   8.569  0.8274 -0.4033  0.3798
  370MOL0     O49874   5.359   3.401   8.634 -0.0080  0.0969  0.2470
  370MOL0     C49875   5.470   3.490   8.615  0.0307 -0.3422  0.8321
  370MOL0     C49876   5.598   3.449   8.681 -0.1746 -0.3389 -0.3221
  370MOL0     C49877   5.579   3.425   8.830 -0.7318 -0.3996 -0.2181
  370MOL0     C49878   5.717   3.383   8.892 -0.1089  0.4241  0.9182
  370MOL0     C49879   5.794   3.494   8.917 -0.0743 -0.0216 -0.1075
  370MOL0     C49880   5.871   3.587   8.949 -0.5078  0.8811 -0.5945
  370MOL0     C49881   5.230   3.528   8.465  0.1601  0.0054 -0.9425
  370MOL0     C49882   5.103   3.553   8.416  0.6940 -0.3999 -0.0976
  370MOL0     H49883   4.614   3.583   8.247 -0.3087 -0.4695 -1.2538
  370MOL0     H49884   4.369   3.543   8.208 -2.1028 -2.8169 -2.1229
  370MOL0     H49885   4.149   3.266   8.492  0.3826 -0.2361  1.4362
  370MOL0     H49886   4.142   3.435   8.551 -0.5985  2.3177 -1.0288
  370MOL0     H49887   3.946   3.488   8.395 -0.1821 -0.0458  0.4570
  370MOL0     H49888   3.967   3.330   8.319 -0.2909 -0.4204  0.2992
  370MOL0     H49889   3.890   3.225   8.527  1.9010 -0.3188 -1.1432
  370MOL0     H49890   3.891   3.380   8.615 -2.6776 -1.2012  1.3132
  370MOL0     H49891   3.737   3.487   8.480  1.7692  0.1462  1.7145
  370MOL0     H49892   3.733   3.350   8.357 -1.4377  2.2601 -0.4295
  370MOL0     H49893   3.633   3.195   8.524  0.3371  0.2472  0.7063
  370MOL0     H49894   3.636   3.322   8.636  2.1335  0.1669  0.2151
  370MOL0     H49895   3.493   3.466   8.471 -0.6145 -0.1599  2.8069
  370MOL0     H49896   3.485   3.322   8.366 -0.5561 -1.3765  0.0983
  370MOL0     H49897   3.398   3.204   8.572 -3.6849 -0.2831  0.1904
  370MOL0     H49898   3.388   3.365   8.650 -1.9231  0.2700 -0.0171
  370MOL0     H49899   3.264   3.319   8.380  2.3470  1.2203  0.1926
  370MOL0     H49900   3.227   3.438   8.500 -0.3937 -0.1823  1.2851
  370MOL0     H49901   3.091   3.107   8.381 -0.3978  0.6714 -1.0045
  370MOL0     H49902   2.924   2.962   8.428  3.4721 -1.2981  0.9844
  370MOL0     H49903   2.909   2.907   8.599 -0.8522 -0.5759 -0.4615
  370MOL0     H49904   2.686   2.978   8.458 -1.2467 -0.5021  1.6534
  370MOL0     H49905   2.732   3.135   8.508 -1.0569 -0.6844 -1.7918
  370MOL0     H49906   2.738   3.024   8.755  0.9068 -0.8505 -0.5207
  370MOL0     H49907   2.668   2.879   8.680  1.2222 -0.5150 -2.7250
  370MOL0     H49908   2.502   3.001   8.572 -0.1840 -0.9738 -0.1886
  370MOL0     H49909   2.546   3.158   8.657  2.8087 -1.6280  1.0153
  370MOL0     H49910   2.365   2.897   8.969 -1.0608 -0.9882  2.0069
  370MOL0     H49911   2.198   2.850   9.097 -0.0793 -0.6691 -0.0230
  370MOL0     H49912   2.205   2.976   9.226 -0.1208  2.8949 -0.7879
  370MOL0     H49913   2.056   2.947   9.132 -0.2437  0.2365 -1.0810
  370MOL0     H49914   1.801   3.106   9.217  0.6176  0.4749 -0.2239
  370MOL0     H49915   1.624   3.186   9.368  0.8974 -0.7979  1.3613
  370MOL0     H49916   1.769   3.425   9.707 -0.8291 -1.1557  0.1252
  370MOL0     H49917   1.721   3.560   9.612  2.0602 -1.8256 -1.8314
  370MOL0     H49918   1.570   3.376   9.819  1.1379  0.4745  0.3648
  370MOL0     H49919   1.604   3.552   9.836  0.6654  1.6944 -1.9381
  370MOL0     H49920   1.416   3.420   9.629 -2.0929 -0.8099  0.8585
  370MOL0     H49921   1.447   3.593   9.646 -1.5738  0.4157  0.7782
  370MOL0     H49922   1.314   3.428   9.858 -2.5539  0.1498  0.7285
  370MOL0     H49923   1.351   3.606   9.868 -1.4263  0.4987 -0.4008
  370MOL0     H49924   1.129   3.557   9.826  0.7959 -0.7574  0.7412
  370MOL0     H49925   1.163   3.474   9.681  2.4958 -0.3695 -0.2706
  370MOL0     H49926   1.216   3.788   9.734  2.9913  1.0964 -1.4945
  370MOL0     H49927   1.286   3.707   9.603 -0.0183 -0.7459  0.6627
  370MOL0     H49928   1.052   3.622   9.539  1.0771 -0.6904  0.6555
  370MOL0     H49929   1.098   3.802   9.514  1.0923  1.9873  2.5574
  370MOL0     H49930   0.979   3.881   9.697  0.0110  0.2648 -0.9622
  370MOL0     H49931   0.944   3.718   9.761 -1.6273 -2.0881 -1.7314
  370MOL0     H49932   1.872   3.528   9.476 -3.2076 -0.1091  0.7597
  370MOL0     H49933   2.054   3.423   9.337 -0.2319  1.3739 -2.7717
  370MOL0     H49934   2.179   3.332   8.836 -3.3156 -2.3935 -3.0419
  370MOL0     H49935   2.357   3.239   8.717  2.2627 -2.3639  0.4017
  370MOL0     H49936   4.341   3.285   8.543 -2.6562  2.3912 -0.4377
  370MOL0     H49937   4.583   3.293   8.585 -1.9516  0.8481  1.1261
  370MOL0     H49938   4.906   3.363   8.628 -1.5032  1.7384 -1.1228
  370MOL0     H49939   5.127   3.305   8.703  2.2453  2.4590  1.2459
  370MOL0     H49940   5.481   3.512   8.508  2.3549 -0.9615  0.8839
  370MOL0     H49941   5.441   3.585   8.661  1.9021  0.9668 -0.5085
  370MOL0     H49942   5.676   3.526   8.673 -1.3614  0.9556  0.0631
  370MOL0     H49943   5.635   3.362   8.626  3.0149  1.1072 -0.7060
  370MOL0     H49944   5.509   3.342   8.838  0.0147 -0.9750  0.5222
  370MOL0     H49945   5.531   3.512   8.876 -1.8415 -1.0377 -0.1556
  370MOL0     H49946   5.775   3.312   8.833  2.8873  1.7583  2.0488
  370MOL0     H49947   5.695   3.336   8.988  0.4919 -0.7360  0.5100
  370MOL0     H49948   5.931   3.667   8.984  0.7113 -0.2314 -0.0709
  370MOL0     H49949   5.311   3.588   8.424  1.5687 -0.1240  1.4170
  370MOL0     H49950   5.085   3.628   8.340 -0.1628 -0.0600  0.4274
  371MOL0     O49951   5.831  10.174  10.732 -0.3955  0.3546  0.3882
  371MOL0     C49952   5.783  10.128  10.623 -0.3192  1.1161  0.9039
  371MOL0     O49953   5.648  10.113  10.586 -0.7889  0.5850  0.1556
  371MOL0     C49954   5.559  10.161  10.678  0.4266 -0.0087 -0.5651
  371MOL0     C49955   5.509  10.071  10.777 -0.0474  0.3719 -0.5444
  371MOL0     C49956   5.409  10.110  10.877 -1.1037  0.0343  0.4226
  371MOL0     C49957   5.359  10.237  10.866 -0.1622 -0.5428 -0.4554
  371MOL0     O49958   5.262  10.291  10.942  0.4168 -0.1288 -0.4346
  371MOL0     C49959   5.176  10.193  11.014  0.8470 -0.0385  0.6147
  371MOL0     C49960   5.031  10.248  11.027 -0.3012  0.4363  0.5615
  371MOL0     C49961   4.964  10.234  10.882  0.3488  0.2198  0.3398
  371MOL0     C49962   4.822  10.301  10.877  0.4367 -0.1882 -0.3383
  371MOL0     C49963   4.758  10.273  10.739 -0.1747  0.1977  0.1890
  371MOL0     C49964   4.625  10.345  10.739  0.5352  0.5041 -0.2183
  371MOL0     C49965   4.544  10.323  10.611  0.0054 -0.4004  0.0732
  371MOL0     C49966   4.405  10.389  10.627 -0.1462 -0.3736 -0.5496
  371MOL0     N49967   4.324  10.388  10.509 -0.4021 -0.0342 -0.4269
  371MOL0     C49968   4.256  10.275  10.465  0.6610  0.3585  0.3583
  371MOL0     C49969   4.196  10.324  10.356  1.0943 -0.0931 -0.3925
  371MOL0     C49970   4.099  10.260  10.258 -0.4413  0.8758 -0.1883
  371MOL0     C49971   3.989  10.350  10.192  0.3359 -0.7648  0.1769
  371MOL0     C49972   3.893  10.407  10.295  0.3095 -0.3377 -0.3976
  371MOL0     C49973   3.775  10.493  10.238 -0.2162  1.0054 -0.2907
  371MOL0     O49974   3.714  10.426  10.118  0.1006  1.1936  0.2937
  371MOL0     C49975   3.604  10.474  10.062  0.2072 -0.1093 -0.1208
  371MOL0     C49976   3.543  10.410   9.949 -0.1298 -0.2084  0.0162
  371MOL0     C49977   3.431  10.460   9.888 -0.2378 -0.1462  0.3689
  371MOL0     C49978   3.374  10.393   9.767 -0.3765 -0.1559  0.0522
  371MOL0     C49979   3.372  10.580   9.936 -0.2504  0.0281 -0.1995
  371MOL0     C49980   3.250  10.648   9.876 -0.1565  0.1518 -1.1190
  371MOL0     O49981   3.191  10.589   9.769 -0.4063  0.3878 -0.1002
  371MOL0     C49982   3.078  10.632   9.701  0.1511 -0.5690  0.7350
  371MOL0     C49983   3.029  10.762   9.701  0.1360 -0.2959 -0.1470
  371MOL0     C49984   2.899  10.790   9.649  0.7531 -0.5922 -0.1682
  371MOL0     C49985   2.822  10.700   9.571 -0.6430  0.9058 -0.4787
  371MOL0     O49986   2.703  10.723   9.521  0.7312  0.4416  0.5964
  371MOL0     C49987   2.627  10.837   9.547  0.2304  0.5319 -0.2218
  371MOL0     C49988   2.492  10.816   9.463 -0.2059 -0.9626 -0.4862
  371MOL0     C49989   2.406  10.712   9.528  0.2010  0.4720 -0.0584
  371MOL0     C49990   2.270  10.704   9.455 -1.0917 -0.0428  0.1436
  371MOL0     C49991   2.190  10.589   9.502 -0.2987 -0.2332  0.0455
  371MOL0     C49992   2.060  10.569   9.426  0.1987 -0.2190 -0.4575
  371MOL0     C49993   1.994  10.448   9.491  0.5904  0.4584 -0.5461
  371MOL0     C49994   1.843  10.472   9.509  0.4233 -0.0621  0.3785
  371MOL0    Cl49995   1.778  10.561   9.370  0.1017  0.0688 -0.0628
  371MOL0     C49996   2.880  10.571   9.572  0.0287 -0.0242 -0.3528
  371MOL0     C49997   3.005  10.539   9.632 -0.6774  0.3653 -0.2668
  371MOL0     O49998   3.200  10.742   9.939 -0.1694 -0.2896 -0.6081
  371MOL0     C49999   3.436  10.640  10.046 -0.2007  0.1155  0.0203
  371MOL0     C50000   3.555  10.597  10.099 -0.2194  0.0332  0.9437
  371MOL0     N50001   4.229  10.458  10.335  0.5475  0.2607  0.1351
  371MOL0     N50002   4.310  10.498  10.425 -0.5961  0.1357  0.9194
  371MOL0     C50003   5.404  10.321  10.759  0.3302  0.9142  0.2690
  371MOL0     C50004   5.507  10.286  10.665  0.5847  0.1797 -0.5868
  371MOL0     C50005   5.888  10.069  10.532  0.0122 -0.0326  0.3890
  371MOL0     C50006   6.017  10.043  10.571 -0.4112  0.7098 -0.4677
  371MOL0     C50007   6.114   9.986  10.483 -0.6030 -0.9685  0.0728
  371MOL0     C50008   6.072   9.953  10.352 -0.6186 -0.2086  0.7354
  371MOL0     O50009   6.153   9.890  10.257 -0.0912 -0.4066 -0.3368
  371MOL0     C50010   6.292   9.917  10.251 -0.4390 -0.4104 -0.2249
  371MOL0     C50011   6.365   9.781  10.269  0.3789 -0.3949  0.2643
  371MOL0     C50012   6.503   9.814  10.324  0.1073  0.2265  0.4736
  371MOL0     C50013   6.589   9.686  10.363  0.2044 -0.3616 -0.1499
  371MOL0     C50014   6.593   9.590  10.257  0.5178 -0.2654  0.8610
  371MOL0     C50015   6.601   9.524  10.161 -0.0824 -0.2272 -0.8515
  371MOL0     C50016   5.937   9.967  10.324  0.4087 -0.0767 -0.2556
  371MOL0     C50017   5.847  10.027  10.406 -0.0459  0.4441 -0.8261
  371MOL0     H50018   5.532   9.965  10.781 -1.2088  0.1154 -0.0330
  371MOL0     H50019   5.388  10.041  10.958  1.6207  2.6864  3.6445
  371MOL0     H50020   5.158  10.104  10.954  1.1603  1.6747 -2.2394
  371MOL0     H50021   5.226  10.172  11.109 -0.5371 -0.8860  1.1736
  371MOL0     H50022   4.974  10.182  11.093 -2.3967 -1.1977 -2.6541
  371MOL0     H50023   5.024  10.350  11.065 -0.7146  0.1789  1.1947
  371MOL0     H50024   5.020  10.279  10.800  0.4940 -1.9518 -0.8262
  371MOL0     H50025   4.961  10.126  10.865  2.2187  0.0415  0.9302
  371MOL0     H50026   4.759  10.246  10.947  0.8181 -0.9535 -0.5862
  371MOL0     H50027   4.835  10.407  10.901  0.0562 -0.0331 -0.8109
  371MOL0     H50028   4.827  10.319  10.668  1.3580  2.8797  3.1589
  371MOL0     H50029   4.733  10.169  10.714  0.9749 -0.0132 -0.1531
  371MOL0     H50030   4.572  10.297  10.822 -0.7075 -0.1829 -1.3698
  371MOL0     H50031   4.644  10.450  10.764 -0.8091  0.4772  1.0348
  371MOL0     H50032   4.589  10.376  10.526 -0.6829 -0.8538 -0.5915
  371MOL0     H50033   4.527  10.217  10.591  2.6763 -0.6382 -1.3860
  371MOL0     H50034   4.426  10.491  10.659 -0.2702 -0.0338 -1.5266
  371MOL0     H50035   4.353  10.340  10.709 -2.0366 -0.0890 -1.5293
  371MOL0     H50036   4.243  10.172  10.495 -2.8240  0.2496 -1.0665
  371MOL0     H50037   4.150  10.197  10.184  0.1080 -1.1484  1.7784
  371MOL0     H50038   4.043  10.189  10.320  4.0603 -0.9452  2.2651
  371MOL0     H50039   3.938  10.292  10.114 -3.0278  1.5374  0.4072
  371MOL0     H50040   4.040  10.428  10.135  0.1294 -2.2277 -2.1675
  371MOL0     H50041   3.950  10.470  10.364 -1.7990  2.3425 -0.9246
  371MOL0     H50042   3.847  10.319  10.340  0.2663 -0.4850 -0.7297
  371MOL0     H50043   3.824  10.584  10.204  0.3062  1.8182  2.3586
  371MOL0     H50044   3.706  10.512  10.321  0.2462  0.1333  0.3141
  371MOL0     H50045   3.597  10.323   9.912  0.3498 -0.1998  0.6666
  371MOL0     H50046   3.435  10.309   9.732  0.4059 -0.2501  1.5574
  371MOL0     H50047   3.275  10.351   9.786 -0.2325 -1.3417 -1.5709
  371MOL0     H50048   3.387  10.453   9.676  1.1114 -0.7869 -0.1763
  371MOL0     H50049   3.081  10.843   9.751 -0.1637 -1.4015  2.0832
  371MOL0     H50050   2.868  10.894   9.658  1.0774 -0.6910  3.2179
  371MOL0     H50051   2.591  10.834   9.650 -4.0253 -0.5146 -1.5183
  371MOL0     H50052   2.676  10.928   9.512 -0.0001  0.2382 -1.3740
  371MOL0     H50053   2.441  10.913   9.472  2.1533  0.2376  1.2163
  371MOL0     H50054   2.528  10.801   9.361  1.0973  1.6543 -0.5001
  371MOL0     H50055   2.386  10.740   9.631  1.0038 -0.3190  0.3331
  371MOL0     H50056   2.460  10.617   9.522 -0.2912  0.1680  0.2498
  371MOL0     H50057   2.225  10.803   9.468 -0.8356  0.3643 -1.7254
  371MOL0     H50058   2.285  10.690   9.347 -1.0753 -0.0335  0.1452
  371MOL0     H50059   2.155  10.604   9.605 -0.6417 -0.3663 -0.0515
  371MOL0     H50060   2.251  10.499   9.494  0.1162  0.0311  0.2008
  371MOL0     H50061   2.005  10.664   9.422  0.1512 -0.2351 -4.2831
  371MOL0     H50062   2.080  10.538   9.323  1.0107  1.4971 -0.8495
  371MOL0     H50063   2.047  10.426   9.584  1.7503  1.7283 -0.8693
  371MOL0     H50064   2.012  10.362   9.426 -1.7423 -1.4482  1.1753
  371MOL0     H50065   1.838  10.546   9.590  0.0735  0.9207 -0.5116
  371MOL0     H50066   1.785  10.385   9.539  0.6893 -1.4085 -2.6513
  371MOL0     H50067   2.819  10.493   9.526 -1.8117  0.2864  1.4041
  371MOL0     H50068   3.046  10.438   9.632  2.2092  1.4401  1.5625
  371MOL0     H50069   3.399  10.733  10.088  0.6720  0.8815 -0.8642
  371MOL0     H50070   3.597  10.666  10.172 -2.2267  3.6275 -0.9700
  371MOL0     H50071   5.363  10.419  10.741 -0.0762  0.4961 -1.1661
  371MOL0     H50072   5.533  10.346  10.579  1.2327  0.4500 -0.2112
  371MOL0     H50073   6.058  10.086  10.662  1.2462  1.8018 -1.6661
  371MOL0     H50074   6.221   9.971  10.493 -0.1975 -0.1145 -2.4055
  371MOL0     H50075   6.324   9.958  10.155  1.9940  1.1637  1.1475
  371MOL0     H50076   6.320   9.993  10.324  0.8238 -0.2216 -0.8831
  371MOL0     H50077   6.363   9.716  10.181 -1.4304  0.8205 -0.6523
  371MOL0     H50078   6.312   9.722  10.344  0.0473  0.3987  0.6619
  371MOL0     H50079   6.488   9.877  10.412  1.3106 -1.1330  1.7179
  371MOL0     H50080   6.554   9.873  10.247  0.9119 -1.4068 -0.3164
  371MOL0     H50081   6.550   9.628  10.447 -2.2628 -1.0587 -1.6667
  371MOL0     H50082   6.693   9.713  10.383 -0.3004  1.3258  0.3123
  371MOL0     H50083   6.610   9.474  10.066  0.6619  0.7295 -1.3052
  371MOL0     H50084   5.903   9.925  10.230 -0.6023 -0.1903  0.1431
  371MOL0     H50085   5.744  10.017  10.374  0.1629 -0.0282 -1.3708
  372MOL0     O50086   4.689   7.928   0.268  0.3694  0.2313 -0.3532
  372MOL0     C50087   4.716   8.025   0.201 -0.5568 -1.2305 -0.5612
  372MOL0     O50088   4.839   8.059   0.174 -0.5105  0.5372  0.6054
  372MOL0     C50089   4.958   7.981   0.178  0.1629 -0.0942 -0.3945
  372MOL0     C50090   5.083   8.046   0.202  0.2241  1.0340  0.7134
  372MOL0     C50091   5.203   7.985   0.204 -0.2210  0.1792  1.1981
  372MOL0     C50092   5.209   7.849   0.182 -0.3869  0.5334  1.0778
  372MOL0     O50093   5.334   7.796   0.165  0.3998 -0.3996 -0.7220
  372MOL0     C50094   5.358   7.659   0.184  0.5051 -0.4540  0.2651
  372MOL0     C50095   5.506   7.626   0.147 -0.3605 -0.6028 -0.0076
  372MOL0     C50096   5.605   7.711   0.235 -0.4983  0.0324 -0.1484
  372MOL0     C50097   5.740   7.642   0.233  0.5214  0.5624  0.5041
  372MOL0     C50098   5.813   7.676   0.361 -0.8479  1.1923 -0.5289
  372MOL0     C50099   5.961   7.628   0.373  0.0897 -0.4448 -0.1249
  372MOL0     C50100   5.982   7.480   0.398  0.4202 -0.1561 -0.2993
  372MOL0     C50101   6.130   7.444   0.440  0.3058 -1.0814  0.5746
  372MOL0     N50102   6.223   7.491   0.331  0.0057  0.0832  0.4499
  372MOL0     C50103   6.265   7.622   0.313 -0.0290 -0.2322 -1.0300
  372MOL0     C50104   6.359   7.626   0.218  0.4116  0.2033  0.0033
  372MOL0     C50105   6.437   7.747   0.169  0.1212  0.4127 -0.3987
  372MOL0     C50106   6.354   7.880   0.159 -0.3561  0.6350 -0.5581
  372MOL0     C50107   6.223   7.894   0.076 -0.1529  0.2195  0.3036
  372MOL0     C50108   6.241   7.844  -0.065  0.5224  0.8431 -0.3273
  372MOL0     O50109   6.164   7.927  -0.154 -0.1151  0.4320 -0.8731
  372MOL0     C50110   6.027   7.904  -0.168 -0.4055  0.0090  0.6602
  372MOL0     C50111   5.970   7.978  -0.275 -0.5197  0.2086  0.7676
  372MOL0     C50112   5.837   7.956  -0.307  0.5605  0.3392 -1.0885
  372MOL0     C50113   5.781   8.017  -0.425  0.1322 -1.1756 -0.5917
  372MOL0     C50114   5.755   7.876  -0.226 -1.1340 -0.4976 -0.7638
  372MOL0     C50115   5.610   7.865  -0.252  0.6296 -0.2200 -0.1246
  372MOL0     O50116   5.536   7.921  -0.151  0.1557  0.8171 -0.8676
  372MOL0     C50117   5.399   7.926  -0.177 -0.2783  0.0868  0.0263
  372MOL0     C50118   5.340   8.048  -0.217  0.0084  0.0870 -0.3908
  372MOL0     C50119   5.198   8.049  -0.224 -0.0276  0.3263  0.6076
  372MOL0     C50120   5.118   7.933  -0.205  1.8207  0.2400 -0.9518
  372MOL0     O50121   4.980   7.915  -0.234  0.4661  0.6737  0.1146
  372MOL0     C50122   4.911   8.023  -0.296 -0.1938 -0.2861  0.2713
  372MOL0     C50123   4.791   7.981  -0.374 -0.5516 -0.2971  0.0411
  372MOL0     C50124   4.704   7.884  -0.296 -0.2589 -0.6008  0.1246
  372MOL0     C50125   4.593   7.955  -0.212 -0.0171  0.4445  0.3159
  372MOL0     C50126   4.501   7.853  -0.143  0.6919  0.4720  0.0409
  372MOL0     C50127   4.356   7.902  -0.193 -0.7382  0.4467 -0.1509
  372MOL0     C50128   4.249   7.806  -0.134  0.4433  0.3317 -0.5642
  372MOL0     C50129   4.240   7.807   0.019  0.2198  0.9331  0.2923
  372MOL0    Cl50130   4.079   7.741   0.049  0.3026  0.0159 -0.1514
  372MOL0     C50131   5.183   7.821  -0.154 -0.7563  1.0779  0.1560
  372MOL0     C50132   5.325   7.820  -0.129  0.3888  0.1995  0.1095
  372MOL0     O50133   5.559   7.836  -0.364 -0.2467 -0.5524 -0.4545
  372MOL0     C50134   5.807   7.810  -0.115  0.3045 -0.1244 -0.0882
  372MOL0     C50135   5.947   7.816  -0.092  0.6675  0.4257 -0.0717
  372MOL0     N50136   6.368   7.497   0.177 -0.0750  0.0160 -0.8036
  372MOL0     N50137   6.294   7.417   0.241  0.6019  0.6130  0.8640
  372MOL0     C50138   5.095   7.782   0.162  0.7864  0.3669 -0.4053
  372MOL0     C50139   4.967   7.846   0.158 -0.1617 -0.2872 -0.1774
  372MOL0     C50140   4.610   8.129   0.173 -0.0073  0.1523 -1.1829
  372MOL0     C50141   4.485   8.115   0.236 -0.7491  0.1805  0.1997
  372MOL0     C50142   4.376   8.193   0.199  0.3613  0.3422  0.2088
  372MOL0     C50143   4.387   8.292   0.103 -0.1445 -0.2795  0.1079
  372MOL0     O50144   4.285   8.378   0.075 -0.0780 -0.2203  0.1442
  372MOL0     C50145   4.276   8.439  -0.059  0.2111  0.6065 -0.3626
  372MOL0     C50146   4.264   8.330  -0.172 -0.3592  0.1698  0.7122
  372MOL0     C50147   4.129   8.261  -0.178 -0.0203  0.2409 -0.1864
  372MOL0     C50148   4.100   8.181  -0.306 -1.1860 -0.2488 -0.5713
  372MOL0     C50149   4.067   8.268  -0.418  1.1790  1.1235  0.2713
  372MOL0     C50150   4.028   8.346  -0.503 -0.1298 -0.2971 -0.1497
  372MOL0     C50151   4.510   8.312   0.043  0.1578  0.4943 -0.1243
  372MOL0     C50152   4.617   8.226   0.069  0.7777 -0.8516  0.3381
  372MOL0     H50153   5.083   8.154   0.210  6.4828  1.6497 -2.0032
  372MOL0     H50154   5.301   8.032   0.206  0.8789 -1.4896 -3.0637
  372MOL0     H50155   5.344   7.635   0.290 -0.0741  1.9380  0.8001
  372MOL0     H50156   5.292   7.592   0.129  1.9546  0.0656 -2.2762
  372MOL0     H50157   5.531   7.520   0.154 -0.8663 -0.6216  2.6702
  372MOL0     H50158   5.531   7.638   0.042 -1.3966  1.2793 -0.0918
  372MOL0     H50159   5.615   7.808   0.187  0.7579  0.3617  0.7119
  372MOL0     H50160   5.586   7.720   0.342  1.3965  1.1303  0.1418
  372MOL0     H50161   5.729   7.534   0.220  5.5522 -0.0948 -0.4577
  372MOL0     H50162   5.795   7.674   0.144 -1.9101  0.1540 -1.2414
  372MOL0     H50163   5.799   7.780   0.390 -2.1038  1.0514 -0.6042
  372MOL0     H50164   5.764   7.620   0.441  1.3818 -1.7179 -1.0181
  372MOL0     H50165   6.016   7.650   0.280  1.8941  0.2823  1.0556
  372MOL0     H50166   6.010   7.677   0.457 -2.6352  1.8589  0.2554
  372MOL0     H50167   5.910   7.435   0.466 -1.3975  1.6108 -0.9601
  372MOL0     H50168   5.961   7.419   0.310 -2.2676 -1.6605  1.2606
  372MOL0     H50169   6.137   7.335   0.449  1.3163 -1.0849 -0.1552
  372MOL0     H50170   6.146   7.497   0.534 -0.2595  0.5476 -0.1938
  372MOL0     H50171   6.240   7.709   0.374 -3.9671 -2.2364  0.6129
  372MOL0     H50172   6.518   7.778   0.235 -0.6269  1.1098  0.2123
  372MOL0     H50173   6.486   7.719   0.075  1.1171 -0.1348  0.2656
  372MOL0     H50174   6.426   7.958   0.130  0.0038  0.9819  1.1593
  372MOL0     H50175   6.341   7.899   0.266  2.9336  1.9532 -0.2638
  372MOL0     H50176   6.197   8.000   0.077  1.6020  0.6975 -0.1033
  372MOL0     H50177   6.141   7.848   0.131 -0.1990 -0.0637 -0.0011
  372MOL0     H50178   6.211   7.739  -0.071  1.7161  0.4903 -0.4706
  372MOL0     H50179   6.338   7.855  -0.115  0.1215  0.8332 -1.1203
  372MOL0     H50180   6.033   8.053  -0.321  1.2647 -1.5050  0.2994
  372MOL0     H50181   5.761   7.942  -0.502 -1.0467  0.6588 -2.1433
  372MOL0     H50182   5.690   8.073  -0.400  0.7022  0.4571 -1.9672
  372MOL0     H50183   5.845   8.095  -0.466 -5.0596  3.1932 -1.4616
  372MOL0     H50184   5.408   8.130  -0.237 -0.3649  0.4809 -0.0548
  372MOL0     H50185   5.145   8.134  -0.266  1.5204  1.9916  1.9084
  372MOL0     H50186   4.878   8.086  -0.212  1.7588  0.0536  0.8196
  372MOL0     H50187   4.976   8.073  -0.368  0.7927 -3.0345 -0.8749
  372MOL0     H50188   4.733   8.070  -0.401 -1.0650 -0.1546  1.5572
  372MOL0     H50189   4.835   7.926  -0.458  0.1416  2.1978 -1.3428
  372MOL0     H50190   4.762   7.817  -0.233  0.6141  0.8302  0.8939
  372MOL0     H50191   4.662   7.821  -0.375  0.1754 -2.0572  1.0211
  372MOL0     H50192   4.642   8.013  -0.134 -2.2767  3.0926 -0.0701
  372MOL0     H50193   4.541   8.028  -0.275 -1.5790  0.5509  1.6627
  372MOL0     H50194   4.511   7.861  -0.035 -2.6430 -0.4766  0.5309
  372MOL0     H50195   4.511   7.750  -0.181  0.1697  0.2578  0.4708
  372MOL0     H50196   4.338   8.002  -0.154 -1.0666  0.0893  0.6292
  372MOL0     H50197   4.363   7.900  -0.303  0.5699  1.0717 -0.0933
  372MOL0     H50198   4.273   7.704  -0.165 -0.2637  0.0468 -0.2139
  372MOL0     H50199   4.154   7.837  -0.180  0.7133 -1.2771 -2.3715
  372MOL0     H50200   4.253   7.907   0.063 -1.1117  1.8969 -1.3910
  372MOL0     H50201   4.321   7.740   0.051  1.2274 -1.6526 -6.1479
  372MOL0     H50202   5.137   7.727  -0.124 -3.1622  2.6094  1.6158
  372MOL0     H50203   5.368   7.731  -0.084  0.7800 -1.1307 -2.6735
  372MOL0     H50204   5.740   7.759  -0.046  1.6370 -1.4262  0.2984
  372MOL0     H50205   5.976   7.754  -0.007  0.6058 -0.0025 -0.3604
  372MOL0     H50206   5.097   7.673   0.159  2.3385  0.3463  0.4834
  372MOL0     H50207   4.885   7.777   0.137  0.5518 -0.9545 -0.8652
  372MOL0     H50208   4.482   8.045   0.319  0.7057 -1.8672 -1.3778
  372MOL0     H50209   4.275   8.178   0.235  0.2219 -2.7606 -1.1113
  372MOL0     H50210   4.191   8.507  -0.053  0.5181  0.8680  1.5474
  372MOL0     H50211   4.367   8.497  -0.079  0.8961  0.4620  2.0885
  372MOL0     H50212   4.348   8.259  -0.168  0.8645  1.3387 -1.9235
  372MOL0     H50213   4.261   8.384  -0.267 -2.6246 -0.9681  0.0805
  372MOL0     H50214   4.057   8.343  -0.169  0.2644  0.6299 -1.3675
  372MOL0     H50215   4.129   8.189  -0.095 -0.2129  0.0929 -0.3121
  372MOL0     H50216   4.021   8.108  -0.285 -1.5500 -0.8794 -3.5997
  372MOL0     H50217   4.189   8.124  -0.335 -0.2576  1.1771 -0.6193
  372MOL0     H50218   4.007   8.410  -0.586  0.7035  0.4836  0.2277
  372MOL0     H50219   4.525   8.384  -0.036  3.4453 -0.0671 -0.1681
  372MOL0     H50220   4.708   8.233   0.011  0.4814  0.4666 -0.0010
  373MOL0     O50221   5.002   4.214   0.896  0.4369  0.2944 -0.4945
  373MOL0     C50222   5.072   4.302   0.944  0.2506  1.2062  0.0547
  373MOL0     O50223   5.032   4.407   1.012  0.6266  0.0569 -0.4561
  373MOL0     C50224   4.895   4.441   1.026 -0.4557  0.6788 -0.0803
  373MOL0     C50225   4.803   4.353   1.081  0.6775  0.3077 -0.1100
  373MOL0     C50226   4.676   4.396   1.118  0.7689 -0.0140  0.1842
  373MOL0     C50227   4.633   4.528   1.078 -0.7987 -0.0959  0.1119
  373MOL0     O50228   4.505   4.565   1.119  0.1107  0.1696  0.2899
  373MOL0     C50229   4.512   4.625   1.255 -0.2820 -0.1206 -0.4289
  373MOL0     C50230   4.378   4.638   1.324 -0.5274 -0.9753  0.1281
  373MOL0     C50231   4.390   4.711   1.460  0.9474 -0.0784 -1.1065
  373MOL0     C50232   4.254   4.778   1.509  0.8536  0.5870 -0.5724
  373MOL0     C50233   4.138   4.683   1.530 -0.1783  0.2201 -0.3581
  373MOL0     C50234   4.163   4.567   1.627  0.2061  0.3864 -1.3086
  373MOL0     C50235   4.039   4.498   1.679 -0.3377 -0.4853  0.2013
  373MOL0     C50236   4.007   4.385   1.574  0.0994  0.6577  0.0131
  373MOL0     N50237   3.893   4.305   1.625 -0.9656 -0.3460  0.3367
  373MOL0     C50238   3.884   4.187   1.691  0.3250  0.4399  0.2844
  373MOL0     C50239   3.754   4.179   1.741 -0.2806  0.6049 -0.1493
  373MOL0     C50240   3.705   4.072   1.827  0.9670 -0.2385 -1.1409
  373MOL0     C50241   3.556   4.058   1.811 -0.2661  0.7364  0.3297
  373MOL0     C50242   3.482   3.956   1.904  1.2939 -0.2427 -1.2099
  373MOL0     C50243   3.338   3.942   1.873  0.6181  0.0547 -0.6996
  373MOL0     O50244   3.274   3.856   1.967  0.2155 -0.0116 -0.3472
  373MOL0     C50245   3.138   3.828   1.947  0.4251  0.5740 -1.0786
  373MOL0     C50246   3.080   3.747   2.040  0.2085  0.4543  0.0691
  373MOL0     C50247   2.942   3.703   2.028  0.1413  0.9075  0.6938
  373MOL0     C50248   2.898   3.605   2.134 -0.1570 -0.0382 -0.0279
  373MOL0     C50249   2.861   3.738   1.912  0.8018 -0.1186 -1.2436
  373MOL0     C50250   2.720   3.697   1.884 -0.5120 -0.7860  0.1427
  373MOL0     O50251   2.662   3.738   1.770 -0.2120 -0.5853 -0.1875
  373MOL0     C50252   2.538   3.694   1.725 -0.8087 -0.2676 -0.2589
  373MOL0     C50253   2.541   3.578   1.650  0.2601  0.0866 -0.3336
  373MOL0     C50254   2.417   3.525   1.605  0.2022  0.9652 -0.1479
  373MOL0     C50255   2.292   3.592   1.627 -0.7153 -0.4510 -0.1428
  373MOL0     O50256   2.170   3.556   1.578  0.6725  0.3735  0.4805
  373MOL0     C50257   2.158   3.429   1.511 -0.3767  0.1649  0.3904
  373MOL0     C50258   2.191   3.430   1.369 -0.5591  0.4172 -0.2296
  373MOL0     C50259   2.169   3.299   1.289  0.2647  0.2388  0.1227
  373MOL0     C50260   2.170   3.315   1.138 -0.3745  0.2512  0.2036
  373MOL0     C50261   2.142   3.177   1.084 -0.0103  0.7882 -0.1134
  373MOL0     C50262   2.127   3.180   0.936 -0.2621 -0.4840 -0.8035
  373MOL0     C50263   2.082   3.040   0.879  0.2643 -0.7284 -0.1729
  373MOL0     C50264   1.930   3.014   0.871 -0.5342 -0.0154  0.7730
  373MOL0    Cl50265   1.850   2.949   1.022 -0.0712  0.2013 -0.4561
  373MOL0     C50266   2.297   3.702   1.717  0.1674 -0.0470 -0.7190
  373MOL0     C50267   2.422   3.761   1.754 -0.3395 -0.1816  0.4113
  373MOL0     O50268   2.673   3.615   1.961 -0.0380  0.4228  0.1307
  373MOL0     C50269   2.913   3.836   1.833 -0.3676  0.3420  0.9892
  373MOL0     C50270   3.055   3.868   1.843 -0.0718  0.0602  0.1543
  373MOL0     N50271   3.686   4.288   1.691 -0.0899 -0.4778 -0.2257
  373MOL0     N50272   3.776   4.370   1.632 -0.8907  0.9003  0.2174
  373MOL0     C50273   4.724   4.613   1.019  0.9879  0.2749  0.1866
  373MOL0     C50274   4.855   4.570   0.998  0.2099 -0.4725 -0.0519
  373MOL0     C50275   5.224   4.283   0.925  0.0044 -0.3919 -0.4606
  373MOL0     C50276   5.316   4.388   0.961  0.5326 -0.7624 -0.1985
  373MOL0     C50277   5.450   4.381   0.931 -0.2401  0.5015 -0.2850
  373MOL0     C50278   5.498   4.270   0.867  0.1779 -0.0797  1.6789
  373MOL0     O50279   5.632   4.282   0.812  0.0090  0.1033  0.7071
  373MOL0     C50280   5.706   4.161   0.799  0.6892 -0.0023 -0.1779
  373MOL0     C50281   5.843   4.206   0.742 -1.2502 -0.2061 -0.4475
  373MOL0     C50282   5.926   4.291   0.847 -0.1550  0.0717  0.1468
  373MOL0     C50283   5.960   4.217   0.984  0.1515  0.3298 -0.0456
  373MOL0     C50284   6.029   4.091   0.955  0.6980 -0.2184 -0.3182
  373MOL0     C50285   6.080   3.984   0.925  0.9277  0.3870  0.0995
  373MOL0     C50286   5.406   4.172   0.825 -0.1109 -0.5277 -0.0130
  373MOL0     C50287   5.271   4.177   0.854 -0.3885 -0.1529 -0.2431
  373MOL0     H50288   4.834   4.252   1.107  0.5790  0.4221  0.4674
  373MOL0     H50289   4.602   4.347   1.180  1.2641  0.7275  1.4181
  373MOL0     H50290   4.580   4.567   1.318 -2.2940 -2.7869 -0.5538
  373MOL0     H50291   4.562   4.722   1.255 -0.1215 -0.1964  0.3870
  373MOL0     H50292   4.313   4.690   1.253  1.4584  0.7156 -0.5857
  373MOL0     H50293   4.342   4.536   1.339  0.8106 -1.8062 -1.7808
  373MOL0     H50294   4.429   4.641   1.534  1.8104  2.4480  0.9913
  373MOL0     H50295   4.464   4.792   1.455  1.4482 -0.4099  0.2853
  373MOL0     H50296   4.283   4.825   1.604  0.4863  0.3356 -0.3377
  373MOL0     H50297   4.217   4.855   1.441 -1.2703  0.2062  0.0952
  373MOL0     H50298   4.057   4.745   1.571 -0.3678  0.8636 -1.6614
  373MOL0     H50299   4.093   4.651   1.436 -1.8059  0.9722  0.1214
  373MOL0     H50300   4.222   4.486   1.583 -1.1464 -1.0880 -0.5333
  373MOL0     H50301   4.209   4.612   1.716  3.1899  0.2580 -2.6832
  373MOL0     H50302   4.058   4.456   1.779 -2.1351  0.3766  0.9491
  373MOL0     H50303   3.959   4.572   1.688  1.0836  1.1474 -0.0596
  373MOL0     H50304   4.078   4.302   1.566 -1.0432 -0.6596  2.6043
  373MOL0     H50305   3.990   4.429   1.475 -2.9206  2.3387  1.1648
  373MOL0     H50306   3.952   4.103   1.697 -4.4839 -4.1982 -2.1948
  373MOL0     H50307   3.757   3.979   1.799 -0.5105 -0.6482 -2.7171
  373MOL0     H50308   3.728   4.092   1.932  2.0081 -0.6662 -1.2717
  373MOL0     H50309   3.548   4.026   1.707  2.2807  3.0262 -0.6728
  373MOL0     H50310   3.508   4.156   1.824  3.6519  3.1271 -1.6713
  373MOL0     H50311   3.486   3.999   2.005  0.8050 -2.0241 -0.3811
  373MOL0     H50312   3.537   3.862   1.901  3.8095  0.7502  3.4062
  373MOL0     H50313   3.332   3.908   1.769  0.5672 -0.7010 -0.4607
  373MOL0     H50314   3.286   4.038   1.882 -3.0137 -1.7635 -0.3270
  373MOL0     H50315   3.148   3.717   2.119 -0.9912  0.1376  1.0114
  373MOL0     H50316   2.978   3.602   2.208  1.4337  1.7950 -1.5778
  373MOL0     H50317   2.802   3.639   2.175 -0.4810  1.5739 -1.9994
  373MOL0     H50318   2.897   3.498   2.111 -1.0188 -0.2257  0.8177
  373MOL0     H50319   2.631   3.522   1.627  0.3231 -0.1149  0.3842
  373MOL0     H50320   2.419   3.430   1.552 -0.6857  0.4625  0.6910
  373MOL0     H50321   2.213   3.352   1.566 -1.5874  0.5281  2.1972
  373MOL0     H50322   2.050   3.408   1.514 -0.4763 -0.4611 -3.0502
  373MOL0     H50323   2.127   3.507   1.325  0.3165 -0.9063 -4.2212
  373MOL0     H50324   2.291   3.468   1.346 -0.8402  1.2584 -0.0960
  373MOL0     H50325   2.067   3.264   1.307  0.4045 -0.1399  0.1833
  373MOL0     H50326   2.236   3.218   1.319 -0.8399 -0.4167  0.8672
  373MOL0     H50327   2.100   3.388   1.096  1.3022  2.3586  0.8941
  373MOL0     H50328   2.270   3.347   1.104 -0.7362  1.2171  0.0199
  373MOL0     H50329   2.061   3.121   1.132  0.8149 -1.6648 -1.4308
  373MOL0     H50330   2.234   3.121   1.104 -1.3588 -0.8232  1.8703
  373MOL0     H50331   2.064   3.265   0.906  0.7049 -0.5269 -3.2097
  373MOL0     H50332   2.227   3.195   0.894  0.1582  2.1014  0.8719
  373MOL0     H50333   2.132   2.961   0.935 -0.2344 -0.9896 -0.0915
  373MOL0     H50334   2.125   3.019   0.780  1.7295 -1.8005  0.6567
  373MOL0     H50335   1.904   2.932   0.805 -0.9461  0.1464  0.7307
  373MOL0     H50336   1.880   3.103   0.831  0.1722  0.5694  1.1461
  373MOL0     H50337   2.203   3.747   1.747 -0.2482 -0.8674 -0.7677
  373MOL0     H50338   2.427   3.860   1.798 -1.6204 -0.1676  0.5545
  373MOL0     H50339   2.855   3.884   1.755 -2.1516 -5.2812 -1.7297
  373MOL0     H50340   3.096   3.948   1.782  1.2349 -2.1174 -1.9618
  373MOL0     H50341   4.699   4.715   0.991  0.0346 -0.0759 -0.2876
  373MOL0     H50342   4.930   4.644   0.970  0.1237 -0.6294 -0.7233
  373MOL0     H50343   5.289   4.473   1.023  0.7168 -2.1491  1.8895
  373MOL0     H50344   5.511   4.461   0.973 -0.9937 -0.5209  3.0364
  373MOL0     H50345   5.704   4.096   0.887 -2.8972 -2.4306 -1.8126
  373MOL0     H50346   5.669   4.088   0.726  1.4274 -0.3170 -0.2506
  373MOL0     H50347   5.847   4.264   0.649  1.7136  0.4323 -0.0308
  373MOL0     H50348   5.898   4.114   0.720  1.8338  1.3442  0.1567
  373MOL0     H50349   5.876   4.388   0.859 -0.1318  0.3157 -1.4570
  373MOL0     H50350   6.020   4.327   0.803  0.0811 -1.3232 -0.5477
  373MOL0     H50351   5.863   4.198   1.031  1.6741 -0.0532  3.2273
  373MOL0     H50352   6.020   4.274   1.055  0.2392 -0.2358  0.3388
  373MOL0     H50353   6.126   3.889   0.909 -0.3885  0.0008 -1.8236
  373MOL0     H50354   5.448   4.087   0.772 -0.5841 -0.0090 -1.2574
  373MOL0     H50355   5.211   4.102   0.803 -0.1110  0.6817 -1.8631
  374MOL0     O50356   0.873   2.108  10.272  0.4520 -0.5640 -0.3422
  374MOL0     C50357   0.917   2.060  10.167 -0.1159  0.4538 -0.6110
  374MOL0     O50358   0.842   2.013  10.058  0.3195  0.1928  0.5828
  374MOL0     C50359   0.704   2.041  10.068  0.1319  0.2070  1.1306
  374MOL0     C50360   0.646   2.128   9.971  0.2649  0.2329 -0.1952
  374MOL0     C50361   0.513   2.164   9.983  0.7132  0.0782  0.0564
  374MOL0     C50362   0.439   2.124  10.095  0.1086  0.1105  0.3651
  374MOL0     O50363   0.308   2.175  10.091  0.1812  0.2314  0.4179
  374MOL0     C50364   0.205   2.084  10.115  0.7170  0.4947  0.1117
  374MOL0     C50365   0.064   2.142  10.087 -1.3130  0.1280 -0.5712
  374MOL0     C50366  -0.036   2.029  10.092  0.7026 -0.1523 -0.0821
  374MOL0     C50367  -0.160   2.104  10.120 -0.7321  0.1005 -0.6845
  374MOL0     C50368  -0.279   2.002  10.114  0.3060 -0.7606  0.8264
  374MOL0     C50369  -0.409   2.069  10.149  0.8600 -0.6413 -0.9963
  374MOL0     C50370  -0.520   1.967  10.132 -0.9463 -0.1982  0.7685
  374MOL0     C50371  -0.651   2.039  10.185  0.2211 -0.3996  0.1979
  374MOL0     N50372  -0.769   1.946  10.173 -0.6348  0.4685 -0.7635
  374MOL0     C50373  -0.898   1.987  10.153  0.0314 -0.6690  0.1232
  374MOL0     C50374  -0.968   1.870  10.150  1.1722 -0.9420  0.1302
  374MOL0     C50375  -1.116   1.863  10.128  0.1658  0.0743 -0.0572
  374MOL0     C50376  -1.146   1.860   9.983  0.2760 -0.4750  0.2521
  374MOL0     C50377  -1.272   1.780   9.957 -0.2118  0.3469  0.2530
  374MOL0     C50378  -1.310   1.800   9.813 -0.5864  0.0349  0.7116
  374MOL0     O50379  -1.405   1.911   9.804  0.2830  0.1433  0.4215
  374MOL0     C50380  -1.546   1.904   9.821 -0.2145  1.4633  0.1295
  374MOL0     C50381  -1.617   1.784   9.838 -0.7835  0.1666  1.2532
  374MOL0     C50382  -1.755   1.785   9.856  0.7351  0.3695 -0.6132
  374MOL0     C50383  -1.828   1.653   9.854 -0.2585 -0.2293  0.2772
  374MOL0     C50384  -1.831   1.906   9.848 -0.3639  0.1027 -0.2147
  374MOL0     C50385  -1.979   1.911   9.870  0.3795  0.1569  0.7684
  374MOL0     O50386  -2.031   2.039   9.861 -0.4478 -0.0912 -0.1628
  374MOL0     C50387  -2.168   2.039   9.868  0.3999  0.2254 -0.5556
  374MOL0     C50388  -2.241   2.052   9.748 -0.0557 -0.8176 -0.0399
  374MOL0     C50389  -2.379   2.066   9.750  0.1347 -0.3217 -0.0601
  374MOL0     C50390  -2.453   2.046   9.860 -0.0735 -0.2842 -0.0079
  374MOL0     O50391  -2.584   2.040   9.849  0.1049 -0.1821 -0.1611
  374MOL0     C50392  -2.642   1.941   9.936  0.3836 -0.5727 -0.0539
  374MOL0     C50393  -2.797   1.950   9.936 -0.2391 -0.3153 -0.2131
  374MOL0     C50394  -2.859   1.939   9.802 -0.0362  0.0111 -0.1981
  374MOL0     C50395  -3.006   2.009   9.793 -0.8296  0.9075 -0.9351
  374MOL0     C50396  -3.067   2.024   9.650 -0.2325  0.3084  0.2488
  374MOL0     C50397  -3.163   1.918   9.606  0.2481 -0.7019  1.0298
  374MOL0     C50398  -3.240   1.982   9.498 -0.4771 -0.4969 -0.0333
  374MOL0     C50399  -3.343   1.877   9.457  0.3041 -0.1335 -0.3116
  374MOL0    Cl50400  -3.392   1.934   9.299 -0.0119 -0.3318  0.2249
  374MOL0     C50401  -2.386   2.037   9.982  0.1081  1.1435 -0.6543
  374MOL0     C50402  -2.244   2.021   9.988 -0.4082 -0.6403 -0.0215
  374MOL0     O50403  -2.040   1.813   9.912  0.5502 -0.0447 -0.1488
  374MOL0     C50404  -1.751   2.021   9.818  0.1513 -0.1263  0.1306
  374MOL0     C50405  -1.611   2.020   9.804  0.7423 -0.6426 -0.1216
  374MOL0     N50406  -0.891   1.757  10.161  0.4195  0.4699  0.1187
  374MOL0     N50407  -0.770   1.810  10.175 -0.7899  0.8882  0.1630
  374MOL0     C50408   0.492   2.027  10.182  0.4002 -0.1481 -0.0389
  374MOL0     C50409   0.622   1.982  10.166 -0.4084  0.1917 -0.5516
  374MOL0     C50410   1.060   2.043  10.147 -0.1924  0.4682 -0.2194
  374MOL0     C50411   1.146   2.030  10.263  0.6297 -0.2493  0.6560
  374MOL0     C50412   1.285   2.024  10.246 -0.1850  0.2666  0.7353
  374MOL0     C50413   1.340   2.028  10.112 -0.1549 -0.2289 -0.3275
  374MOL0     O50414   1.481   2.035  10.107  0.1005 -0.7337  0.0746
  374MOL0     C50415   1.549   2.034   9.988  0.4537 -0.4136 -0.2490
  374MOL0     C50416   1.699   2.005  10.018  0.3721 -0.2546 -0.0155
  374MOL0     C50417   1.745   2.115  10.126  0.1242  0.7241  0.4004
  374MOL0     C50418   1.894   2.111  10.168 -0.9886  0.4069  0.4938
  374MOL0     C50419   1.927   2.217  10.257 -0.0576  0.3067  0.5753
  374MOL0     C50420   1.971   2.313  10.320 -0.4412 -0.5795  0.0386
  374MOL0     C50421   1.258   2.038  10.001  0.4552 -0.6718  0.2003
  374MOL0     C50422   1.116   2.048  10.016  0.0781  0.4974 -1.0314
  374MOL0     H50423   0.702   2.167   9.887  2.6560  2.4676  2.2163
  374MOL0     H50424   0.460   2.228   9.913  0.1279 -1.7695 -1.2766
  374MOL0     H50425   0.212   1.996  10.051  3.1353 -0.3220  1.3750
  374MOL0     H50426   0.210   2.061  10.222  2.0897 -0.8105 -0.2073
  374MOL0     H50427   0.042   2.215  10.165 -1.3567 -1.6946  1.2131
  374MOL0     H50428   0.064   2.207   9.999 -0.9300  0.6498 -0.1884
  374MOL0     H50429  -0.052   1.971  10.000 -0.6504 -0.4357  0.3182
  374MOL0     H50430  -0.024   1.956  10.172 -1.1826 -0.8499 -0.4018
  374MOL0     H50431  -0.156   2.149  10.220 -0.3426  0.6243 -0.9335
  374MOL0     H50432  -0.174   2.187  10.051  1.2624 -0.3422 -1.6962
  374MOL0     H50433  -0.270   1.962  10.013  0.9808 -0.1647  0.6441
  374MOL0     H50434  -0.257   1.923  10.186  0.6220 -1.1269  0.3334
  374MOL0     H50435  -0.400   2.105  10.252 -0.4161 -1.3486 -0.6208
  374MOL0     H50436  -0.435   2.159  10.092  0.4680 -0.1513 -0.0661
  374MOL0     H50437  -0.526   1.952  10.024  2.4670  2.7543 -0.0210
  374MOL0     H50438  -0.501   1.870  10.180 -0.1295 -0.1293  0.6005
  374MOL0     H50439  -0.676   2.135  10.138  1.0181 -0.4990 -0.4589
  374MOL0     H50440  -0.629   2.053  10.291  4.0019  0.4486 -0.5471
  374MOL0     H50441  -0.947   2.083  10.148 -0.3415 -0.8233  0.7099
  374MOL0     H50442  -1.150   1.777  10.186  1.1391 -0.6230 -0.5033
  374MOL0     H50443  -1.159   1.950  10.179  2.6774  0.5478  1.4265
  374MOL0     H50444  -1.073   1.804   9.924 -1.0839 -1.4399 -0.5736
  374MOL0     H50445  -1.149   1.962   9.944  0.1285  0.2667  2.0662
  374MOL0     H50446  -1.352   1.826  10.016 -1.2052  0.3095 -1.0042
  374MOL0     H50447  -1.259   1.675   9.986  2.7881  0.4263 -0.4666
  374MOL0     H50448  -1.356   1.706   9.781 -0.6903  0.5550 -0.7215
  374MOL0     H50449  -1.224   1.820   9.749  0.3690 -0.3147  1.8491
  374MOL0     H50450  -1.568   1.687   9.842 -1.1364 -0.2076 -1.5081
  374MOL0     H50451  -1.904   1.663   9.776  1.4146 -0.5499 -1.4872
  374MOL0     H50452  -1.765   1.566   9.831 -1.2555 -0.8888 -0.0251
  374MOL0     H50453  -1.877   1.637   9.950  1.2799 -1.0729  0.9623
  374MOL0     H50454  -2.186   2.066   9.656  0.8071  0.2351  0.6112
  374MOL0     H50455  -2.430   2.084   9.655  2.3165 -0.4288 -1.3142
  374MOL0     H50456  -2.621   1.837   9.909 -0.5659 -0.0588 -3.3074
  374MOL0     H50457  -2.612   1.954  10.040 -0.4597 -0.6086  0.2027
  374MOL0     H50458  -2.831   1.860   9.988 -0.5457 -0.0679  0.0133
  374MOL0     H50459  -2.820   2.043   9.989  1.2839 -0.1928  0.2996
  374MOL0     H50460  -2.858   1.834   9.770 -0.0686 -0.1904  0.4405
  374MOL0     H50461  -2.798   1.990   9.727  1.2332 -0.6332  0.3678
  374MOL0     H50462  -3.075   1.963   9.864 -2.6542  0.8303 -2.6789
  374MOL0     H50463  -3.001   2.109   9.836  0.8902  0.5570 -0.2347
  374MOL0     H50464  -2.986   2.032   9.577 -0.4858 -3.9215 -0.7891
  374MOL0     H50465  -3.115   2.122   9.650 -0.7745  0.0469 -0.3624
  374MOL0     H50466  -3.112   1.826   9.579 -1.8603 -0.9232 -2.8670
  374MOL0     H50467  -3.238   1.907   9.686 -1.8143 -0.0108 -0.7224
  374MOL0     H50468  -3.186   2.010   9.408 -1.3249  0.0279 -0.3903
  374MOL0     H50469  -3.283   2.073   9.540 -0.2719  0.0558 -0.9981
  374MOL0     H50470  -3.424   1.885   9.531  0.3340 -1.2876 -0.1351
  374MOL0     H50471  -3.308   1.773   9.454  2.1651  0.4204  0.7861
  374MOL0     H50472  -2.444   2.048  10.073 -1.3077  0.3775 -1.4214
  374MOL0     H50473  -2.191   1.998  10.080  0.0362 -2.5516 -0.6922
  374MOL0     H50474  -1.790   2.122   9.808 -0.2102 -0.1129  1.4818
  374MOL0     H50475  -1.554   2.110   9.782 -1.3884  0.7935 -0.0547
  374MOL0     H50476   0.426   1.983  10.255  2.6925 -3.9653  0.0025
  374MOL0     H50477   0.654   1.916  10.246 -3.4818  0.7664  1.3270
  374MOL0     H50478   1.108   2.040  10.364  0.4612 -1.2651  0.7041
  374MOL0     H50479   1.353   2.004  10.329  1.2724 -2.1183 -0.8951
  374MOL0     H50480   1.504   1.956   9.926  0.3784 -0.6349  0.0776
  374MOL0     H50481   1.531   2.131   9.942 -3.3431 -0.8805 -0.0551
  374MOL0     H50482   1.757   1.996   9.926  1.8338 -2.4311  1.0429
  374MOL0     H50483   1.699   1.906  10.065 -0.4048 -0.2501  0.0138
  374MOL0     H50484   1.680   2.112  10.215 -1.2696  0.4646 -0.5920
  374MOL0     H50485   1.729   2.213  10.080 -1.8042 -0.5130 -1.7561
  374MOL0     H50486   1.961   2.121  10.082  0.3556  0.5634  1.5174
  374MOL0     H50487   1.906   2.018  10.225 -3.2831  0.6526  1.4816
  374MOL0     H50488   2.006   2.389  10.387  0.1295 -2.4442  1.9742
  374MOL0     H50489   1.291   2.023   9.899 -3.1938 -0.4108 -1.1861
  374MOL0     H50490   1.049   2.052   9.931  0.7281 -1.6173 -1.6923
  375MOL0     O50491   3.270  10.090   6.941 -0.8591  0.4084 -0.0231
  375MOL0     C50492   3.289  10.017   7.034  0.5901  0.4473 -0.7959
  375MOL0     O50493   3.201   9.988   7.140  0.2592  0.5365  0.3510
  375MOL0     C50494   3.090  10.067   7.148  0.5263 -0.1269  0.2756
  375MOL0     C50495   2.978   9.991   7.186  0.4071  0.1132  0.6223
  375MOL0     C50496   2.853  10.063   7.206  0.0773 -0.0585 -0.1275
  375MOL0     C50497   2.845  10.201   7.200 -0.1181 -0.1739  0.1186
  375MOL0     O50498   2.717  10.251   7.206 -0.5201  0.8168  0.3157
  375MOL0     C50499   2.708  10.392   7.206 -0.1626  0.3831  0.2320
  375MOL0     C50500   2.561  10.424   7.188 -0.1042 -0.3275 -0.5491
  375MOL0     C50501   2.511  10.398   7.046  0.4480  0.0504 -0.8132
  375MOL0     C50502   2.357  10.408   7.024  0.4980 -0.2921  0.5530
  375MOL0     C50503   2.321  10.364   6.881 -0.5650  0.6949 -0.3581
  375MOL0     C50504   2.174  10.388   6.864  0.2192 -0.4153  0.5864
  375MOL0     C50505   2.078  10.301   6.950  0.1809  0.6370  0.3104
  375MOL0     C50506   1.935  10.318   6.907 -0.3732 -0.5117  0.0503
  375MOL0     N50507   1.843  10.223   6.963  0.6773 -0.4741  0.1100
  375MOL0     C50508   1.829  10.187   7.093  0.1367  0.6111 -0.4692
  375MOL0     C50509   1.713  10.117   7.100  0.0753 -0.3753  0.0023
  375MOL0     C50510   1.654  10.057   7.227 -0.2608 -0.4290 -0.0613
  375MOL0     C50511   1.729   9.933   7.280  0.0072 -0.0870  0.0585
  375MOL0     C50512   1.673   9.879   7.414 -0.1560 -0.6992 -0.2967
  375MOL0     C50513   1.518   9.858   7.409  0.2956 -0.1375 -0.7797
  375MOL0     O50514   1.469   9.801   7.530  0.3606  0.2419 -0.8682
  375MOL0     C50515   1.431   9.668   7.545  0.5437 -0.0870  0.7717
  375MOL0     C50516   1.466   9.575   7.442  0.2300 -0.3233 -1.3804
  375MOL0     C50517   1.441   9.439   7.466 -0.2199 -0.5607 -0.1498
  375MOL0     C50518   1.489   9.343   7.360  0.1358 -0.3058  1.2702
  375MOL0     C50519   1.373   9.403   7.583 -0.3822 -0.3092  0.1455
  375MOL0     C50520   1.355   9.264   7.634 -0.1028  0.3506  0.5786
  375MOL0     O50521   1.340   9.245   7.768 -0.1857  0.2793 -0.0300
  375MOL0     C50522   1.284   9.133   7.830 -0.0605 -0.1710  0.2072
  375MOL0     C50523   1.312   9.119   7.967  0.3942  0.4033  0.2387
  375MOL0     C50524   1.251   9.020   8.037 -0.2562  0.4739 -0.5889
  375MOL0     C50525   1.168   8.926   7.965  0.1930  0.2417  0.2825
  375MOL0     O50526   1.136   8.808   8.025 -0.3904  0.5022 -0.0862
  375MOL0     C50527   1.056   8.799   8.144 -0.5862  0.1957  0.6957
  375MOL0     C50528   0.966   8.670   8.125  0.2548  0.3156 -0.2542
  375MOL0     C50529   0.878   8.678   8.003 -0.8113  0.9405  0.5139
  375MOL0     C50530   0.782   8.563   7.984 -0.4493  0.6575  0.6999
  375MOL0     C50531   0.838   8.451   7.901 -0.6097 -0.6306 -0.2450
  375MOL0     C50532   0.740   8.345   7.863  0.5321  0.2052 -0.0527
  375MOL0     C50533   0.661   8.291   7.983 -0.7131 -0.0634 -0.8956
  375MOL0     C50534   0.582   8.159   7.958 -0.1824 -0.1193  0.3653
  375MOL0    Cl50535   0.696   8.035   7.918 -0.3083  0.6316 -0.2625
  375MOL0     C50536   1.135   8.944   7.832 -0.0595  1.0100  0.4542
  375MOL0     C50537   1.190   9.053   7.765 -0.2524  0.2133 -0.0217
  375MOL0     O50538   1.337   9.176   7.545  0.4871 -0.0450  0.6469
  375MOL0     C50539   1.324   9.504   7.673  0.0205 -0.1910  0.4470
  375MOL0     C50540   1.353   9.636   7.655  0.1774  0.4273  0.3447
  375MOL0     N50541   1.651  10.121   6.977 -0.0317  0.1625 -0.4526
  375MOL0     N50542   1.738  10.169   6.892 -0.0031 -0.1813 -0.6571
  375MOL0     C50543   2.965  10.274   7.178  0.3847 -0.5827 -0.2137
  375MOL0     C50544   3.087  10.208   7.143  0.1417  0.2968 -0.3421
  375MOL0     C50545   3.411   9.949   7.056 -0.9839 -0.3058 -0.3836
  375MOL0     C50546   3.428   9.868   7.173  0.2237  0.2805  0.3067
  375MOL0     C50547   3.539   9.786   7.180 -0.4124  0.1759 -0.4512
  375MOL0     C50548   3.644   9.788   7.088 -0.3170 -0.2900  0.0341
  375MOL0     O50549   3.748   9.706   7.101 -0.5067 -0.1366 -0.5228
  375MOL0     C50550   3.798   9.683   7.238  0.6590  0.1996 -0.4845
  375MOL0     C50551   3.947   9.710   7.243  0.0907 -0.6500  0.2430
  375MOL0     C50552   4.029   9.653   7.134  0.7315 -0.7899 -0.2631
  375MOL0     C50553   4.176   9.680   7.182 -0.1658 -0.3370 -0.1214
  375MOL0     C50554   4.266   9.609   7.091 -0.2100 -0.4116 -0.0969
  375MOL0     C50555   4.326   9.527   7.021 -0.0708 -0.7327 -0.0252
  375MOL0     C50556   3.629   9.868   6.973  0.3551 -0.2336 -0.2008
  375MOL0     C50557   3.517   9.957   6.964 -0.6966 -0.7415 -0.1097
  375MOL0     H50558   2.985   9.882   7.187  0.9437 -0.0119 -3.1848
  375MOL0     H50559   2.762  10.005   7.217  0.0856 -0.0739 -0.1390
  375MOL0     H50560   2.751  10.424   7.301  0.1116  0.6647  0.0153
  375MOL0     H50561   2.758  10.432   7.117  1.4916 -1.0609  0.4747
  375MOL0     H50562   2.509  10.372   7.269  1.5065 -0.5349  0.3804
  375MOL0     H50563   2.558  10.531   7.207  0.9051 -0.5645  1.0975
  375MOL0     H50564   2.560  10.465   6.974  1.9400 -1.2516 -1.0604
  375MOL0     H50565   2.531  10.292   7.026 -0.0948 -0.4556  1.1581
  375MOL0     H50566   2.322  10.349   7.109  2.2029 -1.0674  0.7676
  375MOL0     H50567   2.319  10.510   7.038  0.5988 -0.1409 -0.2373
  375MOL0     H50568   2.385  10.420   6.813 -2.8693 -0.3217 -3.6159
  375MOL0     H50569   2.340  10.257   6.864  2.5155  0.8875  1.2257
  375MOL0     H50570   2.152  10.493   6.887 -1.6643 -0.6440  0.0745
  375MOL0     H50571   2.146  10.378   6.758 -1.7594 -0.2038  1.0513
  375MOL0     H50572   2.107  10.197   6.932  0.3336  0.6269  0.6110
  375MOL0     H50573   2.092  10.325   7.056 -0.9022  0.8840  0.4015
  375MOL0     H50574   1.924  10.299   6.800  0.1082  1.0360 -0.2973
  375MOL0     H50575   1.894  10.415   6.936  0.1269 -0.7807  1.7737
  375MOL0     H50576   1.898  10.217   7.172  0.2904  0.4583 -0.5444
  375MOL0     H50577   1.656  10.142   7.295 -1.9296  0.5097 -1.1311
  375MOL0     H50578   1.548  10.033   7.217 -0.0850 -1.3432  0.1388
  375MOL0     H50579   1.835   9.954   7.291  0.0709  0.3814 -1.2804
  375MOL0     H50580   1.729   9.851   7.209  1.6307 -0.4236  0.4273
  375MOL0     H50581   1.688   9.950   7.495 -1.6031 -0.0853 -0.5387
  375MOL0     H50582   1.722   9.787   7.446 -0.9768 -0.9050  0.4095
  375MOL0     H50583   1.481   9.805   7.321  0.1931  1.8324 -1.9808
  375MOL0     H50584   1.470   9.956   7.404 -0.0619 -0.2780 -0.0908
  375MOL0     H50585   1.529   9.604   7.359 -0.3183  2.6975 -0.8707
  375MOL0     H50586   1.571   9.275   7.386  3.1875  2.0130 -1.5048
  375MOL0     H50587   1.409   9.283   7.317  1.0949 -0.5577 -0.2195
  375MOL0     H50588   1.528   9.397   7.274  1.2125 -2.1508  0.5352
  375MOL0     H50589   1.375   9.195   8.011  0.1129  0.9995 -0.3762
  375MOL0     H50590   1.269   9.001   8.142  0.9039 -0.7905 -0.9861
  375MOL0     H50591   1.127   8.784   8.225  0.0151 -2.2576 -0.1737
  375MOL0     H50592   0.999   8.890   8.160  1.9031  1.7968  0.9576
  375MOL0     H50593   1.023   8.577   8.122 -0.1210  0.0527  0.4189
  375MOL0     H50594   0.895   8.661   8.209 -1.1047 -3.1813 -1.5755
  375MOL0     H50595   0.929   8.690   7.907 -3.6714 -0.3661 -1.2970
  375MOL0     H50596   0.815   8.767   8.012 -1.6237  0.3937  0.3089
  375MOL0     H50597   0.753   8.510   8.076 -0.9817 -4.9466 -2.2091
  375MOL0     H50598   0.684   8.594   7.947 -1.2563 -2.4106 -0.0395
  375MOL0     H50599   0.913   8.409   7.967 -0.1721  1.2085  0.4836
  375MOL0     H50600   0.885   8.492   7.811  1.7439 -1.3981  0.5667
  375MOL0     H50601   0.674   8.386   7.786  0.3615  1.3225  0.6766
  375MOL0     H50602   0.795   8.260   7.820  0.9431 -0.1208  1.0798
  375MOL0     H50603   0.592   8.369   8.014 -0.7634 -0.1734 -0.7298
  375MOL0     H50604   0.733   8.264   8.061 -0.5372  0.3338 -0.9197
  375MOL0     H50605   0.510   8.166   7.876  2.7080 -0.8674 -2.4372
  375MOL0     H50606   0.523   8.132   8.046 -1.5824 -1.7585 -0.9953
  375MOL0     H50607   1.061   8.878   7.788  1.9381 -2.9486  2.5134
  375MOL0     H50608   1.149   9.079   7.668 -0.0040 -0.0075 -0.1903
  375MOL0     H50609   1.264   9.469   7.757 -0.6368  1.1751  0.5750
  375MOL0     H50610   1.327   9.710   7.731  2.3283  2.0972 -0.4247
  375MOL0     H50611   2.957  10.380   7.196  1.0348 -0.8073  1.5503
  375MOL0     H50612   3.175  10.266   7.116 -1.8580  2.5141 -2.5552
  375MOL0     H50613   3.354   9.848   7.250  0.3059  0.3533  0.4047
  375MOL0     H50614   3.538   9.703   7.251 -0.5694 -0.2073 -0.8924
  375MOL0     H50615   3.747   9.749   7.309 -0.4799  1.9789 -2.8171
  375MOL0     H50616   3.770   9.581   7.263  0.5359 -0.2939 -2.4394
  375MOL0     H50617   3.971   9.668   7.341 -2.7457  0.2780  1.4420
  375MOL0     H50618   3.964   9.817   7.258  1.6075 -0.7255 -0.8019
  375MOL0     H50619   4.018   9.703   7.037 -3.8978  0.9517  0.8607
  375MOL0     H50620   4.009   9.546   7.128 -2.7176 -0.2909  0.3155
  375MOL0     H50621   4.208   9.638   7.278 -0.1498 -0.1083 -0.0278
  375MOL0     H50622   4.204   9.785   7.180  1.0716 -0.4772  3.0203
  375MOL0     H50623   4.370   9.458   6.952  0.5857  0.2474 -0.6058
  375MOL0     H50624   3.700   9.859   6.892  1.7356 -1.9267  1.1106
  375MOL0     H50625   3.496  10.015   6.875 -0.9556 -0.3085  0.2294
  376MOL0     O50626   0.322   7.265   5.647 -0.1421  0.5841 -0.0423
  376MOL0     C50627   0.383   7.326   5.557 -1.1099  0.5235 -0.2802
  376MOL0     O50628   0.324   7.395   5.465 -0.6423 -0.2571  0.9006
  376MOL0     C50629   0.186   7.403   5.466 -0.2738  1.2201  0.8652
  376MOL0     C50630   0.125   7.320   5.370 -0.2322 -0.0645 -0.5580
  376MOL0     C50631  -0.015   7.314   5.360 -0.1958  0.2648 -0.4552
  376MOL0     C50632  -0.098   7.399   5.438  0.2449  0.7056 -0.1310
  376MOL0     O50633  -0.236   7.389   5.424  0.3868  0.1593  0.6479
  376MOL0     C50634  -0.332   7.419   5.526  0.4013  0.8426  0.3009
  376MOL0     C50635  -0.460   7.351   5.497  1.3994  0.5074  0.5866
  376MOL0     C50636  -0.569   7.391   5.594  0.4391 -0.4465  0.0650
  376MOL0     C50637  -0.549   7.346   5.737  0.3567 -1.1284 -0.6142
  376MOL0     C50638  -0.637   7.427   5.832  0.7784  0.2178 -0.3438
  376MOL0     C50639  -0.591   7.578   5.856 -0.1667 -0.4928  0.1425
  376MOL0     C50640  -0.671   7.647   5.972 -0.0167 -0.7895 -0.0597
  376MOL0     C50641  -0.815   7.672   5.934  0.9288 -0.4918 -0.2914
  376MOL0     N50642  -0.898   7.725   6.046  0.2960  0.3513 -0.1326
  376MOL0     C50643  -0.988   7.828   6.048  1.0518  0.0797 -0.2222
  376MOL0     C50644  -1.032   7.838   6.171  1.2300  0.1718 -0.5573
  376MOL0     C50645  -1.134   7.938   6.210  0.4013 -0.1906 -0.5895
  376MOL0     C50646  -1.278   7.909   6.164  0.0858  0.1700 -0.9811
  376MOL0     C50647  -1.384   8.007   6.212 -1.1347 -0.2927 -0.0368
  376MOL0     C50648  -1.521   7.963   6.211 -0.2130 -0.4888  0.4530
  376MOL0     O50649  -1.546   7.846   6.289  0.8013 -0.0493  0.0335
  376MOL0     C50650  -1.667   7.768   6.256 -0.5669 -0.4529 -0.3669
  376MOL0     C50651  -1.778   7.822   6.183 -0.3044  0.3738 -0.4202
  376MOL0     C50652  -1.890   7.751   6.139 -0.2751  0.5165  0.9451
  376MOL0     C50653  -1.989   7.835   6.070  0.1385 -0.7686 -0.1099
  376MOL0     C50654  -1.896   7.612   6.170 -0.2947 -1.0063 -0.5302
  376MOL0     C50655  -2.011   7.528   6.127 -0.0469  0.6998  0.7497
  376MOL0     O50656  -2.016   7.401   6.183  0.7392 -0.2147 -0.4039
  376MOL0     C50657  -2.104   7.311   6.124 -1.0631 -0.3034 -0.1305
  376MOL0     C50658  -2.063   7.200   6.051  0.3428 -0.7324  0.0634
  376MOL0     C50659  -2.162   7.103   6.006 -0.4307  0.2301  0.5177
  376MOL0     C50660  -2.299   7.128   6.018 -0.0910 -1.0995 -0.0647
  376MOL0     O50661  -2.385   7.035   5.977  0.4554  0.2681 -0.0536
  376MOL0     C50662  -2.514   7.086   5.930  0.2356  0.2516  0.3785
  376MOL0     C50663  -2.593   6.979   5.862  0.1076  0.2452 -0.2781
  376MOL0     C50664  -2.725   7.038   5.809  0.0034  0.2649 -0.1942
  376MOL0     C50665  -2.818   6.931   5.740  0.4501  0.3767  0.5606
  376MOL0     C50666  -2.941   6.999   5.673  0.3523 -0.4319 -0.7334
  376MOL0     C50667  -3.066   7.008   5.764  0.0663 -0.4991 -0.6328
  376MOL0     C50668  -3.192   7.054   5.694  0.1826 -0.1646  0.3406
  376MOL0     C50669  -3.271   7.147   5.783 -0.8012  0.2637 -0.0963
  376MOL0    Cl50670  -3.307   7.072   5.945  0.5559 -0.2706  0.2200
  376MOL0     C50671  -2.336   7.250   6.075 -0.0231 -0.4864 -0.1392
  376MOL0     C50672  -2.244   7.337   6.131  0.3937 -0.3135  0.1134
  376MOL0     O50673  -2.081   7.558   6.025 -0.3707  0.5337  0.1494
  376MOL0     C50674  -1.798   7.561   6.256 -0.1729 -0.2343  0.0035
  376MOL0     C50675  -1.682   7.642   6.297  0.1390 -0.4162 -0.5168
  376MOL0     N50676  -0.958   7.759   6.252 -0.2275  0.5598  0.3568
  376MOL0     N50677  -0.874   7.688   6.175 -0.8420  0.7595 -0.7636
  376MOL0     C50678  -0.041   7.482   5.532 -0.5065  1.1523 -0.5027
  376MOL0     C50679   0.100   7.477   5.551 -1.2344  0.0328 -0.0480
  376MOL0     C50680   0.536   7.327   5.573 -0.1015  0.2401  0.7258
  376MOL0     C50681   0.610   7.250   5.673  0.7103 -0.0992  0.3011
  376MOL0     C50682   0.749   7.257   5.687 -0.2124  0.6397 -1.0165
  376MOL0     C50683   0.827   7.334   5.607  0.5931 -0.6668 -0.3116
  376MOL0     O50684   0.959   7.344   5.634 -0.6838  0.1923 -0.6120
  376MOL0     C50685   1.041   7.448   5.567 -0.1719 -0.8037 -0.0708
  376MOL0     C50686   1.175   7.470   5.632  0.6614 -0.0028  0.5765
  376MOL0     C50687   1.175   7.546   5.760  0.0078 -0.5158 -0.3257
  376MOL0     C50688   1.074   7.485   5.861 -0.8336 -0.3473 -0.0876
  376MOL0     C50689   1.110   7.347   5.900 -0.1780 -0.0469  0.6701
  376MOL0     C50690   1.140   7.239   5.943 -0.7128 -0.1898 -0.2531
  376MOL0     C50691   0.764   7.412   5.510 -0.2471 -1.6184 -0.4837
  376MOL0     C50692   0.623   7.413   5.495 -0.6362 -0.1510 -0.4481
  376MOL0     H50693   0.178   7.253   5.303 -0.6746 -0.4883 -0.4893
  376MOL0     H50694  -0.064   7.254   5.284  1.1812  2.3777 -3.2238
  376MOL0     H50695  -0.295   7.380   5.621  2.6777  0.7618 -0.5448
  376MOL0     H50696  -0.347   7.526   5.536  0.0085  1.1559 -2.6957
  376MOL0     H50697  -0.498   7.401   5.408  0.7720 -0.9005  0.0290
  376MOL0     H50698  -0.460   7.242   5.484 -4.8237  0.0739  1.0482
  376MOL0     H50699  -0.570   7.500   5.591 -0.0955 -0.0406  5.1292
  376MOL0     H50700  -0.664   7.350   5.560  0.2739 -1.3362  1.4928
  376MOL0     H50701  -0.563   7.238   5.744  1.0928 -1.1506  0.8526
  376MOL0     H50702  -0.451   7.383   5.768 -0.1475  0.2382 -0.5581
  376MOL0     H50703  -0.739   7.438   5.793 -0.0722 -0.3512  1.5978
  376MOL0     H50704  -0.653   7.377   5.928 -0.5507  0.7897 -0.2375
  376MOL0     H50705  -0.488   7.581   5.891 -0.0467 -1.9360  0.0038
  376MOL0     H50706  -0.597   7.628   5.759 -1.7451 -0.8438  0.0211
  376MOL0     H50707  -0.672   7.587   6.063  1.6883  1.0162  1.2405
  376MOL0     H50708  -0.621   7.736   6.010 -0.9525  1.1237 -3.0179
  376MOL0     H50709  -0.864   7.582   5.895  2.0407 -1.2848  0.0902
  376MOL0     H50710  -0.805   7.749   5.856  0.7841  0.5736  0.7156
  376MOL0     H50711  -1.017   7.891   5.964 -0.9763  0.3196  0.6110
  376MOL0     H50712  -1.120   7.943   6.319  1.6172 -3.0257 -0.5332
  376MOL0     H50713  -1.104   8.038   6.178 -0.8857  0.2972 -0.3034
  376MOL0     H50714  -1.307   7.810   6.202 -0.4702  0.2126 -1.2871
  376MOL0     H50715  -1.277   7.907   6.055  2.0796  0.0382 -0.9895
  376MOL0     H50716  -1.365   8.092   6.146 -1.0038  2.2518  3.0174
  376MOL0     H50717  -1.349   8.036   6.312 -0.1818  0.1096 -0.4678
  376MOL0     H50718  -1.540   7.949   6.104 -1.5590  1.7499  0.3371
  376MOL0     H50719  -1.595   8.040   6.234 -2.8324 -1.9138 -2.3547
  376MOL0     H50720  -1.768   7.928   6.164 -1.4862  0.9822  2.0153
  376MOL0     H50721  -1.967   7.941   6.086 -0.2390 -0.6318 -0.4851
  376MOL0     H50722  -1.973   7.824   5.962 -1.5641 -1.7027 -0.3002
  376MOL0     H50723  -2.090   7.814   6.106  0.5540 -0.2008  1.4631
  376MOL0     H50724  -1.956   7.185   6.042  0.3959 -0.5387  0.3484
  376MOL0     H50725  -2.124   7.009   5.967  0.0904  0.3316  0.7697
  376MOL0     H50726  -2.578   7.114   6.014 -0.8632 -0.8779 -0.0509
  376MOL0     H50727  -2.498   7.178   5.871 -0.8690 -0.0752 -0.4600
  376MOL0     H50728  -2.540   6.952   5.770  0.2991  2.9796 -1.0590
  376MOL0     H50729  -2.602   6.891   5.926  4.2397  0.4832  0.8710
  376MOL0     H50730  -2.704   7.116   5.736 -1.0192  1.0280  0.2954
  376MOL0     H50731  -2.790   7.093   5.877 -2.0154  0.3412 -2.0859
  376MOL0     H50732  -2.759   6.873   5.669 -0.8973 -0.3316 -0.0143
  376MOL0     H50733  -2.865   6.859   5.808  0.7849  0.3310  0.7512
  376MOL0     H50734  -2.974   6.942   5.586  0.7634 -1.6461 -0.1151
  376MOL0     H50735  -2.905   7.093   5.631 -1.3738  0.9040  0.6465
  376MOL0     H50736  -3.079   6.906   5.801  4.2826 -1.4129 -1.1329
  376MOL0     H50737  -3.042   7.071   5.850 -0.0957 -0.8372 -0.3361
  376MOL0     H50738  -3.247   6.963   5.669 -0.4271 -0.4395  2.5250
  376MOL0     H50739  -3.161   7.111   5.606 -0.2373  1.8431  1.4384
  376MOL0     H50740  -3.364   7.180   5.736 -0.7785  1.9070  0.9596
  376MOL0     H50741  -3.209   7.236   5.796 -0.3156 -0.2967  1.6767
  376MOL0     H50742  -2.439   7.276   6.095  0.0232  0.9223 -1.6162
  376MOL0     H50743  -2.281   7.421   6.188  0.0288  0.3163 -1.0059
  376MOL0     H50744  -1.801   7.460   6.296  3.0593  0.7869  3.4110
  376MOL0     H50745  -1.614   7.608   6.374  0.8772 -0.3070 -1.1167
  376MOL0     H50746  -0.094   7.546   5.601 -1.3132  0.7709 -0.7607
  376MOL0     H50747   0.146   7.536   5.629 -1.3318 -0.4480  0.3814
  376MOL0     H50748   0.551   7.193   5.744 -0.2018 -1.2852 -1.3346
  376MOL0     H50749   0.801   7.196   5.760 -1.3530  0.9682  0.1034
  376MOL0     H50750   1.054   7.433   5.459 -0.9103  1.7353 -0.5667
  376MOL0     H50751   0.991   7.545   5.573  3.3758  1.2962 -1.3041
  376MOL0     H50752   1.227   7.529   5.557  0.2974  0.9395  1.0509
  376MOL0     H50753   1.226   7.374   5.641  0.5579 -0.0175  1.0680
  376MOL0     H50754   1.153   7.652   5.745 -0.7753 -0.3973  1.3823
  376MOL0     H50755   1.276   7.546   5.801 -1.1774  0.1580  2.8879
  376MOL0     H50756   0.973   7.492   5.818 -0.8367 -0.0912 -0.0353
  376MOL0     H50757   1.085   7.539   5.955  1.0870 -0.6411 -0.1130
  376MOL0     H50758   1.158   7.149   5.999 -3.2565  0.5086  1.9074
  376MOL0     H50759   0.823   7.473   5.441 -0.3393 -1.0688 -0.0812
  376MOL0     H50760   0.568   7.479   5.428 -1.6054 -0.0218  0.4580
  377MOL0     O50761   8.184   1.592   5.850  0.6590  0.2289 -0.0401
  377MOL0     C50762   8.224   1.496   5.915  0.8943 -0.0650 -0.4233
  377MOL0     O50763   8.144   1.385   5.950 -0.4121  0.3910 -0.5161
  377MOL0     C50764   8.024   1.358   5.888  0.3651 -0.3530 -0.4727
  377MOL0     C50765   8.009   1.329   5.756 -0.2201  0.9691 -0.3148
  377MOL0     C50766   7.889   1.295   5.701 -0.3705  0.4505 -0.0730
  377MOL0     C50767   7.776   1.289   5.782  0.3161  0.8235  0.9515
  377MOL0     O50768   7.663   1.265   5.707  0.1786  0.0333 -0.7303
  377MOL0     C50769   7.546   1.227   5.784  0.6930 -0.3769  0.1283
  377MOL0     C50770   7.432   1.183   5.697  0.4442 -0.3053 -0.2560
  377MOL0     C50771   7.297   1.180   5.765 -0.1273  0.8527 -0.0340
  377MOL0     C50772   7.178   1.155   5.673  0.6827 -0.6564  0.5437
  377MOL0     C50773   7.041   1.161   5.744 -0.5986  0.5101  0.1759
  377MOL0     C50774   6.937   1.194   5.635 -0.0031 -0.2618 -1.0917
  377MOL0     C50775   6.796   1.165   5.682  1.6892  0.2733  0.5284
  377MOL0     C50776   6.741   1.238   5.813  0.4404  0.6659  1.0753
  377MOL0     N50777   6.601   1.201   5.855 -0.2018  0.0358 -0.0940
  377MOL0     C50778   6.486   1.205   5.780  0.1306  0.3720  0.1861
  377MOL0     C50779   6.391   1.133   5.838 -0.8731  0.1000  0.5664
  377MOL0     C50780   6.254   1.106   5.789 -0.1972  0.3850 -0.3879
  377MOL0     C50781   6.162   1.229   5.809  0.8076 -0.1541 -0.1130
  377MOL0     C50782   6.018   1.186   5.810 -0.1666  0.2896  0.7280
  377MOL0     C50783   5.924   1.281   5.875  0.4723 -0.0061  0.2511
  377MOL0     O50784   5.787   1.241   5.857  0.2294  0.0546 -0.4249
  377MOL0     C50785   5.684   1.319   5.912  0.0484  0.0116 -0.3570
  377MOL0     C50786   5.557   1.309   5.868  0.6111 -0.1287  0.2874
  377MOL0     C50787   5.444   1.367   5.930  0.2279 -1.6209  0.3275
  377MOL0     C50788   5.307   1.358   5.863  0.0808  0.4651 -0.1290
  377MOL0     C50789   5.458   1.456   6.035 -0.3378  0.9465 -0.5701
  377MOL0     C50790   5.343   1.517   6.100 -0.2799 -0.5751  0.5806
  377MOL0     O50791   5.346   1.651   6.125 -0.7750  0.4858  0.1288
  377MOL0     C50792   5.237   1.702   6.195 -0.0874 -0.2991  0.0726
  377MOL0     C50793   5.225   1.677   6.337  0.6728  0.6165 -0.0088
  377MOL0     C50794   5.138   1.740   6.417  0.6396  0.3366  0.5461
  377MOL0     C50795   5.053   1.834   6.367  0.9545 -0.1983 -0.0352
  377MOL0     O50796   4.977   1.904   6.458 -0.0657 -0.3506 -0.3452
  377MOL0     C50797   4.850   1.968   6.434  0.7860 -0.3158  0.2596
  377MOL0     C50798   4.742   1.860   6.387 -0.1234 -0.2656 -0.1382
  377MOL0     C50799   4.614   1.913   6.318  0.2828  0.1020 -0.4512
  377MOL0     C50800   4.540   1.816   6.229  1.0405 -0.8094 -0.2769
  377MOL0     C50801   4.404   1.878   6.184 -0.1326  0.3955 -0.3406
  377MOL0     C50802   4.317   1.765   6.113  0.7971 -0.2576  0.0530
  377MOL0     C50803   4.373   1.747   5.978  0.1579  0.1615  0.4850
  377MOL0     C50804   4.288   1.631   5.910 -0.3673 -1.0307  0.5485
  377MOL0    Cl50805   4.332   1.467   5.975  0.2764 -0.4701  0.3969
  377MOL0     C50806   5.059   1.862   6.229  0.0850 -0.7871  0.2216
  377MOL0     C50807   5.162   1.808   6.147  0.3170  0.1778 -0.0180
  377MOL0     O50808   5.253   1.441   6.146  0.5742  0.0048 -0.0456
  377MOL0     C50809   5.592   1.472   6.079 -0.2735  0.0493 -0.3545
  377MOL0     C50810   5.701   1.396   6.029  0.1559 -0.1761  0.1099
  377MOL0     N50811   6.453   1.070   5.941  0.0828 -0.1844 -0.5213
  377MOL0     N50812   6.571   1.116   5.956 -0.6362  0.0634  0.3032
  377MOL0     C50813   7.785   1.310   5.916 -0.4616  0.1412 -0.6006
  377MOL0     C50814   7.910   1.349   5.966  0.1379 -0.2129  0.1984
  377MOL0     C50815   8.352   1.508   5.984 -0.2256 -0.1474  0.3585
  377MOL0     C50816   8.458   1.571   5.927 -0.5940 -0.4390 -0.5378
  377MOL0     C50817   8.590   1.577   5.981 -0.6610  0.7804  0.4721
  377MOL0     C50818   8.608   1.520   6.109  0.3248  0.1689  0.6781
  377MOL0     O50819   8.730   1.522   6.181 -0.0348 -0.0335 -0.2817
  377MOL0     C50820   8.843   1.586   6.128  0.4097 -0.2073  1.4308
  377MOL0     C50821   8.938   1.613   6.247 -0.2354  0.6092 -0.6689
  377MOL0     C50822   9.046   1.716   6.221 -0.4886  0.3262 -0.4060
  377MOL0     C50823   9.141   1.715   6.340  0.0783 -0.3747 -0.6064
  377MOL0     C50824   9.206   1.595   6.358  0.6743 -0.3431 -0.1632
  377MOL0     C50825   9.266   1.486   6.350 -0.1656 -0.7684  0.1999
  377MOL0     C50826   8.496   1.464   6.174 -0.4745 -0.2108 -0.2104
  377MOL0     C50827   8.379   1.450   6.106 -0.2107  0.1796 -0.4422
  377MOL0     H50828   8.094   1.327   5.689  0.0681 -4.9396 -0.3650
  377MOL0     H50829   7.888   1.261   5.598  0.7030 -1.7008  0.5629
  377MOL0     H50830   7.571   1.147   5.854  0.1290 -1.0034 -0.3682
  377MOL0     H50831   7.510   1.313   5.840 -3.3860 -0.2463 -2.2763
  377MOL0     H50832   7.425   1.248   5.610  1.6370  0.8377  0.4527
  377MOL0     H50833   7.458   1.081   5.667  3.2191  1.1544 -3.4606
  377MOL0     H50834   7.292   1.103   5.842 -0.8058  1.7820  0.8856
  377MOL0     H50835   7.277   1.275   5.816  3.9670  1.0750  1.5343
  377MOL0     H50836   7.200   1.228   5.594  0.9106 -0.9251  0.3583
  377MOL0     H50837   7.186   1.057   5.625 -3.6460 -1.7964  1.6847
  377MOL0     H50838   7.015   1.066   5.792 -2.1018  0.5462 -0.5260
  377MOL0     H50839   7.043   1.237   5.823 -0.3163  2.8876 -1.9755
  377MOL0     H50840   6.941   1.299   5.602 -3.0537  0.2702 -0.1688
  377MOL0     H50841   6.959   1.131   5.549 -1.9761 -0.1263 -1.7468
  377MOL0     H50842   6.725   1.186   5.601 -0.7257 -2.4098  1.7659
  377MOL0     H50843   6.784   1.058   5.702  1.4260  0.2212  0.1027
  377MOL0     H50844   6.748   1.346   5.797 -0.9802  0.5004 -1.1499
  377MOL0     H50845   6.804   1.220   5.900 -0.1476 -0.2266  1.3300
  377MOL0     H50846   6.470   1.259   5.687  0.6352 -1.0505 -0.7503
  377MOL0     H50847   6.250   1.079   5.683 -0.6202 -1.4999  0.0751
  377MOL0     H50848   6.207   1.026   5.847 -0.5388  1.8606  1.4838
  377MOL0     H50849   6.172   1.309   5.734 -1.7906 -0.2850 -0.6883
  377MOL0     H50850   6.188   1.275   5.905  3.1261 -0.3090 -0.6081
  377MOL0     H50851   6.004   1.089   5.860 -0.4839 -0.5152 -0.8557
  377MOL0     H50852   5.987   1.173   5.706 -1.6518  2.9444  0.7574
  377MOL0     H50853   5.943   1.387   5.852 -2.1038  0.8226  1.5139
  377MOL0     H50854   5.947   1.272   5.982  0.2031  1.5830  0.4677
  377MOL0     H50855   5.545   1.245   5.781  2.7546 -0.9164  0.5142
  377MOL0     H50856   5.233   1.332   5.939  1.1014  1.7505  1.3501
  377MOL0     H50857   5.281   1.451   5.811  0.0862  0.5583  0.0352
  377MOL0     H50858   5.308   1.287   5.779  2.5957  2.1925 -1.6794
  377MOL0     H50859   5.294   1.612   6.389  1.6148  1.8113  0.2795
  377MOL0     H50860   5.133   1.743   6.525  0.1854  1.8538  0.5074
  377MOL0     H50861   4.825   2.030   6.520 -0.5517  1.5069 -1.3671
  377MOL0     H50862   4.866   2.033   6.348  0.6134 -1.2325 -0.4750
  377MOL0     H50863   4.799   1.798   6.317  0.7879  0.2776  0.0908
  377MOL0     H50864   4.709   1.805   6.475 -0.5420  0.2890  0.0566
  377MOL0     H50865   4.655   1.988   6.249 -1.6134  2.3447  0.7092
  377MOL0     H50866   4.545   1.958   6.390  1.6270  0.8421  0.4123
  377MOL0     H50867   4.599   1.795   6.139  0.5227 -0.8846 -0.6053
  377MOL0     H50868   4.527   1.728   6.293  0.5495  1.9108  3.6845
  377MOL0     H50869   4.426   1.966   6.123  0.1357  0.8960  0.4605
  377MOL0     H50870   4.349   1.909   6.273 -2.0379 -2.6299 -0.3033
  377MOL0     H50871   4.313   1.674   6.173  1.7477  1.0384  2.2129
  377MOL0     H50872   4.213   1.797   6.102  0.6347 -1.3356 -2.2397
  377MOL0     H50873   4.474   1.707   5.990  0.1419 -0.4075 -1.0545
  377MOL0     H50874   4.376   1.837   5.916  1.0089  0.3385  0.7732
  377MOL0     H50875   4.310   1.627   5.803  2.0012 -3.7938  1.0276
  377MOL0     H50876   4.179   1.643   5.922 -0.0683 -0.0924  3.0098
  377MOL0     H50877   4.991   1.938   6.192  0.0784 -0.5471  0.7185
  377MOL0     H50878   5.190   1.855   6.053 -0.0037 -0.9957 -0.7193
  377MOL0     H50879   5.605   1.526   6.172 -1.2077 -4.2023  2.5592
  377MOL0     H50880   5.799   1.418   6.071 -0.2976  1.0338  0.5975
  377MOL0     H50881   7.693   1.306   5.973 -0.4518 -2.8571 -0.6124
  377MOL0     H50882   7.914   1.365   6.074 -0.6586 -0.4412  0.2631
  377MOL0     H50883   8.452   1.617   5.829  3.8093 -2.5954 -2.0648
  377MOL0     H50884   8.670   1.619   5.920 -0.7717 -1.2328 -1.1751
  377MOL0     H50885   8.883   1.527   6.045 -0.1920  0.4149  0.6844
  377MOL0     H50886   8.820   1.683   6.082  1.7121 -0.9680 -1.0220
  377MOL0     H50887   8.977   1.520   6.289  2.4375  1.1664 -1.6937
  377MOL0     H50888   8.878   1.653   6.329  1.9305 -2.1738  2.5478
  377MOL0     H50889   8.992   1.809   6.201  1.8312  2.0268  0.7994
  377MOL0     H50890   9.112   1.705   6.134 -1.0714  3.1690 -1.3244
  377MOL0     H50891   9.089   1.750   6.430 -2.2720  1.2136 -2.4647
  377MOL0     H50892   9.222   1.787   6.322  1.2283 -1.9940 -2.1948
  377MOL0     H50893   9.322   1.397   6.329  0.9175  0.5878 -3.3314
  377MOL0     H50894   8.503   1.439   6.280 -1.0182  1.5482  0.2817
  377MOL0     H50895   8.289   1.406   6.147 -1.2742  1.5993 -1.1819
  378MOL0     O50896   6.498   2.251   9.858 -0.0198  0.5484 -0.3425
  378MOL0     C50897   6.431   2.192   9.945 -0.2779  0.4877  0.1443
  378MOL0     O50898   6.297   2.203   9.965 -0.1170  0.2197  0.3473
  378MOL0     C50899   6.219   2.305   9.909  0.4841  0.0208 -0.1157
  378MOL0     C50900   6.261   2.430   9.855  0.1561 -0.2891 -0.1758
  378MOL0     C50901   6.170   2.512   9.786  0.1226 -0.8849  0.1066
  378MOL0     C50902   6.034   2.476   9.766 -0.2824  0.1842 -0.8013
  378MOL0     O50903   5.945   2.556   9.694 -0.0500  0.7281  0.6889
  378MOL0     C50904   5.875   2.483   9.597  0.0081  0.2296  0.6857
  378MOL0     C50905   5.832   2.572   9.485 -0.1059 -0.3795  0.2434
  378MOL0     C50906   5.951   2.640   9.430 -0.9698 -0.1698 -0.5377
  378MOL0     C50907   5.895   2.732   9.326 -0.5750  0.2713  0.1225
  378MOL0     C50908   5.997   2.830   9.265 -0.1224 -0.3327 -0.3538
  378MOL0     C50909   5.947   2.919   9.150  1.7676  0.4599 -0.0045
  378MOL0     C50910   6.033   3.027   9.099 -0.4579 -0.2766  0.5693
  378MOL0     C50911   6.048   3.127   9.206 -0.6436  0.1432 -0.3725
  378MOL0     N50912   6.119   3.258   9.176 -0.5258  0.0686  0.0988
  378MOL0     C50913   6.171   3.293   9.060 -0.7799  0.3577  0.5466
  378MOL0     C50914   6.238   3.405   9.088 -0.4821  0.8211  0.2626
  378MOL0     C50915   6.308   3.498   8.990  0.3931  0.6120  0.1922
  378MOL0     C50916   6.458   3.471   8.985 -0.5708  0.7362 -0.3259
  378MOL0     C50917   6.524   3.533   9.116 -0.8203  0.2701 -0.3819
  378MOL0     C50918   6.680   3.542   9.097 -0.2064  0.1851 -0.0369
  378MOL0     O50919   6.710   3.641   9.006  0.1611 -1.1727 -0.1605
  378MOL0     C50920   6.827   3.629   8.938 -0.3407  0.5243  1.5600
  378MOL0     C50921   6.848   3.522   8.843 -1.1940  0.2731  0.4619
  378MOL0     C50922   6.970   3.516   8.767 -0.2928 -0.9050  0.1298
  378MOL0     C50923   6.976   3.409   8.658  0.2079 -0.0503  0.4815
  378MOL0     C50924   7.078   3.616   8.791 -0.2385 -0.3371  0.0666
  378MOL0     C50925   7.196   3.625   8.702 -0.5044  0.2212 -0.3331
  378MOL0     O50926   7.291   3.699   8.749  0.4230 -0.0299  0.0650
  378MOL0     C50927   7.406   3.731   8.685 -0.3088 -0.1349 -0.2860
  378MOL0     C50928   7.408   3.827   8.581 -0.3458  0.3332  0.4669
  378MOL0     C50929   7.527   3.842   8.512 -0.1462 -0.6096  0.1903
  378MOL0     C50930   7.650   3.799   8.559  0.1449 -1.2007 -0.3047
  378MOL0     O50931   7.762   3.833   8.489 -0.4292 -0.5045  0.2417
  378MOL0     C50932   7.893   3.810   8.537  0.1838  0.2456 -0.5188
  378MOL0     C50933   7.992   3.871   8.444  0.0715 -0.6280  0.8526
  378MOL0     C50934   8.126   3.906   8.503  0.2687 -0.4874 -0.2263
  378MOL0     C50935   8.242   3.945   8.409  1.0434 -0.5825 -0.4486
  378MOL0     C50936   8.353   4.034   8.471 -1.2112 -0.1384  0.6701
  378MOL0     C50937   8.408   3.978   8.603 -0.5092  0.7852 -0.1661
  378MOL0     C50938   8.513   3.856   8.576  0.7865  0.1060  0.4225
  378MOL0     C50939   8.595   3.809   8.701 -0.0743  0.1132 -0.5097
  378MOL0    Cl50940   8.479   3.770   8.833 -0.1155  0.1982  0.3387
  378MOL0     C50941   7.654   3.726   8.678 -0.1305  0.0041  0.3034
  378MOL0     C50942   7.530   3.675   8.734 -0.0333 -0.6171 -0.8076
  378MOL0     O50943   7.206   3.560   8.597 -0.3501  0.5252 -0.6051
  378MOL0     C50944   7.057   3.710   8.895 -0.1820  0.5210  0.8464
  378MOL0     C50945   6.935   3.714   8.959 -0.3352  0.5552 -0.8231
  378MOL0     N50946   6.253   3.417   9.222 -0.3251 -0.1037 -0.6789
  378MOL0     N50947   6.183   3.325   9.280  0.5490 -1.1581 -0.0549
  378MOL0     C50948   6.003   2.346   9.809  0.4298  0.3854 -0.4928
  378MOL0     C50949   6.089   2.257   9.878 -0.0968  0.9855  0.2539
  378MOL0     C50950   6.496   2.074  10.018  0.0130 -0.7146 -1.2254
  378MOL0     C50951   6.637   2.059  10.026 -0.1619 -0.5243 -0.2178
  378MOL0     C50952   6.697   1.949  10.083  0.0434  0.2446  0.0623
  378MOL0     C50953   6.625   1.845  10.143  0.6952 -0.9702 -0.0941
  378MOL0     O50954   6.686   1.735  10.186 -0.4344 -0.3193  0.0384
  378MOL0     C50955   6.809   1.691  10.121  0.6490  0.1827 -0.3610
  378MOL0     C50956   6.800   1.653   9.975 -0.5928 -0.4766  0.0343
  378MOL0     C50957   6.695   1.543   9.950 -0.4966  0.6496  0.4339
  378MOL0     C50958   6.739   1.404  10.017 -0.5285  0.3595 -0.2329
  378MOL0     C50959   6.869   1.363   9.957 -0.3963 -0.2862 -0.1943
  378MOL0     C50960   6.970   1.353   9.891 -0.5510  0.0654 -0.6316
  378MOL0     C50961   6.488   1.862  10.137 -0.2057 -0.4132  0.4457
  378MOL0     C50962   6.423   1.970  10.083  0.0427 -0.4032 -1.1240
  378MOL0     H50963   6.361   2.465   9.881  0.3224  0.9501 -2.2580
  378MOL0     H50964   6.212   2.602   9.743  0.2434 -1.3364 -0.7485
  378MOL0     H50965   5.939   2.402   9.561 -0.1602 -0.6755  2.2998
  378MOL0     H50966   5.791   2.427   9.639  0.5531 -2.4040 -1.4817
  378MOL0     H50967   5.766   2.517   9.418  0.5904 -1.4216  0.3810
  378MOL0     H50968   5.766   2.647   9.529 -0.7770 -1.5453  1.3160
  378MOL0     H50969   5.992   2.704   9.508 -2.7785 -0.0386  0.3668
  378MOL0     H50970   6.034   2.577   9.397  0.3296 -0.0113  2.1682
  378MOL0     H50971   5.853   2.663   9.252  3.5482 -1.8904 -0.4914
  378MOL0     H50972   5.816   2.800   9.359  0.1462  0.4718  1.5045
  378MOL0     H50973   6.020   2.898   9.347 -1.8715 -0.4964  0.3136
  378MOL0     H50974   6.088   2.777   9.235  1.4571  2.2200 -0.4324
  378MOL0     H50975   5.922   2.854   9.066 -0.2354  0.4016  0.5892
  378MOL0     H50976   5.851   2.954   9.188 -0.2174 -4.1839 -0.0926
  378MOL0     H50977   6.130   2.988   9.068 -1.1969 -2.9553  1.3458
  378MOL0     H50978   5.989   3.074   9.010  1.6368  1.7750  0.5178
  378MOL0     H50979   6.116   3.070   9.270 -1.1445  2.5045  2.4533
  378MOL0     H50980   5.953   3.154   9.253  0.8623  0.8795  2.4822
  378MOL0     H50981   6.158   3.239   8.967  0.3175  0.1665  0.4877
  378MOL0     H50982   6.267   3.481   8.890 -1.8137 -1.3655  1.3434
  378MOL0     H50983   6.288   3.602   9.019 -1.5350 -0.2666  2.2921
  378MOL0     H50984   6.503   3.521   8.899  0.2273  0.1477 -0.2574
  378MOL0     H50985   6.480   3.365   8.972  2.8685  1.1860  0.9466
  378MOL0     H50986   6.503   3.466   9.199 -2.8436 -4.3555 -4.1653
  378MOL0     H50987   6.472   3.626   9.141 -1.9717 -0.1114 -1.2998
  378MOL0     H50988   6.708   3.444   9.058  0.3211 -0.2365  1.3438
  378MOL0     H50989   6.720   3.555   9.198  2.7137  0.7171 -1.1529
  378MOL0     H50990   6.766   3.455   8.820 -0.1211 -1.5930  1.7901
  378MOL0     H50991   6.970   3.460   8.562  3.6990  0.6446  0.4886
  378MOL0     H50992   7.065   3.346   8.663  1.0768  1.2323  2.5671
  378MOL0     H50993   6.890   3.341   8.659  1.0282 -1.1569 -0.6000
  378MOL0     H50994   7.311   3.866   8.550 -0.9214  0.1245  1.9360
  378MOL0     H50995   7.530   3.894   8.417  0.0876 -4.3118 -1.9818
  378MOL0     H50996   7.897   3.855   8.636 -0.0427 -1.8834  0.5224
  378MOL0     H50997   7.915   3.703   8.541 -0.7449  0.0784  0.9312
  378MOL0     H50998   8.015   3.798   8.365  0.4710 -0.8020  1.1259
  378MOL0     H50999   7.954   3.963   8.399  0.4127 -1.8957 -2.3057
  378MOL0     H51000   8.152   3.814   8.556  1.2168 -0.5744 -0.8065
  378MOL0     H51001   8.114   3.978   8.584  0.4218 -0.1529 -0.5004
  378MOL0     H51002   8.271   3.854   8.355 -2.2634 -3.0131  1.4626
  378MOL0     H51003   8.206   4.009   8.329 -0.5612 -1.6082 -0.5989
  378MOL0     H51004   8.315   4.134   8.492  0.5108  0.4848  0.9300
  378MOL0     H51005   8.437   4.051   8.403 -1.6125 -0.8194 -0.0176
  378MOL0     H51006   8.454   4.064   8.653 -2.0790  2.4844 -1.4701
  378MOL0     H51007   8.325   3.942   8.664  2.4302 -1.6172  2.7776
  378MOL0     H51008   8.589   3.883   8.502 -0.5482  0.2931 -0.9145
  378MOL0     H51009   8.452   3.780   8.527 -0.1722  0.8120  0.5095
  378MOL0     H51010   8.663   3.887   8.735 -1.8611  0.8758  1.5438
  378MOL0     H51011   8.647   3.716   8.677  0.3757 -0.1053  1.1790
  378MOL0     H51012   7.751   3.700   8.719  0.4423 -0.0990 -1.0549
  378MOL0     H51013   7.533   3.596   8.808 -0.7911  0.8159  0.8334
  378MOL0     H51014   7.133   3.786   8.915  1.1704 -1.2246  2.8392
  378MOL0     H51015   6.924   3.797   9.028  0.7909  1.3319 -1.5509
  378MOL0     H51016   5.902   2.312   9.791 -0.0019 -0.2889  2.6726
  378MOL0     H51017   6.051   2.161   9.908  1.6045  0.3333  0.4506
  378MOL0     H51018   6.697   2.132   9.974  0.8419 -2.6019 -2.1550
  378MOL0     H51019   6.804   1.949  10.068 -0.1711  2.3016 -1.9503
  378MOL0     H51020   6.888   1.767  10.121 -0.8287  1.8123 -1.6391
  378MOL0     H51021   6.844   1.600  10.170  1.2173 -0.6004 -2.1401
  378MOL0     H51022   6.898   1.616   9.943 -1.9023 -3.4354 -0.9084
  378MOL0     H51023   6.779   1.744   9.919 -0.6076 -0.9422 -0.7367
  378MOL0     H51024   6.692   1.530   9.841  3.4063  1.6021  0.0438
  378MOL0     H51025   6.595   1.574   9.980 -1.7060 -1.8926 -0.6660
  378MOL0     H51026   6.655   1.334  10.011 -3.0724  3.2612 -0.9342
  378MOL0     H51027   6.751   1.410  10.125 -2.2287  2.0733 -0.0854
  378MOL0     H51028   7.064   1.330   9.845  0.5510 -0.2164  1.6188
  378MOL0     H51029   6.431   1.777  10.173 -1.5554  0.1773 -0.2330
  378MOL0     H51030   6.315   1.969  10.077  0.0080 -1.3530 -0.6157
  379MOL0     O51031   0.201   6.772   8.572  0.1365  0.2748 -0.1935
  379MOL0     C51032   0.305   6.726   8.525  0.3995 -0.0097  0.3131
  379MOL0     O51033   0.315   6.620   8.445 -0.3858 -0.4414 -0.7898
  379MOL0     C51034   0.203   6.537   8.426  0.6465 -0.4024 -0.0955
  379MOL0     C51035   0.171   6.432   8.510 -0.2780 -0.2117 -0.1467
  379MOL0     C51036   0.064   6.351   8.476 -0.1324 -0.1792 -0.5188
  379MOL0     C51037  -0.019   6.373   8.373 -0.8992 -0.2561  0.9168
  379MOL0     O51038  -0.133   6.295   8.331 -0.0372 -0.5827 -0.2443
  379MOL0     C51039  -0.194   6.210   8.429  0.3967 -0.1946  0.7689
  379MOL0     C51040  -0.333   6.157   8.376 -0.0581 -0.0593  0.6450
  379MOL0     C51041  -0.443   6.263   8.357  0.7827  0.1202 -0.6690
  379MOL0     C51042  -0.484   6.325   8.500 -0.6741  0.7706  1.3527
  379MOL0     C51043  -0.610   6.409   8.496  0.3817 -0.2352 -1.2592
  379MOL0     C51044  -0.732   6.334   8.439  0.5475 -0.0431 -0.1033
  379MOL0     C51045  -0.860   6.425   8.463 -0.6145  0.3239  0.1307
  379MOL0     C51046  -0.987   6.354   8.408 -0.2586  0.0105 -0.6345
  379MOL0     N51047  -1.111   6.430   8.430 -0.4544 -0.1290  0.0876
  379MOL0     C51048  -1.220   6.370   8.482  0.5401  0.0819  0.4509
  379MOL0     C51049  -1.330   6.450   8.447 -0.4421 -0.1942 -0.4047
  379MOL0     C51050  -1.471   6.415   8.468 -0.3859  0.0794 -0.2496
  379MOL0     C51051  -1.568   6.524   8.424 -0.9046 -0.0662 -0.1335
  379MOL0     C51052  -1.710   6.460   8.436  0.1687 -0.1230  0.0485
  379MOL0     C51053  -1.807   6.544   8.363  0.7760  0.4105  0.5582
  379MOL0     O51054  -1.930   6.474   8.356 -0.0115 -0.1399 -0.2330
  379MOL0     C51055  -2.042   6.557   8.342 -0.4627  0.4530 -0.3139
  379MOL0     C51056  -2.164   6.496   8.371  0.0701  0.3837  0.8507
  379MOL0     C51057  -2.285   6.565   8.363  0.1856  0.1234  0.5768
  379MOL0     C51058  -2.406   6.480   8.402  0.1263 -0.0256  0.5876
  379MOL0     C51059  -2.282   6.708   8.328 -0.6963  0.3372  0.0278
  379MOL0     C51060  -2.396   6.787   8.283  0.2915 -0.1452  0.4226
  379MOL0     O51061  -2.379   6.925   8.277 -1.1253 -0.2490  0.1726
  379MOL0     C51062  -2.486   6.999   8.238  0.2235  0.5100  0.8141
  379MOL0     C51063  -2.476   7.079   8.120 -0.0657 -0.4069 -0.1207
  379MOL0     C51064  -2.578   7.171   8.090  0.1901  0.8337 -0.1953
  379MOL0     C51065  -2.691   7.182   8.171 -0.1295 -0.2678 -0.2513
  379MOL0     O51066  -2.792   7.261   8.125  0.5381  0.6044  0.3090
  379MOL0     C51067  -2.931   7.221   8.149 -0.6291 -0.2848 -0.1740
  379MOL0     C51068  -3.015   7.303   8.057 -0.0732 -0.0201 -0.1844
  379MOL0     C51069  -3.165   7.267   8.069  0.6206 -0.0587 -0.5068
  379MOL0     C51070  -3.221   7.356   8.179  0.5585 -0.4338 -0.0020
  379MOL0     C51071  -3.264   7.484   8.107  0.9036 -0.1213  0.2260
  379MOL0     C51072  -3.363   7.568   8.188  0.3949 -0.6564  0.4868
  379MOL0     C51073  -3.300   7.643   8.308  0.0464  0.0780  0.3215
  379MOL0     C51074  -3.386   7.753   8.360  0.1488  0.4046  0.1082
  379MOL0    Cl51075  -3.534   7.678   8.423 -0.0292 -0.1317  0.4316
  379MOL0     C51076  -2.700   7.106   8.287 -0.1928  0.6385  0.1979
  379MOL0     C51077  -2.602   7.013   8.319  0.0578 -0.3700  0.1951
  379MOL0     O51078  -2.504   6.727   8.254 -0.4956 -0.3537  0.1036
  379MOL0     C51079  -2.155   6.768   8.312 -0.0057  0.2712 -0.1425
  379MOL0     C51080  -2.040   6.695   8.312  0.2133 -0.8044 -0.7736
  379MOL0     N51081  -1.276   6.556   8.381  0.8388  0.3127 -0.7006
  379MOL0     N51082  -1.150   6.550   8.369  0.2266 -0.5599  0.0818
  379MOL0     C51083   0.015   6.482   8.288 -0.9481  0.3132  0.3251
  379MOL0     C51084   0.131   6.556   8.311 -0.2866  0.0641  0.4771
  379MOL0     C51085   0.426   6.791   8.565 -0.2983 -0.2095 -0.7637
  379MOL0     C51086   0.556   6.728   8.563  0.2202 -0.0947 -0.1949
  379MOL0     C51087   0.673   6.795   8.602  0.3007  0.5342 -0.2571
  379MOL0     C51088   0.665   6.924   8.649 -0.6114 -0.7731 -0.6599
  379MOL0     O51089   0.780   6.991   8.675  0.8192  0.2792 -0.1060
  379MOL0     C51090   0.777   7.080   8.792 -0.0145 -0.4258  0.1991
  379MOL0     C51091   0.925   7.089   8.852  0.2389 -0.1035  0.0784
  379MOL0     C51092   0.965   6.955   8.932 -0.0926  0.7503 -0.1545
  379MOL0     C51093   1.103   6.980   9.002  0.1511 -0.5899  0.5291
  379MOL0     C51094   1.222   6.962   8.915  0.5247  0.1912  0.1036
  379MOL0     C51095   1.314   6.962   8.833  0.3137  0.1019 -0.3327
  379MOL0     C51096   0.543   6.989   8.650 -0.5770  0.0291  0.3691
  379MOL0     C51097   0.423   6.931   8.601  0.1274 -0.1407  0.2270
  379MOL0     H51098   0.221   6.414   8.604  0.1370  1.1865 -0.0753
  379MOL0     H51099   0.036   6.275   8.549 -0.1618 -0.3946 -0.7544
  379MOL0     H51100  -0.135   6.119   8.441 -0.6763 -0.7171  2.5134
  379MOL0     H51101  -0.208   6.271   8.518  0.4144 -0.1952  0.7721
  379MOL0     H51102  -0.323   6.116   8.275 -2.3150 -1.1293  0.8087
  379MOL0     H51103  -0.369   6.071   8.434  1.6001 -1.2916 -0.0533
  379MOL0     H51104  -0.413   6.351   8.300  1.8421  0.0889 -0.1811
  379MOL0     H51105  -0.531   6.221   8.307 -1.4456 -0.7924  3.5724
  379MOL0     H51106  -0.513   6.240   8.563 -1.8042 -0.0420 -0.1999
  379MOL0     H51107  -0.399   6.386   8.533  0.3792 -0.6452  1.3264
  379MOL0     H51108  -0.637   6.451   8.594 -2.7240 -0.5393 -1.9139
  379MOL0     H51109  -0.601   6.499   8.434  0.9588  0.9636  0.4571
  379MOL0     H51110  -0.727   6.315   8.332  0.1481  0.0671 -0.1423
  379MOL0     H51111  -0.744   6.240   8.493  3.4896  0.4770  1.7067
  379MOL0     H51112  -0.862   6.432   8.572  0.3342 -0.7246  0.2345
  379MOL0     H51113  -0.857   6.526   8.421  1.1708  0.0291 -0.5647
  379MOL0     H51114  -0.988   6.259   8.464  0.6483 -0.0135 -0.6407
  379MOL0     H51115  -0.974   6.325   8.304  2.9220 -2.1687  0.2100
  379MOL0     H51116  -1.226   6.276   8.534  3.0025  0.9252  2.4685
  379MOL0     H51117  -1.492   6.322   8.415 -3.0360 -0.2113  1.1392
  379MOL0     H51118  -1.487   6.388   8.573 -2.3321  2.0538  0.0280
  379MOL0     H51119  -1.544   6.540   8.318 -0.3343  1.0752  0.1617
  379MOL0     H51120  -1.572   6.614   8.486 -2.8065  1.9083 -2.8975
  379MOL0     H51121  -1.738   6.459   8.542 -1.6269  1.5084 -0.3611
  379MOL0     H51122  -1.712   6.360   8.391 -0.5231  1.1159 -2.8795
  379MOL0     H51123  -1.763   6.570   8.267  0.3290  0.9824  0.5034
  379MOL0     H51124  -1.833   6.629   8.427 -1.9620 -0.7268  1.0611
  379MOL0     H51125  -2.172   6.392   8.400  3.2493 -1.0303 -2.4868
  379MOL0     H51126  -2.434   6.415   8.319 -1.3126 -0.1649  1.1534
  379MOL0     H51127  -2.383   6.419   8.490 -0.6079  3.0792  3.1148
  379MOL0     H51128  -2.489   6.546   8.427 -0.3218 -0.0476 -0.7804
  379MOL0     H51129  -2.392   7.073   8.051  2.3987  1.5208  2.4128
  379MOL0     H51130  -2.571   7.230   7.999 -3.6829 -2.2169 -2.8136
  379MOL0     H51131  -2.953   7.114   8.137  3.8429 -1.7804  2.6529
  379MOL0     H51132  -2.956   7.243   8.253 -0.0564  0.9788 -0.2863
  379MOL0     H51133  -2.996   7.409   8.078  1.2555 -0.1591 -0.5926
  379MOL0     H51134  -2.983   7.282   7.955 -0.3724  0.9867 -0.5007
  379MOL0     H51135  -3.194   7.162   8.080 -3.0244  0.5773 -2.4698
  379MOL0     H51136  -3.220   7.284   7.976 -1.6798  0.0081  0.7870
  379MOL0     H51137  -3.314   7.316   8.219  1.2004 -0.6617  1.3163
  379MOL0     H51138  -3.149   7.372   8.260  0.1131  1.6922  0.0403
  379MOL0     H51139  -3.310   7.461   8.011  2.2322  0.4765 -0.5949
  379MOL0     H51140  -3.171   7.535   8.077  0.2287  1.6793  1.0112
  379MOL0     H51141  -3.414   7.632   8.115 -2.3603 -0.6189  2.2778
  379MOL0     H51142  -3.448   7.515   8.233 -0.0047  1.8745  2.9472
  379MOL0     H51143  -3.212   7.702   8.279  0.4784 -1.2794 -1.3061
  379MOL0     H51144  -3.280   7.570   8.387 -0.5521 -0.3302  0.1009
  379MOL0     H51145  -3.403   7.832   8.286 -0.9903 -0.4062 -0.5303
  379MOL0     H51146  -3.325   7.800   8.438  0.7805  0.0264 -0.1544
  379MOL0     H51147  -2.780   7.110   8.360  0.8138  0.3136  1.3501
  379MOL0     H51148  -2.610   6.958   8.412 -1.1043  1.3890  1.1696
  379MOL0     H51149  -2.135   6.874   8.298  1.5378 -0.0175 -0.3374
  379MOL0     H51150  -1.952   6.747   8.277  1.8525 -1.0939  2.5153
  379MOL0     H51151  -0.041   6.522   8.204  1.8839  0.2563 -1.7332
  379MOL0     H51152   0.164   6.634   8.242  0.0463 -0.4826  0.0073
  379MOL0     H51153   0.571   6.633   8.512 -0.5837 -0.1061 -0.4276
  379MOL0     H51154   0.775   6.758   8.594  0.7691  1.3663  1.4314
  379MOL0     H51155   0.750   7.180   8.757 -2.1379 -2.1254 -3.6804
  379MOL0     H51156   0.700   7.057   8.866 -1.1975 -0.2886 -0.9444
  379MOL0     H51157   0.935   7.167   8.928  1.6353  0.4602 -0.6566
  379MOL0     H51158   0.984   7.119   8.766 -3.4693  0.4533 -2.4984
  379MOL0     H51159   0.966   6.867   8.867  0.6945  1.2847 -0.8830
  379MOL0     H51160   0.896   6.938   9.015 -0.3649  1.1543 -0.2985
  379MOL0     H51161   1.109   6.913   9.088 -2.4674 -2.7747 -0.8136
  379MOL0     H51162   1.108   7.079   9.049  0.1533  0.2945 -1.2540
  379MOL0     H51163   1.392   6.978   8.762 -0.1364 -1.0323 -1.1263
  379MOL0     H51164   0.518   7.093   8.670 -1.7245 -0.2252  0.3190
  379MOL0     H51165   0.327   6.982   8.605 -0.8813 -1.9855  1.9048
  380MOL0     O51166   5.486   5.174  10.381 -0.1742 -0.1380 -0.2904
  380MOL0     C51167   5.511   5.054  10.382 -0.0741  0.2168 -0.5462
  380MOL0     O51168   5.456   4.962  10.295 -0.3580 -0.1402  0.0657
  380MOL0     C51169   5.329   4.973  10.245 -0.7465 -0.4926 -0.2130
  380MOL0     C51170   5.310   4.933  10.114  0.7433  0.2907 -0.3337
  380MOL0     C51171   5.187   4.958  10.055  0.1104  1.0461  0.2548
  380MOL0     C51172   5.080   5.019  10.124 -0.1158  0.0567  0.0668
  380MOL0     O51173   4.970   5.050  10.056 -0.7926  0.0107 -0.7014
  380MOL0     C51174   4.899   4.930  10.016 -0.0245 -0.1432 -1.3107
  380MOL0     C51175   4.766   4.964   9.952 -0.0397  0.0874 -0.6519
  380MOL0     C51176   4.710   4.836   9.882  0.5143  0.4638  0.0543
  380MOL0     C51177   4.597   4.862   9.782 -0.0280 -0.4351 -0.5921
  380MOL0     C51178   4.466   4.923   9.841  0.2271 -0.4178  1.7614
  380MOL0     C51179   4.402   4.833   9.939  0.9823 -0.2091 -0.5618
  380MOL0     C51180   4.277   4.898   9.992  0.9646  0.2330 -0.2389
  380MOL0     C51181   4.227   4.800  10.109  0.1050 -0.9126  0.1748
  380MOL0     N51182   4.089   4.829  10.145  0.5040  0.3852  0.1815
  380MOL0     C51183   4.013   4.765  10.235  0.0042  0.3441  0.1076
  380MOL0     C51184   3.899   4.841  10.260 -0.2540  0.7438 -0.1543
  380MOL0     C51185   3.796   4.806  10.365  0.7682 -0.4601 -0.2766
  380MOL0     C51186   3.650   4.861  10.339 -0.5195  0.1481 -0.6610
  380MOL0     C51187   3.633   5.014  10.328  0.3199 -0.1571 -0.2928
  380MOL0     C51188   3.487   5.071  10.318 -0.2636 -0.6584 -0.4234
  380MOL0     O51189   3.400   5.009  10.411 -0.4592 -0.5380 -0.0660
  380MOL0     C51190   3.267   5.014  10.380 -0.6858 -0.4813 -0.0742
  380MOL0     C51191   3.201   5.110  10.295 -0.0910  0.7401  0.4500
  380MOL0     C51192   3.064   5.117  10.289  0.2869  0.5675 -0.3316
  380MOL0     C51193   3.014   5.204  10.185  0.5560 -0.7655 -0.2800
  380MOL0     C51194   2.980   5.037  10.362 -0.0011  0.6260 -0.1478
  380MOL0     C51195   2.830   5.055  10.368  0.2978  0.8493  0.2930
  380MOL0     O51196   2.767   4.950  10.429  0.5597 -0.6856 -0.1391
  380MOL0     C51197   2.629   4.962  10.434 -0.3727  0.0692  0.6595
  380MOL0     C51198   2.561   4.988  10.558 -1.4295  0.5642  0.4929
  380MOL0     C51199   2.420   4.987  10.567 -0.3485  0.0853  0.9746
  380MOL0     C51200   2.349   4.964  10.451  0.2070  0.0531  0.0592
  380MOL0     O51201   2.211   4.961  10.440 -0.7206 -0.5234  0.1088
  380MOL0     C51202   2.125   5.034  10.539 -0.3864 -0.0924  1.4438
  380MOL0     C51203   2.012   5.089  10.453 -0.2106 -0.5176 -0.9233
  380MOL0     C51204   1.922   5.159  10.552  1.2216  0.0412  0.1201
  380MOL0     C51205   1.782   5.093  10.556  0.5161 -0.1672 -0.3801
  380MOL0     C51206   1.690   5.174  10.648  0.1814  0.1278  0.3537
  380MOL0     C51207   1.605   5.075  10.736  0.1413  0.0153 -0.5729
  380MOL0     C51208   1.506   5.152  10.828 -0.6774  0.4129 -0.4194
  380MOL0     C51209   1.385   5.207  10.760  0.6309  0.1485 -0.2032
  380MOL0    Cl51210   1.300   5.336  10.851 -0.1433  0.3907  0.2943
  380MOL0     C51211   2.409   4.944  10.331 -0.0912 -0.1381  0.7275
  380MOL0     C51212   2.547   4.945  10.320  0.2080 -0.4275  0.4088
  380MOL0     O51213   2.770   5.150  10.310 -0.0035 -0.2093  0.4442
  380MOL0     C51214   3.043   4.935  10.442  0.4113 -0.2884  0.0570
  380MOL0     C51215   3.183   4.928  10.452 -0.4044  0.2825  0.2605
  380MOL0     N51216   3.904   4.950  10.172  0.6790  0.4178 -0.0324
  380MOL0     N51217   4.022   4.943  10.120  0.1422 -0.5877  0.1045
  380MOL0     C51218   5.094   5.046  10.258  0.3754 -0.4877 -0.1474
  380MOL0     C51219   5.217   5.026  10.316 -0.4405 -0.2157 -0.4554
  380MOL0     C51220   5.631   5.016  10.471  0.3034  0.4719  0.4843
  380MOL0     C51221   5.672   4.882  10.480  0.5062 -0.5640 -0.1974
  380MOL0     C51222   5.797   4.848  10.534  0.3902  0.4547 -0.7629
  380MOL0     C51223   5.886   4.950  10.573 -0.1904  0.9805  0.6283
  380MOL0     O51224   6.002   4.905  10.633 -0.7101 -0.2475  0.2991
  380MOL0     C51225   6.077   4.982  10.730 -0.5694 -0.0043  0.2132
  380MOL0     C51226   6.173   4.882  10.795 -0.1297 -0.4114  0.0279
  380MOL0     C51227   6.279   4.945  10.888  0.1779  0.0544 -0.2527
  380MOL0     C51228   6.363   4.830  10.951 -0.1143  0.3474  0.6107
  380MOL0     C51229   6.470   4.879  11.033 -0.3020 -0.2361 -0.6958
  380MOL0     C51230   6.561   4.913  11.108  1.3390  0.3463 -0.5657
  380MOL0     C51231   5.843   5.085  10.569 -0.7443 -0.3784 -0.4081
  380MOL0     C51232   5.713   5.114  10.515  0.2805 -0.0908 -0.3636
  380MOL0     H51233   5.399   4.886  10.072  0.2518 -2.1089  1.1170
  380MOL0     H51234   5.163   4.948   9.950 -0.7833  2.7468  0.2712
  380MOL0     H51235   4.966   4.886   9.942  1.9313 -0.8963  0.8052
  380MOL0     H51236   4.888   4.870  10.106 -1.4534  0.8992 -0.7602
  380MOL0     H51237   4.698   5.012  10.023  0.7190  0.7975 -0.3854
  380MOL0     H51238   4.786   5.027   9.865  0.4765 -1.8688 -2.0045
  380MOL0     H51239   4.787   4.794   9.816 -0.6515 -0.8114 -0.5393
  380MOL0     H51240   4.671   4.762   9.952 -0.6394  0.4951 -0.5376
  380MOL0     H51241   4.639   4.932   9.709  2.7327  1.3111  2.4026
  380MOL0     H51242   4.572   4.770   9.728  1.2214 -1.4548  0.5270
  380MOL0     H51243   4.500   5.024   9.867  2.3703 -0.2436 -1.1634
  380MOL0     H51244   4.394   4.937   9.761  1.8789  0.0423  0.2831
  380MOL0     H51245   4.365   4.740   9.893 -0.5935  0.0227  0.1838
  380MOL0     H51246   4.467   4.799  10.020 -1.6209 -0.2728  1.6685
  380MOL0     H51247   4.299   4.999  10.028 -1.9995  1.5258 -1.6303
  380MOL0     H51248   4.203   4.899   9.911  2.3204 -0.1738 -1.5219
  380MOL0     H51249   4.284   4.811  10.202  1.0839  1.2482 -0.6141
  380MOL0     H51250   4.227   4.699  10.065 -1.8721 -0.1041 -1.8556
  380MOL0     H51251   4.026   4.677  10.296 -0.6343 -0.8035 -1.3420
  380MOL0     H51252   3.793   4.697  10.369  0.1590 -0.5459 -2.0712
  380MOL0     H51253   3.829   4.855  10.457 -0.0889 -2.3708  1.1105
  380MOL0     H51254   3.586   4.831  10.422  0.7958 -0.4506  0.1629
  380MOL0     H51255   3.618   4.825  10.241 -0.7816  2.1738 -1.3731
  380MOL0     H51256   3.703   5.057  10.256  2.4769 -1.3528  0.9787
  380MOL0     H51257   3.666   5.045  10.428 -2.3458 -0.8925  0.9122
  380MOL0     H51258   3.461   5.067  10.211  0.3633  2.9959 -0.8277
  380MOL0     H51259   3.503   5.177  10.338  3.8537 -1.1789 -0.0798
  380MOL0     H51260   3.264   5.178  10.237 -1.2270 -0.0760 -1.8369
  380MOL0     H51261   2.968   5.158  10.097 -0.6733  1.6583 -0.9856
  380MOL0     H51262   2.947   5.282  10.219  2.3778  1.5960 -1.7966
  380MOL0     H51263   3.088   5.278  10.153  0.5479  0.0263  1.4510
  380MOL0     H51264   2.620   4.998  10.648 -0.9555 -1.2856  0.4401
  380MOL0     H51265   2.381   4.997  10.668 -0.4439  0.5283  0.8977
  380MOL0     H51266   2.088   4.965  10.615 -0.5059 -0.4884  1.0307
  380MOL0     H51267   2.187   5.108  10.591  0.6051  3.8397 -4.3053
  380MOL0     H51268   2.047   5.174  10.394  2.2672  0.6880  2.0743
  380MOL0     H51269   1.952   5.021  10.391 -0.1697 -0.6885 -0.7760
  380MOL0     H51270   1.911   5.265  10.529 -2.8559  0.1616  1.7528
  380MOL0     H51271   1.958   5.159  10.655 -1.9930  1.2500  1.3498
  380MOL0     H51272   1.736   5.098  10.457  2.2827 -2.3753 -1.3936
  380MOL0     H51273   1.784   4.987  10.584 -0.0885 -0.0891 -0.0314
  380MOL0     H51274   1.623   5.235  10.587 -0.9960 -1.1274  0.3261
  380MOL0     H51275   1.741   5.237  10.721  0.1437  0.0268  0.4673
  380MOL0     H51276   1.541   5.012  10.673  0.6130  0.2575 -1.3044
  380MOL0     H51277   1.668   5.013  10.801 -2.4498 -1.9732  0.2124
  380MOL0     H51278   1.556   5.238  10.873  1.7506 -2.0285  1.8901
  380MOL0     H51279   1.475   5.090  10.912 -2.5393  1.1554 -0.5146
  380MOL0     H51280   1.317   5.124  10.739 -1.1841  1.8801 -1.5898
  380MOL0     H51281   1.407   5.259  10.666 -3.1226  0.7058 -0.9523
  380MOL0     H51282   2.342   4.945  10.246  0.3361 -1.3522  0.3547
  380MOL0     H51283   2.591   4.926  10.222  0.1557  0.8189  0.1289
  380MOL0     H51284   2.979   4.863  10.492  3.3490 -2.9991  0.2681
  380MOL0     H51285   3.234   4.854  10.514 -0.1251 -1.1884 -1.6328
  380MOL0     H51286   5.012   5.076  10.323 -0.3525 -0.7242 -0.9369
  380MOL0     H51287   5.222   5.053  10.421 -3.8102  2.0707 -0.7182
  380MOL0     H51288   5.608   4.802  10.446  1.5341 -0.9624 -1.2767
  380MOL0     H51289   5.812   4.741  10.543 -0.5097  0.1914 -2.0712
  380MOL0     H51290   6.138   5.063  10.689 -2.1603  0.7993 -0.6459
  380MOL0     H51291   6.022   5.033  10.809 -2.8200 -0.1142 -1.1812
  380MOL0     H51292   6.217   4.832  10.709 -3.9936 -3.2945 -0.5371
  380MOL0     H51293   6.113   4.803  10.842 -1.7492  1.0476  0.5437
  380MOL0     H51294   6.219   4.996  10.964 -0.8627  0.8281 -1.5356
  380MOL0     H51295   6.341   5.016  10.833 -2.8658  2.0589 -1.3944
  380MOL0     H51296   6.411   4.776  10.868 -0.0017 -0.4787  1.2076
  380MOL0     H51297   6.305   4.760  11.011 -0.2922 -0.6001 -0.6134
  380MOL0     H51298   6.636   4.938  11.181  0.2661 -2.8664  1.9017
  380MOL0     H51299   5.903   5.170  10.598  0.3418 -1.4667  0.6336
  380MOL0     H51300   5.686   5.219  10.505  0.8596  0.4586  2.8068
  381MOL0     O51301   5.722   9.653  10.125  0.3940  0.0265 -0.3038
  381MOL0     C51302   5.793   9.555  10.108  0.0498 -0.1258  0.1784
  381MOL0     O51303   5.859   9.493  10.215 -0.3077 -0.1101 -1.1460
  381MOL0     C51304   5.835   9.547  10.345  0.8941  0.9005 -0.5447
  381MOL0     C51305   5.913   9.635  10.412 -0.5583  0.3119  0.3709
  381MOL0     C51306   5.900   9.673  10.551 -0.2262  0.0350 -0.8812
  381MOL0     C51307   5.793   9.622  10.626 -0.4308  0.4568  0.7273
  381MOL0     O51308   5.768   9.647  10.761 -0.2941  0.5384  0.2736
  381MOL0     C51309   5.803   9.767  10.811  0.2565 -0.6042 -0.5449
  381MOL0     C51310   5.734   9.789  10.942 -0.3389  0.7348  0.8763
  381MOL0     C51311   5.790   9.674  11.033 -0.8990 -0.0243  0.0583
  381MOL0     C51312   5.763   9.706  11.186  0.1100 -0.1330  0.7036
  381MOL0     C51313   5.838   9.592  11.273 -0.0794 -0.3167 -0.2942
  381MOL0     C51314   5.798   9.590  11.418 -0.1696  0.1002  0.3943
  381MOL0     C51315   5.654   9.549  11.440 -0.3282 -0.2806  0.1364
  381MOL0     C51316   5.609   9.544  11.587 -0.2688  1.2540  0.0164
  381MOL0     N51317   5.557   9.675  11.636 -0.9203 -0.1652 -0.3867
  381MOL0     C51318   5.458   9.690  11.724 -0.0964 -0.0440  0.6694
  381MOL0     C51319   5.434   9.826  11.725  0.4849 -0.4117  0.1199
  381MOL0     C51320   5.318   9.889  11.801  0.3346  0.3076  0.5050
  381MOL0     C51321   5.334   9.851  11.950  0.3149  0.1940 -0.5380
  381MOL0     C51322   5.239   9.746  12.016 -0.8743 -1.0307 -0.0634
  381MOL0     C51323   5.259   9.751  12.167 -0.1713  0.6272 -0.1382
  381MOL0     O51324   5.194   9.646  12.241  0.3263  0.4300 -0.1029
  381MOL0     C51325   5.072   9.668  12.288 -0.6229 -0.6815  0.1401
  381MOL0     C51326   5.034   9.598  12.402 -0.9019  0.1457 -0.3174
  381MOL0     C51327   4.906   9.605  12.458 -0.7042 -0.7412  0.5723
  381MOL0     C51328   4.882   9.524  12.581  0.0799 -0.2358 -0.4062
  381MOL0     C51329   4.808   9.690  12.398  0.8342  0.0015 -0.0831
  381MOL0     C51330   4.670   9.714  12.454  0.1454 -0.9795 -0.5515
  381MOL0     O51331   4.586   9.790  12.379  0.6550  0.4597  0.1599
  381MOL0     C51332   4.450   9.757  12.381  0.6909  0.6190 -0.5617
  381MOL0     C51333   4.369   9.853  12.328 -0.1442 -0.5122  0.4828
  381MOL0     C51334   4.229   9.834  12.326  0.0033 -0.0943  0.0366
  381MOL0     C51335   4.168   9.719  12.380  0.3296 -0.3250 -0.4414
  381MOL0     O51336   4.032   9.701  12.399  0.0768 -0.5795  0.2666
  381MOL0     C51337   3.940   9.801  12.346  0.1137  0.2118 -0.2610
  381MOL0     C51338   3.806   9.743  12.380  0.1106 -0.5508 -0.1319
  381MOL0     C51339   3.691   9.814  12.321 -0.0127 -0.2350 -0.0875
  381MOL0     C51340   3.564   9.735  12.338  0.4946  0.1556 -0.7257
  381MOL0     C51341   3.430   9.818  12.306  0.0670  0.9748  0.0649
  381MOL0     C51342   3.305   9.736  12.292 -0.3782  0.7954 -0.1277
  381MOL0     C51343   3.197   9.765  12.180  0.1920  0.7352 -0.0243
  381MOL0     C51344   3.100   9.649  12.158 -0.0379 -0.3681 -0.5206
  381MOL0    Cl51345   3.004   9.614  12.302  0.0176  0.0296  0.3386
  381MOL0     C51346   4.243   9.627  12.437  0.5349 -0.2926 -0.3929
  381MOL0     C51347   4.384   9.641  12.435 -0.2769  0.3178 -0.0265
  381MOL0     O51348   4.641   9.661  12.561 -0.6566 -0.4939  0.1943
  381MOL0     C51349   4.846   9.764  12.284 -0.5782 -0.6238  0.9327
  381MOL0     C51350   4.972   9.749  12.231 -0.0035  0.3815 -0.1844
  381MOL0     N51351   5.525   9.886  11.638  0.8224  0.1889 -0.3689
  381MOL0     N51352   5.602   9.801  11.590  0.5357 -0.3727 -0.2387
  381MOL0     C51353   5.707   9.537  10.557 -0.4260 -0.3120  0.0456
  381MOL0     C51354   5.731   9.501  10.423  0.0565 -0.1912 -0.0926
  381MOL0     C51355   5.796   9.493   9.983 -0.6219 -0.8191 -0.3814
  381MOL0     C51356   5.836   9.359   9.974 -0.0585 -0.1781 -0.3995
  381MOL0     C51357   5.831   9.290   9.858  0.0867 -0.1731  0.4167
  381MOL0     C51358   5.787   9.350   9.741 -0.1125  0.8750  0.3000
  381MOL0     O51359   5.782   9.280   9.625  0.4374  0.1887  0.8343
  381MOL0     C51360   5.826   9.147   9.623 -0.0365  0.1859 -0.0812
  381MOL0     C51361   5.817   9.085   9.489 -0.2915 -0.2476 -0.5499
  381MOL0     C51362   5.902   8.960   9.479  0.2450  0.0068  0.7345
  381MOL0     C51363   5.951   8.941   9.327 -0.8824  0.5890 -0.0536
  381MOL0     C51364   5.846   8.913   9.229 -0.4655  0.3117  0.2530
  381MOL0     C51365   5.767   8.877   9.141 -0.3824  0.3386 -0.5533
  381MOL0     C51366   5.751   9.480   9.746  0.3104  0.2769 -0.0900
  381MOL0     C51367   5.747   9.553   9.865 -0.7451 -0.1376 -0.5046
  381MOL0     H51368   5.996   9.677  10.356  0.2197  0.4467  1.5936
  381MOL0     H51369   5.962   9.741  10.609 -1.2425  2.4661 -2.4956
  381MOL0     H51370   5.912   9.778  10.821  0.4579 -2.2384 -0.7093
  381MOL0     H51371   5.766   9.849  10.748 -2.4286 -0.5696  0.9605
  381MOL0     H51372   5.761   9.887  10.983  1.2834  0.8930 -0.4597
  381MOL0     H51373   5.625   9.791  10.934 -0.3936  2.8381  1.4917
  381MOL0     H51374   5.742   9.578  11.015 -0.4615 -0.2949  0.3282
  381MOL0     H51375   5.897   9.666  11.017 -1.2660 -2.1439 -1.7147
  381MOL0     H51376   5.806   9.807  11.187  1.1700 -0.4380 -2.6167
  381MOL0     H51377   5.655   9.706  11.201 -0.4729 -2.0565 -2.5582
  381MOL0     H51378   5.819   9.492  11.233  1.1228  0.1125 -2.0425
  381MOL0     H51379   5.943   9.618  11.262 -0.1927 -0.2164 -1.2179
  381MOL0     H51380   5.850   9.507  11.467 -4.2503 -2.7374  0.4310
  381MOL0     H51381   5.827   9.683  11.467  1.0983  0.5190 -1.0676
  381MOL0     H51382   5.578   9.602  11.380 -0.9012 -2.5892 -1.2901
  381MOL0     H51383   5.637   9.452  11.393 -1.3223 -0.0246 -0.0658
  381MOL0     H51384   5.682   9.512  11.662 -0.6873  1.1203  0.3678
  381MOL0     H51385   5.530   9.469  11.587 -0.1674  1.1464  0.5883
  381MOL0     H51386   5.423   9.600  11.774  0.7069 -2.1616 -2.3418
  381MOL0     H51387   5.317   9.998  11.794  1.5221  0.4454  1.8248
  381MOL0     H51388   5.223   9.860  11.757  0.5911  3.0372 -2.1879
  381MOL0     H51389   5.343   9.944  12.007  4.1357 -0.3983  0.0902
  381MOL0     H51390   5.433   9.810  11.968 -1.1992 -3.3897  0.5271
  381MOL0     H51391   5.261   9.643  11.986 -1.6485 -1.1132 -0.3582
  381MOL0     H51392   5.136   9.766  11.984 -0.1706 -0.3932 -2.0971
  381MOL0     H51393   5.229   9.851  12.198 -1.0754 -0.0652  1.3135
  381MOL0     H51394   5.363   9.738  12.198  0.3168 -1.7505 -2.3649
  381MOL0     H51395   5.118   9.541  12.439 -0.0529  0.1461 -2.1464
  381MOL0     H51396   4.818   9.567  12.659  0.4707 -1.4189  0.6014
  381MOL0     H51397   4.827   9.432  12.558 -2.8534  0.4068  3.0190
  381MOL0     H51398   4.975   9.495  12.631  0.3248 -2.3853 -1.9762
  381MOL0     H51399   4.408   9.948  12.292 -0.5327 -0.2291  0.8043
  381MOL0     H51400   4.169   9.918  12.292  0.4501  0.6860  1.0982
  381MOL0     H51401   3.955   9.897  12.397 -0.6241  0.0353  0.3021
  381MOL0     H51402   3.963   9.813  12.239 -2.8010 -2.9076 -1.4134
  381MOL0     H51403   3.803   9.637  12.356  1.0036  0.1013 -3.6069
  381MOL0     H51404   3.792   9.760  12.487 -2.0784  2.4127 -0.7710
  381MOL0     H51405   3.703   9.829  12.213 -4.3187  0.6563 -0.6315
  381MOL0     H51406   3.684   9.914  12.364 -3.3709 -0.8184  1.0505
  381MOL0     H51407   3.568   9.636  12.291 -1.7757 -0.4042  0.0971
  381MOL0     H51408   3.536   9.709  12.441 -0.6638 -0.3044 -1.1318
  381MOL0     H51409   3.458   9.856  12.207 -0.8431 -2.0521 -1.4897
  381MOL0     H51410   3.424   9.900  12.378  0.0367  0.0228  1.1785
  381MOL0     H51411   3.322   9.628  12.295  0.9186  0.9758 -0.5093
  381MOL0     H51412   3.237   9.750  12.377 -1.7636 -2.3316 -0.6119
  381MOL0     H51413   3.245   9.792  12.086  0.2646  0.4966 -0.0558
  381MOL0     H51414   3.143   9.856  12.209  0.6395  1.7139 -2.0487
  381MOL0     H51415   3.155   9.558  12.135 -0.2863 -1.5061  2.8964
  381MOL0     H51416   3.036   9.671  12.072  1.8419  1.0422 -1.6376
  381MOL0     H51417   4.201   9.531  12.466 -0.0559  0.4758  1.4856
  381MOL0     H51418   4.440   9.555  12.471  0.0731  1.3208  1.9766
  381MOL0     H51419   4.774   9.826  12.232 -0.9524  0.0451  2.2082
  381MOL0     H51420   5.004   9.815  12.150  1.4882  0.4031  0.3851
  381MOL0     H51421   5.615   9.500  10.602  0.2184 -0.9985  0.8365
  381MOL0     H51422   5.657   9.445  10.366  0.4183  1.2568 -2.1244
  381MOL0     H51423   5.870   9.312  10.067 -2.1345  0.7296  0.8777
  381MOL0     H51424   5.842   9.182   9.862 -2.9197 -0.5946 -0.4939
  381MOL0     H51425   5.932   9.159   9.649  0.2538 -2.1254  0.0237
  381MOL0     H51426   5.771   9.082   9.692 -0.6020  0.0980 -0.6101
  381MOL0     H51427   5.850   9.159   9.415 -1.3473  0.3517 -0.4456
  381MOL0     H51428   5.713   9.072   9.458 -0.6667 -2.0227  1.2291
  381MOL0     H51429   5.847   8.867   9.499 -1.9082  0.1017 -3.5180
  381MOL0     H51430   5.980   8.978   9.553 -0.0820  0.1066  1.0541
  381MOL0     H51431   6.024   8.860   9.330 -3.5782 -1.9939  0.2419
  381MOL0     H51432   5.989   9.038   9.294 -3.3389  1.7204  0.2538
  381MOL0     H51433   5.698   8.825   9.079 -0.4831 -2.4947  1.7050
  381MOL0     H51434   5.709   9.523   9.655 -0.0016 -2.7895 -1.5473
  381MOL0     H51435   5.717   9.657   9.862 -0.1425  0.3797  4.0219
  382MOL0     O51436  10.301   7.709   8.314  0.3552 -0.0658 -0.1414
  382MOL0     C51437  10.241   7.711   8.204  0.9264 -0.9331 -0.5991
  382MOL0     O51438  10.117   7.656   8.174  0.1004 -0.2401 -0.7000
  382MOL0     C51439  10.068   7.557   8.257 -0.1953  0.1084  0.4707
  382MOL0     C51440  10.143   7.439   8.281  0.9535  0.2006  1.0938
  382MOL0     C51441  10.087   7.336   8.351  0.1445  0.5048 -0.7292
  382MOL0     C51442   9.963   7.347   8.403 -0.3203  0.2698  1.2250
  382MOL0     O51443   9.909   7.257   8.496 -0.4134 -0.0400 -0.6245
  382MOL0     C51444   9.982   7.140   8.529  0.3225  0.0516 -0.2866
  382MOL0     C51445   9.929   7.066   8.650  0.2452 -0.0619 -0.4362
  382MOL0     C51446   9.979   6.922   8.663  0.1116 -0.2110 -0.5091
  382MOL0     C51447   9.900   6.844   8.780  0.5352 -0.4176  0.0360
  382MOL0     C51448   9.965   6.707   8.819 -0.7428 -0.7004 -0.4606
  382MOL0     C51449   9.891   6.651   8.942  0.1804  0.2887 -0.2838
  382MOL0     C51450   9.936   6.507   8.972  0.4256  0.5500 -0.8115
  382MOL0     C51451   9.882   6.403   8.878 -0.8292  0.4266  0.5235
  382MOL0     N51452   9.893   6.262   8.930  0.1267  0.2180  0.7759
  382MOL0     C51453   9.844   6.225   9.055 -0.4432 -0.3505  0.1733
  382MOL0     C51454   9.837   6.087   9.038 -0.1274 -0.4525  0.2722
  382MOL0     C51455   9.773   5.990   9.126  0.5705  0.2970 -0.0804
  382MOL0     C51456   9.645   5.922   9.069  0.1742 -0.5190 -0.5720
  382MOL0     C51457   9.511   5.996   9.110 -0.1019  0.0431 -0.1647
  382MOL0     C51458   9.519   6.144   9.054  0.1583  0.6831  0.3423
  382MOL0     O51459   9.567   6.153   8.919  0.8292  0.0191  0.0261
  382MOL0     C51460   9.471   6.131   8.824  0.5043 -0.3235  1.4550
  382MOL0     C51461   9.509   6.152   8.687  0.1780  0.3120 -0.1941
  382MOL0     C51462   9.409   6.134   8.584  0.1747  1.0348 -0.2473
  382MOL0     C51463   9.463   6.123   8.439 -0.2276 -0.3930 -0.0966
  382MOL0     C51464   9.272   6.133   8.612  0.9533 -0.2520 -0.0653
  382MOL0     C51465   9.158   6.114   8.512  0.3688  0.2595  0.7613
  382MOL0     O51466   9.031   6.107   8.560  0.5817 -0.2553 -0.7767
  382MOL0     C51467   8.906   6.109   8.494  0.7194 -0.2821 -0.0535
  382MOL0     C51468   8.893   6.114   8.354 -0.4857  0.7014 -0.0975
  382MOL0     C51469   8.766   6.121   8.288  0.3148  0.0025  0.2683
  382MOL0     C51470   8.651   6.136   8.371  0.3434 -0.0416 -0.4858
  382MOL0     O51471   8.524   6.142   8.310 -0.0529 -0.1843  0.0843
  382MOL0     C51472   8.403   6.162   8.380 -0.9438 -0.4875 -0.8173
  382MOL0     C51473   8.306   6.227   8.279  0.0822  0.2552 -0.3809
  382MOL0     C51474   8.225   6.122   8.196 -0.3692 -0.3445  0.3770
  382MOL0     C51475   8.102   6.085   8.273  0.3797 -0.0826 -0.9863
  382MOL0     C51476   8.024   5.975   8.196  0.0538  0.3749 -0.4906
  382MOL0     C51477   7.871   5.952   8.235 -0.2112  0.4105  0.6935
  382MOL0     C51478   7.815   5.834   8.157 -0.0853 -0.4278  0.4511
  382MOL0     C51479   7.767   5.722   8.244 -0.2083  0.0701 -0.2383
  382MOL0    Cl51480   7.892   5.658   8.351 -0.2348  0.0452  0.2560
  382MOL0     C51481   8.665   6.135   8.516  0.2634  0.4913  0.0241
  382MOL0     C51482   8.792   6.123   8.575 -0.4075  0.0968 -0.0123
  382MOL0     O51483   9.187   6.089   8.395 -0.5437  0.3053  0.0894
  382MOL0     C51484   9.240   6.117   8.746 -0.3259 -0.2005 -0.4046
  382MOL0     C51485   9.334   6.110   8.849  0.5625  1.6079  0.1345
  382MOL0     N51486   9.882   6.048   8.915 -0.6708  0.0417 -1.3520
  382MOL0     N51487   9.925   6.154   8.855  0.3714 -0.1557  0.0228
  382MOL0     C51488   9.890   7.458   8.377  0.3847  1.5521 -0.3268
  382MOL0     C51489   9.939   7.565   8.301  1.0220  0.9270 -0.4565
  382MOL0     C51490  10.304   7.800   8.103 -0.7017 -0.5912  0.1650
  382MOL0     C51491  10.258   7.792   7.970 -0.1894 -1.1513  0.2000
  382MOL0     C51492  10.313   7.872   7.864 -1.1349 -0.9177 -0.2059
  382MOL0     C51493  10.426   7.955   7.893  0.1649 -0.4183 -0.3220
  382MOL0     O51494  10.498   8.014   7.783  0.4247  0.0285 -0.4474
  382MOL0     C51495  10.631   8.062   7.799 -0.6987  0.5502 -0.1292
  382MOL0     C51496  10.693   8.023   7.663 -0.2888 -0.1670 -0.2067
  382MOL0     C51497  10.840   8.064   7.653  0.5399  0.1793  0.1841
  382MOL0     C51498  10.863   8.207   7.654 -0.2078 -0.2487  0.2803
  382MOL0     C51499  11.012   8.240   7.642  0.3106 -0.4150  1.2752
  382MOL0     C51500  11.130   8.262   7.640  0.0669 -0.2298 -0.8129
  382MOL0     C51501  10.466   7.975   8.031 -0.2818 -0.4471  0.0031
  382MOL0     C51502  10.403   7.890   8.128 -0.5268 -0.0241  0.0407
  382MOL0     H51503  10.246   7.428   8.247  0.6708  3.2483 -1.1563
  382MOL0     H51504  10.137   7.242   8.367 -1.0371 -0.8767 -4.1597
  382MOL0     H51505   9.964   7.071   8.446 -3.0384 -0.8015  0.9850
  382MOL0     H51506  10.086   7.167   8.547  0.9543 -0.1880 -3.0381
  382MOL0     H51507   9.948   7.131   8.736 -1.2247  2.3501 -1.8207
  382MOL0     H51508   9.820   7.056   8.648  0.3936 -2.0571 -1.6707
  382MOL0     H51509   9.944   6.860   8.580 -1.4797  1.7684 -1.4043
  382MOL0     H51510  10.088   6.923   8.667  0.1536  1.2116 -1.3560
  382MOL0     H51511   9.901   6.915   8.863 -0.4839  1.6276 -1.5926
  382MOL0     H51512   9.798   6.838   8.741  0.8735  0.9304 -1.1141
  382MOL0     H51513   9.946   6.651   8.727 -1.1904  1.6948 -1.9031
  382MOL0     H51514  10.073   6.718   8.833 -0.6414 -0.3789 -1.4720
  382MOL0     H51515   9.930   6.708   9.026 -0.6223  0.4730 -0.0323
  382MOL0     H51516   9.782   6.658   8.937 -0.0400 -1.9577  0.3137
  382MOL0     H51517  10.045   6.517   8.965  0.5695  1.1651  1.5415
  382MOL0     H51518   9.901   6.486   9.073 -0.2993  2.4752 -0.6138
  382MOL0     H51519   9.934   6.402   8.781 -2.3302 -0.4806 -0.3027
  382MOL0     H51520   9.779   6.431   8.854 -1.2622 -1.0726  0.5253
  382MOL0     H51521   9.825   6.293   9.137  1.7763  2.0908 -1.1579
  382MOL0     H51522   9.853   5.919   9.148 -0.2999 -0.1095  2.0821
  382MOL0     H51523   9.746   6.036   9.222  2.3117 -1.5464  1.3717
  382MOL0     H51524   9.632   5.823   9.114 -0.5471 -0.0327  0.3389
  382MOL0     H51525   9.652   5.914   8.961  3.1624  2.3680 -0.7721
  382MOL0     H51526   9.502   6.000   9.219  0.5530 -1.3858 -0.0403
  382MOL0     H51527   9.425   5.942   9.068  0.0697 -0.1715 -0.2426
  382MOL0     H51528   9.596   6.190   9.117 -0.3413  1.5521  0.3192
  382MOL0     H51529   9.428   6.199   9.078 -0.4649  0.3125 -1.0247
  382MOL0     H51530   9.611   6.164   8.654  0.9530 -1.1092  1.5286
  382MOL0     H51531   9.572   6.126   8.431 -0.3677  0.2819 -2.5036
  382MOL0     H51532   9.451   6.020   8.403  1.5694 -1.1082  1.1729
  382MOL0     H51533   9.423   6.197   8.369 -0.6980 -0.8439 -0.3098
  382MOL0     H51534   8.979   6.084   8.296  0.8511  0.0053  2.0904
  382MOL0     H51535   8.758   6.106   8.181 -0.9132  0.6116  0.2530
  382MOL0     H51536   8.368   6.068   8.424 -0.9375  0.4662  1.3621
  382MOL0     H51537   8.416   6.239   8.457 -2.9552 -0.5896 -0.3243
  382MOL0     H51538   8.233   6.287   8.333  0.2517 -1.1608  1.5792
  382MOL0     H51539   8.360   6.289   8.207  0.5930 -0.9759 -1.0904
  382MOL0     H51540   8.297   6.044   8.166 -0.9974 -0.0063 -2.3225
  382MOL0     H51541   8.186   6.172   8.107 -1.2814 -2.6473 -0.6072
  382MOL0     H51542   8.116   6.051   8.376  1.9193 -4.1706 -2.3027
  382MOL0     H51543   8.046   6.178   8.274  1.4832  0.6008 -0.8609
  382MOL0     H51544   8.078   5.882   8.217 -0.6622  0.3386  1.4198
  382MOL0     H51545   8.031   5.998   8.089  2.5224 -0.9043 -0.6907
  382MOL0     H51546   7.868   5.939   8.344  2.5387 -2.6384  0.5358
  382MOL0     H51547   7.822   6.047   8.209 -1.6419  0.2820  2.6485
  382MOL0     H51548   7.892   5.805   8.085  0.6680 -2.2768  1.9271
  382MOL0     H51549   7.722   5.869   8.112 -1.0100 -1.4234  1.5524
  382MOL0     H51550   7.739   5.639   8.179 -1.6192  2.0632 -2.3013
  382MOL0     H51551   7.684   5.756   8.307 -0.6576  3.2289 -2.3196
  382MOL0     H51552   8.577   6.156   8.576 -1.1143  2.5683 -2.5355
  382MOL0     H51553   8.809   6.126   8.682  1.1412  1.3706 -0.2541
  382MOL0     H51554   9.136   6.098   8.768  0.0809 -0.7399  1.1573
  382MOL0     H51555   9.292   6.102   8.948  0.6652  1.2736  0.1512
  382MOL0     H51556   9.788   7.451   8.414  1.0549 -2.7426  1.2864
  382MOL0     H51557   9.883   7.657   8.285  1.0007  1.0932  0.5101
  382MOL0     H51558  10.173   7.737   7.931  1.4818 -0.4164 -5.4812
  382MOL0     H51559  10.265   7.879   7.767 -2.2799 -0.9140  0.3377
  382MOL0     H51560  10.641   8.170   7.813  1.1169  0.4081 -0.0182
  382MOL0     H51561  10.680   8.008   7.881 -0.8948 -0.2932 -0.5528
  382MOL0     H51562  10.643   8.071   7.579  1.5244  1.2389 -0.5685
  382MOL0     H51563  10.686   7.915   7.647 -0.7239 -0.4978  1.9147
  382MOL0     H51564  10.865   8.012   7.560 -0.0202 -1.8531  1.1138
  382MOL0     H51565  10.909   8.014   7.723  0.6362  1.0326  0.7066
  382MOL0     H51566  10.829   8.249   7.749 -1.9117 -0.0432 -0.3900
  382MOL0     H51567  10.810   8.270   7.583  0.4927  1.5944  1.3175
  382MOL0     H51568  11.233   8.283   7.661 -0.3460 -0.3054  1.4964
  382MOL0     H51569  10.542   8.044   8.068  1.2465 -3.2809  2.5671
  382MOL0     H51570  10.458   7.886   8.222 -1.5744  0.1895  0.6828
  383MOL0     O51571  10.101   0.194   8.890  0.5069 -0.3027  0.1490
  383MOL0     C51572  10.187   0.281   8.873 -0.9034  0.6480 -0.0591
  383MOL0     O51573  10.174   0.406   8.814 -0.1383  0.6105  0.5379
  383MOL0     C51574  10.052   0.439   8.759  0.2339  0.2395 -0.2417
  383MOL0     C51575  10.043   0.461   8.625  0.3712  0.3260 -1.1493
  383MOL0     C51576   9.916   0.483   8.560  0.6560 -0.1994 -0.4251
  383MOL0     C51577   9.799   0.496   8.643  0.7509  0.0874 -0.0414
  383MOL0     O51578   9.679   0.514   8.583  0.3972  0.7603 -0.3882
  383MOL0     C51579   9.565   0.478   8.656 -0.0210  0.2111 -0.2937
  383MOL0     C51580   9.448   0.510   8.564  0.7030  0.5203  0.1159
  383MOL0     C51581   9.322   0.452   8.626  1.0323 -0.7051 -1.0919
  383MOL0     C51582   9.227   0.533   8.713  0.9371  0.2324 -0.2246
  383MOL0     C51583   9.128   0.434   8.781 -0.4169 -0.7667 -0.8950
  383MOL0     C51584   9.001   0.416   8.706  1.5407 -0.1338 -0.8261
  383MOL0     C51585   8.909   0.319   8.786 -0.2655 -0.0649  0.4463
  383MOL0     C51586   8.787   0.256   8.706 -0.3985 -1.3958  0.1003
  383MOL0     N51587   8.723   0.144   8.776 -0.4837  0.2448 -1.0959
  383MOL0     C51588   8.638   0.146   8.887 -0.1468 -0.5705  0.5469
  383MOL0     C51589   8.609   0.015   8.898  0.4405 -0.3871 -0.5384
  383MOL0     C51590   8.507  -0.038   8.996  0.7330  0.5463  0.1928
  383MOL0     C51591   8.378  -0.050   8.928 -0.0487  0.3284  0.0161
  383MOL0     C51592   8.288  -0.139   9.009  0.1787  0.3886 -0.8191
  383MOL0     C51593   8.147  -0.147   8.943  0.1508 -0.8184  0.3282
  383MOL0     O51594   8.145  -0.218   8.824  0.1092  0.0231  0.1294
  383MOL0     C51595   8.020  -0.237   8.762 -0.3381 -0.2176  0.1219
  383MOL0     C51596   8.026  -0.292   8.633  0.0771  0.2336 -0.1086
  383MOL0     C51597   7.904  -0.302   8.553  0.9060  0.1994  0.4992
  383MOL0     C51598   7.918  -0.356   8.419  0.4192 -0.4091 -0.0594
  383MOL0     C51599   7.777  -0.249   8.603  0.4695 -0.3924  0.2589
  383MOL0     C51600   7.653  -0.246   8.517 -0.1370 -0.1024  0.0032
  383MOL0     O51601   7.647  -0.345   8.427  0.4089  0.0135 -0.5239
  383MOL0     C51602   7.563  -0.327   8.321  0.9190  0.2808  0.5561
  383MOL0     C51603   7.418  -0.344   8.330 -0.3000  0.3122 -0.0481
  383MOL0     C51604   7.331  -0.299   8.226 -0.7134 -0.8624  0.3477
  383MOL0     C51605   7.391  -0.233   8.116  0.5013  0.1225 -0.5723
  383MOL0     O51606   7.308  -0.204   8.012  0.3484  0.2845  0.3529
  383MOL0     C51607   7.346  -0.149   7.884 -0.9722 -0.4303 -0.4662
  383MOL0     C51608   7.237  -0.161   7.782  0.2880 -0.2822  0.5313
  383MOL0     C51609   7.115  -0.076   7.815  0.5678 -0.3683 -0.5494
  383MOL0     C51610   7.003  -0.113   7.723  0.4623  0.4299  0.1822
  383MOL0     C51611   6.894  -0.007   7.710  0.0270 -0.3253  0.0067
  383MOL0     C51612   6.791  -0.028   7.601  0.0696 -0.2534  0.2869
  383MOL0     C51613   6.715   0.091   7.562  0.1601 -0.4804 -0.6485
  383MOL0     C51614   6.615   0.072   7.451  0.4374  0.3220  0.6380
  383MOL0    Cl51615   6.452   0.010   7.493 -0.1136 -0.1544  0.0892
  383MOL0     C51616   7.532  -0.224   8.104  0.3211 -0.1007  0.2958
  383MOL0     C51617   7.615  -0.266   8.205 -0.1538  0.3086 -0.0761
  383MOL0     O51618   7.579  -0.146   8.520 -0.1483 -0.0097  0.0579
  383MOL0     C51619   7.775  -0.195   8.727  0.0330 -0.2487 -0.6758
  383MOL0     C51620   7.898  -0.190   8.813  0.4468  0.7462  1.2497
  383MOL0     N51621   8.685  -0.066   8.819  0.0856  0.4529 -0.0055
  383MOL0     N51622   8.740   0.013   8.737  0.4199 -0.1008  0.1879
  383MOL0     C51623   9.810   0.480   8.782 -0.2803  0.3286 -0.4083
  383MOL0     C51624   9.936   0.447   8.839  0.2684 -0.7011 -0.1134
  383MOL0     C51625  10.329   0.246   8.904 -0.1283 -0.1365 -0.2598
  383MOL0     C51626  10.375   0.113   8.908 -0.0361  0.7789  0.0176
  383MOL0     C51627  10.505   0.086   8.954 -0.6334 -0.5527 -0.3532
  383MOL0     C51628  10.603   0.192   8.981  0.8826  0.2470  0.7156
  383MOL0     O51629  10.725   0.160   9.032 -0.4365 -0.1941  0.1009
  383MOL0     C51630  10.828   0.258   9.034 -0.7244  0.1253 -0.2264
  383MOL0     C51631  10.886   0.277   8.888  0.1642 -0.1502 -0.8368
  383MOL0     C51632  10.995   0.382   8.885 -0.9205  0.3105 -0.3986
  383MOL0     C51633  11.015   0.429   8.749  0.4286 -0.0764  0.0561
  383MOL0     C51634  11.119   0.530   8.757 -1.0062 -0.5059  0.5196
  383MOL0     C51635  11.212   0.606   8.746  0.2577  0.1988 -0.7492
  383MOL0     C51636  10.554   0.325   8.956  0.2508  0.0898 -0.2655
  383MOL0     C51637  10.419   0.353   8.924  0.0978  0.7742 -0.3684
  383MOL0     H51638  10.135   0.450   8.569 -0.9421 -1.5549 -3.0775
  383MOL0     H51639   9.900   0.509   8.456  1.4377 -0.2641 -0.5654
  383MOL0     H51640   9.571   0.371   8.678 -0.7675  0.2684  0.2561
  383MOL0     H51641   9.562   0.535   8.750 -0.2835 -0.3067  0.0171
  383MOL0     H51642   9.435   0.618   8.550  2.4867  1.1884  2.7630
  383MOL0     H51643   9.471   0.462   8.469  0.9251  0.9961 -0.0743
  383MOL0     H51644   9.253   0.423   8.546  0.1412 -2.5550  0.2660
  383MOL0     H51645   9.345   0.361   8.681 -2.1942  0.3657  2.4799
  383MOL0     H51646   9.259   0.591   8.800 -1.2530 -0.2471  0.9680
  383MOL0     H51647   9.186   0.610   8.646  1.6729 -0.1480 -1.1313
  383MOL0     H51648   9.174   0.336   8.800  0.0386 -0.1708  1.4381
  383MOL0     H51649   9.115   0.465   8.885  0.7089 -0.2330 -0.8927
  383MOL0     H51650   8.947   0.509   8.686  2.8212  0.1621 -3.2815
  383MOL0     H51651   9.023   0.382   8.604  1.7085  0.5751 -1.0313
  383MOL0     H51652   8.973   0.237   8.821  1.2693  0.8227 -0.1899
  383MOL0     H51653   8.879   0.383   8.869  2.8829  3.5390 -0.8758
  383MOL0     H51654   8.834   0.222   8.613  0.5376 -2.8725  1.0669
  383MOL0     H51655   8.713   0.336   8.698  0.4345 -0.6236  0.0136
  383MOL0     H51656   8.588   0.227   8.938 -1.0662 -0.7351 -0.0761
  383MOL0     H51657   8.551  -0.133   9.026  1.1034  0.4216 -0.7119
  383MOL0     H51658   8.468   0.032   9.070 -2.7625 -1.7924  0.8251
  383MOL0     H51659   8.395  -0.098   8.831 -3.1081  0.2637 -0.6108
  383MOL0     H51660   8.337   0.048   8.903  1.2709  0.4374 -1.9879
  383MOL0     H51661   8.276  -0.100   9.110 -0.4840  1.4917 -1.3068
  383MOL0     H51662   8.336  -0.237   9.016  0.9881  0.6993 -1.8028
  383MOL0     H51663   8.112  -0.048   8.914 -0.5694 -1.5355 -1.4447
  383MOL0     H51664   8.078  -0.189   9.017  0.2986 -0.4065  0.6981
  383MOL0     H51665   8.120  -0.324   8.591  0.5757 -0.4903  1.5067
  383MOL0     H51666   7.880  -0.293   8.338  1.6333  0.7176  0.2036
  383MOL0     H51667   8.025  -0.368   8.396  0.1585  2.0694 -3.2882
  383MOL0     H51668   7.868  -0.452   8.409 -1.5693  0.4660  0.8614
  383MOL0     H51669   7.377  -0.386   8.421  0.5135 -0.4226 -0.0110
  383MOL0     H51670   7.223  -0.296   8.231 -0.6824  1.9874  1.2586
  383MOL0     H51671   7.374  -0.046   7.907 -4.0336  0.1364  1.3400
  383MOL0     H51672   7.429  -0.204   7.841  0.0502  1.9816 -1.7384
  383MOL0     H51673   7.279  -0.141   7.683  0.5659 -1.1836  0.4536
  383MOL0     H51674   7.206  -0.265   7.768 -3.3018  0.7414 -0.1367
  383MOL0     H51675   7.138   0.031   7.809 -1.4279  0.3682  2.7585
  383MOL0     H51676   7.076  -0.092   7.916  0.0651  0.3884 -0.6166
  383MOL0     H51677   7.042  -0.131   7.622 -2.8867  1.7348 -1.5306
  383MOL0     H51678   6.960  -0.204   7.765  3.7069 -1.1440  0.3581
  383MOL0     H51679   6.949   0.084   7.685 -0.0770  0.0237  0.9820
  383MOL0     H51680   6.832  -0.009   7.801 -5.0728 -0.1484 -3.0554
  383MOL0     H51681   6.846  -0.057   7.511 -2.8926 -2.5206 -0.9819
  383MOL0     H51682   6.729  -0.117   7.616  0.7221 -0.2379  3.9216
  383MOL0     H51683   6.791   0.159   7.522 -1.7026  2.5659  0.6244
  383MOL0     H51684   6.679   0.140   7.653  3.1998  1.7931 -0.4847
  383MOL0     H51685   6.655  -0.007   7.387 -0.2565 -0.9358  1.6977
  383MOL0     H51686   6.596   0.175   7.418  0.8242  0.3215  0.4095
  383MOL0     H51687   7.582  -0.176   8.021 -0.5234  1.7931  0.8351
  383MOL0     H51688   7.722  -0.262   8.187 -0.1263 -1.7397 -0.6047
  383MOL0     H51689   7.688  -0.146   8.772 -0.8357 -1.8366 -0.5692
  383MOL0     H51690   7.896  -0.131   8.904  2.8164  1.4038  0.9482
  383MOL0     H51691   9.733   0.491   8.857  0.4125 -2.4756  0.8580
  383MOL0     H51692   9.945   0.426   8.945 -1.7178  2.2090  0.7384
  383MOL0     H51693  10.312   0.024   8.904 -1.7920  2.0054 -2.0756
  383MOL0     H51694  10.530  -0.019   8.967  0.7036 -0.1988  0.0490
  383MOL0     H51695  10.798   0.354   9.078 -3.5471 -0.8143  0.0645
  383MOL0     H51696  10.913   0.229   9.096 -0.5439  1.2007  0.0599
  383MOL0     H51697  10.808   0.300   8.815 -1.2687  1.1141  1.0281
  383MOL0     H51698  10.920   0.176   8.859 -0.5744 -0.3969 -0.8535
  383MOL0     H51699  11.087   0.344   8.931 -0.5790  1.6971  0.1161
  383MOL0     H51700  10.952   0.465   8.941  0.9496  2.3859 -1.8012
  383MOL0     H51701  10.920   0.466   8.708  0.5411 -0.8114 -0.9167
  383MOL0     H51702  11.038   0.351   8.676 -1.1984 -0.3092 -0.2465
  383MOL0     H51703  11.289   0.680   8.734 -0.4348  0.6752 -2.5859
  383MOL0     H51704  10.616   0.414   8.959  2.3253 -1.3142  2.1277
  383MOL0     H51705  10.384   0.456   8.917 -3.2052 -0.1208  0.7939
  384MOL0     O51706   9.796   9.503   0.292 -0.2749  0.3377  0.6040
  384MOL0     C51707   9.862   9.522   0.391  0.2107  0.7638 -0.1912
  384MOL0     O51708   9.806   9.560   0.516  0.1599  1.0116  0.1685
  384MOL0     C51709   9.673   9.568   0.535 -0.1403  0.9848  0.0290
  384MOL0     C51710   9.632   9.656   0.627 -0.3491 -0.0693 -1.2828
  384MOL0     C51711   9.495   9.674   0.659 -0.0707  0.8375 -0.0689
  384MOL0     C51712   9.404   9.585   0.605 -1.0239 -0.7653 -1.0018
  384MOL0     O51713   9.265   9.602   0.627 -0.1137 -0.4097  0.1693
  384MOL0     C51714   9.208   9.725   0.655  0.1892 -0.4046 -0.4036
  384MOL0     C51715   9.057   9.720   0.618 -0.3861 -0.2467  0.5917
  384MOL0     C51716   8.976   9.831   0.691  0.3518  0.6134 -0.1133
  384MOL0     C51717   9.033   9.976   0.697  0.2205  0.1335 -0.1661
  384MOL0     C51718   8.935  10.085   0.731  0.1473 -0.0420  0.2600
  384MOL0     C51719   9.011  10.219   0.758  1.1317 -0.2127 -0.0930
  384MOL0     C51720   8.911  10.341   0.765 -0.3776  0.3444  0.2445
  384MOL0     C51721   8.814  10.316   0.871 -0.4777 -0.2417 -0.9995
  384MOL0     N51722   8.726  10.425   0.908 -0.5811 -0.3375 -0.2062
  384MOL0     C51723   8.652  10.429   1.023 -0.7088 -0.0085  0.5273
  384MOL0     C51724   8.602  10.553   1.030  1.3900  0.7800 -0.1303
  384MOL0     C51725   8.503  10.596   1.130  0.1397  0.1593  0.0255
  384MOL0     C51726   8.373  10.520   1.106 -0.5608  0.4204 -0.4948
  384MOL0     C51727   8.276  10.553   1.226 -0.6035  0.2629 -0.3235
  384MOL0     C51728   8.202  10.678   1.194  0.9694  0.1825 -0.4217
  384MOL0     O51729   8.125  10.729   1.308  0.2710 -0.4819 -0.0974
  384MOL0     C51730   8.004  10.777   1.261  0.2475  0.1632 -0.0435
  384MOL0     C51731   7.997  10.891   1.187 -0.0070  0.1092 -0.1648
  384MOL0     C51732   7.873  10.927   1.130  0.4468 -0.2207  0.4542
  384MOL0     C51733   7.884  11.043   1.041 -0.2350  0.6700 -0.2322
  384MOL0     C51734   7.752  10.853   1.163 -0.0262  0.2659  0.1085
  384MOL0     C51735   7.616  10.904   1.136 -0.0930 -0.2567  0.5262
  384MOL0     O51736   7.508  10.828   1.183 -0.5444 -0.5514  0.5901
  384MOL0     C51737   7.385  10.875   1.201 -0.2230 -1.2482 -0.8082
  384MOL0     C51738   7.290  10.779   1.216 -0.0490 -0.3712  0.1009
  384MOL0     C51739   7.160  10.814   1.250 -0.1392  0.1900 -0.0512
  384MOL0     C51740   7.123  10.943   1.274 -0.4234 -0.0944  0.3820
  384MOL0     O51741   6.999  10.976   1.317 -0.0739  0.9759 -0.5655
  384MOL0     C51742   6.973  11.082   1.409 -0.1451 -0.0464  0.5527
  384MOL0     C51743   6.876  11.177   1.337 -0.0364  0.6374  0.1429
  384MOL0     C51744   6.824  11.287   1.420  0.6657 -0.3985 -0.2284
  384MOL0     C51745   6.706  11.365   1.357  0.4219  0.3647  0.7310
  384MOL0     C51746   6.570  11.292   1.345 -0.1483 -0.2398 -0.2073
  384MOL0     C51747   6.466  11.383   1.272 -0.0426 -0.8669  0.3434
  384MOL0     C51748   6.414  11.500   1.362  0.0224 -0.0712 -0.4415
  384MOL0     C51749   6.279  11.561   1.314 -0.0511  0.1716 -0.2450
  384MOL0    Cl51750   6.149  11.452   1.352  0.1755 -0.2600  0.3968
  384MOL0     C51751   7.218  11.044   1.251  0.2039  0.6152 -0.7296
  384MOL0     C51752   7.346  11.012   1.218 -0.2117  0.3731  0.1449
  384MOL0     O51753   7.600  10.998   1.064  0.2062 -0.5043  0.2467
  384MOL0     C51754   7.769  10.731   1.235 -0.7029  0.5917 -0.3238
  384MOL0     C51755   7.894  10.696   1.290  1.1319  0.5966 -0.3582
  384MOL0     N51756   8.640  10.625   0.918 -1.1832  0.1088 -0.4600
  384MOL0     N51757   8.721  10.548   0.845  0.6431  0.0788 -0.1257
  384MOL0     C51758   9.445   9.480   0.524 -0.2080  0.1429  0.1883
  384MOL0     C51759   9.583   9.470   0.486  0.7855  0.8275  0.2394
  384MOL0     C51760  10.007   9.508   0.383  0.0959  0.1102 -0.4512
  384MOL0     C51761  10.078   9.493   0.266  0.5113  0.5369  0.5639
  384MOL0     C51762  10.219   9.483   0.263 -0.3642  0.2382  0.1619
  384MOL0     C51763  10.290   9.494   0.381 -0.4068  0.1934  0.5748
  384MOL0     O51764  10.422   9.483   0.366 -0.5574 -0.7893 -0.3543
  384MOL0     C51765  10.495   9.567   0.457 -0.1202  0.6389  1.5458
  384MOL0     C51766  10.643   9.561   0.421 -0.6676 -0.3516  1.0637
  384MOL0     C51767  10.710   9.428   0.447  1.0353 -0.1873 -0.0204
  384MOL0     C51768  10.763   9.421   0.595 -0.8355  0.1943 -0.3298
  384MOL0     C51769  10.853   9.309   0.624 -0.3938  0.1883  0.4003
  384MOL0     C51770  10.928   9.215   0.633  0.2167 -0.5063  0.7597
  384MOL0     C51771  10.219   9.513   0.501 -0.1262  0.5039  0.7198
  384MOL0     C51772  10.081   9.518   0.500 -0.2580 -0.8081 -0.0483
  384MOL0     H51773   9.706   9.717   0.679  0.1241 -2.3493  0.9543
  384MOL0     H51774   9.451   9.739   0.733 -0.4758  0.4445  0.0401
  384MOL0     H51775   9.212   9.744   0.763  1.2153  0.3553 -0.5501
  384MOL0     H51776   9.244   9.807   0.591 -2.3051 -0.0457 -1.4483
  384MOL0     H51777   9.045   9.723   0.510  0.8555 -1.2837  0.3930
  384MOL0     H51778   9.016   9.626   0.656 -0.7569 -0.6473 -0.7530
  384MOL0     H51779   8.885   9.841   0.631  0.1645  1.3678  0.2800
  384MOL0     H51780   8.956   9.790   0.790  2.2209  0.5351  0.2674
  384MOL0     H51781   9.114   9.981   0.771  1.2592 -0.8561 -1.1986
  384MOL0     H51782   9.080  10.001   0.602  0.9520 -1.2476 -0.2022
  384MOL0     H51783   8.865  10.090   0.647  0.5005  1.2946  0.0213
  384MOL0     H51784   8.881  10.064   0.824  2.3377  1.0726  1.8675
  384MOL0     H51785   9.054  10.196   0.856  2.6518 -0.1683 -0.7255
  384MOL0     H51786   9.074  10.239   0.670 -0.9641 -3.2534 -2.5099
  384MOL0     H51787   8.962  10.436   0.782 -2.1056  1.7509 -1.9266
  384MOL0     H51788   8.862  10.352   0.668 -3.8611  0.8557  1.9207
  384MOL0     H51789   8.852  10.278   0.966  0.7254 -2.4305 -2.2553
  384MOL0     H51790   8.745  10.237   0.838 -2.0261 -0.8709  3.1253
  384MOL0     H51791   8.636  10.350   1.095  0.2335  0.1231  0.8946
  384MOL0     H51792   8.542  10.577   1.230 -0.6184  1.5576  0.6256
  384MOL0     H51793   8.477  10.702   1.122 -1.3516 -0.2212 -0.5357
  384MOL0     H51794   8.379  10.411   1.097 -0.5354  0.5033 -1.6455
  384MOL0     H51795   8.328  10.553   1.012 -2.2242 -1.7365 -0.5449
  384MOL0     H51796   8.326  10.563   1.323 -0.9518  1.0631 -0.2257
  384MOL0     H51797   8.200  10.476   1.243 -2.2909  2.3126  2.3659
  384MOL0     H51798   8.151  10.654   1.100  2.7301 -1.0539 -1.1154
  384MOL0     H51799   8.271  10.762   1.176 -2.0984  2.8343 -0.7828
  384MOL0     H51800   8.087  10.951   1.189 -0.5825  1.0714  3.0231
  384MOL0     H51801   7.983  11.034   0.995 -0.6392 -0.1271 -0.9670
  384MOL0     H51802   7.810  11.046   0.960  0.5550  0.5138 -0.9840
  384MOL0     H51803   7.880  11.131   1.106  0.6075  1.3816 -1.1169
  384MOL0     H51804   7.310  10.674   1.198  0.6335 -0.1168 -0.6636
  384MOL0     H51805   7.081  10.745   1.278 -0.2593 -1.4057 -3.6768
  384MOL0     H51806   6.918  11.041   1.494  3.1493 -0.6764  2.5638
  384MOL0     H51807   7.060  11.134   1.449 -0.3428 -0.5635  1.6968
  384MOL0     H51808   6.912  11.226   1.246 -4.3480 -0.8054 -2.6540
  384MOL0     H51809   6.789  11.116   1.309 -1.6737  1.4727  2.9829
  384MOL0     H51810   6.907  11.354   1.444 -0.0131 -0.2810  2.0331
  384MOL0     H51811   6.793  11.243   1.515 -2.3279 -0.5572 -1.1896
  384MOL0     H51812   6.696  11.454   1.420  0.5155  1.1311 -0.3164
  384MOL0     H51813   6.736  11.402   1.259 -3.6620  1.0268 -0.4765
  384MOL0     H51814   6.538  11.279   1.449  1.2189  3.2533  0.8256
  384MOL0     H51815   6.587  11.202   1.286  0.6680 -1.1305  1.3247
  384MOL0     H51816   6.497  11.428   1.177 -2.5015  0.8778  0.2365
  384MOL0     H51817   6.372  11.337   1.238 -0.5210  1.4389 -1.7374
  384MOL0     H51818   6.491  11.578   1.364 -0.4042  0.3521  0.8882
  384MOL0     H51819   6.403  11.468   1.466  0.1907 -0.6966 -0.6190
  384MOL0     H51820   6.290  11.582   1.207 -0.2134  1.3171 -0.0534
  384MOL0     H51821   6.281  11.657   1.366  2.5366  1.0401 -1.7703
  384MOL0     H51822   7.196  11.150   1.259  0.7482  0.8134 -1.7474
  384MOL0     H51823   7.416  11.095   1.211  1.5160 -0.8947  1.4086
  384MOL0     H51824   7.687  10.668   1.268  0.0458  1.3996  3.5320
  384MOL0     H51825   7.889  10.610   1.356 -0.7257  0.8401 -0.1423
  384MOL0     H51826   9.370   9.415   0.481  0.4232 -0.8578  0.5708
  384MOL0     H51827   9.611   9.397   0.411 -0.7344  0.7966 -0.3528
  384MOL0     H51828  10.034   9.495   0.167 -0.1346 -0.8192  0.7960
  384MOL0     H51829  10.275   9.454   0.175  1.2579  3.4792 -0.0202
  384MOL0     H51830  10.464   9.672   0.449  3.2202  1.7313 -6.0452
  384MOL0     H51831  10.483   9.530   0.559 -0.8026  0.2725  1.3357
  384MOL0     H51832  10.691   9.652   0.461  0.2260  0.3289 -1.3790
  384MOL0     H51833  10.646   9.568   0.312 -0.3714  0.4413  1.1082
  384MOL0     H51834  10.791   9.409   0.376 -0.4993 -0.9147 -1.6550
  384MOL0     H51835  10.642   9.344   0.428  0.0341  0.7628 -0.7276
  384MOL0     H51836  10.671   9.412   0.653  0.1260  0.1510  1.2329
  384MOL0     H51837  10.820   9.513   0.615  1.2094 -0.8922 -0.9225
  384MOL0     H51838  11.007   9.143   0.638  1.9783  0.9210 -2.9072
  384MOL0     H51839  10.256   9.524   0.602 -2.4472  1.2919  1.5551
  384MOL0     H51840  10.030   9.529   0.595 -1.1044 -1.2034 -0.4460
  385MOL0     O51841   6.308   7.158   8.461  0.3311 -0.0122 -0.7066
  385MOL0     C51842   6.344   7.058   8.532  0.7054  0.4641 -0.5335
  385MOL0     O51843   6.253   6.981   8.603 -0.2765  0.3520  0.4656
  385MOL0     C51844   6.118   7.020   8.612 -0.0066 -0.2890 -0.8454
  385MOL0     C51845   6.025   6.923   8.570 -0.4868  0.9850  0.1341
  385MOL0     C51846   5.889   6.935   8.598  0.8655 -0.8902 -0.4544
  385MOL0     C51847   5.836   7.047   8.668  0.2409 -0.0099 -0.4116
  385MOL0     O51848   5.700   7.054   8.677  0.3276 -0.2550  0.0877
  385MOL0     C51849   5.629   7.165   8.735  0.5143 -0.3239 -0.3773
  385MOL0     C51850   5.480   7.152   8.706 -0.1268 -0.1422 -0.6597
  385MOL0     C51851   5.395   7.219   8.815 -1.2980 -0.1389 -0.3459
  385MOL0     C51852   5.251   7.218   8.767  0.8644  0.7750 -0.3157
  385MOL0     C51853   5.160   7.313   8.854  0.4224  0.3038 -1.2071
  385MOL0     C51854   5.009   7.310   8.827 -0.6212 -0.0397 -0.0881
  385MOL0     C51855   4.951   7.168   8.805  0.2656  0.2204 -0.2503
  385MOL0     C51856   4.796   7.170   8.809 -0.3020 -1.1646  0.0157
  385MOL0     N51857   4.729   7.042   8.783 -0.4216  0.3366  0.5678
  385MOL0     C51858   4.708   6.941   8.874  0.3799  0.1658 -0.2951
  385MOL0     C51859   4.631   6.854   8.801 -0.1218 -0.0678  0.4045
  385MOL0     C51860   4.568   6.731   8.865  0.2456 -0.2151  0.2054
  385MOL0     C51861   4.425   6.726   8.796 -0.1536  0.0254 -0.4608
  385MOL0     C51862   4.340   6.611   8.848  0.5051 -0.8177 -0.4626
  385MOL0     C51863   4.191   6.651   8.876  0.6373 -0.4687 -0.0593
  385MOL0     O51864   4.129   6.700   8.755  0.3111  0.0865  0.6689
  385MOL0     C51865   3.997   6.742   8.768  0.8626  0.4014 -0.4294
  385MOL0     C51866   3.926   6.767   8.653 -0.1587 -0.1258  0.6318
  385MOL0     C51867   3.786   6.797   8.651 -0.1260 -0.0333 -0.2938
  385MOL0     C51868   3.726   6.814   8.513  0.6507 -0.3599  0.3524
  385MOL0     C51869   3.715   6.807   8.771  0.8155  0.7177  0.2849
  385MOL0     C51870   3.572   6.836   8.786 -0.4712  0.5070 -0.0671
  385MOL0     O51871   3.517   6.795   8.907 -0.0653  0.5993  1.2074
  385MOL0     C51872   3.390   6.831   8.933  1.0111  0.6078  0.4050
  385MOL0     C51873   3.343   6.954   8.992  0.1229  0.0582  0.0962
  385MOL0     C51874   3.203   6.974   9.009  0.0116 -0.2890  0.0685
  385MOL0     C51875   3.109   6.883   8.965  0.1553  0.5305 -0.0038
  385MOL0     O51876   2.974   6.921   8.980  0.2683 -0.3562 -0.3721
  385MOL0     C51877   2.876   6.826   8.923 -0.1909 -0.6817 -0.8218
  385MOL0     C51878   2.737   6.887   8.915  0.0553 -0.1031  0.9958
  385MOL0     C51879   2.669   6.899   9.045  0.5508 -0.0836  0.2491
  385MOL0     C51880   2.521   6.896   9.031  0.2143 -0.4670 -0.7102
  385MOL0     C51881   2.456   6.867   9.162  0.9809  0.8398  0.5405
  385MOL0     C51882   2.301   6.864   9.140 -0.0631 -0.7287  0.2584
  385MOL0     C51883   2.214   6.850   9.273 -0.6638  0.0687  0.4424
  385MOL0     C51884   2.213   6.966   9.365 -0.5101 -0.6229 -0.3544
  385MOL0    Cl51885   2.345   6.964   9.481 -0.1861  0.0637  0.0663
  385MOL0     C51886   3.154   6.764   8.904  0.3153 -0.6696  0.6518
  385MOL0     C51887   3.295   6.733   8.894  0.8334 -0.1794  1.0250
  385MOL0     O51888   3.507   6.892   8.698 -0.0837  0.1025  0.0519
  385MOL0     C51889   3.788   6.785   8.887  0.2853 -0.0598  0.5905
  385MOL0     C51890   3.920   6.751   8.879  0.1700 -0.1390 -0.3994
  385MOL0     N51891   4.611   6.906   8.671  0.3386 -0.2520 -0.0195
  385MOL0     N51892   4.682   7.014   8.659 -0.4265  0.0478  0.3259
  385MOL0     C51893   5.934   7.148   8.710  0.6505 -0.1193 -0.1335
  385MOL0     C51894   6.079   7.136   8.689 -0.2290 -0.3384 -0.4983
  385MOL0     C51895   6.475   7.006   8.516 -0.0308 -0.8422 -0.4945
  385MOL0     C51896   6.569   7.076   8.439 -0.5943 -0.2432  0.9387
  385MOL0     C51897   6.687   7.026   8.408 -0.3958 -0.0710 -0.4654
  385MOL0     C51898   6.725   6.901   8.459 -0.3070  0.8774  0.2099
  385MOL0     O51899   6.856   6.855   8.432 -0.5705 -0.1838 -0.1232
  385MOL0     C51900   6.927   6.777   8.525  0.9087  0.0480 -0.0905
  385MOL0     C51901   7.068   6.762   8.483 -0.2236  0.1685 -0.3721
  385MOL0     C51902   7.074   6.677   8.357  0.2983  0.0540  0.5958
  385MOL0     C51903   7.210   6.638   8.327 -0.1310 -0.4518  0.6583
  385MOL0     C51904   7.209   6.555   8.213  0.1626  0.5847 -0.2908
  385MOL0     C51905   7.224   6.494   8.112 -0.0158  0.0250  0.6688
  385MOL0     C51906   6.639   6.835   8.542 -0.1156  0.0918 -0.2352
  385MOL0     C51907   6.517   6.889   8.570  0.3075  0.2627  0.6391
  385MOL0     H51908   6.061   6.835   8.517  0.7084  1.1163  0.6922
  385MOL0     H51909   5.821   6.854   8.572  0.2429 -0.1066 -1.3327
  385MOL0     H51910   5.633   7.167   8.845  0.5621  0.4140 -0.3901
  385MOL0     H51911   5.655   7.263   8.695  0.5740  0.2095  0.9050
  385MOL0     H51912   5.465   7.212   8.615 -1.7561  3.0654  1.5422
  385MOL0     H51913   5.452   7.048   8.690  2.2894 -1.7546  3.9344
  385MOL0     H51914   5.403   7.165   8.909  0.5928 -3.4836 -2.2335
  385MOL0     H51915   5.424   7.325   8.822 -5.0098  0.9436  1.0205
  385MOL0     H51916   5.237   7.247   8.662 -3.4356 -1.2183 -0.5151
  385MOL0     H51917   5.215   7.115   8.776  0.3573  0.8559 -1.2614
  385MOL0     H51918   5.165   7.283   8.959 -3.2934  1.7196 -0.4971
  385MOL0     H51919   5.201   7.414   8.858 -1.5194  1.0750  1.7306
  385MOL0     H51920   4.951   7.363   8.903 -1.9009  1.7983 -2.2315
  385MOL0     H51921   4.990   7.369   8.737  1.1722  0.3610 -0.2392
  385MOL0     H51922   4.969   7.116   8.710  0.9692 -4.2793  2.1131
  385MOL0     H51923   4.974   7.094   8.882 -2.5839  0.1199  0.6225
  385MOL0     H51924   4.752   7.245   8.742  1.4031 -1.8584 -1.9800
  385MOL0     H51925   4.762   7.203   8.908  3.1528  0.9476  0.6801
  385MOL0     H51926   4.739   6.947   8.978  3.6880  2.9532 -1.2478
  385MOL0     H51927   4.627   6.644   8.837 -0.8424 -0.8529 -0.1761
  385MOL0     H51928   4.568   6.753   8.972 -1.2414  2.8638 -0.2899
  385MOL0     H51929   4.437   6.716   8.688 -0.1893 -2.8658 -0.2648
  385MOL0     H51930   4.373   6.821   8.817 -2.7182 -1.4309  0.2253
  385MOL0     H51931   4.389   6.588   8.943 -2.6121 -1.4284  1.1457
  385MOL0     H51932   4.337   6.522   8.784 -2.9847 -2.0470  1.1060
  385MOL0     H51933   4.196   6.737   8.943 -0.8183  1.1987 -1.9451
  385MOL0     H51934   4.126   6.574   8.917 -0.4956 -1.3448 -3.2025
  385MOL0     H51935   3.988   6.761   8.564  1.3906 -0.3117  1.6906
  385MOL0     H51936   3.665   6.905   8.510  1.1139  0.0204  1.5931
  385MOL0     H51937   3.812   6.832   8.447 -1.6709 -2.3018 -3.5931
  385MOL0     H51938   3.679   6.727   8.467  0.2932  1.0898 -2.2254
  385MOL0     H51939   3.416   7.024   9.030 -0.1464  0.6517 -0.4651
  385MOL0     H51940   3.167   7.063   9.060 -0.1446  0.3356 -1.0837
  385MOL0     H51941   2.902   6.811   8.818 -0.3132 -1.2352 -0.7737
  385MOL0     H51942   2.858   6.734   8.979 -2.0453  0.3062  0.3116
  385MOL0     H51943   2.761   6.983   8.868  0.8752 -0.0104  1.5793
  385MOL0     H51944   2.680   6.815   8.854 -1.0501  1.1988  0.4347
  385MOL0     H51945   2.698   6.993   9.092  1.4065  0.0217 -0.4591
  385MOL0     H51946   2.698   6.812   9.105 -0.1868 -0.3218  0.2796
  385MOL0     H51947   2.486   6.994   8.997  0.7266  1.5257  3.8839
  385MOL0     H51948   2.500   6.802   8.978  0.4060 -1.9213  1.6670
  385MOL0     H51949   2.478   6.951   9.228  0.3600  0.6607  0.9856
  385MOL0     H51950   2.497   6.774   9.202  2.5014  0.0632 -2.5184
  385MOL0     H51951   2.266   6.954   9.088 -0.7155 -0.4117  1.2171
  385MOL0     H51952   2.293   6.776   9.075 -2.7975  1.1703 -2.2345
  385MOL0     H51953   2.233   6.756   9.325 -1.8656 -0.0129  0.7596
  385MOL0     H51954   2.110   6.843   9.239 -0.4952  0.5278 -0.1918
  385MOL0     H51955   2.118   6.962   9.420 -0.0625  1.3106  0.6335
  385MOL0     H51956   2.207   7.055   9.302 -4.2784 -0.4954 -0.0703
  385MOL0     H51957   3.077   6.698   8.865  1.7248 -1.6398 -0.5943
  385MOL0     H51958   3.327   6.645   8.839 -2.4887 -0.6571 -0.4048
  385MOL0     H51959   3.750   6.782   8.989  3.8666 -2.1423  2.0584
  385MOL0     H51960   3.959   6.725   8.977  0.6113 -2.1468 -1.0740
  385MOL0     H51961   5.896   7.229   8.772 -0.2090 -0.4718 -0.1754
  385MOL0     H51962   6.152   7.203   8.733  0.0898 -1.1513  0.2244
  385MOL0     H51963   6.550   7.175   8.399  0.1223  0.0276  1.2653
  385MOL0     H51964   6.759   7.077   8.344 -0.1303 -0.1165 -0.2065
  385MOL0     H51965   6.906   6.819   8.623 -2.3681  1.2660 -1.1633
  385MOL0     H51966   6.882   6.678   8.517  2.2768 -0.5193 -1.2258
  385MOL0     H51967   7.113   6.711   8.568 -1.1462  3.6136  2.4208
  385MOL0     H51968   7.112   6.859   8.458 -0.0235 -0.2249 -1.5867
  385MOL0     H51969   7.029   6.722   8.269 -0.4453 -0.9486  0.4380
  385MOL0     H51970   7.017   6.584   8.372 -0.1267  0.2143  0.0004
  385MOL0     H51971   7.264   6.590   8.409 -1.2229 -2.3037  0.3489
  385MOL0     H51972   7.265   6.727   8.296 -3.3358  1.5878  0.3165
  385MOL0     H51973   7.227   6.442   8.019 -0.4044 -0.5290  0.9584
  385MOL0     H51974   6.666   6.742   8.592 -1.8324  0.3536  1.2779
  385MOL0     H51975   6.447   6.828   8.627  0.2760 -1.5600 -1.2099
  386MOL0     O51976   2.618   3.187  11.253  0.0489 -0.6612  0.1242
  386MOL0     C51977   2.675   3.206  11.147 -0.3046 -0.5991  0.2748
  386MOL0     O51978   2.623   3.189  11.023 -0.1549 -0.6419 -0.3459
  386MOL0     C51979   2.497   3.134  11.014 -0.6686 -0.1322 -0.2204
  386MOL0     C51980   2.473   2.999  11.035  0.5455 -0.1301 -0.3386
  386MOL0     C51981   2.339   2.952  11.028  0.0083 -0.5270  0.6440
  386MOL0     C51982   2.236   3.041  10.991 -0.1107 -0.4407  0.1175
  386MOL0     O51983   2.108   3.007  10.991  0.6713  0.0646  0.1186
  386MOL0     C51984   2.080   2.864  11.004  0.9957 -0.3266  0.4889
  386MOL0     C51985   1.923   2.838  11.005  0.7437  0.6410 -0.5803
  386MOL0     C51986   1.841   2.913  10.902 -0.7808  0.2020 -0.8834
  386MOL0     C51987   1.787   3.045  10.957  0.1164  0.5598 -0.2049
  386MOL0     C51988   1.791   3.157  10.854 -0.6767 -0.2492  0.0984
  386MOL0     C51989   1.714   3.279  10.897 -0.8985  0.3288 -0.5213
  386MOL0     C51990   1.730   3.393  10.801 -1.0652  0.3319  1.0768
  386MOL0     C51991   1.680   3.535  10.847  0.2697 -0.8712  0.4593
  386MOL0     N51992   1.543   3.512  10.906 -0.1856 -0.1578  0.5297
  386MOL0     C51993   1.427   3.505  10.838 -0.1413  0.4673  0.8076
  386MOL0     C51994   1.335   3.527  10.936  0.3009 -0.0500 -0.1683
  386MOL0     C51995   1.190   3.554  10.903 -1.4134  0.7879 -0.5775
  386MOL0     C51996   1.090   3.532  11.017  0.0832 -0.0340  0.0154
  386MOL0     C51997   0.946   3.572  10.988  0.0825  0.3439 -0.3041
  386MOL0     C51998   0.859   3.499  11.083  0.2741  0.0165 -0.1957
  386MOL0     O51999   0.725   3.539  11.052 -0.3437 -0.2216 -0.4590
  386MOL0     C52000   0.623   3.486  11.129  0.7847  0.0299 -0.4659
  386MOL0     C52001   0.645   3.387  11.227  0.5268 -0.1412  0.3717
  386MOL0     C52002   0.543   3.348  11.309  0.7142  0.3163  0.0829
  386MOL0     C52003   0.585   3.247  11.415  1.0510 -0.0913 -0.5171
  386MOL0     C52004   0.405   3.380  11.281 -0.8470  0.4081 -0.0864
  386MOL0     C52005   0.287   3.344  11.361  0.3505 -0.0685  0.1934
  386MOL0     O52006   0.170   3.406  11.336  0.2424 -0.2373 -0.3940
  386MOL0     C52007   0.071   3.398  11.433 -0.6790  0.6972  0.0964
  386MOL0     C52008  -0.055   3.416  11.371 -0.4422  0.0978 -0.3869
  386MOL0     C52009  -0.169   3.415  11.452  0.3236  0.6032  0.6684
  386MOL0     C52010  -0.157   3.391  11.589 -0.0372 -0.2533  0.0485
  386MOL0     O52011  -0.277   3.395  11.659 -0.2584 -0.1932  0.0118
  386MOL0     C52012  -0.289   3.300  11.768 -0.1931  0.1139 -0.1846
  386MOL0     C52013  -0.413   3.337  11.858 -0.1318  0.1676 -0.2724
  386MOL0     C52014  -0.385   3.463  11.933 -0.6563  0.2581 -0.2283
  386MOL0     C52015  -0.514   3.519  11.996 -0.5103  0.1583 -0.2763
  386MOL0     C52016  -0.482   3.646  12.069  0.8739 -0.0688 -0.8405
  386MOL0     C52017  -0.618   3.729  12.100 -0.1058 -0.0308  0.3924
  386MOL0     C52018  -0.604   3.850  12.182 -0.9469  0.2923  0.1885
  386MOL0     C52019  -0.730   3.913  12.193 -0.5202 -0.3512 -0.8489
  386MOL0    Cl52020  -0.786   3.963  12.037  0.1809  0.0105  0.3759
  386MOL0     C52021  -0.027   3.366  11.651  0.1831  0.3317 -0.5127
  386MOL0     C52022   0.082   3.369  11.574  0.1957 -0.5987 -0.1656
  386MOL0     O52023   0.300   3.244  11.439  0.3596 -0.0177  0.3151
  386MOL0     C52024   0.383   3.460  11.164 -0.2780  0.5585 -0.0310
  386MOL0     C52025   0.496   3.520  11.096  0.7392  0.6715  0.2588
  386MOL0     N52026   1.395   3.530  11.061  0.7028 -0.4436 -0.3874
  386MOL0     N52027   1.523   3.511  11.042  0.7146  0.5287 -0.2847
  386MOL0     C52028   2.262   3.170  10.948  0.4250  0.0571  1.0628
  386MOL0     C52029   2.391   3.209  10.962  0.1559  0.1690 -0.0248
  386MOL0     C52030   2.820   3.251  11.145  0.0008  0.4107 -0.0196
  386MOL0     C52031   2.881   3.321  11.251  0.4003  0.2988 -0.3676
  386MOL0     C52032   3.006   3.384  11.229  0.8984 -0.7043 -0.7728
  386MOL0     C52033   3.078   3.373  11.107  0.1693  0.1893  0.3568
  386MOL0     O52034   3.205   3.427  11.112 -0.1978  0.3226  0.0692
  386MOL0     C52035   3.315   3.387  11.016  0.8102 -0.6204 -0.7933
  386MOL0     C52036   3.342   3.484  10.898  0.1196  0.0608 -0.1478
  386MOL0     C52037   3.338   3.633  10.946 -0.1511  0.0695  0.2582
  386MOL0     C52038   3.482   3.672  10.975  1.1263 -0.7606 -0.5344
  386MOL0     C52039   3.551   3.593  11.074 -0.9944  0.1471 -0.3358
  386MOL0     C52040   3.618   3.531  11.156 -0.3582 -0.0644 -0.4732
  386MOL0     C52041   3.020   3.295  11.005  0.5565 -0.5994 -0.2673
  386MOL0     C52042   2.891   3.247  11.021 -0.3151  0.5326 -0.4039
  386MOL0     H52043   2.552   2.938  11.078 -1.1901 -1.4557  1.1494
  386MOL0     H52044   2.317   2.852  11.063  1.2756 -0.1726  2.5648
  386MOL0     H52045   2.119   2.799  10.925 -0.0406 -0.4707  0.0782
  386MOL0     H52046   2.116   2.817  11.096  3.0264 -1.2648 -0.7016
  386MOL0     H52047   1.907   2.731  10.991  0.6447  0.8161 -2.0165
  386MOL0     H52048   1.889   2.870  11.103 -0.0578 -0.9776 -0.2995
  386MOL0     H52049   1.891   2.922  10.806 -2.8483 -0.9736 -2.1476
  386MOL0     H52050   1.752   2.852  10.883  0.0470 -1.9840  1.5999
  386MOL0     H52051   1.686   3.032  10.995 -0.9626  1.1998 -2.6662
  386MOL0     H52052   1.847   3.082  11.041 -1.9223 -0.7757  1.9519
  386MOL0     H52053   1.898   3.174  10.837 -0.7949 -1.0372 -1.6907
  386MOL0     H52054   1.754   3.108  10.763  1.2771 -4.3965  1.2941
  386MOL0     H52055   1.608   3.252  10.902 -1.0373  0.7517 -1.0406
  386MOL0     H52056   1.742   3.297  11.001  2.4999 -4.4042 -0.3304
  386MOL0     H52057   1.836   3.406  10.774 -1.2759  1.9046  0.8755
  386MOL0     H52058   1.685   3.364  10.706  1.0733 -0.8379  0.3509
  386MOL0     H52059   1.687   3.603  10.763 -1.8915 -3.0676 -1.6791
  386MOL0     H52060   1.756   3.561  10.921 -1.8903 -1.4528  3.0564
  386MOL0     H52061   1.393   3.513  10.735 -1.9392 -0.3825  1.2798
  386MOL0     H52062   1.185   3.660  10.876  1.4989  0.9479 -0.8258
  386MOL0     H52063   1.154   3.496  10.819 -0.7645  1.1386 -1.1075
  386MOL0     H52064   1.126   3.575  11.110  1.6666 -1.2683  0.0228
  386MOL0     H52065   1.086   3.423  11.030 -0.4969  0.0464  0.5937
  386MOL0     H52066   0.921   3.540  10.887  0.9173 -0.7335 -0.1875
  386MOL0     H52067   0.926   3.678  11.008 -1.3629 -0.2993  2.0771
  386MOL0     H52068   0.890   3.512  11.187 -0.0020 -1.2085  0.0630
  386MOL0     H52069   0.864   3.394  11.050 -2.4567 -0.1631 -0.2892
  386MOL0     H52070   0.747   3.350  11.224  0.9306  0.9313 -1.8460
  386MOL0     H52071   0.559   3.295  11.509 -3.9551  0.9544 -2.1455
  386MOL0     H52072   0.526   3.156  11.409  0.4908  0.2093  0.2967
  386MOL0     H52073   0.692   3.223  11.419  1.1501  0.4893  1.0114
  386MOL0     H52074  -0.065   3.435  11.264 -0.1577  0.3452 -0.3720
  386MOL0     H52075  -0.263   3.415  11.396  1.8464 -0.4857 -2.1273
  386MOL0     H52076  -0.306   3.199  11.730 -3.6086  0.4880  0.0504
  386MOL0     H52077  -0.196   3.291  11.826  0.2202  1.0062 -0.6896
  386MOL0     H52078  -0.495   3.348  11.787  0.1309  0.7204 -0.4981
  386MOL0     H52079  -0.441   3.262  11.932  0.2353  1.4803  1.2504
  386MOL0     H52080  -0.344   3.532  11.859 -0.9210  0.4659 -0.1833
  386MOL0     H52081  -0.305   3.447  12.007 -0.6642  0.0512 -0.2638
  386MOL0     H52082  -0.591   3.528  11.918  0.6263 -2.9236 -1.9211
  386MOL0     H52083  -0.547   3.446  12.070  0.3609  0.6359  0.6027
  386MOL0     H52084  -0.422   3.707  12.002  0.8511  0.2665 -0.5612
  386MOL0     H52085  -0.428   3.624  12.161 -1.7356  1.4247  1.1947
  386MOL0     H52086  -0.662   3.746  12.001 -0.1300  0.6142  0.5088
  386MOL0     H52087  -0.684   3.660  12.153 -2.1784  2.4522  1.2718
  386MOL0     H52088  -0.531   3.917  12.133 -3.8233  3.1613 -0.5430
  386MOL0     H52089  -0.564   3.833  12.282 -3.4055  0.2596  1.2219
  386MOL0     H52090  -0.697   3.995  12.257 -0.4710 -0.3404 -0.8882
  386MOL0     H52091  -0.804   3.857  12.251 -0.5906  0.6602  0.0516
  386MOL0     H52092  -0.008   3.337  11.754 -0.0737  2.9539  0.3578
  386MOL0     H52093   0.183   3.355  11.612 -0.3667  0.0146  1.6495
  386MOL0     H52094   0.281   3.486  11.137  0.1642  0.4694 -1.9072
  386MOL0     H52095   0.477   3.583  11.010  4.1463  3.4005  1.2379
  386MOL0     H52096   2.188   3.244  10.922  2.9828  3.1456  2.0044
  386MOL0     H52097   2.408   3.314  10.938 -3.6653  0.6849 -1.0672
  386MOL0     H52098   2.835   3.335  11.348  0.5929  0.3628 -0.2857
  386MOL0     H52099   3.044   3.447  11.309  0.4147 -0.8300 -0.4415
  386MOL0     H52100   3.410   3.374  11.070  0.3224  1.8727  0.8427
  386MOL0     H52101   3.307   3.291  10.965  2.0112  0.5333 -3.3431
  386MOL0     H52102   3.266   3.468  10.821  1.5836 -0.2692 -1.5700
  386MOL0     H52103   3.440   3.459  10.857  0.4160  0.0011  0.5798
  386MOL0     H52104   3.276   3.633  11.036 -1.4698 -0.6312 -0.6118
  386MOL0     H52105   3.294   3.697  10.869  0.9558  0.1167 -0.3707
  386MOL0     H52106   3.478   3.780  10.994 -1.2544 -0.9646  0.4132
  386MOL0     H52107   3.537   3.655  10.881  3.9734 -0.6383  0.9818
  386MOL0     H52108   3.647   3.476  11.243 -1.1532 -0.1488 -0.2474
  386MOL0     H52109   3.073   3.282  10.911  1.0734 -0.0813 -0.0532
  386MOL0     H52110   2.843   3.202  10.935  1.8104 -2.1232 -0.3293
  387MOL0     O52111  10.523   3.692   9.258 -0.4524  0.1617 -0.4723
  387MOL0     C52112  10.537   3.638   9.368  0.0823 -0.1585 -0.3796
  387MOL0     O52113  10.457   3.541   9.420  0.1706  0.0111 -0.0705
  387MOL0     C52114  10.357   3.484   9.347  0.3725  0.4554 -0.5149
  387MOL0     C52115  10.285   3.537   9.239 -0.2958 -0.1178  0.0600
  387MOL0     C52116  10.172   3.480   9.188 -1.1537 -0.0493 -0.6535
  387MOL0     C52117  10.121   3.367   9.258 -0.4267 -0.1746  0.1018
  387MOL0     O52118   9.993   3.334   9.218 -0.4921 -0.3868  0.3771
  387MOL0     C52119   9.903   3.286   9.324 -0.8564  1.5631  0.1947
  387MOL0     C52120   9.794   3.220   9.247 -0.4701  0.7350 -0.0543
  387MOL0     C52121   9.681   3.177   9.348  0.5384 -0.5948  0.7497
  387MOL0     C52122   9.560   3.112   9.282  0.1711  0.4320  0.3679
  387MOL0     C52123   9.460   3.055   9.385  0.3815 -0.1816 -0.7018
  387MOL0     C52124   9.506   2.948   9.483  0.5759 -0.6391  0.0895
  387MOL0     C52125   9.406   2.902   9.585  0.7353  0.2070  0.0327
  387MOL0     C52126   9.280   2.840   9.530  0.3848  0.2406  0.1951
  387MOL0     N52127   9.161   2.927   9.524 -0.3654 -0.0444 -0.1631
  387MOL0     C52128   9.092   2.972   9.632 -0.6371 -0.0270  0.0083
  387MOL0     C52129   8.970   2.996   9.585 -0.1896 -0.4454 -0.5305
  387MOL0     C52130   8.852   3.044   9.662  0.4581  0.4813  0.1133
  387MOL0     C52131   8.741   2.931   9.678 -1.4527 -0.3630  0.0989
  387MOL0     C52132   8.692   2.872   9.544 -0.2273  0.1690  0.6260
  387MOL0     C52133   8.636   2.981   9.447 -0.8171 -0.4611  0.3048
  387MOL0     O52134   8.545   3.070   9.502  1.1837 -0.0679  0.2805
  387MOL0     C52135   8.420   3.021   9.530 -0.7742 -1.0975 -0.5209
  387MOL0     C52136   8.373   2.892   9.519  0.4728 -0.1430  0.5890
  387MOL0     C52137   8.245   2.859   9.555  0.1425  0.0322  0.0065
  387MOL0     C52138   8.197   2.719   9.526  0.7067 -0.1158  0.4777
  387MOL0     C52139   8.161   2.958   9.615  0.1499 -0.0670 -0.4357
  387MOL0     C52140   8.022   2.932   9.656  0.4959 -0.3546 -0.6426
  387MOL0     O52141   7.983   2.800   9.699 -1.1816 -1.1063  0.0309
  387MOL0     C52142   7.855   2.760   9.731  0.9878 -0.2704 -0.3225
  387MOL0     C52143   7.836   2.673   9.845 -0.8710 -0.7018 -0.3335
  387MOL0     C52144   7.707   2.630   9.882  0.0698 -1.0167  0.4630
  387MOL0     C52145   7.598   2.670   9.811 -0.3387 -1.1917 -0.0218
  387MOL0     O52146   7.482   2.623   9.859  0.7295 -0.3753  0.0942
  387MOL0     C52147   7.414   2.536   9.758  0.0980  0.4001 -1.0321
  387MOL0     C52148   7.288   2.600   9.701 -0.7616  1.0911 -0.0875
  387MOL0     C52149   7.199   2.502   9.630  0.5760 -0.0472  1.0263
  387MOL0     C52150   7.051   2.520   9.662 -0.3367 -0.0482 -0.1876
  387MOL0     C52151   6.969   2.406   9.605 -0.0896  0.1363  0.0817
  387MOL0     C52152   6.980   2.390   9.455  0.0383  0.7842  0.0244
  387MOL0     C52153   6.866   2.286   9.417 -0.7165  0.2173 -0.2712
  387MOL0     C52154   6.822   2.298   9.274 -0.7878  0.4985 -0.3662
  387MOL0    Cl52155   6.677   2.412   9.252  0.3243  0.1074 -0.2185
  387MOL0     C52156   7.612   2.748   9.695 -0.9666 -0.1172 -0.0144
  387MOL0     C52157   7.738   2.797   9.661 -0.4542 -1.0349 -0.4182
  387MOL0     O52158   7.942   3.027   9.651  0.4988  0.5179 -0.6858
  387MOL0     C52159   8.213   3.091   9.634  0.6512  0.5073 -0.7998
  387MOL0     C52160   8.345   3.114   9.604 -0.3798 -0.3231  1.1204
  387MOL0     N52161   8.975   2.980   9.448 -0.0178  0.6653  0.5889
  387MOL0     N52162   9.093   2.946   9.413  0.2515  0.1828  0.2693
  387MOL0     C52163  10.189   3.316   9.367  0.2041  0.0986  0.5851
  387MOL0     C52164  10.302   3.371   9.413  0.3306  0.3899 -0.8528
  387MOL0     C52165  10.668   3.663   9.427  0.5640 -0.5104 -0.9557
  387MOL0     C52166  10.783   3.694   9.352  0.3779 -0.0358 -1.0421
  387MOL0     C52167  10.903   3.701   9.417 -0.0406  0.3084 -0.4543
  387MOL0     C52168  10.912   3.673   9.554  0.3399  0.2103  0.6502
  387MOL0     O52169  11.030   3.677   9.613 -0.1828 -0.1379  0.0334
  387MOL0     C52170  11.115   3.566   9.572 -0.4815 -1.0123  0.0573
  387MOL0     C52171  11.256   3.582   9.631 -0.4058  0.2886  1.0443
  387MOL0     C52172  11.342   3.691   9.576 -0.6264  0.7016  0.5379
  387MOL0     C52173  11.387   3.654   9.433  0.2719 -1.8274  0.3764
  387MOL0     C52174  11.475   3.545   9.416  0.6806  0.1922  0.8249
  387MOL0     C52175  11.548   3.456   9.386 -0.1639 -0.5864  0.2863
  387MOL0     C52176  10.801   3.638   9.625  1.4188 -0.0390  0.4726
  387MOL0     C52177  10.676   3.640   9.569 -0.3392 -0.5054  0.6844
  387MOL0     H52178  10.312   3.631   9.191  0.6220  0.0790  0.9348
  387MOL0     H52179  10.125   3.523   9.100 -2.1380  0.6603  0.1916
  387MOL0     H52180   9.938   3.203   9.386 -1.7677  2.5202  2.0636
  387MOL0     H52181   9.863   3.360   9.394 -2.8101 -0.1583  1.0162
  387MOL0     H52182   9.752   3.286   9.171  1.2080 -0.0584 -1.7640
  387MOL0     H52183   9.835   3.130   9.200 -0.1212  0.2776  1.0950
  387MOL0     H52184   9.724   3.108   9.420  2.1488  1.9702  2.4009
  387MOL0     H52185   9.652   3.267   9.403 -2.3365 -2.9640  3.4783
  387MOL0     H52186   9.518   3.187   9.214 -0.6378  0.9760  1.4466
  387MOL0     H52187   9.585   3.025   9.220 -1.8707  0.1845 -0.2004
  387MOL0     H52188   9.420   3.140   9.441  0.1827 -0.3346 -0.6131
  387MOL0     H52189   9.380   3.011   9.325  1.1623 -0.7491 -1.3457
  387MOL0     H52190   9.537   2.859   9.427  0.4528 -2.3182  2.5676
  387MOL0     H52191   9.598   2.979   9.534 -0.5465  2.3156  0.4936
  387MOL0     H52192   9.460   2.823   9.638  1.6473 -0.6943 -2.1223
  387MOL0     H52193   9.370   2.981   9.650 -2.5944  0.0120 -1.3441
  387MOL0     H52194   9.257   2.763   9.605 -0.2082  2.8511  2.8557
  387MOL0     H52195   9.302   2.796   9.432  0.2882  1.6711 -0.4985
  387MOL0     H52196   9.110   2.977   9.738 -0.4878  2.1327 -0.0731
  387MOL0     H52197   8.894   3.063   9.761  0.3647 -1.4862  0.5852
  387MOL0     H52198   8.804   3.126   9.608  0.1904  1.5032  1.8393
  387MOL0     H52199   8.654   2.980   9.722 -1.7187 -0.5231 -0.2437
  387MOL0     H52200   8.776   2.848   9.740  0.7702  0.5591  0.1577
  387MOL0     H52201   8.616   2.797   9.568 -0.4018  1.2147  3.7529
  387MOL0     H52202   8.773   2.826   9.486 -0.5214 -0.3326  0.6011
  387MOL0     H52203   8.592   2.927   9.363 -0.2268 -0.4996  0.0139
  387MOL0     H52204   8.714   3.038   9.395  0.5243 -1.0847  1.5620
  387MOL0     H52205   8.434   2.814   9.475  0.7862  0.6289 -0.4150
  387MOL0     H52206   8.265   2.660   9.464  0.2586  1.5883 -1.7329
  387MOL0     H52207   8.186   2.668   9.622  2.9807 -1.3859  0.1344
  387MOL0     H52208   8.100   2.725   9.477  0.9344  0.6589  0.1054
  387MOL0     H52209   7.924   2.643   9.902 -1.1666 -0.0935  0.4698
  387MOL0     H52210   7.694   2.566   9.969 -2.1271  0.1640  1.1093
  387MOL0     H52211   7.477   2.495   9.678  0.9772  0.9468 -0.6436
  387MOL0     H52212   7.372   2.456   9.820  0.0594  1.8741  0.9474
  387MOL0     H52213   7.231   2.652   9.778 -2.2553 -0.3146 -0.2016
  387MOL0     H52214   7.329   2.678   9.636 -0.9978  0.6413 -0.7946
  387MOL0     H52215   7.227   2.398   9.654 -1.2446 -0.9656 -0.5661
  387MOL0     H52216   7.202   2.509   9.521  0.7702  2.7180  1.1562
  387MOL0     H52217   7.044   2.532   9.770  0.5152  2.3873 -0.3411
  387MOL0     H52218   7.020   2.618   9.622  1.2226  0.4839 -0.1849
  387MOL0     H52219   6.863   2.420   9.630 -0.4711 -1.3186 -0.5875
  387MOL0     H52220   6.998   2.312   9.652 -0.0216 -0.6471 -1.4543
  387MOL0     H52221   6.984   2.484   9.399  0.5754  1.8300  1.7515
  387MOL0     H52222   7.078   2.345   9.433 -0.5553 -0.2410 -0.6087
  387MOL0     H52223   6.777   2.293   9.480  0.8385  0.1822  2.0308
  387MOL0     H52224   6.899   2.184   9.439 -0.9358  0.8097  3.4477
  387MOL0     H52225   6.800   2.193   9.253  2.2908 -0.0153 -1.6152
  387MOL0     H52226   6.912   2.325   9.218  1.6123  0.3625  3.1229
  387MOL0     H52227   7.526   2.784   9.640 -0.3020  1.0713 -0.3127
  387MOL0     H52228   7.762   2.856   9.573 -0.4290 -0.3881  0.0162
  387MOL0     H52229   8.154   3.168   9.683 -1.9028 -1.7430 -0.0924
  387MOL0     H52230   8.405   3.196   9.642  0.9432 -1.9361  2.6582
  387MOL0     H52231  10.166   3.221   9.415  4.4623 -3.1419 -2.9825
  387MOL0     H52232  10.344   3.341   9.508  3.4759  1.7715 -1.7043
  387MOL0     H52233  10.773   3.693   9.244  0.3747 -0.0801 -1.0418
  387MOL0     H52234  10.991   3.715   9.354 -1.2173 -2.7483 -3.0736
  387MOL0     H52235  11.076   3.472   9.611 -0.8407 -0.3606  1.3085
  387MOL0     H52236  11.124   3.553   9.464  0.2374 -1.0690  0.1193
  387MOL0     H52237  11.312   3.489   9.624 -0.3458  0.4265 -1.1472
  387MOL0     H52238  11.232   3.600   9.736 -0.5219 -1.2291  1.2981
  387MOL0     H52239  11.436   3.710   9.629  0.2910 -0.1407 -0.7359
  387MOL0     H52240  11.285   3.785   9.571 -0.8796  0.6078  1.5138
  387MOL0     H52241  11.431   3.743   9.386 -1.9522 -0.3928  0.8134
  387MOL0     H52242  11.298   3.637   9.371 -0.4443  1.7527  0.1633
  387MOL0     H52243  11.610   3.371   9.364 -2.3012 -1.8098 -1.4435
  387MOL0     H52244  10.820   3.627   9.732 -0.0494 -0.4013  0.7179
  387MOL0     H52245  10.600   3.602   9.637 -1.0440 -1.6824 -0.7058
  388MOL0     O52246   3.787   7.482   6.354  0.0642 -0.4767 -0.0657
  388MOL0     C52247   3.829   7.367   6.325  0.0376 -0.2878  0.0411
  388MOL0     O52248   3.773   7.256   6.376 -0.6183 -0.2559 -0.3795
  388MOL0     C52249   3.648   7.263   6.432  0.4124  0.7579  0.8738
  388MOL0     C52250   3.623   7.342   6.541 -0.6389 -0.0614 -0.7531
  388MOL0     C52251   3.499   7.331   6.615 -0.4519 -0.4650 -0.7979
  388MOL0     C52252   3.394   7.252   6.568 -1.1699 -0.2642 -0.2696
  388MOL0     O52253   3.276   7.245   6.641 -0.2247 -0.2539 -0.0361
  388MOL0     C52254   3.174   7.151   6.607  0.0081  0.0276  0.3255
  388MOL0     C52255   3.067   7.176   6.721  0.0757 -0.7673 -0.5336
  388MOL0     C52256   2.935   7.091   6.709 -0.0907  0.1053 -0.7459
  388MOL0     C52257   2.953   6.952   6.767  0.3375 -0.2130 -0.0312
  388MOL0     C52258   2.831   6.866   6.741 -0.2317  0.0707  0.1827
  388MOL0     C52259   2.841   6.725   6.803  0.1843 -0.8428  0.1690
  388MOL0     C52260   2.700   6.668   6.832  0.7454  0.2798  0.4734
  388MOL0     C52261   2.596   6.665   6.723 -0.5630 -0.5176  0.7210
  388MOL0     N52262   2.500   6.558   6.716 -0.0050  0.2477 -0.3088
  388MOL0     C52263   2.364   6.561   6.736 -0.5414 -0.1219  0.5383
  388MOL0     C52264   2.314   6.437   6.704 -0.0316 -0.3389  0.5932
  388MOL0     C52265   2.168   6.397   6.711  1.0233  0.8157  0.1793
  388MOL0     C52266   2.157   6.255   6.753  1.3172 -0.0349 -0.2436
  388MOL0     C52267   2.005   6.212   6.764 -0.6476 -0.1002 -0.1653
  388MOL0     C52268   1.999   6.062   6.777 -0.0375  0.6247  0.6425
  388MOL0     O52269   2.047   6.010   6.896  0.1623 -0.8004 -0.3323
  388MOL0     C52270   1.964   6.015   7.005  0.5056  0.2034  0.3165
  388MOL0     C52271   1.983   6.113   7.107 -0.1137  0.1360 -0.3607
  388MOL0     C52272   1.902   6.107   7.221 -0.8513  0.3409 -0.0812
  388MOL0     C52273   1.929   6.207   7.330  0.5337  0.6873 -0.0230
  388MOL0     C52274   1.818   5.999   7.243  1.2900 -0.0843 -1.0353
  388MOL0     C52275   1.728   5.987   7.363  0.1251  0.1936 -1.5377
  388MOL0     O52276   1.714   5.855   7.389 -0.1926 -1.1832  0.2882
  388MOL0     C52277   1.614   5.818   7.473  0.6747  0.7003  0.1155
  388MOL0     C52278   1.647   5.786   7.605 -0.0568  0.0670 -0.1390
  388MOL0     C52279   1.551   5.741   7.687  0.9480 -0.4930 -0.8028
  388MOL0     C52280   1.413   5.731   7.647 -0.7902 -1.0312  0.6193
  388MOL0     O52281   1.328   5.670   7.731  0.4785 -0.2811  0.0039
  388MOL0     C52282   1.299   5.739   7.849  0.6430  0.2351  0.2640
  388MOL0     C52283   1.175   5.827   7.834  0.4750 -0.9320 -0.1496
  388MOL0     C52284   1.044   5.749   7.838  0.1940  0.5173  0.4841
  388MOL0     C52285   0.944   5.781   7.952  0.5494  0.3203  0.0206
  388MOL0     C52286   0.816   5.703   7.925 -0.1491  0.8457 -0.5594
  388MOL0     C52287   0.716   5.745   8.034  0.4459  0.1227 -0.4726
  388MOL0     C52288   0.567   5.740   7.990 -0.5161 -0.2099  0.6590
  388MOL0     C52289   0.469   5.787   8.094 -0.3288 -0.1162  0.9895
  388MOL0    Cl52290   0.463   5.681   8.230 -0.2979 -0.1849  0.0928
  388MOL0     C52291   1.381   5.766   7.516 -0.8674  0.9429  0.8110
  388MOL0     C52292   1.481   5.815   7.432 -0.0715 -0.7527  0.4373
  388MOL0     O52293   1.678   6.080   7.429 -0.3238 -0.0549  1.1315
  388MOL0     C52294   1.796   5.909   7.138 -0.8133 -0.3749  0.3980
  388MOL0     C52295   1.873   5.913   7.022  0.2816 -0.1770 -0.4179
  388MOL0     N52296   2.419   6.363   6.646  0.4225  0.4912  0.0807
  388MOL0     N52297   2.530   6.427   6.677  0.1404  0.6025  0.0266
  388MOL0     C52298   3.424   7.183   6.448 -0.3395  0.0985 -0.4546
  388MOL0     C52299   3.545   7.180   6.381 -0.1739  0.9942 -0.2564
  388MOL0     C52300   3.944   7.361   6.226 -0.1999  0.7483 -0.3112
  388MOL0     C52301   3.981   7.236   6.183 -0.6581  1.2692  0.4758
  388MOL0     C52302   4.099   7.223   6.117  0.4474  0.4999 -0.0615
  388MOL0     C52303   4.182   7.327   6.079 -0.2008  0.1467 -0.5012
  388MOL0     O52304   4.307   7.318   6.014  0.7594 -0.1527  0.1707
  388MOL0     C52305   4.326   7.206   5.930  0.0173  0.2373 -0.3765
  388MOL0     C52306   4.338   7.273   5.793 -0.1527  0.2864 -0.8169
  388MOL0     C52307   4.395   7.189   5.675 -0.1575  1.1020  0.2120
  388MOL0     C52308   4.453   7.285   5.575  0.6174 -0.0908  0.3030
  388MOL0     C52309   4.532   7.194   5.483  1.0162 -0.1942 -0.1736
  388MOL0     C52310   4.588   7.120   5.405  0.7196  0.1778  1.2032
  388MOL0     C52311   4.153   7.454   6.132 -0.9711  0.3573 -0.4159
  388MOL0     C52312   4.031   7.467   6.206  1.0322  0.1192  0.6674
  388MOL0     H52313   3.700   7.396   6.596 -0.9231 -0.4414  0.0260
  388MOL0     H52314   3.495   7.386   6.709 -1.1675 -0.6829 -0.6959
  388MOL0     H52315   3.134   7.168   6.507  0.2842  1.0216  0.3759
  388MOL0     H52316   3.206   7.046   6.609 -2.1508 -0.7090 -0.6673
  388MOL0     H52317   3.120   7.144   6.811  0.3003 -0.2723 -0.4887
  388MOL0     H52318   3.044   7.282   6.733 -0.4615 -0.8873 -0.4552
  388MOL0     H52319   2.849   7.142   6.754  0.9709  3.3096 -2.0047
  388MOL0     H52320   2.904   7.088   6.604 -1.6844 -0.0832 -0.2932
  388MOL0     H52321   3.038   6.908   6.715 -0.2984 -0.2807 -1.0337
  388MOL0     H52322   2.976   6.956   6.874 -1.5393 -2.1331  0.4985
  388MOL0     H52323   2.746   6.924   6.780 -0.4264  1.1044 -1.6923
  388MOL0     H52324   2.834   6.867   6.632 -0.5242 -2.2745  0.0999
  388MOL0     H52325   2.900   6.655   6.743  1.3752  1.0551 -0.9911
  388MOL0     H52326   2.891   6.726   6.900 -0.7866  1.4519  0.7058
  388MOL0     H52327   2.717   6.561   6.851 -1.1394 -0.2271 -0.4210
  388MOL0     H52328   2.662   6.719   6.920  1.2620  2.9180 -0.7428
  388MOL0     H52329   2.656   6.653   6.632 -0.9017 -0.3289  0.4742
  388MOL0     H52330   2.545   6.761   6.711 -1.1202 -0.9945 -1.0000
  388MOL0     H52331   2.300   6.645   6.763 -0.5932 -0.2427  0.8016
  388MOL0     H52332   2.114   6.455   6.786 -0.4554  1.4814 -1.3145
  388MOL0     H52333   2.119   6.424   6.616  0.7754  1.7149  0.5464
  388MOL0     H52334   2.195   6.245   6.855 -2.7071  1.0975  1.5754
  388MOL0     H52335   2.210   6.189   6.685  1.4663 -1.1350  0.9138
  388MOL0     H52336   1.948   6.227   6.671 -1.0589 -1.0958 -0.0914
  388MOL0     H52337   1.956   6.264   6.846 -1.2491  2.4057 -1.9720
  388MOL0     H52338   2.068   6.022   6.702 -1.1850  0.3186 -0.2790
  388MOL0     H52339   1.899   6.024   6.753  0.7655 -0.3698 -1.4243
  388MOL0     H52340   2.058   6.190   7.093  0.8302 -0.9421 -1.4940
  388MOL0     H52341   1.873   6.300   7.318 -2.0819 -0.9593 -1.5387
  388MOL0     H52342   1.910   6.163   7.428 -1.5417  0.6750 -0.3895
  388MOL0     H52343   2.035   6.232   7.334  0.7490 -0.1890  0.1484
  388MOL0     H52344   1.750   5.805   7.633 -0.4340  0.3233  1.1244
  388MOL0     H52345   1.582   5.700   7.783  1.2332 -0.4718 -0.8864
  388MOL0     H52346   1.279   5.668   7.930  0.2400  0.0993  0.0493
  388MOL0     H52347   1.382   5.804   7.876 -0.2088  1.6455 -0.4059
  388MOL0     H52348   1.186   5.898   7.917  2.3804 -1.4721  0.1084
  388MOL0     H52349   1.182   5.888   7.744 -3.5537  1.5578  0.9760
  388MOL0     H52350   1.059   5.641   7.846 -0.5539  0.4416  0.9598
  388MOL0     H52351   0.988   5.772   7.747 -0.3690  0.6636  0.8655
  388MOL0     H52352   0.973   5.756   8.054 -1.6026 -2.1916  0.1318
  388MOL0     H52353   0.932   5.890   7.951 -1.7345  0.1419  1.2347
  388MOL0     H52354   0.829   5.595   7.928 -4.0635  0.2668 -0.1601
  388MOL0     H52355   0.779   5.723   7.824  3.0219 -1.3951 -2.3481
  388MOL0     H52356   0.720   5.680   8.122 -0.0698  0.2188 -0.3710
  388MOL0     H52357   0.742   5.845   8.068  1.2722 -0.4767  0.7122
  388MOL0     H52358   0.538   5.640   7.957 -1.4674  0.1751  0.3170
  388MOL0     H52359   0.547   5.795   7.898 -0.3044  2.8262  2.2833
  388MOL0     H52360   0.367   5.798   8.056 -0.0580 -0.3524  0.1810
  388MOL0     H52361   0.501   5.885   8.131  0.1397 -0.1465  0.6671
  388MOL0     H52362   1.281   5.758   7.475 -0.6269 -0.8337  0.4706
  388MOL0     H52363   1.458   5.867   7.340  2.2620  1.4471  0.9898
  388MOL0     H52364   1.728   5.824   7.135 -0.4209 -0.7161  1.1011
  388MOL0     H52365   1.879   5.830   6.953  2.3980  0.2264 -0.8056
  388MOL0     H52366   3.346   7.127   6.396 -1.1814  1.2652 -0.4963
  388MOL0     H52367   3.565   7.120   6.293  3.2002  1.1749  0.2406
  388MOL0     H52368   3.921   7.153   6.218 -1.3645  3.4697  5.2629
  388MOL0     H52369   4.120   7.119   6.093  0.7332  0.5586 -0.0710
  388MOL0     H52370   4.425   7.164   5.953  1.2106  2.1990 -1.6569
  388MOL0     H52371   4.246   7.131   5.935 -1.5746  1.7501 -1.9482
  388MOL0     H52372   4.401   7.362   5.800  0.3332  0.1888 -2.9508
  388MOL0     H52373   4.237   7.306   5.767 -0.8777 -1.4626 -0.3604
  388MOL0     H52374   4.320   7.131   5.620  0.5458 -0.1143  0.4934
  388MOL0     H52375   4.471   7.119   5.710 -1.8026 -0.0937  1.5827
  388MOL0     H52376   4.520   7.347   5.635  1.2642 -0.9255  0.4613
  388MOL0     H52377   4.377   7.332   5.513 -1.4559 -1.6336  1.5242
  388MOL0     H52378   4.633   7.059   5.330  1.1355 -0.6864  2.1261
  388MOL0     H52379   4.205   7.544   6.101  1.0067 -0.2316  0.9722
  388MOL0     H52380   4.014   7.559   6.261 -0.3305 -1.1469  2.4930
  389MOL0     O52381   9.913   3.198   1.983  0.4175 -0.2605 -0.3600
  389MOL0     C52382   9.984   3.295   1.955  1.0210 -0.1778 -1.0329
  389MOL0     O52383  10.082   3.342   2.030  0.0712  0.6088  0.3464
  389MOL0     C52384  10.086   3.307   2.171  0.8055 -0.2980  0.3953
  389MOL0     C52385   9.982   3.333   2.248  0.1817 -0.0799 -0.0246
  389MOL0     C52386   9.982   3.310   2.388 -0.0135  0.1483 -0.4433
  389MOL0     C52387  10.098   3.252   2.446  0.1207 -0.0696  0.3146
  389MOL0     O52388  10.110   3.235   2.580  0.1674 -0.0008  0.0568
  389MOL0     C52389  10.072   3.101   2.621  0.1070 -0.1071  0.5221
  389MOL0     C52390  10.099   3.082   2.770  0.3443  0.5124  0.4483
  389MOL0     C52391  10.021   3.173   2.868 -0.6426  0.3620 -0.8272
  389MOL0     C52392  10.071   3.137   3.006 -0.7021 -0.0650 -0.3266
  389MOL0     C52393   9.992   3.188   3.128 -0.7355  0.5816  1.4125
  389MOL0     C52394   9.977   3.345   3.130  0.1791  0.8813 -0.2150
  389MOL0     C52395   9.883   3.388   3.244  0.0866  0.6808 -0.4652
  389MOL0     C52396   9.878   3.538   3.255 -0.6216  0.0969  0.8463
  389MOL0     N52397   9.734   3.574   3.277  0.0647 -0.3484  0.1992
  389MOL0     C52398   9.628   3.571   3.186 -0.6793  0.5680 -0.2525
  389MOL0     C52399   9.522   3.625   3.251  0.0040 -0.1378 -0.0701
  389MOL0     C52400   9.379   3.648   3.197  0.0434  0.7132  0.0951
  389MOL0     C52401   9.313   3.539   3.116 -0.0675 -0.6208 -0.9316
  389MOL0     C52402   9.299   3.561   2.967 -0.2401  0.2399 -0.1919
  389MOL0     C52403   9.197   3.455   2.918  0.1021 -0.5622  0.1463
  389MOL0     O52404   9.210   3.328   2.971 -0.0324 -0.0354  0.2107
  389MOL0     C52405   9.105   3.249   2.946  0.8363  0.5259  0.2361
  389MOL0     C52406   9.091   3.187   2.818 -0.4155 -0.0661 -0.1257
  389MOL0     C52407   8.979   3.125   2.777 -0.3287  0.3168  0.3238
  389MOL0     C52408   8.986   3.068   2.635  0.0133 -0.0295 -0.0482
  389MOL0     C52409   8.869   3.124   2.863  0.1363  0.2821 -0.3755
  389MOL0     C52410   8.738   3.068   2.824 -0.1141  0.3950  0.4158
  389MOL0     O52411   8.706   3.069   2.691 -0.5394  0.3489  0.5156
  389MOL0     C52412   8.585   3.023   2.651  0.0871 -0.1227  0.8061
  389MOL0     C52413   8.568   2.878   2.644 -0.3277 -0.7160  0.2967
  389MOL0     C52414   8.449   2.827   2.597 -0.3004  0.0503 -0.5471
  389MOL0     C52415   8.345   2.915   2.560  0.2819  0.4741  0.4617
  389MOL0     O52416   8.229   2.851   2.516  0.0560  0.8476 -0.1791
  389MOL0     C52417   8.155   2.936   2.421 -0.4751  1.1554  0.4835
  389MOL0     C52418   8.057   2.856   2.331 -0.5543  0.1409 -0.2405
  389MOL0     C52419   7.922   2.933   2.311 -0.0284 -0.5201 -0.5499
  389MOL0     C52420   7.843   2.919   2.441  0.8638 -0.0147 -0.1204
  389MOL0     C52421   7.699   2.957   2.421  0.7917  0.9846  0.6042
  389MOL0     C52422   7.617   2.835   2.361 -0.6348  0.1472  0.3924
  389MOL0     C52423   7.467   2.880   2.357 -0.1257  0.3795  0.3901
  389MOL0     C52424   7.382   2.807   2.249  0.0918 -0.3793 -0.0692
  389MOL0    Cl52425   7.239   2.892   2.208  0.1881 -0.2716  0.0125
  389MOL0     C52426   8.365   3.054   2.571  0.3978  0.6860  0.5271
  389MOL0     C52427   8.483   3.112   2.617  0.6334 -0.9358  0.3009
  389MOL0     O52428   8.654   3.038   2.912  0.6973 -0.0455 -0.2225
  389MOL0     C52429   8.878   3.182   3.000 -0.8390  0.3911  0.6817
  389MOL0     C52430   8.996   3.236   3.037 -1.1276 -0.9105  0.3826
  389MOL0     N52431   9.563   3.662   3.382 -0.6544  0.0043 -0.4610
  389MOL0     N52432   9.688   3.620   3.395 -0.5816 -0.2052  0.0021
  389MOL0     C52433  10.205   3.222   2.360 -0.6708  0.0969 -0.3927
  389MOL0     C52434  10.207   3.250   2.220  0.0057  0.2994 -0.0257
  389MOL0     C52435   9.959   3.358   1.825  0.3653 -0.7939 -0.3669
  389MOL0     C52436  10.053   3.445   1.764  0.1179  0.5348  0.0902
  389MOL0     C52437  10.029   3.512   1.636  0.1287  0.0652 -0.5371
  389MOL0     C52438   9.907   3.484   1.573 -0.0010  0.1409  0.3763
  389MOL0     O52439   9.885   3.543   1.451 -1.0325 -0.1412  1.1041
  389MOL0     C52440   9.893   3.453   1.341  0.1487 -0.5035  0.7284
  389MOL0     C52441   9.769   3.435   1.259 -0.2534 -0.4214  0.2205
  389MOL0     C52442   9.797   3.358   1.132  0.7180  0.2131 -0.3686
  389MOL0     C52443   9.909   3.401   1.031 -0.9209 -1.4449  0.5125
  389MOL0     C52444   9.960   3.292   0.952  0.3637 -0.6188 -0.6499
  389MOL0     C52445  10.023   3.203   0.903  0.3705  0.7015 -0.1918
  389MOL0     C52446   9.811   3.393   1.633 -0.4680 -0.4241  0.5042
  389MOL0     C52447   9.837   3.337   1.757 -0.6546  0.0288 -0.0632
  389MOL0     H52448   9.899   3.383   2.200 -0.2408 -1.6975 -1.0510
  389MOL0     H52449   9.895   3.320   2.452 -0.7996 -0.0181 -1.4693
  389MOL0     H52450   9.963   3.097   2.609  0.0653  2.3091 -0.5095
  389MOL0     H52451  10.129   3.027   2.564  0.6558  0.0158  0.9102
  389MOL0     H52452  10.078   2.977   2.791  2.7079 -0.2644 -0.6505
  389MOL0     H52453  10.208   3.090   2.773  0.3005  2.1179 -0.6822
  389MOL0     H52454  10.042   3.279   2.855 -0.4497  0.4571  0.1939
  389MOL0     H52455   9.913   3.157   2.860 -0.5041 -1.8634  0.7272
  389MOL0     H52456  10.082   3.029   3.016  1.4568  0.2091  1.0227
  389MOL0     H52457  10.168   3.188   3.017 -0.9923  0.2661  0.7726
  389MOL0     H52458   9.897   3.135   3.116  0.5145 -1.0902 -2.7003
  389MOL0     H52459  10.036   3.165   3.225  1.0760 -0.9363  0.2926
  389MOL0     H52460  10.078   3.386   3.142  0.3960  0.3682 -0.2527
  389MOL0     H52461   9.937   3.374   3.033 -0.1432  2.1247  0.2836
  389MOL0     H52462   9.785   3.340   3.231 -0.6057  1.0737  2.5032
  389MOL0     H52463   9.920   3.347   3.338 -2.1049 -0.2855  0.0319
  389MOL0     H52464   9.924   3.573   3.162 -2.1846  1.6845  0.6232
  389MOL0     H52465   9.936   3.576   3.339 -0.4912  0.7420  0.4744
  389MOL0     H52466   9.639   3.528   3.087 -2.4668 -0.9100  0.1269
  389MOL0     H52467   9.328   3.644   3.294  2.6098  1.1523  1.5542
  389MOL0     H52468   9.360   3.748   3.157 -0.1203 -0.2182 -2.3395
  389MOL0     H52469   9.208   3.530   3.144 -0.1069 -0.2183 -0.9352
  389MOL0     H52470   9.357   3.442   3.141  3.5262  0.6183 -1.8019
  389MOL0     H52471   9.395   3.563   2.915 -0.1512  0.0999 -0.0347
  389MOL0     H52472   9.260   3.660   2.941  0.0424 -0.2019 -2.4287
  389MOL0     H52473   9.223   3.451   2.812  0.8617 -3.5480  0.3657
  389MOL0     H52474   9.098   3.497   2.937  0.8747  1.1069  0.6805
  389MOL0     H52475   9.178   3.215   2.758  1.8882  0.4904  3.1890
  389MOL0     H52476   8.946   2.967   2.623 -4.0996  1.6506 -3.0212
  389MOL0     H52477   8.915   3.134   2.584 -0.7271  0.9291  2.1265
  389MOL0     H52478   9.092   3.068   2.606  0.6600  0.8512  2.0708
  389MOL0     H52479   8.654   2.816   2.670  1.1892  0.6447 -1.2020
  389MOL0     H52480   8.438   2.719   2.601  1.1639 -0.1126 -0.3622
  389MOL0     H52481   8.094   2.998   2.487 -2.3016 -0.7935  0.7176
  389MOL0     H52482   8.222   2.983   2.349  0.7218 -0.5160  0.4308
  389MOL0     H52483   8.108   2.850   2.234  0.0949  0.2806  0.0891
  389MOL0     H52484   8.047   2.754   2.371  0.5641 -0.3688 -1.1700
  389MOL0     H52485   7.866   2.892   2.227  0.0624  1.7244 -1.7644
  389MOL0     H52486   7.945   3.039   2.298  1.0136 -0.5997  0.4612
  389MOL0     H52487   7.851   2.817   2.478  4.6069  0.8769  1.9673
  389MOL0     H52488   7.882   2.978   2.523 -0.5435 -0.5299  0.9593
  389MOL0     H52489   7.679   3.043   2.355  3.3477  1.3125  0.1626
  389MOL0     H52490   7.649   2.977   2.516 -2.3071  1.1870 -0.9199
  389MOL0     H52491   7.663   2.814   2.264 -0.0877 -2.8251  1.2259
  389MOL0     H52492   7.631   2.741   2.414 -3.7927 -1.6654 -1.6577
  389MOL0     H52493   7.461   2.988   2.342 -2.2880  0.1995 -0.5138
  389MOL0     H52494   7.414   2.864   2.451 -0.4663 -1.4236 -0.0666
  389MOL0     H52495   7.348   2.708   2.281 -1.0888  0.3539  1.0933
  389MOL0     H52496   7.447   2.793   2.162  2.0792 -3.0232  1.6847
  389MOL0     H52497   8.281   3.119   2.550  1.1035  1.0931 -1.1706
  389MOL0     H52498   8.486   3.220   2.623  3.1577 -1.0281  2.4686
  389MOL0     H52499   8.795   3.174   3.070 -0.7488 -0.4130  0.7085
  389MOL0     H52500   8.992   3.272   3.139 -1.3004  0.8238 -0.2092
  389MOL0     H52501  10.285   3.167   2.408 -1.0545 -0.1354 -0.0155
  389MOL0     H52502  10.293   3.243   2.154  2.0444  0.2041  2.4599
  389MOL0     H52503  10.143   3.477   1.816  0.0826 -0.1222  0.5648
  389MOL0     H52504  10.100   3.578   1.586  3.4595 -1.9771  1.0820
  389MOL0     H52505   9.974   3.488   1.277 -0.7302 -0.0560 -0.1560
  389MOL0     H52506   9.924   3.354   1.377 -1.0557 -1.5961 -1.0894
  389MOL0     H52507   9.735   3.536   1.235  2.8320  0.1208 -2.6552
  389MOL0     H52508   9.704   3.388   1.334  2.5943  0.7494  3.7413
  389MOL0     H52509   9.707   3.353   1.069  0.3454 -2.2461  0.2304
  389MOL0     H52510   9.827   3.257   1.162 -0.7899 -1.6272 -4.3611
  389MOL0     H52511   9.996   3.442   1.084  0.5641 -4.1062  0.2958
  389MOL0     H52512   9.877   3.473   0.955  2.8764 -0.9322 -0.7820
  389MOL0     H52513  10.081   3.117   0.878 -2.0988 -0.9946 -0.4902
  389MOL0     H52514   9.711   3.368   1.600  0.2656 -2.1924 -0.4890
  389MOL0     H52515   9.769   3.262   1.796 -1.6401  0.4581 -0.9113
  390MOL0     O52516   4.917   3.421   1.981  0.7148 -0.1248 -0.1871
  390MOL0     C52517   4.964   3.389   1.870  0.0439  0.3856 -0.3722
  390MOL0     O52518   4.889   3.356   1.760  0.2894 -0.1526 -0.0838
  390MOL0     C52519   4.751   3.335   1.779 -0.5472 -0.1622  0.1107
  390MOL0     C52520   4.702   3.200   1.785 -0.6165  0.7816  0.5661
  390MOL0     C52521   4.571   3.185   1.811  0.7640 -0.7407  0.0332
  390MOL0     C52522   4.481   3.287   1.823  0.4954  0.0607  0.0144
  390MOL0     O52523   4.352   3.269   1.862  0.7326 -0.0249 -0.5654
  390MOL0     C52524   4.337   3.182   1.983  0.1780  0.3729 -0.6668
  390MOL0     C52525   4.205   3.225   2.058 -0.5187  0.1623 -0.6025
  390MOL0     C52526   4.090   3.217   1.950  0.0776 -0.1590 -1.0830
  390MOL0     C52527   3.953   3.240   2.020  0.0638  0.0725 -0.2248
  390MOL0     C52528   3.904   3.123   2.109 -0.5815 -0.5927  1.4086
  390MOL0     C52529   3.785   3.178   2.187  0.9878  0.5617 -0.9135
  390MOL0     C52530   3.700   3.068   2.254  0.7522 -0.1247  0.4669
  390MOL0     C52531   3.592   3.114   2.353  0.6540  0.0928  0.1195
  390MOL0     N52532   3.480   3.194   2.297  0.6115 -0.3372 -0.0209
  390MOL0     C52533   3.396   3.170   2.196  0.9411 -1.0412  0.2149
  390MOL0     C52534   3.325   3.285   2.174  0.4319  0.8179  0.0550
  390MOL0     C52535   3.221   3.307   2.073  0.1911 -0.0673  0.0319
  390MOL0     C52536   3.262   3.434   2.012 -1.1938 -0.2968 -0.2559
  390MOL0     C52537   3.391   3.431   1.926 -0.2417 -0.1040 -0.2791
  390MOL0     C52538   3.426   3.588   1.907 -0.1477  0.2429  0.1229
  390MOL0     O52539   3.549   3.611   1.837 -0.1435  0.3908  0.8106
  390MOL0     C52540   3.663   3.612   1.904 -0.8915  0.3339 -0.0198
  390MOL0     C52541   3.687   3.581   2.040 -0.3487  0.3383  0.1321
  390MOL0     C52542   3.820   3.586   2.100  0.2386 -0.3035  0.6189
  390MOL0     C52543   3.823   3.560   2.253 -0.3288 -0.4603  0.5400
  390MOL0     C52544   3.930   3.608   2.015  0.0125  0.8384  0.0661
  390MOL0     C52545   4.070   3.628   2.061  0.4354 -0.4393  1.2889
  390MOL0     O52546   4.148   3.681   1.969 -0.3255  0.3776 -0.0200
  390MOL0     C52547   4.276   3.707   2.003  0.5303 -0.7498 -0.5536
  390MOL0     C52548   4.360   3.610   2.060 -0.6667 -0.0080 -0.1944
  390MOL0     C52549   4.492   3.642   2.082 -0.0857 -0.3252 -0.2120
  390MOL0     C52550   4.538   3.769   2.062 -0.4854  0.8293  0.8531
  390MOL0     O52551   4.666   3.809   2.095 -0.2902 -0.3508 -0.1141
  390MOL0     C52552   4.773   3.721   2.111 -0.4870  0.4165  0.1545
  390MOL0     C52553   4.898   3.814   2.123  0.7331  0.5293 -0.4377
  390MOL0     C52554   5.015   3.729   2.158 -0.0394  0.1407 -0.1495
  390MOL0     C52555   5.139   3.818   2.190  0.0640 -1.2659 -0.4049
  390MOL0     C52556   5.260   3.722   2.182  0.1979 -0.4044  0.2253
  390MOL0     C52557   5.373   3.807   2.237 -0.8514  0.1931  0.3071
  390MOL0     C52558   5.509   3.734   2.210  0.6664  0.0034  0.3904
  390MOL0     C52559   5.634   3.811   2.243  0.4955  0.9753  0.0820
  390MOL0    Cl52560   5.662   3.956   2.146  0.0510 -0.0398 -0.2808
  390MOL0     C52561   4.448   3.866   2.016 -0.6085  0.6867 -0.3303
  390MOL0     C52562   4.318   3.835   1.986 -0.0702  0.6157 -0.3872
  390MOL0     O52563   4.104   3.600   2.173 -0.2080  0.3370  0.7321
  390MOL0     C52564   3.905   3.626   1.877 -0.0254  0.9976  0.0518
  390MOL0     C52565   3.778   3.630   1.827 -0.2820  0.7904 -0.5018
  390MOL0     N52566   3.368   3.371   2.280  0.2393 -0.0918 -0.2502
  390MOL0     N52567   3.460   3.311   2.354 -0.5093 -0.0288 -0.0873
  390MOL0     C52568   4.521   3.420   1.816 -0.4793  0.5597  0.4571
  390MOL0     C52569   4.663   3.441   1.807 -0.4442  0.4996 -0.4603
  390MOL0     C52570   5.113   3.395   1.850 -0.1716 -0.2208 -0.5662
  390MOL0     C52571   5.200   3.407   1.966  0.5732 -0.3624 -0.0071
  390MOL0     C52572   5.337   3.435   1.955  1.1360 -0.1108  0.5769
  390MOL0     C52573   5.389   3.461   1.823  0.6155 -0.3282 -1.0169
  390MOL0     O52574   5.517   3.488   1.806 -0.5252  0.0650 -0.3565
  390MOL0     C52575   5.545   3.631   1.794 -0.6087 -0.4206 -0.2513
  390MOL0     C52576   5.691   3.645   1.834 -0.8677  0.5404  0.2279
  390MOL0     C52577   5.724   3.796   1.857 -0.5711  0.5167 -0.0996
  390MOL0     C52578   5.866   3.811   1.918 -0.0503  0.4538  0.8614
  390MOL0     C52579   5.969   3.767   1.820 -0.6314 -0.4870 -0.1915
  390MOL0     C52580   6.056   3.738   1.740  0.3530  0.3133 -0.3728
  390MOL0     C52581   5.312   3.457   1.705  0.6374  0.3019  0.2163
  390MOL0     C52582   5.175   3.420   1.717 -0.3737  0.1367  0.1973
  390MOL0     H52583   4.762   3.111   1.769  0.4082  1.2131  1.8795
  390MOL0     H52584   4.539   3.084   1.834  0.9509 -0.7689  0.1723
  390MOL0     H52585   4.339   3.075   1.960  0.5603 -0.5049  2.8617
  390MOL0     H52586   4.423   3.201   2.048 -1.4539  0.7252  1.5047
  390MOL0     H52587   4.194   3.148   2.136  0.5748 -1.5250 -2.0298
  390MOL0     H52588   4.212   3.330   2.088  1.5820  0.5016 -2.0334
  390MOL0     H52589   4.091   3.287   1.867 -0.1628  0.8301 -0.2709
  390MOL0     H52590   4.086   3.115   1.911 -1.9755 -1.2413  1.6170
  390MOL0     H52591   3.970   3.330   2.080  1.0378  0.4814 -1.0813
  390MOL0     H52592   3.872   3.261   1.949  1.3365 -0.4653 -1.9133
  390MOL0     H52593   3.892   3.035   2.045 -0.2155  1.0931 -1.0772
  390MOL0     H52594   3.985   3.096   2.178 -0.4054  0.5559  1.6700
  390MOL0     H52595   3.817   3.243   2.270  0.4705 -0.5753  0.2093
  390MOL0     H52596   3.727   3.244   2.123  1.3075  2.4827  0.6766
  390MOL0     H52597   3.654   3.000   2.182  0.8180  0.0163  0.2906
  390MOL0     H52598   3.771   3.004   2.308 -0.7974 -0.5788  2.0887
  390MOL0     H52599   3.646   3.177   2.425  0.8013 -0.0287  0.1164
  390MOL0     H52600   3.551   3.029   2.408  0.3132 -0.1404 -0.4881
  390MOL0     H52601   3.397   3.083   2.130 -0.5984  0.1316 -1.4542
  390MOL0     H52602   3.203   3.228   2.000 -1.2129  0.4446 -0.2089
  390MOL0     H52603   3.122   3.323   2.117  0.5459 -0.6534  1.0966
  390MOL0     H52604   3.264   3.516   2.084 -0.8307 -0.8051  0.3223
  390MOL0     H52605   3.180   3.455   1.942  0.5769  1.5611 -1.9078
  390MOL0     H52606   3.380   3.372   1.834  0.3954 -2.1703  0.8966
  390MOL0     H52607   3.466   3.377   1.984 -1.0544  0.3782  1.2601
  390MOL0     H52608   3.417   3.647   1.998  1.8417 -0.1889  0.6527
  390MOL0     H52609   3.347   3.627   1.842 -0.5194 -1.4746 -0.5292
  390MOL0     H52610   3.607   3.542   2.102  1.2073  1.1167  2.8314
  390MOL0     H52611   3.844   3.649   2.313  0.9218 -0.8504  0.7183
  390MOL0     H52612   3.734   3.506   2.287 -0.0336 -2.0525 -1.0629
  390MOL0     H52613   3.905   3.492   2.279 -1.4729 -1.5946  1.3177
  390MOL0     H52614   4.334   3.505   2.071 -1.1273  0.3001  2.0060
  390MOL0     H52615   4.561   3.568   2.122  0.0140 -0.9648 -1.5380
  390MOL0     H52616   4.767   3.651   2.195 -1.4568 -0.8591 -0.9400
  390MOL0     H52617   4.790   3.663   2.020  1.2532  1.4737 -0.2429
  390MOL0     H52618   4.909   3.873   2.031 -3.6162  1.1004 -0.8161
  390MOL0     H52619   4.874   3.880   2.207 -1.1372 -0.7100  0.0565
  390MOL0     H52620   5.033   3.670   2.068 -0.1440  0.1572 -0.1803
  390MOL0     H52621   4.990   3.675   2.250 -0.6743  3.2370  1.6497
  390MOL0     H52622   5.143   3.901   2.120 -0.6740 -0.2442  0.7191
  390MOL0     H52623   5.116   3.863   2.287 -1.5565  2.0152 -2.1615
  390MOL0     H52624   5.284   3.699   2.078  0.1234 -0.5382  0.2378
  390MOL0     H52625   5.249   3.626   2.233  2.6358 -0.5834  0.5520
  390MOL0     H52626   5.381   3.912   2.206 -0.5615  0.0528 -0.0971
  390MOL0     H52627   5.346   3.812   2.343 -2.9007 -1.2420 -0.1010
  390MOL0     H52628   5.509   3.703   2.105 -1.9134 -0.9229  0.5974
  390MOL0     H52629   5.510   3.642   2.269 -0.7920  0.8629  1.8466
  390MOL0     H52630   5.722   3.746   2.243  0.8434  1.4224 -0.8827
  390MOL0     H52631   5.620   3.842   2.347 -1.5259 -0.5268  0.3222
  390MOL0     H52632   4.480   3.967   1.996 -2.0302  0.6576 -3.2107
  390MOL0     H52633   4.248   3.910   1.950 -0.0847  0.0604 -1.5559
  390MOL0     H52634   3.975   3.655   1.800 -1.5976  3.1955 -0.6432
  390MOL0     H52635   3.768   3.643   1.720 -3.5690 -1.0391 -0.5464
  390MOL0     H52636   4.444   3.492   1.841 -2.6205 -1.5153  0.2099
  390MOL0     H52637   4.698   3.543   1.818  0.7893 -0.0542  1.2379
  390MOL0     H52638   5.159   3.401   2.066 -1.4814  2.6813 -0.5476
  390MOL0     H52639   5.405   3.426   2.039 -1.4137 -0.8832  2.7076
  390MOL0     H52640   5.532   3.653   1.688  2.9181 -4.1912 -1.7272
  390MOL0     H52641   5.493   3.693   1.868 -0.8842  0.4858 -1.1879
  390MOL0     H52642   5.755   3.594   1.762  0.9832  3.8682 -0.6827
  390MOL0     H52643   5.701   3.581   1.922 -0.6110 -1.1574 -0.9917
  390MOL0     H52644   5.661   3.848   1.929  3.5843  2.1536  2.7563
  390MOL0     H52645   5.720   3.852   1.763  2.7934  0.9978 -0.0789
  390MOL0     H52646   5.867   3.741   2.002 -2.3986 -1.3377 -0.4931
  390MOL0     H52647   5.879   3.916   1.943  0.9271 -0.1390  3.0427
  390MOL0     H52648   6.127   3.686   1.678  0.4561  0.9912 -0.8305
  390MOL0     H52649   5.358   3.459   1.607 -1.4293  0.7874 -0.7982
  390MOL0     H52650   5.106   3.423   1.634 -0.7073 -1.4010  0.3992
  391MOL0     O52651  10.886   8.180   2.330 -0.1926 -0.0357  1.0484
  391MOL0     C52652  10.995   8.239   2.309 -0.8916 -1.3480  0.6015
  391MOL0     O52653  11.023   8.376   2.306  0.6074  0.1283 -0.5114
  391MOL0     C52654  10.914   8.456   2.324  0.5827 -0.0977  0.1786
  391MOL0     C52655  10.901   8.538   2.439  0.0971 -0.5424  0.7953
  391MOL0     C52656  10.780   8.611   2.460 -0.0582 -0.2883 -0.3137
  391MOL0     C52657  10.670   8.596   2.375 -0.6935  0.3007  0.0151
  391MOL0     O52658  10.553   8.653   2.424  0.9870  0.1467  0.3103
  391MOL0     C52659  10.428   8.602   2.379  0.1036  0.1486 -0.6366
  391MOL0     C52660  10.363   8.697   2.267  0.3566  0.9894 -0.6833
  391MOL0     C52661  10.217   8.645   2.230 -0.0286  0.6543  0.8531
  391MOL0     C52662  10.219   8.512   2.159 -0.2280 -0.0036 -0.0230
  391MOL0     C52663  10.090   8.480   2.090 -0.3914  0.3558  1.2571
  391MOL0     C52664  10.066   8.562   1.956 -0.1461  0.8279 -0.4602
  391MOL0     C52665  10.167   8.535   1.840  0.0771 -0.7204 -0.1920
  391MOL0     C52666  10.154   8.646   1.733  0.5842  0.3574  0.3513
  391MOL0     N52667  10.031   8.638   1.649 -0.2314  0.0315 -0.1090
  391MOL0     C52668   9.904   8.670   1.685  0.4757 -0.4027  0.0222
  391MOL0     C52669   9.825   8.645   1.571  0.1759 -0.6568  0.2066
  391MOL0     C52670   9.673   8.668   1.552 -0.3934 -0.1559 -0.8033
  391MOL0     C52671   9.609   8.610   1.429 -0.6866  0.5294 -1.0673
  391MOL0     C52672   9.617   8.450   1.416  0.6625 -1.0234 -0.6896
  391MOL0     C52673   9.511   8.402   1.315 -1.4072  0.2565 -0.4672
  391MOL0     O52674   9.379   8.405   1.369  0.6223  0.1413 -0.4097
  391MOL0     C52675   9.268   8.387   1.285 -0.7508 -0.2091  0.3078
  391MOL0     C52676   9.277   8.398   1.151  0.4521  0.1255  0.6532
  391MOL0     C52677   9.173   8.367   1.063 -0.9185  0.1223 -0.1673
  391MOL0     C52678   9.211   8.361   0.920 -0.4530  0.0883  0.2819
  391MOL0     C52679   9.050   8.337   1.121  0.0905  0.7944  0.5469
  391MOL0     C52680   8.931   8.278   1.039 -0.5051  0.4108 -0.9489
  391MOL0     O52681   8.834   8.212   1.111  0.6613 -0.0189 -0.1878
  391MOL0     C52682   8.720   8.174   1.042  0.2092  0.4277 -0.2521
  391MOL0     C52683   8.708   8.045   0.987  0.4781 -0.5332 -0.5960
  391MOL0     C52684   8.604   8.014   0.900  0.3484  0.5593 -0.3363
  391MOL0     C52685   8.503   8.103   0.869  0.5947 -0.1727 -0.6620
  391MOL0     O52686   8.408   8.048   0.784 -0.9665 -0.3333 -0.2674
  391MOL0     C52687   8.323   8.143   0.718 -0.2531  0.6711  0.0884
  391MOL0     C52688   8.224   8.057   0.639 -0.2700 -0.4538 -0.4238
  391MOL0     C52689   8.123   8.139   0.555 -0.3333 -0.5782  0.8052
  391MOL0     C52690   8.027   8.051   0.477  0.0550 -0.5056  0.3591
  391MOL0     C52691   7.908   8.137   0.441 -0.0355 -1.0627 -0.4007
  391MOL0     C52692   7.784   8.074   0.381  0.3815  0.3693  0.5236
  391MOL0     C52693   7.668   8.174   0.344 -0.1377 -0.4895 -0.3981
  391MOL0     C52694   7.570   8.106   0.251  0.1094  0.0851  0.0479
  391MOL0    Cl52695   7.437   8.215   0.221  0.0090  0.4337 -0.0932
  391MOL0     C52696   8.504   8.229   0.937 -0.5274 -0.0237  0.2480
  391MOL0     C52697   8.612   8.265   1.018  0.2230 -0.8525  0.4064
  391MOL0     O52698   8.929   8.295   0.920  0.0641  0.2647  0.9872
  391MOL0     C52699   9.042   8.332   1.260 -0.7511  0.3813  0.4042
  391MOL0     C52700   9.155   8.349   1.351  0.7560  0.1318  0.4431
  391MOL0     N52701   9.911   8.603   1.473 -0.3240 -0.1886  0.9843
  391MOL0     N52702  10.036   8.596   1.520 -0.4303  0.4314  0.8746
  391MOL0     C52703  10.687   8.517   2.265  0.3606 -0.2174  0.1970
  391MOL0     C52704  10.804   8.455   2.239 -0.3358  0.6411 -0.5750
  391MOL0     C52705  11.112   8.155   2.289  0.6270  0.3243 -0.1988
  391MOL0     C52706  11.113   8.024   2.328 -0.5901  0.7157 -0.7472
  391MOL0     C52707  11.227   7.943   2.305 -0.1447 -0.0999  0.5979
  391MOL0     C52708  11.342   7.994   2.238 -0.1569 -0.7925 -0.4457
  391MOL0     O52709  11.456   7.924   2.212  0.7628 -0.1104  0.0802
  391MOL0     C52710  11.446   7.786   2.204  0.5577 -0.1427 -0.0484
  391MOL0     C52711  11.582   7.729   2.234  1.2249  0.7901  0.0871
  391MOL0     C52712  11.610   7.751   2.383  1.1457  0.0640  1.3575
  391MOL0     C52713  11.754   7.717   2.421 -0.5164  0.0972 -0.1403
  391MOL0     C52714  11.780   7.740   2.555  0.7717 -0.2845  0.2983
  391MOL0     C52715  11.778   7.780   2.670  0.1856 -0.9046  0.2056
  391MOL0     C52716  11.337   8.122   2.188 -0.1546  0.8142 -0.7674
  391MOL0     C52717  11.228   8.205   2.223 -0.1786  0.1071 -0.1528
  391MOL0     H52718  10.976   8.535   2.517  1.1857  0.5102 -0.1724
  391MOL0     H52719  10.761   8.673   2.547 -2.3525 -2.8776  1.1741
  391MOL0     H52720  10.427   8.498   2.346 -3.8172 -0.1548 -0.0245
  391MOL0     H52721  10.357   8.607   2.463 -0.2524 -0.5156 -0.8854
  391MOL0     H52722  10.350   8.798   2.306  0.1000  0.5440  0.4202
  391MOL0     H52723  10.419   8.689   2.174 -0.1939 -1.1165 -0.8895
  391MOL0     H52724  10.143   8.645   2.311 -0.9351  0.1893  0.0491
  391MOL0     H52725  10.191   8.716   2.151 -0.0095 -2.5352 -2.2613
  391MOL0     H52726  10.301   8.507   2.087  0.6812 -2.5463  1.0955
  391MOL0     H52727  10.241   8.434   2.232 -1.1219 -1.5229 -1.3107
  391MOL0     H52728  10.099   8.373   2.069  2.2557  0.4690  1.3966
  391MOL0     H52729  10.007   8.493   2.159  0.8136  3.1914  2.3000
  391MOL0     H52730   9.969   8.528   1.917  0.6186 -0.2703 -1.4874
  391MOL0     H52731  10.070   8.668   1.983  1.3602  0.6755  0.0063
  391MOL0     H52732  10.270   8.553   1.872  0.1478  1.7233 -1.5388
  391MOL0     H52733  10.158   8.436   1.796 -0.6417 -0.7737  0.0689
  391MOL0     H52734  10.238   8.630   1.665 -0.3999 -0.1354 -0.7936
  391MOL0     H52735  10.157   8.744   1.783 -1.5976  2.2872 -2.9585
  391MOL0     H52736   9.872   8.720   1.775 -0.2273  2.0299 -1.4866
  391MOL0     H52737   9.632   8.618   1.640 -1.2921  0.6684 -0.7327
  391MOL0     H52738   9.654   8.776   1.555 -0.2281 -0.1239 -0.9203
  391MOL0     H52739   9.653   8.656   1.340  0.8282  3.4546  1.0536
  391MOL0     H52740   9.503   8.637   1.435 -0.8715 -0.0474 -1.6058
  391MOL0     H52741   9.594   8.409   1.515  2.6489 -0.1012  0.2070
  391MOL0     H52742   9.718   8.427   1.383  0.0699 -1.6156 -2.1585
  391MOL0     H52743   9.537   8.300   1.287 -1.1193  0.3882 -0.6802
  391MOL0     H52744   9.520   8.472   1.231  3.1857  1.3475  0.6699
  391MOL0     H52745   9.371   8.432   1.108  0.6735 -1.2434  0.0006
  391MOL0     H52746   9.315   8.384   0.893 -0.1338 -2.0866 -0.5816
  391MOL0     H52747   9.203   8.261   0.876  0.8752 -0.1211  0.4623
  391MOL0     H52748   9.151   8.437   0.870  0.4039  1.0710  0.7125
  391MOL0     H52749   8.781   7.967   1.006  1.8652  0.3311 -2.1393
  391MOL0     H52750   8.590   7.919   0.849 -3.2457  2.8887 -4.3655
  391MOL0     H52751   8.271   8.212   0.785 -1.0035 -0.6492  0.9241
  391MOL0     H52752   8.383   8.201   0.649  1.0854 -0.0463  0.6212
  391MOL0     H52753   8.284   7.992   0.575 -0.4923 -0.4002 -0.6907
  391MOL0     H52754   8.165   8.002   0.712  0.5636 -0.3395  0.3621
  391MOL0     H52755   8.185   8.194   0.483 -0.1896  2.0351  2.7888
  391MOL0     H52756   8.070   8.213   0.615 -1.3235 -0.0232 -0.6965
  391MOL0     H52757   8.072   8.001   0.391  0.5227 -0.1534  0.3939
  391MOL0     H52758   7.991   7.968   0.538 -2.6866 -0.1087 -0.6037
  391MOL0     H52759   7.944   8.211   0.369  3.2755 -0.9608  1.1732
  391MOL0     H52760   7.870   8.184   0.532 -0.4162 -2.8177  0.3981
  391MOL0     H52761   7.801   8.028   0.284 -1.6453  1.3425 -0.3519
  391MOL0     H52762   7.742   7.999   0.449 -2.9449  1.6926  0.1281
  391MOL0     H52763   7.722   8.259   0.300  1.4861 -1.6233 -0.6740
  391MOL0     H52764   7.606   8.217   0.423  0.3072  0.9759 -0.8096
  391MOL0     H52765   7.531   8.016   0.300 -0.9300  1.1440  1.2373
  391MOL0     H52766   7.619   8.072   0.159  3.9510  4.2958  0.1721
  391MOL0     H52767   8.417   8.294   0.927 -1.1329 -1.1296 -2.6893
  391MOL0     H52768   8.614   8.360   1.071 -4.6777 -1.4563  2.1491
  391MOL0     H52769   8.945   8.304   1.301 -0.6826  1.1410  1.1089
  391MOL0     H52770   9.143   8.337   1.458  2.5519  0.8287  0.7603
  391MOL0     H52771  10.604   8.497   2.197  0.1724  4.8318 -1.5166
  391MOL0     H52772  10.818   8.403   2.145  1.7283 -0.9293  0.5212
  391MOL0     H52773  11.026   7.981   2.377  0.2399 -1.3293 -0.9625
  391MOL0     H52774  11.218   7.840   2.337 -2.4759 -0.9290 -2.3223
  391MOL0     H52775  11.375   7.732   2.268 -0.1154  1.4650  0.6366
  391MOL0     H52776  11.423   7.768   2.099  1.8653 -2.3115 -0.0173
  391MOL0     H52777  11.656   7.778   2.170  1.8116 -1.3542 -0.9678
  391MOL0     H52778  11.580   7.620   2.225 -3.8961  0.5519  1.2352
  391MOL0     H52779  11.537   7.695   2.441  0.1953  0.0450  0.1954
  391MOL0     H52780  11.591   7.856   2.410 -0.4072 -0.1217  1.0708
  391MOL0     H52781  11.837   7.768   2.369  0.2721 -0.6876  0.3236
  391MOL0     H52782  11.764   7.609   2.407 -4.6702 -0.6001  1.0765
  391MOL0     H52783  11.777   7.812   2.772 -0.5903  0.1400 -0.1000
  391MOL0     H52784  11.411   8.172   2.127  0.8698  0.1154 -0.1170
  391MOL0     H52785  11.236   8.308   2.191  1.9163  0.2952  0.8722
  392MOL0     O52786   3.596   4.971  11.215 -0.0670  0.3981 -0.4782
  392MOL0     C52787   3.613   5.084  11.274  0.6029  0.0408  0.0895
  392MOL0     O52788   3.523   5.181  11.287  1.2314 -0.1972  0.3731
  392MOL0     C52789   3.395   5.168  11.248 -0.7184 -0.5451 -0.1176
  392MOL0     C52790   3.320   5.289  11.208 -0.0340  0.0186 -0.2307
  392MOL0     C52791   3.184   5.283  11.191  0.0901  0.4243  1.0827
  392MOL0     C52792   3.108   5.173  11.232 -0.2132  0.3878  0.7473
  392MOL0     O52793   2.969   5.174  11.210 -0.3542  0.8730 -0.4964
  392MOL0     C52794   2.889   5.129  11.326  0.9359 -0.2949 -0.6156
  392MOL0     C52795   2.745   5.161  11.315 -1.1388  0.2440  0.0775
  392MOL0     C52796   2.719   5.313  11.318  0.4969  0.4554 -0.6638
  392MOL0     C52797   2.756   5.384  11.446 -0.7042 -0.6888  0.0591
  392MOL0     C52798   2.700   5.524  11.456 -0.3984  0.1461  0.5649
  392MOL0     C52799   2.739   5.621  11.348  0.2953 -0.3432  0.2117
  392MOL0     C52800   2.887   5.652  11.365  0.1066 -0.2153  1.7609
  392MOL0     C52801   2.954   5.735  11.260  0.3354 -0.4787  0.9174
  392MOL0     N52802   3.105   5.748  11.263  0.6899 -0.6218 -0.1128
  392MOL0     C52803   3.181   5.795  11.367  0.3508  0.5254 -0.4525
  392MOL0     C52804   3.315   5.793  11.328 -0.4144 -0.0326 -0.5198
  392MOL0     C52805   3.432   5.851  11.399  0.7569  0.0777  0.0551
  392MOL0     C52806   3.447   5.797  11.551 -0.3648  0.2873  0.4874
  392MOL0     C52807   3.591   5.793  11.595  0.1224 -0.2153  0.5014
  392MOL0     C52808   3.651   5.937  11.604  0.7754 -0.3320 -0.3072
  392MOL0     O52809   3.697   5.997  11.478 -0.3412  0.5384  0.5865
  392MOL0     C52810   3.749   6.120  11.485  0.1770  0.3187  0.2237
  392MOL0     C52811   3.813   6.172  11.383  0.0430  0.9954  0.1738
  392MOL0     C52812   3.862   6.303  11.385  0.4745  0.1962  0.4539
  392MOL0     C52813   3.923   6.337  11.248 -0.5214  0.2635  0.5921
  392MOL0     C52814   3.856   6.387  11.495  0.3690 -0.0761 -0.4567
  392MOL0     C52815   3.903   6.527  11.497  0.7372  0.1201 -0.1028
  392MOL0     O52816   3.908   6.585  11.377  0.4414  0.3756  0.0322
  392MOL0     C52817   3.911   6.728  11.377 -0.1307  0.9223 -0.2030
  392MOL0     C52818   3.799   6.808  11.353  1.0517 -0.2467  0.5962
  392MOL0     C52819   3.810   6.947  11.326  0.3081 -0.2663 -0.5505
  392MOL0     C52820   3.929   7.011  11.345 -0.2809 -0.0420 -0.3734
  392MOL0     O52821   3.949   7.151  11.335 -0.3943  0.4021 -0.4013
  392MOL0     C52822   3.836   7.233  11.295 -0.1773 -0.5534 -0.1288
  392MOL0     C52823   3.861   7.385  11.289  0.3331  0.0826  1.0520
  392MOL0     C52824   3.770   7.455  11.179 -0.5357  0.3253  0.4645
  392MOL0     C52825   3.827   7.599  11.142 -0.3529  0.2073 -0.7425
  392MOL0     C52826   3.748   7.663  11.029  0.5757 -0.5026 -0.0365
  392MOL0     C52827   3.821   7.790  10.986  0.3275  0.8892 -0.3253
  392MOL0     C52828   3.770   7.826  10.840 -0.2121 -0.1619 -0.5791
  392MOL0     C52829   3.831   7.960  10.789 -0.0039 -0.2909  0.9058
  392MOL0    Cl52830   3.760   8.099  10.883  0.3548  0.1436 -0.5075
  392MOL0     C52831   4.043   6.936  11.385 -0.4781 -0.5367  0.2677
  392MOL0     C52832   4.032   6.789  11.390  0.1998 -0.4118 -0.0917
  392MOL0     O52833   3.938   6.581  11.602 -0.5587  0.1891  0.2477
  392MOL0     C52834   3.784   6.334  11.605  0.6555  0.1326 -0.5063
  392MOL0     C52835   3.738   6.202  11.603 -0.3610  0.1221  0.3556
  392MOL0     N52836   3.313   5.756  11.192 -0.2431  0.0184  0.2079
  392MOL0     N52837   3.189   5.726  11.158  0.1950  1.3256  0.1472
  392MOL0     C52838   3.174   5.063  11.279 -0.0149  0.5822  0.0875
  392MOL0     C52839   3.320   5.063  11.288 -0.3270  0.8903 -0.7224
  392MOL0     C52840   3.748   5.116  11.321  0.0907  0.5613 -1.5068
  392MOL0     C52841   3.783   5.237  11.366  0.1910  0.2571 -0.3458
  392MOL0     C52842   3.907   5.265  11.427 -0.7493 -0.0402  0.4727
  392MOL0     C52843   4.006   5.170  11.422 -0.0042  0.1806 -0.0994
  392MOL0     O52844   4.138   5.183  11.463  0.2670 -0.8765  0.3793
  392MOL0     C52845   4.156   5.293  11.559  0.3153 -0.2419  0.4260
  392MOL0     C52846   4.290   5.273  11.621 -0.2665 -0.8473 -0.1495
  392MOL0     C52847   4.414   5.310  11.529  0.2141 -0.5050  0.6125
  392MOL0     C52848   4.540   5.247  11.584 -0.1126  0.0757 -0.4005
  392MOL0     C52849   4.657   5.290  11.516 -0.1959 -0.7089  0.5145
  392MOL0     C52850   4.755   5.331  11.462 -1.6625 -0.0348  0.4763
  392MOL0     C52851   3.984   5.046  11.364  0.3722  0.5676  0.1656
  392MOL0     C52852   3.849   5.013  11.328  0.0978 -0.2949  0.0208
  392MOL0     H52853   3.375   5.382  11.205 -3.0574  1.9596  0.1776
  392MOL0     H52854   3.126   5.373  11.172 -0.2734 -0.2929 -1.6324
  392MOL0     H52855   2.906   5.022  11.346  0.0166 -0.8932 -2.8164
  392MOL0     H52856   2.921   5.167  11.424  2.0714 -2.0133 -0.2809
  392MOL0     H52857   2.706   5.121  11.221  0.9906  1.7813 -1.5647
  392MOL0     H52858   2.682   5.106  11.385  1.2976 -1.1804  1.2711
  392MOL0     H52859   2.783   5.352  11.238 -0.1343  0.3460 -1.2334
  392MOL0     H52860   2.614   5.332  11.295  0.6835  3.5268  0.5957
  392MOL0     H52861   2.704   5.339  11.531  0.6761  3.0775  3.2065
  392MOL0     H52862   2.865   5.381  11.455 -0.7335 -0.1513  0.6740
  392MOL0     H52863   2.592   5.510  11.461 -0.1734 -1.5645  0.9530
  392MOL0     H52864   2.733   5.572  11.549  0.6601 -3.4596  2.2074
  392MOL0     H52865   2.722   5.586  11.246 -1.5973  2.0689 -0.3835
  392MOL0     H52866   2.689   5.717  11.359  1.1599  0.0554  0.7477
  392MOL0     H52867   2.907   5.706  11.458  2.8251 -0.3435  1.3357
  392MOL0     H52868   2.945   5.559  11.374 -0.6216 -0.6894  1.6563
  392MOL0     H52869   2.904   5.832  11.270 -1.2003 -1.3208  1.7259
  392MOL0     H52870   2.925   5.702  11.160 -3.2835  0.3106  1.5865
  392MOL0     H52871   3.157   5.826  11.469  1.3957 -0.4232  0.1094
  392MOL0     H52872   3.515   5.816  11.337 -1.1617 -1.6823 -1.6377
  392MOL0     H52873   3.423   5.960  11.400  1.3877  0.1568 -1.2036
  392MOL0     H52874   3.405   5.696  11.558 -0.2338  0.1364 -0.7608
  392MOL0     H52875   3.393   5.865  11.619  0.2072  2.2798 -0.9688
  392MOL0     H52876   3.636   5.721  11.525 -0.2680 -0.6712  0.7111
  392MOL0     H52877   3.595   5.752  11.696  0.7710 -2.3713 -0.3375
  392MOL0     H52878   3.741   5.935  11.666  1.7510  3.4499 -1.3934
  392MOL0     H52879   3.578   6.004  11.652  1.4117 -0.3954  0.7892
  392MOL0     H52880   3.831   6.109  11.296  1.3106  1.3649  0.1509
  392MOL0     H52881   4.021   6.385  11.263 -0.2766 -0.6889  2.2330
  392MOL0     H52882   3.938   6.246  11.189  0.5485 -0.0564  1.3287
  392MOL0     H52883   3.869   6.408  11.185  1.2048  1.3665  0.2556
  392MOL0     H52884   3.705   6.759  11.331 -0.2546  3.1465 -2.2162
  392MOL0     H52885   3.720   6.998  11.295  1.1020  0.7067 -1.3469
  392MOL0     H52886   3.805   7.199  11.196  0.4964  2.0083 -1.3002
  392MOL0     H52887   3.750   7.223  11.363 -2.1633  3.6718 -1.6132
  392MOL0     H52888   3.850   7.433  11.387 -0.7368  0.8301  0.5869
  392MOL0     H52889   3.964   7.412  11.261 -0.7407  0.4278 -3.1598
  392MOL0     H52890   3.669   7.466  11.219 -0.6259 -1.9824  1.0211
  392MOL0     H52891   3.769   7.400  11.085  0.5521  1.2060 -0.1023
  392MOL0     H52892   3.813   7.660  11.231 -0.6565 -0.9705  0.0433
  392MOL0     H52893   3.933   7.587  11.117 -0.3138  0.0646 -0.5044
  392MOL0     H52894   3.645   7.685  11.059  1.2921  0.3724  1.9752
  392MOL0     H52895   3.749   7.590  10.947  2.3451 -0.4227 -0.1329
  392MOL0     H52896   3.799   7.884  11.038 -0.9489  1.8392 -2.4255
  392MOL0     H52897   3.929   7.774  10.982  0.4258  1.3429 -4.3080
  392MOL0     H52898   3.661   7.826  10.834 -0.3368 -0.9320  1.0751
  392MOL0     H52899   3.804   7.739  10.783  1.1346 -0.6208  0.8612
  392MOL0     H52900   3.815   7.962  10.681 -1.7559 -1.2320  1.1214
  392MOL0     H52901   3.939   7.959  10.810 -0.0859  1.2983  1.6066
  392MOL0     H52902   4.134   6.990  11.409 -1.0767  0.5861  0.0820
  392MOL0     H52903   4.121   6.730  11.407 -0.6223 -2.7687 -3.0611
  392MOL0     H52904   3.781   6.395  11.694  3.7744 -0.8903  0.4435
  392MOL0     H52905   3.687   6.177  11.696  0.8922 -1.6701  0.6205
  392MOL0     H52906   3.109   4.982  11.311  0.2174  0.7360  0.9639
  392MOL0     H52907   3.365   4.974  11.330  0.3703  2.1235  1.2845
  392MOL0     H52908   3.708   5.313  11.386  0.0622 -0.2440  1.1823
  392MOL0     H52909   3.917   5.363  11.474  1.8288 -0.6989  1.4667
  392MOL0     H52910   4.139   5.392  11.517  0.1196 -0.8496 -1.0031
  392MOL0     H52911   4.086   5.280  11.641 -3.0370 -2.1750 -2.4471
  392MOL0     H52912   4.297   5.167  11.646  1.4612 -0.2497  2.2654
  392MOL0     H52913   4.303   5.324  11.717 -0.6936  2.5857 -1.7294
  392MOL0     H52914   4.431   5.417  11.517 -0.4665 -0.3046  1.3709
  392MOL0     H52915   4.402   5.257  11.433  1.5551 -0.4050  0.3711
  392MOL0     H52916   4.528   5.138  11.578 -0.6750  0.1995 -2.9587
  392MOL0     H52917   4.544   5.289  11.685  2.1037  0.5382 -0.6382
  392MOL0     H52918   4.844   5.372  11.418 -2.5432  0.3559 -1.0233
  392MOL0     H52919   4.056   4.964  11.365 -1.1461 -0.8736  2.6941
  392MOL0     H52920   3.832   4.910  11.298 -0.7276 -0.0552 -0.3725
  393MOL0     O52921  10.839   9.842   1.712 -0.6657  0.0299  0.6315
  393MOL0     C52922  10.847   9.816   1.828  0.3265  0.1816 -0.4295
  393MOL0     O52923  10.747   9.753   1.902  0.1396  0.0102 -0.3239
  393MOL0     C52924  10.618   9.767   1.855  0.3619 -0.3164 -0.6696
  393MOL0     C52925  10.567   9.686   1.754 -0.7564  0.2370  0.2229
  393MOL0     C52926  10.434   9.678   1.720  0.2828  0.1010  0.0367
  393MOL0     C52927  10.342   9.757   1.795  0.0298 -0.4418 -0.0700
  393MOL0     O52928  10.206   9.756   1.766 -0.4135  0.4440 -0.4217
  393MOL0     C52929  10.146   9.677   1.661  0.1468 -0.3486 -0.6757
  393MOL0     C52930   9.995   9.712   1.640 -0.5065 -0.5784 -0.4180
  393MOL0     C52931   9.928   9.613   1.542 -0.4309 -1.0617  0.6432
  393MOL0     C52932   9.847   9.507   1.613 -0.0658 -0.6754  0.7555
  393MOL0     C52933   9.707   9.537   1.657  0.1147  0.2695 -0.1178
  393MOL0     C52934   9.606   9.539   1.534  0.5046  0.1424 -0.4430
  393MOL0     C52935   9.462   9.595   1.571 -0.2207 -0.6567  0.1228
  393MOL0     C52936   9.382   9.624   1.438  0.5026  0.2926 -0.2979
  393MOL0     N52937   9.235   9.640   1.441  0.1699 -0.3140  0.2253
  393MOL0     C52938   9.150   9.580   1.533 -1.0739  0.4497  0.7259
  393MOL0     C52939   9.030   9.637   1.517  0.3151  0.1112 -0.7533
  393MOL0     C52940   8.895   9.596   1.577  1.1256  0.3349 -0.1233
  393MOL0     C52941   8.817   9.722   1.637  0.4511  0.3479 -1.3437
  393MOL0     C52942   8.780   9.821   1.528  0.1231 -0.6963 -0.0028
  393MOL0     C52943   8.706   9.790   1.401 -0.4124  0.2983 -0.1184
  393MOL0     O52944   8.598   9.705   1.449  0.0135 -0.1113 -0.5196
  393MOL0     C52945   8.466   9.752   1.445 -0.4086  0.2195  0.4637
  393MOL0     C52946   8.415   9.852   1.363  0.1194 -0.8226  0.2765
  393MOL0     C52947   8.287   9.897   1.368  0.6241 -0.3702  0.3818
  393MOL0     C52948   8.251  10.007   1.272  1.1061  0.1195 -1.2910
  393MOL0     C52949   8.200   9.827   1.454 -0.0397 -0.5064 -0.7973
  393MOL0     C52950   8.053   9.860   1.469 -0.6007  0.1073 -0.3548
  393MOL0     O52951   7.985   9.808   1.569 -0.2028  0.0553 -0.7461
  393MOL0     C52952   7.858   9.840   1.607 -0.6705 -0.0708 -0.3663
  393MOL0     C52953   7.781   9.732   1.646  0.0904 -0.1736  0.0190
  393MOL0     C52954   7.644   9.749   1.669  0.0362  0.0790  0.4760
  393MOL0     C52955   7.581   9.875   1.653  0.6931  0.0020 -0.6388
  393MOL0     O52956   7.450   9.895   1.691  0.7358 -0.0790  0.1455
  393MOL0     C52957   7.410   9.854   1.821 -0.0859  0.4460  0.1670
  393MOL0     C52958   7.286   9.929   1.858 -0.4663 -0.5641  0.0620
  393MOL0     C52959   7.165   9.887   1.776  0.1130  1.0905  0.2868
  393MOL0     C52960   7.043   9.984   1.801 -0.3271 -0.1747  0.1960
  393MOL0     C52961   6.993  10.001   1.947 -0.4680 -0.2939 -0.2703
  393MOL0     C52962   6.884  10.104   1.964  0.6392  0.1380  0.3843
  393MOL0     C52963   6.791  10.091   2.086  0.4018 -0.0057 -0.5622
  393MOL0     C52964   6.669  10.006   2.052  0.4204  0.7071  0.0651
  393MOL0    Cl52965   6.568   9.978   2.194 -0.1001  0.2576 -0.7838
  393MOL0     C52966   7.657   9.983   1.606  1.1287 -0.6200 -0.1677
  393MOL0     C52967   7.795   9.968   1.586 -0.5122  0.4460  0.1384
  393MOL0     O52968   8.003   9.934   1.382 -0.6866 -0.5448 -0.9966
  393MOL0     C52969   8.250   9.719   1.526  0.0993 -0.8926  0.0948
  393MOL0     C52970   8.384   9.685   1.520 -0.2542 -0.0619  0.7120
  393MOL0     N52971   9.038   9.712   1.400 -0.6227  0.1262  0.0795
  393MOL0     N52972   9.168   9.734   1.372  0.2824  0.5264  0.7121
  393MOL0     C52973  10.390   9.838   1.902  0.0343 -0.0908 -0.3384
  393MOL0     C52974  10.523   9.837   1.932 -0.4753 -0.2224 -0.6553
  393MOL0     C52975  10.981   9.828   1.888 -0.6928  0.2862 -0.0632
  393MOL0     C52976  11.003   9.800   2.031 -0.1158 -0.0187 -0.8738
  393MOL0     C52977  11.133   9.823   2.087  0.7912 -0.5094  0.5726
  393MOL0     C52978  11.237   9.882   2.011 -0.8265  0.1194  0.6819
  393MOL0     O52979  11.355   9.916   2.075  0.3645  0.5136  0.5445
  393MOL0     C52980  11.466   9.858   2.002 -0.6805  0.6879  0.3012
  393MOL0     C52981  11.569   9.794   2.101  0.1238  0.3905 -0.1517
  393MOL0     C52982  11.652   9.897   2.180  0.4410 -0.2763  0.5278
  393MOL0     C52983  11.761   9.978   2.107  0.1265  0.4386 -0.5366
  393MOL0     C52984  11.831  10.063   2.198 -0.0468 -0.6109 -0.1999
  393MOL0     C52985  11.895  10.110   2.287  0.0402 -0.6951 -0.4214
  393MOL0     C52986  11.213   9.906   1.880 -0.7850 -0.4332  0.0743
  393MOL0     C52987  11.086   9.884   1.812 -0.1720 -0.4901 -0.1753
  393MOL0     H52988  10.644   9.637   1.696 -0.0461  2.2371 -0.6070
  393MOL0     H52989  10.397   9.614   1.640 -0.8010 -0.1891  0.7568
  393MOL0     H52990  10.201   9.687   1.567  0.9636 -0.6232 -0.2402
  393MOL0     H52991  10.156   9.575   1.697  3.0913 -0.2751 -1.0206
  393MOL0     H52992   9.933   9.717   1.730  0.1884 -0.8819  0.0826
  393MOL0     H52993   9.995   9.809   1.590  1.9185  0.9990  2.3727
  393MOL0     H52994   9.869   9.664   1.464 -1.8526 -4.1951 -0.4820
  393MOL0     H52995  10.009   9.554   1.500  1.5061 -0.0299  2.6983
  393MOL0     H52996   9.842   9.423   1.542  1.4959  0.3302 -0.6152
  393MOL0     H52997   9.913   9.466   1.690 -1.4980 -1.1411  1.7797
  393MOL0     H52998   9.684   9.456   1.726 -1.0190  0.2400 -0.4908
  393MOL0     H52999   9.706   9.631   1.712 -1.2181 -0.0373  0.4263
  393MOL0     H53000   9.662   9.598   1.462  0.9594 -1.1079 -1.1411
  393MOL0     H53001   9.593   9.438   1.495 -1.6488 -0.6415  1.9818
  393MOL0     H53002   9.403   9.527   1.633  0.6980  1.2797  3.3673
  393MOL0     H53003   9.470   9.688   1.629 -1.4248  0.2069 -1.0621
  393MOL0     H53004   9.403   9.544   1.367 -2.4280 -0.5950 -0.3014
  393MOL0     H53005   9.419   9.717   1.394 -3.6724  0.9233 -3.0680
  393MOL0     H53006   9.175   9.503   1.605  0.3822 -0.0169 -0.2228
  393MOL0     H53007   8.831   9.546   1.504  0.6621 -0.1805  0.6210
  393MOL0     H53008   8.910   9.517   1.651 -1.0805  0.3480  0.4214
  393MOL0     H53009   8.878   9.767   1.715 -0.5831 -0.1562 -0.2059
  393MOL0     H53010   8.721   9.682   1.674 -0.9034  2.9284 -1.8734
  393MOL0     H53011   8.865   9.887   1.510  0.6211 -0.4075  2.9122
  393MOL0     H53012   8.715   9.897   1.572  1.6771  0.5952  0.1257
  393MOL0     H53013   8.771   9.742   1.327 -0.0069  0.1350  0.3379
  393MOL0     H53014   8.684   9.889   1.360  1.3060  0.1472 -1.5474
  393MOL0     H53015   8.490   9.889   1.294 -0.3173 -0.8925 -0.2393
  393MOL0     H53016   8.193   9.966   1.188 -0.0381  0.4967 -0.7056
  393MOL0     H53017   8.200  10.091   1.320  1.4651 -1.1421  1.4724
  393MOL0     H53018   8.346  10.047   1.236  0.4717  1.4980 -1.5077
  393MOL0     H53019   7.828   9.636   1.665 -1.8757 -1.3295 -0.5973
  393MOL0     H53020   7.584   9.660   1.683  0.9847 -0.8817 -1.3323
  393MOL0     H53021   7.398   9.746   1.831 -1.5346  0.6241  0.5496
  393MOL0     H53022   7.491   9.891   1.885  0.1424  2.9318 -1.4097
  393MOL0     H53023   7.264   9.926   1.965 -0.5850 -2.9690  0.0247
  393MOL0     H53024   7.314  10.034   1.841  0.5437 -1.0147 -1.2438
  393MOL0     H53025   7.142   9.782   1.797  3.2069  0.1844 -0.2923
  393MOL0     H53026   7.197   9.900   1.672 -0.3637 -0.7379 -0.1313
  393MOL0     H53027   7.065  10.084   1.762  0.9384 -0.5663 -0.1638
  393MOL0     H53028   6.969   9.943   1.732  1.2971 -2.3496 -0.3699
  393MOL0     H53029   7.076  10.011   2.018 -2.2070  0.3430  1.7927
  393MOL0     H53030   6.944   9.906   1.971 -1.1547 -0.4994 -2.2620
  393MOL0     H53031   6.925  10.205   1.969  1.9615 -0.2910 -0.8344
  393MOL0     H53032   6.817  10.107   1.878  0.8349  1.4559  0.2567
  393MOL0     H53033   6.748  10.187   2.115 -3.6060 -2.4973  3.0055
  393MOL0     H53034   6.839  10.053   2.176  2.2561  0.1812 -1.4411
  393MOL0     H53035   6.700   9.905   2.024 -0.7400  0.7450 -1.4960
  393MOL0     H53036   6.606  10.047   1.972  0.3296  0.2348 -0.1084
  393MOL0     H53037   7.603  10.077   1.619  0.1144 -1.4936  2.8661
  393MOL0     H53038   7.860  10.048   1.552  0.7474 -0.0425  1.2897
  393MOL0     H53039   8.194   9.662   1.600  1.8392 -0.6529  1.6721
  393MOL0     H53040   8.421   9.598   1.574 -1.2317 -0.9156  0.0370
  393MOL0     H53041  10.318   9.895   1.960 -0.6546 -1.7827  0.5426
  393MOL0     H53042  10.565   9.903   2.008 -1.8932  0.8170 -0.7402
  393MOL0     H53043  10.925   9.771   2.100 -0.3367 -0.1057 -1.1576
  393MOL0     H53044  11.139   9.821   2.195 -1.8278 -1.9700  0.7623
  393MOL0     H53045  11.440   9.776   1.934 -1.2742  1.1294 -0.0197
  393MOL0     H53046  11.513   9.936   1.942  2.7455 -0.4522  1.2937
  393MOL0     H53047  11.643   9.731   2.050  0.2397  0.4875 -0.1036
  393MOL0     H53048  11.520   9.726   2.171  0.0344 -1.2554 -1.7414
  393MOL0     H53049  11.699   9.851   2.267  0.6289 -0.4395  0.3417
  393MOL0     H53050  11.577   9.963   2.224 -0.2035 -1.0577  0.6289
  393MOL0     H53051  11.724  10.046   2.029  4.0909  0.1359 -2.9882
  393MOL0     H53052  11.818   9.898   2.058 -1.4390  1.2853 -4.0945
  393MOL0     H53053  11.945  10.164   2.365 -0.4105 -1.2275  0.2433
  393MOL0     H53054  11.295   9.937   1.816  0.9179 -2.4764  1.1471
  393MOL0     H53055  11.069   9.907   1.707  0.1587  0.9424  0.0521
  394MOL0     O53056   7.269   1.158   9.768 -0.2280  0.7301  0.0174
  394MOL0     C53057   7.335   1.121   9.864  0.6533  0.5265 -0.0284
  394MOL0     O53058   7.292   1.051   9.970 -0.2301  0.9346  0.8692
  394MOL0     C53059   7.162   1.006   9.975  0.2114 -0.0434 -0.2694
  394MOL0     C53060   7.097   1.026  10.097  0.0727  0.1208 -0.4851
  394MOL0     C53061   6.962   0.980  10.111 -0.9084 -0.3076  0.2463
  394MOL0     C53062   6.898   0.920  10.003  0.3443  0.7426  0.2242
  394MOL0     O53063   6.769   0.888  10.031  0.2150  0.0221 -0.2964
  394MOL0     C53064   6.712   0.797   9.947  0.8578 -0.0006  0.0915
  394MOL0     C53065   6.576   0.769  10.009 -0.3320  0.3179 -0.1455
  394MOL0     C53066   6.464   0.881  10.010 -0.6322  0.7045 -0.4698
  394MOL0     C53067   6.334   0.824  10.071  0.2444 -0.1227  0.5651
  394MOL0     C53068   6.227   0.929  10.082  0.8318 -0.0368 -0.3226
  394MOL0     C53069   6.117   0.903  10.190  0.0800  0.9041  0.6008
  394MOL0     C53070   5.986   0.996  10.181 -0.2794  0.3434 -0.4415
  394MOL0     C53071   6.016   1.143  10.228  0.4849 -0.5038  0.2307
  394MOL0     N53072   5.888   1.219  10.231 -0.4385 -0.3257  0.0238
  394MOL0     C53073   5.869   1.347  10.287 -0.2005 -0.6765  0.7775
  394MOL0     C53074   5.733   1.376  10.283 -0.2882  0.8191  0.9589
  394MOL0     C53075   5.648   1.488  10.331  0.4576 -0.4647  0.5245
  394MOL0     C53076   5.521   1.492  10.232  0.1158  0.6285 -0.0813
  394MOL0     C53077   5.446   1.630  10.246  0.2654  0.9006 -0.3751
  394MOL0     C53078   5.388   1.646  10.384  0.1382 -0.3676 -0.7401
  394MOL0     O53079   5.326   1.518  10.425  0.1937 -0.0177  0.8893
  394MOL0     C53080   5.189   1.510  10.412  0.2564 -0.7545 -0.0584
  394MOL0     C53081   5.148   1.380  10.375 -0.1261 -0.1965 -0.7374
  394MOL0     C53082   5.023   1.341  10.369 -0.1444 -0.6745  1.2276
  394MOL0     C53083   4.995   1.195  10.329 -0.2955  0.9141 -0.0265
  394MOL0     C53084   4.920   1.445  10.383 -0.4581 -0.6844  0.9326
  394MOL0     C53085   4.773   1.439  10.348  0.5916 -0.5048 -0.1547
  394MOL0     O53086   4.701   1.550  10.362 -0.3905  0.0043  1.0563
  394MOL0     C53087   4.564   1.524  10.365  0.0269 -0.6577  0.5158
  394MOL0     C53088   4.497   1.518  10.485 -0.3898  0.0753  0.1022
  394MOL0     C53089   4.362   1.497  10.488  0.2359 -0.4782  0.2730
  394MOL0     C53090   4.286   1.478  10.371 -0.8271  1.3121  0.4056
  394MOL0     O53091   4.152   1.452  10.372 -0.4194  0.6969 -0.0107
  394MOL0     C53092   4.079   1.410  10.491  0.2860  0.1321 -0.5626
  394MOL0     C53093   3.929   1.388  10.442 -0.3722 -0.8531 -0.7339
  394MOL0     C53094   3.853   1.294  10.541  0.0341  0.3430 -0.2326
  394MOL0     C53095   3.698   1.279  10.517  0.0128 -1.0609 -0.6493
  394MOL0     C53096   3.652   1.153  10.588 -0.2185  0.1352 -0.0449
  394MOL0     C53097   3.650   1.159  10.743  0.5428  0.2168  0.0181
  394MOL0     C53098   3.594   1.023  10.789  0.0032 -0.1752 -0.3689
  394MOL0     C53099   3.606   1.016  10.941  0.4832 -0.4970 -0.3114
  394MOL0    Cl53100   3.777   1.040  10.999  0.3058 -0.0377 -0.3451
  394MOL0     C53101   4.349   1.469  10.246 -0.7822 -0.9712 -0.5868
  394MOL0     C53102   4.488   1.504  10.243  0.1898 -0.6323  0.1386
  394MOL0     O53103   4.729   1.337  10.299 -0.8693  0.1818  0.2210
  394MOL0     C53104   4.967   1.575  10.414  0.6701  0.3443 -0.3122
  394MOL0     C53105   5.097   1.605  10.438 -0.1854 -0.1308 -0.2720
  394MOL0     N53106   5.670   1.257  10.240 -0.1969  1.0816  0.0838
  394MOL0     N53107   5.761   1.177  10.199 -0.2913 -0.2482 -0.0243
  394MOL0     C53108   6.968   0.903   9.881  1.0820 -0.6396 -0.1324
  394MOL0     C53109   7.101   0.942   9.870 -0.2230  1.1265 -1.0381
  394MOL0     C53110   7.477   1.171   9.867  0.4822  0.1554 -0.0863
  394MOL0     C53111   7.528   1.272   9.781  0.1538 -0.3226  0.8012
  394MOL0     C53112   7.660   1.313   9.788  0.1603 -0.6754 -0.5494
  394MOL0     C53113   7.747   1.261   9.889  0.4990  0.0035  0.2672
  394MOL0     O53114   7.863   1.334   9.900 -0.4276 -0.4511  0.3027
  394MOL0     C53115   7.964   1.302  10.001  0.9461 -1.1036 -0.1775
  394MOL0     C53116   8.061   1.198   9.963  0.4398 -0.5205  0.0590
  394MOL0     C53117   8.130   1.215   9.832 -0.6788 -0.5323 -0.1641
  394MOL0     C53118   8.115   1.089   9.737  0.3426  0.2897 -0.0644
  394MOL0     C53119   7.980   1.091   9.679 -0.2970  0.4015  0.8020
  394MOL0     C53120   7.879   1.086   9.619  0.2490 -0.3338  0.4976
  394MOL0     C53121   7.700   1.167   9.980  0.2069  0.0816  0.2568
  394MOL0     C53122   7.563   1.124   9.968 -0.8311 -0.2588  0.7839
  394MOL0     H53123   7.150   1.091  10.166 -0.2884  1.8064 -1.7129
  394MOL0     H53124   6.909   1.013  10.200  2.5489  0.5490  2.1747
  394MOL0     H53125   6.702   0.838   9.846  0.8086 -0.7285 -0.2012
  394MOL0     H53126   6.777   0.711   9.932  1.0039  0.6444 -4.2195
  394MOL0     H53127   6.536   0.679   9.963 -2.2619 -0.1730  2.2317
  394MOL0     H53128   6.593   0.747  10.115 -1.4385  2.7157  0.6003
  394MOL0     H53129   6.501   0.973  10.056 -0.1545  1.4885 -2.3129
  394MOL0     H53130   6.443   0.909   9.906 -2.0026 -0.4375 -0.5366
  394MOL0     H53131   6.299   0.739  10.013 -0.1162 -1.0971  2.1380
  394MOL0     H53132   6.360   0.791  10.173 -0.1816  1.2112  1.1281
  394MOL0     H53133   6.273   1.026  10.105 -0.5860 -0.0381  3.1513
  394MOL0     H53134   6.166   0.936   9.992 -2.1867 -1.5834  1.4219
  394MOL0     H53135   6.093   0.799  10.163  0.5665  1.6593 -3.1890
  394MOL0     H53136   6.152   0.905  10.294 -0.4992  1.1823  0.7953
  394MOL0     H53137   5.956   1.000  10.076 -1.1282  0.8878 -0.1816
  394MOL0     H53138   5.909   0.955  10.247  1.0283  0.2461  1.1058
  394MOL0     H53139   6.084   1.184  10.153 -2.5442  1.3875 -1.6846
  394MOL0     H53140   6.067   1.141  10.325  1.8428 -1.0769 -0.4707
  394MOL0     H53141   5.944   1.414  10.328 -0.6974  1.1767 -1.1879
  394MOL0     H53142   5.615   1.478  10.435 -0.5376  0.6034  0.3428
  394MOL0     H53143   5.699   1.584  10.316 -2.7584  1.0697 -1.9800
  394MOL0     H53144   5.448   1.414  10.253  0.6637  0.1965  0.2277
  394MOL0     H53145   5.551   1.490  10.127  2.2497 -1.7060  0.4799
  394MOL0     H53146   5.368   1.638  10.169 -0.2207 -0.8574 -0.1316
  394MOL0     H53147   5.519   1.710  10.239  1.8444 -0.3053  1.4747
  394MOL0     H53148   5.316   1.728  10.377  1.1917  0.6209 -0.2877
  394MOL0     H53149   5.463   1.674  10.459  1.6033 -1.3058 -1.7805
  394MOL0     H53150   5.226   1.305  10.362 -1.4508 -1.6541 -0.5854
  394MOL0     H53151   4.982   1.184  10.221  2.4718 -0.0006 -0.3277
  394MOL0     H53152   5.074   1.123  10.354  1.2380  2.5215 -0.0767
  394MOL0     H53153   4.905   1.165  10.384 -0.2815  1.6652  0.4254
  394MOL0     H53154   4.551   1.539  10.577 -0.2053 -1.4613  0.3727
  394MOL0     H53155   4.326   1.509  10.589  1.9490 -0.1063  0.8780
  394MOL0     H53156   4.125   1.319  10.531  0.9674  0.4139 -0.6929
  394MOL0     H53157   4.084   1.487  10.568 -0.7886  0.8711 -1.2060
  394MOL0     H53158   3.878   1.484  10.454 -1.5290 -1.6934  2.1308
  394MOL0     H53159   3.931   1.347  10.341 -0.2693 -2.6176 -0.0452
  394MOL0     H53160   3.880   1.312  10.646 -1.2314 -1.2050  0.3936
  394MOL0     H53161   3.891   1.196  10.513  0.4646  1.1873 -2.8150
  394MOL0     H53162   3.650   1.360  10.572 -0.4016 -0.8739 -1.2839
  394MOL0     H53163   3.674   1.271  10.411  2.3105 -0.3600 -1.2918
  394MOL0     H53164   3.708   1.067  10.551 -2.1838 -1.9461  1.5053
  394MOL0     H53165   3.553   1.123  10.551  0.2530 -2.6411  0.7542
  394MOL0     H53166   3.751   1.182  10.778  1.0808 -0.7835 -0.8148
  394MOL0     H53167   3.578   1.234  10.778 -0.8889 -0.1973 -1.8504
  394MOL0     H53168   3.646   0.933  10.753  0.4422 -0.4170  0.8101
  394MOL0     H53169   3.491   1.009  10.757  0.0012  2.0326 -1.4370
  394MOL0     H53170   3.570   0.919  10.976 -2.9342  0.4327 -0.8266
  394MOL0     H53171   3.541   1.094  10.982 -0.1298 -2.0726  1.8587
  394MOL0     H53172   4.305   1.433  10.153 -0.4456 -0.8284 -0.8069
  394MOL0     H53173   4.549   1.516  10.153  2.5386  0.6597  1.7890
  394MOL0     H53174   4.896   1.652  10.439  0.1818 -0.4217  0.7551
  394MOL0     H53175   5.130   1.700  10.478 -1.2057  0.2611 -0.3439
  394MOL0     H53176   6.918   0.850   9.800  0.6706  0.3740 -0.5579
  394MOL0     H53177   7.156   0.921   9.778 -0.5490 -2.0004 -0.6275
  394MOL0     H53178   7.470   1.312   9.698  0.5397  0.0045  0.6890
  394MOL0     H53179   7.704   1.388   9.724 -1.2368  3.0358  2.4232
  394MOL0     H53180   8.019   1.396  10.011  2.7077 -2.1506  0.4299
  394MOL0     H53181   7.911   1.276  10.093 -0.5928  1.1204 -0.3719
  394MOL0     H53182   8.011   1.101   9.961 -1.4920  0.4269 -0.3310
  394MOL0     H53183   8.129   1.191  10.048 -2.3540  1.3490  2.6822
  394MOL0     H53184   8.235   1.235   9.854 -1.1718  0.8613  1.1524
  394MOL0     H53185   8.082   1.301   9.784  1.3410 -0.1875 -1.6732
  394MOL0     H53186   8.126   0.992   9.786 -1.7179 -0.4684 -1.0113
  394MOL0     H53187   8.195   1.079   9.662  2.3199  3.5679  1.3860
  394MOL0     H53188   7.782   1.088   9.574 -0.2756 -1.6082  1.4951
  394MOL0     H53189   7.765   1.126  10.057 -0.3962 -2.7825 -0.6438
  394MOL0     H53190   7.525   1.058  10.045 -1.0317 -3.8297 -2.1432
  395MOL0     O53191   1.312  10.073   3.886  0.4912  0.0619  0.4576
  395MOL0     C53192   1.361   9.982   3.819 -0.8526 -0.0939 -0.4647
  395MOL0     O53193   1.296   9.876   3.777  0.8336  0.7439  0.0716
  395MOL0     C53194   1.162   9.835   3.813 -0.0050  0.2695 -0.2852
  395MOL0     C53195   1.070   9.901   3.903 -0.1532  0.8814 -0.4889
  395MOL0     C53196   0.940   9.853   3.904  0.5326  0.0321  0.6106
  395MOL0     C53197   0.893   9.745   3.825  0.4419 -0.3541 -0.4725
  395MOL0     O53198   0.766   9.693   3.833  0.0233 -0.1724  0.0317
  395MOL0     C53199   0.676   9.735   3.734  1.2366  0.9264 -0.0975
  395MOL0     C53200   0.540   9.670   3.771  0.3492 -0.0085  0.2604
  395MOL0     C53201   0.430   9.697   3.672  0.5713 -0.8821 -0.5053
  395MOL0     C53202   0.430   9.834   3.596  0.1443 -0.9076  0.0170
  395MOL0     C53203   0.306   9.853   3.513  0.4918 -0.7590  0.4338
  395MOL0     C53204   0.205   9.937   3.595  1.1910 -0.8095  1.1329
  395MOL0     C53205   0.063   9.927   3.529  0.2659 -0.5033 -0.1148
  395MOL0     C53206  -0.049   9.958   3.625 -0.1360 -0.2344 -0.4756
  395MOL0     N53207  -0.168  10.012   3.560 -0.0640  0.0310  0.2058
  395MOL0     C53208  -0.161  10.119   3.473  0.6709  0.4619 -0.3548
  395MOL0     C53209  -0.289  10.116   3.416 -0.6807  0.1991 -0.2397
  395MOL0     C53210  -0.321  10.226   3.314 -0.2241  0.3782 -0.3458
  395MOL0     C53211  -0.302  10.367   3.368  0.9482 -0.1059  0.4451
  395MOL0     C53212  -0.331  10.464   3.252  0.9732 -0.3495  0.4250
  395MOL0     C53213  -0.489  10.488   3.239 -0.5357 -0.0035 -0.2214
  395MOL0     O53214  -0.507  10.577   3.127 -0.2154  0.3358  0.6348
  395MOL0     C53215  -0.641  10.617   3.103 -0.9280  0.1954  0.7385
  395MOL0     C53216  -0.661  10.716   3.001  0.4514  0.5411 -0.4806
  395MOL0     C53217  -0.785  10.772   2.982  0.4798  0.0433  0.1233
  395MOL0     C53218  -0.803  10.865   2.868  0.2199 -0.1229 -1.2975
  395MOL0     C53219  -0.892  10.728   3.061  0.2947 -0.3460 -0.4372
  395MOL0     C53220  -1.031  10.795   3.047 -0.0796  0.8587 -0.3000
  395MOL0     O53221  -1.136  10.707   3.070  0.3944 -0.4018 -0.5670
  395MOL0     C53222  -1.253  10.768   3.101  0.5428 -0.7931 -0.2566
  395MOL0     C53223  -1.279  10.834   3.224 -0.0423 -0.5628 -0.3057
  395MOL0     C53224  -1.408  10.897   3.234 -1.0490  0.3146 -0.6456
  395MOL0     C53225  -1.510  10.890   3.142  0.5170  0.0459 -0.3347
  395MOL0     O53226  -1.636  10.950   3.158  0.0398  0.1270 -0.2754
  395MOL0     C53227  -1.660  11.014   3.283 -0.2227 -0.5017 -0.5099
  395MOL0     C53228  -1.801  11.079   3.288  0.3434  0.4068 -0.0605
  395MOL0     C53229  -1.836  11.123   3.427 -0.1900 -0.2060  0.6497
  395MOL0     C53230  -1.972  11.189   3.438 -0.0956 -0.1578 -0.0996
  395MOL0     C53231  -2.026  11.199   3.577 -0.1963  0.4157 -0.0411
  395MOL0     C53232  -2.145  11.296   3.574  0.8601  0.1032  0.1067
  395MOL0     C53233  -2.266  11.233   3.502 -0.3526  0.1563 -0.3890
  395MOL0     C53234  -2.393  11.310   3.513  0.1278  0.2024 -1.6680
  395MOL0    Cl53235  -2.366  11.459   3.427 -0.2179 -0.3939 -0.0270
  395MOL0     C53236  -1.476  10.824   3.026  0.5495  0.3514  0.4977
  395MOL0     C53237  -1.349  10.766   3.008  0.6294  0.0186 -0.1227
  395MOL0     O53238  -1.042  10.918   3.034 -0.4338  0.2462  0.3002
  395MOL0     C53239  -0.877  10.629   3.155  0.0543 -0.1258  0.9328
  395MOL0     C53240  -0.753  10.573   3.175  0.2038  0.7447 -0.6430
  395MOL0     N53241  -0.362  10.021   3.475  0.1591  0.3012 -0.8278
  395MOL0     N53242  -0.287   9.954   3.559 -0.3528 -0.8593 -0.3759
  395MOL0     C53243   0.986   9.677   3.748  0.6191 -0.3165 -0.4375
  395MOL0     C53244   1.118   9.722   3.742  0.0598  0.2858  0.7212
  395MOL0     C53245   1.498   9.994   3.773 -0.4502  0.4646 -1.0455
  395MOL0     C53246   1.553   9.889   3.704  0.1967  0.6025 -0.0397
  395MOL0     C53247   1.679   9.890   3.652 -0.1133  0.0235  0.0578
  395MOL0     C53248   1.748  10.013   3.661  0.5939 -0.1436 -0.1275
  395MOL0     O53249   1.873  10.021   3.610 -0.2691  0.2738  0.2650
  395MOL0     C53250   1.881  10.056   3.466  0.6654 -0.5075  0.3545
  395MOL0     C53251   2.008   9.984   3.418  0.7084  0.0528  0.3293
  395MOL0     C53252   2.027  10.020   3.262 -0.0634 -0.0037  0.5260
  395MOL0     C53253   1.929   9.946   3.164 -0.2958  0.1378 -0.4311
  395MOL0     C53254   1.981   9.952   3.028  1.5085  0.2714  0.0332
  395MOL0     C53255   2.004   9.956   2.910  0.0470 -1.1582  0.9272
  395MOL0     C53256   1.698  10.122   3.733 -0.1672  0.2348 -0.1140
  395MOL0     C53257   1.573  10.112   3.790 -0.3053 -0.3159 -0.1455
  395MOL0     H53258   1.086   9.973   3.983 -1.7321 -1.2869  1.9532
  395MOL0     H53259   0.874   9.901   3.976 -0.4085 -1.4733  0.7981
  395MOL0     H53260   0.658   9.842   3.721 -0.3758  0.5804 -0.9472
  395MOL0     H53261   0.707   9.696   3.637 -0.8032 -2.0095  0.3109
  395MOL0     H53262   0.550   9.562   3.777 -1.2503 -0.1340  1.2350
  395MOL0     H53263   0.519   9.703   3.873 -0.7600  0.6561 -0.1627
  395MOL0     H53264   0.430   9.623   3.592  2.1867  0.2904 -1.6801
  395MOL0     H53265   0.336   9.690   3.727  1.3257 -0.4192  0.8869
  395MOL0     H53266   0.440   9.921   3.662  3.0908  0.4513 -2.0098
  395MOL0     H53267   0.517   9.842   3.530  0.1724 -1.0045  0.0410
  395MOL0     H53268   0.320   9.899   3.415  2.9370 -1.2042  0.4929
  395MOL0     H53269   0.259   9.756   3.500 -0.8315 -0.0465 -0.2917
  395MOL0     H53270   0.198   9.907   3.700 -2.0947 -0.7929  1.0066
  395MOL0     H53271   0.239  10.040   3.582  1.5514 -1.1997 -1.8628
  395MOL0     H53272   0.073   9.998   3.446  3.5335 -0.2992  0.3241
  395MOL0     H53273   0.044   9.826   3.493 -2.5712  0.3279 -1.2769
  395MOL0     H53274  -0.024  10.030   3.704 -0.7035 -1.3881  0.7934
  395MOL0     H53275  -0.085   9.866   3.671 -0.4271  0.5208  0.8532
  395MOL0     H53276  -0.075  10.183   3.455  0.4360  1.6135  2.2300
  395MOL0     H53277  -0.253  10.209   3.230 -0.1963 -0.2150 -0.2049
  395MOL0     H53278  -0.424  10.219   3.279 -0.2900  1.0010 -0.2955
  395MOL0     H53279  -0.201  10.391   3.404  0.7528 -0.1804  1.0485
  395MOL0     H53280  -0.371  10.384   3.451 -2.7691  1.2690 -2.6458
  395MOL0     H53281  -0.299  10.425   3.155 -1.2533 -2.0651  0.2867
  395MOL0     H53282  -0.281  10.561   3.259 -0.9363  0.9791 -2.3040
  395MOL0     H53283  -0.527  10.523   3.335  1.9045 -2.1686  1.6461
  395MOL0     H53284  -0.530  10.390   3.215  1.1687 -1.0428  0.9174
  395MOL0     H53285  -0.575  10.742   2.940 -0.3265  0.8795 -1.4446
  395MOL0     H53286  -0.716  10.872   2.802 -0.4878 -2.3855 -2.5525
  395MOL0     H53287  -0.901  10.858   2.821 -0.3762  3.4396 -0.8839
  395MOL0     H53288  -0.795  10.961   2.921  1.5771 -1.5272  1.2825
  395MOL0     H53289  -1.221  10.839   3.315 -1.1154 -0.5678  0.4055
  395MOL0     H53290  -1.426  10.934   3.335  3.4755 -0.5938  0.7155
  395MOL0     H53291  -1.648  10.938   3.361  0.3469 -0.7607 -0.8337
  395MOL0     H53292  -1.589  11.094   3.305  0.3877 -0.8648 -1.0838
  395MOL0     H53293  -1.799  11.166   3.221  1.1767 -0.2982 -0.9924
  395MOL0     H53294  -1.866  11.006   3.241  2.0534 -1.9397  1.0018
  395MOL0     H53295  -1.757  11.196   3.446 -0.6046  1.0868 -2.0478
  395MOL0     H53296  -1.832  11.031   3.486  4.6303 -1.3824 -1.0235
  395MOL0     H53297  -1.969  11.282   3.380  0.4487  1.3008  2.1328
  395MOL0     H53298  -2.041  11.135   3.373 -0.3462  0.1065 -0.0540
  395MOL0     H53299  -1.941  11.232   3.638  0.3455  3.4232 -2.1919
  395MOL0     H53300  -2.049  11.098   3.612  2.7596 -1.0946 -1.9381
  395MOL0     H53301  -2.188  11.309   3.674 -0.4148 -1.1798 -0.2321
  395MOL0     H53302  -2.113  11.391   3.529  0.6100  0.5441  0.8504
  395MOL0     H53303  -2.262  11.140   3.560  3.2131 -0.4373 -1.3329
  395MOL0     H53304  -2.236  11.213   3.399  0.7137  3.6299 -0.8790
  395MOL0     H53305  -2.407  11.327   3.620 -0.0943 -0.1400 -1.6419
  395MOL0     H53306  -2.486  11.265   3.477 -1.1698 -0.3647  1.9456
  395MOL0     H53307  -1.546  10.799   2.947  2.7041 -1.9966 -0.8663
  395MOL0     H53308  -1.320  10.714   2.917  1.4706  0.2077  0.0344
  395MOL0     H53309  -0.964  10.603   3.214 -0.6971  2.0635  0.9073
  395MOL0     H53310  -0.745  10.486   3.240 -1.3758 -0.3240 -1.7913
  395MOL0     H53311   0.956   9.608   3.670  3.1668  1.9182 -3.7064
  395MOL0     H53312   1.193   9.669   3.683 -0.7803  0.4951 -0.5511
  395MOL0     H53313   1.501   9.797   3.681 -0.2505  0.8976 -0.2328
  395MOL0     H53314   1.724   9.810   3.594 -0.5029 -1.4279  1.6781
  395MOL0     H53315   1.800  10.016   3.404  0.6675  0.6478 -0.4149
  395MOL0     H53316   1.899  10.164   3.459 -0.4481 -0.2467  1.3353
  395MOL0     H53317   1.998   9.876   3.432  2.3118 -0.2873 -0.8577
  395MOL0     H53318   2.095  10.017   3.476  0.3411 -0.4879  1.2079
  395MOL0     H53319   2.128   9.995   3.229  0.7567 -1.1533  3.6042
  395MOL0     H53320   2.005  10.126   3.248 -0.7536 -0.2795 -0.5961
  395MOL0     H53321   1.835  10.003   3.165  1.2727  2.9978 -2.2034
  395MOL0     H53322   1.923   9.842   3.197 -1.1893  0.5173  0.6885
  395MOL0     H53323   2.021   9.969   2.805 -0.9898 -0.1514  0.8746
  395MOL0     H53324   1.744  10.220   3.743  0.2746 -0.0851  1.2228
  395MOL0     H53325   1.529  10.195   3.844 -1.7918 -1.3611  0.3112
  396MOL0     O53326   0.746  10.214   1.951 -0.0959  0.0472 -0.1050
  396MOL0     C53327   0.778  10.288   1.861  0.3755 -0.2619 -0.0641
  396MOL0     O53328   0.696  10.338   1.758  0.2026 -0.3246  0.7693
  396MOL0     C53329   0.571  10.276   1.745 -0.7564 -0.7689  1.0378
  396MOL0     C53330   0.548  10.185   1.642  0.1444  0.1191  0.0555
  396MOL0     C53331   0.416  10.137   1.632 -0.9267  0.6113  0.3070
  396MOL0     C53332   0.319  10.163   1.722  0.2178 -0.2458 -0.7369
  396MOL0     O53333   0.198  10.098   1.704 -0.8156 -0.0275 -0.1281
  396MOL0     C53334   0.136  10.117   1.576 -0.6925 -0.9588  0.0948
  396MOL0     C53335  -0.008  10.060   1.580 -0.6495 -0.9494  0.4252
  396MOL0     C53336  -0.091  10.102   1.455  0.4505  0.0935 -0.5092
  396MOL0     C53337  -0.211  10.013   1.439 -0.1427  0.1613  0.2201
  396MOL0     C53338  -0.282  10.022   1.300  0.7459 -0.2731 -0.7309
  396MOL0     C53339  -0.416   9.948   1.308  0.0596 -0.1448 -0.2909
  396MOL0     C53340  -0.514   9.983   1.199 -0.5960  0.2382  0.0255
  396MOL0     C53341  -0.507   9.879   1.090 -0.2936  0.8358  0.1132
  396MOL0     N53342  -0.379   9.877   1.023 -0.1019  0.3562 -0.2703
  396MOL0     C53343  -0.317   9.984   0.970  0.1478 -0.0522  0.6559
  396MOL0     C53344  -0.181   9.950   0.966 -0.6166 -1.4159 -0.4577
  396MOL0     C53345  -0.071  10.038   0.932 -0.7563  0.7258 -0.6775
  396MOL0     C53346  -0.020  10.111   1.057 -0.2973 -0.3524 -0.0787
  396MOL0     C53347   0.081  10.219   1.015 -0.5478  0.1104  0.9327
  396MOL0     C53348   0.151  10.283   1.134 -0.6355 -0.3485  0.8433
  396MOL0     O53349   0.058  10.353   1.210 -0.1006 -0.4289 -0.1768
  396MOL0     C53350   0.004  10.474   1.165 -1.6241  1.2074 -0.3183
  396MOL0     C53351   0.037  10.542   1.045  0.1173 -0.0689  0.1601
  396MOL0     C53352  -0.027  10.665   1.004 -0.2606  0.5710  0.3026
  396MOL0     C53353   0.009  10.718   0.870  0.6131 -0.2014  0.4842
  396MOL0     C53354  -0.119  10.723   1.095 -0.8965  0.2281 -0.4914
  396MOL0     C53355  -0.210  10.837   1.060 -1.1636  0.1555 -0.6169
  396MOL0     O53356  -0.258  10.922   1.155 -0.3589 -0.0075  0.3284
  396MOL0     C53357  -0.349  11.017   1.116 -0.0578  0.9263  0.4699
  396MOL0     C53358  -0.307  11.144   1.129 -0.6159 -0.0170  0.2808
  396MOL0     C53359  -0.385  11.250   1.085  0.0507  0.0872  0.6244
  396MOL0     C53360  -0.500  11.227   1.009  0.0059  0.0420 -0.4446
  396MOL0     O53361  -0.562  11.340   0.969 -0.2102 -0.0610  1.0095
  396MOL0     C53362  -0.694  11.339   0.905 -0.0945 -0.0235  0.0821
  396MOL0     C53363  -0.801  11.369   1.016 -0.3243  0.0000 -0.2423
  396MOL0     C53364  -0.932  11.398   0.926 -1.0377  1.0816  0.3142
  396MOL0     C53365  -1.052  11.384   1.015  0.9931 -0.1821 -0.6785
  396MOL0     C53366  -1.183  11.425   0.946  0.0380  0.0287  0.6558
  396MOL0     C53367  -1.302  11.387   1.040  0.6214  0.1656  0.6953
  396MOL0     C53368  -1.437  11.419   0.964 -0.7661 -0.4861 -0.5444
  396MOL0     C53369  -1.502  11.546   1.036  0.6766 -0.2949  0.0788
  396MOL0    Cl53370  -1.668  11.568   0.974 -0.0170  0.4864 -0.1332
  396MOL0     C53371  -0.548  11.093   0.991  1.1537 -0.0405  0.2830
  396MOL0     C53372  -0.473  10.988   1.050  0.1629  0.4351 -0.2061
  396MOL0     O53373  -0.232  10.843   0.939 -0.0446  0.3422 -0.3931
  396MOL0     C53374  -0.146  10.663   1.216  0.2472  0.9454 -0.4135
  396MOL0     C53375  -0.089  10.543   1.247 -0.1006  0.2309 -0.3529
  396MOL0     N53376  -0.168   9.817   1.007 -0.3906 -0.5974 -0.2596
  396MOL0     N53377  -0.285   9.773   1.046  0.3386  0.5230  0.2464
  396MOL0     C53378   0.341  10.248   1.829  0.2602 -0.2143  0.8795
  396MOL0     C53379   0.471  10.295   1.839  0.0899 -0.1263  0.3839
  396MOL0     C53380   0.923  10.316   1.851  0.1056  0.4406  0.5037
  396MOL0     C53381   1.008  10.259   1.942  0.8339  0.5939 -0.4295
  396MOL0     C53382   1.146  10.264   1.924  0.3726 -0.3822 -0.7437
  396MOL0     C53383   1.202  10.323   1.817 -0.7903  0.1287 -0.2939
  396MOL0     O53384   1.342  10.317   1.808  0.0909  0.2415 -0.2080
  396MOL0     C53385   1.409  10.395   1.710  0.9111 -0.6689  0.0681
  396MOL0     C53386   1.399  10.547   1.752 -0.1032  0.6393  0.7315
  396MOL0     C53387   1.490  10.636   1.661  0.4701  0.1232 -1.1987
  396MOL0     C53388   1.452  10.782   1.671 -0.0765  0.3126 -0.3526
  396MOL0     C53389   1.550  10.853   1.593 -1.0323 -0.3284  0.0249
  396MOL0     C53390   1.633  10.915   1.526 -0.3594 -0.6464  0.0371
  396MOL0     C53391   1.118  10.392   1.730  0.2776  0.0147  0.6960
  396MOL0     C53392   0.975  10.390   1.745 -0.4790 -0.3360  1.4380
  396MOL0     H53393   0.602  10.175   1.549 -1.5487 -0.1715 -0.9410
  396MOL0     H53394   0.393  10.071   1.550 -1.0175  1.1997 -0.1472
  396MOL0     H53395   0.140  10.224   1.554  0.3458 -1.0950 -0.3977
  396MOL0     H53396   0.180  10.058   1.495  1.5326  2.5358 -1.4441
  396MOL0     H53397  -0.003   9.950   1.580  1.9364 -0.9002  1.5765
  396MOL0     H53398  -0.044  10.100   1.675  0.2490  1.6553 -0.2620
  396MOL0     H53399  -0.112  10.209   1.461  0.2105 -0.0522  2.1678
  396MOL0     H53400  -0.025  10.094   1.368  0.7526  0.3331 -0.3046
  396MOL0     H53401  -0.176   9.910   1.446  2.6749  1.1192  2.4023
  396MOL0     H53402  -0.286  10.038   1.514 -1.4966 -3.2516  0.1790
  396MOL0     H53403  -0.309  10.124   1.274 -1.4683 -0.3108  1.1242
  396MOL0     H53404  -0.217   9.967   1.230  2.0741 -1.5999  1.4364
  396MOL0     H53405  -0.393   9.841   1.310  2.2638  0.2951  0.9602
  396MOL0     H53406  -0.467   9.975   1.401  0.9063  2.5186 -0.5049
  396MOL0     H53407  -0.618   9.978   1.234  0.0343 -2.4872  1.8082
  396MOL0     H53408  -0.482  10.077   1.152  1.2103 -0.9015 -1.1356
  396MOL0     H53409  -0.583   9.895   1.013 -0.5635 -0.5597  0.0612
  396MOL0     H53410  -0.532   9.780   1.130  1.7520 -1.3485 -3.5182
  396MOL0     H53411  -0.369  10.075   0.942  3.4356  1.6397 -0.4046
  396MOL0     H53412   0.010   9.987   0.879  1.7265  1.2484  2.3059
  396MOL0     H53413  -0.116  10.108   0.861  0.1497  1.3027 -0.6870
  396MOL0     H53414   0.034  10.048   1.129 -1.4155 -0.0831  1.0286
  396MOL0     H53415  -0.104  10.157   1.109  0.0458  1.5208 -1.0704
  396MOL0     H53416   0.027  10.287   0.948 -1.7575 -0.9408  0.7760
  396MOL0     H53417   0.159  10.176   0.951  1.1290  5.0413 -0.8186
  396MOL0     H53418   0.240  10.343   1.111 -0.2335 -1.3455 -0.3569
  396MOL0     H53419   0.184  10.197   1.195 -2.5453 -2.4113 -0.8683
  396MOL0     H53420   0.114  10.512   0.975 -0.1176  1.8178 -0.9687
  396MOL0     H53421  -0.069  10.716   0.794  0.2477 -0.9398  0.8680
  396MOL0     H53422   0.038  10.824   0.872  0.4433 -0.0766 -1.7706
  396MOL0     H53423   0.101  10.667   0.840  0.6271 -0.5605  1.1101
  396MOL0     H53424  -0.206  11.163   1.163 -0.5117  3.5253 -1.5388
  396MOL0     H53425  -0.349  11.353   1.092  0.9079 -0.2235  0.8346
  396MOL0     H53426  -0.697  11.410   0.822  3.2845 -1.1011 -1.0912
  396MOL0     H53427  -0.713  11.245   0.854 -0.2367 -0.0522  0.1876
  396MOL0     H53428  -0.818  11.288   1.087 -3.8191 -0.6497 -1.6523
  396MOL0     H53429  -0.784  11.461   1.072 -2.2177 -1.3128  2.7040
  396MOL0     H53430  -0.943  11.329   0.841 -1.4761  0.7844  0.6063
  396MOL0     H53431  -0.920  11.498   0.885 -0.1332  0.7896 -0.1697
  396MOL0     H53432  -1.051  11.277   1.039  0.1963  0.1703  1.0618
  396MOL0     H53433  -1.041  11.439   1.109 -2.0803 -0.7054  0.1015
  396MOL0     H53434  -1.202  11.377   0.849  1.3089 -0.0803  0.4324
  396MOL0     H53435  -1.172  11.530   0.919  1.3590 -1.3007 -5.6354
  396MOL0     H53436  -1.301  11.282   1.071 -0.5040 -0.4509 -1.1862
  396MOL0     H53437  -1.284  11.439   1.134  3.7377  0.3278  0.1077
  396MOL0     H53438  -1.511  11.338   0.968 -2.6425  1.1746  0.0258
  396MOL0     H53439  -1.422  11.440   0.857 -2.9853 -1.4773 -1.1044
  396MOL0     H53440  -1.434  11.630   1.022  1.6487 -1.0781  0.0185
  396MOL0     H53441  -1.515  11.521   1.142 -1.2107  0.5644  0.0958
  396MOL0     H53442  -0.638  11.066   0.937 -0.0791  0.1264  2.1830
  396MOL0     H53443  -0.511  10.889   1.028 -0.7952  0.9773 -1.1610
  396MOL0     H53444  -0.211  10.709   1.289 -0.2864 -1.4546  0.7261
  396MOL0     H53445  -0.113  10.495   1.341 -1.2708  1.2831 -0.0946
  396MOL0     H53446   0.269  10.267   1.907  0.7288  0.8435  1.0725
  396MOL0     H53447   0.492  10.363   1.921 -0.5430  0.1810  0.2991
  396MOL0     H53448   0.971  10.206   2.029  0.6154 -2.0285 -1.9886
  396MOL0     H53449   1.206  10.203   1.991  2.7685 -0.0640 -2.4671
  396MOL0     H53450   1.512  10.357   1.713  1.3548  0.4315 -0.7915
  396MOL0     H53451   1.369  10.384   1.609 -0.4252  1.4403  0.3047
  396MOL0     H53452   1.431  10.562   1.856 -2.4016 -1.2911  1.8009
  396MOL0     H53453   1.301  10.594   1.745 -0.2123  0.3089  0.0122
  396MOL0     H53454   1.487  10.601   1.557  0.9884  0.9310 -1.4974
  396MOL0     H53455   1.591  10.630   1.703  0.6673  1.1684 -1.4795
  396MOL0     H53456   1.450  10.812   1.776 -0.2091  2.6075 -0.9515
  396MOL0     H53457   1.356  10.801   1.623  0.5189  0.0438 -1.6959
  396MOL0     H53458   1.709  10.956   1.463  0.1194 -2.1121 -0.3837
  396MOL0     H53459   1.150  10.449   1.643 -2.6878  1.9105  0.7284
  396MOL0     H53460   0.908  10.445   1.680  0.8698  0.0940  0.3682
  397MOL0     O53461   0.694   8.369   9.682  0.2741  0.1038  0.3842
  397MOL0     C53462   0.713   8.454   9.767 -0.0491  0.7116 -0.0252
  397MOL0     O53463   0.625   8.507   9.853 -1.2147  0.4139 -0.6085
  397MOL0     C53464   0.492   8.492   9.838  0.5615 -0.4249  0.2519
  397MOL0     C53465   0.413   8.604   9.834 -0.2488 -1.1796 -1.0763
  397MOL0     C53466   0.269   8.610   9.824 -0.5183  0.0589  0.3063
  397MOL0     C53467   0.207   8.487   9.821  0.4424 -0.4672 -1.2640
  397MOL0     O53468   0.068   8.488   9.822  0.3404 -0.0203 -0.6154
  397MOL0     C53469   0.001   8.363   9.826 -0.3877  0.5493 -0.1788
  397MOL0     C53470  -0.153   8.386   9.815 -0.3282  0.1760  0.4540
  397MOL0     C53471  -0.198   8.404   9.665  0.1578  0.3317 -0.3389
  397MOL0     C53472  -0.348   8.396   9.660 -0.9065  0.1317  0.0811
  397MOL0     C53473  -0.409   8.433   9.526 -0.8155 -0.2999 -0.0091
  397MOL0     C53474  -0.356   8.336   9.418  1.5392 -0.7400 -0.0620
  397MOL0     C53475  -0.459   8.296   9.308 -0.2772 -0.3500 -0.3913
  397MOL0     C53476  -0.482   8.401   9.205 -0.6743 -0.3786 -0.6265
  397MOL0     N53477  -0.555   8.357   9.087  0.0574 -0.0070 -0.5557
  397MOL0     C53478  -0.693   8.340   9.076  0.6470 -0.1168  0.5806
  397MOL0     C53479  -0.709   8.319   8.947  0.1392 -0.0536  0.5466
  397MOL0     C53480  -0.842   8.322   8.876 -0.1097  0.1791  0.1166
  397MOL0     C53481  -0.892   8.461   8.835  0.4680  0.2159 -0.5390
  397MOL0     C53482  -1.042   8.464   8.810 -0.1087 -0.2750  0.4375
  397MOL0     C53483  -1.074   8.376   8.682  0.2585  0.0909  0.4035
  397MOL0     O53484  -1.190   8.434   8.611  0.5149 -0.1898  0.1613
  397MOL0     C53485  -1.318   8.420   8.658 -1.0370 -0.1884  1.0475
  397MOL0     C53486  -1.416   8.488   8.591 -0.0487  0.1671 -0.1155
  397MOL0     C53487  -1.547   8.493   8.629  0.2857 -0.6712 -0.4069
  397MOL0     C53488  -1.640   8.578   8.533  0.1692  0.0540 -1.0788
  397MOL0     C53489  -1.596   8.426   8.741 -0.0905 -0.4488 -0.1385
  397MOL0     C53490  -1.736   8.437   8.796  0.1983  0.6583  0.5891
  397MOL0     O53491  -1.760   8.351   8.897  0.5778  0.3878 -0.3468
  397MOL0     C53492  -1.881   8.341   8.952 -0.7857 -1.0164 -0.3977
  397MOL0     C53493  -1.923   8.212   8.977 -0.0957 -0.0601  0.9831
  397MOL0     C53494  -2.047   8.194   9.046 -1.0906 -0.3964  0.2856
  397MOL0     C53495  -2.117   8.304   9.096 -0.3802  0.5321 -0.4507
  397MOL0     O53496  -2.220   8.286   9.179  0.1940  0.3729 -0.3483
  397MOL0     C53497  -2.285   8.388   9.247 -0.7123 -0.6901 -0.6655
  397MOL0     C53498  -2.408   8.353   9.329 -0.8538 -0.8285  0.1276
  397MOL0     C53499  -2.518   8.291   9.233 -0.1189  0.3793 -0.3055
  397MOL0     C53500  -2.649   8.299   9.302 -0.4818  0.0058 -0.6636
  397MOL0     C53501  -2.744   8.204   9.227  0.1765 -0.2954  0.9030
  397MOL0     C53502  -2.872   8.183   9.295 -0.0511  0.4479 -0.7534
  397MOL0     C53503  -2.977   8.119   9.202  0.0973 -0.1919 -0.2173
  397MOL0     C53504  -3.092   8.048   9.280  0.2376 -0.1735 -0.5925
  397MOL0    Cl53505  -3.199   8.180   9.353 -0.1404 -0.3166  0.0690
  397MOL0     C53506  -2.084   8.434   9.054  0.2457 -0.5038 -0.3971
  397MOL0     C53507  -1.965   8.451   8.985 -0.1197 -0.2496  0.1225
  397MOL0     O53508  -1.817   8.519   8.752 -0.0106  0.1831 -0.1872
  397MOL0     C53509  -1.500   8.351   8.819 -0.9712 -0.5338 -0.2103
  397MOL0     C53510  -1.364   8.346   8.774 -0.7497 -0.2258  0.5445
  397MOL0     N53511  -0.587   8.302   8.885  0.3561 -0.2876  0.0814
  397MOL0     N53512  -0.498   8.340   8.967  0.5028  0.0370 -0.1063
  397MOL0     C53513   0.280   8.366   9.816  0.1233 -1.0153  0.0117
  397MOL0     C53514   0.426   8.371   9.827  0.1845 -0.6495  0.6281
  397MOL0     C53515   0.849   8.493   9.795 -0.4349 -0.3238  0.6590
  397MOL0     C53516   0.948   8.419   9.729  0.7043 -0.8984  0.3277
  397MOL0     C53517   1.083   8.458   9.740  0.6269 -0.4908 -0.7487
  397MOL0     C53518   1.116   8.555   9.837 -0.4711 -1.1808 -0.0120
  397MOL0     O53519   1.249   8.589   9.876  0.0142 -0.1735 -0.1848
  397MOL0     C53520   1.356   8.568   9.784 -0.2504 -0.0892 -0.1118
  397MOL0     C53521   1.467   8.667   9.820 -0.3957  0.0545 -0.4906
  397MOL0     C53522   1.440   8.813   9.786  0.2056 -1.0977 -0.1325
  397MOL0     C53523   1.528   8.922   9.861  0.3625 -0.6629 -0.2018
  397MOL0     C53524   1.672   8.892   9.826  0.3766 -1.0269 -0.6362
  397MOL0     C53525   1.790   8.888   9.797 -0.0334 -1.1040  0.0527
  397MOL0     C53526   1.023   8.619   9.909  0.1693 -0.0392  0.2369
  397MOL0     C53527   0.888   8.599   9.873  0.8395  1.1094 -0.1730
  397MOL0     H53528   0.469   8.696   9.827 -2.4830  0.3887  0.2509
  397MOL0     H53529   0.205   8.697   9.827  1.1982  1.7264 -3.6923
  397MOL0     H53530   0.036   8.310   9.737 -0.9856  2.0190 -1.3228
  397MOL0     H53531   0.021   8.305   9.917 -1.2475 -0.2244 -0.4616
  397MOL0     H53532  -0.192   8.287   9.843  0.2244  0.1536  1.1420
  397MOL0     H53533  -0.185   8.464   9.884  0.7173 -0.0755  1.2352
  397MOL0     H53534  -0.155   8.499   9.630 -2.4558  1.9503  0.5458
  397MOL0     H53535  -0.158   8.327   9.599  1.1656  1.6767 -1.3726
  397MOL0     H53536  -0.376   8.292   9.677 -1.3518  0.2270 -0.0707
  397MOL0     H53537  -0.385   8.453   9.745 -2.8936  0.0954 -0.7140
  397MOL0     H53538  -0.519   8.435   9.526 -1.0855 -1.8902 -4.6001
  397MOL0     H53539  -0.382   8.537   9.503 -1.0427 -0.2406 -0.0144
  397MOL0     H53540  -0.274   8.385   9.364 -0.9917  0.2705 -3.3155
  397MOL0     H53541  -0.334   8.238   9.461 -0.9055 -1.0755  0.5778
  397MOL0     H53542  -0.411   8.209   9.263  0.5073  0.3001 -0.8491
  397MOL0     H53543  -0.554   8.267   9.353 -1.1517  1.3902 -1.0036
  397MOL0     H53544  -0.389   8.447   9.172 -0.8620 -0.4936 -1.3371
  397MOL0     H53545  -0.538   8.480   9.257  0.4562 -2.0849  3.6542
  397MOL0     H53546  -0.778   8.363   9.140  1.4906  1.3243  1.2370
  397MOL0     H53547  -0.834   8.252   8.791 -0.5195 -0.0926  0.3001
  397MOL0     H53548  -0.916   8.273   8.940  0.9145 -1.5285  0.0786
  397MOL0     H53549  -0.831   8.483   8.747  0.0139  1.2147 -0.6080
  397MOL0     H53550  -0.866   8.533   8.913 -1.8903 -1.8010  2.3557
  397MOL0     H53551  -1.068   8.569   8.794 -0.2666 -0.5077 -0.9671
  397MOL0     H53552  -1.097   8.440   8.901 -0.5904  3.3386  1.2323
  397MOL0     H53553  -1.100   8.274   8.712 -0.3762  0.7368  2.2207
  397MOL0     H53554  -0.991   8.368   8.611  1.0992 -0.6374  1.4383
  397MOL0     H53555  -1.381   8.530   8.498  0.7458 -2.0554 -0.9064
  397MOL0     H53556  -1.585   8.646   8.467  0.1705  0.6516 -0.4657
  397MOL0     H53557  -1.704   8.504   8.484 -2.3632  2.6805 -2.0637
  397MOL0     H53558  -1.698   8.649   8.592  2.2045  0.9975 -0.0912
  397MOL0     H53559  -1.869   8.124   8.942  0.7458  0.8479 -0.0825
  397MOL0     H53560  -2.074   8.093   9.076 -0.7502 -0.9829 -1.2648
  397MOL0     H53561  -2.207   8.422   9.315 -1.2821  0.1141 -0.3994
  397MOL0     H53562  -2.314   8.473   9.184 -0.8486 -1.8664 -2.2557
  397MOL0     H53563  -2.377   8.289   9.412 -0.0109 -1.0568 -0.3423
  397MOL0     H53564  -2.449   8.446   9.369 -0.1870 -0.7114  0.5635
  397MOL0     H53565  -2.495   8.186   9.212 -2.2536  0.1486 -1.7451
  397MOL0     H53566  -2.524   8.351   9.141  2.1095  1.1154 -0.0275
  397MOL0     H53567  -2.647   8.276   9.409 -0.9577  1.1835 -0.3828
  397MOL0     H53568  -2.696   8.398   9.303  0.2884  0.4182  1.8223
  397MOL0     H53569  -2.704   8.104   9.209 -0.3899 -0.2669 -0.6455
  397MOL0     H53570  -2.755   8.256   9.132  2.1643  0.0957  0.8297
  397MOL0     H53571  -2.848   8.120   9.381 -1.4203  1.9465  0.8027
  397MOL0     H53572  -2.910   8.275   9.341  1.0414  0.4312  0.2158
  397MOL0     H53573  -2.935   8.051   9.127 -3.7731  0.1487 -3.0456
  397MOL0     H53574  -3.022   8.202   9.145  1.3815  2.0544  1.8653
  397MOL0     H53575  -3.054   7.990   9.365  0.4665  2.1265  0.9730
  397MOL0     H53576  -3.155   7.991   9.212 -0.6690 -0.6822  0.6257
  397MOL0     H53577  -2.130   8.527   9.084  3.4557  1.6079 -1.5404
  397MOL0     H53578  -1.915   8.546   8.975  2.7129 -1.7229 -0.9357
  397MOL0     H53579  -1.529   8.307   8.914 -0.0220  1.3077  1.0006
  397MOL0     H53580  -1.293   8.290   8.833 -0.8220 -0.7027  0.1800
  397MOL0     H53581   0.245   8.264   9.815  2.2429 -1.8659  2.1955
  397MOL0     H53582   0.483   8.279   9.830  1.9339  0.0923 -3.2378
  397MOL0     H53583   0.924   8.335   9.665 -3.1569  1.2883 -1.4316
  397MOL0     H53584   1.148   8.397   9.679  1.2679 -1.7738  1.1188
  397MOL0     H53585   1.393   8.466   9.791 -0.3675 -0.1285 -0.0408
  397MOL0     H53586   1.330   8.590   9.680 -3.8555  1.6512  0.9559
  397MOL0     H53587   1.557   8.641   9.763  0.4572  1.8107 -0.0174
  397MOL0     H53588   1.495   8.643   9.923 -1.0223 -1.9492 -0.7419
  397MOL0     H53589   1.335   8.826   9.813 -0.1086 -2.7622 -0.4468
  397MOL0     H53590   1.446   8.830   9.679 -1.8573  2.2184  0.1372
  397MOL0     H53591   1.519   8.925   9.970  0.6617 -1.4971 -0.1468
  397MOL0     H53592   1.496   9.019   9.821 -0.3946 -0.0964  1.6285
  397MOL0     H53593   1.894   8.888   9.773 -0.1604 -0.7237 -0.5147
  397MOL0     H53594   1.050   8.698   9.979 -1.9645 -2.0837  3.7176
  397MOL0     H53595   0.812   8.667   9.908 -0.4334  0.9949 -2.4987
  398MOL0     O53596   3.176   8.529   5.345  0.1679 -0.4482  0.1135
  398MOL0     C53597   3.202   8.409   5.350  1.1700 -0.0488  0.6303
  398MOL0     O53598   3.119   8.318   5.414 -0.1006  0.2881  0.1129
  398MOL0     C53599   3.022   8.361   5.500  0.0017 -0.3141 -0.6157
  398MOL0     C53600   2.916   8.272   5.508  0.0781 -0.0962 -1.3804
  398MOL0     C53601   2.801   8.306   5.594 -0.5182  0.2093  0.6501
  398MOL0     C53602   2.809   8.415   5.679  0.1897  0.3563 -0.2638
  398MOL0     O53603   2.706   8.427   5.769 -0.6562  0.0677 -0.7935
  398MOL0     C53604   2.617   8.542   5.738 -0.0246 -0.3953 -1.4948
  398MOL0     C53605   2.508   8.512   5.637  0.1636 -0.5903 -0.0350
  398MOL0     C53606   2.418   8.402   5.695 -0.0148 -0.1248 -0.3107
  398MOL0     C53607   2.281   8.392   5.619 -0.9271  0.4114 -0.1389
  398MOL0     C53608   2.235   8.245   5.617  0.1568  0.0764  1.1176
  398MOL0     C53609   2.105   8.237   5.531  0.0292  0.2763 -0.8035
  398MOL0     C53610   2.067   8.086   5.514  0.3613 -0.1453  0.4182
  398MOL0     C53611   1.935   8.085   5.442  0.0987  0.1058  0.2001
  398MOL0     N53612   1.861   7.949   5.443  0.2962 -0.4530  0.4503
  398MOL0     C53613   1.836   7.868   5.337 -0.7303 -0.3987 -0.1164
  398MOL0     C53614   1.772   7.762   5.379 -0.0306  0.2558  0.0618
  398MOL0     C53615   1.691   7.681   5.280 -0.1730 -0.5093  0.3870
  398MOL0     C53616   1.567   7.759   5.220 -0.2421  0.3535  0.7769
  398MOL0     C53617   1.477   7.838   5.317 -0.4015 -0.3174 -0.8507
  398MOL0     C53618   1.432   7.752   5.436 -0.1471 -0.4222 -0.3127
  398MOL0     O53619   1.352   7.830   5.518  0.1372  0.2213  0.2697
  398MOL0     C53620   1.214   7.828   5.488  1.2384  0.2256 -0.1341
  398MOL0     C53621   1.150   7.770   5.372 -1.3369  0.0657  0.2094
  398MOL0     C53622   1.011   7.766   5.370 -0.0260  0.6479  1.2273
  398MOL0     C53623   0.948   7.721   5.237 -0.6319 -0.2223  0.6896
  398MOL0     C53624   0.928   7.816   5.475  0.0962 -0.1208 -0.0856
  398MOL0     C53625   0.780   7.830   5.470 -0.2380 -0.3338  0.1889
  398MOL0     O53626   0.720   7.931   5.532  0.0669  0.1607  0.3632
  398MOL0     C53627   0.610   7.978   5.476 -0.3506 -0.0620 -0.9119
  398MOL0     C53628   0.513   8.035   5.568  0.3662  0.1649  0.0096
  398MOL0     C53629   0.397   8.097   5.517  0.7944  0.2065 -0.8090
  398MOL0     C53630   0.379   8.108   5.375  0.1774  0.1598  0.4674
  398MOL0     O53631   0.276   8.176   5.315  0.7353  0.0712 -0.1204
  398MOL0     C53632   0.175   8.232   5.403 -0.0094  0.1759  1.2164
  398MOL0     C53633   0.053   8.267   5.323  0.3179  0.6452 -0.0196
  398MOL0     C53634  -0.039   8.356   5.397  0.6706  0.4876 -0.1361
  398MOL0     C53635  -0.157   8.394   5.309 -0.2489 -0.6931 -0.3499
  398MOL0     C53636  -0.247   8.271   5.289  0.7604  0.1737 -0.8527
  398MOL0     C53637  -0.327   8.278   5.165 -0.4122 -0.5070  1.0712
  398MOL0     C53638  -0.420   8.152   5.146 -0.5500  0.1813  0.2555
  398MOL0     C53639  -0.542   8.181   5.062 -0.4779  0.2945 -0.3478
  398MOL0    Cl53640  -0.667   8.284   5.144 -0.0443 -0.2004  0.1760
  398MOL0     C53641   0.482   8.068   5.288  0.6837  0.1083  0.0516
  398MOL0     C53642   0.593   7.998   5.338 -0.1232  0.0089 -0.6583
  398MOL0     O53643   0.713   7.744   5.408 -0.2743  0.6509 -0.2485
  398MOL0     C53644   0.996   7.868   5.590  0.0646 -0.3655 -0.0902
  398MOL0     C53645   1.140   7.869   5.594 -0.1703  0.1459 -0.8429
  398MOL0     N53646   1.784   7.765   5.523 -0.2058 -0.3459 -0.5698
  398MOL0     N53647   1.824   7.881   5.556 -0.0663  0.0204 -0.4382
  398MOL0     C53648   2.925   8.499   5.678  0.4090 -0.1297 -0.8275
  398MOL0     C53649   3.026   8.479   5.581  0.4709  0.0557 -0.2617
  398MOL0     C53650   3.301   8.343   5.260  0.7000  0.4580 -0.0760
  398MOL0     C53651   3.290   8.207   5.220  0.3201  0.1495 -0.0356
  398MOL0     C53652   3.384   8.148   5.136  0.0966 -1.1263  0.4907
  398MOL0     C53653   3.485   8.225   5.078 -0.0302 -0.6211 -0.3270
  398MOL0     O53654   3.590   8.172   5.012  0.3084 -0.4847  0.5032
  398MOL0     C53655   3.592   8.030   4.989  0.4526 -0.3392 -0.1718
  398MOL0     C53656   3.709   8.008   4.889 -0.3155 -0.2674 -0.4873
  398MOL0     C53657   3.684   8.039   4.742  0.4455 -0.5437  0.0563
  398MOL0     C53658   3.804   8.089   4.663  0.3393 -0.2784 -0.5483
  398MOL0     C53659   3.908   7.985   4.649 -0.2527  0.3154  0.1951
  398MOL0     C53660   3.981   7.891   4.648  0.6624 -0.0220  0.0943
  398MOL0     C53661   3.476   8.368   5.090 -0.0293 -0.0810 -0.5793
  398MOL0     C53662   3.389   8.426   5.182  0.6833 -1.2923  0.2353
  398MOL0     H53663   2.920   8.188   5.439  0.4852  0.6140 -2.2393
  398MOL0     H53664   2.712   8.244   5.586 -0.6857  0.4106  0.9327
  398MOL0     H53665   2.579   8.573   5.836  0.7944 -1.4637 -0.8034
  398MOL0     H53666   2.678   8.624   5.699  1.0948 -0.7118 -0.4898
  398MOL0     H53667   2.446   8.600   5.620  0.3595 -0.3280  0.5580
  398MOL0     H53668   2.542   8.478   5.539 -1.6935 -2.6057 -0.0579
  398MOL0     H53669   2.471   8.307   5.690 -0.8689 -0.5782 -0.9923
  398MOL0     H53670   2.406   8.417   5.803  1.3048 -1.0443 -0.0171
  398MOL0     H53671   2.199   8.444   5.668 -2.9557 -1.1593 -1.7059
  398MOL0     H53672   2.305   8.418   5.515 -0.9213 -3.4944 -1.3088
  398MOL0     H53673   2.305   8.181   5.561 -0.1897 -0.4474  1.2688
  398MOL0     H53674   2.229   8.208   5.720  0.6521 -1.8052  0.5185
  398MOL0     H53675   2.023   8.284   5.586  0.3504  0.8786 -0.8399
  398MOL0     H53676   2.110   8.289   5.435  2.8825  3.4822  0.8945
  398MOL0     H53677   2.135   8.028   5.450  0.8458  0.6884  0.1642
  398MOL0     H53678   2.062   8.028   5.607 -0.1679  1.3134  1.3259
  398MOL0     H53679   1.944   8.130   5.342  0.3470  1.1738  0.6898
  398MOL0     H53680   1.868   8.143   5.506 -1.5348  1.1994 -2.3456
  398MOL0     H53681   1.854   7.896   5.233 -2.4804  1.6095  0.0524
  398MOL0     H53682   1.760   7.651   5.200 -0.4726  0.8080 -0.4171
  398MOL0     H53683   1.664   7.586   5.327  1.1912 -2.1124 -1.8677
  398MOL0     H53684   1.502   7.691   5.163 -0.7257  2.2349 -1.0407
  398MOL0     H53685   1.594   7.829   5.140 -2.4590 -0.7151 -1.0471
  398MOL0     H53686   1.393   7.889   5.271 -0.1533  1.7178  0.7733
  398MOL0     H53687   1.535   7.918   5.364 -2.6752  0.5595  0.6458
  398MOL0     H53688   1.523   7.720   5.488 -0.0046 -1.0896 -0.9383
  398MOL0     H53689   1.379   7.662   5.404 -0.2863  0.1539 -1.7875
  398MOL0     H53690   1.201   7.733   5.283 -2.1779 -1.0792  0.1660
  398MOL0     H53691   0.880   7.802   5.209 -2.5597 -1.1269  2.4671
  398MOL0     H53692   1.023   7.712   5.158 -2.5500  3.2560 -1.7812
  398MOL0     H53693   0.904   7.623   5.260 -2.0096  0.3011  0.3820
  398MOL0     H53694   0.528   8.023   5.675 -1.3531  0.9807  0.3603
  398MOL0     H53695   0.323   8.143   5.582 -1.0926 -2.9456 -0.5363
  398MOL0     H53696   0.141   8.159   5.477 -0.4075  0.4368  1.2939
  398MOL0     H53697   0.211   8.322   5.454  1.0701  0.8074 -0.5696
  398MOL0     H53698   0.091   8.329   5.241  1.9540  1.7976  1.5237
  398MOL0     H53699  -0.003   8.181   5.285 -0.1260  1.5605 -1.5360
  398MOL0     H53700   0.017   8.450   5.408  1.2046  0.1573  0.0088
  398MOL0     H53701  -0.071   8.309   5.490  2.9572 -0.2756  0.3363
  398MOL0     H53702  -0.212   8.474   5.357 -0.6506 -0.5945 -0.9663
  398MOL0     H53703  -0.122   8.436   5.214  0.5047 -3.1177 -1.2270
  398MOL0     H53704  -0.327   8.268   5.364  0.1753  0.0592 -1.4651
  398MOL0     H53705  -0.197   8.174   5.284  1.5340  0.6439 -3.7119
  398MOL0     H53706  -0.395   8.364   5.163 -2.3413 -1.9531 -1.1016
  398MOL0     H53707  -0.266   8.294   5.076 -1.0246  0.6457  0.8436
  398MOL0     H53708  -0.448   8.106   5.241 -1.5537  0.0376 -0.1008
  398MOL0     H53709  -0.364   8.084   5.082 -2.1665  0.8738 -2.0127
  398MOL0     H53710  -0.584   8.082   5.041 -0.8224  0.0900  1.2394
  398MOL0     H53711  -0.515   8.230   4.968  2.0522  1.0261  0.6741
  398MOL0     H53712   0.478   8.087   5.181 -1.0897 -1.9094 -0.3081
  398MOL0     H53713   0.658   7.958   5.261 -1.0834 -1.0148 -0.9547
  398MOL0     H53714   0.931   7.891   5.673  0.2249 -1.7570  0.4556
  398MOL0     H53715   1.175   7.903   5.691 -2.7183  0.7149 -0.0421
  398MOL0     H53716   2.936   8.587   5.740 -2.6647  1.6331 -2.5132
  398MOL0     H53717   3.117   8.537   5.585 -0.1927  1.0872  0.6750
  398MOL0     H53718   3.209   8.148   5.263 -0.1923  0.0505 -1.1116
  398MOL0     H53719   3.382   8.040   5.135 -0.6646 -1.2024 -3.1850
  398MOL0     H53720   3.610   7.979   5.084  0.7884 -0.5599 -0.3497
  398MOL0     H53721   3.498   7.997   4.943  1.0599 -0.3910 -1.4125
  398MOL0     H53722   3.739   7.903   4.903 -2.5998 -0.7728  1.2686
  398MOL0     H53723   3.792   8.073   4.919 -0.7396 -1.0085  2.5892
  398MOL0     H53724   3.604   8.114   4.745 -0.9111 -1.9027 -0.5733
  398MOL0     H53725   3.638   7.951   4.696  1.0140 -1.6932  1.6303
  398MOL0     H53726   3.844   8.171   4.724 -0.0703  0.2637 -0.9933
  398MOL0     H53727   3.776   8.134   4.567 -0.7370 -1.2652 -0.7177
  398MOL0     H53728   4.045   7.807   4.660  1.2313  0.5840  1.4617
  398MOL0     H53729   3.552   8.420   5.033  0.1533 -0.7309 -0.9447
  398MOL0     H53730   3.383   8.534   5.191 -2.6268 -1.3871  0.3208
  399MOL0     O53731  10.419   3.972  10.724  0.5076  0.2929 -0.3175
  399MOL0     C53732  10.504   4.057  10.723 -0.6859  0.0119  0.1894
  399MOL0     O53733  10.546   4.136  10.822 -0.1203 -0.4701  0.6147
  399MOL0     C53734  10.508   4.106  10.945  0.2635 -0.6211  0.6148
  399MOL0     C53735  10.375   4.103  10.985  0.6266  0.3196  0.6007
  399MOL0     C53736  10.336   4.096  11.113 -0.3492  0.5092 -0.2163
  399MOL0     C53737  10.431   4.076  11.212 -0.5470 -0.4383  0.3141
  399MOL0     O53738  10.404   4.062  11.346  0.1973 -0.1391  0.4958
  399MOL0     C53739  10.270   4.095  11.397 -0.0635  0.3270  0.2902
  399MOL0     C53740  10.285   4.126  11.544  0.0554  0.1837  0.1513
  399MOL0     C53741  10.163   4.210  11.583  0.0912  0.4212 -0.2054
  399MOL0     C53742  10.057   4.127  11.658  1.0012  0.3540  0.8564
  399MOL0     C53743   9.945   4.228  11.699  0.9985  0.1892 -0.2083
  399MOL0     C53744   9.834   4.150  11.771  0.2828  0.3427 -0.3618
  399MOL0     C53745   9.734   4.091  11.671 -0.0277 -0.4904 -1.5801
  399MOL0     C53746   9.622   4.007  11.738  0.0923  0.0299  0.7796
  399MOL0     N53747   9.521   4.081  11.818  0.3985 -0.7679 -0.7182
  399MOL0     C53748   9.421   4.170  11.775 -0.3749  0.2271  0.7621
  399MOL0     C53749   9.347   4.209  11.880 -0.7697  0.2165  0.2151
  399MOL0     C53750   9.238   4.305  11.884  0.3301 -1.1503 -0.0480
  399MOL0     C53751   9.105   4.235  11.876  0.4181 -0.0893 -0.2675
  399MOL0     C53752   8.997   4.342  11.890  0.0104 -0.2396  0.5708
  399MOL0     C53753   8.857   4.293  11.916 -0.2907  0.1220 -0.2837
  399MOL0     O53754   8.773   4.407  11.927  0.0424 -0.1773 -0.7828
  399MOL0     C53755   8.639   4.395  11.966 -0.4300 -0.2377 -0.1463
  399MOL0     C53756   8.562   4.509  11.981 -0.9330 -0.6595  0.0150
  399MOL0     C53757   8.425   4.505  12.006 -0.4544  1.1320 -0.1315
  399MOL0     C53758   8.348   4.629  11.986  0.3275 -0.6657  0.2159
  399MOL0     C53759   8.374   4.373  12.033  0.2743 -0.4631  0.5683
  399MOL0     C53760   8.232   4.363  12.053 -0.6189  0.4140 -0.4609
  399MOL0     O53761   8.175   4.249  12.002  0.2125  0.7175  0.2100
  399MOL0     C53762   8.037   4.218  12.012 -1.2448 -0.1663 -0.5707
  399MOL0     C53763   7.998   4.082  12.013  0.6976 -0.4546 -0.5062
  399MOL0     C53764   7.863   4.050  12.028  0.2741  0.3480 -0.3195
  399MOL0     C53765   7.762   4.150  12.041  0.8711 -0.1881 -0.2970
  399MOL0     O53766   7.638   4.101  12.071  0.4305 -0.2059 -0.8263
  399MOL0     C53767   7.517   4.185  12.051  0.3182  0.1979  1.1709
  399MOL0     C53768   7.404   4.086  12.018  0.2271 -0.1252 -0.1173
  399MOL0     C53769   7.289   4.138  11.942 -0.4051 -0.4952 -0.9599
  399MOL0     C53770   7.166   4.044  11.950  0.7566  0.4050 -1.1705
  399MOL0     C53771   7.060   4.091  11.842 -0.4995  0.8134 -0.6223
  399MOL0     C53772   7.014   4.223  11.895  0.2656  0.4529  1.1439
  399MOL0     C53773   6.877   4.257  11.833 -1.0132  0.3568  0.0501
  399MOL0     C53774   6.763   4.246  11.939 -0.3856  0.4622  0.1792
  399MOL0    Cl53775   6.613   4.285  11.853  0.5733 -0.3756 -0.1693
  399MOL0     C53776   7.797   4.282  12.033  0.1412  0.9732 -0.1789
  399MOL0     C53777   7.933   4.314  12.024 -0.0148 -0.2917  1.5259
  399MOL0     O53778   8.169   4.444  12.118 -0.0886 -0.0539  0.4758
  399MOL0     C53779   8.454   4.262  12.019 -0.1824  0.0993  0.2205
  399MOL0     C53780   8.591   4.272  11.990  0.6979  0.2408  0.1929
  399MOL0     N53781   9.395   4.132  11.991  0.1965  0.1320  0.4836
  399MOL0     N53782   9.500   4.066  11.957  0.0930 -0.3098  0.2991
  399MOL0     C53783  10.569   4.059  11.176 -0.3378 -0.1062  0.4058
  399MOL0     C53784  10.609   4.090  11.044 -0.0332 -0.1224  0.0034
  399MOL0     C53785  10.576   4.065  10.592 -0.2511 -0.1559  0.0975
  399MOL0     C53786  10.693   4.151  10.586  0.3989  0.5439  0.3872
  399MOL0     C53787  10.748   4.164  10.452 -0.0065  0.3569 -0.1863
  399MOL0     C53788  10.702   4.105  10.339  0.0308 -0.4943  0.1033
  399MOL0     O53789  10.746   4.128  10.214  1.1661  0.1024 -0.2433
  399MOL0     C53790  10.884   4.170  10.197  0.4187 -0.2268 -0.6211
  399MOL0     C53791  10.901   4.248  10.074 -0.1383 -0.5213  1.0972
  399MOL0     C53792  10.847   4.393  10.093 -0.4829 -0.2904 -0.2461
  399MOL0     C53793  10.701   4.407  10.082  0.4530 -0.5469 -0.5059
  399MOL0     C53794  10.647   4.370   9.949 -0.1392 -0.0447  0.1921
  399MOL0     C53795  10.612   4.322   9.844  1.2763  0.0423  0.0767
  399MOL0     C53796  10.594   4.020  10.357  0.8559 -0.8462 -0.4230
  399MOL0     C53797  10.529   3.998  10.477  1.0282 -0.9550 -0.0190
  399MOL0     H53798  10.298   4.108  10.908  1.3068 -3.2807 -0.4725
  399MOL0     H53799  10.233   4.110  11.142  0.1845 -1.7290  3.5115
  399MOL0     H53800  10.230   4.177  11.337  2.2612  1.2141 -0.1762
  399MOL0     H53801  10.203   4.009  11.391 -0.4080  0.2424  3.8202
  399MOL0     H53802  10.295   4.030  11.596  0.1740  0.2737  0.2965
  399MOL0     H53803  10.374   4.187  11.560 -0.3450  0.9779 -0.5981
  399MOL0     H53804  10.209   4.288  11.644  3.9900 -0.1275 -2.1152
  399MOL0     H53805  10.121   4.257  11.494 -1.2850  0.2296  0.3248
  399MOL0     H53806  10.016   4.054  11.587  2.1914  0.2345  0.2782
  399MOL0     H53807  10.101   4.082  11.747  3.6180  0.7421 -0.1661
  399MOL0     H53808   9.992   4.291  11.775  1.9179  1.4508 -1.7557
  399MOL0     H53809   9.903   4.287  11.617  0.2107  3.7545  2.4936
  399MOL0     H53810   9.879   4.067  11.826  0.4125  1.0949  0.7121
  399MOL0     H53811   9.786   4.216  11.844  0.8453  0.4080 -0.0388
  399MOL0     H53812   9.701   4.174  11.608  0.7332  0.7690 -0.3907
  399MOL0     H53813   9.794   4.022  11.611 -0.9673 -2.7056 -0.0698
  399MOL0     H53814   9.675   3.925  11.787  1.0954 -1.0418 -1.9562
  399MOL0     H53815   9.556   3.968  11.660  1.0884 -3.9757  1.7456
  399MOL0     H53816   9.390   4.208  11.678  1.2913  1.3054  0.6249
  399MOL0     H53817   9.238   4.358  11.980  2.3397 -0.2558 -0.4954
  399MOL0     H53818   9.254   4.387  11.814 -1.3102  0.5688  1.4740
  399MOL0     H53819   9.107   4.149  11.944 -0.9617 -2.4947 -3.0699
  399MOL0     H53820   9.091   4.182  11.781  0.7883 -0.6922  0.0070
  399MOL0     H53821   8.997   4.395  11.794  0.8082  1.7056  1.6059
  399MOL0     H53822   9.024   4.419  11.962  0.5898 -1.3864  1.6046
  399MOL0     H53823   8.853   4.242  12.013  1.2945  1.1644  0.3698
  399MOL0     H53824   8.827   4.221  11.839  1.6986 -0.0262 -0.9723
  399MOL0     H53825   8.617   4.597  11.949 -0.7466  0.9009  3.9739
  399MOL0     H53826   8.277   4.646  12.068 -0.4050  1.2678 -0.7581
  399MOL0     H53827   8.413   4.717  11.987  0.8689 -1.0508 -0.2864
  399MOL0     H53828   8.297   4.633  11.889  2.8966  0.2662 -1.2009
  399MOL0     H53829   8.075   4.008  11.993 -1.2024 -1.7802 -3.6967
  399MOL0     H53830   7.827   3.948  12.031  0.3127  0.3507  0.5750
  399MOL0     H53831   7.492   4.239  12.142 -2.3539  0.5779  0.2766
  399MOL0     H53832   7.531   4.260  11.973 -0.2049 -0.1875  0.6951
  399MOL0     H53833   7.432   3.999  11.957  3.1717  0.0054  0.9064
  399MOL0     H53834   7.376   4.054  12.118 -2.8732  1.4901 -0.3644
  399MOL0     H53835   7.311   4.159  11.837  0.0576 -1.0087 -0.9728
  399MOL0     H53836   7.266   4.236  11.984  2.0725  0.8628 -2.4640
  399MOL0     H53837   7.202   3.944  11.924 -1.8135 -1.0354  0.3691
  399MOL0     H53838   7.127   4.041  12.052  1.3055  0.9959 -0.9426
  399MOL0     H53839   6.979   4.018  11.841 -0.3915  0.6930 -1.4017
  399MOL0     H53840   7.102   4.094  11.741  0.4193  0.1970 -0.2723
  399MOL0     H53841   7.001   4.211  12.003  1.5275  0.4375  1.3055
  399MOL0     H53842   7.089   4.301  11.881  1.2266 -0.6716 -0.1885
  399MOL0     H53843   6.857   4.181  11.757  1.4924 -0.9430  0.5855
  399MOL0     H53844   6.872   4.354  11.784 -0.0250  0.9753  1.1177
  399MOL0     H53845   6.774   4.296  12.036  2.0249 -1.0290  0.7566
  399MOL0     H53846   6.764   4.142  11.974  0.1797 -0.1269 -1.4856
  399MOL0     H53847   7.722   4.360  12.047  0.5820  0.9996  2.7360
  399MOL0     H53848   7.953   4.420  12.018  1.1242 -0.4945  1.6210
  399MOL0     H53849   8.416   4.162  12.035  0.5507  0.0972  2.2829
  399MOL0     H53850   8.647   4.179  11.988 -0.6515 -0.7171  2.3460
  399MOL0     H53851  10.645   4.050  11.253  0.5691 -1.6366 -0.6160
  399MOL0     H53852  10.715   4.095  11.019  0.5400  1.2988  2.3692
  399MOL0     H53853  10.728   4.207  10.672  1.6557  1.0837 -0.4598
  399MOL0     H53854  10.832   4.231  10.440  1.0858 -1.1459 -1.3192
  399MOL0     H53855  10.937   4.221  10.278  0.0849 -2.3076  0.9929
  399MOL0     H53856  10.943   4.078  10.186 -1.9417 -1.5724 -2.9503
  399MOL0     H53857  10.840   4.199   9.998 -0.4645 -1.7900  2.1294
  399MOL0     H53858  11.000   4.246  10.027 -1.0489  0.1587 -0.9401
  399MOL0     H53859  10.887   4.463  10.019  1.4276 -2.3331 -1.2454
  399MOL0     H53860  10.891   4.417  10.191  1.5147 -0.5845 -1.0165
  399MOL0     H53861  10.683   4.514  10.101 -1.5609  0.0850 -4.8157
  399MOL0     H53862  10.648   4.347  10.156  0.0832 -0.9086 -1.0644
  399MOL0     H53863  10.578   4.284   9.750 -0.1556  2.7609 -0.5821
  399MOL0     H53864  10.559   3.958  10.274 -0.3495  0.1604 -0.6985
  399MOL0     H53865  10.436   3.943  10.481 -1.4382  2.9148  0.3480
  400MOL0     O53866   9.784   4.799   3.470 -0.3530 -0.3500 -0.4055
  400MOL0     C53867   9.794   4.677   3.470 -0.3932  0.2561 -1.0784
  400MOL0     O53868   9.910   4.606   3.460 -0.0654 -0.7398 -0.9647
  400MOL0     C53869  10.034   4.664   3.444 -0.1126  0.3746  1.3744
  400MOL0     C53870  10.076   4.793   3.451 -0.0927 -0.3176 -0.1931
  400MOL0     C53871  10.206   4.824   3.419  0.3752 -0.2161  0.9797
  400MOL0     C53872  10.299   4.732   3.375 -0.2798 -0.0954 -0.0219
  400MOL0     O53873  10.431   4.767   3.332 -0.5284 -0.3232 -0.3433
  400MOL0     C53874  10.532   4.679   3.280 -0.0282  0.6529  0.3610
  400MOL0     C53875  10.617   4.619   3.393  0.3046  0.6066  0.2626
  400MOL0     C53876  10.727   4.519   3.346 -0.5161 -0.3620  0.2071
  400MOL0     C53877  10.658   4.390   3.319 -0.1274  0.3556  0.7968
  400MOL0     C53878  10.764   4.277   3.299  0.1546  0.1157  0.3204
  400MOL0     C53879  10.705   4.135   3.267 -0.5933 -1.0616  0.0122
  400MOL0     C53880  10.814   4.032   3.230 -0.2933  0.0160  0.2214
  400MOL0     C53881  10.921   4.010   3.345 -0.8792 -0.8309  0.4190
  400MOL0     N53882  10.865   4.011   3.481  1.0081  0.5475  0.9101
  400MOL0     C53883  10.778   3.920   3.530  0.1233  0.7822 -0.6813
  400MOL0     C53884  10.789   3.926   3.667 -1.1414 -0.2054 -0.8358
  400MOL0     C53885  10.723   3.848   3.783  0.1538 -0.0031 -0.2389
  400MOL0     C53886  10.617   3.934   3.847  0.0237  0.0838 -0.3781
  400MOL0     C53887  10.514   3.973   3.738  0.8933  0.0619 -0.4895
  400MOL0     C53888  10.390   4.041   3.811 -0.4261  0.4349 -0.0853
  400MOL0     O53889  10.349   3.950   3.909 -0.0415  0.4287 -0.5210
  400MOL0     C53890  10.220   3.960   3.961  0.4081  0.3852 -0.9731
  400MOL0     C53891  10.212   3.867   4.064  0.0311  0.4984 -0.1110
  400MOL0     C53892  10.096   3.847   4.137  0.1397  0.5830 -0.1178
  400MOL0     C53893  10.102   3.752   4.251 -0.8116  0.2684 -0.8019
  400MOL0     C53894   9.972   3.898   4.091  0.7417  0.3717  0.2323
  400MOL0     C53895   9.839   3.898   4.164 -0.7838  0.2695 -1.1266
  400MOL0     O53896   9.748   3.999   4.133  0.6546  0.2865 -0.4631
  400MOL0     C53897   9.624   4.002   4.192 -0.5758  0.6888 -0.4152
  400MOL0     C53898   9.511   3.986   4.114  0.4700  0.9143 -0.5643
  400MOL0     C53899   9.384   3.987   4.181  0.9398  0.1938  0.0623
  400MOL0     C53900   9.359   4.014   4.315  0.0157  0.3517  0.4912
  400MOL0     O53901   9.231   4.021   4.379 -0.0717 -0.2647  0.2979
  400MOL0     C53902   9.129   4.039   4.290  0.4759  0.3445  0.2567
  400MOL0     C53903   8.996   4.072   4.374 -0.1591  0.7450 -0.1715
  400MOL0     C53904   8.888   4.092   4.275  0.4493 -0.6016  0.1892
  400MOL0     C53905   8.786   4.199   4.314  0.0812  0.6713 -0.2708
  400MOL0     C53906   8.669   4.205   4.214  0.5277 -0.2744  0.9229
  400MOL0     C53907   8.559   4.308   4.258 -1.0083 -0.2315  0.7358
  400MOL0     C53908   8.507   4.280   4.405 -0.2520  0.2094 -0.3094
  400MOL0     C53909   8.364   4.325   4.429 -0.3357 -0.4307  0.6856
  400MOL0    Cl53910   8.243   4.226   4.355 -0.2508 -0.0079  0.1648
  400MOL0     C53911   9.478   4.024   4.392  0.5322 -0.0460  0.5460
  400MOL0     C53912   9.603   4.019   4.335  0.1227 -0.8585  0.2149
  400MOL0     O53913   9.817   3.804   4.239 -0.0404  0.7911  0.0406
  400MOL0     C53914   9.980   3.992   3.980 -0.0766  0.4136  0.2052
  400MOL0     C53915  10.112   4.028   3.920  0.9951  0.5496  0.4886
  400MOL0     N53916  10.890   4.016   3.699 -0.3161  0.3191 -0.1768
  400MOL0     N53917  10.929   4.067   3.581  0.4465  0.6738 -0.4043
  400MOL0     C53918  10.256   4.594   3.375 -0.1776 -0.8571  1.9099
  400MOL0     C53919  10.131   4.565   3.423  0.1221  0.4480 -0.0669
  400MOL0     C53920   9.669   4.603   3.489  0.5783  0.2386 -0.2397
  400MOL0     C53921   9.672   4.464   3.482  0.4137 -0.4694 -1.0803
  400MOL0     C53922   9.558   4.382   3.490  0.6989  0.9608  1.1071
  400MOL0     C53923   9.433   4.440   3.514 -0.5931 -0.0186  0.5692
  400MOL0     O53924   9.323   4.353   3.506 -0.7269  0.4176  0.6529
  400MOL0     C53925   9.210   4.398   3.587 -0.0190  0.1838 -0.9105
  400MOL0     C53926   9.103   4.283   3.594 -0.0278 -0.8529 -0.3857
  400MOL0     C53927   8.990   4.321   3.692 -0.0555 -0.4586  0.5646
  400MOL0     C53928   8.855   4.242   3.664 -0.1579  0.2290  0.7260
  400MOL0     C53929   8.747   4.284   3.752 -0.6028 -0.1678  0.0936
  400MOL0     C53930   8.677   4.318   3.835 -0.7427  0.0368  0.2452
  400MOL0     C53931   9.424   4.583   3.521  1.2236  0.4311  0.3325
  400MOL0     C53932   9.537   4.662   3.505 -0.2070  1.2986 -0.0740
  400MOL0     H53933  10.006   4.871   3.481  0.3809  0.4082 -0.8995
  400MOL0     H53934  10.246   4.924   3.437  0.9362 -0.2958  0.2218
  400MOL0     H53935  10.490   4.596   3.222 -2.0278  0.8381  1.4598
  400MOL0     H53936  10.595   4.735   3.209 -0.7811 -1.2508 -1.9554
  400MOL0     H53937  10.668   4.699   3.448  2.8195 -0.5703 -0.2241
  400MOL0     H53938  10.556   4.566   3.466 -1.3465  0.9217 -0.8175
  400MOL0     H53939  10.769   4.565   3.256  0.9203  1.6698  1.7994
  400MOL0     H53940  10.807   4.510   3.420  0.2375  1.9153 -0.2449
  400MOL0     H53941  10.584   4.355   3.392 -1.2271 -0.9670 -0.8700
  400MOL0     H53942  10.600   4.393   3.226 -0.4477  2.6520  1.0117
  400MOL0     H53943  10.821   4.310   3.212 -3.2130  3.2936 -0.9396
  400MOL0     H53944  10.817   4.279   3.395  1.1415  0.1817 -0.2196
  400MOL0     H53945  10.658   4.109   3.362 -0.5507  2.5834  1.1932
  400MOL0     H53946  10.635   4.135   3.182 -1.5187 -0.7341  0.7596
  400MOL0     H53947  10.771   3.935   3.205  0.8452  0.0914 -2.4216
  400MOL0     H53948  10.870   4.063   3.141  1.4827 -0.3714  1.1561
  400MOL0     H53949  10.999   4.085   3.336 -1.1387 -0.3134  2.1768
  400MOL0     H53950  10.963   3.910   3.327  3.0486  0.7636 -0.2000
  400MOL0     H53951  10.723   3.848   3.471 -2.3441  1.4319  0.6902
  400MOL0     H53952  10.695   3.747   3.750 -0.7230 -0.7789  2.5747
  400MOL0     H53953  10.796   3.817   3.858 -0.2651 -2.3020 -0.6946
  400MOL0     H53954  10.671   4.021   3.886  1.4234  0.3815 -2.7720
  400MOL0     H53955  10.567   3.873   3.923 -0.0549 -0.3179 -0.7454
  400MOL0     H53956  10.470   3.880   3.699  2.6696 -1.7402  1.5285
  400MOL0     H53957  10.551   4.030   3.652 -1.0886  3.0204  0.4834
  400MOL0     H53958  10.311   4.055   3.736 -3.1120 -1.6713  2.1135
  400MOL0     H53959  10.410   4.144   3.842 -1.5624  0.7087 -0.1994
  400MOL0     H53960  10.305   3.818   4.091  1.7899  2.7802 -1.6802
  400MOL0     H53961  10.208   3.726   4.265 -0.4776  0.0499 -3.2754
  400MOL0     H53962  10.075   3.800   4.345  0.1254  1.4674 -1.1150
  400MOL0     H53963  10.048   3.658   4.238  0.2081 -0.2365 -1.6326
  400MOL0     H53964   9.517   3.959   4.009 -1.9564 -2.0799 -0.0779
  400MOL0     H53965   9.298   3.967   4.117  0.2286  1.3635  0.6210
  400MOL0     H53966   9.154   4.114   4.214  0.8451  0.2041  0.2362
  400MOL0     H53967   9.104   3.946   4.237 -0.1519  1.8672 -2.2806
  400MOL0     H53968   8.968   4.002   4.453 -2.0522  0.9096 -0.6450
  400MOL0     H53969   9.006   4.168   4.425  1.8406  1.2951 -1.4506
  400MOL0     H53970   8.842   3.993   4.281  3.5993 -2.1738  0.2451
  400MOL0     H53971   8.925   4.107   4.173  1.2106  1.6825  0.7342
  400MOL0     H53972   8.743   4.172   4.411 -3.5389  3.2455 -0.9375
  400MOL0     H53973   8.836   4.296   4.308  0.2174  0.5146 -4.5572
  400MOL0     H53974   8.637   4.102   4.201  1.2681 -0.3136 -0.8830
  400MOL0     H53975   8.696   4.228   4.111 -2.8385  1.0622  0.1815
  400MOL0     H53976   8.604   4.406   4.277 -0.0635 -1.1135  3.4895
  400MOL0     H53977   8.481   4.319   4.182  2.2289  0.9945 -2.7541
  400MOL0     H53978   8.570   4.336   4.475  0.0527  1.3960 -1.4957
  400MOL0     H53979   8.510   4.176   4.441  1.7396  0.7232  1.1554
  400MOL0     H53980   8.341   4.428   4.402  0.2081 -0.2114  1.0437
  400MOL0     H53981   8.354   4.319   4.538 -0.8716 -1.0533  0.6070
  400MOL0     H53982   9.464   4.040   4.498 -1.4147 -0.9066  0.4479
  400MOL0     H53983   9.688   4.032   4.402  0.3513 -1.1359 -0.0151
  400MOL0     H53984   9.891   4.044   3.946 -1.9635 -2.5568  0.2345
  400MOL0     H53985  10.125   4.097   3.837  0.0593 -1.5660 -1.5638
  400MOL0     H53986  10.328   4.518   3.347  1.4473  0.4523  2.3921
  400MOL0     H53987  10.105   4.460   3.431 -0.2428  0.6817  3.3310
  400MOL0     H53988   9.769   4.416   3.467  0.7914  0.8541 -3.2608
  400MOL0     H53989   9.564   4.274   3.482  0.4785  1.0356 -0.4000
  400MOL0     H53990   9.237   4.420   3.691 -3.1790 -1.2156  0.3430
  400MOL0     H53991   9.157   4.484   3.545  0.2176  1.5522  1.3773
  400MOL0     H53992   9.154   4.196   3.636 -0.3123  0.3085  2.6376
  400MOL0     H53993   9.070   4.264   3.492  0.3294  1.0561 -0.8871
  400MOL0     H53994   8.974   4.429   3.689  1.4309 -0.1998  0.9678
  400MOL0     H53995   9.013   4.307   3.799  0.7457 -3.1137  0.1010
  400MOL0     H53996   8.883   4.137   3.678 -1.6442 -0.4743 -1.1488
  400MOL0     H53997   8.824   4.263   3.561 -0.8740  1.2077  1.1277
  400MOL0     H53998   8.606   4.356   3.906  1.7425  1.9779  1.8574
  400MOL0     H53999   9.327   4.632   3.527  0.5132 -0.9634  0.5633
  400MOL0     H54000   9.523   4.769   3.514  0.1341  1.2858  0.6264
  401MOL0     O54001   4.970   4.349   9.662  0.0062 -0.0282 -0.2680
  401MOL0     C54002   5.030   4.235   9.651 -0.1419 -0.6309  0.7019
  401MOL0     O54003   4.970   4.115   9.651 -0.2182  0.0978 -0.0395
  401MOL0     C54004   4.839   4.115   9.678  0.2429 -0.1457 -0.3967
  401MOL0     C54005   4.748   4.102   9.578 -0.4332 -0.3554  0.1592
  401MOL0     C54006   4.614   4.110   9.614 -0.2281 -0.5857  0.2930
  401MOL0     C54007   4.571   4.132   9.744  0.7217 -0.6451  0.4447
  401MOL0     O54008   4.438   4.158   9.769  0.0662  0.0979  0.5636
  401MOL0     C54009   4.370   4.105   9.879  0.7328  0.9077 -0.4804
  401MOL0     C54010   4.219   4.135   9.862  0.0181  0.2217  0.8054
  401MOL0     C54011   4.190   4.269   9.923  0.2816  0.0981 -0.4882
  401MOL0     C54012   4.047   4.312   9.903 -0.3975 -0.3040 -1.5361
  401MOL0     C54013   4.019   4.456   9.942  0.7026  0.4709 -0.7065
  401MOL0     C54014   3.863   4.489   9.946  0.4059 -0.1291 -0.2151
  401MOL0     C54015   3.849   4.637   9.915  0.6467 -0.2535 -0.3116
  401MOL0     C54016   3.713   4.710   9.946 -0.3546  0.1776  0.1170
  401MOL0     N54017   3.599   4.674   9.857 -0.1856 -0.0862 -0.0006
  401MOL0     C54018   3.527   4.557   9.848 -0.1337  0.1717  0.0403
  401MOL0     C54019   3.429   4.588   9.759 -1.6484  1.2375 -0.3959
  401MOL0     C54020   3.303   4.497   9.741 -0.3060  0.2333 -0.4261
  401MOL0     C54021   3.211   4.507   9.858  0.6501 -0.2128  0.5350
  401MOL0     C54022   3.133   4.640   9.862 -0.3388 -0.2922 -0.1620
  401MOL0     C54023   3.018   4.644   9.766  0.3454 -1.1247  0.6560
  401MOL0     O54024   2.944   4.521   9.746 -0.2473 -0.1628  0.0137
  401MOL0     C54025   2.846   4.490   9.837  0.2499  0.7339 -0.1555
  401MOL0     C54026   2.757   4.392   9.790  0.0114 -0.4006  0.3190
  401MOL0     C54027   2.644   4.350   9.860  1.1957 -0.1714  0.3693
  401MOL0     C54028   2.549   4.256   9.780 -0.0349 -0.1057  0.6334
  401MOL0     C54029   2.610   4.397   9.988 -0.2132 -0.1036  0.2682
  401MOL0     C54030   2.502   4.361  10.076  0.3908  0.7868  0.4696
  401MOL0     O54031   2.513   4.372  10.210 -0.2447 -0.5526  0.3558
  401MOL0     C54032   2.414   4.329  10.287  0.2567  0.3017  0.9333
  401MOL0     C54033   2.309   4.424  10.316  0.1766 -0.4225 -0.1769
  401MOL0     C54034   2.203   4.382  10.391  0.8949  0.7660 -0.0592
  401MOL0     C54035   2.204   4.258  10.446  0.4107  0.3210 -0.7006
  401MOL0     O54036   2.104   4.229  10.535  1.2992  0.0734 -0.1433
  401MOL0     C54037   1.989   4.168  10.472  0.6528 -0.4982 -0.3599
  401MOL0     C54038   1.885   4.279  10.417  0.8518  1.1513  0.0146
  401MOL0     C54039   1.828   4.376  10.522  0.7179 -0.2812  0.1581
  401MOL0     C54040   1.690   4.325  10.569 -0.0297 -0.1173 -1.0253
  401MOL0     C54041   1.573   4.392  10.489 -0.6719 -0.0141  0.1223
  401MOL0     C54042   1.442   4.335  10.543  0.3994 -0.2997 -0.2600
  401MOL0     C54043   1.320   4.375  10.464  0.4613  0.4039 -0.5049
  401MOL0     C54044   1.321   4.330  10.314 -0.8971  0.6586 -0.3439
  401MOL0    Cl54045   1.307   4.156  10.316 -0.4432  0.5904  0.3252
  401MOL0     C54046   2.300   4.165  10.411  0.3809  0.1650 -0.0874
  401MOL0     C54047   2.408   4.195  10.333  0.1787  0.4655 -0.0651
  401MOL0     O54048   2.406   4.312  10.018 -0.5346 -0.6528 -0.1360
  401MOL0     C54049   2.705   4.495  10.038  0.1393 -0.3783  0.3720
  401MOL0     C54050   2.808   4.551   9.955  0.2521  0.1193 -0.6097
  401MOL0     N54051   3.439   4.717   9.711  0.4793  0.4291  0.4129
  401MOL0     N54052   3.544   4.767   9.768  0.4134  0.1995  0.2201
  401MOL0     C54053   4.661   4.140   9.845  0.7606  0.5532 -0.1102
  401MOL0     C54054   4.798   4.134   9.813  0.3091  0.7075 -0.1139
  401MOL0     C54055   5.172   4.231   9.611  0.6167 -0.5719 -0.4086
  401MOL0     C54056   5.253   4.349   9.602 -1.1467  0.8046  0.1906
  401MOL0     C54057   5.394   4.335   9.588 -0.2844 -0.6329  0.5520
  401MOL0     C54058   5.454   4.208   9.567 -0.4710 -0.4815  0.8256
  401MOL0     O54059   5.593   4.203   9.558 -0.1386 -0.3245  0.5787
  401MOL0     C54060   5.654   4.072   9.551 -0.9120 -0.1972  0.5198
  401MOL0     C54061   5.807   4.086   9.506  0.2311 -0.1815  0.1764
  401MOL0     C54062   5.877   4.195   9.574 -0.1695  0.1705 -1.1184
  401MOL0     C54063   5.854   4.193   9.732  0.4694 -0.8478 -0.7188
  401MOL0     C54064   5.910   4.074   9.790 -0.4113 -0.5450  0.1553
  401MOL0     C54065   5.946   3.977   9.861 -0.2181 -0.3411 -0.6825
  401MOL0     C54066   5.370   4.095   9.551  1.1333  0.0379 -1.1017
  401MOL0     C54067   5.227   4.107   9.573  0.0536  0.1151  0.5342
  401MOL0     H54068   4.794   4.096   9.480 -0.1879 -2.0823  0.3593
  401MOL0     H54069   4.541   4.102   9.534 -0.1974 -0.1270  0.2123
  401MOL0     H54070   4.376   3.996   9.876  0.1581  0.8913 -2.8310
  401MOL0     H54071   4.416   4.141   9.971  3.2525 -0.1877 -1.2171
  401MOL0     H54072   4.187   4.134   9.758  2.0945 -2.4273  0.0872
  401MOL0     H54073   4.148   4.061   9.900 -1.7285  1.2042 -0.3987
  401MOL0     H54074   4.182   4.264  10.032 -2.3876  0.5447 -0.5883
  401MOL0     H54075   4.250   4.350   9.881  0.8883  0.5096  1.1160
  401MOL0     H54076   4.024   4.294   9.798 -0.0996  1.9542 -2.0521
  401MOL0     H54077   3.988   4.240   9.961  1.1722 -0.6015 -0.2434
  401MOL0     H54078   4.057   4.490  10.038 -1.9607 -1.0337  1.0198
  401MOL0     H54079   4.064   4.520   9.865  2.9914  0.6367  0.6847
  401MOL0     H54080   3.803   4.437   9.871  0.3152  1.8768 -1.6218
  401MOL0     H54081   3.821   4.460  10.043  0.6759 -0.5413 -0.2228
  401MOL0     H54082   3.922   4.691   9.976 -1.9847  0.4323  2.5053
  401MOL0     H54083   3.867   4.663   9.810 -1.5339  0.8325 -0.4883
  401MOL0     H54084   3.746   4.814   9.938  0.1777  0.1320  1.4473
  401MOL0     H54085   3.687   4.703  10.052 -1.9570  2.7478 -0.0186
  401MOL0     H54086   3.537   4.461   9.898 -1.6994  0.3462  0.7531
  401MOL0     H54087   3.248   4.529   9.652  0.6428  0.7538 -0.8401
  401MOL0     H54088   3.331   4.393   9.727  2.9224  0.6831  1.5652
  401MOL0     H54089   3.270   4.498   9.949  1.3364 -1.8521 -0.0455
  401MOL0     H54090   3.149   4.417   9.859  0.0405  0.1921  1.9369
  401MOL0     H54091   3.213   4.713   9.847  0.1729 -0.8192 -0.0411
  401MOL0     H54092   3.088   4.662   9.959  0.3406  3.5185 -0.5484
  401MOL0     H54093   3.059   4.683   9.672 -0.6001  3.1250  1.7900
  401MOL0     H54094   2.952   4.726   9.798 -1.7720 -1.7573 -1.6801
  401MOL0     H54095   2.772   4.345   9.694  2.7135 -0.6314  0.7948
  401MOL0     H54096   2.523   4.176   9.850  0.0567  0.3160  1.1579
  401MOL0     H54097   2.459   4.306   9.743  1.3503 -0.2290 -3.3851
  401MOL0     H54098   2.592   4.223   9.685 -0.2445  1.2471  0.0563
  401MOL0     H54099   2.305   4.527  10.280 -1.3438 -0.9324 -1.6121
  401MOL0     H54100   2.117   4.443  10.413 -0.4830 -1.2101  0.3549
  401MOL0     H54101   2.003   4.102  10.386  0.1677  0.8277 -1.5066
  401MOL0     H54102   1.941   4.117  10.556  3.4197 -3.0631 -0.1973
  401MOL0     H54103   1.940   4.338  10.344 -0.0542  0.1855 -1.4861
  401MOL0     H54104   1.802   4.228  10.367  0.2476 -0.0117  2.0624
  401MOL0     H54105   1.816   4.475  10.479  2.9837 -0.4722 -1.0370
  401MOL0     H54106   1.900   4.386  10.603  0.8844 -1.8065  0.2318
  401MOL0     H54107   1.684   4.215  10.567 -0.3064 -0.1187 -0.3468
  401MOL0     H54108   1.669   4.343  10.675  0.5220 -0.1099 -0.9128
  401MOL0     H54109   1.586   4.401  10.381 -1.8122  4.0488  0.1671
  401MOL0     H54110   1.562   4.496  10.519 -1.7100  0.7539 -2.6116
  401MOL0     H54111   1.448   4.226  10.551 -2.3625 -0.4707  0.5570
  401MOL0     H54112   1.439   4.365  10.648 -2.4681  0.5285 -0.4953
  401MOL0     H54113   1.310   4.483  10.477  0.3223  0.2003  1.3917
  401MOL0     H54114   1.233   4.340  10.522  1.4280  1.9502  2.0482
  401MOL0     H54115   1.418   4.359  10.272 -1.8145  1.8858 -1.6919
  401MOL0     H54116   1.244   4.393  10.269 -0.3268  0.3170 -1.8695
  401MOL0     H54117   2.286   4.066  10.452 -0.9236  0.1535 -0.5279
  401MOL0     H54118   2.480   4.126  10.289  0.0166  0.0241  0.3508
  401MOL0     H54119   2.705   4.541  10.137 -1.8676  2.5213 -0.8359
  401MOL0     H54120   2.876   4.631   9.985  2.8003 -0.9657 -2.9992
  401MOL0     H54121   4.627   4.149   9.948 -1.9218 -3.5988 -0.4154
  401MOL0     H54122   4.876   4.145   9.888  1.1342 -2.5334 -0.3739
  401MOL0     H54123   5.201   4.443   9.619 -2.9755  0.4728 -2.8118
  401MOL0     H54124   5.455   4.425   9.584 -0.8704 -0.2713 -3.3115
  401MOL0     H54125   5.637   4.024   9.647 -1.5104  0.3672  0.7057
  401MOL0     H54126   5.601   4.011   9.477 -1.1886  0.9861 -0.2938
  401MOL0     H54127   5.817   4.103   9.399  1.5119 -4.2810 -0.5362
  401MOL0     H54128   5.858   3.991   9.530 -1.0921 -0.6412  1.3204
  401MOL0     H54129   5.854   4.296   9.538  0.5519  0.6031 -0.4104
  401MOL0     H54130   5.984   4.192   9.552  1.0353 -0.7222  3.6393
  401MOL0     H54131   5.752   4.220   9.762  0.3122  0.7249 -2.4928
  401MOL0     H54132   5.902   4.277   9.782 -4.7472  1.5488  0.9698
  401MOL0     H54133   5.988   3.894   9.915  1.6888  0.8601 -0.2058
  401MOL0     H54134   5.413   3.998   9.527 -0.3267 -0.3681 -2.1939
  401MOL0     H54135   5.165   4.018   9.563 -0.7748  0.6713  0.6847
  402MOL0     O54136   4.357   4.610   8.794 -0.7956 -0.0017 -0.6282
  402MOL0     C54137   4.425   4.653   8.699 -0.3409 -0.1328 -0.0899
  402MOL0     O54138   4.383   4.671   8.572  0.2825  0.3941  0.4589
  402MOL0     C54139   4.245   4.667   8.553  0.0020 -0.4465 -0.1247
  402MOL0     C54140   4.159   4.756   8.616  0.6422 -0.1984 -0.3665
  402MOL0     C54141   4.020   4.752   8.591 -0.2513 -0.3232  0.2709
  402MOL0     C54142   3.969   4.661   8.501  0.2436 -0.0024 -0.0926
  402MOL0     O54143   3.831   4.652   8.485  0.3372 -0.2361 -0.2132
  402MOL0     C54144   3.776   4.519   8.515 -0.2385 -0.2163  0.1475
  402MOL0     C54145   3.622   4.514   8.508 -0.0746 -0.1600  0.3514
  402MOL0     C54146   3.543   4.601   8.604  0.4121 -0.0762 -0.5025
  402MOL0     C54147   3.591   4.603   8.749 -0.5809  0.3937  0.8290
  402MOL0     C54148   3.505   4.674   8.854 -0.0556 -0.5590  0.6855
  402MOL0     C54149   3.527   4.826   8.846  0.0119  0.4603  0.3500
  402MOL0     C54150   3.487   4.904   8.974  0.5045 -0.2249 -0.1565
  402MOL0     C54151   3.502   5.059   8.950  0.1016 -0.0471  0.1223
  402MOL0     N54152   3.417   5.119   8.847  0.5201  0.1536 -0.3337
  402MOL0     C54153   3.284   5.085   8.825  0.0893  0.0067  0.1570
  402MOL0     C54154   3.252   5.163   8.722 -0.7195  0.0804 -0.7183
  402MOL0     C54155   3.115   5.164   8.654 -0.2533 -0.3972  0.2076
  402MOL0     C54156   3.007   5.214   8.760  0.4154 -0.5351 -0.6755
  402MOL0     C54157   2.864   5.238   8.707  0.7526  0.3912 -0.7564
  402MOL0     C54158   2.804   5.109   8.694  0.5197 -0.2107  0.0361
  402MOL0     O54159   2.667   5.126   8.671  0.3956 -0.3236  0.3295
  402MOL0     C54160   2.575   5.121   8.770  0.2124 -0.2527  0.3963
  402MOL0     C54161   2.447   5.152   8.732  0.2886  0.7254  0.7838
  402MOL0     C54162   2.335   5.138   8.819 -0.0893  0.4271 -1.1381
  402MOL0     C54163   2.201   5.131   8.754 -0.0492 -0.7531  0.3784
  402MOL0     C54164   2.348   5.097   8.955 -0.4268  0.0985 -0.1369
  402MOL0     C54165   2.232   5.063   9.046 -1.1549 -0.8022 -0.1616
  402MOL0     O54166   2.121   5.125   9.030  0.6773 -0.4334  0.1035
  402MOL0     C54167   2.008   5.088   9.099 -0.3267  0.6957 -0.1649
  402MOL0     C54168   1.894   5.155   9.055  0.3242 -0.3317  0.4563
  402MOL0     C54169   1.771   5.145   9.127  0.2988 -0.3243  0.3975
  402MOL0     C54170   1.759   5.056   9.236 -0.2906 -0.5481 -0.4381
  402MOL0     O54171   1.640   5.034   9.305  0.2907 -0.1669  0.3223
  402MOL0     C54172   1.523   5.106   9.262  0.3281  0.6769  0.2974
  402MOL0     C54173   1.397   5.074   9.343  0.1188  0.3940  0.2173
  402MOL0     C54174   1.372   5.146   9.475 -0.1397 -0.8327  0.1885
  402MOL0     C54175   1.316   5.078   9.599 -0.0870  0.5597  0.7128
  402MOL0     C54176   1.164   5.043   9.567 -0.7150 -0.5901  0.0377
  402MOL0     C54177   1.104   4.990   9.695  0.2632 -0.7000  0.0639
  402MOL0     C54178   0.956   4.958   9.664  0.5666 -0.4373 -0.9449
  402MOL0     C54179   0.893   4.886   9.786  0.8338  0.1137 -0.2604
  402MOL0    Cl54180   0.909   5.007   9.928  0.2062  0.2985 -0.3954
  402MOL0     C54181   1.872   4.995   9.280  0.5736  0.5236  0.1110
  402MOL0     C54182   1.990   4.995   9.207  0.0431 -0.1636 -0.7023
  402MOL0     O54183   2.261   4.992   9.145 -0.4243  0.0438  0.1935
  402MOL0     C54184   2.487   5.072   8.996  0.4436  0.0470  0.1585
  402MOL0     C54185   2.594   5.093   8.906 -0.7895  0.2639  0.3735
  402MOL0     N54186   3.362   5.246   8.688  0.1370  0.6087 -0.0137
  402MOL0     N54187   3.457   5.209   8.760 -0.1485 -0.8163  0.3942
  402MOL0     C54188   4.050   4.570   8.439 -0.3303 -0.3653  0.1206
  402MOL0     C54189   4.185   4.580   8.462 -0.1022  0.4156  0.3342
  402MOL0     C54190   4.568   4.681   8.732  0.9847 -0.2278  0.5742
  402MOL0     C54191   4.621   4.678   8.860 -0.0174 -0.2841 -0.6702
  402MOL0     C54192   4.752   4.695   8.877 -0.2106  1.1540 -0.1294
  402MOL0     C54193   4.845   4.718   8.776  0.2929  0.0397  0.0777
  402MOL0     O54194   4.973   4.743   8.791 -0.4545  0.5962 -0.1144
  402MOL0     C54195   5.041   4.691   8.912 -0.2600 -0.1910  0.0160
  402MOL0     C54196   5.200   4.693   8.886  0.4934  0.8036  0.0244
  402MOL0     C54197   5.253   4.811   8.803  0.0386  0.0642 -0.6282
  402MOL0     C54198   5.403   4.810   8.781  0.9796  0.8499  0.5877
  402MOL0     C54199   5.472   4.792   8.909 -0.3572 -0.0428 -0.0228
  402MOL0     C54200   5.551   4.768   9.005 -0.6943  0.4806  0.5577
  402MOL0     C54201   4.795   4.728   8.650  0.2268  0.0116 -0.6537
  402MOL0     C54202   4.654   4.704   8.622 -0.8402  0.1482 -0.1237
  402MOL0     H54203   4.188   4.837   8.683 -1.9402 -1.4128  2.4591
  402MOL0     H54204   3.957   4.823   8.643  1.0684  0.0101  1.4624
  402MOL0     H54205   3.813   4.449   8.438 -1.0745 -1.6173  0.9819
  402MOL0     H54206   3.804   4.484   8.614 -1.5266  3.0661  1.8035
  402MOL0     H54207   3.590   4.557   8.413 -1.2077  0.6895  1.0982
  402MOL0     H54208   3.587   4.411   8.522 -1.3159  0.3620  1.3007
  402MOL0     H54209   3.526   4.700   8.560  0.0829 -0.2962 -0.8761
  402MOL0     H54210   3.443   4.556   8.609  0.6351 -0.4453  2.4417
  402MOL0     H54211   3.613   4.502   8.785 -0.7917 -0.5587 -1.5094
  402MOL0     H54212   3.685   4.659   8.742  0.0018 -0.6504 -0.0447
  402MOL0     H54213   3.400   4.646   8.843 -0.0510 -1.0162  1.6814
  402MOL0     H54214   3.537   4.652   8.956  1.6334  2.3442  0.8865
  402MOL0     H54215   3.635   4.846   8.843  0.0048  0.4061 -1.4577
  402MOL0     H54216   3.474   4.863   8.758 -0.2904 -0.4673  0.1395
  402MOL0     H54217   3.382   4.883   8.996  1.3778 -1.5960  3.3278
  402MOL0     H54218   3.546   4.884   9.064 -0.1681 -1.2064  0.0687
  402MOL0     H54219   3.607   5.063   8.920 -0.8267 -0.8510 -3.6998
  402MOL0     H54220   3.495   5.119   9.042 -3.5945 -0.8690  0.5471
  402MOL0     H54221   3.225   5.027   8.894 -3.3050  0.3305 -2.2426
  402MOL0     H54222   3.111   5.229   8.567  1.2101 -0.5790 -0.0238
  402MOL0     H54223   3.091   5.061   8.627 -0.5479 -1.1186  2.8812
  402MOL0     H54224   3.045   5.312   8.792 -1.8280 -0.2102  1.3220
  402MOL0     H54225   3.007   5.138   8.838 -3.4125  0.8534  0.9418
  402MOL0     H54226   2.870   5.279   8.605  1.2576  3.1878  0.3021
  402MOL0     H54227   2.805   5.305   8.770 -0.4901  0.1016 -1.5840
  402MOL0     H54228   2.826   5.055   8.787 -0.6323  1.2594  1.2000
  402MOL0     H54229   2.847   5.052   8.611 -0.4687  1.3344 -1.6232
  402MOL0     H54230   2.431   5.154   8.625  0.5740  1.2281  0.7480
  402MOL0     H54231   2.138   5.209   8.797  3.6910  1.7235  1.8290
  402MOL0     H54232   2.215   5.149   8.647  0.3087  1.8796  0.8029
  402MOL0     H54233   2.146   5.036   8.756 -1.6321  0.0956 -0.4768
  402MOL0     H54234   1.903   5.221   8.969  1.1856 -1.0453 -0.0229
  402MOL0     H54235   1.686   5.195   9.083 -0.9668 -2.8283 -0.1699
  402MOL0     H54236   1.541   5.213   9.279 -0.8576  1.1575 -1.2455
  402MOL0     H54237   1.516   5.090   9.154 -0.6837 -1.4128  0.6152
  402MOL0     H54238   1.307   5.083   9.281  0.5337 -2.4192 -0.9899
  402MOL0     H54239   1.408   4.968   9.369  3.1440  0.3380 -0.9249
  402MOL0     H54240   1.295   5.220   9.452  1.3351  0.1453 -1.9509
  402MOL0     H54241   1.461   5.201   9.506 -2.1368  0.9874  3.0601
  402MOL0     H54242   1.378   4.993   9.628 -2.0519 -0.5873  1.7997
  402MOL0     H54243   1.328   5.152   9.678  3.6142  0.6628  0.2025
  402MOL0     H54244   1.143   4.982   9.478  0.6702 -1.0369 -0.0052
  402MOL0     H54245   1.118   5.142   9.558  0.0420 -0.1594  0.8152
  402MOL0     H54246   1.143   4.892   9.721 -2.8585 -2.0839  0.0118
  402MOL0     H54247   1.119   5.058   9.780  0.2069 -1.3342  0.5862
  402MOL0     H54248   0.947   4.893   9.576  0.4314  0.4014 -1.5651
  402MOL0     H54249   0.900   5.047   9.634  0.8396 -0.9786 -3.2456
  402MOL0     H54250   0.948   4.793   9.804  2.2752  0.9779 -0.0817
  402MOL0     H54251   0.789   4.862   9.759  0.3565  1.8307 -0.0482
  402MOL0     H54252   1.861   4.949   9.377 -0.0484 -0.0081 -0.2026
  402MOL0     H54253   2.072   4.939   9.253  0.3831 -0.4650 -1.6603
  402MOL0     H54254   2.504   5.047   9.100 -0.2287  0.3278  0.3464
  402MOL0     H54255   2.682   5.074   8.966 -0.1767 -2.9074 -1.3294
  402MOL0     H54256   4.001   4.511   8.362 -1.5042 -0.6831  1.0861
  402MOL0     H54257   4.243   4.506   8.408 -2.6801 -0.6641 -1.1351
  402MOL0     H54258   4.558   4.666   8.948  0.0875 -1.3862 -0.7338
  402MOL0     H54259   4.798   4.691   8.975 -0.5361 -1.9714 -0.0341
  402MOL0     H54260   5.022   4.761   8.994 -1.5118  1.2578 -1.4477
  402MOL0     H54261   5.003   4.593   8.942 -3.1941  1.0491  0.5945
  402MOL0     H54262   5.225   4.597   8.839  1.6662  0.8983  0.4110
  402MOL0     H54263   5.247   4.694   8.985 -0.0431 -0.0990  0.2978
  402MOL0     H54264   5.242   4.901   8.864  0.4614 -0.3778  0.1185
  402MOL0     H54265   5.203   4.822   8.706 -1.1851  0.3866  0.0177
  402MOL0     H54266   5.436   4.898   8.725  3.9067 -0.9150 -0.6525
  402MOL0     H54267   5.434   4.726   8.718  0.0978  1.6158 -0.9282
  402MOL0     H54268   5.618   4.737   9.083  0.2502 -1.3974 -0.9235
  402MOL0     H54269   4.865   4.722   8.568 -1.3994  0.5295 -2.1283
  402MOL0     H54270   4.620   4.708   8.519  0.2633  0.3508 -0.4977
  403MOL0     O54271   2.710  11.183   7.901  0.5960  0.4084  0.1140
  403MOL0     C54272   2.822  11.228   7.931  0.7226 -0.2976 -0.1398
  403MOL0     O54273   2.853  11.361   7.955  0.1157  0.5803 -0.0169
  403MOL0     C54274   2.750  11.442   7.992  0.0022 -0.8291  0.1151
  403MOL0     C54275   2.647  11.477   7.907  0.1880  0.1076  0.3652
  403MOL0     C54276   2.551  11.560   7.946  0.3461 -0.2474 -0.0681
  403MOL0     C54277   2.552  11.617   8.081  1.3815  0.0122 -0.6059
  403MOL0     O54278   2.448  11.698   8.124 -0.9990 -0.3948 -0.1635
  403MOL0     C54279   2.314  11.682   8.093  0.2382 -0.3633 -0.2270
  403MOL0     C54280   2.266  11.532   8.126  0.4846  0.5090  0.4890
  403MOL0     C54281   2.115  11.535   8.125 -0.2410  0.9242 -0.6427
  403MOL0     C54282   2.059  11.543   7.984 -0.4820  0.1184 -0.2426
  403MOL0     C54283   1.906  11.513   7.973  0.9066 -0.4900 -0.6649
  403MOL0     C54284   1.847  11.370   8.002 -0.5871  0.0621  0.1906
  403MOL0     C54285   1.709  11.383   8.059 -0.0590  0.0744 -0.3465
  403MOL0     C54286   1.602  11.421   7.965  0.1358 -0.9488  0.9743
  403MOL0     N54287   1.469  11.442   8.018 -0.2819  0.4676  0.1623
  403MOL0     C54288   1.378  11.342   8.008  0.1107 -0.1732  0.1543
  403MOL0     C54289   1.272  11.399   8.065  0.4122 -0.3203  0.7573
  403MOL0     C54290   1.131  11.337   8.074 -0.4120  0.2530  0.3075
  403MOL0     C54291   1.141  11.192   8.142  0.0142 -0.3490 -0.3669
  403MOL0     C54292   1.208  11.202   8.274 -0.6902  1.1284 -0.2120
  403MOL0     C54293   1.173  11.310   8.368  0.4799  0.2117  0.5384
  403MOL0     O54294   1.203  11.275   8.496  0.1064 -0.2157 -0.1159
  403MOL0     C54295   1.104  11.264   8.594  0.2757 -0.4119  0.4611
  403MOL0     C54296   1.149  11.299   8.725 -0.1944  0.6380  0.2929
  403MOL0     C54297   1.068  11.282   8.841  0.3540 -0.0441  0.6137
  403MOL0     C54298   1.136  11.326   8.968  0.1058  0.0636  0.0325
  403MOL0     C54299   0.934  11.228   8.828 -0.0815  0.1225  0.0895
  403MOL0     C54300   0.840  11.203   8.945 -0.1586 -0.4342  0.0679
  403MOL0     O54301   0.718  11.147   8.912  0.2807 -0.7643 -0.3212
  403MOL0     C54302   0.616  11.158   9.008 -0.7553 -0.4824 -0.1399
  403MOL0     C54303   0.552  11.283   9.029  0.2430  0.9337  0.3285
  403MOL0     C54304   0.444  11.297   9.129  0.1808 -0.2973  0.1540
  403MOL0     C54305   0.407  11.183   9.203  0.0399  1.1659  0.5343
  403MOL0     O54306   0.310  11.209   9.302  0.5570 -0.4497  0.1023
  403MOL0     C54307   0.197  11.121   9.308  0.9277  0.2972 -0.5903
  403MOL0     C54308   0.063  11.200   9.350  0.0120 -0.1001  0.2209
  403MOL0     C54309   0.028  11.315   9.257 -0.9080 -0.1669  0.5843
  403MOL0     C54310   0.019  11.266   9.105 -0.3058 -0.2031  0.3236
  403MOL0     C54311  -0.010  11.372   9.007 -0.1787 -0.3016  0.0305
  403MOL0     C54312   0.115  11.454   9.003  0.1301  0.2644 -0.4426
  403MOL0     C54313   0.104  11.551   8.883 -0.9393  0.0573 -0.0512
  403MOL0     C54314   0.203  11.663   8.895 -0.0869  0.3507 -0.8072
  403MOL0    Cl54315   0.372  11.596   8.944 -0.0565 -0.0246 -0.1143
  403MOL0     C54316   0.466  11.056   9.175 -0.2012 -0.3379 -0.2665
  403MOL0     C54317   0.568  11.048   9.081  0.4757 -0.4039  0.3944
  403MOL0     O54318   0.882  11.216   9.056 -0.4618 -0.1294 -0.0199
  403MOL0     C54319   0.886  11.217   8.701 -0.2311  0.4310  0.2356
  403MOL0     C54320   0.975  11.221   8.584  0.0045 -1.1158 -0.6578
  403MOL0     N54321   1.306  11.531   8.098 -0.4636  0.0919  0.4318
  403MOL0     N54322   1.429  11.556   8.070  0.1465 -0.0052  0.1825
  403MOL0     C54323   2.658  11.585   8.171 -0.3494 -0.2208 -0.1213
  403MOL0     C54324   2.758  11.495   8.120 -0.0851  0.0322 -0.0496
  403MOL0     C54325   2.932  11.134   7.956  0.0699  0.7327 -0.0881
  403MOL0     C54326   3.064  11.183   7.983 -0.7314 -0.1437 -0.0821
  403MOL0     C54327   3.164  11.094   8.024 -0.0147 -0.0818  0.0577
  403MOL0     C54328   3.145  10.960   8.026 -0.0971 -0.1896  0.1182
  403MOL0     O54329   3.240  10.867   8.054 -0.3789  0.1208 -0.4784
  403MOL0     C54330   3.375  10.904   8.088  0.6690 -0.2450  0.4454
  403MOL0     C54331   3.468  10.781   8.092 -0.2817 -0.0835  0.4909
  403MOL0     C54332   3.617  10.805   8.123 -0.2221  0.7048 -0.0195
  403MOL0     C54333   3.686  10.858   8.002 -0.7974 -0.0323  0.4656
  403MOL0     C54334   3.834  10.864   8.019  0.1261  0.3591  0.5034
  403MOL0     C54335   3.949  10.875   8.040  0.0488  0.3322 -0.8308
  403MOL0     C54336   3.020  10.907   7.981 -0.3930  0.3175  0.2965
  403MOL0     C54337   2.911  10.990   7.960 -0.4849  0.0991 -0.3031
  403MOL0     H54338   2.655  11.439   7.805 -1.2690 -2.9487  1.2668
  403MOL0     H54339   2.465  11.579   7.882 -0.5895 -1.4377  0.7926
  403MOL0     H54340   2.261  11.758   8.151 -0.5069 -0.4155 -0.8258
  403MOL0     H54341   2.302  11.700   7.986  2.5131  0.1507 -0.4550
  403MOL0     H54342   2.307  11.469   8.046  1.1806  0.4995  0.8384
  403MOL0     H54343   2.301  11.497   8.224  0.7330  1.0890  0.6142
  403MOL0     H54344   2.081  11.444   8.174  2.6851  0.7198  1.2376
  403MOL0     H54345   2.088  11.613   8.197 -0.6556  0.4959 -0.3368
  403MOL0     H54346   2.076  11.644   7.944  1.1155  0.9524  2.3218
  403MOL0     H54347   2.126  11.474   7.932  2.7624  1.0059  2.4029
  403MOL0     H54348   1.870  11.584   8.048  4.5288  1.1161 -0.2286
  403MOL0     H54349   1.861  11.555   7.882 -0.7556  0.2103  0.4283
  403MOL0     H54350   1.839  11.321   7.905  2.2409  1.3795 -0.8214
  403MOL0     H54351   1.904  11.315   8.077 -0.3840  1.4579  1.0985
  403MOL0     H54352   1.674  11.298   8.118  0.5886  0.3831  0.5149
  403MOL0     H54353   1.717  11.458   8.138 -0.7303 -2.0099  1.8188
  403MOL0     H54354   1.601  11.344   7.887  0.5373  0.3846 -0.4088
  403MOL0     H54355   1.637  11.516   7.922  1.2312 -2.1235 -0.8721
  403MOL0     H54356   1.394  11.249   7.955 -1.1989 -0.0842 -0.4193
  403MOL0     H54357   1.066  11.402   8.134  1.0011 -0.2046  2.4540
  403MOL0     H54358   1.079  11.334   7.978  0.4611 -0.1094 -0.1674
  403MOL0     H54359   1.200  11.128   8.077  2.8581  0.9381  0.8005
  403MOL0     H54360   1.041  11.157   8.168  0.6059  0.0740  2.9333
  403MOL0     H54361   1.316  11.201   8.261 -0.4416  4.5236  0.5575
  403MOL0     H54362   1.192  11.104   8.318 -1.4369  1.4973  0.3748
  403MOL0     H54363   1.067  11.334   8.356 -0.1393 -1.5195  1.9859
  403MOL0     H54364   1.225  11.404   8.347  1.5498 -0.1031  1.6610
  403MOL0     H54365   1.251  11.335   8.734 -1.0802  3.3350  0.2791
  403MOL0     H54366   1.185  11.242   9.018 -0.7090  0.0333  0.7986
  403MOL0     H54367   1.211  11.404   8.952 -0.3559  1.5607  4.1001
  403MOL0     H54368   1.058  11.373   9.028  0.3167 -0.6792  0.8974
  403MOL0     H54369   0.590  11.376   8.989  1.4114  0.5583  0.5423
  403MOL0     H54370   0.388  11.387   9.150  1.5510  0.3137  1.3389
  403MOL0     H54371   0.178  11.062   9.218  3.1250 -1.9791  0.3426
  403MOL0     H54372   0.220  11.048   9.386  3.2812 -0.6278 -2.0638
  403MOL0     H54373  -0.023  11.132   9.343 -0.1906  0.0800  0.8889
  403MOL0     H54374   0.061  11.232   9.454 -1.8912  0.6410 -0.0006
  403MOL0     H54375   0.095  11.399   9.276 -0.1375 -0.9485  1.4364
  403MOL0     H54376  -0.073  11.347   9.282 -0.5655  0.3989  1.2576
  403MOL0     H54377   0.108  11.211   9.074  1.4817  0.1683  4.1386
  403MOL0     H54378  -0.059  11.190   9.102 -1.1509  0.6611  0.0540
  403MOL0     H54379  -0.093  11.433   9.044 -2.1558 -1.2657 -2.5139
  403MOL0     H54380  -0.034  11.326   8.910  3.3980 -4.4498  0.7749
  403MOL0     H54381   0.121  11.514   9.093  0.4211 -0.2494 -0.1162
  403MOL0     H54382   0.206  11.394   8.991 -0.6299 -0.5973 -2.3363
  403MOL0     H54383   0.002  11.590   8.879 -0.1556  2.1966 -2.1437
  403MOL0     H54384   0.111  11.508   8.783 -1.7752  1.0252 -0.5417
  403MOL0     H54385   0.168  11.735   8.970  1.2109  2.4753 -2.1547
  403MOL0     H54386   0.213  11.713   8.798  2.5804 -0.1458 -0.8647
  403MOL0     H54387   0.443  10.968   9.235 -1.1774  1.4693  2.1779
  403MOL0     H54388   0.613  10.952   9.057  0.4355 -0.4187  0.3792
  403MOL0     H54389   0.783  11.187   8.688  0.2334 -0.9156 -0.5507
  403MOL0     H54390   0.937  11.187   8.488 -2.1800  0.7206 -0.5396
  403MOL0     H54391   2.651  11.628   8.270  0.2016 -2.3344  0.8793
  403MOL0     H54392   2.829  11.467   8.198 -0.6674  0.8835  0.8217
  403MOL0     H54393   3.090  11.287   7.968 -0.7548 -0.3492 -1.7557
  403MOL0     H54394   3.261  11.129   8.057  0.2281 -0.1668 -0.5626
  403MOL0     H54395   3.418  10.973   8.015  1.6719  1.0770  2.2046
  403MOL0     H54396   3.373  10.953   8.186 -1.3876  1.4529 -0.3567
  403MOL0     H54397   3.471  10.721   8.001  1.7207  0.6423  0.0150
  403MOL0     H54398   3.432  10.725   8.179 -1.3037 -0.6511 -0.2826
  403MOL0     H54399   3.665  10.711   8.151  2.9365  2.0472 -0.4322
  403MOL0     H54400   3.640  10.876   8.204 -1.8767  0.5467  0.6175
  403MOL0     H54401   3.646  10.957   7.977 -1.6561 -0.4096  0.2736
  403MOL0     H54402   3.659  10.790   7.921  3.4924  0.9853 -2.1151
  403MOL0     H54403   4.051  10.881   8.071  0.2167 -0.1897 -1.2625
  403MOL0     H54404   3.008  10.799   7.977 -0.4870  0.3036 -4.1978
  403MOL0     H54405   2.811  10.950   7.946 -0.8754  0.7693  0.4855
  404MOL0     O54406   1.836   7.842   0.962  0.8143 -0.2166 -0.2188
  404MOL0     C54407   1.820   7.950   0.911  0.6637  0.2204  0.4104
  404MOL0     O54408   1.713   8.030   0.938 -0.4372 -0.0977  0.6302
  404MOL0     C54409   1.601   7.975   1.008 -0.2668  0.3523 -0.0867
  404MOL0     C54410   1.550   7.853   0.960  0.2030  0.1908  0.9082
  404MOL0     C54411   1.445   7.787   1.026 -0.4011  0.3552  0.1944
  404MOL0     C54412   1.379   7.855   1.136 -0.1492  0.3102  0.8613
  404MOL0     O54413   1.265   7.814   1.198 -0.1134  0.3003  0.3284
  404MOL0     C54414   1.209   7.685   1.160 -0.4458 -0.2770  0.0779
  404MOL0     C54415   1.089   7.634   1.245 -0.3360  0.3354  0.2215
  404MOL0     C54416   0.965   7.695   1.196  0.0739 -0.1776 -0.0186
  404MOL0     C54417   0.836   7.632   1.250  0.1032 -0.1851  1.0552
  404MOL0     C54418   0.718   7.719   1.224  0.5063 -0.4403  0.1302
  404MOL0     C54419   0.610   7.693   1.337  0.7943  0.3506 -0.1074
  404MOL0     C54420   0.483   7.761   1.314 -0.4136  0.9586  0.0738
  404MOL0     C54421   0.391   7.677   1.228  0.0072  0.0243  0.0439
  404MOL0     N54422   0.259   7.739   1.217  1.0400 -0.3223  0.2119
  404MOL0     C54423   0.199   7.782   1.105  0.4159 -0.5567 -0.4839
  404MOL0     C54424   0.073   7.805   1.146 -0.1260  0.0771  0.3085
  404MOL0     C54425  -0.020   7.884   1.061  0.0465 -0.2292 -0.0119
  404MOL0     C54426  -0.171   7.883   1.086 -0.2507  0.6104  1.0307
  404MOL0     C54427  -0.234   7.997   0.997  0.0331  0.1387  0.1966
  404MOL0     C54428  -0.388   7.979   0.974 -0.5068  0.8727  0.2984
  404MOL0     O54429  -0.448   7.969   1.103 -0.0579 -0.5137 -0.2767
  404MOL0     C54430  -0.585   7.983   1.110  0.5186  0.0567 -0.0137
  404MOL0     C54431  -0.650   8.055   1.212 -0.1413  0.3618 -0.6286
  404MOL0     C54432  -0.796   8.068   1.218  0.2587 -0.4659 -1.0993
  404MOL0     C54433  -0.851   8.155   1.337 -0.1161 -0.8079 -0.8568
  404MOL0     C54434  -0.869   8.028   1.102  0.2150  0.4078  0.3059
  404MOL0     C54435  -1.016   8.062   1.083  0.0431 -0.3967 -0.1976
  404MOL0     O54436  -1.069   8.148   1.173 -0.0732  0.4753  0.5660
  404MOL0     C54437  -1.188   8.201   1.137  0.7347  0.2852  0.2348
  404MOL0     C54438  -1.312   8.142   1.188  0.5900  0.0361  0.2151
  404MOL0     C54439  -1.431   8.195   1.157  0.0420  1.0049 -0.8541
  404MOL0     C54440  -1.437   8.306   1.069  0.0260 -0.1548 -0.2466
  404MOL0     O54441  -1.562   8.357   1.034  0.1915 -0.7697 -0.3175
  404MOL0     C54442  -1.617   8.322   0.911  0.6816 -1.0113  0.8867
  404MOL0     C54443  -1.598   8.413   0.793  0.3687  0.0191 -0.0959
  404MOL0     C54444  -1.649   8.557   0.819  0.1715  0.7877  0.2224
  404MOL0     C54445  -1.665   8.633   0.686  0.3768 -0.2891  0.3850
  404MOL0     C54446  -1.758   8.766   0.682 -0.4799 -0.0195 -0.3323
  404MOL0     C54447  -1.729   8.851   0.555  0.0212 -0.9419 -0.9035
  404MOL0     C54448  -1.791   8.990   0.540 -0.3167 -0.3648 -0.6734
  404MOL0     C54449  -1.753   9.098   0.635  0.1670  0.1585 -0.2707
  404MOL0    Cl54450  -1.573   9.130   0.653 -0.3871  0.4160  0.0609
  404MOL0     C54451  -1.324   8.366   1.006  0.0599  0.5699 -0.6726
  404MOL0     C54452  -1.201   8.312   1.051 -0.2155  0.2316  0.2494
  404MOL0     O54453  -1.075   8.003   1.000  0.8097  0.6360  0.8429
  404MOL0     C54454  -0.801   7.970   0.992  0.2252 -0.0504  0.6505
  404MOL0     C54455  -0.662   7.939   1.002  0.0994  0.7276 -0.4913
  404MOL0     N54456   0.052   7.766   1.275  0.1387  0.4997  0.3436
  404MOL0     N54457   0.166   7.729   1.317 -0.0406 -0.4865 -0.5818
  404MOL0     C54458   1.445   7.971   1.187  1.0124 -0.3027  0.5814
  404MOL0     C54459   1.547   8.026   1.119  0.0290  0.6854 -0.4109
  404MOL0     C54460   1.940   8.001   0.830 -0.0865 -0.5580  0.4435
  404MOL0     C54461   1.946   8.138   0.783 -0.2317  0.6256 -0.4456
  404MOL0     C54462   2.061   8.179   0.710 -0.4967 -1.1946 -0.6909
  404MOL0     C54463   2.170   8.098   0.699 -0.0195  0.3525  0.0537
  404MOL0     O54464   2.282   8.131   0.623  0.7646  0.6408  0.8460
  404MOL0     C54465   2.342   8.257   0.646 -0.6085  0.8005  0.1185
  404MOL0     C54466   2.490   8.245   0.668 -0.4607 -0.8483 -0.1839
  404MOL0     C54467   2.522   8.169   0.794  0.6872 -0.4523  0.2464
  404MOL0     C54468   2.490   8.242   0.928 -1.2707  0.9442  0.3625
  404MOL0     C54469   2.350   8.237   0.977  0.7143 -0.7724  0.1526
  404MOL0     C54470   2.245   8.241   1.040  0.1651  0.0502  0.4156
  404MOL0     C54471   2.167   7.966   0.737  0.2763 -0.1655 -0.1387
  404MOL0     C54472   2.054   7.919   0.807 -0.3592  0.0852 -0.1166
  404MOL0     H54473   1.581   7.797   0.873 -1.3874 -3.8637  2.7450
  404MOL0     H54474   1.407   7.696   0.981  0.3317  0.6506 -1.0601
  404MOL0     H54475   1.176   7.691   1.057 -1.4438 -1.0099  0.3479
  404MOL0     H54476   1.281   7.603   1.173 -1.6631 -1.0627  2.4581
  404MOL0     H54477   1.087   7.525   1.236 -4.6110  0.1024  1.4923
  404MOL0     H54478   1.105   7.651   1.352 -3.3145  0.2258  0.7736
  404MOL0     H54479   0.966   7.799   1.231  0.8766 -0.5446  1.1163
  404MOL0     H54480   0.960   7.701   1.087 -0.7043 -2.4042 -0.1464
  404MOL0     H54481   0.825   7.538   1.196  2.2161 -1.9577  3.5074
  404MOL0     H54482   0.845   7.623   1.358 -3.7111  2.6163  1.8558
  404MOL0     H54483   0.752   7.823   1.218 -2.0222  0.8779  4.2885
  404MOL0     H54484   0.668   7.693   1.130 -1.7645 -1.0027  1.4127
  404MOL0     H54485   0.596   7.588   1.366  1.0590 -0.0345 -1.3012
  404MOL0     H54486   0.660   7.739   1.422  0.8777 -2.1872  1.3301
  404MOL0     H54487   0.434   7.762   1.412 -1.8821 -3.6999 -0.3626
  404MOL0     H54488   0.492   7.861   1.270 -2.4186 -0.1750 -3.3808
  404MOL0     H54489   0.390   7.578   1.275  1.9825  0.8509  1.9963
  404MOL0     H54490   0.429   7.668   1.126 -0.9608  0.2862 -0.3558
  404MOL0     H54491   0.235   7.784   1.003  1.5446  0.7965 -0.0967
  404MOL0     H54492   0.000   7.988   1.090  0.7961 -0.6976  1.2024
  404MOL0     H54493   0.009   7.870   0.956  2.4038 -0.1370  0.5806
  404MOL0     H54494  -0.201   7.883   1.191 -1.9419 -2.8384  0.7102
  404MOL0     H54495  -0.211   7.785   1.057 -0.1727  1.0847 -0.8282
  404MOL0     H54496  -0.180   7.999   0.901  0.7077  2.5568  0.5614
  404MOL0     H54497  -0.226   8.097   1.040 -0.2672 -0.2651  1.2188
  404MOL0     H54498  -0.407   7.882   0.926  1.2398 -0.2259  1.6999
  404MOL0     H54499  -0.432   8.061   0.916 -0.1446  1.4495  0.8306
  404MOL0     H54500  -0.590   8.108   1.285 -0.3938  1.0102 -0.8865
  404MOL0     H54501  -0.778   8.171   1.416 -1.9242 -0.1261  0.7736
  404MOL0     H54502  -0.864   8.257   1.301  2.1411 -0.3017 -0.3748
  404MOL0     H54503  -0.938   8.111   1.387 -0.0230  1.0091  1.0181
  404MOL0     H54504  -1.314   8.060   1.259 -1.7900 -2.4531 -2.4776
  404MOL0     H54505  -1.515   8.140   1.197 -1.4221 -0.1952 -5.0529
  404MOL0     H54506  -1.587   8.221   0.882 -0.6488 -0.5289 -2.6809
  404MOL0     H54507  -1.723   8.303   0.931  0.4578  0.8993  1.7069
  404MOL0     H54508  -1.492   8.414   0.767  0.9174  0.2470  1.9795
  404MOL0     H54509  -1.652   8.372   0.707  0.6612 -2.4305  0.8023
  404MOL0     H54510  -1.562   8.603   0.865 -0.4302  3.7922 -1.4029
  404MOL0     H54511  -1.740   8.544   0.879  0.1306  1.1418  0.2393
  404MOL0     H54512  -1.565   8.655   0.645 -1.3323  2.7804 -2.7666
  404MOL0     H54513  -1.696   8.575   0.599 -0.6592  3.1195 -1.7427
  404MOL0     H54514  -1.744   8.815   0.779 -2.0816  0.0737 -0.1253
  404MOL0     H54515  -1.859   8.726   0.679 -0.2627 -1.0175  2.4622
  404MOL0     H54516  -1.621   8.865   0.563 -0.2077 -0.0050  1.4333
  404MOL0     H54517  -1.764   8.792   0.470  0.1671 -0.9968 -0.9259
  404MOL0     H54518  -1.899   8.976   0.542 -0.2595 -0.7854  0.4582
  404MOL0     H54519  -1.769   9.026   0.439 -0.4300  0.3243 -0.4546
  404MOL0     H54520  -1.791   9.088   0.737  1.3898  1.8701  0.4059
  404MOL0     H54521  -1.803   9.190   0.602 -0.3389 -0.6578 -1.8904
  404MOL0     H54522  -1.318   8.451   0.939  2.8884  0.4949 -0.6184
  404MOL0     H54523  -1.106   8.357   1.023  0.2365 -0.7017  0.2366
  404MOL0     H54524  -0.858   7.958   0.900 -1.6434  1.0544  1.5939
  404MOL0     H54525  -0.615   7.893   0.916 -0.1960  0.6281 -0.6003
  404MOL0     H54526   1.405   8.017   1.277  1.8376 -0.0593  0.8394
  404MOL0     H54527   1.578   8.127   1.143 -1.1165  1.4760 -2.0551
  404MOL0     H54528   1.862   8.206   0.791 -0.3950  0.2197  1.7003
  404MOL0     H54529   2.065   8.282   0.678 -0.7445  0.0978  2.9980
  404MOL0     H54530   2.320   8.321   0.560  2.2604 -1.2631 -2.4512
  404MOL0     H54531   2.296   8.305   0.732 -1.6344 -0.5569  0.3677
  404MOL0     H54532   2.535   8.345   0.660  0.2570 -0.9562  1.9587
  404MOL0     H54533   2.525   8.187   0.582  0.6830 -0.7885  0.2264
  404MOL0     H54534   2.626   8.137   0.797  0.7610 -0.1735  0.6887
  404MOL0     H54535   2.460   8.079   0.788 -0.4623  0.3751 -1.0354
  404MOL0     H54536   2.531   8.343   0.924  0.8893  0.0636 -1.8543
  404MOL0     H54537   2.555   8.192   1.001 -0.8805 -0.0183 -0.6219
  404MOL0     H54538   2.153   8.261   1.091 -1.8605 -0.9256 -2.5555
  404MOL0     H54539   2.251   7.899   0.724  0.0643 -0.5346  0.3719
  404MOL0     H54540   2.041   7.818   0.844 -0.7292  0.2229  0.1384
  405MOL0     O54541   9.782   0.943  10.284  0.4370 -0.5081  0.2879
  405MOL0     C54542   9.870   0.876  10.344 -0.1846 -0.4291  0.9772
  405MOL0     O54543   9.840   0.780  10.423  0.2735  0.1627 -0.2834
  405MOL0     C54544   9.711   0.742  10.455 -0.0080 -0.1101  0.4664
  405MOL0     C54545   9.612   0.706  10.366  0.5631 -0.3663  0.4103
  405MOL0     C54546   9.489   0.679  10.419 -0.7861  0.2422  0.0825
  405MOL0     C54547   9.456   0.687  10.557  0.3547 -0.2922 -0.4598
  405MOL0     O54548   9.335   0.653  10.614  0.2601 -0.3096  0.0324
  405MOL0     C54549   9.224   0.671  10.528  0.0068  0.0698 -0.1099
  405MOL0     C54550   9.093   0.656  10.608 -0.5637 -0.1590  0.4626
  405MOL0     C54551   8.981   0.721  10.527 -0.2157 -0.1634 -0.1399
  405MOL0     C54552   8.849   0.680  10.589  0.0478  0.1173 -0.3556
  405MOL0     C54553   8.734   0.747  10.516 -0.4740 -0.5285 -0.2023
  405MOL0     C54554   8.599   0.726  10.590  0.1256  0.0708  0.8502
  405MOL0     C54555   8.495   0.813  10.514  0.2198  0.2956  0.1609
  405MOL0     C54556   8.350   0.820  10.574  0.2114 -0.9817 -0.4980
  405MOL0     N54557   8.279   0.689  10.588 -0.1049 -1.0490 -0.4403
  405MOL0     C54558   8.295   0.613  10.698 -0.2120  0.4032  0.1306
  405MOL0     C54559   8.217   0.504  10.675 -0.7735  0.6726 -0.9503
  405MOL0     C54560   8.182   0.398  10.785  0.4068 -0.0368  0.0823
  405MOL0     C54561   8.068   0.450  10.880  0.4124  0.5742 -0.7797
  405MOL0     C54562   8.032   0.336  10.982  0.0122  0.2487  0.3914
  405MOL0     C54563   7.919   0.234  10.928 -0.3908 -0.3537 -0.0750
  405MOL0     O54564   7.795   0.303  10.915  0.0598 -0.0534  0.3814
  405MOL0     C54565   7.684   0.247  10.977  0.1799  0.1813  0.8270
  405MOL0     C54566   7.665   0.131  11.049 -0.0495  0.2045  0.1340
  405MOL0     C54567   7.555   0.111  11.134 -0.0325 -0.4890 -0.9204
  405MOL0     C54568   7.576  -0.013  11.228 -0.6002  0.2051 -0.7776
  405MOL0     C54569   7.442   0.191  11.134  0.2929 -0.3835  0.4981
  405MOL0     C54570   7.313   0.161  11.202 -0.1730  0.5499 -0.6161
  405MOL0     O54571   7.214   0.247  11.192  0.4500  0.0886  0.4701
  405MOL0     C54572   7.107   0.247  11.274 -0.0350 -0.3384  0.2558
  405MOL0     C54573   6.976   0.210  11.227 -0.3814 -0.2592 -0.2339
  405MOL0     C54574   6.871   0.213  11.317  0.9495  1.0756 -1.2806
  405MOL0     C54575   6.896   0.257  11.452  0.0159  1.3421  0.3716
  405MOL0     O54576   6.802   0.258  11.547 -0.0888 -0.4053 -0.2098
  405MOL0     C54577   6.724   0.377  11.577 -0.0694 -0.0869  0.6169
  405MOL0     C54578   6.639   0.361  11.711 -0.2014  1.1011  0.7478
  405MOL0     C54579   6.573   0.499  11.751 -0.5850  0.8291 -1.4668
  405MOL0     C54580   6.478   0.467  11.861 -0.0120  1.1883  0.2563
  405MOL0     C54581   6.433   0.597  11.923 -0.2846  0.1422  0.9599
  405MOL0     C54582   6.336   0.572  12.041 -1.0675 -0.5363 -0.4352
  405MOL0     C54583   6.195   0.535  11.989  0.1035  0.9887 -0.3301
  405MOL0     C54584   6.129   0.646  11.923  0.9294 -0.6306  0.3425
  405MOL0    Cl54585   5.954   0.614  11.906 -0.1346  0.2185 -0.4738
  405MOL0     C54586   7.020   0.288  11.492  0.3115  0.4567 -0.2080
  405MOL0     C54587   7.131   0.288  11.410 -0.1928  1.2240  1.5093
  405MOL0     O54588   7.307   0.061  11.280 -0.1854  0.8436  0.5940
  405MOL0     C54589   7.456   0.309  11.050  0.0041  0.2975 -0.0047
  405MOL0     C54590   7.577   0.337  10.979 -0.1117  0.5719 -0.1983
  405MOL0     N54591   8.166   0.521  10.555  0.5743  0.7305  0.0594
  405MOL0     N54592   8.198   0.627  10.494  0.2158  0.1462 -0.8005
  405MOL0     C54593   9.559   0.709  10.642  0.6022  0.0502 -0.1010
  405MOL0     C54594   9.685   0.747  10.591  0.3343 -0.8501  0.1011
  405MOL0     C54595  10.012   0.875  10.299 -0.3977 -0.2253  0.7969
  405MOL0     C54596  10.060   0.917  10.170 -0.3687 -0.2392  0.1333
  405MOL0     C54597  10.197   0.934  10.135  0.7729 -0.1925 -0.7480
  405MOL0     C54598  10.290   0.906  10.234 -0.1687  0.6225 -0.2504
  405MOL0     O54599  10.417   0.908  10.197  0.2292 -0.1912 -0.3419
  405MOL0     C54600  10.497   1.010  10.251 -0.4104 -0.2915  0.2554
  405MOL0     C54601  10.653   0.993  10.223 -0.0128  0.4009  0.6109
  405MOL0     C54602  10.664   0.987  10.072  0.0990  0.1725  0.9691
  405MOL0     C54603  10.810   0.981  10.021 -0.3737 -0.7810 -0.2238
  405MOL0     C54604  10.887   1.093  10.074 -1.2685 -0.0361  0.2044
  405MOL0     C54605  10.973   1.171  10.108  0.0851 -0.5508 -0.2396
  405MOL0     C54606  10.246   0.863  10.356 -0.1450  0.2988 -0.8490
  405MOL0     C54607  10.113   0.857  10.390 -0.0196  0.6388 -0.7448
  405MOL0     H54608   9.634   0.701  10.260 -0.6664 -2.4829  0.2018
  405MOL0     H54609   9.409   0.652  10.351  0.4350 -0.8472 -0.9661
  405MOL0     H54610   9.228   0.769  10.481 -1.1573 -0.2787 -0.9993
  405MOL0     H54611   9.219   0.591  10.454  1.0273  1.8127 -2.1532
  405MOL0     H54612   9.070   0.550  10.623 -2.8620  0.4430  1.6398
  405MOL0     H54613   9.101   0.706  10.705  1.3155  0.3016  0.1104
  405MOL0     H54614   8.992   0.829  10.538 -0.9956 -0.2299  1.6249
  405MOL0     H54615   8.985   0.705  10.419 -2.3849  1.1963 -0.4975
  405MOL0     H54616   8.840   0.571  10.586 -2.2692  0.2376  0.1826
  405MOL0     H54617   8.840   0.715  10.692  1.1344 -0.1334 -0.1604
  405MOL0     H54618   8.753   0.851  10.486  0.2794 -0.0920  1.6621
  405MOL0     H54619   8.722   0.699  10.419 -0.9124  0.8871 -0.8846
  405MOL0     H54620   8.579   0.619  10.593 -3.6645  0.5930 -0.0517
  405MOL0     H54621   8.613   0.767  10.691  0.0740  2.1683  0.0668
  405MOL0     H54622   8.537   0.914  10.519  2.3371 -0.6041  2.6039
  405MOL0     H54623   8.480   0.774  10.413 -0.7823  1.8884 -0.3422
  405MOL0     H54624   8.299   0.885  10.502 -0.9178 -0.5747  0.6246
  405MOL0     H54625   8.350   0.869  10.672 -0.0419 -1.5987 -0.1817
  405MOL0     H54626   8.334   0.644  10.794 -1.3599  0.1557  0.6868
  405MOL0     H54627   8.151   0.311  10.727  3.9137 -0.1608 -1.9253
  405MOL0     H54628   8.269   0.359  10.838  0.3334 -1.6117 -0.8873
  405MOL0     H54629   7.974   0.475  10.831 -0.6704 -0.0466  0.9031
  405MOL0     H54630   8.105   0.537  10.935 -0.9777 -1.4645  3.7934
  405MOL0     H54631   7.989   0.374  11.075 -0.3946 -3.5266  1.9185
  405MOL0     H54632   8.126   0.286  11.007  0.9200  1.4587 -0.4807
  405MOL0     H54633   7.919   0.145  10.992  2.2062  0.7685  1.6301
  405MOL0     H54634   7.953   0.197  10.831  0.3046 -1.0087  0.4010
  405MOL0     H54635   7.747   0.062  11.066  0.4888  1.0224  0.8955
  405MOL0     H54636   7.523  -0.105  11.199  2.4428 -2.2367  0.7669
  405MOL0     H54637   7.681  -0.041  11.219 -0.5872  0.0258 -0.0900
  405MOL0     H54638   7.553   0.007  11.333 -2.0664  1.5015 -1.2935
  405MOL0     H54639   6.947   0.177  11.128 -2.9758 -1.8490  0.9485
  405MOL0     H54640   6.765   0.201  11.295 -0.4533  0.3206  4.1716
  405MOL0     H54641   6.798   0.457  11.586  1.6470 -1.5616  0.0551
  405MOL0     H54642   6.660   0.410  11.494  0.9197  1.5698  0.4604
  405MOL0     H54643   6.556   0.297  11.679  2.2787 -1.7888 -0.4180
  405MOL0     H54644   6.697   0.306  11.784  0.7652 -0.4183 -1.0843
  405MOL0     H54645   6.526   0.553  11.668  0.4814  0.6584 -2.2084
  405MOL0     H54646   6.649   0.568  11.788 -1.5820  1.6083 -0.8377
  405MOL0     H54647   6.395   0.408  11.823 -0.3489  0.9432  1.3240
  405MOL0     H54648   6.533   0.407  11.934 -1.2937 -2.2399 -1.4071
  405MOL0     H54649   6.386   0.655  11.843 -2.2712 -0.9663  1.2859
  405MOL0     H54650   6.518   0.655  11.961  2.6697 -2.1464 -1.6269
  405MOL0     H54651   6.369   0.482  12.095  1.8411  2.1592  2.7316
  405MOL0     H54652   6.326   0.657  12.108 -0.6383  0.2148 -1.3010
  405MOL0     H54653   6.132   0.503  12.072 -0.2398  1.2205 -0.4975
  405MOL0     H54654   6.206   0.445  11.928 -0.0390 -1.3411  2.7920
  405MOL0     H54655   6.176   0.681  11.831  0.5947 -1.1463 -0.0330
  405MOL0     H54656   6.139   0.738  11.981  0.7219  0.5032 -1.3370
  405MOL0     H54657   7.023   0.317  11.597 -1.6606 -0.5004  0.1768
  405MOL0     H54658   7.230   0.322  11.440 -0.0267  0.9213  1.3099
  405MOL0     H54659   7.379   0.385  11.043 -3.7223 -3.0394  0.9428
  405MOL0     H54660   7.581   0.427  10.917  3.6372  1.1057  0.6052
  405MOL0     H54661   9.547   0.694  10.749 -0.2778 -4.1331 -0.6373
  405MOL0     H54662   9.763   0.781  10.658 -1.1004  0.9202  0.9368
  405MOL0     H54663   9.988   0.935  10.091 -1.5776 -1.7822  0.8153
  405MOL0     H54664  10.242   0.952  10.038  1.6787 -1.8629 -0.6748
  405MOL0     H54665  10.457   1.108  10.225 -0.7385  0.1124  2.1294
  405MOL0     H54666  10.485   1.009  10.360  2.1020 -0.8853  0.5990
  405MOL0     H54667  10.698   0.901  10.260  0.7779  0.3317 -0.4558
  405MOL0     H54668  10.710   1.074  10.269  1.3200 -1.0027  1.4968
  405MOL0     H54669  10.606   1.065  10.022 -0.7618 -0.9434  0.1671
  405MOL0     H54670  10.609   0.897  10.042  0.2998 -0.0491  1.2519
  405MOL0     H54671  10.806   1.000   9.913 -1.1089 -0.7681 -0.2029
  405MOL0     H54672  10.860   0.885  10.038 -0.2491 -0.5146  0.9785
  405MOL0     H54673  11.045   1.249  10.122  2.4415 -1.7652 -4.0384
  405MOL0     H54674  10.324   0.870  10.431 -0.0223 -0.0688 -0.9388
  405MOL0     H54675  10.091   0.849  10.496 -1.2504  2.3353 -0.8190
  406MOL0     O54676   3.084  10.330   8.666 -0.0554  0.5149 -0.0261
  406MOL0     C54677   3.185  10.264   8.627 -0.0122  0.4481  0.0349
  406MOL0     O54678   3.182  10.152   8.548 -0.3492 -0.3613  0.7387
  406MOL0     C54679   3.068  10.090   8.509  0.0337  0.2080 -0.6058
  406MOL0     C54680   2.960  10.160   8.460  0.1901 -0.2114  0.3719
  406MOL0     C54681   2.848  10.095   8.424 -0.2168  0.5372  0.0547
  406MOL0     C54682   2.835   9.951   8.422 -0.5414 -0.2365  0.2182
  406MOL0     O54683   2.729   9.885   8.365 -0.2182  0.4830 -0.9528
  406MOL0     C54684   2.602   9.923   8.416 -0.0314  0.8318  0.2666
  406MOL0     C54685   2.549   9.808   8.493 -0.0031  0.3021 -0.7886
  406MOL0     C54686   2.413   9.832   8.535 -0.3934  0.1337  0.1155
  406MOL0     C54687   2.364   9.714   8.627 -0.1296 -0.1715 -0.1224
  406MOL0     C54688   2.226   9.742   8.664 -0.0935  0.6778 -0.2736
  406MOL0     C54689   2.160   9.621   8.750 -0.8608 -0.5972 -0.3114
  406MOL0     C54690   2.022   9.659   8.796  0.2923  0.2116  0.1312
  406MOL0     C54691   1.931   9.541   8.838 -0.1622 -0.0954  1.2909
  406MOL0     N54692   1.789   9.581   8.837 -0.4181 -0.0020  0.5477
  406MOL0     C54693   1.712   9.559   8.728  0.0285  0.1139 -0.1807
  406MOL0     C54694   1.588   9.580   8.770  0.8099  0.6229  0.6717
  406MOL0     C54695   1.460   9.567   8.686  0.1958 -0.0041 -0.9149
  406MOL0     C54696   1.350   9.516   8.774  0.1134  0.0692  0.4824
  406MOL0     C54697   1.240   9.458   8.685 -0.1085 -0.1233  0.3499
  406MOL0     C54698   1.288   9.321   8.622  1.0041  0.1686 -0.2477
  406MOL0     O54699   1.225   9.304   8.498  0.3039 -0.2635  0.7225
  406MOL0     C54700   1.112   9.217   8.469 -0.6632 -0.6928 -0.1123
  406MOL0     C54701   1.041   9.144   8.569  0.1628  0.5877  0.7645
  406MOL0     C54702   0.929   9.068   8.532 -0.3141  0.5899 -0.2068
  406MOL0     C54703   0.834   9.036   8.649 -0.5467  0.1748  0.5332
  406MOL0     C54704   0.893   9.055   8.393 -0.3610 -0.1551  0.1651
  406MOL0     C54705   0.780   8.972   8.352 -0.0457 -0.9236  0.2424
  406MOL0     O54706   0.741   8.989   8.229  1.1756 -0.8193  0.4493
  406MOL0     C54707   0.631   8.913   8.175  0.6236  0.3795 -0.3628
  406MOL0     C54708   0.557   8.975   8.074 -0.1700 -0.8265  0.1596
  406MOL0     C54709   0.447   8.915   8.022  0.1625  0.3551  0.4280
  406MOL0     C54710   0.398   8.798   8.073  0.7830 -0.5908  0.9092
  406MOL0     O54711   0.270   8.764   8.027 -0.3822 -0.1338  0.0248
  406MOL0     C54712   0.227   8.633   8.011  0.2688 -0.2051  0.4257
  406MOL0     C54713   0.076   8.616   7.984  0.4741  0.3967  0.2871
  406MOL0     C54714   0.024   8.473   7.957 -0.0031 -0.3931  0.5096
  406MOL0     C54715  -0.123   8.462   7.991  0.4495 -0.3756 -0.1037
  406MOL0     C54716  -0.214   8.547   7.903  0.8888  0.1178 -0.1172
  406MOL0     C54717  -0.363   8.518   7.930 -0.5065 -0.3222 -0.1594
  406MOL0     C54718  -0.415   8.561   8.076 -0.2250  0.3291  0.9651
  406MOL0     C54719  -0.564   8.537   8.082  0.8461  0.1800  0.7402
  406MOL0    Cl54720  -0.613   8.359   8.073  0.2587 -0.3937 -0.0276
  406MOL0     C54721   0.462   8.738   8.175 -0.5537  0.4779 -0.1054
  406MOL0     C54722   0.582   8.789   8.219  0.6344  0.0410 -0.2278
  406MOL0     O54723   0.731   8.899   8.433 -0.0010  0.4766  0.2655
  406MOL0     C54724   0.967   9.125   8.298 -0.2052  0.7562 -0.5395
  406MOL0     C54725   1.074   9.201   8.334 -0.5126 -0.1360  0.0226
  406MOL0     N54726   1.589   9.608   8.906  0.0252 -0.0784 -0.1943
  406MOL0     N54727   1.711   9.613   8.948  0.3529 -0.2273  0.4279
  406MOL0     C54728   2.948   9.881   8.477 -0.3151  0.4502 -0.2939
  406MOL0     C54729   3.060   9.955   8.531 -0.0488  0.0747  0.0020
  406MOL0     C54730   3.312  10.295   8.687 -0.0650 -0.5643  0.0040
  406MOL0     C54731   3.336  10.428   8.726  0.2745  1.0282 -0.4646
  406MOL0     C54732   3.454  10.464   8.777 -0.6287  0.5969 -0.5984
  406MOL0     C54733   3.559  10.369   8.790  0.7771 -0.4216 -0.9055
  406MOL0     O54734   3.674  10.404   8.850  0.1187  0.4010  0.6187
  406MOL0     C54735   3.694  10.546   8.882 -1.0309 -0.5305  0.1315
  406MOL0     C54736   3.820  10.551   8.966  0.4904 -0.5034 -0.2717
  406MOL0     C54737   3.929  10.487   8.873 -0.1675  0.5791 -0.4284
  406MOL0     C54738   4.067  10.535   8.899 -0.2392 -0.0517 -0.4674
  406MOL0     C54739   4.071  10.682   8.873 -0.5495 -0.5526  0.4648
  406MOL0     C54740   4.066  10.797   8.840  0.2553  0.6498 -0.2743
  406MOL0     C54741   3.535  10.240   8.749  0.2459  0.3438  0.7902
  406MOL0     C54742   3.413  10.198   8.696 -0.6713  0.4388  0.4003
  406MOL0     H54743   2.963  10.268   8.455  1.2634 -0.2310  0.4080
  406MOL0     H54744   2.773  10.156   8.374 -1.1832 -1.0992 -0.5711
  406MOL0     H54745   2.618  10.009   8.482 -1.1362  0.9250  0.4173
  406MOL0     H54746   2.535   9.952   8.335  2.6767  2.5962 -1.4983
  406MOL0     H54747   2.546   9.716   8.433 -0.9612 -0.1594 -0.0553
  406MOL0     H54748   2.609   9.776   8.578 -2.9149  0.0507  1.3074
  406MOL0     H54749   2.406   9.928   8.587 -1.2185 -0.2308  0.7060
  406MOL0     H54750   2.349   9.848   8.447  1.3632  2.7678 -0.8073
  406MOL0     H54751   2.360   9.631   8.557 -0.0390  2.0662 -2.9395
  406MOL0     H54752   2.437   9.689   8.705 -0.6727 -0.5298  0.2794
  406MOL0     H54753   2.215   9.835   8.721  0.5566  1.0360 -0.7222
  406MOL0     H54754   2.172   9.746   8.569 -1.7386 -1.7512  0.4748
  406MOL0     H54755   2.150   9.532   8.687 -1.5221  0.5617 -1.9366
  406MOL0     H54756   2.223   9.590   8.834 -2.7961 -3.2501  0.2896
  406MOL0     H54757   2.031   9.732   8.877 -0.7527 -0.3192  0.7353
  406MOL0     H54758   1.975   9.714   8.714 -1.2846 -0.4758  0.5520
  406MOL0     H54759   1.956   9.513   8.940  1.2902  1.5030  1.4211
  406MOL0     H54760   1.956   9.456   8.772  4.0512  1.1171  1.0150
  406MOL0     H54761   1.746   9.517   8.634  0.3499 -1.2598  0.5211
  406MOL0     H54762   1.436   9.665   8.643 -0.0890  0.0387 -0.6656
  406MOL0     H54763   1.486   9.503   8.601  2.5311  1.0198 -1.0426
  406MOL0     H54764   1.300   9.589   8.839 -0.3501  0.6797 -0.5234
  406MOL0     H54765   1.376   9.428   8.833 -1.8374 -1.3966 -0.7135
  406MOL0     H54766   1.207   9.526   8.606 -2.3480 -1.0357  0.4413
  406MOL0     H54767   1.143   9.445   8.733 -0.7629 -2.2322 -1.3683
  406MOL0     H54768   1.268   9.240   8.692 -1.3180 -1.9456 -3.0955
  406MOL0     H54769   1.394   9.314   8.594  1.5291 -1.2350  1.8979
  406MOL0     H54770   1.061   9.162   8.675  1.4481 -0.3873  0.7021
  406MOL0     H54771   0.888   9.056   8.742  3.2565  0.1365 -1.4546
  406MOL0     H54772   0.745   9.099   8.645 -0.8879 -0.1571  2.2823
  406MOL0     H54773   0.806   8.931   8.648 -1.6691  0.4653 -0.0373
  406MOL0     H54774   0.596   9.070   8.038  0.4062 -0.8389  0.7300
  406MOL0     H54775   0.391   8.967   7.945 -0.9686 -0.9875  0.2924
  406MOL0     H54776   0.291   8.593   7.932 -1.4139 -0.3492 -0.9508
  406MOL0     H54777   0.248   8.566   8.095  1.1238 -1.1856 -0.5354
  406MOL0     H54778   0.023   8.655   8.072 -0.6152  0.3237 -0.3142
  406MOL0     H54779   0.059   8.682   7.898  2.1548  1.8144  0.9924
  406MOL0     H54780   0.080   8.407   8.023 -0.4676 -1.6500 -0.3205
  406MOL0     H54781   0.055   8.445   7.855  1.6547  0.0051  0.8736
  406MOL0     H54782  -0.165   8.361   7.980 -0.6687  0.2870 -2.2624
  406MOL0     H54783  -0.135   8.498   8.094  0.9847  2.0341 -0.8219
  406MOL0     H54784  -0.194   8.530   7.797  1.3148 -0.4281  0.0426
  406MOL0     H54785  -0.184   8.647   7.934 -2.0135 -0.1759  4.6441
  406MOL0     H54786  -0.431   8.546   7.849  0.8011 -1.6063 -1.7806
  406MOL0     H54787  -0.370   8.409   7.920  1.0699 -0.3314 -1.7719
  406MOL0     H54788  -0.402   8.669   8.088 -3.0903  0.6433  2.0159
  406MOL0     H54789  -0.368   8.506   8.158  1.0938  0.5032  0.3515
  406MOL0     H54790  -0.626   8.592   8.010  2.4846  1.1441  0.0024
  406MOL0     H54791  -0.592   8.570   8.182  2.2367 -1.1215  1.5987
  406MOL0     H54792   0.434   8.639   8.210  0.9087 -0.0795 -0.4415
  406MOL0     H54793   0.618   8.738   8.308 -2.8596  1.2330  2.0934
  406MOL0     H54794   0.935   9.134   8.195 -2.6578  3.4143  0.3182
  406MOL0     H54795   1.131   9.271   8.274 -0.7879 -0.1548 -0.2647
  406MOL0     H54796   2.952   9.773   8.476  3.5362  0.3397  2.5233
  406MOL0     H54797   3.143   9.908   8.582  0.2240  1.9654  1.4064
  406MOL0     H54798   3.266  10.509   8.710  1.2699  1.4907 -2.8883
  406MOL0     H54799   3.464  10.569   8.802  0.3182  0.6922 -1.3260
  406MOL0     H54800   3.708  10.600   8.788 -2.4365 -2.0053 -0.9745
  406MOL0     H54801   3.610  10.591   8.936 -1.2828  0.3612 -0.9856
  406MOL0     H54802   3.803  10.493   9.057 -4.1250  0.7408 -0.1093
  406MOL0     H54803   3.849  10.652   8.996 -1.5260 -0.2788  1.0910
  406MOL0     H54804   3.913  10.517   8.769  2.8841  2.1447 -0.5645
  406MOL0     H54805   3.928  10.378   8.885 -0.8020  0.7170  1.0144
  406MOL0     H54806   4.136  10.482   8.832 -0.4313 -0.5464 -0.2805
  406MOL0     H54807   4.095  10.510   9.002 -2.9800  0.8378  0.5828
  406MOL0     H54808   4.064  10.896   8.798 -0.4436  0.8964  0.3160
  406MOL0     H54809   3.595  10.150   8.757 -1.8774 -1.0679  1.7687
  406MOL0     H54810   3.409  10.093   8.669  2.2620  0.4215 -0.3279
  407MOL0     O54811   2.088   5.362   8.164 -0.3375  0.4066 -0.0256
  407MOL0     C54812   2.119   5.240   8.175  0.7379  0.2254  0.6720
  407MOL0     O54813   2.062   5.151   8.260  0.0498 -0.4952  0.3065
  407MOL0     C54814   1.945   5.171   8.330  0.2009 -0.5478  0.8491
  407MOL0     C54815   1.852   5.270   8.317 -0.9054  0.1769  0.8042
  407MOL0     C54816   1.741   5.289   8.403  0.4197  0.3422  0.4884
  407MOL0     C54817   1.712   5.187   8.503  0.3045 -0.0088 -0.3287
  407MOL0     O54818   1.596   5.190   8.578 -0.2164  0.2610 -0.3613
  407MOL0     C54819   1.500   5.298   8.579  0.3553  0.6307  0.1230
  407MOL0     C54820   1.396   5.271   8.697 -1.0409  0.0693 -0.1811
  407MOL0     C54821   1.273   5.355   8.685  0.6212 -0.3144 -0.9591
  407MOL0     C54822   1.165   5.299   8.771  0.0127 -0.5163 -0.4165
  407MOL0     C54823   1.046   5.396   8.794 -0.3649  0.1322  0.2587
  407MOL0     C54824   1.091   5.538   8.835 -0.1245  0.1459  0.2901
  407MOL0     C54825   0.969   5.600   8.914 -0.2272 -0.0064  0.1620
  407MOL0     C54826   1.002   5.609   9.059  0.4449 -1.0950 -0.2120
  407MOL0     N54827   0.889   5.671   9.134  0.3122 -0.0903  0.6456
  407MOL0     C54828   0.752   5.641   9.125  0.6404 -0.1047  0.0014
  407MOL0     C54829   0.687   5.709   9.216 -0.6112 -0.5306  0.4323
  407MOL0     C54830   0.546   5.715   9.229  0.3250 -0.2629 -0.4825
  407MOL0     C54831   0.479   5.819   9.131 -0.0999 -0.2381 -0.4268
  407MOL0     C54832   0.328   5.800   9.164  0.0505 -0.2160 -0.5357
  407MOL0     C54833   0.237   5.895   9.079 -0.5511 -0.4784  0.2430
  407MOL0     O54834   0.096   5.863   9.100  0.1948  0.2156  0.2919
  407MOL0     C54835   0.036   5.766   9.014 -0.2842  0.2410 -0.0544
  407MOL0     C54836  -0.098   5.779   8.977  0.8020 -0.2649  0.0163
  407MOL0     C54837  -0.164   5.684   8.896 -0.0615  0.8646  0.2102
  407MOL0     C54838  -0.309   5.699   8.860 -0.8409  0.7173  0.8395
  407MOL0     C54839  -0.094   5.579   8.840  0.7168 -0.1395  0.2810
  407MOL0     C54840  -0.148   5.474   8.753  0.1407  0.0909  0.1745
  407MOL0     O54841  -0.251   5.397   8.795 -0.0999  0.2289  0.3139
  407MOL0     C54842  -0.306   5.299   8.719 -1.2450 -0.3969  0.0525
  407MOL0     C54843  -0.444   5.279   8.733  0.6876  0.1818  0.4207
  407MOL0     C54844  -0.506   5.186   8.654 -0.3596 -0.1583  0.7150
  407MOL0     C54845  -0.423   5.093   8.573 -0.5736 -0.8083 -0.3581
  407MOL0     O54846  -0.459   4.992   8.497  0.6598  0.3090  0.2387
  407MOL0     C54847  -0.595   4.957   8.515 -0.0314 -0.4093  0.0969
  407MOL0     C54848  -0.643   4.845   8.426  0.3198 -0.1120 -0.9717
  407MOL0     C54849  -0.793   4.809   8.440  0.7291 -0.3798 -0.3219
  407MOL0     C54850  -0.840   4.696   8.343  0.7036  0.5485 -0.1358
  407MOL0     C54851  -0.983   4.655   8.371 -0.3820  0.0623 -0.1129
  407MOL0     C54852  -1.029   4.558   8.275  0.5765  0.3596  0.0657
  407MOL0     C54853  -1.184   4.527   8.286 -0.5315 -0.4429 -0.0190
  407MOL0     C54854  -1.240   4.458   8.162  0.0030  0.3525 -0.6331
  407MOL0    Cl54855  -1.149   4.298   8.144 -0.1430  0.2017  0.2438
  407MOL0     C54856  -0.287   5.112   8.571 -0.2550  0.5257 -0.0067
  407MOL0     C54857  -0.224   5.214   8.650  0.2594 -0.1060  0.0853
  407MOL0     O54858  -0.101   5.477   8.642 -0.7169  0.1748  0.0097
  407MOL0     C54859   0.045   5.574   8.869  1.1250 -0.2902  0.2516
  407MOL0     C54860   0.110   5.666   8.948  0.0876 -0.3565 -0.1028
  407MOL0     N54861   0.787   5.771   9.291  0.3493 -0.7643  0.7702
  407MOL0     N54862   0.905   5.752   9.239  0.6586 -0.1976  0.3483
  407MOL0     C54863   1.802   5.086   8.521 -0.7494  0.8783  0.3424
  407MOL0     C54864   1.911   5.076   8.431  0.5215 -0.5473  0.3704
  407MOL0     C54865   2.252   5.205   8.108  0.4018 -0.9190  0.5901
  407MOL0     C54866   2.305   5.288   8.010 -0.1189  0.3876  1.3252
  407MOL0     C54867   2.427   5.253   7.945 -0.4984  0.3849 -0.2067
  407MOL0     C54868   2.499   5.136   7.980 -0.3247 -0.3041  0.3155
  407MOL0     O54869   2.605   5.096   7.900  0.3922  0.2030  0.3563
  407MOL0     C54870   2.713   5.201   7.905 -0.3954 -1.0285 -0.4017
  407MOL0     C54871   2.832   5.172   7.815  0.6920 -0.2014 -1.1599
  407MOL0     C54872   2.901   5.045   7.864  0.0594 -0.5646 -0.3557
  407MOL0     C54873   3.011   4.990   7.773 -0.2768  0.2824 -0.6347
  407MOL0     C54874   2.959   4.890   7.677 -0.2987 -0.2588  0.7941
  407MOL0     C54875   2.920   4.801   7.603  0.0263 -0.6320 -0.2485
  407MOL0     C54876   2.440   5.053   8.065  0.0913  1.5553  0.2404
  407MOL0     C54877   2.318   5.084   8.131  0.2348 -0.0132  0.2310
  407MOL0     H54878   1.869   5.321   8.223 -1.2078 -3.0315 -1.1632
  407MOL0     H54879   1.669   5.369   8.397  0.7569  0.7135  1.2398
  407MOL0     H54880   1.552   5.393   8.595 -0.1755  0.8734  0.4356
  407MOL0     H54881   1.458   5.307   8.479  2.2954  0.6361 -0.7393
  407MOL0     H54882   1.370   5.166   8.706 -2.0065  0.2670 -0.5142
  407MOL0     H54883   1.452   5.283   8.790 -1.2932  1.1028 -0.1395
  407MOL0     H54884   1.307   5.453   8.719 -1.1645  0.3547 -0.9963
  407MOL0     H54885   1.241   5.363   8.581  2.9452  0.0879 -1.7029
  407MOL0     H54886   1.143   5.199   8.734  1.0319 -0.4107 -1.3650
  407MOL0     H54887   1.196   5.286   8.876 -2.0762  2.2355  0.6593
  407MOL0     H54888   0.980   5.391   8.707 -0.1802  0.8386  0.0745
  407MOL0     H54889   0.989   5.356   8.878 -0.0934 -1.3602 -0.2261
  407MOL0     H54890   1.176   5.531   8.904  0.4298  1.4061 -0.2323
  407MOL0     H54891   1.127   5.597   8.750 -2.9528 -0.9404 -1.8047
  407MOL0     H54892   0.931   5.696   8.878 -0.3120  0.7808  2.1996
  407MOL0     H54893   0.883   5.533   8.907 -0.6026  0.5187 -0.2633
  407MOL0     H54894   1.097   5.657   9.081 -0.0170 -0.6321  0.8216
  407MOL0     H54895   1.007   5.504   9.089 -0.7021 -0.4327  2.6195
  407MOL0     H54896   0.705   5.572   9.054  0.9345 -0.9568  0.6236
  407MOL0     H54897   0.505   5.614   9.227  0.0856 -0.1616 -1.1501
  407MOL0     H54898   0.525   5.756   9.328 -1.3446  1.3013 -1.4170
  407MOL0     H54899   0.508   5.789   9.030  0.8791 -0.7751 -0.0064
  407MOL0     H54900   0.523   5.915   9.158 -0.6341 -0.2128  0.3889
  407MOL0     H54901   0.310   5.816   9.271 -1.8946  1.6400 -1.0795
  407MOL0     H54902   0.303   5.695   9.145 -1.2697  0.1870 -1.1181
  407MOL0     H54903   0.254   5.883   8.971  0.1647 -1.0839  0.4070
  407MOL0     H54904   0.257   5.997   9.112  1.1250 -0.9202  0.7004
  407MOL0     H54905  -0.158   5.861   9.014 -0.8174 -1.5997  0.4779
  407MOL0     H54906  -0.323   5.725   8.755  2.8251  1.0053  0.3177
  407MOL0     H54907  -0.361   5.605   8.883 -0.5308  0.1099 -0.7886
  407MOL0     H54908  -0.357   5.773   8.925 -3.9670 -0.3385 -0.0825
  407MOL0     H54909  -0.492   5.341   8.808  0.7300  3.7490 -2.2429
  407MOL0     H54910  -0.614   5.172   8.661 -0.6691  1.5770  0.0481
  407MOL0     H54911  -0.614   4.943   8.622  1.7554  0.1855  0.5171
  407MOL0     H54912  -0.650   5.042   8.473  1.3468 -0.5027 -1.9956
  407MOL0     H54913  -0.626   4.878   8.323  2.3238  1.1749 -0.2899
  407MOL0     H54914  -0.582   4.756   8.444 -0.4190 -0.4977 -0.3409
  407MOL0     H54915  -0.849   4.900   8.417  1.3481  0.2158  0.4826
  407MOL0     H54916  -0.805   4.766   8.540 -0.0779 -1.3942 -0.8314
  407MOL0     H54917  -0.811   4.704   8.237  2.4443 -2.5150  0.0044
  407MOL0     H54918  -0.784   4.607   8.373 -1.4250 -1.9524 -2.9599
  407MOL0     H54919  -1.043   4.746   8.373 -0.2254  0.2306  3.4834
  407MOL0     H54920  -1.001   4.632   8.476  1.4460 -1.6479 -0.1101
  407MOL0     H54921  -1.027   4.604   8.176  0.7682  0.3434  0.0619
  407MOL0     H54922  -0.964   4.470   8.279  1.5657  1.0364 -0.7643
  407MOL0     H54923  -1.233   4.624   8.281  1.6312  0.7744  0.9229
  407MOL0     H54924  -1.188   4.474   8.381  0.9790 -1.0100 -0.2308
  407MOL0     H54925  -1.220   4.519   8.073 -0.9187 -2.4760 -2.9615
  407MOL0     H54926  -1.348   4.454   8.175 -0.0193  1.0030 -0.6103
  407MOL0     H54927  -0.231   5.041   8.511  0.0956  0.0512  0.8678
  407MOL0     H54928  -0.116   5.219   8.656  0.5960  1.9704 -4.0537
  407MOL0     H54929   0.098   5.493   8.820 -0.2942 -1.6711  0.9194
  407MOL0     H54930   0.217   5.656   8.964  0.4487  3.4770  0.9901
  407MOL0     H54931   1.786   5.015   8.601 -0.6110  2.6399  1.9897
  407MOL0     H54932   1.990   5.004   8.449  1.3327  0.8011  2.5162
  407MOL0     H54933   2.265   5.385   7.985  2.0317  1.1606  0.7014
  407MOL0     H54934   2.462   5.318   7.866 -0.4263 -0.9101 -1.2620
  407MOL0     H54935   2.673   5.302   7.891 -0.0701 -0.5348  1.8203
  407MOL0     H54936   2.754   5.203   8.007  0.6434 -0.1169 -0.8144
  407MOL0     H54937   2.901   5.257   7.821  0.7356 -0.3322  2.8351
  407MOL0     H54938   2.795   5.163   7.713 -4.1916 -1.0393  0.3998
  407MOL0     H54939   2.825   4.970   7.889 -1.8125  1.6491  1.0084
  407MOL0     H54940   2.957   5.061   7.957 -0.7495 -1.2256  0.2537
  407MOL0     H54941   3.089   4.937   7.828  0.8806 -1.0275 -3.3358
  407MOL0     H54942   3.063   5.075   7.728  0.5029 -1.3174 -2.9926
  407MOL0     H54943   2.878   4.739   7.525  0.7767 -1.9433  0.3567
  407MOL0     H54944   2.498   4.961   8.071  1.1130  2.0385 -1.6076
  407MOL0     H54945   2.272   5.013   8.198 -0.4704  0.0784 -0.1421
  408MOL0     O54946   4.650   7.778   6.505  0.0910 -0.2936 -0.2112
  408MOL0     C54947   4.700   7.791   6.392 -0.3269  0.0239 -0.0863
  408MOL0     O54948   4.668   7.891   6.298 -0.2081 -0.0002  0.1814
  408MOL0     C54949   4.558   7.978   6.328 -0.4648 -0.2336 -0.1570
  408MOL0     C54950   4.446   7.947   6.402  0.5556  0.1615  0.6635
  408MOL0     C54951   4.342   8.041   6.407 -0.6003 -1.2649  0.2498
  408MOL0     C54952   4.347   8.163   6.346 -1.1385 -0.7435 -0.0174
  408MOL0     O54953   4.251   8.261   6.348 -0.4231 -0.6748 -0.6133
  408MOL0     C54954   4.156   8.250   6.451 -0.0845  0.2457 -0.0545
  408MOL0     C54955   4.037   8.160   6.404 -0.0498  0.5714 -0.1615
  408MOL0     C54956   3.927   8.235   6.333 -0.2366 -0.7056  0.3631
  408MOL0     C54957   3.972   8.268   6.191 -0.0083 -0.0491 -0.8182
  408MOL0     C54958   3.866   8.332   6.099 -0.6378 -0.5669 -0.5467
  408MOL0     C54959   3.845   8.474   6.135 -0.2772 -0.7972 -0.7751
  408MOL0     C54960   3.718   8.530   6.073 -0.3645  0.7720 -0.5914
  408MOL0     C54961   3.722   8.690   6.081  0.7009  0.5808  0.5347
  408MOL0     N54962   3.585   8.752   6.056 -0.6720 -0.4313 -0.4879
  408MOL0     C54963   3.524   8.746   5.934  0.3262  0.4956  0.2193
  408MOL0     C54964   3.412   8.817   5.949  0.2416  0.0356  0.2426
  408MOL0     C54965   3.302   8.830   5.848  0.7065  0.0786 -0.7205
  408MOL0     C54966   3.181   8.912   5.917 -0.1412  0.2973 -0.1263
  408MOL0     C54967   3.072   8.938   5.804  0.5162 -0.6932 -1.4579
  408MOL0     C54968   2.933   8.974   5.857  0.2331 -0.5210 -0.1134
  408MOL0     O54969   2.851   8.858   5.882  0.0684 -0.1741  0.4893
  408MOL0     C54970   2.716   8.873   5.846  0.1342  0.4541  0.2151
  408MOL0     C54971   2.655   8.901   5.725 -0.9962 -0.9297 -0.1988
  408MOL0     C54972   2.521   8.904   5.695  0.5683  0.9794 -0.6909
  408MOL0     C54973   2.485   8.923   5.550 -0.1830 -0.3717  1.3933
  408MOL0     C54974   2.427   8.868   5.795  0.0652  0.0223  0.2754
  408MOL0     C54975   2.279   8.847   5.778  0.0083  0.5874  0.2885
  408MOL0     O54976   2.208   8.862   5.894 -0.1698 -0.6636  0.0078
  408MOL0     C54977   2.068   8.852   5.906  0.5731  0.5751  0.5484
  408MOL0     C54978   1.985   8.773   5.821 -0.5918  0.3012 -0.4048
  408MOL0     C54979   1.850   8.747   5.854  0.0148 -0.5651 -0.4198
  408MOL0     C54980   1.790   8.812   5.958 -0.4502  0.6122 -0.1946
  408MOL0     O54981   1.657   8.797   6.000 -0.1203  0.3817  0.3539
  408MOL0     C54982   1.573   8.716   5.923  0.4889 -0.0554  0.7062
  408MOL0     C54983   1.427   8.762   5.944 -0.0862 -0.0121 -0.0822
  408MOL0     C54984   1.319   8.682   5.859  0.4137 -0.5189  0.1980
  408MOL0     C54985   1.197   8.775   5.825 -0.2648 -0.4763 -0.3550
  408MOL0     C54986   1.070   8.688   5.786  0.1197 -0.1103 -0.3863
  408MOL0     C54987   0.956   8.786   5.763 -1.3035  0.4775  0.1315
  408MOL0     C54988   0.819   8.719   5.750  0.4182  1.0955  1.0638
  408MOL0     C54989   0.724   8.831   5.714 -0.1715 -0.4351  0.0189
  408MOL0    Cl54990   0.695   8.933   5.857 -0.3315  0.0091 -0.3991
  408MOL0     C54991   1.868   8.887   6.044 -0.4917 -0.4368  0.0335
  408MOL0     C54992   2.008   8.911   6.023  0.0816 -0.1814  0.1024
  408MOL0     O54993   2.225   8.835   5.664 -0.4697 -1.1394  0.0393
  408MOL0     C54994   2.484   8.845   5.922 -1.0171  0.0130 -0.3513
  408MOL0     C54995   2.623   8.863   5.951  0.2123 -0.4465  0.2614
  408MOL0     N54996   3.406   8.869   6.079  0.0307 -0.2244 -0.0782
  408MOL0     N54997   3.512   8.836   6.144  0.6184 -0.3385 -0.0088
  408MOL0     C54998   4.465   8.200   6.280 -0.1966 -0.3251  0.1287
  408MOL0     C54999   4.566   8.106   6.266 -0.1296 -0.5232  0.5363
  408MOL0     C55000   4.802   7.690   6.352  0.4535 -0.0222  0.7437
  408MOL0     C55001   4.845   7.684   6.220  0.0643 -0.3638  0.2513
  408MOL0     C55002   4.918   7.575   6.172  0.0667  0.3829  0.9458
  408MOL0     C55003   4.976   7.489   6.266 -0.4285 -0.0978 -0.0933
  408MOL0     O55004   5.062   7.393   6.218 -0.5107 -0.4286  0.3658
  408MOL0     C55005   5.135   7.308   6.304 -0.0507  0.1669 -0.0492
  408MOL0     C55006   5.249   7.234   6.232 -0.2263 -0.0688  0.3341
  408MOL0     C55007   5.223   7.162   6.104 -0.6587  0.2178 -0.6148
  408MOL0     C55008   5.335   7.060   6.073  0.0091 -0.3641  0.5650
  408MOL0     C55009   5.304   7.007   5.938 -0.6986  0.0896  0.4873
  408MOL0     C55010   5.292   6.965   5.824 -0.7966 -0.0060 -0.0638
  408MOL0     C55011   4.935   7.493   6.398  0.5958  0.1071 -0.0973
  408MOL0     C55012   4.857   7.604   6.438  0.4174  0.6099  0.0258
  408MOL0     H55013   4.425   7.845   6.433 -1.7538  0.1671 -0.6388
  408MOL0     H55014   4.254   7.995   6.451  0.0055 -1.0103  1.8140
  408MOL0     H55015   4.200   8.211   6.544 -1.5883 -2.3945 -0.3376
  408MOL0     H55016   4.114   8.349   6.470 -0.1510 -0.1057  1.9573
  408MOL0     H55017   4.075   8.071   6.353 -0.2945 -0.1268  0.8269
  408MOL0     H55018   3.997   8.124   6.500  0.0576  3.2943  1.0012
  408MOL0     H55019   3.832   8.181   6.335 -0.5537 -0.1500  0.6318
  408MOL0     H55020   3.908   8.324   6.393 -3.4326 -1.5370  0.7572
  408MOL0     H55021   4.059   8.333   6.204  0.8418 -1.3881  0.5423
  408MOL0     H55022   4.015   8.180   6.141  1.0534  0.0158 -0.0490
  408MOL0     H55023   3.898   8.334   5.995 -0.1824 -1.4156 -0.4285
  408MOL0     H55024   3.770   8.279   6.103 -1.4333  0.7810 -1.0682
  408MOL0     H55025   3.830   8.473   6.243 -1.4592  2.4216 -0.8061
  408MOL0     H55026   3.929   8.539   6.107 -1.0448  0.6154  0.0604
  408MOL0     H55027   3.704   8.498   5.969  1.8285 -0.6924 -0.5118
  408MOL0     H55028   3.636   8.498   6.138 -1.3790  4.7901  0.3791
  408MOL0     H55029   3.797   8.733   6.014 -0.3823  3.1845  0.8534
  408MOL0     H55030   3.760   8.722   6.179  0.8524 -0.7460  0.9214
  408MOL0     H55031   3.558   8.699   5.842 -1.5242 -1.0878  0.2632
  408MOL0     H55032   3.334   8.885   5.759 -0.1740  0.2060 -0.9775
  408MOL0     H55033   3.264   8.730   5.827  0.2750 -0.1003  0.7724
  408MOL0     H55034   3.225   9.003   5.958  2.4811 -1.5949  1.5941
  408MOL0     H55035   3.135   8.852   5.995  2.2987 -0.7637  0.5938
  408MOL0     H55036   3.064   8.846   5.744  1.3555 -3.3096  2.1155
  408MOL0     H55037   3.101   9.029   5.751  0.4276  0.4127  0.3241
  408MOL0     H55038   2.890   9.038   5.779 -0.2058  1.2248  1.4820
  408MOL0     H55039   2.930   9.033   5.949  0.0012  0.3248 -0.6485
  408MOL0     H55040   2.729   8.925   5.649 -1.0774  0.3851  0.0977
  408MOL0     H55041   2.393   8.984   5.550  0.5121  0.8067  3.7944
  408MOL0     H55042   2.557   8.992   5.504 -2.4151 -0.0559 -2.0944
  408MOL0     H55043   2.468   8.829   5.496 -1.5659  0.9941 -0.7453
  408MOL0     H55044   2.021   8.715   5.736 -0.0948 -1.9294  1.2125
  408MOL0     H55045   1.789   8.683   5.792 -2.3625 -0.3355  1.5426
  408MOL0     H55046   1.592   8.731   5.817  3.1410  1.6026  1.3097
  408MOL0     H55047   1.587   8.611   5.949  2.0443 -0.5150 -1.6596
  408MOL0     H55048   1.396   8.759   6.049 -1.1250  1.7338 -0.2981
  408MOL0     H55049   1.415   8.865   5.910 -4.0024  0.0630  1.0233
  408MOL0     H55050   1.282   8.593   5.912  0.4929 -0.7112 -0.0686
  408MOL0     H55051   1.360   8.635   5.769 -1.0830 -0.4294 -0.5599
  408MOL0     H55052   1.179   8.840   5.911 -0.5508 -0.7216 -0.2320
  408MOL0     H55053   1.235   8.835   5.742  0.0883 -0.4518 -0.1789
  408MOL0     H55054   1.053   8.621   5.870  0.7623  1.4381  1.0163
  408MOL0     H55055   1.096   8.625   5.700 -1.3019  0.4696 -1.2829
  408MOL0     H55056   0.954   8.871   5.832  0.8337 -1.4081  2.7173
  408MOL0     H55057   0.968   8.829   5.663 -0.1651 -0.6283 -0.2220
  408MOL0     H55058   0.783   8.671   5.841 -0.8656  0.2450  0.1473
  408MOL0     H55059   0.818   8.650   5.666 -1.2085  1.7020  0.5366
  408MOL0     H55060   0.634   8.780   5.679  1.0634 -1.9091 -1.1421
  408MOL0     H55061   0.764   8.893   5.633  0.5699 -2.7417 -1.4741
  408MOL0     H55062   1.808   8.949   6.109  0.7377  0.0857  0.7109
  408MOL0     H55063   2.062   8.971   6.096 -1.3983 -2.8962  3.7302
  408MOL0     H55064   2.417   8.822   6.004 -0.4793  0.9755  0.3776
  408MOL0     H55065   2.654   8.851   6.055 -4.3550 -0.4893  1.8534
  408MOL0     H55066   4.473   8.298   6.234  1.1404 -0.7784 -0.6666
  408MOL0     H55067   4.651   8.142   6.208 -0.8574 -0.6204 -0.6266
  408MOL0     H55068   4.806   7.750   6.144  0.7120 -0.2085  0.0510
  408MOL0     H55069   4.946   7.569   6.067  0.0857  1.6796  0.8589
  408MOL0     H55070   5.169   7.369   6.388  0.3505  0.7299 -0.6153
  408MOL0     H55071   5.078   7.225   6.347  0.7273 -0.1047  0.4778
  408MOL0     H55072   5.297   7.160   6.297 -0.5285 -2.1442 -1.6793
  408MOL0     H55073   5.320   7.313   6.208 -0.8785  0.6800  0.8337
  408MOL0     H55074   5.223   7.234   6.022  1.1918  0.5105 -0.3925
  408MOL0     H55075   5.129   7.107   6.116 -1.0497  0.8216 -0.8607
  408MOL0     H55076   5.335   6.973   6.139  4.4299 -1.1844 -0.1725
  408MOL0     H55077   5.433   7.107   6.089 -0.2705  0.3737  0.1635
  408MOL0     H55078   5.282   6.915   5.729  0.6450 -1.3746  0.4574
  408MOL0     H55079   4.967   7.411   6.460 -2.2739 -1.5240 -0.6140
  408MOL0     H55080   4.816   7.616   6.538  0.0857 -1.0338  0.1184
  409MOL0     O55081   6.981   6.703   2.362  0.0548 -0.4851 -0.4684
  409MOL0     C55082   6.942   6.818   2.397  0.1415  0.2124  0.3082
  409MOL0     O55083   6.825   6.882   2.345 -0.1276  0.1389 -0.1582
  409MOL0     C55084   6.757   6.806   2.246  0.8648 -0.4906 -1.1576
  409MOL0     C55085   6.644   6.735   2.287  0.0541 -0.8891 -0.4460
  409MOL0     C55086   6.569   6.663   2.199 -0.3709  0.3749 -0.6354
  409MOL0     C55087   6.598   6.655   2.058  0.1433  0.8684 -0.6665
  409MOL0     O55088   6.509   6.582   1.981  0.0261 -0.0033  0.2278
  409MOL0     C55089   6.514   6.585   1.842  0.7783 -0.8798 -1.0485
  409MOL0     C55090   6.396   6.520   1.775  0.0728  0.4678 -0.2446
  409MOL0     C55091   6.261   6.573   1.822  0.1819  0.3865 -0.9732
  409MOL0     C55092   6.162   6.482   1.739 -0.1495  0.8932 -0.9387
  409MOL0     C55093   6.020   6.541   1.727  0.0308 -0.5753  0.0619
  409MOL0     C55094   5.957   6.540   1.863  0.5227 -0.3980  0.5634
  409MOL0     C55095   5.815   6.612   1.859 -0.2544 -0.6873 -0.2235
  409MOL0     C55096   5.733   6.580   1.974  0.2161 -0.1796 -0.4206
  409MOL0     N55097   5.587   6.616   1.964 -0.3256 -0.5232 -0.1407
  409MOL0     C55098   5.542   6.739   2.008  0.4471 -0.0652 -0.3799
  409MOL0     C55099   5.410   6.744   1.996 -0.5472  0.4722  1.2907
  409MOL0     C55100   5.316   6.841   2.056 -1.0160 -0.3352  0.4075
  409MOL0     C55101   5.181   6.786   2.082  0.3672 -0.5771 -0.6356
  409MOL0     C55102   5.089   6.888   2.155 -0.8283 -0.4794 -0.2135
  409MOL0     C55103   4.955   6.822   2.187  0.1525 -0.2945  0.4400
  409MOL0     O55104   4.879   6.929   2.257  0.2631 -0.0732  0.4055
  409MOL0     C55105   4.755   6.901   2.314 -0.0956  0.2170  0.7976
  409MOL0     C55106   4.691   6.774   2.312 -0.1252  0.3890  0.1776
  409MOL0     C55107   4.573   6.759   2.384  0.1955 -0.4148  0.8060
  409MOL0     C55108   4.512   6.625   2.374  0.0915  0.7417  0.1232
  409MOL0     C55109   4.511   6.863   2.453  0.0633  0.2719 -0.5599
  409MOL0     C55110   4.377   6.851   2.523 -0.0437 -0.5355  0.5633
  409MOL0     O55111   4.312   6.971   2.547 -1.1903 -0.1712 -0.9245
  409MOL0     C55112   4.206   6.966   2.631 -0.3153  0.0180 -0.1431
  409MOL0     C55113   4.210   7.041   2.750 -0.6262 -0.8402  0.9592
  409MOL0     C55114   4.092   7.059   2.819 -0.7246  0.4416  0.1726
  409MOL0     C55115   3.968   7.015   2.767  0.6209  0.2617  0.5774
  409MOL0     O55116   3.856   7.026   2.841  0.1199 -0.6069  0.6243
  409MOL0     C55117   3.782   7.138   2.798  0.0609  0.8915  0.4740
  409MOL0     C55118   3.822   7.272   2.850 -0.0839 -0.7986 -0.2254
  409MOL0     C55119   3.712   7.383   2.826  0.1839  1.0187  0.8692
  409MOL0     C55120   3.595   7.363   2.921  1.0971  0.7682 -0.5893
  409MOL0     C55121   3.474   7.460   2.912 -0.6315 -0.1642  0.2538
  409MOL0     C55122   3.507   7.602   2.959  0.0032  0.4086  0.2977
  409MOL0     C55123   3.397   7.710   2.917 -0.6374  0.1221  0.9145
  409MOL0     C55124   3.257   7.668   2.956 -0.1410  0.2541 -0.9004
  409MOL0    Cl55125   3.134   7.767   2.889  0.4455 -0.3291  0.3038
  409MOL0     C55126   3.970   6.938   2.658  0.2858  0.2421  0.7997
  409MOL0     C55127   4.085   6.910   2.589  0.5859  0.4182  0.2773
  409MOL0     O55128   4.347   6.745   2.579 -0.2611 -0.0108 -0.7759
  409MOL0     C55129   4.586   6.984   2.458  0.9091  0.7725  0.0670
  409MOL0     C55130   4.702   7.001   2.391  0.7097 -0.2594  0.7533
  409MOL0     N55131   5.374   6.630   1.925 -0.8027  0.4368  0.3237
  409MOL0     N55132   5.478   6.552   1.922 -0.2744  0.6801 -0.2781
  409MOL0     C55133   6.708   6.735   2.019 -0.3460 -0.5085 -0.0079
  409MOL0     C55134   6.794   6.794   2.110  0.5676  1.4876 -0.0507
  409MOL0     C55135   7.028   6.884   2.499  0.2038  0.0843  0.0679
  409MOL0     C55136   6.975   6.994   2.564  0.6685 -0.4650  0.5929
  409MOL0     C55137   7.038   7.053   2.670 -0.8264 -0.4679  0.1658
  409MOL0     C55138   7.162   7.004   2.710  0.6960 -0.5475 -0.8440
  409MOL0     O55139   7.228   7.071   2.811 -0.0262  0.0432  0.0201
  409MOL0     C55140   7.279   6.986   2.916 -0.3201 -0.1112  0.0759
  409MOL0     C55141   7.331   7.068   3.029  0.0836  0.3722 -0.1786
  409MOL0     C55142   7.242   7.066   3.152  0.1525 -0.7676 -0.0056
  409MOL0     C55143   7.278   7.157   3.272 -1.3683  0.3197  0.7794
  409MOL0     C55144   7.172   7.153   3.372  0.8905  0.0574 -0.0883
  409MOL0     C55145   7.075   7.155   3.450  0.8893  0.5961  0.3964
  409MOL0     C55146   7.210   6.887   2.655  0.1544  0.5695  1.1547
  409MOL0     C55147   7.146   6.829   2.547 -0.7748  0.0466  0.5799
  409MOL0     H55148   6.614   6.748   2.390 -0.3701  0.7052 -0.7417
  409MOL0     H55149   6.482   6.606   2.229  0.4442  0.1067  1.3496
  409MOL0     H55150   6.521   6.687   1.802 -1.9537  0.6229  1.8126
  409MOL0     H55151   6.610   6.538   1.818  2.1910  0.8740  0.8036
  409MOL0     H55152   6.416   6.536   1.669  2.6647 -1.8300 -0.1977
  409MOL0     H55153   6.398   6.411   1.785  1.5915  0.3586 -1.3635
  409MOL0     H55154   6.248   6.552   1.928  0.8105 -1.0003 -1.1510
  409MOL0     H55155   6.255   6.681   1.801 -1.1516  0.4063 -0.5969
  409MOL0     H55156   6.195   6.473   1.635 -3.8188  2.7567 -2.4224
  409MOL0     H55157   6.162   6.379   1.774  0.0560  0.8986 -0.9211
  409MOL0     H55158   6.028   6.642   1.686  2.1868 -0.7751 -0.1199
  409MOL0     H55159   5.965   6.476   1.658 -0.9810  0.6457 -0.3272
  409MOL0     H55160   5.940   6.436   1.890 -0.9406 -0.5997 -0.9445
  409MOL0     H55161   6.026   6.592   1.930  2.4720  1.0728 -2.3691
  409MOL0     H55162   5.825   6.721   1.860 -0.1232 -0.7014  0.1095
  409MOL0     H55163   5.768   6.588   1.763  1.1401 -0.1138 -1.0787
  409MOL0     H55164   5.774   6.623   2.067 -2.4120  1.0061  0.2833
  409MOL0     H55165   5.741   6.471   1.984  1.4502 -0.2911 -2.1282
  409MOL0     H55166   5.593   6.817   2.065 -4.0590  1.2036  2.5314
  409MOL0     H55167   5.354   6.888   2.147 -1.3367  1.0628 -0.1616
  409MOL0     H55168   5.314   6.927   1.989  1.1137 -0.3404  0.2544
  409MOL0     H55169   5.187   6.690   2.135 -0.8986 -1.5237 -2.0843
  409MOL0     H55170   5.124   6.757   1.992 -0.6762 -1.7679  0.3700
  409MOL0     H55171   5.070   6.971   2.087 -0.4046 -0.5569 -0.4325
  409MOL0     H55172   5.136   6.922   2.248  1.3917 -2.1747 -0.6334
  409MOL0     H55173   4.965   6.741   2.260  1.5146 -0.2227  0.3686
  409MOL0     H55174   4.917   6.784   2.092  1.3376  1.1447 -0.6620
  409MOL0     H55175   4.742   6.691   2.264  1.7378  1.1582  0.7416
  409MOL0     H55176   4.404   6.618   2.357  0.3162 -2.7988 -0.6993
  409MOL0     H55177   4.547   6.580   2.281 -2.0068  0.2615 -0.4869
  409MOL0     H55178   4.535   6.568   2.465 -1.6260  0.4392  0.3943
  409MOL0     H55179   4.300   7.090   2.786  0.7484 -1.9682 -0.7428
  409MOL0     H55180   4.095   7.121   2.908 -0.4118 -0.0356  0.4976
  409MOL0     H55181   3.776   7.153   2.689 -1.1932 -0.0088  0.3928
  409MOL0     H55182   3.675   7.123   2.817 -1.0382  2.4637 -3.3739
  409MOL0     H55183   3.840   7.267   2.958 -0.7494 -2.8243 -0.1514
  409MOL0     H55184   3.916   7.310   2.809 -2.4365  3.6869 -2.1254
  409MOL0     H55185   3.666   7.374   2.727  0.3467  3.6547  0.4758
  409MOL0     H55186   3.758   7.482   2.834  1.7359  0.4167 -0.0541
  409MOL0     H55187   3.559   7.260   2.911  0.3402  0.8296  1.0733
  409MOL0     H55188   3.630   7.365   3.025 -3.0072 -2.5938  1.1615
  409MOL0     H55189   3.393   7.412   2.968  0.6572 -1.5303  1.0204
  409MOL0     H55190   3.447   7.470   2.807  0.4038  0.2853  0.0212
  409MOL0     H55191   3.519   7.609   3.067  1.1779 -2.4299  0.4305
  409MOL0     H55192   3.602   7.622   2.909  0.2435  0.1075  0.6286
  409MOL0     H55193   3.405   7.722   2.809 -0.1851  1.8806  1.0981
  409MOL0     H55194   3.423   7.807   2.961 -1.8988  0.4054  1.0668
  409MOL0     H55195   3.248   7.679   3.064 -0.8530 -0.4102 -0.8761
  409MOL0     H55196   3.233   7.563   2.933  1.2456 -0.9578  2.4986
  409MOL0     H55197   3.870   6.917   2.622 -0.6367  3.6385  1.0648
  409MOL0     H55198   4.077   6.851   2.498  0.4861  3.2672 -1.6745
  409MOL0     H55199   4.542   7.074   2.501 -2.2354  0.7616 -2.7772
  409MOL0     H55200   4.758   7.094   2.387  0.1978  0.1029  1.7584
  409MOL0     H55201   6.729   6.727   1.913 -2.1385  0.5947 -0.5017
  409MOL0     H55202   6.885   6.832   2.067  0.9113  1.3059  0.5051
  409MOL0     H55203   6.878   7.034   2.534  1.6487  0.7431 -1.1470
  409MOL0     H55204   7.001   7.148   2.707  0.3253  0.6643 -1.4846
  409MOL0     H55205   7.197   6.919   2.947 -0.9579  0.2773 -0.7368
  409MOL0     H55206   7.361   6.928   2.874  0.4438 -0.7317  2.2862
  409MOL0     H55207   7.344   7.169   2.988  0.1804  0.6799  0.5970
  409MOL0     H55208   7.428   7.029   3.061 -0.9708 -0.2581  2.5038
  409MOL0     H55209   7.237   6.963   3.189 -1.1579 -2.0865 -3.4951
  409MOL0     H55210   7.148   7.101   3.108  0.3804  0.4056  0.3938
  409MOL0     H55211   7.298   7.263   3.252  1.9587  0.1021  2.3162
  409MOL0     H55212   7.369   7.127   3.325 -0.7850  0.8203  0.0750
  409MOL0     H55213   6.998   7.153   3.525 -1.4064  0.7714 -1.8358
  409MOL0     H55214   7.312   6.860   2.678  0.2437 -1.0979 -0.8742
  409MOL0     H55215   7.192   6.745   2.496 -3.8845 -1.1522 -0.4792
  410MOL0     O55216   8.123   8.725   5.080 -0.0092 -0.1524  0.0594
  410MOL0     C55217   8.106   8.826   5.015 -0.3877  0.1203 -0.0528
  410MOL0     O55218   8.000   8.909   5.011 -0.0701 -0.0419  0.6799
  410MOL0     C55219   7.872   8.866   5.053  0.0136 -0.0206 -0.4144
  410MOL0     C55220   7.832   8.731   5.074  0.5622 -0.0812 -0.1156
  410MOL0     C55221   7.708   8.702   5.136  0.1032 -0.2887  0.6981
  410MOL0     C55222   7.621   8.802   5.172 -0.4239 -0.4509  0.5687
  410MOL0     O55223   7.500   8.782   5.229  0.3004 -0.0714  0.1791
  410MOL0     C55224   7.453   8.645   5.260  1.3656  0.0771 -0.0471
  410MOL0     C55225   7.315   8.649   5.335  0.3766  0.5122  0.4956
  410MOL0     C55226   7.265   8.524   5.405  0.9063  1.0296  0.5246
  410MOL0     C55227   7.114   8.515   5.403  0.3224 -0.0356  0.5105
  410MOL0     C55228   7.068   8.381   5.453  0.6071  0.4615 -0.0580
  410MOL0     C55229   6.917   8.368   5.472  0.1429 -1.1511 -0.0859
  410MOL0     C55230   6.885   8.235   5.543  0.2847  0.2358  0.5618
  410MOL0     C55231   6.727   8.217   5.569  0.0926  0.4231  0.3523
  410MOL0     N55232   6.700   8.133   5.694  0.1473  0.2717  0.2078
  410MOL0     C55233   6.632   8.016   5.708  0.8704 -0.6062  0.5953
  410MOL0     C55234   6.651   7.983   5.841 -0.7362 -0.7146  0.4159
  410MOL0     C55235   6.583   7.868   5.897 -0.0788  0.7774  0.1293
  410MOL0     C55236   6.662   7.738   5.884  0.3546 -0.7449  0.1821
  410MOL0     C55237   6.575   7.611   5.927 -0.6794 -0.2849  0.1309
  410MOL0     C55238   6.472   7.585   5.824  0.1475  0.0110 -0.1154
  410MOL0     O55239   6.339   7.595   5.888  0.1521  0.4290  0.1465
  410MOL0     C55240   6.267   7.708   5.872 -0.2683  1.2130 -0.1799
  410MOL0     C55241   6.238   7.773   5.750 -0.6919 -0.0228  0.7215
  410MOL0     C55242   6.169   7.894   5.746  0.3142  0.8412  0.7982
  410MOL0     C55243   6.180   7.976   5.618 -0.6018 -0.2146 -0.3730
  410MOL0     C55244   6.110   7.939   5.861 -0.2230  0.7687  0.5244
  410MOL0     C55245   6.017   8.062   5.871 -1.0516  0.3452 -0.5412
  410MOL0     O55246   5.996   8.100   6.002  0.0320 -0.1565  0.5204
  410MOL0     C55247   5.883   8.174   6.036  0.6820 -0.1272  0.1034
  410MOL0     C55248   5.759   8.179   5.956  0.6078 -0.1078  0.1612
  410MOL0     C55249   5.641   8.239   6.016 -0.8067 -0.5111 -0.4156
  410MOL0     C55250   5.646   8.305   6.143 -0.2017  0.7473  0.2239
  410MOL0     O55251   5.546   8.370   6.200  0.3204  0.1447 -0.8410
  410MOL0     C55252   5.415   8.336   6.153 -0.7578 -0.3694  0.3239
  410MOL0     C55253   5.332   8.366   6.279  0.3126  0.1185 -0.6626
  410MOL0     C55254   5.179   8.357   6.252 -0.3761 -0.0706  0.2665
  410MOL0     C55255   5.104   8.401   6.376 -0.4613  0.1617  0.0494
  410MOL0     C55256   4.956   8.366   6.368  0.3603  0.6973 -0.5623
  410MOL0     C55257   4.874   8.400   6.492 -0.9875 -0.6292  0.7147
  410MOL0     C55258   4.720   8.369   6.479 -0.1838 -0.4917  0.4739
  410MOL0     C55259   4.644   8.415   6.607 -0.0713 -0.3694  0.1990
  410MOL0    Cl55260   4.471   8.377   6.586 -0.3042  0.0533 -0.4149
  410MOL0     C55261   5.767   8.299   6.213 -0.1290  0.1459  0.4383
  410MOL0     C55262   5.876   8.229   6.167 -0.3045  0.2930 -0.1945
  410MOL0     O55263   5.971   8.113   5.768  0.2153  0.1199 -0.4987
  410MOL0     C55264   6.125   7.858   5.980  0.8048  0.1025 -0.5843
  410MOL0     C55265   6.206   7.744   5.991  0.1003  1.0218  0.7015
  410MOL0     N55266   6.713   8.091   5.908 -0.8831 -0.4064 -0.4609
  410MOL0     N55267   6.737   8.179   5.819 -0.5390  0.2030  1.0322
  410MOL0     C55268   7.657   8.938   5.144  0.6714 -0.0142  0.2931
  410MOL0     C55269   7.778   8.967   5.094 -0.4709 -0.4960 -0.1081
  410MOL0     C55270   8.220   8.868   4.937  0.1991  0.3425  0.2919
  410MOL0     C55271   8.202   8.958   4.829  0.0107  0.2552 -0.4784
  410MOL0     C55272   8.310   8.981   4.744 -0.6699  0.2437 -0.2613
  410MOL0     C55273   8.437   8.922   4.763  0.4369  0.5755  0.9600
  410MOL0     O55274   8.529   8.961   4.673  0.8676 -0.7769  0.5509
  410MOL0     C55275   8.662   8.940   4.705 -0.4054  0.4453  0.3011
  410MOL0     C55276   8.757   8.985   4.599  0.4716  0.4331 -0.5080
  410MOL0     C55277   8.904   8.973   4.638 -0.2052 -0.3647  0.6829
  410MOL0     C55278   8.991   9.061   4.541  0.5820  0.0938  0.4663
  410MOL0     C55279   9.123   9.078   4.600 -0.2724 -0.5398  0.5427
  410MOL0     C55280   9.231   9.086   4.654  0.1996 -0.2066  0.3074
  410MOL0     C55281   8.454   8.838   4.870 -1.2064  0.4191 -0.3268
  410MOL0     C55282   8.351   8.813   4.964  0.3357 -0.0211  0.0701
  410MOL0     H55283   7.900   8.647   5.065  0.6361  0.0047 -0.3690
  410MOL0     H55284   7.687   8.597   5.156  1.1097 -0.8929 -1.1827
  410MOL0     H55285   7.447   8.579   5.173  4.9065  1.2510 -1.3705
  410MOL0     H55286   7.518   8.587   5.326 -0.5950 -2.0209  0.1806
  410MOL0     H55287   7.323   8.729   5.409 -0.3611 -0.4608  1.6660
  410MOL0     H55288   7.242   8.680   5.260  0.8191 -1.5027 -0.8647
  410MOL0     H55289   7.295   8.439   5.343  0.3707 -1.2362  3.1870
  410MOL0     H55290   7.308   8.511   5.505  3.8961 -0.5629 -0.8242
  410MOL0     H55291   7.071   8.591   5.469 -0.6175  0.3510 -0.5108
  410MOL0     H55292   7.078   8.538   5.302  2.1044 -0.5002 -0.2613
  410MOL0     H55293   7.120   8.297   5.406  0.0197  0.4041 -0.6214
  410MOL0     H55294   7.103   8.369   5.556 -2.9563 -0.1450  1.2404
  410MOL0     H55295   6.890   8.456   5.531  1.8335 -0.5359 -0.1675
  410MOL0     H55296   6.866   8.381   5.376  0.2707  1.6531  0.1199
  410MOL0     H55297   6.912   8.145   5.487  3.4607  0.0264  2.1667
  410MOL0     H55298   6.943   8.236   5.636 -0.5142  1.1414  1.0566
  410MOL0     H55299   6.680   8.169   5.483  0.5049  1.4759 -0.4898
  410MOL0     H55300   6.690   8.320   5.579  2.2536  1.1685  1.0897
  410MOL0     H55301   6.580   7.964   5.629  0.5470  1.2660 -0.4851
  410MOL0     H55302   6.560   7.885   6.002 -3.2803 -0.4873 -0.2458
  410MOL0     H55303   6.488   7.854   5.844  0.1515 -0.6585  0.0284
  410MOL0     H55304   6.744   7.749   5.956 -0.1954 -1.9147  1.0229
  410MOL0     H55305   6.713   7.724   5.789  1.3423  2.2447  0.1767
  410MOL0     H55306   6.520   7.629   6.020 -1.5898  0.0636 -0.4550
  410MOL0     H55307   6.634   7.520   5.938 -1.8059 -0.8540  1.9220
  410MOL0     H55308   6.490   7.484   5.788  1.2457 -0.0332  0.5376
  410MOL0     H55309   6.467   7.649   5.735 -2.6992  0.3934  0.2057
  410MOL0     H55310   6.278   7.737   5.656  1.2125 -0.4291  1.6510
  410MOL0     H55311   6.234   7.927   5.537  1.3132 -0.4796  0.9930
  410MOL0     H55312   6.078   7.989   5.580 -0.4205  0.7434 -0.5575
  410MOL0     H55313   6.220   8.069   5.661  1.2000 -1.8122  1.6627
  410MOL0     H55314   5.747   8.134   5.858  0.4847 -0.5457  0.3777
  410MOL0     H55315   5.546   8.232   5.964 -1.7966  2.4772  0.7628
  410MOL0     H55316   5.384   8.401   6.071  1.4720  1.3972  0.7799
  410MOL0     H55317   5.393   8.231   6.128 -3.8686  0.3248 -0.2938
  410MOL0     H55318   5.367   8.296   6.355  0.8640 -0.2534 -1.2546
  410MOL0     H55319   5.361   8.469   6.303  1.7404 -0.5045  0.4668
  410MOL0     H55320   5.149   8.254   6.230 -1.3782 -0.2928  2.3766
  410MOL0     H55321   5.141   8.429   6.178  1.7126  2.3042  1.3821
  410MOL0     H55322   5.158   8.356   6.459  1.4630  0.7910 -0.8111
  410MOL0     H55323   5.109   8.509   6.393 -1.1370  0.5355 -1.9041
  410MOL0     H55324   4.955   8.257   6.356  1.8664  0.5229  0.6061
  410MOL0     H55325   4.918   8.406   6.273  1.2540  0.0982 -1.1854
  410MOL0     H55326   4.909   8.349   6.582  1.1489 -1.7100 -0.6322
  410MOL0     H55327   4.896   8.506   6.508  1.1036 -0.5143 -2.1210
  410MOL0     H55328   4.690   8.266   6.457 -1.1750  0.4122 -3.1626
  410MOL0     H55329   4.673   8.418   6.393  0.2010  2.0618  1.6220
  410MOL0     H55330   4.649   8.524   6.614 -0.9596 -0.2857 -0.3349
  410MOL0     H55331   4.675   8.367   6.701  2.3312 -0.8212 -0.7460
  410MOL0     H55332   5.764   8.345   6.311 -0.1293 -1.4399  1.2132
  410MOL0     H55333   5.951   8.218   6.245  0.2729  2.5401 -0.3573
  410MOL0     H55334   6.071   7.886   6.070  0.1650 -1.5137 -0.4413
  410MOL0     H55335   6.226   7.682   6.077 -0.3081  0.5481  0.4595
  410MOL0     H55336   7.574   9.002   5.174 -1.1938 -1.4812 -1.3974
  410MOL0     H55337   7.818   9.068   5.089 -0.8493 -0.2997  0.7789
  410MOL0     H55338   8.107   9.008   4.813 -0.3859 -0.3117  0.0610
  410MOL0     H55339   8.284   9.051   4.665 -0.2007  2.6818  1.6215
  410MOL0     H55340   8.691   8.984   4.801  1.2110 -1.0475  0.5427
  410MOL0     H55341   8.682   8.833   4.716  2.6090  0.8790  0.0837
  410MOL0     H55342   8.725   9.087   4.573 -1.1707  0.3137  0.8345
  410MOL0     H55343   8.734   8.940   4.502 -0.8058  0.6137 -0.3151
  410MOL0     H55344   8.939   8.872   4.616  1.8652  0.3665  0.3729
  410MOL0     H55345   8.927   8.989   4.744  0.4613 -4.4551  1.3108
  410MOL0     H55346   8.943   9.160   4.537  2.1647  0.8503 -1.0344
  410MOL0     H55347   9.000   9.010   4.445  1.8739 -0.0951  0.6709
  410MOL0     H55348   9.329   9.068   4.694 -0.5910  1.7624  3.4915
  410MOL0     H55349   8.548   8.786   4.886 -0.8983  1.5098  1.7416
  410MOL0     H55350   8.365   8.750   5.052 -2.4742 -0.2227  0.4619
  411MOL0     O55351   8.903   3.432   7.217  0.0060 -0.6141 -0.4485
  411MOL0     C55352   9.011   3.433   7.281 -0.3517 -0.2392 -0.4640
  411MOL0     O55353   9.018   3.425   7.421 -0.2013  0.2688  0.2151
  411MOL0     C55354   8.898   3.409   7.487 -0.6794 -0.1264  0.2414
  411MOL0     C55355   8.872   3.309   7.580  0.6932  0.0542 -0.9360
  411MOL0     C55356   8.746   3.305   7.641  0.2810 -0.2192  0.3537
  411MOL0     C55357   8.649   3.403   7.615 -0.4471  0.6366  0.9160
  411MOL0     O55358   8.540   3.389   7.693 -0.3583  0.0707  0.5583
  411MOL0     C55359   8.415   3.403   7.634  0.1426 -0.5101  0.3510
  411MOL0     C55360   8.332   3.325   7.734 -0.0500 -0.2900 -0.3837
  411MOL0     C55361   8.181   3.328   7.704 -0.0590 -0.8969  0.0686
  411MOL0     C55362   8.142   3.254   7.578  0.0769 -0.2502  0.1779
  411MOL0     C55363   7.995   3.281   7.557 -0.5277 -0.4694 -0.1152
  411MOL0     C55364   7.928   3.210   7.442  0.4146  0.1191 -1.0843
  411MOL0     C55365   7.913   3.057   7.450  0.2226  0.0572 -0.7723
  411MOL0     C55366   7.820   3.009   7.571  0.5840  0.3070 -0.2260
  411MOL0     N55367   7.682   3.058   7.573  0.1169 -0.6897  0.2482
  411MOL0     C55368   7.587   3.020   7.482  0.1232 -0.0150 -0.2245
  411MOL0     C55369   7.486   3.108   7.484 -0.9634  0.0170  0.2130
  411MOL0     C55370   7.353   3.103   7.410 -1.1250  0.1784  0.6254
  411MOL0     C55371   7.243   3.045   7.507 -0.4151  0.6971  0.7706
  411MOL0     C55372   7.258   2.894   7.534 -0.4884  0.2178 -0.6303
  411MOL0     C55373   7.163   2.842   7.646  0.2124 -0.3501 -0.1259
  411MOL0     O55374   7.177   2.706   7.649 -0.1766  0.5492  0.1720
  411MOL0     C55375   7.067   2.630   7.680 -0.2036 -0.6905  0.0876
  411MOL0     C55376   6.996   2.644   7.796 -0.0956 -0.9447  0.2987
  411MOL0     C55377   6.901   2.551   7.828  0.2028 -0.1299 -0.5415
  411MOL0     C55378   6.862   2.561   7.978  0.6186  0.0890 -0.2226
  411MOL0     C55379   6.868   2.442   7.739 -0.5027  0.2403 -0.0163
  411MOL0     C55380   6.762   2.345   7.768 -0.4480 -0.0295  0.3769
  411MOL0     O55381   6.759   2.226   7.698  0.4645  0.1022 -0.4598
  411MOL0     C55382   6.660   2.133   7.715  0.0443 -0.5185 -0.2130
  411MOL0     C55383   6.601   2.084   7.833  0.4705 -0.1246  0.3863
  411MOL0     C55384   6.499   1.987   7.827  0.7020  0.0652  0.0229
  411MOL0     C55385   6.461   1.935   7.700  0.4837 -0.2704 -0.7918
  411MOL0     O55386   6.333   1.882   7.668  0.2161  0.3407 -0.4383
  411MOL0     C55387   6.231   1.919   7.761  0.0215  0.0755  0.1510
  411MOL0     C55388   6.092   1.906   7.697  0.1236  0.9375 -0.0190
  411MOL0     C55389   6.058   1.754   7.659 -0.2134 -0.6394  0.3179
  411MOL0     C55390   5.994   1.683   7.781 -0.4190 -1.3475  0.1376
  411MOL0     C55391   5.954   1.544   7.742  0.1629  0.0243 -0.3350
  411MOL0     C55392   5.860   1.466   7.849 -1.1219 -0.1127  0.6363
  411MOL0     C55393   5.813   1.335   7.795  0.1286  0.0044 -0.0733
  411MOL0     C55394   5.907   1.222   7.842  0.2842  0.5590  0.1343
  411MOL0    Cl55395   6.065   1.218   7.747 -0.2341  0.5521 -0.1238
  411MOL0     C55396   6.537   1.969   7.591  0.0448 -0.0305 -0.3823
  411MOL0     C55397   6.632   2.062   7.602 -0.6520  0.1273 -0.3248
  411MOL0     O55398   6.690   2.370   7.867  0.2843 -0.4554 -0.5325
  411MOL0     C55399   6.935   2.434   7.615  0.1246  0.3710 -0.7922
  411MOL0     C55400   7.033   2.531   7.586 -0.0249 -0.1556 -0.1914
  411MOL0     N55401   7.523   3.205   7.570  0.4385 -0.2450 -1.1870
  411MOL0     N55402   7.637   3.171   7.632  0.7107 -0.0205  0.3446
  411MOL0     C55403   8.675   3.506   7.534  0.4450 -0.3602  0.6644
  411MOL0     C55404   8.796   3.513   7.469  0.7225  0.1448 -0.2159
  411MOL0     C55405   9.133   3.427   7.197 -0.3294 -0.7802 -0.4445
  411MOL0     C55406   9.124   3.452   7.060 -0.4738 -0.4389 -0.3150
  411MOL0     C55407   9.241   3.449   6.980  0.9206 -0.1147  0.2357
  411MOL0     C55408   9.358   3.405   7.029  0.5707  0.2384  0.2770
  411MOL0     O55409   9.469   3.397   6.948 -0.2020  0.5685 -0.0509
  411MOL0     C55410   9.561   3.287   6.970  0.0673 -0.0675  0.6815
  411MOL0     C55411   9.702   3.345   6.939 -0.0012  0.3987 -0.0736
  411MOL0     C55412   9.794   3.237   6.870  0.7552  0.2236 -0.1577
  411MOL0     C55413   9.918   3.298   6.815  0.7079  0.7189 -1.4657
  411MOL0     C55414  10.012   3.340   6.922  0.3246 -0.2842  0.2969
  411MOL0     C55415  10.070   3.393   7.014  0.1147  0.0483 -1.0115
  411MOL0     C55416   9.370   3.374   7.173 -0.1148  0.8106 -0.1934
  411MOL0     C55417   9.262   3.383   7.259  0.4604  0.7393  1.1946
  411MOL0     H55418   8.939   3.225   7.596 -2.3020 -2.1429  1.2026
  411MOL0     H55419   8.727   3.229   7.717  1.5795 -0.8623  0.0723
  411MOL0     H55420   8.395   3.511   7.628  3.5576  0.1462 -1.5153
  411MOL0     H55421   8.411   3.363   7.533  3.4547 -3.3235  1.1712
  411MOL0     H55422   8.364   3.222   7.748 -2.5559 -0.9223  1.5074
  411MOL0     H55423   8.338   3.371   7.833  1.7947  1.4819 -1.2545
  411MOL0     H55424   8.125   3.298   7.793 -2.0234 -2.5701 -1.6242
  411MOL0     H55425   8.161   3.431   7.674  1.4286 -1.1529 -2.0678
  411MOL0     H55426   8.191   3.302   7.493  0.5263  2.6568  1.9183
  411MOL0     H55427   8.178   3.152   7.591  0.7807 -0.2317 -1.4275
  411MOL0     H55428   7.948   3.257   7.653  1.9119 -1.3553  0.9430
  411MOL0     H55429   7.976   3.389   7.554 -0.1262 -0.4145 -1.9090
  411MOL0     H55430   7.834   3.261   7.416 -0.6077 -1.0277  0.1747
  411MOL0     H55431   8.000   3.221   7.360  2.7593 -1.6226  0.6193
  411MOL0     H55432   7.878   3.012   7.357 -2.6170  0.6948 -0.1361
  411MOL0     H55433   8.005   3.004   7.474 -0.4388 -1.0372 -0.5593
  411MOL0     H55434   7.872   3.039   7.662 -0.1477  1.5457 -0.1916
  411MOL0     H55435   7.825   2.900   7.565  0.3075  0.3751 -2.4998
  411MOL0     H55436   7.603   2.934   7.417  0.5122 -1.0365  1.1910
  411MOL0     H55437   7.318   3.204   7.389 -0.2262  0.1364 -1.3103
  411MOL0     H55438   7.367   3.042   7.320 -2.5266 -0.6085  0.9181
  411MOL0     H55439   7.149   3.070   7.456 -2.0228 -0.8062  2.8509
  411MOL0     H55440   7.252   3.104   7.598 -1.1065  0.4910  0.9777
  411MOL0     H55441   7.359   2.870   7.568 -1.0182 -0.2489  0.7268
  411MOL0     H55442   7.242   2.829   7.447  0.4408 -1.0810  0.1224
  411MOL0     H55443   7.064   2.869   7.609  0.4851 -0.9095 -1.3272
  411MOL0     H55444   7.187   2.886   7.743  2.0812 -0.9300 -0.2830
  411MOL0     H55445   7.032   2.711   7.873  1.0011  2.0929 -2.5864
  411MOL0     H55446   6.921   2.636   8.032  2.3569 -0.9386 -0.6211
  411MOL0     H55447   6.763   2.603   8.000  0.3580 -0.9989  0.7456
  411MOL0     H55448   6.869   2.469   8.036 -0.3211  0.7303  0.9654
  411MOL0     H55449   6.630   2.118   7.932 -0.2863 -1.2370  1.0098
  411MOL0     H55450   6.447   1.968   7.920 -0.8683  1.0038 -0.6265
  411MOL0     H55451   6.236   1.851   7.846 -0.2874 -2.4543 -1.7447
  411MOL0     H55452   6.234   2.025   7.788 -1.0194  0.0164  0.5291
  411MOL0     H55453   6.011   1.938   7.764 -1.1732  0.8033 -1.4800
  411MOL0     H55454   6.095   1.975   7.612 -2.6547  1.7051  0.4111
  411MOL0     H55455   6.153   1.710   7.624 -0.6862 -1.9432  0.5934
  411MOL0     H55456   5.987   1.766   7.576 -0.9004  3.5207  1.3183
  411MOL0     H55457   6.059   1.690   7.868 -0.9372  1.2727  0.4185
  411MOL0     H55458   5.903   1.737   7.810  1.5196  2.7715 -0.7692
  411MOL0     H55459   6.047   1.488   7.728 -0.6585 -1.9102  1.4444
  411MOL0     H55460   5.896   1.544   7.649 -0.1122 -1.8407 -0.2165
  411MOL0     H55461   5.918   1.452   7.941  0.2686 -1.2823 -0.3810
  411MOL0     H55462   5.773   1.527   7.875  1.0032  2.1738  3.0286
  411MOL0     H55463   5.809   1.351   7.687 -0.8461  0.2565 -0.0022
  411MOL0     H55464   5.710   1.318   7.828 -0.8876 -0.2876 -3.1129
  411MOL0     H55465   5.868   1.121   7.831  0.6532  0.2984  1.1396
  411MOL0     H55466   5.935   1.243   7.946 -1.8146  2.7805  0.3501
  411MOL0     H55467   6.507   1.939   7.491 -0.0072  3.5923 -1.6045
  411MOL0     H55468   6.705   2.089   7.526  0.6277  1.0773  1.1823
  411MOL0     H55469   6.918   2.351   7.548 -0.1859 -0.9597  0.8679
  411MOL0     H55470   7.085   2.533   7.490  1.9731  0.2634  0.8417
  411MOL0     H55471   8.607   3.588   7.513  1.5572  0.8962  1.8137
  411MOL0     H55472   8.823   3.598   7.407  1.5931 -0.2019 -0.3307
  411MOL0     H55473   9.036   3.502   7.021 -0.9302  0.6703  1.9570
  411MOL0     H55474   9.219   3.482   6.879 -1.8196 -2.0657  0.0625
  411MOL0     H55475   9.568   3.252   7.074 -2.2186  0.1752  0.9697
  411MOL0     H55476   9.528   3.208   6.902  2.5218  0.4488 -1.2166
  411MOL0     H55477   9.749   3.373   7.033 -0.7341  1.7748 -0.0942
  411MOL0     H55478   9.705   3.442   6.888  2.6701  1.0842  1.1828
  411MOL0     H55479   9.735   3.187   6.793 -0.6250 -1.1763  1.7059
  411MOL0     H55480   9.817   3.158   6.942 -2.2927  1.1082  1.9864
  411MOL0     H55481   9.887   3.379   6.748 -1.3522 -0.0882 -1.5602
  411MOL0     H55482   9.973   3.226   6.753  1.6162  1.1702 -1.2108
  411MOL0     H55483  10.109   3.443   7.100 -0.9484  0.0098 -0.4880
  411MOL0     H55484   9.463   3.352   7.224  0.1017 -0.0258 -0.9261
  411MOL0     H55485   9.256   3.345   7.360  1.1737  0.3966  1.1137
  412MOL0     O55486   7.110  11.066   6.852  0.2372  0.4462  0.0012
  412MOL0     C55487   7.121  11.139   6.949 -0.4136 -0.1759 -0.5441
  412MOL0     O55488   7.225  11.146   7.030  0.4911 -0.0813  0.0822
  412MOL0     C55489   7.348  11.093   7.018  1.2457 -0.3980 -1.2857
  412MOL0     C55490   7.455  11.159   7.081  0.3057 -0.2984 -0.0269
  412MOL0     C55491   7.591  11.116   7.059  1.0554 -0.2034 -0.0062
  412MOL0     C55492   7.617  11.013   6.967 -0.0046  0.0512  0.2966
  412MOL0     O55493   7.747  10.972   6.936  0.2116  0.1361  0.5196
  412MOL0     C55494   7.853  11.053   6.995  0.4066  0.0815  0.9823
  412MOL0     C55495   7.980  11.004   6.933  0.1903 -0.4691  0.1510
  412MOL0     C55496   8.031  10.871   6.995 -0.2441  0.0360  0.0043
  412MOL0     C55497   8.185  10.838   6.986 -0.8702 -0.2710  0.1776
  412MOL0     C55498   8.226  10.725   6.890  0.6109  0.4506 -0.4566
  412MOL0     C55499   8.377  10.680   6.895  0.1700  0.0712 -0.4749
  412MOL0     C55500   8.409  10.551   6.811  0.3489 -0.6056 -0.6827
  412MOL0     C55501   8.362  10.415   6.862 -1.1213 -0.5507 -0.4031
  412MOL0     N55502   8.335  10.401   7.011 -1.0754 -0.9277 -0.1064
  412MOL0     C55503   8.220  10.369   7.074 -0.2506 -0.6767  0.3194
  412MOL0     C55504   8.233  10.387   7.201 -0.8396  0.4142  0.1530
  412MOL0     C55505   8.128  10.389   7.309  0.5118 -1.3267 -0.2044
  412MOL0     C55506   8.043  10.530   7.296 -0.1137  0.6569  0.8513
  412MOL0     C55507   7.932  10.558   7.398 -0.8019  0.3800 -0.2286
  412MOL0     C55508   7.995  10.578   7.541 -0.1883 -0.1843 -0.3787
  412MOL0     O55509   7.908  10.653   7.634  0.3559 -0.1222  0.2098
  412MOL0     C55510   7.773  10.633   7.652  0.1487  0.9631  0.2006
  412MOL0     C55511   7.689  10.738   7.674  0.9976 -0.6005  0.0777
  412MOL0     C55512   7.550  10.733   7.679  0.0332 -0.2554  0.4876
  412MOL0     C55513   7.465  10.855   7.697 -0.1452 -0.1028  0.9938
  412MOL0     C55514   7.487  10.599   7.669 -0.0256 -0.0356  0.2163
  412MOL0     C55515   7.341  10.571   7.682 -0.5259  0.4872  0.7656
  412MOL0     O55516   7.254  10.672   7.715 -0.2231 -0.7114  0.3352
  412MOL0     C55517   7.114  10.660   7.707  0.5591 -0.2234 -0.3219
  412MOL0     C55518   7.051  10.734   7.811  0.4516  0.8767 -0.0989
  412MOL0     C55519   6.908  10.741   7.822  0.6409 -0.1003 -0.5454
  412MOL0     C55520   6.829  10.664   7.731 -0.0666  0.0208  0.0124
  412MOL0     O55521   6.696  10.657   7.758  0.1488  0.8532 -0.5029
  412MOL0     C55522   6.592  10.628   7.656  0.2005  0.3193  0.5967
  412MOL0     C55523   6.443  10.642   7.691  0.2995  0.2285  0.2713
  412MOL0     C55524   6.362  10.612   7.568  0.0605 -0.2095 -0.4936
  412MOL0     C55525   6.210  10.611   7.610 -1.1117 -0.3448 -0.1867
  412MOL0     C55526   6.121  10.567   7.493  0.1912  0.0254 -1.3357
  412MOL0     C55527   5.973  10.567   7.522 -1.1454  0.6394 -0.7983
  412MOL0     C55528   5.895  10.506   7.400 -0.4021 -0.1430 -0.2356
  412MOL0     C55529   5.746  10.517   7.412  0.4176  0.2128 -0.3772
  412MOL0    Cl55530   5.684  10.430   7.564  0.0213  0.3219 -0.0806
  412MOL0     C55531   6.889  10.592   7.629 -0.8136  0.7293  0.3399
  412MOL0     C55532   7.029  10.592   7.612 -0.2311  0.3619 -0.7420
  412MOL0     O55533   7.311  10.453   7.675  0.4168 -0.5936  0.3891
  412MOL0     C55534   7.575  10.484   7.649  0.2013 -0.1888  0.7313
  412MOL0     C55535   7.718  10.505   7.639 -0.5051 -0.4057 -0.1410
  412MOL0     N55536   8.363  10.425   7.226  0.7938  0.1732  0.4823
  412MOL0     N55537   8.423  10.435   7.106 -1.3552 -1.4740  0.0753
  412MOL0     C55538   7.508  10.945   6.910 -0.0123 -0.4970 -0.1281
  412MOL0     C55539   7.377  10.983   6.939  0.3898  0.2988 -0.9435
  412MOL0     C55540   7.004  11.223   6.974 -0.2106  0.5092  0.2470
  412MOL0     C55541   7.005  11.307   7.089 -0.0838  0.5672 -0.2779
  412MOL0     C55542   6.900  11.406   7.092 -0.2178  0.1864  1.0886
  412MOL0     C55543   6.787  11.412   7.005  0.1143 -0.2120 -0.2028
  412MOL0     O55544   6.685  11.501   7.045  1.2001  0.0624 -0.3598
  412MOL0     C55545   6.558  11.433   7.044  0.4368 -0.5046  0.5125
  412MOL0     C55546   6.452  11.542   7.048 -0.1036 -0.2436  0.1373
  412MOL0     C55547   6.447  11.643   7.170  0.0376  0.5677 -0.6972
  412MOL0     C55548   6.556  11.751   7.150 -0.2406 -0.6371  0.0415
  412MOL0     C55549   6.513  11.872   7.219 -0.3180  0.1777 -0.1067
  412MOL0     C55550   6.486  11.974   7.282 -0.3648 -0.1944  1.1085
  412MOL0     C55551   6.789  11.320   6.897 -0.6776  0.3562  0.7670
  412MOL0     C55552   6.898  11.227   6.877  0.1323  0.0175 -0.0767
  412MOL0     H55553   7.446  11.241   7.152 -1.8417 -0.8013  0.3208
  412MOL0     H55554   7.673  11.151   7.120  0.8824  0.8556 -0.3571
  412MOL0     H55555   7.833  11.156   6.965  0.8149  0.3115  1.4907
  412MOL0     H55556   7.864  11.053   7.104 -1.6534 -0.6720  1.2246
  412MOL0     H55557   7.963  10.989   6.826  3.4750 -1.1163 -0.3941
  412MOL0     H55558   8.060  11.079   6.938  0.6656 -0.4916 -3.7130
  412MOL0     H55559   8.003  10.878   7.101 -0.7821  1.8612 -0.2276
  412MOL0     H55560   7.975  10.784   6.958  1.1126 -1.5027  1.3739
  412MOL0     H55561   8.236  10.931   6.958 -0.3776  0.0743  2.0198
  412MOL0     H55562   8.212  10.815   7.090 -2.2074  0.6285  0.7548
  412MOL0     H55563   8.161  10.642   6.919 -1.2004  1.4736 -1.4105
  412MOL0     H55564   8.198  10.748   6.787 -2.0601  0.7108  0.2390
  412MOL0     H55565   8.429  10.764   6.847 -0.5037 -0.4993 -2.3052
  412MOL0     H55566   8.408  10.666   6.999 -1.3791 -1.2714 -0.1683
  412MOL0     H55567   8.353  10.565   6.718  1.0883 -0.5300 -1.1184
  412MOL0     H55568   8.517  10.555   6.794  0.7329  0.3704  1.5968
  412MOL0     H55569   8.440  10.342   6.837 -0.0853  0.9744 -1.8513
  412MOL0     H55570   8.271  10.401   6.803 -0.6375  1.4362 -1.7321
  412MOL0     H55571   8.134  10.329   7.020 -0.6014  0.2149  0.2127
  412MOL0     H55572   8.073  10.295   7.306  0.8801 -1.5606  0.3915
  412MOL0     H55573   8.168  10.392   7.411 -3.4189 -0.8588  1.5122
  412MOL0     H55574   8.002  10.539   7.195 -2.0379 -1.7294  1.3155
  412MOL0     H55575   8.119  10.609   7.301  0.5784 -0.0140  1.1648
  412MOL0     H55576   7.876  10.465   7.414  3.7133 -2.8356 -1.2508
  412MOL0     H55577   7.872  10.645   7.369  0.5230  0.6714 -2.2487
  412MOL0     H55578   8.091  10.629   7.530 -0.3598 -0.1590 -2.0070
  412MOL0     H55579   8.010  10.478   7.582 -2.0830  0.5748  2.4644
  412MOL0     H55580   7.743  10.830   7.693  0.7525 -0.8279  2.2550
  412MOL0     H55581   7.527  10.945   7.684 -1.7418  0.6744 -1.9684
  412MOL0     H55582   7.397  10.857   7.611  0.2838  1.7422  0.6541
  412MOL0     H55583   7.404  10.861   7.788 -0.9991  1.2361  0.3716
  412MOL0     H55584   7.105  10.786   7.889  0.5363  0.3614  0.1856
  412MOL0     H55585   6.858  10.807   7.892 -0.1913 -2.8574  1.6217
  412MOL0     H55586   6.619  10.699   7.578  3.9335 -0.9817  0.4994
  412MOL0     H55587   6.606  10.525   7.622  1.3544  0.6979 -0.1427
  412MOL0     H55588   6.405  10.578   7.771 -0.1282 -1.1625 -1.0106
  412MOL0     H55589   6.427  10.742   7.733 -0.4592 -0.4487  1.6809
  412MOL0     H55590   6.381  10.511   7.532  1.9099 -0.5913  1.3347
  412MOL0     H55591   6.383  10.685   7.490 -0.3281 -0.4256 -0.7991
  412MOL0     H55592   6.193  10.548   7.698 -2.1641 -1.4299 -1.1267
  412MOL0     H55593   6.184  10.713   7.641 -1.4308  0.0540 -1.6736
  412MOL0     H55594   6.143  10.463   7.469 -1.9790 -0.6956 -0.4729
  412MOL0     H55595   6.142  10.629   7.405  0.0991  0.4098 -1.0874
  412MOL0     H55596   5.950  10.505   7.609 -1.9750  1.0258 -0.7299
  412MOL0     H55597   5.943  10.672   7.536 -2.4755  0.4393 -1.9664
  412MOL0     H55598   5.919  10.400   7.387 -0.0787 -0.2848  1.2731
  412MOL0     H55599   5.918  10.564   7.310  0.8847  3.3586  2.1475
  412MOL0     H55600   5.707  10.472   7.320  0.2214  0.5585 -0.4634
  412MOL0     H55601   5.712  10.620   7.428 -2.2917 -0.6813  0.1002
  412MOL0     H55602   6.831  10.530   7.561  0.1222  0.2304 -0.0109
  412MOL0     H55603   7.070  10.541   7.525  1.3319  0.6358 -0.2065
  412MOL0     H55604   7.528  10.386   7.655  0.2805 -0.3576 -0.9185
  412MOL0     H55605   7.786  10.420   7.643  1.9790  1.4849 -0.1517
  412MOL0     H55606   7.524  10.865   6.839  0.0408 -1.0552  0.5042
  412MOL0     H55607   7.293  10.928   6.898 -1.1662  0.4407  1.8114
  412MOL0     H55608   7.078  11.304   7.170 -0.5234  0.8926  0.1332
  412MOL0     H55609   6.892  11.473   7.177  2.5836 -0.2228  1.7826
  412MOL0     H55610   6.549  11.371   6.954  0.6244  1.3883 -0.8666
  412MOL0     H55611   6.529  11.375   7.133  0.4504 -2.7053 -0.8371
  412MOL0     H55612   6.350  11.504   7.055 -0.5280  0.6195 -0.9211
  412MOL0     H55613   6.460  11.591   6.950 -0.5125 -0.7303 -0.1441
  412MOL0     H55614   6.465  11.592   7.266 -1.0414  0.7476 -0.3858
  412MOL0     H55615   6.352  11.695   7.180  0.1044  0.3085  2.2030
  412MOL0     H55616   6.578  11.766   7.044  0.6378 -0.8989  0.1760
  412MOL0     H55617   6.649  11.723   7.201 -1.2563 -1.4089  1.5424
  412MOL0     H55618   6.449  12.061   7.331 -1.0173 -0.2066  0.6553
  412MOL0     H55619   6.703  11.316   6.830  0.9152  2.3746 -1.5685
  412MOL0     H55620   6.887  11.156   6.795 -0.4251  0.3285 -0.2761
  413MOL0     O55621   8.869   9.890   0.143  0.4570  0.4310 -0.0224
  413MOL0     C55622   8.946   9.807   0.186 -0.1996  0.7343  0.4280
  413MOL0     O55623   8.909   9.692   0.260 -0.4309 -0.2665 -0.8008
  413MOL0     C55624   8.777   9.677   0.277 -1.1325 -0.1899 -0.1318
  413MOL0     C55625   8.715   9.748   0.384  0.7569  0.6730 -0.1648
  413MOL0     C55626   8.580   9.738   0.411 -0.4355  0.4336 -1.1325
  413MOL0     C55627   8.503   9.648   0.331 -0.7049  0.2848 -0.5089
  413MOL0     O55628   8.372   9.622   0.355  0.0150 -0.4558 -0.1159
  413MOL0     C55629   8.290   9.741   0.326 -0.3404  0.4707  0.3369
  413MOL0     C55630   8.143   9.703   0.309 -1.2479  0.1329 -0.2643
  413MOL0     C55631   8.092   9.665   0.450 -0.4874  0.0894  1.0458
  413MOL0     C55632   7.938   9.643   0.452 -1.2385 -0.4090  0.3487
  413MOL0     C55633   7.899   9.615   0.594  0.3839 -0.3480 -1.1353
  413MOL0     C55634   7.749   9.584   0.604 -0.5561  0.0809  0.2416
  413MOL0     C55635   7.706   9.558   0.751  0.5616  0.0255 -0.6005
  413MOL0     C55636   7.590   9.652   0.786  0.0715  0.3291  0.0347
  413MOL0     N55637   7.463   9.624   0.716 -0.7406  0.0798  0.1620
  413MOL0     C55638   7.346   9.605   0.785 -0.0468 -0.2423  0.0443
  413MOL0     C55639   7.260   9.563   0.684  0.7431 -0.1965 -0.6719
  413MOL0     C55640   7.105   9.545   0.705 -0.5952 -1.0480  1.0015
  413MOL0     C55641   7.059   9.449   0.598 -0.1122  0.6147  0.6145
  413MOL0     C55642   6.999   9.324   0.663 -0.8186  0.6198 -0.6032
  413MOL0     C55643   6.949   9.209   0.572 -0.4479  0.2349 -0.3476
  413MOL0     O55644   6.868   9.108   0.635 -0.7353  0.0450  0.0347
  413MOL0     C55645   6.739   9.150   0.666  0.1328  0.4065 -0.2237
  413MOL0     C55646   6.655   9.192   0.567 -0.6725  0.5607 -0.1807
  413MOL0     C55647   6.529   9.237   0.592  1.1277  0.8732 -0.2377
  413MOL0     C55648   6.457   9.307   0.478 -0.8870  0.1847  0.0329
  413MOL0     C55649   6.470   9.217   0.724 -0.3240 -0.1264 -0.6780
  413MOL0     C55650   6.330   9.252   0.758  0.1579  0.2005  0.2963
  413MOL0     O55651   6.316   9.279   0.890  0.2225  0.4869 -0.1164
  413MOL0     C55652   6.189   9.285   0.940 -0.0442  1.2355  0.1195
  413MOL0     C55653   6.116   9.170   0.941  0.5700  0.3848 -0.4730
  413MOL0     C55654   5.980   9.173   0.969  0.0370  0.0336  0.3936
  413MOL0     C55655   5.926   9.297   1.008 -0.0570 -0.6175 -0.0595
  413MOL0     O55656   5.795   9.288   1.042 -0.7012  0.2332 -0.4912
  413MOL0     C55657   5.742   9.377   1.145 -0.3345  0.5511 -0.1675
  413MOL0     C55658   5.596   9.337   1.159  0.6317 -0.3361  0.0548
  413MOL0     C55659   5.540   9.394   1.287 -0.0582  0.5898 -0.0679
  413MOL0     C55660   5.393   9.350   1.302 -0.0871  0.6615  0.1895
  413MOL0     C55661   5.345   9.386   1.447  0.1237  0.0115 -0.1018
  413MOL0     C55662   5.304   9.263   1.523 -0.4459 -0.6235  0.5616
  413MOL0     C55663   5.183   9.199   1.467  0.2025 -0.0139  0.2072
  413MOL0     C55664   5.158   9.068   1.546  0.8146 -0.2073  0.4121
  413MOL0    Cl55665   5.061   8.961   1.439  0.0674 -0.2326  0.9092
  413MOL0     C55666   6.005   9.414   1.022 -0.3704 -0.1995 -0.0131
  413MOL0     C55667   6.134   9.409   0.986 -0.3477 -0.4865  0.6953
  413MOL0     O55668   6.242   9.256   0.674 -0.0976 -0.1202  0.4223
  413MOL0     C55669   6.556   9.165   0.821 -0.4768 -0.2319 -1.1214
  413MOL0     C55670   6.691   9.142   0.800  0.2056  0.3636 -0.0161
  413MOL0     N55671   7.322   9.567   0.564  0.0067 -0.0961 -0.7855
  413MOL0     N55672   7.446   9.605   0.583 -0.6977  0.4814 -0.1907
  413MOL0     C55673   8.569   9.576   0.227  0.2693 -0.3974  0.2221
  413MOL0     C55674   8.703   9.593   0.199  0.1251  0.8653  0.4746
  413MOL0     C55675   9.088   9.825   0.154 -0.3087  0.1740 -0.7466
  413MOL0     C55676   9.127   9.909   0.054  0.0966 -0.7655  0.7062
  413MOL0     C55677   9.258   9.922   0.010 -0.6145 -0.1605  0.4637
  413MOL0     C55678   9.364   9.846   0.077  0.8028  0.8489  0.0972
  413MOL0     O55679   9.488   9.867   0.036 -0.1303 -0.2431 -0.0183
  413MOL0     C55680   9.582   9.764   0.067  0.6895 -0.2693  0.3025
  413MOL0     C55681   9.698   9.780  -0.031  0.1457  1.0705 -0.1475
  413MOL0     C55682   9.799   9.667  -0.026 -1.1095 -0.0009 -0.8129
  413MOL0     C55683   9.890   9.670  -0.155  0.2522 -0.5589  0.2797
  413MOL0     C55684   9.995   9.579  -0.129 -0.4687  0.7613  0.6155
  413MOL0     C55685  10.104   9.525  -0.119  0.1097  0.7130 -0.4894
  413MOL0     C55686   9.325   9.768   0.183 -0.5015  0.5073 -0.9721
  413MOL0     C55687   9.191   9.751   0.213  0.9037 -0.0728 -1.1573
  413MOL0     H55688   8.769   9.815   0.450  0.4437  1.9302 -1.1396
  413MOL0     H55689   8.529   9.796   0.487 -0.7504  0.4236 -1.3336
  413MOL0     H55690   8.303   9.811   0.410 -1.0134  1.7507 -0.5972
  413MOL0     H55691   8.316   9.786   0.230 -1.9231 -1.4566 -1.0707
  413MOL0     H55692   8.096   9.795   0.273 -0.7591  0.4363 -0.1405
  413MOL0     H55693   8.117   9.618   0.246  0.7411 -1.4287  0.9032
  413MOL0     H55694   8.143   9.574   0.482  1.7638  0.5435 -1.0272
  413MOL0     H55695   8.117   9.745   0.521  0.4921  1.2034 -0.4973
  413MOL0     H55696   7.895   9.736   0.413 -0.4513  0.5678  1.7579
  413MOL0     H55697   7.911   9.576   0.370  0.1317  1.9654 -2.2318
  413MOL0     H55698   7.953   9.525   0.624  0.3065 -0.3159 -0.8936
  413MOL0     H55699   7.914   9.703   0.658 -0.6561 -1.2993  0.4925
  413MOL0     H55700   7.698   9.664   0.549  1.3583  0.7949 -0.5916
  413MOL0     H55701   7.730   9.487   0.558 -0.6094 -0.0167  0.4668
  413MOL0     H55702   7.675   9.454   0.765 -0.3842  0.6538  2.8280
  413MOL0     H55703   7.786   9.584   0.819 -2.5625  1.5062  2.8544
  413MOL0     H55704   7.628   9.754   0.780  0.7167  0.1484  0.8625
  413MOL0     H55705   7.569   9.636   0.892 -0.0941 -2.7112 -0.3623
  413MOL0     H55706   7.326   9.611   0.892 -2.7495 -0.4312 -0.3842
  413MOL0     H55707   7.068   9.515   0.804 -2.1036 -2.2287  0.1204
  413MOL0     H55708   7.059   9.642   0.684  0.6583 -0.5198  0.5817
  413MOL0     H55709   7.141   9.412   0.536 -0.7814 -2.0110  1.1814
  413MOL0     H55710   6.982   9.492   0.532 -1.3244 -1.6365  0.4552
  413MOL0     H55711   6.912   9.358   0.721 -1.3180 -1.6824  0.1291
  413MOL0     H55712   7.076   9.298   0.736  1.3300  3.8282 -1.5517
  413MOL0     H55713   7.032   9.158   0.522  1.3820  2.5595  0.1629
  413MOL0     H55714   6.897   9.264   0.493 -0.3718 -1.2698 -1.4969
  413MOL0     H55715   6.696   9.202   0.467 -0.1978  3.0217  0.2128
  413MOL0     H55716   6.534   9.352   0.415 -0.4052  4.9148  3.4287
  413MOL0     H55717   6.406   9.241   0.407  0.1557  0.7273 -1.2623
  413MOL0     H55718   6.403   9.397   0.509  2.7050  2.6182 -0.2074
  413MOL0     H55719   6.161   9.078   0.903 -1.5056 -0.3344 -1.3451
  413MOL0     H55720   5.918   9.084   0.977 -3.1088  2.0227 -0.0947
  413MOL0     H55721   5.789   9.369   1.243 -0.6752  1.3064  0.0675
  413MOL0     H55722   5.750   9.483   1.118  0.7391  1.0473  1.9079
  413MOL0     H55723   5.551   9.381   1.070  1.5878  0.3578 -0.1100
  413MOL0     H55724   5.588   9.228   1.154  2.1812 -0.5070  0.5219
  413MOL0     H55725   5.552   9.503   1.286  0.7790  0.5063 -1.1591
  413MOL0     H55726   5.601   9.356   1.369 -2.0091 -3.6105 -0.3397
  413MOL0     H55727   5.337   9.399   1.222  1.8784 -2.5907 -3.5053
  413MOL0     H55728   5.384   9.242   1.292 -0.9994  0.8343 -1.0207
  413MOL0     H55729   5.256   9.450   1.447 -1.3130 -1.8945  0.5444
  413MOL0     H55730   5.421   9.442   1.503 -2.6660  1.6134  2.3912
  413MOL0     H55731   5.389   9.196   1.534  2.5416  2.9567  1.3220
  413MOL0     H55732   5.270   9.302   1.620 -5.2221  1.1877 -1.5186
  413MOL0     H55733   5.195   9.174   1.361  0.4671  0.5219  0.1065
  413MOL0     H55734   5.103   9.273   1.475  0.8508  0.8289 -0.8214
  413MOL0     H55735   5.097   9.080   1.636 -1.0813 -3.1139 -0.3199
  413MOL0     H55736   5.244   9.014   1.586  0.1919 -0.5691  1.2875
  413MOL0     H55737   5.969   9.509   1.060  1.7496  0.1613  1.2838
  413MOL0     H55738   6.200   9.492   0.964  0.0151 -1.5288 -2.6813
  413MOL0     H55739   6.518   9.151   0.922  0.4689  1.1220 -0.5488
  413MOL0     H55740   6.764   9.123   0.877  0.0314  1.0912  0.3426
  413MOL0     H55741   8.503   9.513   0.167  0.0233  0.3985 -0.3690
  413MOL0     H55742   8.742   9.536   0.116  1.4060 -0.2964  1.8255
  413MOL0     H55743   9.054   9.973   0.005  2.3138  1.2222 -0.1931
  413MOL0     H55744   9.285   9.974  -0.081 -0.7164 -0.0409  0.5025
  413MOL0     H55745   9.619   9.772   0.169 -2.2402 -1.3177  1.5551
  413MOL0     H55746   9.545   9.661   0.060  2.3780 -1.0534  2.1633
  413MOL0     H55747   9.745   9.878  -0.025 -0.8101  1.5195  0.1101
  413MOL0     H55748   9.659   9.769  -0.132  0.1370 -2.1028  0.0876
  413MOL0     H55749   9.750   9.570  -0.013 -2.7125  1.0003  1.4467
  413MOL0     H55750   9.850   9.683   0.070 -4.2405  2.5136  0.6315
  413MOL0     H55751   9.939   9.764  -0.182  1.5517 -1.5347 -0.8943
  413MOL0     H55752   9.826   9.638  -0.237  0.5274 -1.6173  0.4629
  413MOL0     H55753  10.205   9.494  -0.105 -0.3160 -1.1402 -1.1941
  413MOL0     H55754   9.394   9.710   0.243 -0.4726  0.2341 -1.2687
  413MOL0     H55755   9.181   9.681   0.295  2.5296  0.3941 -0.5126
  414MOL0     O55756   6.574   0.165   4.086  0.3281  0.1975 -0.0144
  414MOL0     C55757   6.597   0.252   3.998 -0.2381  0.6054 -0.3200
  414MOL0     O55758   6.515   0.349   3.958  0.5485  0.2654 -0.1327
  414MOL0     C55759   6.402   0.364   4.039 -0.0595  0.3748  0.0197
  414MOL0     C55760   6.299   0.260   4.044 -0.1224  0.2900 -0.6411
  414MOL0     C55761   6.186   0.279   4.122  0.3507  0.1801  0.4445
  414MOL0     C55762   6.185   0.386   4.215 -0.6254 -0.4912  0.3244
  414MOL0     O55763   6.087   0.398   4.312  0.3498 -0.0982  0.2232
  414MOL0     C55764   5.955   0.335   4.282  0.5179 -0.4089 -0.4828
  414MOL0     C55765   5.845   0.379   4.384 -0.0006  0.4128  0.5770
  414MOL0     C55766   5.716   0.302   4.365 -0.4905  0.5197 -0.8261
  414MOL0     C55767   5.623   0.325   4.488  0.1754  0.0966  0.1222
  414MOL0     C55768   5.492   0.245   4.471 -0.1140  0.4250  0.2243
  414MOL0     C55769   5.410   0.270   4.597 -0.0687  0.0405 -0.1908
  414MOL0     C55770   5.289   0.173   4.597  0.3845  0.1648 -0.4699
  414MOL0     C55771   5.209   0.186   4.730  0.2545  0.2296 -0.5307
  414MOL0     N55772   5.067   0.149   4.699 -0.5595  0.3610 -0.8595
  414MOL0     C55773   5.027   0.021   4.710  0.3283 -0.3808 -0.3406
  414MOL0     C55774   4.898   0.022   4.685  0.5302  0.7388 -0.0885
  414MOL0     C55775   4.822  -0.103   4.693 -0.4847  0.4386  0.1086
  414MOL0     C55776   4.682  -0.094   4.648  0.6918  0.0141  0.4496
  414MOL0     C55777   4.600  -0.023   4.761 -0.5023  0.0708  0.7033
  414MOL0     C55778   4.454   0.028   4.736  0.0553 -0.4231 -0.8633
  414MOL0     O55779   4.435   0.127   4.638 -0.4798 -0.2783 -0.1399
  414MOL0     C55780   4.308   0.175   4.620 -0.5607  1.1808 -0.3464
  414MOL0     C55781   4.292   0.275   4.524  0.6615  0.1411  0.2141
  414MOL0     C55782   4.173   0.339   4.504 -0.0426  0.1029  0.2133
  414MOL0     C55783   4.176   0.443   4.408  0.2959 -1.1166  0.0658
  414MOL0     C55784   4.063   0.300   4.576 -0.2140 -0.2711 -0.2084
  414MOL0     C55785   3.925   0.350   4.545  0.0492 -0.2066  0.0217
  414MOL0     O55786   3.832   0.320   4.640  0.4077  0.4586 -0.1345
  414MOL0     C55787   3.705   0.368   4.647  0.2579 -0.2701  0.1867
  414MOL0     C55788   3.664   0.490   4.600  0.1137 -0.8351 -0.1089
  414MOL0     C55789   3.532   0.533   4.610  0.6904  0.3471 -0.6733
  414MOL0     C55790   3.434   0.453   4.673  0.3929 -0.8640  0.6051
  414MOL0     O55791   3.306   0.501   4.682  0.4095 -0.1807 -0.1671
  414MOL0     C55792   3.213   0.429   4.756 -0.4684  0.3887 -0.4410
  414MOL0     C55793   3.084   0.498   4.759 -0.2306 -0.8559 -0.2154
  414MOL0     C55794   2.969   0.409   4.789  0.1208  0.3680 -1.0260
  414MOL0     C55795   2.834   0.496   4.798 -0.5100  0.0807  0.2363
  414MOL0     C55796   2.724   0.421   4.872 -0.0675  0.0164  0.2182
  414MOL0     C55797   2.726   0.272   4.842  0.5230 -0.2265  0.6050
  414MOL0     C55798   2.606   0.224   4.933  0.3359 -0.7425  0.7565
  414MOL0     C55799   2.583   0.077   4.937  0.6552 -0.1586 -0.0862
  414MOL0    Cl55800   2.714  -0.009   5.020 -0.2471  0.1732 -0.4287
  414MOL0     C55801   3.482   0.323   4.723 -0.2413 -0.0012 -0.3337
  414MOL0     C55802   3.618   0.288   4.712 -0.5362 -0.7858  0.6002
  414MOL0     O55803   3.901   0.410   4.444  0.4975 -0.1286 -0.5324
  414MOL0     C55804   4.072   0.195   4.665 -0.1810  0.3387  0.3606
  414MOL0     C55805   4.197   0.130   4.685 -0.2008  0.1406  0.8575
  414MOL0     N55806   4.864   0.152   4.639 -0.1382  0.1357 -0.8041
  414MOL0     N55807   4.971   0.227   4.647  0.3951  0.1848 -0.5158
  414MOL0     C55808   6.287   0.480   4.217  1.0336  0.1718  0.0585
  414MOL0     C55809   6.391   0.478   4.129 -0.1677 -0.4003 -0.5301
  414MOL0     C55810   6.737   0.250   3.946 -0.3849 -0.5994 -0.3506
  414MOL0     C55811   6.842   0.173   4.007 -0.4946  0.5649  0.3587
  414MOL0     C55812   6.965   0.168   3.950 -0.3628 -0.5321  0.1409
  414MOL0     C55813   6.989   0.232   3.829 -0.0212  0.1947 -1.2510
  414MOL0     O55814   7.106   0.223   3.756 -0.3885 -0.6226  0.3181
  414MOL0     C55815   7.192   0.116   3.786 -0.0101 -0.4503  0.4159
  414MOL0     C55816   7.322   0.138   3.723 -0.3496  0.0101  0.0819
  414MOL0     C55817   7.380   0.278   3.753 -0.6767  0.4817 -0.7257
  414MOL0     C55818   7.435   0.277   3.895 -0.1809 -0.5593  0.9641
  414MOL0     C55819   7.549   0.188   3.902 -0.0559 -0.7038  0.4940
  414MOL0     C55820   7.641   0.115   3.908  0.0322  1.4278  0.2268
  414MOL0     C55821   6.881   0.294   3.761 -0.4387 -0.6049  0.0511
  414MOL0     C55822   6.758   0.306   3.813 -0.7398  0.3142  0.0242
  414MOL0     H55823   6.308   0.166   3.991  0.0214  0.0041 -0.1103
  414MOL0     H55824   6.104   0.208   4.114  0.7318 -0.2173  0.0450
  414MOL0     H55825   5.921   0.375   4.186 -0.0682  2.9205  0.9611
  414MOL0     H55826   5.960   0.226   4.280  0.0772 -0.4954  1.1067
  414MOL0     H55827   5.881   0.347   4.483 -2.5878 -0.6341  1.2622
  414MOL0     H55828   5.822   0.485   4.376 -0.2180  0.3968  0.9533
  414MOL0     H55829   5.663   0.346   4.280  0.0740  0.4233 -1.2344
  414MOL0     H55830   5.739   0.196   4.354 -0.9952  0.4914 -1.7718
  414MOL0     H55831   5.674   0.284   4.576 -0.1459  0.4856  0.4938
  414MOL0     H55832   5.591   0.428   4.506 -0.9818 -0.2934  0.3662
  414MOL0     H55833   5.433   0.270   4.383 -1.2372 -0.5277  0.6936
  414MOL0     H55834   5.513   0.138   4.471  3.0276  0.9226 -1.8345
  414MOL0     H55835   5.480   0.243   4.677 -0.2789  0.1686  0.0380
  414MOL0     H55836   5.383   0.376   4.601  0.6249  0.1880  0.9911
  414MOL0     H55837   5.216   0.208   4.523 -1.4270  4.2150  2.8184
  414MOL0     H55838   5.319   0.069   4.587  1.9652  0.6263 -0.8206
  414MOL0     H55839   5.202   0.288   4.770  0.5525  1.5601 -3.5908
  414MOL0     H55840   5.249   0.114   4.802 -0.7273  1.9166  1.8361
  414MOL0     H55841   5.080  -0.065   4.749  0.6801 -0.9627 -2.0510
  414MOL0     H55842   4.883  -0.172   4.634  0.0025 -0.2705  1.3873
  414MOL0     H55843   4.819  -0.135   4.798 -1.0417 -0.4605 -0.1700
  414MOL0     H55844   4.640  -0.188   4.613  0.2350  1.0958 -2.1356
  414MOL0     H55845   4.677  -0.028   4.561 -0.0316  2.7297  2.3860
  414MOL0     H55846   4.660   0.059   4.803 -0.0824  0.6959 -1.0388
  414MOL0     H55847   4.599  -0.103   4.835  0.5750 -0.7533 -0.1421
  414MOL0     H55848   4.415   0.054   4.835  2.2527 -1.2781  0.3067
  414MOL0     H55849   4.405  -0.059   4.692 -0.3774 -1.2174  1.0863
  414MOL0     H55850   4.374   0.300   4.458 -2.2047  0.5331 -3.5342
  414MOL0     H55851   4.108   0.526   4.430  1.1479 -0.1598 -0.7390
  414MOL0     H55852   4.280   0.477   4.405 -0.4906  2.2511  3.2204
  414MOL0     H55853   4.143   0.408   4.310 -0.0808  1.0729 -0.6664
  414MOL0     H55854   3.733   0.565   4.562  0.0124 -0.8012 -0.2248
  414MOL0     H55855   3.498   0.630   4.577  1.6354  0.6896 -0.6893
  414MOL0     H55856   3.192   0.328   4.718 -0.6832  0.0995  0.4374
  414MOL0     H55857   3.250   0.419   4.858 -2.4595 -1.3015  0.1880
  414MOL0     H55858   3.091   0.575   4.837  1.7348  0.3084 -1.4659
  414MOL0     H55859   3.061   0.546   4.663 -1.9914  0.1166  0.6325
  414MOL0     H55860   2.990   0.361   4.885 -1.9960  0.8735 -0.2459
  414MOL0     H55861   2.950   0.331   4.715 -0.9974 -0.3716 -0.0237
  414MOL0     H55862   2.865   0.593   4.839 -0.2748  0.5300 -0.9590
  414MOL0     H55863   2.797   0.508   4.696  1.8921  0.3646 -0.6515
  414MOL0     H55864   2.629   0.474   4.863  1.0873  2.3990  1.1768
  414MOL0     H55865   2.753   0.419   4.978  3.0979 -3.7390 -0.4744
  414MOL0     H55866   2.718   0.256   4.734  1.0830  0.7908  0.3951
  414MOL0     H55867   2.820   0.220   4.863  1.0305 -1.1010 -3.1316
  414MOL0     H55868   2.518   0.271   4.888 -0.4879 -2.9856 -0.1185
  414MOL0     H55869   2.617   0.260   5.035  1.9821 -0.9535  0.6808
  414MOL0     H55870   2.565   0.039   4.836  1.6180  0.5878 -0.5462
  414MOL0     H55871   2.496   0.054   5.000 -0.8165  1.1227 -1.5511
  414MOL0     H55872   3.411   0.258   4.772 -0.2071  2.4920  3.4307
  414MOL0     H55873   3.655   0.192   4.745  0.9142 -0.4731 -0.0416
  414MOL0     H55874   3.980   0.157   4.707 -0.9695 -1.7834 -2.9707
  414MOL0     H55875   4.193   0.048   4.756 -0.7825 -0.6509 -0.0513
  414MOL0     H55876   6.276   0.543   4.305  2.4304 -0.6211  0.8347
  414MOL0     H55877   6.464   0.558   4.139 -1.2244  0.3002  3.8608
  414MOL0     H55878   6.822   0.122   4.101 -0.3025  2.0008  1.2094
  414MOL0     H55879   7.039   0.103   3.995  0.4953  0.4140  0.1381
  414MOL0     H55880   7.208   0.117   3.895 -4.0086  0.5637  1.1528
  414MOL0     H55881   7.154   0.015   3.766 -1.3722 -0.3092  2.0946
  414MOL0     H55882   7.297   0.133   3.617  2.5244 -1.3768 -0.6428
  414MOL0     H55883   7.391   0.057   3.751  0.3459  0.9603  1.1965
  414MOL0     H55884   7.307   0.357   3.734  1.1368  1.7251 -3.0376
  414MOL0     H55885   7.460   0.302   3.683 -2.1630  0.5597 -2.4568
  414MOL0     H55886   7.356   0.242   3.962  1.3024 -3.7775  1.1982
  414MOL0     H55887   7.459   0.380   3.923 -0.2094 -0.1516 -0.3993
  414MOL0     H55888   7.718   0.042   3.926 -0.0546  0.8123 -1.6665
  414MOL0     H55889   6.894   0.339   3.663 -1.1483 -0.3600  0.0619
  414MOL0     H55890   6.689   0.361   3.750 -2.1465 -1.5549 -0.1422
  415MOL0     O55891   5.032   8.714   9.569 -0.1215 -0.7878 -0.1643
  415MOL0     C55892   5.062   8.618   9.499  0.1429 -0.0626 -0.4352
  415MOL0     O55893   4.981   8.505   9.490  0.2396 -0.0384  0.0856
  415MOL0     C55894   4.852   8.526   9.503  0.5028  0.0481  0.2880
  415MOL0     C55895   4.798   8.526   9.630  0.1118  0.6743 -0.0372
  415MOL0     C55896   4.663   8.535   9.655  1.3546  0.5737 -0.4297
  415MOL0     C55897   4.567   8.546   9.551 -0.8692  0.0916  0.2938
  415MOL0     O55898   4.434   8.571   9.575  0.0042 -0.0732  0.8110
  415MOL0     C55899   4.347   8.629   9.474 -0.0630  0.1566 -0.2176
  415MOL0     C55900   4.266   8.513   9.433  1.1048 -0.3431  0.4937
  415MOL0     C55901   4.183   8.548   9.314  0.4570 -0.0856 -0.2311
  415MOL0     C55902   4.076   8.653   9.344  0.2108  0.2851  0.0950
  415MOL0     C55903   3.990   8.664   9.215  0.2099 -0.5111  0.6362
  415MOL0     C55904   3.881   8.553   9.207  0.9115 -0.5129  0.2487
  415MOL0     C55905   3.742   8.595   9.250  0.1580 -0.4649  0.4533
  415MOL0     C55906   3.722   8.595   9.406 -0.3805  0.4026  0.0643
  415MOL0     N55907   3.579   8.634   9.426  0.0406  1.0370  0.6816
  415MOL0     C55908   3.491   8.564   9.506  0.1895 -0.1060  0.0476
  415MOL0     C55909   3.378   8.642   9.507 -0.2812 -0.1445 -0.4389
  415MOL0     C55910   3.250   8.614   9.588  0.0866 -0.0989 -0.1585
  415MOL0     C55911   3.135   8.667   9.517  0.8711  0.5757 -0.4463
  415MOL0     C55912   3.004   8.595   9.569 -0.4801  0.1782  0.7993
  415MOL0     C55913   2.879   8.642   9.511 -0.1062  0.0920  0.5681
  415MOL0     O55914   2.839   8.772   9.560 -0.1453  0.6362  0.5710
  415MOL0     C55915   2.706   8.807   9.552 -0.8966 -0.6045  1.0524
  415MOL0     C55916   2.656   8.874   9.662  0.4300 -1.1325  0.0741
  415MOL0     C55917   2.519   8.899   9.685 -0.4773  0.7019  0.4894
  415MOL0     C55918   2.485   8.961   9.813  0.7569 -0.6554 -0.3378
  415MOL0     C55919   2.432   8.870   9.577  0.0320  0.6198  0.4766
  415MOL0     C55920   2.295   8.890   9.578  0.1681 -1.2272 -0.2410
  415MOL0     O55921   2.226   8.919   9.460  0.9973  0.2320 -0.1674
  415MOL0     C55922   2.092   8.902   9.451  0.7241 -0.0607 -0.0699
  415MOL0     C55923   2.010   8.802   9.508 -0.1034  0.2223  0.4890
  415MOL0     C55924   1.873   8.803   9.488  0.4003  0.0331 -0.2669
  415MOL0     C55925   1.802   8.897   9.410 -1.2450 -0.3731  0.8024
  415MOL0     O55926   1.662   8.886   9.398  0.8622 -0.4896  0.6747
  415MOL0     C55927   1.592   8.971   9.306 -0.5070  0.1542 -0.5166
  415MOL0     C55928   1.453   8.920   9.261 -0.0029  0.4777 -0.1964
  415MOL0     C55929   1.370   8.902   9.391  0.5340  0.2820 -0.5048
  415MOL0     C55930   1.229   8.847   9.360 -0.0588 -0.1302  0.0947
  415MOL0     C55931   1.145   8.820   9.483  0.4288 -0.5841 -0.1615
  415MOL0     C55932   1.025   8.735   9.463  0.0785 -0.5452 -0.6971
  415MOL0     C55933   0.919   8.811   9.386  0.7187  0.5982  0.1914
  415MOL0     C55934   0.791   8.727   9.380 -0.0219  0.5107  0.0128
  415MOL0    Cl55935   0.711   8.697   9.544 -0.7237  0.0504  0.0690
  415MOL0     C55936   1.885   8.986   9.337  0.0896  0.0222 -0.3313
  415MOL0     C55937   2.027   8.995   9.359  0.5145  0.3785  0.2082
  415MOL0     O55938   2.237   8.869   9.686  0.7322  0.2232 -0.1469
  415MOL0     C55939   2.484   8.803   9.467  0.2886 -0.2525  0.2950
  415MOL0     C55940   2.614   8.769   9.449 -0.8811 -0.7233  0.2678
  415MOL0     N55941   3.397   8.762   9.431  0.0615  0.3920  0.1561
  415MOL0     N55942   3.522   8.755   9.390 -0.8016  0.8067  0.0242
  415MOL0     C55943   4.621   8.533   9.421  0.0883  0.0790 -0.0230
  415MOL0     C55944   4.758   8.519   9.397 -0.0480 -0.3075  0.0370
  415MOL0     C55945   5.198   8.622   9.431 -0.0751  0.5626 -0.1031
  415MOL0     C55946   5.256   8.744   9.399  0.8145 -0.3314  0.2815
  415MOL0     C55947   5.375   8.743   9.326  0.5144  0.0542  0.0345
  415MOL0     C55948   5.424   8.627   9.265  0.5065 -0.5505  0.0750
  415MOL0     O55949   5.543   8.650   9.198 -0.1959  0.2616  0.1197
  415MOL0     C55950   5.619   8.538   9.153  0.2382  0.0001 -0.4791
  415MOL0     C55951   5.686   8.456   9.264  0.6739  0.1460  0.7552
  415MOL0     C55952   5.780   8.531   9.365 -0.6075 -0.5487 -0.3794
  415MOL0     C55953   5.759   8.474   9.505 -0.2797  0.8200  1.1554
  415MOL0     C55954   5.863   8.522   9.593  0.6950  0.6499 -0.0629
  415MOL0     C55955   5.950   8.558   9.672  0.5344  0.2623  0.4046
  415MOL0     C55956   5.362   8.508   9.293  0.6235  0.7006  0.5843
  415MOL0     C55957   5.246   8.502   9.374  0.1392  0.9178  0.2171
  415MOL0     H55958   4.868   8.523   9.713 -2.2818 -1.7849  2.1023
  415MOL0     H55959   4.617   8.538   9.754 -3.0916 -1.1241 -2.1700
  415MOL0     H55960   4.275   8.696   9.521  0.2821 -0.9680  2.0235
  415MOL0     H55961   4.406   8.683   9.399  1.1777  0.3038  0.8230
  415MOL0     H55962   4.329   8.428   9.402  0.8325 -1.0055  1.6957
  415MOL0     H55963   4.212   8.487   9.525 -0.4625  2.4675  0.4637
  415MOL0     H55964   4.237   8.581   9.225  1.4585  0.0673  0.4312
  415MOL0     H55965   4.141   8.450   9.289 -0.7796  0.0064  1.3230
  415MOL0     H55966   4.010   8.628   9.428 -2.6223  0.8221 -1.8181
  415MOL0     H55967   4.126   8.748   9.364  2.3636 -0.9522  0.8468
  415MOL0     H55968   3.939   8.761   9.214  0.8660 -0.1659  0.5700
  415MOL0     H55969   4.062   8.665   9.133 -0.0752  2.5187  0.3026
  415MOL0     H55970   3.870   8.543   9.099  0.7683 -1.1747  0.3181
  415MOL0     H55971   3.916   8.463   9.258 -1.2915 -1.1484  0.7670
  415MOL0     H55972   3.721   8.692   9.205 -2.9618 -1.9450 -1.6286
  415MOL0     H55973   3.671   8.527   9.202  2.5820 -1.9405 -1.2396
  415MOL0     H55974   3.790   8.654   9.469 -2.2566  1.2146  1.4130
  415MOL0     H55975   3.737   8.493   9.445  0.2789  0.8819  1.1022
  415MOL0     H55976   3.508   8.471   9.560  0.4435 -0.0544  0.0565
  415MOL0     H55977   3.237   8.506   9.603  1.5823 -0.1588  0.8632
  415MOL0     H55978   3.253   8.644   9.693 -0.1038 -1.4409  0.2554
  415MOL0     H55979   3.144   8.636   9.412  1.2194  0.6084 -0.4279
  415MOL0     H55980   3.123   8.775   9.528 -1.0135  0.2590  1.1308
  415MOL0     H55981   2.992   8.596   9.678 -0.4071  0.5020  0.8056
  415MOL0     H55982   3.011   8.491   9.536 -0.5789  1.0342 -2.1601
  415MOL0     H55983   2.806   8.566   9.540  0.4654 -0.6484  0.1142
  415MOL0     H55984   2.886   8.652   9.402  0.7360  0.7562  0.6802
  415MOL0     H55985   2.732   8.916   9.726  2.8613 -1.6556 -2.2587
  415MOL0     H55986   2.440   9.059   9.793  3.5287  0.6678 -0.6059
  415MOL0     H55987   2.416   8.896   9.866 -0.6308  0.3051 -0.9201
  415MOL0     H55988   2.572   8.981   9.878  0.3637 -1.4253  0.4380
  415MOL0     H55989   2.043   8.724   9.577 -1.1263 -0.9178 -0.2688
  415MOL0     H55990   1.812   8.732   9.543 -0.8020  0.5838 -0.8474
  415MOL0     H55991   1.574   9.067   9.355 -3.3169 -0.3991 -0.3081
  415MOL0     H55992   1.658   8.990   9.221  1.6009 -4.8727 -0.3523
  415MOL0     H55993   1.416   8.994   9.189 -0.6393 -0.3933 -0.7763
  415MOL0     H55994   1.471   8.823   9.215 -1.3624 -1.2123  2.5774
  415MOL0     H55995   1.358   9.002   9.434  4.5440  0.9844 -0.6324
  415MOL0     H55996   1.406   8.831   9.466 -0.0607 -2.1982 -2.4303
  415MOL0     H55997   1.179   8.917   9.293  2.2580 -1.0978 -2.8828
  415MOL0     H55998   1.240   8.758   9.297 -0.7744 -0.4428  0.4036
  415MOL0     H55999   1.117   8.917   9.526  0.0716 -1.0979  0.7992
  415MOL0     H56000   1.213   8.769   9.553  1.4290 -2.2448 -2.2415
  415MOL0     H56001   1.056   8.640   9.420  2.5929  0.7002 -1.8427
  415MOL0     H56002   0.973   8.722   9.558  0.4638  1.2616 -0.1934
  415MOL0     H56003   0.954   8.820   9.282 -0.4773  1.6806 -0.1457
  415MOL0     H56004   0.903   8.913   9.423 -0.5782  0.1974  0.7863
  415MOL0     H56005   0.812   8.626   9.346  0.5858  0.0197  1.7266
  415MOL0     H56006   0.726   8.784   9.313  1.0245 -0.4815 -1.9078
  415MOL0     H56007   1.855   9.047   9.253  1.1172 -0.9134 -1.4154
  415MOL0     H56008   2.092   9.070   9.314 -1.6132  2.0335 -0.2190
  415MOL0     H56009   2.419   8.776   9.385 -0.4219  1.0339  0.4013
  415MOL0     H56010   2.658   8.717   9.365 -0.9700  0.2656 -0.4155
  415MOL0     H56011   4.546   8.519   9.344 -1.6107 -0.4247  1.6552
  415MOL0     H56012   4.780   8.512   9.291  0.8314  0.7326  0.1320
  415MOL0     H56013   5.217   8.843   9.421  0.3202  0.2801 -2.8998
  415MOL0     H56014   5.442   8.827   9.313  3.2374 -1.9350  0.3318
  415MOL0     H56015   5.563   8.471   9.087 -2.2878 -0.3163  1.8160
  415MOL0     H56016   5.699   8.581   9.091 -0.0694  1.5337  0.1350
  415MOL0     H56017   5.736   8.371   9.216  0.2954  0.8904 -1.0206
  415MOL0     H56018   5.613   8.400   9.324 -0.2592 -2.2427 -2.3654
  415MOL0     H56019   5.774   8.640   9.371  2.4052 -0.3276  0.0827
  415MOL0     H56020   5.882   8.503   9.340 -0.6403  1.2563 -2.9758
  415MOL0     H56021   5.770   8.365   9.493 -0.2513  0.9487 -0.0967
  415MOL0     H56022   5.661   8.505   9.541 -0.2806  3.0790 -0.6233
  415MOL0     H56023   6.019   8.589   9.748 -0.1504 -1.4438  1.7859
  415MOL0     H56024   5.400   8.421   9.241  0.8226 -0.4716  2.5963
  415MOL0     H56025   5.195   8.408   9.392  0.3832  0.7665  0.1260
  416MOL0     O56026   9.736   9.083   8.224  0.7392  0.2188 -0.2720
  416MOL0     C56027   9.799   9.178   8.176 -0.5065 -0.3705  0.6964
  416MOL0     O56028   9.747   9.298   8.153  0.2409  0.2592  0.1757
  416MOL0     C56029   9.623   9.329   8.193 -0.4333 -0.1001  0.5935
  416MOL0     C56030   9.609   9.438   8.273 -0.1651  0.9557 -0.4014
  416MOL0     C56031   9.490   9.482   8.329  0.6315  0.2701  1.1910
  416MOL0     C56032   9.382   9.409   8.293  0.3815 -0.1495 -0.0212
  416MOL0     O56033   9.268   9.456   8.360  0.4449  0.5065 -0.0034
  416MOL0     C56034   9.187   9.354   8.429 -0.3157  0.2578  0.2147
  416MOL0     C56035   9.062   9.418   8.461  0.3674 -0.6450  0.5501
  416MOL0     C56036   8.972   9.331   8.552  0.0534  1.0356 -0.1897
  416MOL0     C56037   8.834   9.393   8.560  0.2991  0.0170 -0.4614
  416MOL0     C56038   8.735   9.298   8.626 -0.5398 -0.5209  0.8892
  416MOL0     C56039   8.591   9.353   8.605  0.2234  0.4163  0.0867
  416MOL0     C56040   8.562   9.500   8.654 -0.2385  0.0244  0.0617
  416MOL0     C56041   8.415   9.545   8.635 -1.1740 -0.3877  0.1417
  416MOL0     N56042   8.319   9.469   8.711 -0.5299 -0.4203 -0.0277
  416MOL0     C56043   8.225   9.403   8.640 -0.1879  0.1740  0.1560
  416MOL0     C56044   8.184   9.305   8.720  0.4432  0.1045 -0.1661
  416MOL0     C56045   8.100   9.183   8.686  0.4817 -0.1028  0.2864
  416MOL0     C56046   8.193   9.081   8.620 -0.0385 -0.0503  0.6322
  416MOL0     C56047   8.120   8.942   8.599  0.3270  0.4821 -0.1530
  416MOL0     C56048   8.008   8.952   8.498  0.1805  0.3841 -0.8775
  416MOL0     O56049   7.972   8.827   8.439 -0.8153  0.0791  0.0674
  416MOL0     C56050   7.856   8.801   8.378  0.2012  1.4909 -0.4522
  416MOL0     C56051   7.854   8.680   8.305  0.3281 -0.7483 -0.2445
  416MOL0     C56052   7.746   8.651   8.222  0.4422  0.1362  0.5475
  416MOL0     C56053   7.748   8.530   8.146  0.0634 -0.3360  0.1704
  416MOL0     C56054   7.634   8.740   8.220  0.3422 -0.0596 -0.0472
  416MOL0     C56055   7.503   8.713   8.157  0.6562  0.2278  1.6873
  416MOL0     O56056   7.398   8.774   8.205 -0.1434 -0.2253  0.0250
  416MOL0     C56057   7.277   8.758   8.142  0.3422 -0.1064 -0.1376
  416MOL0     C56058   7.260   8.795   8.010 -0.5062 -0.3544  0.4622
  416MOL0     C56059   7.134   8.792   7.956  0.4724 -0.5440  0.6932
  416MOL0     C56060   7.015   8.763   8.027 -0.4987 -0.0708  0.3509
  416MOL0     O56061   6.909   8.754   7.947  0.1573 -0.1942  0.1019
  416MOL0     C56062   6.779   8.731   8.012 -0.2132 -0.1502 -0.1192
  416MOL0     C56063   6.685   8.800   7.918  0.5846  0.6819 -0.6478
  416MOL0     C56064   6.716   8.954   7.911  0.6098  0.1841 -0.3757
  416MOL0     C56065   6.636   9.030   7.805  0.0236  0.0475  0.2703
  416MOL0     C56066   6.626   9.180   7.834  0.8231  0.3570 -0.6037
  416MOL0     C56067   6.507   9.244   7.761 -0.2083 -0.7202  0.3212
  416MOL0     C56068   6.472   9.385   7.808 -0.7709 -0.2564  0.4541
  416MOL0     C56069   6.332   9.420   7.754  0.8137 -0.0357  0.1334
  416MOL0    Cl56070   6.190   9.355   7.836 -0.0391  0.1001  0.5354
  416MOL0     C56071   7.033   8.735   8.166  0.2462  0.2954 -0.0480
  416MOL0     C56072   7.163   8.743   8.224 -0.7497  0.2343  0.4663
  416MOL0     O56073   7.500   8.650   8.050  0.5553 -0.7180 -0.6311
  416MOL0     C56074   7.633   8.856   8.307 -0.2218 -0.3632 -0.4190
  416MOL0     C56075   7.745   8.885   8.384 -0.2895 -0.1899  0.0049
  416MOL0     N56076   8.247   9.320   8.841  0.4704 -0.2813 -0.1227
  416MOL0     N56077   8.329   9.419   8.836 -0.6547  0.4187  0.2924
  416MOL0     C56078   9.383   9.299   8.205  0.2677  0.3395  0.3272
  416MOL0     C56079   9.506   9.261   8.155  0.2505  0.3536 -0.2407
  416MOL0     C56080   9.937   9.144   8.134  0.8254  0.2262  1.1328
  416MOL0     C56081  10.016   9.048   8.199 -0.2503  0.7055  0.7944
  416MOL0     C56082  10.142   9.015   8.152 -0.3329  0.0387  0.1914
  416MOL0     C56083  10.187   9.073   8.027 -0.0796 -0.0129 -0.3124
  416MOL0     O56084  10.301   9.049   7.960 -0.0503 -0.0586  0.0404
  416MOL0     C56085  10.387   8.934   7.992  0.1496  0.7801 -0.3738
  416MOL0     C56086  10.534   8.985   7.973  0.6728 -0.5442 -0.3965
  416MOL0     C56087  10.624   8.868   7.962 -0.7439  0.0247  1.0072
  416MOL0     C56088  10.757   8.901   7.887 -0.1509 -0.9869 -0.1413
  416MOL0     C56089  10.824   9.014   7.961  0.2546 -0.3488  0.3245
  416MOL0     C56090  10.888   9.111   7.995  0.7536  0.0787 -0.3523
  416MOL0     C56091  10.104   9.160   7.958 -0.0954  0.3739 -0.1407
  416MOL0     C56092   9.981   9.196   8.013  0.0369  0.5992 -0.4374
  416MOL0     H56093   9.705   9.480   8.300  0.9656  0.0451 -2.6879
  416MOL0     H56094   9.489   9.561   8.403  1.4401  0.7863  0.6657
  416MOL0     H56095   9.156   9.262   8.380  1.3344 -0.2591  0.0673
  416MOL0     H56096   9.239   9.334   8.524  3.3802 -1.0441 -1.8648
  416MOL0     H56097   9.089   9.518   8.497 -0.4806  0.5613 -1.9000
  416MOL0     H56098   9.005   9.433   8.369 -1.3701 -0.6135  1.5827
  416MOL0     H56099   8.965   9.230   8.511  0.0756  1.5032 -1.3748
  416MOL0     H56100   9.013   9.333   8.654 -1.8415  0.1794  0.6516
  416MOL0     H56101   8.830   9.482   8.624 -1.9528 -1.7093  1.9927
  416MOL0     H56102   8.794   9.415   8.461  0.7032  0.9443 -0.4316
  416MOL0     H56103   8.735   9.203   8.573  1.8108 -0.3721  0.5112
  416MOL0     H56104   8.764   9.276   8.730 -2.3205  0.0174  1.5318
  416MOL0     H56105   8.570   9.357   8.498  1.5464 -0.8412 -0.2468
  416MOL0     H56106   8.514   9.286   8.644 -0.3416  1.9508  1.7230
  416MOL0     H56107   8.591   9.500   8.760 -1.6069 -2.0547  0.5006
  416MOL0     H56108   8.625   9.572   8.602 -1.0755 -1.0070 -2.5351
  416MOL0     H56109   8.389   9.532   8.529 -2.6876 -0.0612  0.4512
  416MOL0     H56110   8.400   9.645   8.676  1.2844 -0.2619  0.9136
  416MOL0     H56111   8.199   9.429   8.538  2.2783 -0.7618 -0.7925
  416MOL0     H56112   8.053   9.132   8.770  1.2122 -1.7169 -0.2539
  416MOL0     H56113   8.025   9.207   8.610  0.2722  0.4760  0.6676
  416MOL0     H56114   8.280   9.073   8.686 -0.0707 -0.7892  0.5894
  416MOL0     H56115   8.228   9.122   8.524  0.0312 -1.3187  0.0910
  416MOL0     H56116   8.078   8.903   8.692 -0.6160 -0.7219 -1.0556
  416MOL0     H56117   8.196   8.871   8.564  0.0972 -0.9163  2.0220
  416MOL0     H56118   8.019   9.015   8.410 -2.3420 -0.7018 -2.0894
  416MOL0     H56119   7.923   8.981   8.560  0.5896  2.2731 -1.1427
  416MOL0     H56120   7.941   8.614   8.303  1.1269 -0.3492  5.3805
  416MOL0     H56121   7.750   8.552   8.039 -0.3677 -1.0134  0.0177
  416MOL0     H56122   7.840   8.475   8.168 -0.4846 -1.1526  0.4678
  416MOL0     H56123   7.667   8.458   8.165 -0.9777  0.4157 -1.2494
  416MOL0     H56124   7.345   8.805   7.944 -1.0027 -0.3064 -0.1742
  416MOL0     H56125   7.119   8.806   7.849  0.4634  1.0850  0.8927
  416MOL0     H56126   6.762   8.623   8.019 -1.4514 -0.3575 -3.9304
  416MOL0     H56127   6.767   8.785   8.106  0.4177 -1.0084  0.4693
  416MOL0     H56128   6.698   8.744   7.826  0.8519  1.0675 -0.8481
  416MOL0     H56129   6.582   8.784   7.952  0.8073  0.4855 -0.0621
  416MOL0     H56130   6.824   8.964   7.892  0.6487  0.6280  0.0658
  416MOL0     H56131   6.678   8.990   8.006 -0.4930  0.0375 -0.7513
  416MOL0     H56132   6.677   9.014   7.705 -0.4672 -2.6300  0.4271
  416MOL0     H56133   6.535   8.988   7.812 -0.0996  0.4381  0.9580
  416MOL0     H56134   6.724   9.220   7.807  1.1370  1.5698  2.0556
  416MOL0     H56135   6.608   9.195   7.941  0.4695 -0.1601 -0.5862
  416MOL0     H56136   6.535   9.255   7.656 -1.2422 -1.4373 -0.0495
  416MOL0     H56137   6.415   9.187   7.778 -0.8606 -0.2066 -1.3316
  416MOL0     H56138   6.539   9.460   7.766 -2.2249 -0.5481 -2.7120
  416MOL0     H56139   6.475   9.397   7.916  0.5960  3.9122  0.1498
  416MOL0     H56140   6.331   9.376   7.654 -2.3729  0.3374 -0.0949
  416MOL0     H56141   6.321   9.528   7.737  1.2366 -0.0226 -0.0671
  416MOL0     H56142   6.948   8.700   8.224 -0.3982  0.9025 -0.6135
  416MOL0     H56143   7.180   8.712   8.326 -0.1376 -3.4214 -0.5814
  416MOL0     H56144   7.553   8.930   8.303  1.7559  1.8863 -0.1993
  416MOL0     H56145   7.743   8.970   8.452 -1.0945  0.6390 -1.0299
  416MOL0     H56146   9.296   9.242   8.173 -0.4304  1.1546  0.7707
  416MOL0     H56147   9.511   9.176   8.087 -2.2911 -2.0605  2.3030
  416MOL0     H56148   9.967   9.009   8.288 -1.9795  2.8324  0.8668
  416MOL0     H56149  10.207   8.939   8.195  1.6566  1.4636 -0.1180
  416MOL0     H56150  10.382   8.913   8.099 -1.7520  0.3263 -0.5234
  416MOL0     H56151  10.379   8.856   7.917 -2.6916  2.8401 -2.4334
  416MOL0     H56152  10.554   9.047   8.061  1.5247  0.1745 -1.0848
  416MOL0     H56153  10.531   9.048   7.883  1.2023 -1.4006 -1.0309
  416MOL0     H56154  10.577   8.786   7.908 -2.0961  0.2918  1.7253
  416MOL0     H56155  10.658   8.823   8.057  2.4664 -0.5611 -0.2717
  416MOL0     H56156  10.747   8.938   7.785  3.5240  1.4052  0.1697
  416MOL0     H56157  10.809   8.805   7.884  0.2622 -0.7882  0.5519
  416MOL0     H56158  10.944   9.200   8.017 -1.5408  1.3568  0.6167
  416MOL0     H56159  10.148   9.200   7.866  2.0732 -1.8817 -0.1911
  416MOL0     H56160   9.926   9.279   7.968 -0.4349  1.3968  1.4886
  417MOL0     O56161   1.141   0.287   4.721 -0.0533 -0.1414  0.5311
  417MOL0     C56162   1.233   0.341   4.665 -0.2708 -0.1094 -0.0303
  417MOL0     O56163   1.221   0.406   4.553 -0.4285  0.2325  0.6499
  417MOL0     C56164   1.097   0.441   4.505  0.6458 -0.2548 -0.7728
  417MOL0     C56165   1.012   0.519   4.586  0.2157 -0.3076 -0.1705
  417MOL0     C56166   0.897   0.566   4.534  0.2432  0.5974 -0.1742
  417MOL0     C56167   0.851   0.520   4.414  0.3560  0.6192 -1.1333
  417MOL0     O56168   0.735   0.554   4.362  0.4013  1.0889 -0.0968
  417MOL0     C56169   0.667   0.678   4.392 -0.3051  0.4467 -0.1533
  417MOL0     C56170   0.551   0.650   4.476  0.0971  0.0447  0.4915
  417MOL0     C56171   0.451   0.545   4.411 -0.3599 -0.6200  0.3455
  417MOL0     C56172   0.345   0.505   4.522 -0.6058  0.6829 -0.0968
  417MOL0     C56173   0.248   0.397   4.472 -0.4244  0.2255  0.2786
  417MOL0     C56174   0.127   0.400   4.559  0.1998  0.1394 -0.4019
  417MOL0     C56175   0.023   0.287   4.550  0.1998  0.8708  0.3925
  417MOL0     C56176  -0.025   0.274   4.408  0.6199  0.0264  0.2007
  417MOL0     N56177  -0.146   0.188   4.405 -0.3952 -0.0416 -0.5032
  417MOL0     C56178  -0.151   0.054   4.441 -0.2401 -0.3870 -0.6245
  417MOL0     C56179  -0.287   0.024   4.454 -1.0468  0.4935  0.9451
  417MOL0     C56180  -0.334  -0.109   4.492  0.2556  1.1704 -0.2000
  417MOL0     C56181  -0.421  -0.172   4.379 -0.2714 -0.4275  0.0928
  417MOL0     C56182  -0.460  -0.313   4.398 -0.3206  0.4398 -0.2845
  417MOL0     C56183  -0.586  -0.333   4.491 -0.2335 -0.3629  0.1572
  417MOL0     O56184  -0.638  -0.466   4.504 -0.3805  0.3228 -0.2635
  417MOL0     C56185  -0.769  -0.495   4.545 -0.3214 -0.0518  0.1678
  417MOL0     C56186  -0.806  -0.628   4.539 -0.3521  0.5000 -0.1056
  417MOL0     C56187  -0.945  -0.661   4.570  0.0813  0.1710 -0.2972
  417MOL0     C56188  -0.977  -0.811   4.547  0.0147  0.1264 -0.5773
  417MOL0     C56189  -1.036  -0.563   4.625 -1.1311  0.3122  0.5534
  417MOL0     C56190  -1.172  -0.598   4.675 -0.2306  0.3290 -0.3277
  417MOL0     O56191  -1.265  -0.493   4.689 -0.0300  0.4304  0.9018
  417MOL0     C56192  -1.408  -0.506   4.686  0.2497  0.3496 -0.5122
  417MOL0     C56193  -1.472  -0.457   4.795  0.8919  0.2949  0.2427
  417MOL0     C56194  -1.612  -0.477   4.800  0.0972 -0.2515 -0.0758
  417MOL0     C56195  -1.677  -0.550   4.699  0.2338 -0.6461 -0.4855
  417MOL0     O56196  -1.808  -0.570   4.720 -0.0062 -0.1275 -0.5422
  417MOL0     C56197  -1.884  -0.653   4.633  0.2835 -0.3116 -0.0181
  417MOL0     C56198  -1.986  -0.716   4.724  0.6071 -0.3608 -0.8078
  417MOL0     C56199  -2.087  -0.802   4.642  0.2635  0.2433 -0.0970
  417MOL0     C56200  -2.212  -0.845   4.728 -0.3157  0.1307  0.5198
  417MOL0     C56201  -2.322  -0.940   4.652 -0.0279 -0.0482 -1.1288
  417MOL0     C56202  -2.456  -0.954   4.723  0.0312  0.1446 -0.7320
  417MOL0     C56203  -2.545  -1.052   4.630  0.0343  0.4492 -0.2076
  417MOL0     C56204  -2.686  -1.068   4.681  0.0052  0.0690 -0.0762
  417MOL0    Cl56205  -2.781  -0.913   4.659  0.7172  0.2225 -0.0321
  417MOL0     C56206  -1.607  -0.594   4.593  0.0204 -0.1543 -0.9468
  417MOL0     C56207  -1.470  -0.561   4.582  0.9529 -0.2340 -0.7902
  417MOL0     O56208  -1.195  -0.718   4.705  0.3821  0.3131 -0.3477
  417MOL0     C56209  -0.986  -0.433   4.616  1.0255 -0.8273  0.0332
  417MOL0     C56210  -0.865  -0.400   4.583 -0.1705  0.0972  0.6687
  417MOL0     N56211  -0.356   0.135   4.411  0.9232 -0.0334  0.2020
  417MOL0     N56212  -0.273   0.237   4.393  0.2177  0.1933 -0.7201
  417MOL0     C56213   0.927   0.426   4.336 -0.4290 -0.1776 -0.3044
  417MOL0     C56214   1.056   0.399   4.381 -0.0310 -0.9840  1.1189
  417MOL0     C56215   1.368   0.345   4.714 -0.2721  0.2864  0.7087
  417MOL0     C56216   1.474   0.411   4.646 -0.1426  0.3348  0.6019
  417MOL0     C56217   1.600   0.425   4.698  0.2414 -0.9325  0.4096
  417MOL0     C56218   1.633   0.365   4.819  0.1689  0.4060 -0.3341
  417MOL0     O56219   1.764   0.368   4.842 -0.0875 -0.4119  0.1174
  417MOL0     C56220   1.814   0.325   4.970  0.1550  0.3381  0.3628
  417MOL0     C56221   1.961   0.350   4.991  1.1279 -0.2937  0.4826
  417MOL0     C56222   2.045   0.277   4.896 -0.4592  0.3044 -0.6891
  417MOL0     C56223   2.173   0.219   4.964  0.5325 -0.0707 -0.5014
  417MOL0     C56224   2.254   0.322   5.015 -0.4286  0.4318 -0.0534
  417MOL0     C56225   2.332   0.406   5.055 -0.3924  0.6873 -0.2961
  417MOL0     C56226   1.538   0.301   4.887 -0.2873 -0.2761 -0.0960
  417MOL0     C56227   1.403   0.294   4.837  0.4563 -1.2846 -0.6789
  417MOL0     H56228   1.043   0.546   4.687  0.6754 -0.3795 -0.2901
  417MOL0     H56229   0.839   0.626   4.603  2.1450  1.0294  1.1390
  417MOL0     H56230   0.729   0.757   4.435  0.5126  0.6183 -1.5903
  417MOL0     H56231   0.635   0.720   4.296  0.3435 -1.8477 -1.4467
  417MOL0     H56232   0.585   0.609   4.572 -2.1788 -1.1112  0.8654
  417MOL0     H56233   0.496   0.742   4.497 -2.2375 -1.4441  1.2581
  417MOL0     H56234   0.392   0.576   4.324 -0.5515 -0.3374  0.5750
  417MOL0     H56235   0.499   0.451   4.381  0.6498  0.1088 -0.3957
  417MOL0     H56236   0.402   0.465   4.606 -0.8199 -0.6453 -0.5666
  417MOL0     H56237   0.290   0.592   4.560  1.2118  2.0003 -0.3574
  417MOL0     H56238   0.223   0.425   4.370 -2.8469  0.8646  0.9854
  417MOL0     H56239   0.289   0.295   4.468  0.7107  0.6786 -0.0917
  417MOL0     H56240   0.158   0.410   4.664  1.3541 -2.6344 -0.3712
  417MOL0     H56241   0.068   0.491   4.545 -0.6357 -0.4125 -0.5260
  417MOL0     H56242   0.062   0.189   4.581 -1.2462  0.5642  1.3290
  417MOL0     H56243  -0.063   0.307   4.614 -0.4513  3.4836 -1.1971
  417MOL0     H56244   0.054   0.236   4.342  2.1315 -0.7559  2.3675
  417MOL0     H56245  -0.044   0.378   4.379 -0.1028 -0.8235 -2.7063
  417MOL0     H56246  -0.064  -0.007   4.466 -1.2418 -1.1488  1.2510
  417MOL0     H56247  -0.249  -0.175   4.511  1.0313  2.5957  1.5801
  417MOL0     H56248  -0.399  -0.088   4.578 -0.1677 -0.7947  0.0223
  417MOL0     H56249  -0.364  -0.175   4.285 -1.2293 -1.7545 -0.4682
  417MOL0     H56250  -0.502  -0.105   4.351 -1.3609 -2.2419 -1.3367
  417MOL0     H56251  -0.371  -0.362   4.441 -1.1642  0.8506  2.1154
  417MOL0     H56252  -0.491  -0.365   4.307 -0.4808  1.0078 -0.5571
  417MOL0     H56253  -0.657  -0.263   4.447 -1.2966  0.3328  2.8096
  417MOL0     H56254  -0.566  -0.288   4.588  0.6850  2.1292 -1.0981
  417MOL0     H56255  -0.739  -0.694   4.485 -2.8475  0.0554 -2.9184
  417MOL0     H56256  -0.901  -0.856   4.483  1.4881 -0.1116  1.2639
  417MOL0     H56257  -0.980  -0.853   4.647  2.1223  1.5456  0.1720
  417MOL0     H56258  -1.077  -0.825   4.504 -0.5696  2.4530 -0.1044
  417MOL0     H56259  -1.423  -0.390   4.864 -0.2277  1.1204  0.2715
  417MOL0     H56260  -1.671  -0.433   4.880 -0.5254 -1.3839  0.1181
  417MOL0     H56261  -1.918  -0.591   4.550  0.9902 -0.7605 -0.6498
  417MOL0     H56262  -1.823  -0.738   4.601  4.0848  1.7355  1.1572
  417MOL0     H56263  -1.940  -0.783   4.797  2.3409  1.2857 -0.2833
  417MOL0     H56264  -2.036  -0.634   4.777 -0.3938 -1.4402 -0.0281
  417MOL0     H56265  -2.032  -0.889   4.603  0.9420  0.9148 -0.6682
  417MOL0     H56266  -2.116  -0.731   4.564  2.0400 -0.0154 -1.0467
  417MOL0     H56267  -2.187  -0.898   4.820  1.0259  1.2495  0.8348
  417MOL0     H56268  -2.262  -0.751   4.754  2.5228  1.0882  3.0106
  417MOL0     H56269  -2.272  -1.037   4.647 -2.6815 -1.5952 -0.0865
  417MOL0     H56270  -2.337  -0.904   4.550  2.0268 -0.0165 -1.4655
  417MOL0     H56271  -2.464  -0.999   4.822 -0.4900  5.0500  1.7784
  417MOL0     H56272  -2.498  -0.854   4.742  0.1341  0.4218 -1.8925
  417MOL0     H56273  -2.498  -1.148   4.650  0.7996  0.9895  0.6442
  417MOL0     H56274  -2.544  -1.023   4.525 -0.6805 -1.5441 -0.8196
  417MOL0     H56275  -2.689  -1.106   4.784 -0.5178  0.7543  0.1721
  417MOL0     H56276  -2.728  -1.140   4.611 -1.0497  1.4184 -0.8834
  417MOL0     H56277  -1.651  -0.656   4.515 -2.9418 -0.5827  0.9276
  417MOL0     H56278  -1.407  -0.598   4.502 -0.1573 -1.7480 -0.9944
  417MOL0     H56279  -1.053  -0.356   4.655  1.0256 -0.7547 -0.1093
  417MOL0     H56280  -0.839  -0.296   4.598  0.1044  0.1344 -0.0441
  417MOL0     H56281   0.885   0.386   4.244 -2.2837  0.6496  0.1495
  417MOL0     H56282   1.124   0.333   4.329 -1.7248 -2.4968  0.7288
  417MOL0     H56283   1.462   0.448   4.544  0.0332  1.1356  0.8611
  417MOL0     H56284   1.677   0.476   4.641  0.9845 -2.1891  0.2657
  417MOL0     H56285   1.762   0.371   5.055 -0.5991 -0.5476  0.3979
  417MOL0     H56286   1.803   0.216   4.968  1.7869  0.0093  3.1462
  417MOL0     H56287   1.992   0.326   5.093  0.9050 -5.4173 -0.3982
  417MOL0     H56288   1.973   0.458   4.976 -1.5553  0.2329  1.5014
  417MOL0     H56289   2.067   0.353   4.820 -2.7370  1.6897 -0.0452
  417MOL0     H56290   1.990   0.191   4.858  0.7688 -2.6119  3.4150
  417MOL0     H56291   2.234   0.163   4.893  2.0092  3.3046 -2.1573
  417MOL0     H56292   2.149   0.153   5.047 -0.8521  0.5110 -0.4044
  417MOL0     H56293   2.400   0.481   5.089  0.5947 -0.0822 -0.5432
  417MOL0     H56294   1.562   0.252   4.981 -3.5142  0.9218  1.4847
  417MOL0     H56295   1.330   0.258   4.908 -0.8498  1.2565 -0.6175
  418MOL0     O56296   0.485  11.052  10.437  0.3935  0.5029 -0.9614
  418MOL0     C56297   0.492  10.986  10.539 -0.8052  0.3017 -0.7271
  418MOL0     O56298   0.596  10.989  10.630  0.1812 -0.0616 -0.5197
  418MOL0     C56299   0.697  11.072  10.605  0.4396 -0.0115 -0.9557
  418MOL0     C56300   0.725  11.181  10.687 -0.0254 -0.3794 -0.5078
  418MOL0     C56301   0.839  11.253  10.666 -0.1896  0.0159  0.6355
  418MOL0     C56302   0.936  11.221  10.558 -0.3538  0.3865 -0.1221
  418MOL0     O56303   1.045  11.296  10.523 -0.5237  0.2239  0.1929
  418MOL0     C56304   1.121  11.343  10.638 -0.6848  0.3565  0.9997
  418MOL0     C56305   1.253  11.402  10.593 -0.3176  0.7841  0.8391
  418MOL0     C56306   1.337  11.293  10.523  0.1038 -0.7641  1.1264
  418MOL0     C56307   1.482  11.307  10.536 -0.3022 -0.3265 -0.3630
  418MOL0     C56308   1.561  11.205  10.441  0.7168 -0.0581 -0.0608
  418MOL0     C56309   1.714  11.217  10.458  0.5362 -0.6327 -0.2926
  418MOL0     C56310   1.795  11.175  10.333  0.5601  0.5191 -0.6494
  418MOL0     C56311   1.938  11.158  10.367 -0.5851  0.3525  0.3302
  418MOL0     N56312   2.028  11.271  10.397 -0.2838  0.2881  0.2986
  418MOL0     C56313   2.039  11.368  10.493 -0.2473 -0.2850  0.7180
  418MOL0     C56314   2.139  11.458  10.460  0.7914 -0.0544  0.0044
  418MOL0     C56315   2.177  11.568  10.549 -1.2530 -0.3372  0.9219
  418MOL0     C56316   2.049  11.626  10.614  0.3357 -0.1490 -0.1238
  418MOL0     C56317   2.075  11.744  10.698  0.2478  0.1644  0.0124
  418MOL0     C56318   1.965  11.795  10.790  0.5481 -0.5073  0.4611
  418MOL0     O56319   1.849  11.802  10.706 -0.6143 -0.3652  0.2497
  418MOL0     C56320   1.723  11.782  10.753 -0.0248 -0.4278 -0.0662
  418MOL0     C56321   1.623  11.783  10.652 -0.1333  0.3429 -0.3691
  418MOL0     C56322   1.488  11.774  10.686 -0.1026  0.6979 -0.5624
  418MOL0     C56323   1.389  11.777  10.582  0.2060  0.4605  0.1043
  418MOL0     C56324   1.446  11.751  10.824 -0.7797  0.5156 -0.1378
  418MOL0     C56325   1.306  11.759  10.873 -0.0045 -0.0954 -0.1916
  418MOL0     O56326   1.294  11.759  11.007  0.2190  0.1585 -1.0089
  418MOL0     C56327   1.177  11.799  11.073  0.1800  0.2389 -0.8268
  418MOL0     C56328   1.083  11.879  11.019 -0.6507 -2.0462 -0.1061
  418MOL0     C56329   0.949  11.903  11.076 -1.6119 -0.0553 -0.1745
  418MOL0     C56330   0.926  11.853  11.202  0.3167 -0.1997 -0.2279
  418MOL0     O56331   0.807  11.870  11.273  0.0330 -0.0212 -0.2342
  418MOL0     C56332   0.707  11.956  11.216 -0.6004  0.7824 -0.0319
  418MOL0     C56333   0.582  11.929  11.292  0.2450  0.8949  0.5387
  418MOL0     C56334   0.469  12.019  11.252 -0.0796 -0.0955  0.2708
  418MOL0     C56335   0.334  11.968  11.299  1.3408 -0.2165 -0.5078
  418MOL0     C56336   0.220  12.077  11.290 -1.0188  0.4447 -0.3010
  418MOL0     C56337   0.087  12.039  11.355 -0.4212  0.4191 -0.0225
  418MOL0     C56338  -0.006  12.159  11.332 -0.0864  0.3608  0.0181
  418MOL0     C56339  -0.140  12.139  11.404 -0.3148  0.4339  1.2048
  418MOL0    Cl56340  -0.262  12.262  11.360 -0.3742  0.0643 -0.1229
  418MOL0     C56341   1.025  11.779  11.257  0.2322  1.0808 -0.3393
  418MOL0     C56342   1.150  11.744  11.197 -0.5475 -0.3437 -0.7191
  418MOL0     O56343   1.217  11.758  10.795 -0.0244 -0.4671 -0.3561
  418MOL0     C56344   1.549  11.763  10.922 -0.8014  1.3029  0.2683
  418MOL0     C56345   1.683  11.776  10.886  0.0309  0.0015  0.2449
  418MOL0     N56346   2.193  11.414  10.341 -0.6955  0.2882  0.1507
  418MOL0     N56347   2.128  11.308  10.309  0.1495  0.0247  0.2799
  418MOL0     C56348   0.897  11.114  10.473 -0.7275 -0.4145 -0.0568
  418MOL0     C56349   0.782  11.038  10.504 -0.3090 -0.6622  0.3407
  418MOL0     C56350   0.369  10.913  10.578  0.2964 -1.3763 -1.2409
  418MOL0     C56351   0.249  10.919  10.496 -0.6984 -0.0721 -0.5023
  418MOL0     C56352   0.129  10.849  10.537 -0.3984  0.4144  0.2608
  418MOL0     C56353   0.131  10.772  10.647  0.1991 -0.1116  0.2497
  418MOL0     O56354   0.022  10.704  10.699 -0.1579  0.1609 -0.3205
  418MOL0     C56355  -0.100  10.698  10.627  0.0000  0.5283 -0.4397
  418MOL0     C56356  -0.195  10.591  10.690 -0.2208  0.8158  0.4249
  418MOL0     C56357  -0.127  10.457  10.740 -0.1450 -0.5178 -0.1802
  418MOL0     C56358  -0.244  10.355  10.750 -0.0197 -0.1640  0.5855
  418MOL0     C56359  -0.196  10.224  10.790  0.4358 -0.2919 -0.3872
  418MOL0     C56360  -0.157  10.110  10.815 -0.1600 -0.5249  0.0443
  418MOL0     C56361   0.243  10.771  10.724 -1.0177  0.9712  0.0694
  418MOL0     C56362   0.363  10.833  10.696 -0.5666  0.8432  0.7566
  418MOL0     H56363   0.656  11.204  10.767  2.9896  0.2741  2.1285
  418MOL0     H56364   0.860  11.330  10.740 -1.2125  0.0619  0.8992
  418MOL0     H56365   1.067  11.424  10.688 -0.3799  0.1222  1.7222
  418MOL0     H56366   1.138  11.262  10.710 -0.9056 -0.5537  0.0442
  418MOL0     H56367   1.213  11.482  10.530 -0.5100  2.0822  2.5279
  418MOL0     H56368   1.307  11.445  10.678  1.5112 -1.5010  0.9625
  418MOL0     H56369   1.308  11.196  10.562 -1.0958 -0.2948  1.4246
  418MOL0     H56370   1.314  11.306  10.417 -1.4798 -0.2612  1.5054
  418MOL0     H56371   1.516  11.410  10.517  0.7562 -0.1586  2.0902
  418MOL0     H56372   1.518  11.289  10.637 -1.6727 -1.1684 -0.0035
  418MOL0     H56373   1.527  11.102  10.434 -1.7661  0.8035 -2.6882
  418MOL0     H56374   1.532  11.247  10.344 -0.0675  0.8835  0.5533
  418MOL0     H56375   1.744  11.318  10.486  0.2647 -0.7086  0.2835
  418MOL0     H56376   1.740  11.153  10.543  3.1577 -0.9882 -1.2771
  418MOL0     H56377   1.761  11.076  10.299  2.3428 -0.1534 -0.5944
  418MOL0     H56378   1.762  11.242  10.253 -0.5022 -0.3173 -0.9478
  418MOL0     H56379   1.987  11.106  10.284 -0.8111  3.2886 -1.8262
  418MOL0     H56380   1.952  11.091  10.452  1.6156 -0.1689 -0.3770
  418MOL0     H56381   1.967  11.376  10.575 -1.5949  0.4088 -0.4925
  418MOL0     H56382   2.243  11.541  10.632  0.8997 -0.7038 -0.7933
  418MOL0     H56383   2.235  11.645  10.496 -0.8942 -1.1486  0.1018
  418MOL0     H56384   2.005  11.556  10.685 -2.1084  2.3291  0.9999
  418MOL0     H56385   1.974  11.653  10.539  0.0855 -1.4684 -0.3629
  418MOL0     H56386   2.105  11.821  10.626 -1.9445 -0.3006 -1.5060
  418MOL0     H56387   2.149  11.720  10.774 -0.1748  1.7333  0.9735
  418MOL0     H56388   1.992  11.896  10.823 -1.2844 -0.4264  1.9275
  418MOL0     H56389   1.948  11.733  10.879 -3.3868  0.8179  0.8610
  418MOL0     H56390   1.652  11.787  10.548 -3.6672  0.8775 -1.4913
  418MOL0     H56391   1.331  11.685  10.582  0.4909  0.2807  0.2558
  418MOL0     H56392   1.336  11.870  10.606 -0.2760  0.9446 -2.5929
  418MOL0     H56393   1.442  11.795  10.488  4.1547 -3.1556  1.3596
  418MOL0     H56394   1.101  11.934  10.928 -0.8827 -0.7448  0.6067
  418MOL0     H56395   0.876  11.964  11.024 -1.8871  0.2272  0.5306
  418MOL0     H56396   0.745  12.055  11.242  0.3882  0.0107  1.7305
  418MOL0     H56397   0.689  11.941  11.110  1.9835 -2.1948 -0.2015
  418MOL0     H56398   0.551  11.824  11.294  0.1946  0.8655 -1.1052
  418MOL0     H56399   0.595  11.942  11.400 -0.6254 -3.0643  1.2710
  418MOL0     H56400   0.468  12.014  11.143  0.6613  0.0892  0.2514
  418MOL0     H56401   0.475  12.123  11.285 -1.6652  0.2851 -0.5196
  418MOL0     H56402   0.302  11.880  11.241  0.7111 -0.7696  0.6444
  418MOL0     H56403   0.341  11.932  11.402  0.5483 -2.7909 -1.2574
  418MOL0     H56404   0.217  12.100  11.183  1.2899 -1.1492 -0.7842
  418MOL0     H56405   0.254  12.165  11.346 -1.1026  0.2096  0.1212
  418MOL0     H56406   0.052  11.939  11.329  0.8332 -0.5068  1.6716
  418MOL0     H56407   0.114  12.024  11.460 -0.4785 -1.2008 -0.2282
  418MOL0     H56408  -0.019  12.171  11.224 -0.5976  1.2134  0.1566
  418MOL0     H56409   0.032  12.251  11.377 -0.8035  0.5111  0.3435
  418MOL0     H56410  -0.129  12.122  11.511 -0.3251 -2.9463  0.7796
  418MOL0     H56411  -0.181  12.040  11.380 -1.7647  1.0983  0.8019
  418MOL0     H56412   1.004  11.735  11.354  0.8148  1.0370 -0.2267
  418MOL0     H56413   1.227  11.676  11.234 -2.3987 -1.2978  1.5826
  418MOL0     H56414   1.520  11.766  11.026  0.2820  5.7864  0.6593
  418MOL0     H56415   1.756  11.795  10.965  0.7089 -2.9116  0.4492
  418MOL0     H56416   0.948  11.089  10.381 -0.6098 -0.4909  0.0288
  418MOL0     H56417   0.768  10.957  10.433  2.2873 -1.7462  0.9434
  418MOL0     H56418   0.254  10.985  10.410  1.7865  0.6493  0.0993
  418MOL0     H56419   0.046  10.864  10.469  0.1320  3.1991  0.1231
  418MOL0     H56420  -0.146  10.796  10.610  2.1866  1.8911  1.0450
  418MOL0     H56421  -0.080  10.663  10.525  0.4681  2.5390 -1.0741
  418MOL0     H56422  -0.275  10.562  10.621 -1.7118  0.5309  2.2041
  418MOL0     H56423  -0.238  10.643  10.776  1.1815  1.3495  0.8380
  418MOL0     H56424  -0.076  10.474  10.835 -2.5186  0.8367  0.9387
  418MOL0     H56425  -0.054  10.404  10.678  1.1543  1.9620 -0.9107
  418MOL0     H56426  -0.293  10.343  10.653 -1.4292  2.3189  0.9248
  418MOL0     H56427  -0.318  10.397  10.818 -1.2971  2.3743 -2.1647
  418MOL0     H56428  -0.118  10.013  10.838  2.1146  0.6789  1.7819
  418MOL0     H56429   0.232  10.712  10.815 -2.0466 -1.7149 -1.6763
  418MOL0     H56430   0.457  10.820  10.748  1.2084  0.7358 -2.2387
  419MOL0     O56431   0.564   6.017   5.070  0.4196 -0.3521 -0.3788
  419MOL0     C56432   0.543   6.112   5.150  0.7336 -0.6056  0.0525
  419MOL0     O56433   0.445   6.112   5.254  0.6171  0.0201 -0.1880
  419MOL0     C56434   0.342   6.017   5.272  0.5195 -0.2980  0.0527
  419MOL0     C56435   0.256   6.051   5.376  0.0471  0.2230 -0.3730
  419MOL0     C56436   0.146   5.973   5.404 -0.0945 -0.6583 -0.0746
  419MOL0     C56437   0.110   5.861   5.328  0.2000 -1.4527  0.1644
  419MOL0     O56438  -0.006   5.790   5.347  0.5182 -0.1721  0.5178
  419MOL0     C56439  -0.130   5.858   5.395  0.5773 -0.2337 -0.0782
  419MOL0     C56440  -0.245   5.763   5.375 -0.1767 -0.1034  0.2585
  419MOL0     C56441  -0.380   5.836   5.373 -0.2685 -0.0764 -0.1255
  419MOL0     C56442  -0.494   5.736   5.403 -0.1871  0.5226 -0.1696
  419MOL0     C56443  -0.636   5.802   5.411  0.9163 -0.1731  1.3425
  419MOL0     C56444  -0.700   5.866   5.285  0.6619  0.4564  0.8039
  419MOL0     C56445  -0.832   5.939   5.302 -0.6640  0.2815  0.5312
  419MOL0     C56446  -0.947   5.845   5.267 -0.5025 -0.4842  0.4233
  419MOL0     N56447  -1.071   5.911   5.302 -0.1468  0.1506  0.5313
  419MOL0     C56448  -1.158   5.951   5.203 -0.1862  0.0241 -0.3984
  419MOL0     C56449  -1.278   5.971   5.270  0.4245  0.4485 -0.0417
  419MOL0     C56450  -1.403   6.020   5.189  0.0037  0.1302  0.2372
  419MOL0     C56451  -1.525   6.069   5.264  0.3398  0.0760  0.3887
  419MOL0     C56452  -1.625   6.160   5.183  0.6488 -0.7342 -0.3764
  419MOL0     C56453  -1.737   6.067   5.120 -0.3115 -0.0352 -0.2295
  419MOL0     O56454  -1.847   6.150   5.095  0.5383  0.1485  0.4829
  419MOL0     C56455  -1.949   6.107   5.020 -0.5143  0.6042 -0.7467
  419MOL0     C56456  -2.049   6.206   5.023  0.6581  0.6466 -0.2298
  419MOL0     C56457  -2.171   6.191   4.954  0.1992  0.4482 -0.6323
  419MOL0     C56458  -2.257   6.315   4.957  0.3961  0.8105  0.1107
  419MOL0     C56459  -2.203   6.074   4.889 -0.0764 -0.3188  0.2294
  419MOL0     C56460  -2.334   6.045   4.816 -0.2366  0.8719 -0.3587
  419MOL0     O56461  -2.347   5.904   4.790  0.2527 -0.0893 -0.1934
  419MOL0     C56462  -2.432   5.867   4.684 -0.0340 -0.5428 -0.3397
  419MOL0     C56463  -2.383   5.826   4.560 -0.6823  0.6589 -0.4873
  419MOL0     C56464  -2.469   5.792   4.452 -0.3689  0.0358  0.0215
  419MOL0     C56465  -2.605   5.783   4.478 -0.0600  0.6010  0.4791
  419MOL0     O56466  -2.684   5.724   4.378 -0.6086  0.0998 -0.7396
  419MOL0     C56467  -2.790   5.806   4.329  0.2991  0.0704 -0.1336
  419MOL0     C56468  -2.886   5.732   4.223  0.2022 -0.9344 -0.5138
  419MOL0     C56469  -2.986   5.825   4.150  1.3139 -0.1711  0.1982
  419MOL0     C56470  -3.084   5.748   4.067  0.4574 -0.0852  0.0390
  419MOL0     C56471  -3.183   5.661   4.143 -0.0064  0.3122  0.2856
  419MOL0     C56472  -3.275   5.732   4.247  0.5042  0.2820 -0.1870
  419MOL0     C56473  -3.379   5.644   4.313 -0.0056  0.8968 -0.2744
  419MOL0     C56474  -3.520   5.624   4.247  0.9386 -0.0867 -0.1081
  419MOL0    Cl56475  -3.610   5.770   4.242  0.1019  0.2119  0.2528
  419MOL0     C56476  -2.651   5.817   4.600  0.3230 -0.2011 -1.0389
  419MOL0     C56477  -2.571   5.869   4.703  0.1804 -0.4321 -0.2710
  419MOL0     O56478  -2.411   6.133   4.783  0.0901 -0.4216  0.3143
  419MOL0     C56479  -2.107   5.969   4.902  0.1889 -0.0193  1.0367
  419MOL0     C56480  -1.977   5.979   4.962 -0.2068 -0.3194 -0.0470
  419MOL0     N56481  -1.250   5.957   5.408  0.3839 -0.1222 -0.9863
  419MOL0     N56482  -1.129   5.914   5.427 -0.5717 -0.0105 -0.4099
  419MOL0     C56483   0.193   5.830   5.216  0.2844 -0.1400 -0.3803
  419MOL0     C56484   0.312   5.908   5.191 -0.4842 -0.5916 -0.8773
  419MOL0     C56485   0.659   6.205   5.175 -0.1209 -0.2623  0.0542
  419MOL0     C56486   0.663   6.284   5.292 -0.3711 -0.5693  0.1026
  419MOL0     C56487   0.777   6.367   5.315 -0.0338 -0.8950  0.3188
  419MOL0     C56488   0.884   6.377   5.216 -0.0743 -0.2094  0.5351
  419MOL0     O56489   1.001   6.439   5.221  0.5543 -0.0595  0.2681
  419MOL0     C56490   1.022   6.529   5.334  0.1766  0.1409  0.2050
  419MOL0     C56491   1.071   6.444   5.459  0.1920 -0.0027  0.1384
  419MOL0     C56492   1.220   6.413   5.467  0.1679  0.4459  0.2085
  419MOL0     C56493   1.263   6.314   5.581 -0.3555  0.1557 -0.7442
  419MOL0     C56494   1.188   6.354   5.703 -0.2176  0.0007  1.2180
  419MOL0     C56495   1.137   6.384   5.807 -0.7928 -0.2590  0.2091
  419MOL0     C56496   0.869   6.290   5.107 -1.0087  0.5571  0.2251
  419MOL0     C56497   0.769   6.203   5.089  0.4383  0.4269  0.8133
  419MOL0     H56498   0.262   6.139   5.439 -1.4981 -1.0764  1.7259
  419MOL0     H56499   0.074   6.008   5.477  0.4110 -2.5053  1.3970
  419MOL0     H56500  -0.117   5.877   5.502 -1.3317 -3.5769  0.8985
  419MOL0     H56501  -0.142   5.943   5.326  3.6382  0.4068  0.0245
  419MOL0     H56502  -0.234   5.722   5.274 -3.2234 -0.8800  0.1536
  419MOL0     H56503  -0.235   5.680   5.446 -0.5651  0.4489  0.9596
  419MOL0     H56504  -0.384   5.902   5.460  0.6712 -1.1088  0.7426
  419MOL0     H56505  -0.396   5.888   5.278  1.6260 -0.2897 -0.6152
  419MOL0     H56506  -0.491   5.660   5.325  0.3411 -0.3605  0.6833
  419MOL0     H56507  -0.473   5.698   5.503  0.3680  2.3467  0.4532
  419MOL0     H56508  -0.710   5.731   5.448  0.5809  0.0835  1.1648
  419MOL0     H56509  -0.634   5.891   5.474 -0.0595  0.0967  1.0027
  419MOL0     H56510  -0.641   5.952   5.250  0.7269 -0.6933 -2.1937
  419MOL0     H56511  -0.705   5.789   5.208  0.1625 -2.2594  3.3685
  419MOL0     H56512  -0.846   5.985   5.400 -0.7644  0.5035  0.4136
  419MOL0     H56513  -0.838   6.017   5.225  0.9809 -1.9631 -2.0682
  419MOL0     H56514  -0.947   5.755   5.330 -2.3608 -1.3351 -0.7285
  419MOL0     H56515  -0.967   5.810   5.165 -1.6829  0.2735  0.3818
  419MOL0     H56516  -1.145   5.952   5.095  0.0506  1.9619 -0.3863
  419MOL0     H56517  -1.371   6.108   5.132 -1.2711  1.3793  1.3800
  419MOL0     H56518  -1.430   5.946   5.113  1.4941  1.8853 -2.1533
  419MOL0     H56519  -1.490   6.121   5.354  0.8024 -0.1017  0.3103
  419MOL0     H56520  -1.578   5.978   5.293 -1.8202  0.5953 -1.6142
  419MOL0     H56521  -1.586   6.227   5.105 -0.1362 -0.8276 -0.8537
  419MOL0     H56522  -1.663   6.228   5.260 -0.6232 -0.6601 -1.0476
  419MOL0     H56523  -1.775   5.995   5.193  0.2020 -0.4483 -0.3670
  419MOL0     H56524  -1.713   6.012   5.028 -1.5886 -2.0595  0.5927
  419MOL0     H56525  -2.022   6.302   5.066 -0.8795  0.7413  0.6077
  419MOL0     H56526  -2.363   6.302   4.979 -1.0833  1.4091 -5.2737
  419MOL0     H56527  -2.218   6.372   5.042 -0.0509  0.6535  0.4296
  419MOL0     H56528  -2.247   6.383   4.872 -2.6824  1.9470  0.5298
  419MOL0     H56529  -2.276   5.809   4.559 -0.5758  0.5979 -4.8022
  419MOL0     H56530  -2.437   5.751   4.357 -0.6964 -1.5684  0.5702
  419MOL0     H56531  -2.844   5.840   4.418  0.0298 -2.1521  0.6226
  419MOL0     H56532  -2.754   5.895   4.277 -1.5558  1.2451  0.4999
  419MOL0     H56533  -2.825   5.677   4.150  2.1430 -0.2414  0.5084
  419MOL0     H56534  -2.942   5.659   4.282 -0.1141 -0.2272  0.0745
  419MOL0     H56535  -2.933   5.900   4.089  0.1237  1.8769  1.5729
  419MOL0     H56536  -3.040   5.890   4.219  1.9434  1.6597 -0.9504
  419MOL0     H56537  -3.138   5.827   4.014 -0.7722  0.0184  1.3473
  419MOL0     H56538  -3.028   5.688   3.995 -2.8512  0.4450 -3.2916
  419MOL0     H56539  -3.133   5.568   4.174  0.9560 -0.0102 -2.0219
  419MOL0     H56540  -3.247   5.622   4.063  1.0331 -1.8041  0.4000
  419MOL0     H56541  -3.209   5.775   4.323  2.8561 -0.4381 -1.6778
  419MOL0     H56542  -3.331   5.807   4.191 -1.4644 -1.2993 -0.4605
  419MOL0     H56543  -3.393   5.690   4.411  1.9469 -0.8773  0.9108
  419MOL0     H56544  -3.331   5.548   4.331 -0.0308  0.5483 -1.8933
  419MOL0     H56545  -3.575   5.546   4.300  1.0268 -0.8649 -1.1240
  419MOL0     H56546  -3.502   5.586   4.146  2.8070  0.0405  0.1395
  419MOL0     H56547  -2.757   5.812   4.622  0.6962 -0.4804  0.8589
  419MOL0     H56548  -2.593   5.881   4.809  0.4876  0.2155 -0.2760
  419MOL0     H56549  -2.132   5.879   4.847  2.1795 -0.8459  1.3663
  419MOL0     H56550  -1.899   5.904   4.948 -0.3399 -0.1035 -2.4695
  419MOL0     H56551   0.172   5.748   5.149  0.8402 -2.5902  2.2632
  419MOL0     H56552   0.372   5.874   5.107  0.5102 -0.3467 -0.2874
  419MOL0     H56553   0.579   6.280   5.361 -0.7326  0.5423 -0.2521
  419MOL0     H56554   0.771   6.442   5.394 -1.4627 -0.4277 -0.1908
  419MOL0     H56555   1.090   6.611   5.310  0.9490 -1.4090 -3.7513
  419MOL0     H56556   0.928   6.579   5.359 -0.8063 -1.2122 -0.6226
  419MOL0     H56557   1.029   6.344   5.470  0.8313 -0.3474 -0.4882
  419MOL0     H56558   1.052   6.498   5.553 -0.9620  0.2573 -0.2365
  419MOL0     H56559   1.284   6.502   5.471  1.5288 -0.5343  1.7319
  419MOL0     H56560   1.249   6.369   5.371 -2.2207  3.2633 -2.0034
  419MOL0     H56561   1.367   6.334   5.607 -1.2416 -0.3304  4.0645
  419MOL0     H56562   1.259   6.208   5.557 -1.5825 -0.7444  2.8474
  419MOL0     H56563   1.078   6.393   5.896 -2.1322  0.2106 -0.6953
  419MOL0     H56564   0.955   6.290   5.039 -0.3294  1.0891  1.0642
  419MOL0     H56565   0.764   6.135   5.005 -2.0814 -0.3630  1.4916
  420MOL0     O56566   4.191  10.254   5.748 -0.4038 -0.6733 -0.1245
  420MOL0     C56567   4.269  10.229   5.658  0.4799 -0.7324  0.3598
  420MOL0     O56568   4.230  10.218   5.524  0.4098  0.0916  1.0790
  420MOL0     C56569   4.106  10.260   5.486  0.2191 -0.3214 -1.1027
  420MOL0     C56570   4.098  10.349   5.387 -0.8923  0.4130  0.1441
  420MOL0     C56571   3.977  10.399   5.346 -0.0642 -0.4367 -0.1817
  420MOL0     C56572   3.857  10.355   5.399  1.3287  0.1194  0.2635
  420MOL0     O56573   3.742  10.415   5.353 -0.5745 -0.4991  0.5129
  420MOL0     C56574   3.614  10.350   5.361 -0.5674  0.0063 -0.1452
  420MOL0     C56575   3.497  10.447   5.320 -0.2107 -0.2059 -0.0831
  420MOL0     C56576   3.365  10.378   5.319 -0.6780 -0.5673 -0.9000
  420MOL0     C56577   3.275  10.479   5.255 -0.1674  0.2825 -0.2346
  420MOL0     C56578   3.124  10.464   5.303  0.3939  0.0440 -0.5817
  420MOL0     C56579   3.032  10.547   5.211 -0.3120 -0.9405 -0.1533
  420MOL0     C56580   2.887  10.536   5.228  0.4430  0.0143  0.0730
  420MOL0     C56581   2.818  10.644   5.302  1.0137 -0.9825 -0.8314
  420MOL0     N56582   2.678  10.615   5.334  1.1995 -0.0512 -0.1288
  420MOL0     C56583   2.561  10.656   5.280  0.5312  0.2863  0.0740
  420MOL0     C56584   2.472  10.566   5.317  0.7832  0.1292 -0.0238
  420MOL0     C56585   2.333  10.562   5.263  0.5404 -0.0483  0.1201
  420MOL0     C56586   2.329  10.546   5.109  0.0270  0.1489  0.6914
  420MOL0     C56587   2.191  10.544   5.058  0.1989  0.0808  0.4118
  420MOL0     C56588   2.180  10.555   4.904 -0.5982 -0.4982  0.1080
  420MOL0     O56589   2.053  10.612   4.864 -0.3848  0.5018  0.6074
  420MOL0     C56590   1.934  10.541   4.856 -0.6692 -0.0506 -0.8140
  420MOL0     C56591   1.828  10.624   4.822  0.3741  0.3240  0.7283
  420MOL0     C56592   1.693  10.580   4.800 -0.6631 -0.7314  0.6723
  420MOL0     C56593   1.605  10.682   4.729  1.0342 -0.4169  0.3149
  420MOL0     C56594   1.672  10.439   4.828 -0.3564 -0.3701  0.2115
  420MOL0     C56595   1.542  10.374   4.799  0.5161 -0.4607 -0.5181
  420MOL0     O56596   1.544  10.247   4.739 -0.3414 -0.2839  0.9236
  420MOL0     C56597   1.439  10.160   4.758 -0.2971 -0.3315  0.3794
  420MOL0     C56598   1.399  10.078   4.646  0.3686 -0.8369 -0.8522
  420MOL0     C56599   1.306   9.977   4.662 -0.5174  0.2527 -0.1854
  420MOL0     C56600   1.243   9.966   4.788 -0.4497 -0.1741  0.1064
  420MOL0     O56601   1.147   9.866   4.791 -0.2892  0.2177  0.9307
  420MOL0     C56602   1.036   9.886   4.882  0.1141 -0.3840 -0.0678
  420MOL0     C56603   0.929   9.790   4.844 -0.1203  0.9313 -0.0668
  420MOL0     C56604   0.802   9.795   4.926  0.7691  0.6088 -0.3138
  420MOL0     C56605   0.691   9.691   4.879 -0.8339 -0.4880 -0.0888
  420MOL0     C56606   0.557   9.720   4.951 -0.6191  0.3184  0.3585
  420MOL0     C56607   0.466   9.615   4.909  1.1258  0.5558 -0.9991
  420MOL0     C56608   0.323   9.657   4.950  0.2246 -0.2009  0.2995
  420MOL0     C56609   0.217   9.556   4.903 -1.0472 -0.5043  0.7289
  420MOL0    Cl56610   0.052   9.617   4.951 -0.6112  0.1980  0.2395
  420MOL0     C56611   1.284  10.046   4.892 -0.6288 -0.4603 -0.2444
  420MOL0     C56612   1.392  10.139   4.886  0.1187 -0.5361 -0.2734
  420MOL0     O56613   1.439  10.430   4.838 -0.0226 -0.1900  0.9702
  420MOL0     C56614   1.779  10.357   4.877 -0.7137 -0.2630 -0.2616
  420MOL0     C56615   1.909  10.411   4.901  0.4046  0.3046 -0.6932
  420MOL0     N56616   2.528  10.482   5.406 -0.7007  0.5074  0.3817
  420MOL0     N56617   2.649  10.515   5.430  0.2785 -0.0723  0.2394
  420MOL0     C56618   3.864  10.262   5.501  1.4023 -0.8895  0.1223
  420MOL0     C56619   3.984  10.214   5.539 -0.0707  0.4746 -1.0305
  420MOL0     C56620   4.400  10.188   5.693 -0.6138 -0.7711  0.4149
  420MOL0     C56621   4.463  10.209   5.824 -0.5079 -0.1531  0.3659
  420MOL0     C56622   4.597  10.184   5.854  0.0489 -0.1262 -0.4794
  420MOL0     C56623   4.680  10.131   5.754 -0.0514 -0.4851  0.3452
  420MOL0     O56624   4.815  10.120   5.772 -0.4449  0.2072  0.2761
  420MOL0     C56625   4.878  10.144   5.900 -0.0358  0.2099 -0.4405
  420MOL0     C56626   5.025  10.120   5.887 -1.0035  0.5977 -0.8887
  420MOL0     C56627   5.093  10.113   6.018  0.3298  0.2918  0.2653
  420MOL0     C56628   5.237  10.163   6.011  0.3939 -0.4610  0.5513
  420MOL0     C56629   5.281  10.201   6.141  0.6654 -0.7047 -0.0484
  420MOL0     C56630   5.308  10.258   6.244  0.4893 -0.3077 -0.2747
  420MOL0     C56631   4.622  10.100   5.626 -0.3316  0.3677 -0.5671
  420MOL0     C56632   4.488  10.127   5.600  0.2584  0.5457  0.1644
  420MOL0     H56633   4.192  10.379   5.342 -1.2070 -0.5598 -1.2366
  420MOL0     H56634   3.966  10.484   5.279 -1.6114  2.4511  3.3867
  420MOL0     H56635   3.607  10.272   5.285 -1.2479 -0.2797  0.2059
  420MOL0     H56636   3.597  10.304   5.458 -0.7394 -2.5904 -1.3267
  420MOL0     H56637   3.488  10.528   5.394 -0.7296  1.2383 -1.6469
  420MOL0     H56638   3.523  10.493   5.224 -1.7290  1.5602  0.2857
  420MOL0     H56639   3.370  10.291   5.253  1.7935 -0.1410 -1.3733
  420MOL0     H56640   3.333  10.341   5.417  1.3095 -0.4321 -0.1477
  420MOL0     H56641   3.305  10.583   5.269  1.0562  0.0446 -1.0116
  420MOL0     H56642   3.284  10.471   5.147 -0.4899 -0.9483 -0.1825
  420MOL0     H56643   3.088  10.360   5.301  1.4588 -0.3374 -0.3772
  420MOL0     H56644   3.109  10.507   5.403  2.1202  1.9951 -1.1019
  420MOL0     H56645   3.048  10.655   5.210 -1.1059 -0.8072  0.2651
  420MOL0     H56646   3.061  10.506   5.113 -1.4053 -2.2616  0.0343
  420MOL0     H56647   2.855  10.536   5.123 -1.2392  2.0927  0.5293
  420MOL0     H56648   2.859  10.434   5.258  2.4892 -0.3557  0.8788
  420MOL0     H56649   2.832  10.742   5.256  0.4535  0.0248  1.0422
  420MOL0     H56650   2.858  10.654   5.403  0.7820  1.4251 -0.9350
  420MOL0     H56651   2.542  10.745   5.220  2.2292  1.1561  0.7432
  420MOL0     H56652   2.289  10.470   5.303 -1.2470 -0.0792 -1.7641
  420MOL0     H56653   2.276  10.645   5.307 -0.4981 -0.7608  0.1384
  420MOL0     H56654   2.392  10.459   5.086  0.4358  0.7301 -0.5054
  420MOL0     H56655   2.388  10.629   5.070  0.8731 -0.5680  0.4134
  420MOL0     H56656   2.137  10.627   5.105  0.5832  0.1859  0.6671
  420MOL0     H56657   2.140  10.456   5.100  1.1877 -1.5826 -1.6793
  420MOL0     H56658   2.194  10.458   4.856 -0.5783  0.7771 -2.6512
  420MOL0     H56659   2.259  10.617   4.860  0.0033 -0.2290  1.5053
  420MOL0     H56660   1.854  10.724   4.789  1.3645 -0.5739 -1.3360
  420MOL0     H56661   1.579  10.650   4.628  1.5759  0.1753 -0.0257
  420MOL0     H56662   1.526  10.706   4.801  2.9476  0.4883  2.2553
  420MOL0     H56663   1.659  10.777   4.721 -0.7596  0.7867  1.7364
  420MOL0     H56664   1.439  10.101   4.548  0.7110 -1.5520 -0.8841
  420MOL0     H56665   1.266   9.914   4.583 -2.3321 -0.3858  1.1906
  420MOL0     H56666   1.057   9.874   4.988 -1.8432  1.2131  0.5682
  420MOL0     H56667   1.001   9.989   4.871 -1.8972 -0.7179  2.2549
  420MOL0     H56668   0.903   9.811   4.740 -3.1613  2.4962  0.8784
  420MOL0     H56669   0.965   9.686   4.842 -2.7139 -0.2192  3.4344
  420MOL0     H56670   0.751   9.891   4.920 -1.6566 -0.3043  2.6576
  420MOL0     H56671   0.817   9.763   5.030  1.2642 -0.4636 -0.7003
  420MOL0     H56672   0.672   9.698   4.772 -3.3486 -1.6502  0.1884
  420MOL0     H56673   0.742   9.598   4.906 -0.8773 -0.4741  0.0433
  420MOL0     H56674   0.516   9.819   4.926 -1.2704 -0.3050 -1.1364
  420MOL0     H56675   0.574   9.717   5.059  1.9843  0.1159  0.0137
  420MOL0     H56676   0.473   9.581   4.805  0.9187  0.1378 -0.8776
  420MOL0     H56677   0.498   9.530   4.969 -0.4983  0.0953 -0.7438
  420MOL0     H56678   0.305   9.752   4.898  0.2494  0.7776  1.9953
  420MOL0     H56679   0.305   9.677   5.056 -1.1809 -0.7580  0.1770
  420MOL0     H56680   0.240   9.460   4.950  1.8737 -0.7152 -0.9091
  420MOL0     H56681   0.220   9.545   4.795 -1.0800  1.5659  0.4760
  420MOL0     H56682   1.226  10.038   4.984 -0.3902  0.5765  0.0092
  420MOL0     H56683   1.419  10.196   4.974  2.4034 -1.3079 -0.4172
  420MOL0     H56684   1.759  10.252   4.896  2.1938 -0.7920  0.3110
  420MOL0     H56685   1.975  10.331   4.933 -3.2148 -2.5749  0.3158
  420MOL0     H56686   3.769  10.237   5.547  0.2061  1.0719 -1.1191
  420MOL0     H56687   3.994  10.143   5.621 -1.7919 -0.8943 -1.9207
  420MOL0     H56688   4.395  10.254   5.895 -1.2901  0.8308 -0.9728
  420MOL0     H56689   4.635  10.191   5.955  1.2189 -2.5301 -0.6713
  420MOL0     H56690   4.867  10.247   5.933 -1.5486 -0.4995  1.3988
  420MOL0     H56691   4.832  10.076   5.972 -0.2009 -1.3883 -1.9714
  420MOL0     H56692   5.067  10.196   5.821 -0.0201  0.5152 -0.3788
  420MOL0     H56693   5.044  10.025   5.837 -1.4320 -2.9514  4.8237
  420MOL0     H56694   5.075  10.012   6.058  1.0229  1.2876  3.3992
  420MOL0     H56695   5.040  10.180   6.087  1.5088  0.8722  0.6204
  420MOL0     H56696   5.244  10.253   5.950 -1.5248 -0.6322  0.0235
  420MOL0     H56697   5.303  10.092   5.959  1.2460  0.1951  0.7129
  420MOL0     H56698   5.325  10.288   6.345  1.0368  1.3039 -0.8031
  420MOL0     H56699   4.685  10.053   5.551  1.2227 -1.1668  1.5677
  420MOL0     H56700   4.453  10.105   5.500 -0.6793  1.7734  0.1954
  421MOL0     O56701   2.094   7.611   6.892  0.0169  0.4133 -1.2121
  421MOL0     C56702   2.207   7.565   6.912  0.3498  0.4944  0.7008
  421MOL0     O56703   2.236   7.434   6.890 -0.3118 -0.2896  0.1199
  421MOL0     C56704   2.154   7.346   6.822 -0.0489  0.0345 -1.0666
  421MOL0     C56705   2.135   7.227   6.877 -1.2971 -0.2280  0.2448
  421MOL0     C56706   2.048   7.139   6.832  0.5844  0.3739  0.3014
  421MOL0     C56707   1.965   7.168   6.715  0.3831 -0.2275 -0.3043
  421MOL0     O56708   1.877   7.071   6.672 -0.3318  0.2550  0.0108
  421MOL0     C56709   1.831   7.079   6.536 -1.0712 -0.1102  0.0166
  421MOL0     C56710   1.718   6.976   6.514 -0.8567 -0.3940  0.1377
  421MOL0     C56711   1.653   6.970   6.370  0.4060 -0.2625  0.3223
  421MOL0     C56712   1.749   6.988   6.249 -0.0676  0.5300  0.1497
  421MOL0     C56713   1.689   6.954   6.109 -0.6886  0.2233  0.5871
  421MOL0     C56714   1.582   7.042   6.064 -0.0767 -0.2445  0.2572
  421MOL0     C56715   1.510   6.993   5.932  0.0272  1.2253  0.7645
  421MOL0     C56716   1.592   7.010   5.803  0.8834  0.5553 -0.9152
  421MOL0     N56717   1.583   7.140   5.760 -0.0585 -1.0756 -0.5335
  421MOL0     C56718   1.686   7.228   5.772 -0.1314 -0.1993 -0.2933
  421MOL0     C56719   1.640   7.342   5.721 -0.4417 -0.6596 -0.2694
  421MOL0     C56720   1.725   7.471   5.721 -0.3008 -0.1498 -0.4629
  421MOL0     C56721   1.674   7.576   5.810  0.0051  0.2841  0.3880
  421MOL0     C56722   1.682   7.540   5.960  0.9503 -0.7797  0.4443
  421MOL0     C56723   1.555   7.484   6.016  0.5254  0.3910 -0.2693
  421MOL0     O56724   1.568   7.462   6.153 -0.5101  0.4718 -0.3442
  421MOL0     C56725   1.461   7.418   6.228 -0.3694 -0.6940 -0.1552
  421MOL0     C56726   1.490   7.407   6.367 -0.4930 -0.3884  0.3193
  421MOL0     C56727   1.384   7.400   6.462 -0.4416  0.9317  0.3968
  421MOL0     C56728   1.422   7.435   6.610  0.7530 -0.3801 -0.4904
  421MOL0     C56729   1.256   7.367   6.422  0.2007  0.1899  0.7704
  421MOL0     C56730   1.131   7.360   6.504 -0.3114  0.0614 -0.2890
  421MOL0     O56731   1.123   7.427   6.626  0.4153  0.4527 -0.3150
  421MOL0     C56732   1.009   7.396   6.695 -0.2805 -0.3690  0.4780
  421MOL0     C56733   1.011   7.294   6.785 -0.0319 -0.0060  0.0706
  421MOL0     C56734   0.893   7.244   6.833 -0.0697  0.2738  0.0508
  421MOL0     C56735   0.771   7.310   6.797 -0.2281  0.4031 -0.2720
  421MOL0     O56736   0.644   7.263   6.838 -0.6615  0.2803 -0.0652
  421MOL0     C56737   0.621   7.159   6.928  0.9178  0.2867 -0.1181
  421MOL0     C56738   0.475   7.100   6.914 -0.3536  0.2068 -1.0445
  421MOL0     C56739   0.467   6.979   7.004  0.5678  0.0733  0.2262
  421MOL0     C56740   0.430   7.012   7.152 -0.3860  0.3695 -0.0057
  421MOL0     C56741   0.481   6.900   7.245 -0.5818  0.4329  0.2364
  421MOL0     C56742   0.633   6.911   7.287  0.0675  0.3772 -0.3014
  421MOL0     C56743   0.648   6.993   7.420  0.9534 -0.7764 -1.1004
  421MOL0     C56744   0.779   6.993   7.479 -0.6431  0.6309  1.0865
  421MOL0    Cl56745   0.902   7.057   7.364 -0.0788  0.2630 -0.4254
  421MOL0     C56746   0.774   7.417   6.721  0.0718 -0.3128  0.4126
  421MOL0     C56747   0.891   7.465   6.663  0.1971 -0.3885 -0.1003
  421MOL0     O56748   1.047   7.283   6.462  0.8309  0.0735 -0.6009
  421MOL0     C56749   1.237   7.370   6.282  0.9442  0.1361 -0.3174
  421MOL0     C56750   1.332   7.403   6.191  0.3999 -0.2556  0.3240
  421MOL0     N56751   1.510   7.318   5.672  0.6247  0.7359  0.0214
  421MOL0     N56752   1.478   7.197   5.696 -0.5434  0.9325 -0.0360
  421MOL0     C56753   1.984   7.295   6.658 -0.3841  0.8700  0.1633
  421MOL0     C56754   2.075   7.386   6.713 -0.4867  0.1117  0.6971
  421MOL0     C56755   2.308   7.653   6.976  0.6831 -0.1339  0.1235
  421MOL0     C56756   2.280   7.785   7.013 -0.5214  0.4043 -0.1909
  421MOL0     C56757   2.386   7.859   7.066 -0.0623  0.2098 -0.3166
  421MOL0     C56758   2.512   7.808   7.095  0.6018  0.6410  0.2015
  421MOL0     O56759   2.601   7.900   7.142 -0.0565  0.0479 -0.7404
  421MOL0     C56760   2.656   7.985   7.044 -0.0699 -0.1692  0.0268
  421MOL0     C56761   2.788   7.925   6.999 -0.0616  0.5203 -0.6420
  421MOL0     C56762   2.877   7.866   7.114  0.5013  0.5036 -0.1384
  421MOL0     C56763   2.946   7.973   7.197  0.3220 -0.3559 -0.1172
  421MOL0     C56764   3.042   8.048   7.120  0.2980 -0.0800 -1.0155
  421MOL0     C56765   3.116   8.110   7.042  0.1951 -0.2702  0.1139
  421MOL0     C56766   2.535   7.676   7.067 -0.4057 -0.1402 -0.1316
  421MOL0     C56767   2.439   7.602   6.999  0.5501  0.9527  0.2270
  421MOL0     H56768   2.195   7.197   6.963  0.4505  1.5421 -0.2813
  421MOL0     H56769   2.041   7.044   6.883 -2.0119  0.4064  0.1099
  421MOL0     H56770   1.794   7.177   6.504 -0.4874  0.6230  1.5069
  421MOL0     H56771   1.916   7.052   6.472  1.1613  2.3486  1.7125
  421MOL0     H56772   1.776   6.884   6.523 -0.5451 -0.0682  1.8209
  421MOL0     H56773   1.642   6.981   6.592 -0.0013  0.4023  0.9535
  421MOL0     H56774   1.601   6.875   6.356 -2.8826  1.2767  1.1452
  421MOL0     H56775   1.579   7.050   6.369 -1.2999 -1.7553  1.2715
  421MOL0     H56776   1.793   7.088   6.254  3.9814 -1.1154  1.2177
  421MOL0     H56777   1.837   6.925   6.263 -0.6668 -0.0049  1.8262
  421MOL0     H56778   1.761   6.951   6.027 -1.5524  1.2171 -0.2335
  421MOL0     H56779   1.639   6.857   6.114 -3.2170  1.3493 -0.8648
  421MOL0     H56780   1.513   7.057   6.148  0.5510  1.6096  0.4898
  421MOL0     H56781   1.624   7.139   6.037 -4.2305  1.3783 -1.1556
  421MOL0     H56782   1.497   6.885   5.943  1.4358  1.0628  0.9977
  421MOL0     H56783   1.412   7.041   5.926 -0.6619 -0.0372  1.5694
  421MOL0     H56784   1.544   6.952   5.723  3.4522 -1.1275 -1.3768
  421MOL0     H56785   1.695   6.975   5.818 -0.0000 -2.0493 -0.4151
  421MOL0     H56786   1.785   7.209   5.814 -1.1494  0.2057  2.5239
  421MOL0     H56787   1.826   7.446   5.752  0.6409  1.9830 -1.6050
  421MOL0     H56788   1.731   7.507   5.618  1.9458 -0.7904 -0.6129
  421MOL0     H56789   1.571   7.602   5.786 -0.1184 -0.5350  0.0025
  421MOL0     H56790   1.740   7.661   5.788  0.9741  0.1104  2.4352
  421MOL0     H56791   1.699   7.635   6.012 -2.0571  1.3653 -2.1033
  421MOL0     H56792   1.766   7.474   5.982 -0.6065 -2.9526  0.1858
  421MOL0     H56793   1.531   7.388   5.968  2.0206  0.5228 -1.3692
  421MOL0     H56794   1.469   7.551   6.005 -0.4004 -0.6975  0.1214
  421MOL0     H56795   1.594   7.418   6.398  0.9121  2.1371 -4.2706
  421MOL0     H56796   1.523   7.476   6.615 -0.1508  1.9593  0.2601
  421MOL0     H56797   1.345   7.507   6.641  2.7790  1.4349  0.5996
  421MOL0     H56798   1.428   7.342   6.667  1.6369 -1.7598 -2.6994
  421MOL0     H56799   1.109   7.248   6.796 -0.1765 -0.0431  1.3337
  421MOL0     H56800   0.900   7.162   6.904 -0.6291  2.3598  2.6730
  421MOL0     H56801   0.694   7.082   6.903  0.0918 -0.2899 -0.8308
  421MOL0     H56802   0.641   7.199   7.028 -0.8616  2.7755 -0.6683
  421MOL0     H56803   0.409   7.183   6.940  1.2794  0.6419  2.2390
  421MOL0     H56804   0.455   7.067   6.811 -1.8545  1.0956 -1.0599
  421MOL0     H56805   0.562   6.926   6.994  1.1962  1.1302  0.5554
  421MOL0     H56806   0.389   6.912   6.964 -0.6359  1.9451 -0.6891
  421MOL0     H56807   0.467   7.108   7.190 -3.2322  0.7461  2.1294
  421MOL0     H56808   0.322   7.022   7.161 -0.2900  0.3400  1.2593
  421MOL0     H56809   0.458   6.805   7.196 -2.7284  0.8254  0.3779
  421MOL0     H56810   0.421   6.893   7.337 -0.0114  1.5706  0.7211
  421MOL0     H56811   0.664   6.810   7.315  0.0492  0.8789  1.6800
  421MOL0     H56812   0.701   6.940   7.206  0.2539 -1.3215 -0.7896
  421MOL0     H56813   0.576   6.945   7.487  3.8260 -5.0117 -0.6939
  421MOL0     H56814   0.627   7.100   7.423  1.5101 -0.6899  1.3645
  421MOL0     H56815   0.806   6.890   7.504 -1.4231 -0.0097 -0.5424
  421MOL0     H56816   0.775   7.046   7.574  0.4902  1.1366  0.8769
  421MOL0     H56817   0.672   7.450   6.702  0.1937  1.0183  1.8078
  421MOL0     H56818   0.886   7.556   6.604  0.3570 -0.1569  0.2400
  421MOL0     H56819   1.131   7.363   6.258  1.0904  0.3540 -1.0318
  421MOL0     H56820   1.308   7.424   6.088  0.6633  2.9571  0.8272
  421MOL0     H56821   1.920   7.337   6.582 -1.0413  0.2481  0.3556
  421MOL0     H56822   2.089   7.481   6.664 -1.8028 -0.1486 -0.2258
  421MOL0     H56823   2.177   7.818   7.008 -0.2657  1.3510  0.4097
  421MOL0     H56824   2.374   7.967   7.076 -2.5684 -0.0574  0.0150
  421MOL0     H56825   2.593   7.986   6.955  0.6891  2.9034 -0.5829
  421MOL0     H56826   2.661   8.090   7.073 -0.2837  0.1813 -1.1411
  421MOL0     H56827   2.840   8.007   6.949  0.0560  2.0545  1.7927
  421MOL0     H56828   2.770   7.845   6.927 -0.0211 -1.8972  1.8258
  421MOL0     H56829   2.956   7.808   7.067  1.0018 -0.2796  1.5929
  421MOL0     H56830   2.827   7.793   7.179  3.3273 -1.6527 -0.1854
  421MOL0     H56831   2.996   7.921   7.279 -2.3855 -3.5377 -0.2810
  421MOL0     H56832   2.882   8.049   7.243  2.2603  1.1005  0.3198
  421MOL0     H56833   3.178   8.162   6.972 -0.8175  1.7137  0.6280
  421MOL0     H56834   2.626   7.623   7.094  0.8963 -0.1037 -3.8194
  421MOL0     H56835   2.458   7.500   6.965 -1.3392  0.2462  1.1101
  422MOL0     O56836   4.388   6.240   0.093  0.0753 -0.7262 -0.5438
  422MOL0     C56837   4.316   6.235  -0.013  0.1331  0.5876 -0.1801
  422MOL0     O56838   4.295   6.337  -0.101  0.5286  0.0609 -0.0479
  422MOL0     C56839   4.368   6.447  -0.078 -0.6763  0.7946  0.2857
  422MOL0     C56840   4.303   6.563  -0.048  0.4328 -0.0165  0.6799
  422MOL0     C56841   4.370   6.683  -0.018 -0.1554  0.9901  0.5745
  422MOL0     C56842   4.512   6.679  -0.010  0.5792 -0.0890 -0.2609
  422MOL0     O56843   4.585   6.787   0.033 -0.0383  0.1502  0.0808
  422MOL0     C56844   4.563   6.824   0.172 -0.1835 -0.5325  0.6158
  422MOL0     C56845   4.678   6.901   0.225  0.2700  0.6323  0.1839
  422MOL0     C56846   4.674   6.927   0.374 -0.6868  0.4156  0.5464
  422MOL0     C56847   4.775   7.031   0.408 -0.0890 -0.6719  0.3833
  422MOL0     C56848   4.740   7.093   0.542 -0.4863  0.1881  0.8944
  422MOL0     C56849   4.640   7.211   0.538 -0.0644 -0.8965 -0.1933
  422MOL0     C56850   4.489   7.163   0.569 -0.3498  1.4083  0.3078
  422MOL0     C56851   4.398   7.277   0.623  0.1337  0.0117  0.4908
  422MOL0     N56852   4.352   7.375   0.524 -0.2109  0.3175  0.0811
  422MOL0     C56853   4.386   7.508   0.517  0.0547  0.3222 -0.3615
  422MOL0     C56854   4.298   7.565   0.439 -0.6208 -0.8921 -0.2144
  422MOL0     C56855   4.289   7.709   0.400  0.3977  0.9057 -0.2056
  422MOL0     C56856   4.188   7.788   0.495  0.1928 -0.0631 -1.0638
  422MOL0     C56857   4.169   7.929   0.447  0.0149 -0.3766 -0.9407
  422MOL0     C56858   4.053   7.962   0.369 -0.1735 -0.0998  0.9990
  422MOL0     O56859   4.058   8.094   0.314 -0.2682 -0.2386  0.5149
  422MOL0     C56860   3.947   8.140   0.245 -0.3616 -0.5621  0.0576
  422MOL0     C56861   3.967   8.267   0.191 -0.3773  0.2079 -0.0382
  422MOL0     C56862   3.864   8.334   0.137 -0.2916  0.0203  0.1301
  422MOL0     C56863   3.882   8.485   0.120 -0.2572 -0.4593  0.2232
  422MOL0     C56864   3.736   8.273   0.114  0.1126 -0.3949  0.0717
  422MOL0     C56865   3.607   8.341   0.066  0.4489 -0.3448  0.3812
  422MOL0     O56866   3.497   8.268   0.098 -0.5778 -0.8043 -0.2333
  422MOL0     C56867   3.373   8.326   0.080 -0.2796  0.1321  0.3313
  422MOL0     C56868   3.276   8.247   0.015 -0.2603  0.0707  0.6910
  422MOL0     C56869   3.139   8.278   0.019  0.0112  0.8045 -0.1951
  422MOL0     C56870   3.098   8.397   0.071  0.2718 -0.3721  0.3808
  422MOL0     O56871   2.968   8.426   0.063  0.7868  0.6503  0.0414
  422MOL0     C56872   2.918   8.547   0.116 -0.2967 -0.8267 -0.1518
  422MOL0     C56873   2.778   8.570   0.065  0.4120  0.5821  0.3173
  422MOL0     C56874   2.686   8.481   0.140  0.1503  0.0081 -0.1576
  422MOL0     C56875   2.543   8.519   0.141 -0.8022 -0.5129  0.1816
  422MOL0     C56876   2.468   8.409   0.208  0.1015 -0.5704 -0.2534
  422MOL0     C56877   2.316   8.439   0.212  0.8201 -0.1614  0.1859
  422MOL0     C56878   2.233   8.311   0.249  0.7753  0.2459 -0.5334
  422MOL0     C56879   2.097   8.358   0.285  0.2324 -0.1173  0.5274
  422MOL0    Cl56880   1.995   8.231   0.363  0.0584  0.0977  0.3809
  422MOL0     C56881   3.194   8.478   0.133  0.1974 -0.2009  0.3891
  422MOL0     C56882   3.331   8.450   0.138  1.1291 -1.0332 -0.5460
  422MOL0     O56883   3.610   8.447   0.013  1.3508 -0.1125  0.8013
  422MOL0     C56884   3.725   8.135   0.153  0.5545 -0.2317 -0.0502
  422MOL0     C56885   3.830   8.071   0.225 -0.6470  0.1311 -0.0761
  422MOL0     N56886   4.197   7.471   0.416 -0.3032 -0.3478  0.1729
  422MOL0     N56887   4.230   7.358   0.465  0.5677  0.0729  0.0764
  422MOL0     C56888   4.582   6.561  -0.032  0.9376  0.3892 -0.4721
  422MOL0     C56889   4.505   6.447  -0.073  0.3312 -0.2550 -0.5022
  422MOL0     C56890   4.225   6.122  -0.037  0.2279 -0.5112 -0.2831
  422MOL0     C56891   4.202   6.072  -0.163  0.3358 -0.1224 -0.3417
  422MOL0     C56892   4.096   5.980  -0.185  0.5245  0.2738  0.4978
  422MOL0     C56893   4.042   5.910  -0.077  0.6282  0.3523 -0.4377
  422MOL0     O56894   3.962   5.801  -0.117  0.1894  0.7311 -0.5226
  422MOL0     C56895   3.902   5.715  -0.017 -0.5958  0.1543  0.1844
  422MOL0     C56896   3.818   5.608  -0.075 -0.9120  0.2800  0.0947
  422MOL0     C56897   3.700   5.668  -0.146 -0.5609 -0.6580 -0.0426
  422MOL0     C56898   3.601   5.569  -0.200  0.0565 -0.3185 -0.9756
  422MOL0     C56899   3.639   5.492  -0.322  0.4157 -0.4080  0.0410
  422MOL0     C56900   3.673   5.445  -0.425  0.2176 -0.3358 -0.8062
  422MOL0     C56901   4.075   5.950   0.053  0.1798 -0.3252 -0.0293
  422MOL0     C56902   4.160   6.060   0.076 -0.9681  0.3538 -0.2089
  422MOL0     H56903   4.196   6.561  -0.067  0.7820 -0.0964 -1.4674
  422MOL0     H56904   4.308   6.768   0.009  0.6244  2.1211 -1.1000
  422MOL0     H56905   4.476   6.890   0.181  0.2708  0.5522 -1.9759
  422MOL0     H56906   4.542   6.740   0.238 -0.5355 -0.8821  0.0650
  422MOL0     H56907   4.769   6.848   0.200  0.2809  1.3907 -1.5388
  422MOL0     H56908   4.682   6.996   0.170 -4.9371  0.2064 -1.5072
  422MOL0     H56909   4.572   6.957   0.399 -0.4751 -1.2326  3.8910
  422MOL0     H56910   4.699   6.836   0.429 -0.2186 -0.8825 -1.6762
  422MOL0     H56911   4.873   6.984   0.413 -0.8532 -2.4255 -0.3116
  422MOL0     H56912   4.781   7.111   0.334  1.0422 -0.8563  0.2520
  422MOL0     H56913   4.712   7.016   0.614  1.9426 -0.5838  1.0868
  422MOL0     H56914   4.834   7.138   0.574  0.9291  0.0841 -2.6168
  422MOL0     H56915   4.671   7.280   0.617  1.5816  2.5334 -3.4910
  422MOL0     H56916   4.651   7.274   0.449 -1.2717 -0.6302 -0.1746
  422MOL0     H56917   4.448   7.118   0.478  0.7230  0.2355  0.3837
  422MOL0     H56918   4.471   7.078   0.636  0.2312 -0.7578 -2.1453
  422MOL0     H56919   4.461   7.337   0.690 -1.4848  1.7363  0.5589
  422MOL0     H56920   4.322   7.237   0.690  1.2441 -0.3821  1.5642
  422MOL0     H56921   4.476   7.549   0.562  0.7219 -0.7008 -0.7342
  422MOL0     H56922   4.389   7.751   0.388  1.2927 -0.5964  1.5603
  422MOL0     H56923   4.245   7.711   0.299 -2.8879 -1.4674  0.9987
  422MOL0     H56924   4.226   7.799   0.597 -1.2766  0.5851 -0.5477
  422MOL0     H56925   4.089   7.744   0.509 -0.6328  1.9862  0.1631
  422MOL0     H56926   4.257   7.965   0.394 -0.8972  2.3136 -0.7619
  422MOL0     H56927   4.162   7.986   0.541  0.7889 -1.7688  0.0073
  422MOL0     H56928   3.965   7.957   0.434  0.8583 -1.7735  2.3599
  422MOL0     H56929   4.048   7.881   0.296  0.9760  0.4666  0.2654
  422MOL0     H56930   4.058   8.325   0.200 -1.3504  1.8980 -0.7517
  422MOL0     H56931   3.961   8.520   0.187 -1.3570  3.1486 -0.1659
  422MOL0     H56932   3.912   8.496   0.016  1.2173  0.2982  0.6966
  422MOL0     H56933   3.793   8.548   0.131 -0.1895  0.1118 -2.0052
  422MOL0     H56934   3.320   8.154  -0.020 -1.2084 -1.9442  4.4152
  422MOL0     H56935   3.063   8.206  -0.009  1.3056 -0.7410  0.0371
  422MOL0     H56936   2.923   8.546   0.226  1.1258 -0.9790 -0.1950
  422MOL0     H56937   2.980   8.631   0.081 -0.9644  0.9155  2.4677
  422MOL0     H56938   2.747   8.675   0.075 -2.1462 -0.2034  1.1497
  422MOL0     H56939   2.773   8.560  -0.044 -4.3254 -3.4924  0.5965
  422MOL0     H56940   2.722   8.472   0.243  0.7262 -1.2580 -0.4447
  422MOL0     H56941   2.696   8.377   0.106  0.3571 -0.4627  1.2613
  422MOL0     H56942   2.528   8.612   0.197  0.8662  0.4052 -0.8357
  422MOL0     H56943   2.514   8.549   0.040 -1.0498  0.1303  0.4325
  422MOL0     H56944   2.504   8.399   0.310 -0.6858 -0.6958  0.0166
  422MOL0     H56945   2.479   8.315   0.154 -1.2420 -1.5334  1.0874
  422MOL0     H56946   2.304   8.517   0.288  2.1427 -1.5108  1.8699
  422MOL0     H56947   2.281   8.472   0.114  1.9015  1.3823  0.2768
  422MOL0     H56948   2.272   8.250   0.330 -2.4027 -0.9428  0.2609
  422MOL0     H56949   2.217   8.241   0.167  0.0865  1.6507 -1.6520
  422MOL0     H56950   2.053   8.387   0.190  0.5822 -2.4877 -0.4322
  422MOL0     H56951   2.097   8.443   0.354  1.2015 -0.6044  1.1505
  422MOL0     H56952   3.164   8.561   0.197  0.3220  0.4642 -0.4079
  422MOL0     H56953   3.397   8.518   0.191  0.0543  0.6330 -1.2340
  422MOL0     H56954   3.635   8.078   0.131  1.0663 -1.5188  1.0548
  422MOL0     H56955   3.816   7.968   0.258  0.1621 -0.2474 -0.8522
  422MOL0     H56956   4.688   6.535  -0.027  0.3172 -2.6521 -1.2419
  422MOL0     H56957   4.554   6.353  -0.096  0.4957 -0.2385 -0.2119
  422MOL0     H56958   4.245   6.130  -0.245  2.5882  0.0467  0.8755
  422MOL0     H56959   4.064   5.967  -0.288 -2.9845  2.6579  1.1320
  422MOL0     H56960   3.981   5.677   0.048  0.1630  0.2244 -0.6726
  422MOL0     H56961   3.841   5.779   0.046  1.1180 -0.0207  2.1250
  422MOL0     H56962   3.799   5.536   0.005  0.5963 -1.5444 -1.0777
  422MOL0     H56963   3.874   5.547  -0.148 -1.3283 -0.3333  0.2835
  422MOL0     H56964   3.723   5.727  -0.235  0.4693 -0.1684  0.5332
  422MOL0     H56965   3.655   5.737  -0.073  0.4466  0.8915 -0.8541
  422MOL0     H56966   3.514   5.632  -0.222 -0.0205 -0.0071  0.1626
  422MOL0     H56967   3.566   5.500  -0.123  0.4159 -1.1424 -1.5352
  422MOL0     H56968   3.694   5.398  -0.519 -2.1819 -2.1681 -0.4964
  422MOL0     H56969   4.020   5.914   0.139 -0.9706  1.8632  0.2083
  422MOL0     H56970   4.168   6.096   0.178 -0.1961  0.3559 -0.2657
  423MOL0     O56971   0.315   9.374   3.188  0.2158  0.7881 -0.4584
  423MOL0     C56972   0.364   9.454   3.263 -0.8259 -0.4373  0.4298
  423MOL0     O56973   0.331   9.484   3.387  0.0672 -0.0255  0.5461
  423MOL0     C56974   0.224   9.417   3.441 -0.4685  0.1847  0.3980
  423MOL0     C56975   0.231   9.279   3.483 -0.4605  0.1005  0.3784
  423MOL0     C56976   0.118   9.222   3.535 -0.1593  0.7801 -0.2941
  423MOL0     C56977  -0.002   9.293   3.548  0.0798 -0.8265 -1.0780
  423MOL0     O56978  -0.108   9.222   3.602 -0.4726 -0.3228  0.4423
  423MOL0     C56979  -0.245   9.261   3.558 -0.4916  0.4790 -0.0758
  423MOL0     C56980  -0.329   9.140   3.596 -0.6010  0.0279 -0.3792
  423MOL0     C56981  -0.476   9.172   3.577  0.2517 -0.7550 -0.4259
  423MOL0     C56982  -0.526   9.117   3.445  0.7029 -0.4204  0.2739
  423MOL0     C56983  -0.683   9.102   3.450 -0.8917  0.0505 -0.1283
  423MOL0     C56984  -0.747   9.087   3.314 -0.1452 -0.1249 -0.5269
  423MOL0     C56985  -0.893   9.060   3.338  0.4982 -0.5006  0.3541
  423MOL0     C56986  -0.965   9.044   3.200  0.3693 -0.2587 -0.2873
  423MOL0     N56987  -1.104   9.030   3.225  0.0554 -0.2452  0.3372
  423MOL0     C56988  -1.174   9.135   3.259  0.6285 -0.2509  0.2769
  423MOL0     C56989  -1.300   9.107   3.232  0.3331  0.9615 -0.4231
  423MOL0     C56990  -1.394   9.218   3.256  0.4582  0.1986  0.0624
  423MOL0     C56991  -1.547   9.175   3.265 -0.2582 -0.6308  0.4699
  423MOL0     C56992  -1.577   9.136   3.409  0.5986  0.1651  0.0785
  423MOL0     C56993  -1.725   9.130   3.432 -0.4812 -0.0459  0.7811
  423MOL0     O56994  -1.795   9.065   3.326  0.2532  0.2155  0.2237
  423MOL0     C56995  -1.935   9.079   3.328  0.1619 -0.5940  0.0721
  423MOL0     C56996  -1.995   9.050   3.212 -0.0395 -0.0861  0.2494
  423MOL0     C56997  -2.138   9.078   3.193 -0.6028  0.2950 -0.1495
  423MOL0     C56998  -2.203   9.068   3.057 -0.4645 -0.6778  0.4700
  423MOL0     C56999  -2.211   9.117   3.309 -0.1065 -1.2091 -0.6161
  423MOL0     C57000  -2.356   9.147   3.308  0.2063  0.4797 -0.8974
  423MOL0     O57001  -2.434   9.151   3.194 -0.6843 -0.3699  0.7235
  423MOL0     C57002  -2.569   9.157   3.209 -0.1526 -0.1379  0.1700
  423MOL0     C57003  -2.649   9.040   3.194  0.0293 -0.2969  0.6041
  423MOL0     C57004  -2.789   9.054   3.201  0.6641  0.5073 -0.2888
  423MOL0     C57005  -2.857   9.169   3.232  0.3926  0.1478 -0.3568
  423MOL0     O57006  -2.993   9.170   3.245  0.7858  0.4583  0.6167
  423MOL0     C57007  -3.059   9.255   3.339 -0.0861  0.8373 -0.0163
  423MOL0     C57008  -3.197   9.200   3.380  0.3467 -0.7613  0.6803
  423MOL0     C57009  -3.187   9.074   3.478 -0.0550  0.0388 -0.4492
  423MOL0     C57010  -3.292   8.975   3.456  0.0429  0.1808 -0.6801
  423MOL0     C57011  -3.285   8.858   3.565  0.0008 -0.2830  0.1682
  423MOL0     C57012  -3.288   8.903   3.719  0.0504 -0.4560  0.2590
  423MOL0     C57013  -3.412   8.977   3.760  0.9719  0.0550 -0.0577
  423MOL0     C57014  -3.548   8.901   3.754 -0.3178  0.3164  0.6895
  423MOL0    Cl57015  -3.540   8.755   3.862  0.4602 -0.0860  0.3534
  423MOL0     C57016  -2.784   9.287   3.236 -0.6292 -0.2653 -0.6808
  423MOL0     C57017  -2.641   9.280   3.221  0.8742 -0.6990 -0.2922
  423MOL0     O57018  -2.399   9.168   3.420  0.3638  0.8922  0.7190
  423MOL0     C57019  -2.140   9.133   3.433  0.3860 -0.1397  0.0330
  423MOL0     C57020  -2.000   9.135   3.439 -0.5434 -0.2036 -0.0401
  423MOL0     N57021  -1.307   8.974   3.181  0.3971 -0.7247 -0.0487
  423MOL0     N57022  -1.182   8.935   3.173 -0.1549  0.0602  0.2892
  423MOL0     C57023  -0.012   9.432   3.509 -0.2938  0.4199 -0.6115
  423MOL0     C57024   0.101   9.492   3.448  0.0129  0.6879  0.4509
  423MOL0     C57025   0.479   9.532   3.203 -0.5972  0.1284  0.7041
  423MOL0     C57026   0.495   9.548   3.060  0.6239  0.5293 -0.6480
  423MOL0     C57027   0.595   9.632   3.005  0.2409  0.4587 -0.0284
  423MOL0     C57028   0.660   9.712   3.097 -0.5807 -0.3321 -0.6568
  423MOL0     O57029   0.735   9.808   3.029 -0.8719  0.6570 -0.8153
  423MOL0     C57030   0.828   9.890   3.101  0.6432  0.0334 -0.7124
  423MOL0     C57031   0.873   9.999   3.007 -0.1056  0.0342  0.1256
  423MOL0     C57032   0.980  10.091   3.063  0.0271 -0.5841  0.8290
  423MOL0     C57033   1.036  10.178   2.946 -0.5610  0.2787  0.5867
  423MOL0     C57034   0.935  10.274   2.903 -0.6066 -0.1709 -0.0605
  423MOL0     C57035   0.869  10.366   2.861 -0.8634 -0.1546 -0.4278
  423MOL0     C57036   0.658   9.689   3.236  0.7861  0.1027 -0.2425
  423MOL0     C57037   0.563   9.598   3.286 -0.7347 -0.1602  0.1980
  423MOL0     H57038   0.321   9.219   3.483 -1.3005 -1.2307 -1.6166
  423MOL0     H57039   0.111   9.118   3.566  1.3035  0.9327  0.6703
  423MOL0     H57040  -0.269   9.359   3.598 -0.7227  1.4098 -2.3381
  423MOL0     H57041  -0.250   9.268   3.449 -1.0169  1.5524  0.0094
  423MOL0     H57042  -0.299   9.051   3.540 -1.9228  0.4117 -1.7665
  423MOL0     H57043  -0.314   9.123   3.703 -0.6315  1.7738 -0.0687
  423MOL0     H57044  -0.540   9.120   3.650 -1.4405 -0.3916 -1.6118
  423MOL0     H57045  -0.491   9.280   3.587 -1.2915 -1.0638  1.3394
  423MOL0     H57046  -0.487   9.169   3.358  1.9887 -2.0846 -0.1997
  423MOL0     H57047  -0.487   9.015   3.432  0.4216 -0.2700 -2.2297
  423MOL0     H57048  -0.706   9.019   3.517 -1.8523 -0.7345 -1.3789
  423MOL0     H57049  -0.721   9.193   3.498  1.1887  0.5760  0.6111
  423MOL0     H57050  -0.729   9.181   3.260  1.3171  0.1843  0.4425
  423MOL0     H57051  -0.703   9.004   3.258  0.0899 -0.6400  0.4009
  423MOL0     H57052  -0.908   8.972   3.402 -0.5703 -0.6252 -0.0456
  423MOL0     H57053  -0.926   9.151   3.389  1.0950 -0.0335 -0.0789
  423MOL0     H57054  -0.929   8.959   3.140  4.3591  1.5135 -0.7488
  423MOL0     H57055  -0.944   9.133   3.141 -1.7763 -1.8326 -3.7495
  423MOL0     H57056  -1.137   9.229   3.301  2.3513 -1.3955  1.4480
  423MOL0     H57057  -1.364   9.269   3.348  0.2330 -0.9998  0.8159
  423MOL0     H57058  -1.397   9.288   3.171  1.0257 -0.6042 -0.6320
  423MOL0     H57059  -1.567   9.093   3.195  3.5405 -0.8497 -0.5840
  423MOL0     H57060  -1.599   9.269   3.242 -0.5934 -0.4141  1.9914
  423MOL0     H57061  -1.535   9.205   3.483 -0.0723  0.9574 -0.2651
  423MOL0     H57062  -1.537   9.037   3.436  2.2226  1.1098  1.2770
  423MOL0     H57063  -1.756   9.235   3.431  1.0325  0.4265  0.3213
  423MOL0     H57064  -1.739   9.085   3.530  3.9059  0.8179  2.0162
  423MOL0     H57065  -1.933   9.011   3.133 -1.3791 -0.3746 -0.7024
  423MOL0     H57066  -2.132   9.011   2.996  1.4990  0.2780  1.7561
  423MOL0     H57067  -2.300   9.017   3.051 -0.7446  0.0175 -1.6834
  423MOL0     H57068  -2.216   9.170   3.020  2.5030 -0.7703 -1.1481
  423MOL0     H57069  -2.591   8.948   3.183  2.9592  1.4561  0.2232
  423MOL0     H57070  -2.850   8.966   3.186 -0.1664  1.2433 -1.2995
  423MOL0     H57071  -3.001   9.274   3.430 -0.2114  0.3262  0.1745
  423MOL0     H57072  -3.077   9.350   3.289 -0.4954  0.0553 -1.4072
  423MOL0     H57073  -3.248   9.285   3.428 -2.5218 -0.2800 -2.8013
  423MOL0     H57074  -3.253   9.171   3.291  1.4471  0.5020 -0.4673
  423MOL0     H57075  -3.202   9.118   3.577  0.0505  0.2126 -0.5098
  423MOL0     H57076  -3.090   9.026   3.473 -0.7684 -1.3307 -2.5091
  423MOL0     H57077  -3.389   9.024   3.449 -0.4867 -0.2178  2.3753
  423MOL0     H57078  -3.272   8.925   3.361 -0.6639  0.9837 -1.2544
  423MOL0     H57079  -3.191   8.802   3.563 -0.3778 -0.9250  0.0217
  423MOL0     H57080  -3.359   8.783   3.536  0.3857 -0.6789  0.2102
  423MOL0     H57081  -3.287   8.817   3.786 -2.5898 -0.9574 -0.2388
  423MOL0     H57082  -3.205   8.971   3.738 -2.0433  1.8498  1.8351
  423MOL0     H57083  -3.416   9.068   3.699  2.4431  0.7543  0.8280
  423MOL0     H57084  -3.414   9.009   3.865  0.1886  1.9519 -0.6003
  423MOL0     H57085  -3.570   8.875   3.650  2.8663 -0.1429  0.0202
  423MOL0     H57086  -3.626   8.972   3.781  0.1062  0.6961  0.9436
  423MOL0     H57087  -2.818   9.389   3.254  2.9902  1.5549 -2.8906
  423MOL0     H57088  -2.593   9.377   3.212 -2.2485  1.0303  0.0199
  423MOL0     H57089  -2.190   9.157   3.526  2.0491  2.4264  0.3688
  423MOL0     H57090  -1.949   9.167   3.530 -1.4131 -2.3540  1.2854
  423MOL0     H57091  -0.103   9.490   3.517  0.0769  0.8334  0.8060
  423MOL0     H57092   0.098   9.597   3.423  1.1366  0.7390  0.4731
  423MOL0     H57093   0.427   9.507   2.986 -1.8080  2.5849  0.3042
  423MOL0     H57094   0.587   9.663   2.901  1.0436 -0.1535 -0.2854
  423MOL0     H57095   0.770   9.940   3.179  0.7326  2.1739 -1.9358
  423MOL0     H57096   0.909   9.833   3.147 -1.2598 -1.3920  1.0525
  423MOL0     H57097   0.785  10.060   2.986  0.5003  0.8476 -0.0869
  423MOL0     H57098   0.903   9.953   2.912 -2.0539  0.7799 -0.8989
  423MOL0     H57099   1.060  10.026   3.101  0.5489 -1.8937 -2.1695
  423MOL0     H57100   0.927  10.138   3.146 -0.9005 -1.0471  0.5064
  423MOL0     H57101   1.061  10.113   2.862 -1.0158 -1.1831  1.5466
  423MOL0     H57102   1.120  10.239   2.980 -2.1520  2.1026  1.4683
  423MOL0     H57103   0.801  10.443   2.827  0.9795  1.3995 -0.7854
  423MOL0     H57104   0.714   9.744   3.312  0.0859 -1.5707  1.5534
  423MOL0     H57105   0.551   9.589   3.393  2.1099 -2.2213  0.4558
  424MOL0     O57106   8.356  11.266   7.282 -0.0730 -0.2772  0.9429
  424MOL0     C57107   8.424  11.269   7.176 -0.8613  0.3225 -1.1424
  424MOL0     O57108   8.380  11.304   7.055  0.5457 -0.0332 -0.0575
  424MOL0     C57109   8.258  11.358   7.032  0.9198  0.6697 -0.4628
  424MOL0     C57110   8.242  11.434   6.920  0.0801 -0.1241 -0.2847
  424MOL0     C57111   8.118  11.479   6.882  0.0789 -0.2566  0.1239
  424MOL0     C57112   7.996  11.452   6.946  0.7737  0.0330  0.1816
  424MOL0     O57113   7.873  11.500   6.912  0.3309 -0.4311 -0.6974
  424MOL0     C57114   7.855  11.536   6.775  0.2192 -0.0587  0.2751
  424MOL0     C57115   7.803  11.678   6.779 -0.1146 -0.1262  0.4797
  424MOL0     C57116   7.747  11.722   6.645  0.0871 -0.0047 -0.1872
  424MOL0     C57117   7.594  11.701   6.633 -0.0472 -0.0503  0.1170
  424MOL0     C57118   7.565  11.714   6.486  0.0237 -0.3709 -0.9708
  424MOL0     C57119   7.425  11.669   6.466  0.6207  0.5271  0.2771
  424MOL0     C57120   7.392  11.644   6.317  0.1175  0.0244 -0.7516
  424MOL0     C57121   7.262  11.559   6.292 -0.5461 -0.3794 -0.0244
  424MOL0     N57122   7.248  11.536   6.150  0.1652  0.2221 -0.0310
  424MOL0     C57123   7.188  11.423   6.102  0.6528 -0.0399  0.2462
  424MOL0     C57124   7.175  11.448   5.966 -0.4359 -0.5108 -0.3006
  424MOL0     C57125   7.085  11.369   5.874  0.1143 -0.3552  0.1540
  424MOL0     C57126   6.939  11.402   5.920 -0.1743  0.0211  0.6166
  424MOL0     C57127   6.842  11.396   5.800 -0.6765  0.0706 -0.7208
  424MOL0     C57128   6.703  11.439   5.826 -0.8490 -0.4782  0.4383
  424MOL0     O57129   6.645  11.378   5.947 -0.1919  0.2705 -0.0478
  424MOL0     C57130   6.512  11.389   5.966  0.3363 -0.3128  0.4370
  424MOL0     C57131   6.451  11.300   6.055 -0.2253 -0.3239  0.6870
  424MOL0     C57132   6.311  11.300   6.082 -0.4075 -0.3163  0.8049
  424MOL0     C57133   6.257  11.205   6.192 -0.7315 -0.9023  0.2017
  424MOL0     C57134   6.231  11.388   5.999  0.6315 -0.1224  0.7044
  424MOL0     C57135   6.078  11.397   5.993 -0.8727  0.1360 -0.0958
  424MOL0     O57136   6.024  11.271   6.005  0.0780 -0.5496 -0.1618
  424MOL0     C57137   5.893  11.265   5.974  0.4046 -0.4928 -0.4469
  424MOL0     C57138   5.791  11.232   6.071 -0.1369  0.4733 -0.6676
  424MOL0     C57139   5.658  11.227   6.041  0.5365  0.4909  0.7918
  424MOL0     C57140   5.611  11.244   5.905  1.0858 -0.6954  0.1271
  424MOL0     O57141   5.474  11.240   5.872  0.0650  1.0449 -0.2138
  424MOL0     C57142   5.423  11.292   5.748 -0.5207 -0.5703  0.1931
  424MOL0     C57143   5.281  11.339   5.753  0.3801  0.2701 -0.3488
  424MOL0     C57144   5.233  11.380   5.621 -0.2388 -0.2235  0.0441
  424MOL0     C57145   5.088  11.432   5.641 -0.7467  0.1946  0.0402
  424MOL0     C57146   5.021  11.417   5.509 -0.5357 -0.1986 -0.0352
  424MOL0     C57147   4.891  11.500   5.494 -0.6491 -0.0622  0.6495
  424MOL0     C57148   4.767  11.417   5.526 -0.0290  0.0222  0.5270
  424MOL0     C57149   4.655  11.471   5.455  0.0443 -1.1371  0.7825
  424MOL0    Cl57150   4.496  11.415   5.512  0.1880  0.6144  0.2876
  424MOL0     C57151   5.703  11.264   5.814 -0.8281  0.0752  0.7020
  424MOL0     C57152   5.840  11.269   5.844 -0.7914 -0.0732 -0.6688
  424MOL0     O57153   6.020  11.503   5.975  0.5105 -0.1799 -0.4330
  424MOL0     C57154   6.293  11.471   5.904  0.5169 -0.0712 -0.4453
  424MOL0     C57155   6.426  11.473   5.890  0.3807  0.3348  0.8740
  424MOL0     N57156   7.261  11.557   5.938  0.4434 -0.2337  0.4517
  424MOL0     N57157   7.297  11.608   6.049 -0.7352 -0.3943  0.3256
  424MOL0     C57158   8.005  11.380   7.062 -0.2702  0.4355 -0.9095
  424MOL0     C57159   8.134  11.324   7.098 -0.5018 -0.6765  0.1851
  424MOL0     C57160   8.564  11.213   7.190  0.3731  0.1487 -0.4589
  424MOL0     C57161   8.638  11.173   7.076  0.1983  0.5679 -0.2367
  424MOL0     C57162   8.765  11.123   7.088 -0.5758  0.2579 -0.4548
  424MOL0     C57163   8.833  11.112   7.208  0.0373  0.2597 -0.0631
  424MOL0     O57164   8.963  11.069   7.207  0.7896  0.5575 -0.2109
  424MOL0     C57165   9.021  11.025   7.333  0.4548 -0.8536 -0.3663
  424MOL0     C57166   9.161  10.980   7.300 -0.0693 -0.7291 -0.3308
  424MOL0     C57167   9.173  10.831   7.250 -0.3039  0.4236  0.6816
  424MOL0     C57168   9.303  10.788   7.183  0.5973 -0.0214  0.5233
  424MOL0     C57169   9.428  10.803   7.267 -0.1887 -0.0962  0.7171
  424MOL0     C57170   9.522  10.791   7.340  0.0432  0.5260 -0.0319
  424MOL0     C57171   8.757  11.136   7.325 -0.3043 -0.3173 -0.1696
  424MOL0     C57172   8.623  11.189   7.320  0.5229  0.3123  0.2257
  424MOL0     H57173   8.332  11.461   6.866  0.4326  0.0896  0.3951
  424MOL0     H57174   8.125  11.539   6.792 -0.1255  0.8462  0.8351
  424MOL0     H57175   7.938  11.538   6.704 -0.8452  5.4474 -1.3141
  424MOL0     H57176   7.787  11.470   6.722  1.6057 -1.1705 -0.1800
  424MOL0     H57177   7.716  11.683   6.845  0.9117  2.4986  1.7625
  424MOL0     H57178   7.883  11.744   6.814  0.8060 -0.2945 -1.1893
  424MOL0     H57179   7.772  11.829   6.646  0.5831 -0.0821  1.8801
  424MOL0     H57180   7.802  11.679   6.561 -1.6376 -1.7303 -0.4900
  424MOL0     H57181   7.567  11.601   6.666 -3.7854  1.1205  1.0590
  424MOL0     H57182   7.529  11.761   6.697  2.1221  0.1223  2.2673
  424MOL0     H57183   7.591  11.813   6.449  1.5732  0.4167  1.8971
  424MOL0     H57184   7.633  11.643   6.438 -0.4379 -2.2394  0.9442
  424MOL0     H57185   7.402  11.581   6.526  1.1644  0.6099  0.6179
  424MOL0     H57186   7.357  11.744   6.507  1.5345  1.5208  0.0092
  424MOL0     H57187   7.384  11.741   6.267 -1.5291  0.1530 -0.3145
  424MOL0     H57188   7.473  11.583   6.277 -0.7774 -0.9226 -1.1729
  424MOL0     H57189   7.184  11.622   6.335  1.7244  2.8596 -0.3421
  424MOL0     H57190   7.252  11.461   6.341 -0.3533 -0.9896 -1.1512
  424MOL0     H57191   7.138  11.340   6.152 -2.8523 -1.1374 -4.3254
  424MOL0     H57192   7.104  11.402   5.772 -2.9014 -1.6816 -0.9435
  424MOL0     H57193   7.105  11.261   5.869  2.5319 -0.2576  3.7368
  424MOL0     H57194   6.928  11.500   5.966 -2.5741 -0.1060  0.4333
  424MOL0     H57195   6.917  11.317   5.985  0.2381  0.1503  0.9254
  424MOL0     H57196   6.851  11.295   5.759 -1.4947 -0.7811  1.0880
  424MOL0     H57197   6.884  11.468   5.729  0.6807  1.0200  0.9736
  424MOL0     H57198   6.649  11.405   5.738  0.9234 -1.6252 -0.2462
  424MOL0     H57199   6.698  11.548   5.833  0.2166 -0.2161 -2.1203
  424MOL0     H57200   6.507  11.232   6.118 -0.9529 -1.7573 -0.1762
  424MOL0     H57201   6.178  11.146   6.145 -0.3332 -0.6241 -0.8382
  424MOL0     H57202   6.328  11.129   6.226 -1.4587 -1.2716  0.9254
  424MOL0     H57203   6.227  11.266   6.277  0.8666 -0.4389  0.4713
  424MOL0     H57204   5.828  11.224   6.173  0.0069  1.4289 -0.6304
  424MOL0     H57205   5.581  11.211   6.116 -0.5302 -0.2766 -0.4198
  424MOL0     H57206   5.494  11.369   5.716 -1.3473 -0.2876 -1.0039
  424MOL0     H57207   5.433  11.215   5.670 -1.7017 -1.2653  0.7096
  424MOL0     H57208   5.215  11.255   5.776 -0.3862  1.1225  0.6677
  424MOL0     H57209   5.268  11.425   5.819  0.8539  0.1044 -0.0297
  424MOL0     H57210   5.237  11.292   5.556  3.6831 -3.0717  3.6731
  424MOL0     H57211   5.296  11.456   5.573 -1.7487  1.6526  0.8805
  424MOL0     H57212   5.030  11.377   5.717 -1.7058  2.4585  1.0654
  424MOL0     H57213   5.097  11.538   5.669  5.1961  0.3725 -1.3403
  424MOL0     H57214   4.991  11.314   5.486 -2.7373  0.1105  1.1969
  424MOL0     H57215   5.099  11.459   5.444  2.6168 -1.9608  2.3151
  424MOL0     H57216   4.898  11.582   5.566 -2.0199 -1.2598  2.2448
  424MOL0     H57217   4.890  11.530   5.389 -0.4450  0.9327  0.9295
  424MOL0     H57218   4.754  11.421   5.634  1.3689  1.6200  0.6890
  424MOL0     H57219   4.784  11.315   5.491  1.6302  0.5409 -0.3358
  424MOL0     H57220   4.663  11.449   5.348 -0.1026  0.7019  0.3454
  424MOL0     H57221   4.656  11.581   5.455  0.6576 -1.1433  1.2167
  424MOL0     H57222   5.672  11.260   5.710 -3.4342  1.2243  1.3502
  424MOL0     H57223   5.916  11.273   5.767 -0.6030  0.6438 -0.4560
  424MOL0     H57224   6.229  11.532   5.840  0.2711 -0.5359 -0.6471
  424MOL0     H57225   6.459  11.529   5.804 -1.1140 -1.7009 -1.1385
  424MOL0     H57226   7.912  11.359   7.114  0.9579  0.3800  1.3926
  424MOL0     H57227   8.139  11.259   7.185  0.1571 -0.0831  0.6018
  424MOL0     H57228   8.601  11.184   6.975 -0.0712 -1.9969 -0.4919
  424MOL0     H57229   8.817  11.096   6.996 -0.6318  0.3354 -0.5092
  424MOL0     H57230   9.016  11.100   7.413  1.3602 -1.6187  0.4246
  424MOL0     H57231   8.962  10.943   7.372  0.3415 -0.9746 -0.7883
  424MOL0     H57232   9.206  10.976   7.399  0.5359 -2.6206 -0.6402
  424MOL0     H57233   9.221  11.043   7.233 -0.9007 -1.9046 -2.2815
  424MOL0     H57234   9.095  10.814   7.176 -0.7153 -0.1943  1.2456
  424MOL0     H57235   9.141  10.761   7.328 -0.7404  0.7014  0.7578
  424MOL0     H57236   9.306  10.839   7.086  1.5150 -2.4154 -0.8121
  424MOL0     H57237   9.289  10.682   7.158 -1.2365 -0.2805  2.4211
  424MOL0     H57238   9.612  10.779   7.398 -0.2770 -2.6105 -0.0254
  424MOL0     H57239   8.801  11.103   7.419  2.3107  1.0846 -0.8146
  424MOL0     H57240   8.567  11.211   7.410  1.3667 -1.9238  1.3673
  425MOL0     O57241   8.579   8.543   6.893 -0.3038  0.9127 -0.3678
  425MOL0     C57242   8.564   8.460   6.798 -1.1679 -0.4954 -0.9832
  425MOL0     O57243   8.448   8.406   6.753 -0.3767  0.1893 -0.2464
  425MOL0     C57244   8.332   8.437   6.816  0.8514  0.2601 -0.8377
  425MOL0     C57245   8.273   8.563   6.826 -0.8918  0.0624 -0.9135
  425MOL0     C57246   8.149   8.584   6.888 -0.1787 -1.0014 -0.2749
  425MOL0     C57247   8.080   8.476   6.932  0.3072 -0.5327 -0.7306
  425MOL0     O57248   7.955   8.491   6.991  0.0527 -0.0500  0.2164
  425MOL0     C57249   7.842   8.425   6.939  0.6029  0.3589 -0.1819
  425MOL0     C57250   7.714   8.464   6.993  0.1296 -1.0228  0.1856
  425MOL0     C57251   7.674   8.602   6.948  0.7776  0.1728  0.1886
  425MOL0     C57252   7.718   8.715   7.038 -0.3429 -0.3126 -0.2580
  425MOL0     C57253   7.673   8.706   7.179  0.1950  0.3720 -0.8023
  425MOL0     C57254   7.520   8.684   7.203 -0.4855 -0.1127 -0.4093
  425MOL0     C57255   7.463   8.711   7.344 -0.1498 -0.3605 -0.1159
  425MOL0     C57256   7.305   8.693   7.344  0.4318  0.0608 -0.9451
  425MOL0     N57257   7.260   8.801   7.438  0.1154  0.1591  0.0259
  425MOL0     C57258   7.160   8.890   7.407 -1.0354  0.2036  1.4425
  425MOL0     C57259   7.134   8.943   7.529 -0.5570  0.8345  0.9785
  425MOL0     C57260   7.032   9.045   7.557 -0.6804  0.5125  0.1498
  425MOL0     C57261   7.084   9.187   7.546 -0.7302  0.0370 -0.1694
  425MOL0     C57262   7.187   9.217   7.659  0.1224  0.0325 -0.1108
  425MOL0     C57263   7.281   9.338   7.635  0.1451 -0.2931 -0.9508
  425MOL0     O57264   7.361   9.298   7.526 -0.2768 -0.5679  1.2635
  425MOL0     C57265   7.479   9.362   7.507  0.1640  0.5625 -0.5024
  425MOL0     C57266   7.590   9.283   7.474  0.4319 -0.6976  0.7401
  425MOL0     C57267   7.715   9.334   7.464 -0.1181 -0.1992  0.4531
  425MOL0     C57268   7.829   9.232   7.436  0.1924  0.5398 -0.5262
  425MOL0     C57269   7.740   9.469   7.491 -0.3157 -0.6290  0.0210
  425MOL0     C57270   7.879   9.531   7.493 -0.7635 -0.4488  0.0398
  425MOL0     O57271   7.990   9.467   7.441  0.1268  0.3226 -0.3880
  425MOL0     C57272   8.107   9.525   7.415 -0.3581 -0.2694  0.2522
  425MOL0     C57273   8.206   9.434   7.395 -0.3661 -0.5013  0.3920
  425MOL0     C57274   8.332   9.474   7.358  0.3210  0.5968 -0.4188
  425MOL0     C57275   8.362   9.606   7.343  0.0154 -0.1499 -0.8743
  425MOL0     O57276   8.486   9.647   7.304  0.5755  0.1152  0.4548
  425MOL0     C57277   8.487   9.716   7.187  0.3677 -0.3924 -0.2586
  425MOL0     C57278   8.634   9.722   7.135 -0.7904 -0.2759 -0.2716
  425MOL0     C57279   8.707   9.824   7.221 -0.3031 -0.1966  0.5851
  425MOL0     C57280   8.850   9.846   7.168  1.0727 -0.8127  0.6335
  425MOL0     C57281   8.922   9.927   7.268  0.7040  0.1892  1.0812
  425MOL0     C57282   9.063   9.977   7.220  0.0535 -1.2255 -0.1924
  425MOL0     C57283   9.162   9.868   7.229  0.1349  0.7621  0.0662
  425MOL0     C57284   9.304   9.919   7.221 -0.0080  0.1563  0.4175
  425MOL0    Cl57285   9.357  10.029   7.083  0.3537  0.4532  0.2152
  425MOL0     C57286   8.257   9.693   7.353 -0.2606 -0.2232 -0.5271
  425MOL0     C57287   8.137   9.653   7.392  0.1157 -0.5096  1.3498
  425MOL0     O57288   7.882   9.644   7.548  0.4268 -0.6647  0.4369
  425MOL0     C57289   7.633   9.550   7.530 -0.0423  0.2616 -0.2815
  425MOL0     C57290   7.496   9.499   7.541 -1.1775  0.6561  0.4393
  425MOL0     N57291   7.212   8.882   7.629  0.0902 -0.2583 -0.4198
  425MOL0     N57292   7.278   8.793   7.570 -0.1697 -0.3371 -0.1935
  425MOL0     C57293   8.133   8.353   6.931 -0.0607  0.5469  0.1615
  425MOL0     C57294   8.258   8.328   6.875 -0.6112 -0.4264 -0.1826
  425MOL0     C57295   8.685   8.423   6.735 -0.1321 -0.0814 -0.3167
  425MOL0     C57296   8.690   8.374   6.602  0.2340 -0.0245  0.0887
  425MOL0     C57297   8.814   8.337   6.546  0.4665 -0.2561  0.1749
  425MOL0     C57298   8.934   8.354   6.613  0.7065 -0.4926  0.5245
  425MOL0     O57299   9.049   8.335   6.537  0.0029  0.1748  0.7786
  425MOL0     C57300   9.169   8.410   6.556 -0.0439  0.7350 -0.7456
  425MOL0     C57301   9.274   8.315   6.606 -0.5029  0.9020  0.0274
  425MOL0     C57302   9.233   8.253   6.743 -0.1305 -0.3781  1.1461
  425MOL0     C57303   9.349   8.170   6.802  0.5415 -0.0441  0.9061
  425MOL0     C57304   9.311   8.118   6.933 -0.6203  0.2334 -0.1109
  425MOL0     C57305   9.292   8.079   7.049  0.8431 -0.5973  0.7057
  425MOL0     C57306   8.932   8.395   6.749  0.2806  0.8686  0.1516
  425MOL0     C57307   8.806   8.424   6.802 -1.6106 -0.1354 -0.0471
  425MOL0     H57308   8.314   8.659   6.798 -5.6741  2.2806 -1.3528
  425MOL0     H57309   8.108   8.685   6.890  3.6990  0.7718 -0.3601
  425MOL0     H57310   7.840   8.433   6.830  1.0970  0.7823 -0.1661
  425MOL0     H57311   7.854   8.323   6.976  0.4262  1.1027  2.0990
  425MOL0     H57312   7.638   8.395   6.956  0.5317 -0.1979 -2.4445
  425MOL0     H57313   7.728   8.459   7.101  3.0884 -0.7126 -0.1155
  425MOL0     H57314   7.721   8.626   6.852  0.4509  1.8165  0.4142
  425MOL0     H57315   7.566   8.599   6.934  0.5517  1.9564  1.2406
  425MOL0     H57316   7.827   8.722   7.044 -0.4698  3.5143  0.1822
  425MOL0     H57317   7.699   8.814   6.995  1.2276 -0.5550 -1.6162
  425MOL0     H57318   7.729   8.634   7.240  2.0244  1.4354 -1.1599
  425MOL0     H57319   7.695   8.806   7.216  1.7013  0.0997 -0.9065
  425MOL0     H57320   7.466   8.749   7.134 -0.2988  1.6581  1.0237
  425MOL0     H57321   7.496   8.582   7.173 -0.2704 -0.7626  1.4917
  425MOL0     H57322   7.510   8.643   7.415  0.8948  1.2910  0.8507
  425MOL0     H57323   7.483   8.812   7.379  1.7085 -0.4744 -0.7204
  425MOL0     H57324   7.269   8.596   7.379 -0.9219  1.4523  1.8091
  425MOL0     H57325   7.255   8.706   7.247 -0.6322 -0.8873 -0.5331
  425MOL0     H57326   7.119   8.892   7.307  3.4940  0.1256 -0.6457
  425MOL0     H57327   6.960   9.024   7.477  1.8058  0.4374 -2.2587
  425MOL0     H57328   6.983   9.033   7.654  0.8883  3.1774  1.3762
  425MOL0     H57329   7.007   9.264   7.540 -1.3691 -0.4624  1.2151
  425MOL0     H57330   7.129   9.194   7.447  0.9784 -2.8050  0.2879
  425MOL0     H57331   7.246   9.128   7.682 -2.2828 -1.4779  0.6401
  425MOL0     H57332   7.126   9.229   7.748  0.5698 -0.9386  0.3416
  425MOL0     H57333   7.347   9.344   7.722 -2.0339  2.1694  0.6911
  425MOL0     H57334   7.224   9.431   7.628  0.4326  0.0314  0.5922
  425MOL0     H57335   7.569   9.178   7.458 -2.6775 -0.1147  0.2603
  425MOL0     H57336   7.897   9.237   7.521 -0.5437 -0.5831  0.1633
  425MOL0     H57337   7.793   9.128   7.432  0.0564  0.5503  0.3545
  425MOL0     H57338   7.891   9.257   7.349 -2.3084 -0.3135 -2.7333
  425MOL0     H57339   8.192   9.327   7.395  0.2118 -0.6065 -1.1036
  425MOL0     H57340   8.413   9.402   7.349  0.0197 -0.1256  2.1052
  425MOL0     H57341   8.427   9.660   7.114  2.1412 -3.2491  0.3318
  425MOL0     H57342   8.436   9.813   7.192  1.4381  0.1450  0.6786
  425MOL0     H57343   8.673   9.622   7.155 -0.8333  0.0175  1.3839
  425MOL0     H57344   8.627   9.752   7.030 -0.3824 -1.2060 -0.5739
  425MOL0     H57345   8.708   9.789   7.324  1.2824 -4.0093 -0.5694
  425MOL0     H57346   8.653   9.920   7.218  0.0613 -0.0067 -0.1769
  425MOL0     H57347   8.894   9.749   7.145  0.7237 -0.4306 -1.8828
  425MOL0     H57348   8.846   9.898   7.072  1.4873 -0.1382  0.9747
  425MOL0     H57349   8.937   9.867   7.358  0.1844  0.3918  1.3042
  425MOL0     H57350   8.860  10.014   7.288 -0.5317 -0.6002  0.7990
  425MOL0     H57351   9.056  10.002   7.114 -1.7045 -1.8422 -0.2555
  425MOL0     H57352   9.086  10.071   7.272 -0.3105 -0.8200 -0.7563
  425MOL0     H57353   9.144   9.793   7.152  1.9030  2.6147 -2.3267
  425MOL0     H57354   9.151   9.819   7.326 -0.4144 -0.0315 -0.3882
  425MOL0     H57355   9.375   9.837   7.219  1.3018  1.2274 -2.6487
  425MOL0     H57356   9.318   9.973   7.315 -0.1375 -0.4592  0.7963
  425MOL0     H57357   8.282   9.798   7.342  2.6128 -0.3306  2.9893
  425MOL0     H57358   8.061   9.729   7.378  0.2509 -0.7010 -0.6672
  425MOL0     H57359   7.646   9.651   7.567 -1.0430  0.2644  0.0862
  425MOL0     H57360   7.415   9.561   7.579 -1.5550  1.7624 -1.9653
  425MOL0     H57361   8.071   8.273   6.970 -0.1032  1.3373  1.7806
  425MOL0     H57362   8.300   8.228   6.860  0.3415  0.0781 -1.0425
  425MOL0     H57363   8.598   8.358   6.547 -0.6311  0.2099  1.4313
  425MOL0     H57364   8.816   8.286   6.451  1.4212 -1.6296  0.9010
  425MOL0     H57365   9.209   8.456   6.466  2.1687 -2.9535 -1.8488
  425MOL0     H57366   9.161   8.486   6.635  3.6829 -0.3356  0.9033
  425MOL0     H57367   9.372   8.364   6.616  1.1109 -2.3822  1.8030
  425MOL0     H57368   9.287   8.237   6.530  1.9003 -3.4778  4.3305
  425MOL0     H57369   9.146   8.192   6.720 -0.0675  0.1407 -0.6529
  425MOL0     H57370   9.214   8.329   6.820 -0.5170  0.0379  0.6513
  425MOL0     H57371   9.428   8.244   6.817 -0.1369  0.8773  0.0353
  425MOL0     H57372   9.368   8.083   6.738  0.3004 -0.0187  0.7975
  425MOL0     H57373   9.283   8.059   7.154  1.1838 -0.0038  0.8584
  425MOL0     H57374   9.019   8.417   6.810  0.7544 -0.1281 -0.1506
  425MOL0     H57375   8.814   8.459   6.904  3.9080  1.8818 -0.7976
  426MOL0     O57376   9.422   3.291   1.250  0.1732  0.6848 -0.1831
  426MOL0     C57377   9.484   3.234   1.343  0.9625 -1.0474  0.1807
  426MOL0     O57378   9.476   3.270   1.474  0.4044  0.5569 -0.0026
  426MOL0     C57379   9.395   3.383   1.501 -0.0311  0.4658  0.0282
  426MOL0     C57380   9.301   3.381   1.598  0.5273 -0.1992  0.0837
  426MOL0     C57381   9.233   3.505   1.633 -0.4048  0.8713  0.3954
  426MOL0     C57382   9.268   3.622   1.573  0.2589  0.0590 -0.2217
  426MOL0     O57383   9.220   3.748   1.597  0.5720  0.1749 -0.0000
  426MOL0     C57384   9.118   3.772   1.685  0.3654  0.1542  0.5240
  426MOL0     C57385   9.067   3.915   1.655 -0.0366 -0.7069  0.2761
  426MOL0     C57386   8.938   3.940   1.723 -0.3120 -0.1379  0.9996
  426MOL0     C57387   8.812   3.881   1.652 -0.3170  0.2850  0.3421
  426MOL0     C57388   8.680   3.920   1.727 -0.3452  0.0019  0.2922
  426MOL0     C57389   8.635   4.070   1.734 -0.3685 -0.6041 -0.4558
  426MOL0     C57390   8.583   4.118   1.602  0.4340  0.5770  0.3953
  426MOL0     C57391   8.519   4.260   1.613  0.2725  0.5288 -0.3097
  426MOL0     N57392   8.398   4.246   1.695 -0.1574 -0.1375 -0.1195
  426MOL0     C57393   8.279   4.198   1.644 -0.7875  0.6416  0.4597
  426MOL0     C57394   8.190   4.206   1.743  0.1187 -0.3487 -0.0713
  426MOL0     C57395   8.050   4.159   1.745  0.2920 -0.0807 -0.1000
  426MOL0     C57396   7.965   4.271   1.684  1.0601  0.2528 -1.3342
  426MOL0     C57397   7.818   4.214   1.640 -0.0206  1.5059  0.3411
  426MOL0     C57398   7.720   4.327   1.605  0.3926 -0.2707  0.2353
  426MOL0     O57399   7.589   4.262   1.582 -0.4483 -0.8477  0.1301
  426MOL0     C57400   7.490   4.351   1.553  0.2930 -0.4298  0.7029
  426MOL0     C57401   7.499   4.498   1.567  0.3849  0.7125  0.0692
  426MOL0     C57402   7.389   4.582   1.535 -0.3478 -0.7835 -0.5865
  426MOL0     C57403   7.429   4.731   1.531 -0.3128  0.4090 -0.3911
  426MOL0     C57404   7.267   4.520   1.495 -0.1646 -0.6745  0.4556
  426MOL0     C57405   7.145   4.600   1.457  0.8387  0.9679 -0.2506
  426MOL0     O57406   7.042   4.532   1.390 -0.0487 -0.3318 -0.0330
  426MOL0     C57407   6.914   4.578   1.387  0.1505  0.3822 -0.4779
  426MOL0     C57408   6.821   4.477   1.408 -0.4245 -0.1467 -0.2101
  426MOL0     C57409   6.691   4.514   1.430  0.8489 -0.3569  0.1480
  426MOL0     C57410   6.646   4.647   1.422  0.3079 -0.7241 -0.3185
  426MOL0     O57411   6.523   4.693   1.463  0.3027  1.1095  0.1706
  426MOL0     C57412   6.424   4.592   1.488  0.1347 -0.2736 -0.1945
  426MOL0     C57413   6.281   4.656   1.466  0.0615 -0.2106 -0.3491
  426MOL0     C57414   6.256   4.788   1.533 -0.3708  0.7099  0.2426
  426MOL0     C57415   6.104   4.821   1.513 -0.5755  0.1504  0.2762
  426MOL0     C57416   6.072   4.960   1.566  0.9965  0.1660  0.8803
  426MOL0     C57417   5.924   5.006   1.533 -0.2317  0.3548 -0.1248
  426MOL0     C57418   5.910   5.152   1.577 -0.4268  0.0892  0.2485
  426MOL0     C57419   5.776   5.203   1.527  0.5173  0.3787  0.1696
  426MOL0    Cl57420   5.744   5.375   1.588 -0.2660 -0.1632 -0.2773
  426MOL0     C57421   6.734   4.739   1.378 -0.3254 -0.3163  0.5769
  426MOL0     C57422   6.872   4.713   1.361 -0.9491  0.3942 -0.8185
  426MOL0     O57423   7.152   4.724   1.476  0.2406 -0.4150 -0.2855
  426MOL0     C57424   7.261   4.385   1.471  0.2271  0.1387 -0.4295
  426MOL0     C57425   7.368   4.303   1.501  0.0998  0.6119  0.2012
  426MOL0     N57426   8.248   4.274   1.850  1.1692 -0.1296 -0.3374
  426MOL0     N57427   8.370   4.299   1.820  0.1463 -0.2068 -0.0208
  426MOL0     C57428   9.362   3.619   1.469  0.4873  0.0737 -0.4057
  426MOL0     C57429   9.436   3.506   1.447  0.3432  0.2017 -0.2068
  426MOL0     C57430   9.585   3.124   1.308 -0.0917 -0.4021 -0.3080
  426MOL0     C57431   9.607   3.077   1.180 -0.5176 -0.2060  0.4255
  426MOL0     C57432   9.703   2.984   1.146 -0.2560 -0.4694 -0.0021
  426MOL0     C57433   9.787   2.936   1.243 -1.1355 -0.0543  0.1054
  426MOL0     O57434   9.896   2.861   1.202  0.9617 -0.2592 -1.0057
  426MOL0     C57435   9.991   2.820   1.299  0.5655  0.0665  0.3671
  426MOL0     C57436  10.122   2.790   1.217 -0.1741  0.3659 -0.3090
  426MOL0     C57437  10.171   2.904   1.118 -0.3154 -1.0282 -0.6743
  426MOL0     C57438  10.325   2.884   1.084 -0.1769 -0.3828 -0.0441
  426MOL0     C57439  10.345   2.776   0.989 -0.3267 -0.1088  0.4773
  426MOL0     C57440  10.358   2.688   0.914  0.2121  0.1687 -0.4747
  426MOL0     C57441   9.760   2.965   1.376  0.5063  0.1294 -0.0960
  426MOL0     C57442   9.655   3.053   1.404 -0.7649  0.1226  0.4132
  426MOL0     H57443   9.260   3.288   1.636 -0.9627  0.7265  0.8310
  426MOL0     H57444   9.156   3.494   1.708  0.9809 -2.3375  1.5006
  426MOL0     H57445   9.034   3.702   1.682 -0.7222  1.4477 -0.4282
  426MOL0     H57446   9.149   3.769   1.790 -0.3848 -2.5002  0.7498
  426MOL0     H57447   9.139   3.983   1.701  0.4324 -1.4714  0.6915
  426MOL0     H57448   9.038   3.929   1.550 -1.5724  1.3161  0.9031
  426MOL0     H57449   8.954   3.895   1.822  0.4832  0.2973  1.0714
  426MOL0     H57450   8.925   4.048   1.732 -1.2478 -0.1542  0.0528
  426MOL0     H57451   8.797   3.908   1.547 -3.6885 -3.3546 -0.3491
  426MOL0     H57452   8.817   3.772   1.645 -0.7733  0.3727 -3.5715
  426MOL0     H57453   8.599   3.870   1.673 -0.4915  1.0026 -0.4551
  426MOL0     H57454   8.684   3.873   1.826  1.1752 -0.8974 -0.1584
  426MOL0     H57455   8.559   4.073   1.813 -0.2861  1.6098 -0.3879
  426MOL0     H57456   8.712   4.139   1.770 -1.0710 -0.2402  0.4188
  426MOL0     H57457   8.665   4.108   1.532 -0.3716 -2.4773 -0.2292
  426MOL0     H57458   8.502   4.056   1.563  0.2038  0.3386  1.2349
  426MOL0     H57459   8.476   4.312   1.528  1.5539  1.7293 -0.2660
  426MOL0     H57460   8.581   4.332   1.668 -1.8532  2.8488 -0.8186
  426MOL0     H57461   8.260   4.159   1.544 -2.3462  2.5558 -0.0586
  426MOL0     H57462   8.033   4.071   1.682  0.6227 -0.3981  0.2489
  426MOL0     H57463   8.028   4.131   1.848  2.0304  0.1530  0.3579
  426MOL0     H57464   7.997   4.306   1.585 -3.0513 -1.2718 -3.4130
  426MOL0     H57465   7.956   4.357   1.751  1.1736 -0.2819 -0.6223
  426MOL0     H57466   7.772   4.165   1.726 -1.7001 -0.8116 -1.7285
  426MOL0     H57467   7.831   4.140   1.561  1.9784  1.5702  0.5403
  426MOL0     H57468   7.766   4.391   1.530  0.5861 -1.4942 -0.7299
  426MOL0     H57469   7.712   4.390   1.694 -0.0316  0.4865 -0.3304
  426MOL0     H57470   7.591   4.546   1.597  0.0653  1.5314 -0.2214
  426MOL0     H57471   7.529   4.744   1.574 -0.1765 -2.5082  0.4231
  426MOL0     H57472   7.437   4.760   1.426 -2.1881  0.4836 -0.5583
  426MOL0     H57473   7.356   4.791   1.585 -0.5994 -0.7327  0.5279
  426MOL0     H57474   6.839   4.370   1.411 -2.2130 -0.4588  0.2855
  426MOL0     H57475   6.634   4.428   1.464  1.9763 -0.3336  2.2921
  426MOL0     H57476   6.432   4.510   1.416 -3.9606 -1.4181  0.4180
  426MOL0     H57477   6.439   4.565   1.593 -0.7477  3.3936  1.0146
  426MOL0     H57478   6.264   4.673   1.359  0.8162 -0.6625 -0.5466
  426MOL0     H57479   6.207   4.580   1.493  1.5180 -1.8105 -0.6956
  426MOL0     H57480   6.326   4.864   1.499 -1.0963  1.1789 -0.2240
  426MOL0     H57481   6.269   4.768   1.639 -1.2108 -1.3890  0.0094
  426MOL0     H57482   6.071   4.814   1.409 -3.9729  1.7389  1.0970
  426MOL0     H57483   6.045   4.744   1.565  0.0735 -1.0141 -0.6695
  426MOL0     H57484   6.138   5.032   1.518 -0.5324  0.6647 -0.5675
  426MOL0     H57485   6.075   4.971   1.675 -3.0644  0.3035  1.1339
  426MOL0     H57486   5.899   4.995   1.427  1.4278 -0.2880 -0.4908
  426MOL0     H57487   5.845   4.940   1.572 -2.0408 -1.3344 -5.7249
  426MOL0     H57488   5.998   5.205   1.539 -0.7712  0.3596 -0.1763
  426MOL0     H57489   5.916   5.160   1.686 -1.1470 -0.4492  0.3332
  426MOL0     H57490   5.694   5.142   1.567  0.9752 -0.2150  0.2160
  426MOL0     H57491   5.773   5.195   1.418  0.7915 -1.4099  0.2719
  426MOL0     H57492   6.706   4.844   1.369 -1.7771 -0.7154  0.1914
  426MOL0     H57493   6.948   4.786   1.334 -1.1191  0.6310 -0.6683
  426MOL0     H57494   7.169   4.330   1.451  2.0907 -2.8495 -1.4183
  426MOL0     H57495   7.358   4.196   1.484 -0.5104  0.7481 -0.3037
  426MOL0     H57496   9.388   3.703   1.406 -2.3775  0.2194 -1.5378
  426MOL0     H57497   9.518   3.514   1.376  0.2963  0.1467 -0.2673
  426MOL0     H57498   9.540   3.111   1.102 -4.3447 -3.5320  1.9294
  426MOL0     H57499   9.724   2.964   1.041 -1.2813  0.7269 -0.4577
  426MOL0     H57500  10.010   2.901   1.369  1.7817  0.6487 -0.5879
  426MOL0     H57501   9.956   2.734   1.356 -0.3523 -0.0715 -0.3704
  426MOL0     H57502  10.110   2.714   1.139  3.7188  2.0012 -2.8310
  426MOL0     H57503  10.200   2.746   1.279  2.8728  0.5399 -3.7164
  426MOL0     H57504  10.166   2.998   1.174 -2.4179 -0.4316 -1.7770
  426MOL0     H57505  10.113   2.914   1.027  1.4771 -0.6369 -1.8290
  426MOL0     H57506  10.390   2.858   1.168  2.5866  1.1278 -1.5610
  426MOL0     H57507  10.353   2.982   1.043  1.2210 -0.7534 -0.0436
  426MOL0     H57508  10.352   2.601   0.853 -0.5527  1.4321 -2.2874
  426MOL0     H57509   9.809   2.918   1.461  1.0908  0.4391 -0.2529
  426MOL0     H57510   9.632   3.074   1.508 -0.6968  1.6897  0.1342
  427MOL0     O57511   3.954   9.962   6.361 -0.7511  0.2515 -0.4333
  427MOL0     C57512   4.057  10.033   6.373  0.8438 -0.3035 -0.1036
  427MOL0     O57513   4.058  10.167   6.420 -0.3569  0.0918  0.0503
  427MOL0     C57514   3.942  10.228   6.453  0.7089  0.2368 -0.4356
  427MOL0     C57515   3.830  10.243   6.367  0.2761  0.3823  0.5140
  427MOL0     C57516   3.711  10.299   6.410  0.4239  0.1053 -0.4813
  427MOL0     C57517   3.701  10.346   6.538 -0.0153 -0.3304 -0.7473
  427MOL0     O57518   3.587  10.404   6.585  1.1857 -0.0910  0.7288
  427MOL0     C57519   3.456  10.361   6.543 -0.0114  0.1810  0.1329
  427MOL0     C57520   3.343  10.387   6.648  0.1202  0.0981  0.6989
  427MOL0     C57521   3.196  10.371   6.597 -0.2621 -0.2049  0.9177
  427MOL0     C57522   3.110  10.373   6.724 -0.0554  0.2614 -0.3830
  427MOL0     C57523   2.956  10.365   6.679  0.5674  0.1974 -0.6097
  427MOL0     C57524   2.877  10.316   6.796  0.2876  0.6056 -0.5068
  427MOL0     C57525   2.732  10.319   6.756  0.0119  0.4358 -0.7168
  427MOL0     C57526   2.699  10.213   6.658 -0.3717 -0.3037  0.5172
  427MOL0     N57527   2.557  10.220   6.622 -0.6916  0.2657  0.0685
  427MOL0     C57528   2.478  10.113   6.646 -0.0124  0.2085  0.1569
  427MOL0     C57529   2.374  10.117   6.561 -0.6430 -0.4777 -0.2190
  427MOL0     C57530   2.265  10.014   6.547 -1.0309  0.1230 -1.2378
  427MOL0     C57531   2.123  10.080   6.525  0.3506  0.8591 -0.4643
  427MOL0     C57532   2.092  10.086   6.378  0.3219  0.4757  0.5458
  427MOL0     C57533   1.940  10.115   6.354  0.0171  0.5437  0.3326
  427MOL0     O57534   1.906  10.219   6.448 -0.4342 -0.4006  0.4951
  427MOL0     C57535   1.773  10.250   6.439  0.3560 -0.7728  0.1575
  427MOL0     C57536   1.683  10.219   6.539  0.5904  0.0605 -0.4086
  427MOL0     C57537   1.542  10.235   6.524  0.7583  0.5078 -0.7453
  427MOL0     C57538   1.463  10.196   6.653 -0.1118 -0.8667  0.2397
  427MOL0     C57539   1.495  10.295   6.408 -0.4956  0.0280  0.5339
  427MOL0     C57540   1.352  10.323   6.388  0.8088 -0.1948 -0.2740
  427MOL0     O57541   1.320  10.452   6.339 -0.1672  0.9367  0.2540
  427MOL0     C57542   1.191  10.469   6.288 -0.0131  0.2950  0.7284
  427MOL0     C57543   1.080  10.442   6.363  0.5505  0.5168  0.2690
  427MOL0     C57544   0.948  10.452   6.319 -0.6088 -0.6012 -0.4004
  427MOL0     C57545   0.932  10.509   6.186 -0.0729  0.6591 -0.8272
  427MOL0     O57546   0.807  10.522   6.136  0.7306 -0.1169 -0.1351
  427MOL0     C57547   0.694  10.509   6.221 -0.5186  0.2007 -0.3061
  427MOL0     C57548   0.568  10.525   6.137  0.0975  0.0798  1.0460
  427MOL0     C57549   0.438  10.557   6.209 -0.1035  0.0702 -0.3941
  427MOL0     C57550   0.317  10.558   6.113  0.1447 -0.6626 -0.4919
  427MOL0     C57551   0.169  10.564   6.174 -0.4699 -0.3024  0.1627
  427MOL0     C57552   0.059  10.551   6.068 -1.0353  0.9170 -0.5005
  427MOL0     C57553  -0.069  10.527   6.135 -0.5923  0.0852  0.1765
  427MOL0     C57554  -0.198  10.569   6.062 -0.5122 -0.1695  0.5294
  427MOL0    Cl57555  -0.341  10.525   6.160  0.1573 -0.1970  0.4201
  427MOL0     C57556   1.050  10.553   6.118 -1.0185  0.6074  0.3658
  427MOL0     C57557   1.177  10.532   6.168  0.2921 -0.2660  1.1486
  427MOL0     O57558   1.272  10.226   6.397 -0.0903 -0.4026 -0.1823
  427MOL0     C57559   1.588  10.343   6.312  0.9937 -0.7263  0.3235
  427MOL0     C57560   1.725  10.324   6.328  0.3606 -0.4983  0.3391
  427MOL0     N57561   2.406  10.223   6.474 -0.0123  0.3480  0.5248
  427MOL0     N57562   2.508  10.283   6.511  0.6261 -0.0819  0.3958
  427MOL0     C57563   3.813  10.334   6.625 -0.1028 -0.5029 -0.4078
  427MOL0     C57564   3.932  10.286   6.577  0.5655 -0.0881 -0.0655
  427MOL0     C57565   4.187   9.963   6.382  0.0410  0.1383  0.1906
  427MOL0     C57566   4.197   9.824   6.357  0.2379  0.9474  0.0041
  427MOL0     C57567   4.318   9.760   6.381 -0.2552  0.3837 -1.0101
  427MOL0     C57568   4.432   9.824   6.422  0.6428  0.2368  0.0741
  427MOL0     O57569   4.555   9.769   6.439 -0.0760 -1.0979  0.4766
  427MOL0     C57570   4.592   9.646   6.378  0.3107  0.5590  0.4601
  427MOL0     C57571   4.628   9.679   6.234  0.5109 -1.1920  0.3515
  427MOL0     C57572   4.685   9.558   6.163 -0.1982 -0.2910 -0.5600
  427MOL0     C57573   4.737   9.572   6.018 -0.4913 -0.0585  0.0305
  427MOL0     C57574   4.834   9.682   6.004  0.4806  0.3286 -0.0900
  427MOL0     C57575   4.922   9.766   5.982 -0.0147 -0.6046  0.6616
  427MOL0     C57576   4.415   9.957   6.447 -0.7064 -0.1054  0.9045
  427MOL0     C57577   4.302  10.033   6.426  0.1448  0.1683  0.2455
  427MOL0     H57578   3.836  10.217   6.262  3.0381  2.6270 -0.0062
  427MOL0     H57579   3.630  10.304   6.337 -0.9285  2.8429  1.0691
  427MOL0     H57580   3.448  10.422   6.453  1.8419  1.2905  0.6507
  427MOL0     H57581   3.459  10.254   6.519 -1.5907  0.5161 -1.7908
  427MOL0     H57582   3.367  10.335   6.741  1.0763 -0.1918  0.2991
  427MOL0     H57583   3.353  10.492   6.676 -0.3666 -0.0010  1.2702
  427MOL0     H57584   3.168  10.441   6.518  2.8543 -0.9777 -1.0447
  427MOL0     H57585   3.172  10.275   6.550  3.4441 -1.8421  1.9964
  427MOL0     H57586   3.149  10.289   6.781 -2.3751 -0.4219  0.3162
  427MOL0     H57587   3.121  10.464   6.783 -0.5170 -0.1913  0.4233
  427MOL0     H57588   2.922  10.464   6.645 -0.5173 -0.0449 -0.2825
  427MOL0     H57589   2.945  10.292   6.598 -0.4087  1.2346 -1.4627
  427MOL0     H57590   2.915  10.221   6.833  1.1931  1.8314  2.0001
  427MOL0     H57591   2.895  10.387   6.877 -1.5472  0.0484  0.4425
  427MOL0     H57592   2.674  10.299   6.847  2.5442 -1.0863  0.6754
  427MOL0     H57593   2.701  10.416   6.716  0.5972  1.8999  2.1062
  427MOL0     H57594   2.725  10.113   6.695 -1.2961 -0.3411  1.0957
  427MOL0     H57595   2.762  10.218   6.568  0.0936  0.7194  0.8891
  427MOL0     H57596   2.504  10.030   6.711  3.9011  0.8520 -0.3504
  427MOL0     H57597   2.293   9.943   6.469  1.4135 -0.4962  0.1003
  427MOL0     H57598   2.262   9.956   6.639 -1.1494 -0.0324 -1.3393
  427MOL0     H57599   2.119  10.174   6.580 -0.4772  0.1291  0.7773
  427MOL0     H57600   2.054  10.010   6.574  2.1030 -0.0698  0.8100
  427MOL0     H57601   2.112   9.989   6.331 -0.8372  0.5863 -0.2099
  427MOL0     H57602   2.162  10.160   6.338  0.8799 -0.3535 -0.0534
  427MOL0     H57603   1.881  10.028   6.382  0.0157 -0.7749 -3.3498
  427MOL0     H57604   1.907  10.132   6.252 -0.5497 -0.0930  0.4088
  427MOL0     H57605   1.710  10.174   6.633 -1.8636 -3.4420 -1.1816
  427MOL0     H57606   1.528  10.213   6.739  0.3475  0.6783 -0.3720
  427MOL0     H57607   1.372  10.256   6.659  1.5519  1.6793  2.6407
  427MOL0     H57608   1.436  10.092   6.634  0.2827 -0.6715 -1.5394
  427MOL0     H57609   1.093  10.378   6.450 -0.3121  1.2806  0.9655
  427MOL0     H57610   0.867  10.402   6.370 -1.4914  0.4977 -0.6833
  427MOL0     H57611   0.685  10.405   6.257 -1.2128 -0.3653 -2.0119
  427MOL0     H57612   0.687  10.582   6.302 -1.3246 -0.3215  0.1170
  427MOL0     H57613   0.576  10.598   6.056 -4.1204 -1.2247 -0.8056
  427MOL0     H57614   0.547  10.430   6.086 -0.3291  1.2430 -1.0355
  427MOL0     H57615   0.458  10.653   6.257 -1.1672 -0.3393  0.9341
  427MOL0     H57616   0.425  10.489   6.293 -0.7386  0.8257  0.1391
  427MOL0     H57617   0.333  10.639   6.041 -3.5753 -2.6015 -3.9591
  427MOL0     H57618   0.328  10.471   6.047 -0.3945 -1.2476  0.1753
  427MOL0     H57619   0.171  10.659   6.228 -2.6373  0.9326 -1.7726
  427MOL0     H57620   0.154  10.486   6.250  2.1367 -2.3212 -1.2063
  427MOL0     H57621   0.064  10.641   6.006  2.8778  1.1747 -0.0604
  427MOL0     H57622   0.077  10.463   6.005 -2.1551  0.8636 -0.7701
  427MOL0     H57623  -0.067  10.580   6.231 -2.0749 -1.5916  1.1921
  427MOL0     H57624  -0.068  10.422   6.166  0.4079  0.8526  3.0639
  427MOL0     H57625  -0.193  10.519   5.965 -1.7257  2.2430 -0.8712
  427MOL0     H57626  -0.198  10.677   6.042  1.6507 -0.5449 -2.0646
  427MOL0     H57627   1.041  10.602   6.021 -3.2582  1.1677  0.8248
  427MOL0     H57628   1.260  10.560   6.103  0.6191 -1.6213  0.9515
  427MOL0     H57629   1.566  10.396   6.220  0.8656  0.5590  1.0566
  427MOL0     H57630   1.793  10.343   6.245  2.0223  0.3866  1.8395
  427MOL0     H57631   3.826  10.386   6.719 -0.5750 -1.0154 -0.0549
  427MOL0     H57632   4.018  10.276   6.643  0.5720 -1.9816 -0.3041
  427MOL0     H57633   4.109   9.772   6.321  1.4908  0.3519 -2.4506
  427MOL0     H57634   4.324   9.655   6.358 -0.0964  0.4186 -1.1299
  427MOL0     H57635   4.675   9.596   6.429 -0.1841  0.2882  1.0190
  427MOL0     H57636   4.510   9.573   6.375 -0.1255  1.0376  0.6911
  427MOL0     H57637   4.698   9.761   6.251 -0.5840 -0.5986  2.3194
  427MOL0     H57638   4.538   9.715   6.183 -0.8213  1.2597  3.9868
  427MOL0     H57639   4.613   9.478   6.181  1.7120 -2.0636 -0.3813
  427MOL0     H57640   4.769   9.518   6.220 -0.1603 -1.6473 -1.5257
  427MOL0     H57641   4.650   9.593   5.955  0.0523 -0.5019 -0.8843
  427MOL0     H57642   4.786   9.478   5.992 -2.3255 -1.3309  0.9642
  427MOL0     H57643   5.001   9.829   5.948 -1.5184  0.9574 -0.1025
  427MOL0     H57644   4.502  10.007   6.488 -1.2267 -0.5356  2.5878
  427MOL0     H57645   4.282  10.133   6.464 -0.8069  0.1447 -0.1892
  428MOL0     O57646   6.542   8.526   4.880 -0.2551 -0.4264 -0.4116
  428MOL0     C57647   6.523   8.646   4.864  0.5308 -0.8036  0.2599
  428MOL0     O57648   6.436   8.725   4.936  0.0372 -0.5387 -0.0921
  428MOL0     C57649   6.360   8.683   5.043 -0.4165 -0.4090  0.8036
  428MOL0     C57650   6.348   8.772   5.148  0.0029  0.0006  0.7888
  428MOL0     C57651   6.278   8.748   5.263 -0.5965 -0.0194 -0.3627
  428MOL0     C57652   6.204   8.631   5.267 -0.8877 -0.9428  0.2729
  428MOL0     O57653   6.120   8.614   5.374  0.7342  0.6104  0.1171
  428MOL0     C57654   6.150   8.669   5.503  0.7605  0.1203  0.0992
  428MOL0     C57655   6.062   8.594   5.616  0.3178 -0.5681  0.1518
  428MOL0     C57656   5.906   8.610   5.590  0.5084 -0.3225 -0.1969
  428MOL0     C57657   5.820   8.535   5.697 -0.2468 -0.0045 -0.2389
  428MOL0     C57658   5.670   8.550   5.645  0.3089  0.6111  0.2964
  428MOL0     C57659   5.573   8.471   5.731 -0.3515 -0.2818  0.1377
  428MOL0     C57660   5.428   8.493   5.687  0.1356  0.2262 -0.4832
  428MOL0     C57661   5.381   8.636   5.708 -0.2459 -0.6222  0.5262
  428MOL0     N57662   5.232   8.648   5.688  0.1227  0.4191 -0.2000
  428MOL0     C57663   5.174   8.692   5.572 -0.1084  0.5677 -0.2572
  428MOL0     C57664   5.041   8.673   5.585  0.1917  0.9009 -0.1954
  428MOL0     C57665   4.942   8.724   5.480 -0.1457 -0.1475  0.8307
  428MOL0     C57666   4.793   8.738   5.525 -0.6720  0.6624  0.1084
  428MOL0     C57667   4.753   8.842   5.631  0.3878 -0.0575 -0.1812
  428MOL0     C57668   4.599   8.876   5.636 -0.2847 -0.3198 -0.0619
  428MOL0     O57669   4.522   8.765   5.680 -0.1104  0.0100 -0.4642
  428MOL0     C57670   4.398   8.803   5.727 -0.0076  0.1632 -0.0728
  428MOL0     C57671   4.365   8.808   5.859  0.3527 -0.0850 -0.3327
  428MOL0     C57672   4.246   8.867   5.909  0.2903  0.1301 -0.9760
  428MOL0     C57673   4.224   8.868   6.056  0.3889  0.6461  0.2014
  428MOL0     C57674   4.159   8.926   5.824 -0.4891  0.3429  0.8265
  428MOL0     C57675   4.039   8.980   5.874  0.1294  0.4741 -0.0590
  428MOL0     O57676   3.928   8.918   5.826  0.1716 -0.1603  0.3671
  428MOL0     C57677   3.821   9.008   5.817  0.5127  0.9599 -0.0345
  428MOL0     C57678   3.731   9.015   5.916 -0.6810  0.4349  0.3382
  428MOL0     C57679   3.613   9.090   5.906  0.1435 -0.2571 -0.8782
  428MOL0     C57680   3.580   9.162   5.786 -0.3750 -0.0315 -0.6004
  428MOL0     O57681   3.473   9.242   5.755 -0.1814 -0.4731 -0.8827
  428MOL0     C57682   3.384   9.263   5.866  0.8664 -0.8920 -0.2179
  428MOL0     C57683   3.252   9.303   5.796 -0.6342  0.1136 -0.2861
  428MOL0     C57684   3.146   9.339   5.901 -0.5394 -0.1016  0.8830
  428MOL0     C57685   3.027   9.402   5.842 -0.6976  0.1187  0.6936
  428MOL0     C57686   2.930   9.304   5.780  0.0450 -0.2599  0.4448
  428MOL0     C57687   2.821   9.362   5.705  0.0283  0.8729  0.8129
  428MOL0     C57688   2.722   9.249   5.663 -0.4826 -0.2533 -0.3878
  428MOL0     C57689   2.603   9.294   5.580  0.0215  0.6385  0.5707
  428MOL0    Cl57690   2.519   9.434   5.649 -0.0218  0.1760  0.3692
  428MOL0     C57691   3.678   9.152   5.685  0.1392  0.4865 -0.7298
  428MOL0     C57692   3.797   9.075   5.700  0.7385 -0.1355  0.5299
  428MOL0     O57693   4.045   9.083   5.941 -0.0645  0.4677  0.3405
  428MOL0     C57694   4.194   8.934   5.692 -0.0049 -0.9644  0.2131
  428MOL0     C57695   4.310   8.872   5.643  0.1480  0.4849 -0.8944
  428MOL0     N57696   5.014   8.603   5.704  0.1347  0.2810  0.8603
  428MOL0     N57697   5.132   8.592   5.766  1.3638  0.1710 -0.1429
  428MOL0     C57698   6.206   8.539   5.164  0.3556 -1.3398 -0.1245
  428MOL0     C57699   6.291   8.564   5.051  0.2279  0.1620  0.0476
  428MOL0     C57700   6.599   8.720   4.759 -0.9318 -0.1336 -0.1068
  428MOL0     C57701   6.730   8.685   4.732 -0.1459  0.1633 -0.0513
  428MOL0     C57702   6.803   8.747   4.638 -0.2517 -0.4397  0.4517
  428MOL0     C57703   6.754   8.851   4.568 -0.5509 -0.2692  0.4028
  428MOL0     O57704   6.836   8.916   4.473  0.3585  0.4830  0.1293
  428MOL0     C57705   6.856   8.830   4.352  1.2231 -0.8973 -0.0072
  428MOL0     C57706   6.897   8.920   4.237 -0.0494 -0.6785 -0.3859
  428MOL0     C57707   6.789   8.999   4.174 -1.2585 -0.6656  0.0107
  428MOL0     C57708   6.855   9.093   4.071  0.0932  0.2050 -0.0178
  428MOL0     C57709   6.742   9.146   3.990  0.5474 -0.1864  0.1537
  428MOL0     C57710   6.662   9.196   3.908 -0.4636  0.4080 -0.1116
  428MOL0     C57711   6.621   8.884   4.584 -0.5023 -0.1113  0.8714
  428MOL0     C57712   6.548   8.821   4.681 -0.9496 -0.2059  0.7168
  428MOL0     H57713   6.406   8.863   5.138  2.4534 -1.4297  1.1430
  428MOL0     H57714   6.290   8.826   5.337  2.8499 -2.1928  1.6329
  428MOL0     H57715   6.255   8.657   5.531  0.4815 -0.1675  1.0676
  428MOL0     H57716   6.130   8.776   5.497  0.7994  0.0858 -0.8208
  428MOL0     H57717   6.081   8.486   5.614 -0.4904 -0.7785  1.6750
  428MOL0     H57718   6.086   8.615   5.721  1.0754  1.1344 -0.3309
  428MOL0     H57719   5.874   8.714   5.586  2.2397  0.4565  3.3300
  428MOL0     H57720   5.877   8.566   5.494  1.9679 -2.5624  0.3145
  428MOL0     H57721   5.851   8.430   5.701  0.4884  0.2055 -0.2622
  428MOL0     H57722   5.838   8.585   5.793 -1.1775  0.7464 -0.4421
  428MOL0     H57723   5.637   8.654   5.650 -0.5719  0.2889  3.1748
  428MOL0     H57724   5.669   8.519   5.540 -0.2572  0.8381  0.2287
  428MOL0     H57725   5.601   8.366   5.725 -1.4308 -0.6989  1.9224
  428MOL0     H57726   5.583   8.499   5.836  0.2538  0.0333  0.0039
  428MOL0     H57727   5.416   8.456   5.584  0.6516 -0.8078 -0.1858
  428MOL0     H57728   5.368   8.426   5.750 -0.9173  1.4573 -0.1254
  428MOL0     H57729   5.435   8.699   5.638  3.1569  1.1319  4.2954
  428MOL0     H57730   5.404   8.664   5.812  1.8545 -2.5200  0.6588
  428MOL0     H57731   5.219   8.731   5.481  0.8364 -1.1425 -0.5635
  428MOL0     H57732   4.972   8.822   5.443 -2.0014 -0.0278 -0.4889
  428MOL0     H57733   4.956   8.648   5.403  1.3774  1.1359 -0.2182
  428MOL0     H57734   4.770   8.643   5.573  0.7477  0.4929  0.4938
  428MOL0     H57735   4.746   8.756   5.428 -1.5555 -0.8323  0.2254
  428MOL0     H57736   4.799   8.938   5.607 -1.9132  1.2500  0.3082
  428MOL0     H57737   4.787   8.812   5.731 -0.7991 -1.3220 -0.1145
  428MOL0     H57738   4.569   8.905   5.535 -2.3043 -1.8909  0.0179
  428MOL0     H57739   4.591   8.958   5.708  1.4963 -1.7105  1.8737
  428MOL0     H57740   4.437   8.767   5.930  0.5815  2.8294  1.2815
  428MOL0     H57741   4.140   8.805   6.085  0.0396  1.2893  0.6054
  428MOL0     H57742   4.306   8.825   6.114  0.3110 -3.8440 -2.5109
  428MOL0     H57743   4.205   8.971   6.087 -0.7256  0.7746 -0.8495
  428MOL0     H57744   3.748   8.964   6.010 -1.5904  1.2944  0.9897
  428MOL0     H57745   3.545   9.097   5.990 -0.7653 -2.5813 -1.3513
  428MOL0     H57746   3.366   9.180   5.934 -0.8327  0.0239  0.5142
  428MOL0     H57747   3.417   9.353   5.918 -0.1767  0.2428 -1.4174
  428MOL0     H57748   3.268   9.392   5.735  2.2106 -1.0858 -1.4822
  428MOL0     H57749   3.220   9.216   5.738  0.9671 -1.8531  1.6318
  428MOL0     H57750   3.195   9.406   5.972  2.7997  0.0324 -1.3164
  428MOL0     H57751   3.107   9.255   5.959 -1.3978 -0.7695 -0.6308
  428MOL0     H57752   2.984   9.455   5.927 -0.4862  0.4808  0.5755
  428MOL0     H57753   3.067   9.479   5.775  0.0757 -0.4280  0.5141
  428MOL0     H57754   2.898   9.245   5.866  0.5105 -1.2385 -0.0328
  428MOL0     H57755   2.988   9.234   5.719  1.1211 -1.3256  2.5849
  428MOL0     H57756   2.774   9.438   5.768 -2.2998  0.9513 -0.8957
  428MOL0     H57757   2.859   9.417   5.618  2.6920 -1.5349  0.3037
  428MOL0     H57758   2.681   9.193   5.748  1.4326 -0.1341  0.6538
  428MOL0     H57759   2.776   9.171   5.609  1.8282  1.9193 -1.4333
  428MOL0     H57760   2.534   9.214   5.555  2.7960 -1.3455 -1.3601
  428MOL0     H57761   2.644   9.326   5.484 -0.0220 -1.5919 -0.2470
  428MOL0     H57762   3.661   9.197   5.588  2.1560  0.4305 -1.1609
  428MOL0     H57763   3.871   9.060   5.623  1.4491 -0.1999  1.2084
  428MOL0     H57764   4.122   8.976   5.623  1.5741  1.2169 -0.2127
  428MOL0     H57765   4.343   8.886   5.540  1.9355 -2.6723 -0.8952
  428MOL0     H57766   6.135   8.457   5.163  3.0266 -3.8167  0.5760
  428MOL0     H57767   6.282   8.499   4.965 -1.2134  2.1854 -1.4294
  428MOL0     H57768   6.781   8.608   4.788  2.2068  0.2768 -1.8795
  428MOL0     H57769   6.906   8.712   4.639  0.2006  0.6340  3.7525
  428MOL0     H57770   6.931   8.752   4.366 -0.4470 -2.6646 -0.3520
  428MOL0     H57771   6.757   8.788   4.329  0.2270 -0.0505  2.4455
  428MOL0     H57772   6.940   8.861   4.155  1.6193  2.5192 -1.9899
  428MOL0     H57773   6.984   8.972   4.278  0.8082 -3.0493  0.9903
  428MOL0     H57774   6.741   9.057   4.253  1.8529 -0.8926  2.2732
  428MOL0     H57775   6.718   8.927   4.133  0.4833 -2.3482 -0.1690
  428MOL0     H57776   6.925   9.054   3.997  0.3570  2.6169 -1.1228
  428MOL0     H57777   6.895   9.184   4.117  0.4546  0.3061 -0.5241
  428MOL0     H57778   6.585   9.229   3.841 -2.2722 -1.2231  1.0336
  428MOL0     H57779   6.578   8.967   4.530  0.9058  0.8281  1.1447
  428MOL0     H57780   6.445   8.850   4.699 -1.2621 -1.4012  0.9124
  429MOL0     O57781   0.210   4.742   7.148 -0.1380 -0.7958  0.2124
  429MOL0     C57782   0.243   4.846   7.211  0.4756 -0.3829  1.3707
  429MOL0     O57783   0.161   4.944   7.239 -0.2465 -0.3733 -0.6406
  429MOL0     C57784   0.025   4.946   7.208 -0.6647 -0.4259  0.8146
  429MOL0     C57785  -0.062   4.950   7.317  0.0942 -0.5487 -0.2124
  429MOL0     C57786  -0.198   4.956   7.295  0.1247  0.6643 -0.1716
  429MOL0     C57787  -0.250   4.950   7.169  0.2942 -0.4850  0.2634
  429MOL0     O57788  -0.387   4.958   7.132 -0.2691  0.3303 -0.5669
  429MOL0     C57789  -0.477   4.979   7.241 -0.1456 -0.0058 -0.5883
  429MOL0     C57790  -0.617   4.983   7.180 -0.7177  0.2902  0.6053
  429MOL0     C57791  -0.630   5.073   7.051 -1.4316 -0.1515 -0.4017
  429MOL0     C57792  -0.761   5.045   6.982  0.5928 -0.1772 -0.0968
  429MOL0     C57793  -0.798   5.145   6.874  0.1694 -0.1379 -0.1448
  429MOL0     C57794  -0.697   5.159   6.764 -0.4785  0.4979  0.6718
  429MOL0     C57795  -0.737   5.232   6.643  0.4952  0.2941  0.2633
  429MOL0     C57796  -0.844   5.163   6.558  0.4044 -0.6988  0.0929
  429MOL0     N57797  -0.934   5.267   6.501  0.1938  0.5046  0.1007
  429MOL0     C57798  -1.066   5.286   6.531  0.1370 -0.4084 -0.1898
  429MOL0     C57799  -1.091   5.415   6.474  0.8091  0.6751  0.4396
  429MOL0     C57800  -1.222   5.491   6.477  0.7077  0.5978  0.3619
  429MOL0     C57801  -1.196   5.623   6.559 -0.2603 -0.1063  0.8775
  429MOL0     C57802  -1.308   5.727   6.534  0.8012  0.2804 -0.2924
  429MOL0     C57803  -1.436   5.691   6.606  0.7111  0.0122  0.1918
  429MOL0     O57804  -1.527   5.800   6.580  0.2705  0.0222  0.1710
  429MOL0     C57805  -1.625   5.783   6.482 -0.4729  0.0088 -0.0994
  429MOL0     C57806  -1.729   5.870   6.468 -0.6232 -0.8087 -0.2673
  429MOL0     C57807  -1.835   5.848   6.377 -0.1264  0.4100  1.1268
  429MOL0     C57808  -1.959   5.938   6.386  0.4114 -0.6407 -0.2933
  429MOL0     C57809  -1.832   5.733   6.287 -0.0132  1.3697  0.3195
  429MOL0     C57810  -1.935   5.700   6.179 -0.6905  0.1386  0.0089
  429MOL0     O57811  -2.045   5.788   6.152  0.1400 -0.3907  0.4417
  429MOL0     C57812  -2.121   5.764   6.047 -0.1046 -0.2039  0.6900
  429MOL0     C57813  -2.264   5.773   6.065 -0.8722 -1.1002 -0.2539
  429MOL0     C57814  -2.347   5.774   5.959  0.6477  0.0371  1.5005
  429MOL0     C57815  -2.299   5.756   5.824 -0.8316  1.1991  0.0061
  429MOL0     O57816  -2.397   5.753   5.728  0.1756  0.5912  0.4556
  429MOL0     C57817  -2.357   5.800   5.596 -0.2753  0.2973 -0.1947
  429MOL0     C57818  -2.404   5.947   5.596 -0.7503 -0.6246 -1.0403
  429MOL0     C57819  -2.389   6.013   5.455 -0.6129  0.1225  0.4590
  429MOL0     C57820  -2.472   6.142   5.459  0.2581  0.4209 -0.1358
  429MOL0     C57821  -2.459   6.205   5.326  0.0995  0.0043  0.7834
  429MOL0     C57822  -2.564   6.319   5.323 -0.5921 -0.2116 -0.0506
  429MOL0     C57823  -2.603   6.388   5.197  0.5446  0.1865  1.9686
  429MOL0     C57824  -2.642   6.290   5.075  0.0963  0.0405 -0.4647
  429MOL0    Cl57825  -2.810   6.219   5.111  0.0455 -0.2645 -0.3459
  429MOL0     C57826  -2.154   5.736   5.809 -0.0135 -0.4100  0.0451
  429MOL0     C57827  -2.067   5.736   5.920  0.0765  0.5719 -0.1497
  429MOL0     O57828  -1.928   5.587   6.127  0.1283  0.5091 -0.3260
  429MOL0     C57829  -1.714   5.658   6.285  0.7082  0.4772  0.0304
  429MOL0     C57830  -1.619   5.680   6.389 -0.5244 -0.0834  0.6454
  429MOL0     N57831  -0.973   5.465   6.417  0.6816  0.1803  0.4852
  429MOL0     N57832  -0.883   5.379   6.436 -0.4215  0.4213 -0.8866
  429MOL0     C57833  -0.160   4.943   7.062 -0.1920  0.1609 -0.5807
  429MOL0     C57834  -0.022   4.937   7.079 -0.4550  0.5382 -0.6543
  429MOL0     C57835   0.376   4.857   7.268 -0.3108  0.0258  0.4447
  429MOL0     C57836   0.401   4.941   7.378  0.6783 -0.0145 -0.7607
  429MOL0     C57837   0.530   4.950   7.442 -0.4394 -0.0035  0.1316
  429MOL0     C57838   0.637   4.876   7.386 -1.0281  0.0466  0.0813
  429MOL0     O57839   0.762   4.903   7.435  0.4110 -0.6631 -0.5679
  429MOL0     C57840   0.880   4.819   7.412  0.8030 -0.2716  0.0199
  429MOL0     C57841   0.996   4.893   7.485  0.8440  0.2597 -0.7272
  429MOL0     C57842   1.114   4.790   7.515 -0.1116  0.3679  0.1900
  429MOL0     C57843   1.195   4.770   7.387 -1.0774 -0.8747  0.4963
  429MOL0     C57844   1.282   4.647   7.405 -0.2075 -0.0459  0.2090
  429MOL0     C57845   1.340   4.543   7.428  1.1702 -0.4910  0.5241
  429MOL0     C57846   0.608   4.806   7.266 -0.1530  0.4976  0.0910
  429MOL0     C57847   0.478   4.786   7.207 -0.1762 -0.0103 -0.1567
  429MOL0     H57848  -0.019   4.952   7.416  1.7138 -0.6671 -0.8732
  429MOL0     H57849  -0.245   4.956   7.393  1.6281 -1.6940  0.6200
  429MOL0     H57850  -0.475   4.894   7.311  0.4645 -0.4597 -1.1456
  429MOL0     H57851  -0.458   5.073   7.293  2.0937 -0.0125 -1.2658
  429MOL0     H57852  -0.641   4.879   7.155  1.7515 -0.4888  1.1732
  429MOL0     H57853  -0.690   5.019   7.252 -1.1794  1.0997 -0.2565
  429MOL0     H57854  -0.631   5.176   7.087  2.6743 -0.5351  1.3850
  429MOL0     H57855  -0.548   5.065   6.979 -1.2379  2.2268 -0.5399
  429MOL0     H57856  -0.769   4.945   6.940 -1.6432 -0.1556  0.1325
  429MOL0     H57857  -0.842   5.057   7.055 -1.2737 -1.9231 -1.7590
  429MOL0     H57858  -0.897   5.120   6.835  0.3778  0.3687 -1.0424
  429MOL0     H57859  -0.800   5.248   6.912  2.6989  0.2460 -0.8763
  429MOL0     H57860  -0.605   5.210   6.795 -0.3609 -0.4772  2.0186
  429MOL0     H57861  -0.676   5.057   6.734 -0.4939  0.3098  1.2780
  429MOL0     H57862  -0.774   5.331   6.672 -0.5142  1.0028 -2.9904
  429MOL0     H57863  -0.658   5.248   6.570 -2.7083  0.8882 -3.4195
  429MOL0     H57864  -0.913   5.092   6.605 -0.5727  1.2189  1.7132
  429MOL0     H57865  -0.799   5.111   6.473  1.8157  1.3748 -0.4770
  429MOL0     H57866  -1.136   5.224   6.586  1.6602 -0.4766  1.8001
  429MOL0     H57867  -1.255   5.509   6.374  1.0657 -0.6083  0.0276
  429MOL0     H57868  -1.286   5.416   6.523  2.8476 -1.2105  0.5175
  429MOL0     H57869  -1.100   5.660   6.522 -1.0890 -0.1722 -1.4464
  429MOL0     H57870  -1.189   5.609   6.668  2.0294  3.5438  1.3580
  429MOL0     H57871  -1.325   5.727   6.426  0.5993 -1.4482 -0.3002
  429MOL0     H57872  -1.275   5.827   6.561  0.2802  0.9952 -2.1365
  429MOL0     H57873  -1.427   5.698   6.715  0.2776  0.7297  0.1868
  429MOL0     H57874  -1.471   5.590   6.585 -0.8938 -0.1899  3.2140
  429MOL0     H57875  -1.728   5.948   6.543  2.0892 -0.3632 -0.6396
  429MOL0     H57876  -2.060   5.897   6.393  0.9936 -2.1962 -0.7607
  429MOL0     H57877  -1.949   6.004   6.473 -0.6596 -1.9519  0.8662
  429MOL0     H57878  -1.968   6.012   6.306 -0.2839 -0.4402 -0.0377
  429MOL0     H57879  -2.306   5.792   6.163 -4.5329 -1.1434 -1.6677
  429MOL0     H57880  -2.454   5.793   5.963  0.2446 -0.7120 -2.0755
  429MOL0     H57881  -2.250   5.792   5.577  0.1710 -0.3849  2.2837
  429MOL0     H57882  -2.404   5.737   5.520 -1.9170  0.4377  0.6542
  429MOL0     H57883  -2.508   5.945   5.629 -1.3842  1.6778 -2.6009
  429MOL0     H57884  -2.351   6.006   5.671 -0.5353 -1.3736 -0.5978
  429MOL0     H57885  -2.427   5.943   5.381  0.8370  1.7909 -1.9994
  429MOL0     H57886  -2.286   6.036   5.425 -0.8366  2.4249  1.3076
  429MOL0     H57887  -2.576   6.134   5.491  0.3304  2.4404  0.7456
  429MOL0     H57888  -2.419   6.202   5.534  0.5687 -1.9350  1.6391
  429MOL0     H57889  -2.484   6.125   5.256 -0.2385  1.7170 -1.1760
  429MOL0     H57890  -2.361   6.249   5.306  0.8066 -1.3960  1.0844
  429MOL0     H57891  -2.652   6.277   5.373  0.0905  0.5680  1.8794
  429MOL0     H57892  -2.530   6.404   5.383 -4.1460  1.1326  0.2945
  429MOL0     H57893  -2.513   6.447   5.176 -1.2543  2.4944  0.1643
  429MOL0     H57894  -2.681   6.465   5.207  2.0234  2.5245 -2.0691
  429MOL0     H57895  -2.565   6.213   5.063  1.5124  1.6343 -2.4273
  429MOL0     H57896  -2.627   6.335   4.976  0.4760 -0.7869 -0.7875
  429MOL0     H57897  -2.105   5.722   5.713  0.1857 -1.8055  0.3207
  429MOL0     H57898  -1.960   5.716   5.926 -0.3553 -2.5692 -0.6611
  429MOL0     H57899  -1.690   5.576   6.219 -0.0925  1.0424 -0.9862
  429MOL0     H57900  -1.528   5.621   6.394  0.0533  0.7413  0.1721
  429MOL0     H57901  -0.195   4.917   6.962 -0.3686  0.3833 -0.5796
  429MOL0     H57902   0.045   4.915   6.996 -1.8281 -2.5009 -1.0698
  429MOL0     H57903   0.320   5.002   7.418 -0.0828 -1.5759  0.2148
  429MOL0     H57904   0.551   5.026   7.517  1.3599  1.7007 -1.9485
  429MOL0     H57905   0.876   4.721   7.460  2.9287  0.0339  0.9153
  429MOL0     H57906   0.907   4.808   7.306 -0.9556 -0.6939 -0.4218
  429MOL0     H57907   0.952   4.942   7.573  0.0576  2.2627 -2.1737
  429MOL0     H57908   1.026   4.971   7.414  0.3842 -1.5157 -2.9850
  429MOL0     H57909   1.076   4.695   7.554 -0.2059  0.2175 -0.2592
  429MOL0     H57910   1.176   4.837   7.592 -0.7469 -0.0065  0.9375
  429MOL0     H57911   1.259   4.856   7.370  1.1008 -2.6020 -0.4403
  429MOL0     H57912   1.132   4.761   7.298 -1.4508  0.3861  0.6148
  429MOL0     H57913   1.391   4.450   7.444  1.1792 -0.4770  0.5784
  429MOL0     H57914   0.692   4.751   7.224 -0.0506  0.8881 -0.2200
  429MOL0     H57915   0.467   4.716   7.124 -1.2004 -2.4470  1.8804
  430MOL0     O57916   6.819   3.335  10.459  0.2801 -0.7853  0.4087
  430MOL0     C57917   6.862   3.299  10.571  0.5470  0.0500  0.3332
  430MOL0     O57918   6.808   3.205  10.660 -0.8112 -0.7826  0.5640
  430MOL0     C57919   6.687   3.149  10.623  0.7374  0.5124  0.9129
  430MOL0     C57920   6.571   3.181  10.693  0.3204 -0.6186  0.6234
  430MOL0     C57921   6.452   3.113  10.674  0.0426  0.5917  1.1346
  430MOL0     C57922   6.441   3.003  10.576 -0.6861 -0.5123 -0.3139
  430MOL0     O57923   6.322   2.949  10.543 -0.4855  0.2405 -0.2361
  430MOL0     C57924   6.314   2.848  10.438 -0.2173  0.1377 -0.8836
  430MOL0     C57925   6.166   2.798  10.411  0.3666 -0.3833 -0.5522
  430MOL0     C57926   6.073   2.811  10.534 -0.2350  0.5592 -0.3907
  430MOL0     C57927   5.941   2.746  10.512  0.7537 -0.1972  0.6543
  430MOL0     C57928   5.868   2.702  10.635 -0.1080  0.4708  0.3399
  430MOL0     C57929   5.747   2.616  10.588 -0.4594 -0.2789  0.6644
  430MOL0     C57930   5.657   2.573  10.704 -1.0053 -0.0546 -0.6405
  430MOL0     C57931   5.553   2.478  10.656  0.6939  0.1852 -0.4869
  430MOL0     N57932   5.462   2.444  10.766 -0.5920 -1.3552  0.0916
  430MOL0     C57933   5.338   2.485  10.789  0.1399 -0.3412  0.2180
  430MOL0     C57934   5.311   2.445  10.915 -0.4778 -0.4175 -0.0477
  430MOL0     C57935   5.188   2.477  11.003  0.1016 -0.0412  0.1348
  430MOL0     C57936   5.129   2.347  11.053 -0.1055 -0.7352 -0.5120
  430MOL0     C57937   5.070   2.261  10.939 -0.2708  0.5263  0.4963
  430MOL0     C57938   4.952   2.178  10.978 -0.3085  0.1534 -0.2160
  430MOL0     O57939   4.991   2.090  11.090 -0.0406  0.2086 -0.1779
  430MOL0     C57940   4.893   1.996  11.135 -0.3610  0.3225  0.0273
  430MOL0     C57941   4.922   1.918  11.244 -0.0475 -0.3504 -0.5062
  430MOL0     C57942   4.833   1.832  11.305  0.5325 -0.4403 -0.2774
  430MOL0     C57943   4.869   1.765  11.435  0.2331  0.1935 -0.1789
  430MOL0     C57944   4.702   1.821  11.243  0.5322  0.3878  0.6304
  430MOL0     C57945   4.602   1.742  11.312  0.5232  0.0786  1.0529
  430MOL0     O57946   4.595   1.735  11.452 -0.6795  0.2269 -0.2303
  430MOL0     C57947   4.484   1.696  11.514  0.8558  0.3467 -0.6973
  430MOL0     C57948   4.357   1.723  11.463  0.2342  0.5142 -0.4626
  430MOL0     C57949   4.246   1.682  11.539  0.2995  0.3704 -0.9447
  430MOL0     C57950   4.251   1.643  11.673 -0.3239 -0.7732  0.2647
  430MOL0     O57951   4.138   1.628  11.749  0.0960 -0.6735  0.3094
  430MOL0     C57952   4.047   1.743  11.758  0.2720  0.0739  0.5017
  430MOL0     C57953   3.946   1.713  11.873  0.8734 -0.5871  0.8289
  430MOL0     C57954   3.825   1.635  11.816  0.3506  0.6400 -1.0236
  430MOL0     C57955   3.738   1.567  11.928  0.1751  0.0738  1.3329
  430MOL0     C57956   3.612   1.501  11.866  0.0749 -0.1597  0.3734
  430MOL0     C57957   3.484   1.587  11.827 -1.2146 -0.4291  0.3289
  430MOL0     C57958   3.392   1.497  11.735 -0.0820  0.1439  0.4109
  430MOL0     C57959   3.255   1.557  11.699 -0.7182  0.3944 -0.4085
  430MOL0    Cl57960   3.183   1.630  11.848 -0.0372 -0.1896 -0.0796
  430MOL0     C57961   4.378   1.607  11.718 -0.0580  0.5472 -0.3666
  430MOL0     C57962   4.495   1.639  11.643  0.4302 -0.2223  0.9231
  430MOL0     O57963   4.515   1.693  11.229  0.2378 -0.8401  0.8961
  430MOL0     C57964   4.674   1.896  11.128 -0.1686  0.1786  0.1623
  430MOL0     C57965   4.773   1.972  11.071 -0.0387 -0.0164 -0.3479
  430MOL0     N57966   5.422   2.369  10.958 -0.0174  0.1841  0.0798
  430MOL0     N57967   5.513   2.378  10.874 -0.5490 -0.4000  0.3940
  430MOL0     C57968   6.562   2.983  10.502 -0.2600  0.0109  1.4662
  430MOL0     C57969   6.682   3.051  10.527 -0.3719 -0.3433 -0.4633
  430MOL0     C57970   6.980   3.370  10.622  0.2503 -0.3687  0.2211
  430MOL0     C57971   7.059   3.460  10.545  0.4306 -0.2000 -0.1938
  430MOL0     C57972   7.178   3.514  10.590  0.7207 -0.6615 -0.2561
  430MOL0     C57973   7.214   3.504  10.725 -0.6626 -0.3464 -0.2983
  430MOL0     O57974   7.323   3.551  10.790 -0.4505  0.1885 -0.1067
  430MOL0     C57975   7.415   3.647  10.724  0.5185 -0.3132  0.8953
  430MOL0     C57976   7.460   3.760  10.811 -0.8033  0.2812 -0.2630
  430MOL0     C57977   7.505   3.720  10.948  0.3687 -0.3616  0.1343
  430MOL0     C57978   7.624   3.623  10.943  1.0953  0.3829  1.3294
  430MOL0     C57979   7.736   3.657  10.860 -0.3304 -0.4466 -0.0759
  430MOL0     C57980   7.829   3.700  10.793  0.3885 -0.5612 -0.5729
  430MOL0     C57981   7.133   3.430  10.807 -1.0673  0.1997 -0.6258
  430MOL0     C57982   7.023   3.359  10.754  0.8987 -1.3879  0.8502
  430MOL0     H57983   6.569   3.257  10.769 -2.7982  0.4978 -0.3992
  430MOL0     H57984   6.361   3.141  10.725  1.2784  1.5144  2.9622
  430MOL0     H57985   6.355   2.875  10.341  1.0014 -2.0701 -1.0406
  430MOL0     H57986   6.370   2.766  10.483 -0.3038  0.8846  0.6521
  430MOL0     H57987   6.118   2.851  10.328  0.5383  2.0992  0.8085
  430MOL0     H57988   6.165   2.694  10.380  1.5074 -1.3712  2.3783
  430MOL0     H57989   6.132   2.760  10.612  0.6193 -0.5457 -1.7090
  430MOL0     H57990   6.053   2.913  10.567 -2.9515  0.1111 -0.4798
  430MOL0     H57991   5.880   2.818  10.456  2.7994  0.4362 -0.8876
  430MOL0     H57992   5.944   2.656  10.450 -0.4784 -2.6561  3.8693
  430MOL0     H57993   5.931   2.643  10.702 -0.2395  2.1360  1.9914
  430MOL0     H57994   5.840   2.792  10.690 -1.0045 -0.9544  2.3482
  430MOL0     H57995   5.688   2.668  10.512 -1.4266 -0.9092  0.9657
  430MOL0     H57996   5.786   2.532  10.530 -0.4021  1.0833 -1.3870
  430MOL0     H57997   5.724   2.522  10.774 -0.8544 -0.2041 -0.8893
  430MOL0     H57998   5.617   2.663  10.752  0.5675  0.6487 -0.5747
  430MOL0     H57999   5.603   2.390  10.612 -2.4901 -3.7628  2.9949
  430MOL0     H58000   5.496   2.535  10.582  1.4964 -0.1016 -1.3593
  430MOL0     H58001   5.278   2.548  10.725  0.1326  0.2961  0.8361
  430MOL0     H58002   5.208   2.546  11.085 -1.8226 -1.4884  1.9436
  430MOL0     H58003   5.118   2.534  10.941  2.2621  2.7860  0.1148
  430MOL0     H58004   5.050   2.364  11.126 -0.0876 -0.8803 -0.4597
  430MOL0     H58005   5.202   2.286  11.107 -2.2101 -0.5088  2.8799
  430MOL0     H58006   5.145   2.194  10.898 -1.9076 -1.6856  0.9097
  430MOL0     H58007   5.047   2.326  10.854 -1.5497 -0.0422  0.3809
  430MOL0     H58008   4.941   2.112  10.891  0.8346 -1.3183  0.7036
  430MOL0     H58009   4.860   2.233  10.999  1.0981  2.6808 -0.2208
  430MOL0     H58010   5.017   1.942  11.290 -0.0050 -0.4020 -0.5683
  430MOL0     H58011   4.816   1.808  11.521  0.6628  0.2870  0.0453
  430MOL0     H58012   4.848   1.658  11.438 -1.9229  0.5862  1.2447
  430MOL0     H58013   4.978   1.766  11.449  0.2099 -0.7826  0.1562
  430MOL0     H58014   4.340   1.766  11.365 -0.2912 -0.6052 -0.8829
  430MOL0     H58015   4.145   1.695  11.499  0.2695  3.1372 -0.1997
  430MOL0     H58016   4.092   1.841  11.776  0.3237  0.0829  0.3207
  430MOL0     H58017   3.991   1.745  11.664  2.2351  0.9601 -0.7189
  430MOL0     H58018   3.987   1.643  11.946 -2.5805 -2.4811  1.1952
  430MOL0     H58019   3.922   1.812  11.913  0.7664  0.4076 -1.5173
  430MOL0     H58020   3.855   1.551  11.754 -1.4329 -1.0421  0.2803
  430MOL0     H58021   3.758   1.692  11.750  0.3490 -0.9053 -2.4153
  430MOL0     H58022   3.791   1.497  11.994  0.1748 -0.4509  0.7799
  430MOL0     H58023   3.698   1.647  11.992 -1.4735 -0.6459  1.2289
  430MOL0     H58024   3.573   1.438  11.947 -1.3751 -0.6620 -0.6654
  430MOL0     H58025   3.639   1.437  11.782  0.9965  1.5987 -0.7320
  430MOL0     H58026   3.435   1.625  11.917 -0.8087  1.0853 -0.0490
  430MOL0     H58027   3.524   1.676  11.777 -1.2051  0.1840  1.4007
  430MOL0     H58028   3.368   1.407  11.794  0.6089 -0.7755 -0.6806
  430MOL0     H58029   3.439   1.462  11.643  0.2403  0.5444  0.4185
  430MOL0     H58030   3.181   1.489  11.657 -3.7986  3.1355  0.2053
  430MOL0     H58031   3.265   1.635  11.624 -1.7990  0.6261 -0.3240
  430MOL0     H58032   4.380   1.560  11.815  0.2266 -0.6224 -0.9197
  430MOL0     H58033   4.589   1.622  11.694  0.0794  1.3565  2.1780
  430MOL0     H58034   4.573   1.890  11.090 -0.3936  2.4231  0.2496
  430MOL0     H58035   4.750   2.019  10.976 -2.6086  2.7337  1.4536
  430MOL0     H58036   6.557   2.922  10.412 -1.3698  2.8579 -0.5341
  430MOL0     H58037   6.775   3.035  10.472 -0.0392 -1.5773  0.4095
  430MOL0     H58038   7.010   3.469  10.448 -1.4247 -3.4989  0.2852
  430MOL0     H58039   7.236   3.575  10.522 -2.3301  3.2577  0.2871
  430MOL0     H58040   7.508   3.600  10.689 -0.9229 -2.0177 -0.9190
  430MOL0     H58041   7.366   3.686  10.634  2.0308 -1.5326 -0.5390
  430MOL0     H58042   7.377   3.827  10.832 -1.4572 -0.5105 -0.2632
  430MOL0     H58043   7.547   3.801  10.759  1.5692 -0.1932  3.0499
  430MOL0     H58044   7.419   3.670  10.994  0.0420 -0.4089 -0.5082
  430MOL0     H58045   7.538   3.806  11.007 -1.9067 -0.4347  1.6741
  430MOL0     H58046   7.587   3.523  10.917  0.4681  1.1475 -0.9328
  430MOL0     H58047   7.657   3.624  11.047  0.5860 -1.1740  1.5311
  430MOL0     H58048   7.906   3.755  10.742  1.0847  0.5413  1.5504
  430MOL0     H58049   7.168   3.412  10.908  1.9852  1.5378 -1.3335
  430MOL0     H58050   6.962   3.298  10.820  1.5779 -1.3411  1.5302
  431MOL0     O58051   4.368   0.539  10.056 -0.4340  0.2590  0.1418
  431MOL0     C58052   4.337   0.567  10.172 -0.5300  0.7125  0.4132
  431MOL0     O58053   4.217   0.617  10.203 -0.7768 -0.0542  0.1517
  431MOL0     C58054   4.109   0.622  10.122  0.0563 -0.0466  0.4830
  431MOL0     C58055   3.994   0.675  10.194 -0.3496 -0.5668  0.3348
  431MOL0     C58056   3.877   0.688  10.129 -0.2314 -0.6247  0.0914
  431MOL0     C58057   3.873   0.670   9.990 -0.5376 -0.0439  0.2456
  431MOL0     O58058   3.754   0.695   9.920 -0.0262 -0.0306  0.0411
  431MOL0     C58059   3.735   0.827   9.879  0.4420 -0.3003  0.6607
  431MOL0     C58060   3.590   0.859   9.848 -0.0812  0.7246  0.0627
  431MOL0     C58061   3.481   0.830   9.951  0.1206 -0.1558  0.1432
  431MOL0     C58062   3.349   0.887   9.900 -0.3990  0.2875  0.4303
  431MOL0     C58063   3.225   0.850   9.990 -0.2074  0.6201  0.4259
  431MOL0     C58064   3.100   0.925   9.946  0.5088  0.0257  0.1770
  431MOL0     C58065   2.969   0.882  10.021 -0.4305 -0.2671 -0.2502
  431MOL0     C58066   2.846   0.957   9.968 -1.0578 -0.5574 -0.1904
  431MOL0     N58067   2.727   0.913  10.037  0.3001 -0.2608 -0.2452
  431MOL0     C58068   2.658   0.797  10.006 -0.3755  0.5449 -0.6749
  431MOL0     C58069   2.566   0.786  10.112 -0.3908 -0.3746 -0.3312
  431MOL0     C58070   2.462   0.689  10.150 -0.3055  0.6895  0.3640
  431MOL0     C58071   2.513   0.543  10.133  0.3012 -0.0968 -0.0261
  431MOL0     C58072   2.409   0.448  10.199  0.4651  0.6240 -0.7603
  431MOL0     C58073   2.277   0.425  10.116  0.2993 -0.0917  0.6064
  431MOL0     O58074   2.188   0.534  10.113 -0.5516  0.0967  0.0974
  431MOL0     C58075   2.056   0.520  10.160 -0.3229  0.2230  0.2451
  431MOL0     C58076   1.976   0.622  10.124 -0.2844 -0.5730 -0.2117
  431MOL0     C58077   1.839   0.637  10.153 -0.2329 -0.2196  0.6734
  431MOL0     C58078   1.756   0.749  10.095  1.5071 -0.0226  0.1171
  431MOL0     C58079   1.781   0.515  10.210 -0.0266  0.1106 -0.1554
  431MOL0     C58080   1.639   0.505  10.230  0.2769 -0.2451  0.5010
  431MOL0     O58081   1.580   0.386  10.203  0.1000  0.1541 -0.6776
  431MOL0     C58082   1.438   0.387  10.204 -0.2833  0.8131  0.5059
  431MOL0     C58083   1.370   0.477  10.118 -0.5368 -0.8644 -0.1708
  431MOL0     C58084   1.230   0.485  10.115 -0.6343  0.4312  0.3589
  431MOL0     C58085   1.154   0.402  10.197 -0.2002 -0.4834 -0.6101
  431MOL0     O58086   1.016   0.406  10.203 -0.2417  0.0321 -0.3008
  431MOL0     C58087   0.959   0.544  10.229  0.0694 -0.2011  0.1916
  431MOL0     C58088   1.017   0.602  10.358 -0.2297 -0.5805 -1.0220
  431MOL0     C58089   0.975   0.520  10.483  0.4285  0.6123  0.3554
  431MOL0     C58090   0.849   0.565  10.567  0.4342 -0.5518 -0.2447
  431MOL0     C58091   0.840   0.486  10.696  0.2681  1.2265  0.0837
  431MOL0     C58092   0.740   0.540  10.802 -1.0001 -0.4608 -0.5347
  431MOL0     C58093   0.593   0.541  10.747  1.0712  0.5145 -0.1177
  431MOL0     C58094   0.491   0.596  10.839 -0.0523 -0.8534 -0.3152
  431MOL0    Cl58095   0.526   0.758  10.900  0.2430  0.0484 -0.5730
  431MOL0     C58096   1.214   0.315  10.285 -0.5840  0.4571 -0.0081
  431MOL0     C58097   1.359   0.307  10.288  0.8364  1.2718 -0.1925
  431MOL0     O58098   1.582   0.601  10.282 -0.0645  0.8167  0.2868
  431MOL0     C58099   1.861   0.410  10.245 -0.1684  0.4911 -0.4526
  431MOL0     C58100   1.998   0.414  10.223 -0.0533  0.0247 -0.1391
  431MOL0     N58101   2.579   0.898  10.186 -0.5195  0.0446 -0.9788
  431MOL0     N58102   2.671   0.967  10.143 -0.6972 -0.5251  0.3647
  431MOL0     C58103   3.978   0.609   9.916 -0.1401  0.8907 -0.0658
  431MOL0     C58104   4.098   0.585   9.981  0.4225  0.1013  0.0712
  431MOL0     C58105   4.429   0.564  10.280 -0.8476  0.3460 -0.2681
  431MOL0     C58106   4.566   0.535  10.261  0.7341 -0.8057 -0.6872
  431MOL0     C58107   4.659   0.543  10.366  0.3172  0.3337 -0.0540
  431MOL0     C58108   4.620   0.599  10.486 -0.6352  0.1542 -0.5886
  431MOL0     O58109   4.730   0.602  10.566 -1.0866 -0.9894 -0.1855
  431MOL0     C58110   4.703   0.674  10.683  0.1473  0.5375 -0.5364
  431MOL0     C58111   4.811   0.647  10.783 -0.4459  0.2990 -0.2054
  431MOL0     C58112   4.789   0.713  10.918 -0.7189 -0.1070 -0.3538
  431MOL0     C58113   4.913   0.751  10.996  0.0366 -0.0557 -0.4606
  431MOL0     C58114   5.007   0.635  11.017  0.2572 -0.6095 -0.4256
  431MOL0     C58115   5.075   0.539  11.052 -0.2486  0.4764  0.3479
  431MOL0     C58116   4.492   0.641  10.504  1.1322  0.0937  0.6728
  431MOL0     C58117   4.398   0.629  10.400 -0.4873 -0.0901 -0.3893
  431MOL0     H58118   4.001   0.693  10.300  0.3896  0.3213  0.1489
  431MOL0     H58119   3.784   0.718  10.178  1.1257  1.1640  1.7492
  431MOL0     H58120   3.782   0.901   9.944  0.6662  0.1399  0.0029
  431MOL0     H58121   3.788   0.838   9.785 -0.1922  0.3252  0.3652
  431MOL0     H58122   3.584   0.967   9.831  0.6191  1.0339  1.6125
  431MOL0     H58123   3.551   0.814   9.756  1.0287 -0.3110  0.0602
  431MOL0     H58124   3.461   0.724   9.967  0.9741 -0.4345 -0.5660
  431MOL0     H58125   3.490   0.876  10.050  3.4415 -1.8020  0.7360
  431MOL0     H58126   3.354   0.996   9.898  0.8336  0.2720  1.5724
  431MOL0     H58127   3.335   0.862   9.794  2.5349 -0.5518  0.1453
  431MOL0     H58128   3.191   0.746   9.981  0.4084  0.5507 -1.9208
  431MOL0     H58129   3.244   0.858  10.097  1.0322 -1.0827  0.3699
  431MOL0     H58130   3.128   1.030   9.952  1.5249 -0.1841 -0.6287
  431MOL0     H58131   3.072   0.901   9.843  0.8467  0.8043 -0.1035
  431MOL0     H58132   2.958   0.775  10.001  0.5950 -0.5063  0.4098
  431MOL0     H58133   2.992   0.900  10.127 -0.4100 -0.7375 -0.1699
  431MOL0     H58134   2.838   0.944   9.860 -0.3839 -0.5617 -0.2413
  431MOL0     H58135   2.872   1.063   9.975 -0.6063 -0.7178  0.7249
  431MOL0     H58136   2.672   0.728   9.924  2.1211  2.1863 -1.7363
  431MOL0     H58137   2.439   0.700  10.256 -0.2381  0.1931  0.4323
  431MOL0     H58138   2.379   0.715  10.084  2.5746  1.7300 -3.1531
  431MOL0     H58139   2.607   0.539  10.188 -0.2945  2.6102  1.3228
  431MOL0     H58140   2.535   0.527  10.027  0.7862  0.6441 -0.0440
  431MOL0     H58141   2.391   0.473  10.304  0.6675  0.5568 -0.7095
  431MOL0     H58142   2.461   0.352  10.211  1.8955  1.3850 -0.5796
  431MOL0     H58143   2.232   0.328  10.141 -1.0167  0.0489 -1.0527
  431MOL0     H58144   2.309   0.404  10.013  3.3980 -3.2830  1.9875
  431MOL0     H58145   2.014   0.702  10.061  0.7861 -0.0073  1.0933
  431MOL0     H58146   1.723   0.815  10.176 -3.8093  0.0323 -1.7031
  431MOL0     H58147   1.823   0.812  10.036  2.8975  0.1663  1.8262
  431MOL0     H58148   1.669   0.707  10.043  2.9675 -3.0489 -0.1078
  431MOL0     H58149   1.433   0.542  10.058 -0.3329 -1.1286 -0.2433
  431MOL0     H58150   1.185   0.570  10.063  2.0447  1.2700 -0.7367
  431MOL0     H58151   0.984   0.600  10.138  1.9507  1.1003  1.4447
  431MOL0     H58152   0.850   0.537  10.225  0.0886  0.0268 -1.3114
  431MOL0     H58153   1.126   0.609  10.357 -0.2400 -0.1317 -0.2454
  431MOL0     H58154   0.972   0.701  10.377 -0.0836 -0.8682  1.0936
  431MOL0     H58155   1.058   0.537  10.553 -0.3100  2.8285  0.7684
  431MOL0     H58156   0.974   0.412  10.466 -1.0664  0.5158  0.8648
  431MOL0     H58157   0.875   0.670  10.583 -0.9560 -0.4112  1.2728
  431MOL0     H58158   0.753   0.561  10.515 -1.1931 -0.6325  2.5694
  431MOL0     H58159   0.940   0.500  10.737  0.2954 -1.0583  0.9127
  431MOL0     H58160   0.816   0.381  10.677 -0.8150  1.3905  0.4533
  431MOL0     H58161   0.749   0.497  10.902 -0.2789  2.7462  0.8889
  431MOL0     H58162   0.783   0.639  10.818  3.2404 -2.4657  2.3361
  431MOL0     H58163   0.560   0.439  10.726 -1.7040  1.0845  1.0166
  431MOL0     H58164   0.587   0.606  10.660  2.1126  0.5014 -0.2137
  431MOL0     H58165   0.477   0.529  10.925 -3.5923  0.3982  0.2788
  431MOL0     H58166   0.398   0.586  10.782 -0.2397 -2.1586  0.1637
  431MOL0     H58167   1.149   0.253  10.346 -0.4646  1.3436  1.0415
  431MOL0     H58168   1.408   0.246  10.363 -0.9938 -0.6892 -0.5173
  431MOL0     H58169   1.830   0.312  10.280 -0.4618 -0.1848 -2.4775
  431MOL0     H58170   2.055   0.325  10.247 -0.4678 -0.4646 -0.9609
  431MOL0     H58171   3.977   0.617   9.807  1.0614 -1.1357 -0.2919
  431MOL0     H58172   4.175   0.545   9.915  0.2370  1.5244 -1.0503
  431MOL0     H58173   4.582   0.500  10.159  2.4367 -0.8170 -0.4394
  431MOL0     H58174   4.763   0.529  10.337  0.2037  0.8915 -0.7521
  431MOL0     H58175   4.681   0.779  10.666 -3.3157 -0.3805 -2.4533
  431MOL0     H58176   4.616   0.628  10.731 -0.0622  1.2889 -0.1868
  431MOL0     H58177   4.900   0.695  10.741 -1.5424  3.2862  0.5985
  431MOL0     H58178   4.827   0.540  10.795  1.0769  0.1969 -2.6046
  431MOL0     H58179   4.732   0.657  10.993 -0.5192  2.1121  1.5627
  431MOL0     H58180   4.736   0.806  10.897  1.5188  1.2463 -0.3588
  431MOL0     H58181   4.868   0.796  11.085 -1.8769 -1.3648 -0.6950
  431MOL0     H58182   4.963   0.836  10.950  0.4997 -0.4402 -0.6745
  431MOL0     H58183   5.141   0.459  11.078 -2.3534 -0.7319  2.3959
  431MOL0     H58184   4.445   0.679  10.594  0.6134 -1.9050  1.2962
  431MOL0     H58185   4.298   0.662  10.427 -0.7401 -1.4557  0.3998
  432MOL0     O58186   5.147   9.245   0.461  0.0373 -1.0034 -0.3805
  432MOL0     C58187   5.195   9.283   0.569  0.3204  0.9475  0.3300
  432MOL0     O58188   5.123   9.321   0.680 -0.0309 -0.0280 -0.6780
  432MOL0     C58189   4.988   9.345   0.682  0.2646  0.5708  0.2729
  432MOL0     C58190   4.905   9.251   0.625 -0.3131  0.3956 -0.2703
  432MOL0     C58191   4.769   9.276   0.638 -0.6541  0.6712  0.0108
  432MOL0     C58192   4.708   9.381   0.706 -0.3314  0.3171 -0.3762
  432MOL0     O58193   4.571   9.379   0.730  0.1055 -0.6310  0.6687
  432MOL0     C58194   4.536   9.390   0.870  0.0030  0.1341  0.1657
  432MOL0     C58195   4.389   9.366   0.893 -0.1030  0.4151 -0.2150
  432MOL0     C58196   4.338   9.234   0.829  0.0975 -0.4933 -0.3451
  432MOL0     C58197   4.193   9.244   0.790  0.8818  0.6429 -0.4635
  432MOL0     C58198   4.084   9.268   0.905 -0.3550 -0.1588  0.4636
  432MOL0     C58199   3.941   9.309   0.860 -0.1171  0.0232 -0.3163
  432MOL0     C58200   3.840   9.308   0.982 -0.2038  0.2762 -0.5947
  432MOL0     C58201   3.813   9.167   1.033  1.3010  0.3777  0.1200
  432MOL0     N58202   3.670   9.136   1.035 -0.0464  0.3171 -0.4191
  432MOL0     C58203   3.586   9.189   1.124 -0.4386  0.4243 -0.2113
  432MOL0     C58204   3.460   9.145   1.084 -0.7239  0.7360 -0.7621
  432MOL0     C58205   3.339   9.174   1.169 -0.3439  0.9684 -0.1848
  432MOL0     C58206   3.212   9.192   1.095 -0.6238 -0.1386 -0.1740
  432MOL0     C58207   3.101   9.231   1.182 -0.6105 -0.1950  0.1215
  432MOL0     C58208   2.985   9.278   1.094  0.0807 -0.4688 -0.2407
  432MOL0     O58209   2.888   9.324   1.195 -0.6720 -0.1720 -0.1577
  432MOL0     C58210   2.774   9.397   1.155 -0.5582 -0.0414  0.9287
  432MOL0     C58211   2.734   9.411   1.025 -0.2756  0.8252  0.4219
  432MOL0     C58212   2.603   9.458   1.000 -1.1562 -0.1414  0.2313
  432MOL0     C58213   2.575   9.498   0.859  0.1335 -0.5909  0.0627
  432MOL0     C58214   2.510   9.473   1.101  0.4900  0.1648  0.2355
  432MOL0     C58215   2.365   9.484   1.075  0.1737 -0.5165 -0.0260
  432MOL0     O58216   2.301   9.399   0.992 -0.1008 -0.5114  0.0497
  432MOL0     C58217   2.176   9.433   0.955  0.2222 -0.3283  0.6946
  432MOL0     C58218   2.109   9.335   0.880  0.4899  0.3951 -0.4044
  432MOL0     C58219   1.995   9.371   0.804  0.0035  0.4839 -0.1925
  432MOL0     C58220   1.933   9.500   0.800  0.1404  0.8310  0.8266
  432MOL0     O58221   1.816   9.510   0.734 -0.1737 -0.1715  0.2915
  432MOL0     C58222   1.753   9.650   0.726  0.1079  0.0861  0.4021
  432MOL0     C58223   1.630   9.648   0.627 -0.3494 -0.3191 -0.8327
  432MOL0     C58224   1.507   9.556   0.658 -0.6575  0.0910  0.3946
  432MOL0     C58225   1.388   9.579   0.563 -0.4342  0.2367 -0.1904
  432MOL0     C58226   1.295   9.457   0.552 -1.1451  0.0825  0.0411
  432MOL0     C58227   1.155   9.498   0.506 -0.1584  1.1264  0.1140
  432MOL0     C58228   1.074   9.371   0.469 -0.9256  0.9725  0.0170
  432MOL0     C58229   0.923   9.397   0.450 -0.2763 -0.1446 -0.8784
  432MOL0    Cl58230   0.849   9.325   0.310 -0.0125 -0.0294 -0.1481
  432MOL0     C58231   1.995   9.592   0.881  0.4471 -0.5416  0.0310
  432MOL0     C58232   2.119   9.562   0.954  0.2766  0.5605  0.2901
  432MOL0     O58233   2.312   9.566   1.154 -0.2944 -0.0219 -0.0357
  432MOL0     C58234   2.562   9.479   1.235  0.0198 -0.7131  0.5260
  432MOL0     C58235   2.693   9.440   1.255 -0.5268  0.1031 -0.9410
  432MOL0     N58236   3.467   9.077   0.963 -0.1231 -0.7422  0.9216
  432MOL0     N58237   3.595   9.084   0.932  0.1516  0.5780 -0.4186
  432MOL0     C58238   4.802   9.474   0.762 -1.3517 -0.5482  0.2035
  432MOL0     C58239   4.940   9.457   0.743 -0.1417  0.4976 -0.5466
  432MOL0     C58240   5.342   9.294   0.589 -0.6496 -0.6262  0.2945
  432MOL0     C58241   5.428   9.239   0.496  0.4458  0.1761 -0.8658
  432MOL0     C58242   5.567   9.254   0.515 -0.1595  0.0247 -0.2452
  432MOL0     C58243   5.619   9.325   0.623  0.4219  0.5220 -1.1899
  432MOL0     O58244   5.755   9.337   0.618  0.9232  0.1678  0.8457
  432MOL0     C58245   5.817   9.433   0.696  0.1649  0.0770  0.0245
  432MOL0     C58246   5.959   9.449   0.662  0.0496 -0.2852 -0.6092
  432MOL0     C58247   5.975   9.518   0.528  0.0826 -0.3360 -0.4118
  432MOL0     C58248   6.123   9.492   0.471  1.1205 -0.5465 -0.6115
  432MOL0     C58249   6.147   9.582   0.360 -0.4330  0.0090  0.4996
  432MOL0     C58250   6.189   9.662   0.268  0.0338  0.7575 -1.2631
  432MOL0     C58251   5.529   9.387   0.712 -0.3109  0.1088  0.6024
  432MOL0     C58252   5.395   9.366   0.697  0.5974  0.1952  0.1084
  432MOL0     H58253   4.948   9.161   0.584  4.2020  2.1575 -0.0101
  432MOL0     H58254   4.720   9.192   0.591  2.5532 -0.3970 -1.7319
  432MOL0     H58255   4.588   9.307   0.920 -0.8015 -0.9883 -0.7977
  432MOL0     H58256   4.557   9.483   0.922 -1.0675 -0.6828  2.1622
  432MOL0     H58257   4.379   9.364   1.002  0.3167 -1.8091 -0.1656
  432MOL0     H58258   4.333   9.446   0.845 -0.7533  0.2829  0.3134
  432MOL0     H58259   4.388   9.215   0.734 -1.0327  0.1585 -1.1041
  432MOL0     H58260   4.347   9.153   0.902  0.4920  1.1083  1.4612
  432MOL0     H58261   4.172   9.322   0.716  1.0445  0.3378 -0.8327
  432MOL0     H58262   4.174   9.151   0.737  1.6772  0.0070  0.3174
  432MOL0     H58263   4.079   9.177   0.965 -0.1618 -0.4701  0.0168
  432MOL0     H58264   4.119   9.348   0.971  1.1154  1.7505 -2.4172
  432MOL0     H58265   3.940   9.413   0.826 -0.2460  0.8600  2.0551
  432MOL0     H58266   3.912   9.238   0.781  0.8254  0.4991 -1.1143
  432MOL0     H58267   3.889   9.368   1.059 -1.4177  1.1226 -0.4438
  432MOL0     H58268   3.745   9.352   0.949  0.2178  0.6236 -1.3593
  432MOL0     H58269   3.850   9.168   1.136  0.2204  3.1305  0.5665
  432MOL0     H58270   3.868   9.096   0.971  0.0859 -1.3783  0.9712
  432MOL0     H58271   3.613   9.253   1.208  3.8856 -0.5093 -0.6826
  432MOL0     H58272   3.323   9.085   1.231  3.6702 -1.7254 -2.5449
  432MOL0     H58273   3.362   9.263   1.228 -0.4106  1.2562 -0.5908
  432MOL0     H58274   3.191   9.111   1.025  2.0500  0.1322 -1.4183
  432MOL0     H58275   3.233   9.276   1.028  1.6425 -1.6106 -1.4290
  432MOL0     H58276   3.129   9.311   1.251 -1.2418  0.2787 -0.1687
  432MOL0     H58277   3.066   9.141   1.233 -1.2832 -1.4200 -2.3532
  432MOL0     H58278   2.947   9.192   1.037  2.1772 -1.4990 -0.2052
  432MOL0     H58279   3.014   9.358   1.025 -1.0945 -1.6666 -2.2514
  432MOL0     H58280   2.806   9.395   0.945 -1.5493 -0.6475 -0.5024
  432MOL0     H58281   2.655   9.564   0.823 -0.0012  0.0484  0.9281
  432MOL0     H58282   2.578   9.417   0.785  1.4388  1.6742 -2.6020
  432MOL0     H58283   2.484   9.558   0.850  1.8278  1.9714 -1.6193
  432MOL0     H58284   2.152   9.237   0.864  0.1545  0.2453 -0.3963
  432MOL0     H58285   1.950   9.290   0.747 -0.1620  0.5774 -0.1982
  432MOL0     H58286   1.716   9.669   0.828 -2.4121  0.3041 -0.5036
  432MOL0     H58287   1.827   9.724   0.695  2.4711 -2.6464 -0.9617
  432MOL0     H58288   1.581   9.746   0.628 -2.3546 -1.2675 -0.8519
  432MOL0     H58289   1.668   9.634   0.526  0.5379  3.9464 -1.2671
  432MOL0     H58290   1.463   9.561   0.758 -4.1246  0.0629 -1.0019
  432MOL0     H58291   1.538   9.453   0.636  0.6037  0.7890 -1.2991
  432MOL0     H58292   1.341   9.676   0.580 -0.1487  0.5743 -1.2085
  432MOL0     H58293   1.421   9.585   0.459  0.5898  3.4715  0.2027
  432MOL0     H58294   1.300   9.397   0.643  2.2978  1.8587  1.2336
  432MOL0     H58295   1.330   9.389   0.473 -0.4847  0.6941 -0.2036
  432MOL0     H58296   1.114   9.550   0.593 -1.7217  1.2599 -0.6645
  432MOL0     H58297   1.156   9.561   0.416  1.0595  2.1840  0.8395
  432MOL0     H58298   1.092   9.284   0.532  1.8830  0.0949 -1.8116
  432MOL0     H58299   1.118   9.335   0.375  3.5737  1.5422  1.6415
  432MOL0     H58300   0.908   9.505   0.459  0.9265  0.0347 -0.7793
  432MOL0     H58301   0.875   9.357   0.540  0.6673  0.6841  0.0213
  432MOL0     H58302   1.959   9.693   0.902  1.5978 -0.6209  2.8863
  432MOL0     H58303   2.165   9.645   1.006  2.5399 -1.9368  2.6440
  432MOL0     H58304   2.499   9.517   1.315 -1.0888  1.9932 -1.4672
  432MOL0     H58305   2.725   9.434   1.359 -2.1757 -1.6930 -0.4610
  432MOL0     H58306   4.768   9.565   0.811  3.3547  1.3705  0.3788
  432MOL0     H58307   5.018   9.525   0.776 -0.0504  0.2492 -0.2454
  432MOL0     H58308   5.388   9.172   0.421  2.4108 -0.0797 -1.7483
  432MOL0     H58309   5.646   9.224   0.447  1.1792  0.0029  1.2498
  432MOL0     H58310   5.763   9.528   0.684  1.3619  0.9334  1.1266
  432MOL0     H58311   5.819   9.401   0.801  1.1865 -0.9958 -0.3017
  432MOL0     H58312   5.999   9.348   0.650 -0.8589 -0.5530 -1.5624
  432MOL0     H58313   6.007   9.507   0.741 -0.4723  1.1680 -1.3320
  432MOL0     H58314   5.967   9.627   0.541  0.6127 -0.3976  0.4992
  432MOL0     H58315   5.894   9.480   0.465 -0.6916 -1.5468  1.2312
  432MOL0     H58316   6.140   9.385   0.457  0.0114 -1.1956  2.2572
  432MOL0     H58317   6.190   9.523   0.552  0.1250 -1.3279  0.5507
  432MOL0     H58318   6.213   9.720   0.181  1.0023  1.5418 -0.5012
  432MOL0     H58319   5.572   9.447   0.792  0.0551  0.8241 -0.1224
  432MOL0     H58320   5.325   9.424   0.756 -1.5484 -2.1557  0.0367
  433MOL0     O58321   9.803   8.945   0.885  0.2477  0.6450 -0.3769
  433MOL0     C58322   9.817   8.865   0.981  0.5444 -0.0257  0.0108
  433MOL0     O58323   9.720   8.811   1.059 -0.0598 -0.7196  0.4544
  433MOL0     C58324   9.595   8.855   1.053  0.4543 -0.2164  1.5832
  433MOL0     C58325   9.547   8.987   1.013  0.6311  0.3809 -0.2374
  433MOL0     C58326   9.415   9.010   1.002  0.2943  0.1881 -0.1044
  433MOL0     C58327   9.320   8.910   1.027  0.1105 -0.8038 -0.0147
  433MOL0     O58328   9.193   8.943   0.996  0.4044  0.7333 -0.0466
  433MOL0     C58329   9.087   8.849   0.972 -0.6391  0.3763  0.4540
  433MOL0     C58330   9.104   8.802   0.830  1.2960  0.3535  0.5278
  433MOL0     C58331   9.093   8.918   0.727 -0.1727  0.4595 -0.2081
  433MOL0     C58332   8.984   9.017   0.750  1.1883 -0.7567  0.6301
  433MOL0     C58333   8.840   8.959   0.750  0.2599 -0.3112  0.2201
  433MOL0     C58334   8.755   9.043   0.854  0.1043 -0.1820 -0.7389
  433MOL0     C58335   8.625   8.969   0.895  0.4426 -0.4554 -0.1482
  433MOL0     C58336   8.523   9.069   0.961 -0.1468  0.1487  0.4291
  433MOL0     N58337   8.394   9.014   1.001 -0.1445 -1.0876  0.3362
  433MOL0     C58338   8.326   8.921   0.931 -0.7869 -0.2834  0.0859
  433MOL0     C58339   8.230   8.888   1.012 -0.0408 -0.0424 -0.5541
  433MOL0     C58340   8.129   8.777   0.981 -0.7781  0.4561 -0.2980
  433MOL0     C58341   7.994   8.835   0.937 -0.2474  0.6992  0.3534
  433MOL0     C58342   7.878   8.741   0.943  0.4769  0.2520 -0.2334
  433MOL0     C58343   7.881   8.655   0.818 -0.9327 -0.3017 -0.6263
  433MOL0     O58344   7.799   8.535   0.828 -0.3429 -1.2353 -0.7523
  433MOL0     C58345   7.862   8.415   0.848 -0.5088  0.7367 -0.5256
  433MOL0     C58346   7.789   8.302   0.816  0.4605 -0.5942  0.9386
  433MOL0     C58347   7.829   8.166   0.841  0.4155  0.3754  1.3622
  433MOL0     C58348   7.741   8.057   0.785 -0.3879  0.9239 -0.1708
  433MOL0     C58349   7.957   8.156   0.899  0.1307  1.9391  0.0305
  433MOL0     C58350   8.011   8.032   0.953 -0.4638 -0.7306  1.2852
  433MOL0     O58351   8.127   8.051   1.015  0.3026 -0.0428 -0.0814
  433MOL0     C58352   8.186   7.946   1.078 -0.5289  0.1530  0.2688
  433MOL0     C58353   8.256   7.861   0.991  0.0494 -0.0781  0.6158
  433MOL0     C58354   8.332   7.750   1.034 -0.5633  0.1469  0.2318
  433MOL0     C58355   8.333   7.721   1.172  0.0782 -0.4963  0.1697
  433MOL0     O58356   8.405   7.627   1.227  0.8330 -0.1483 -0.5922
  433MOL0     C58357   8.536   7.611   1.174  0.7789 -1.0139 -0.4615
  433MOL0     C58358   8.619   7.554   1.293 -0.4324  0.0319 -0.4467
  433MOL0     C58359   8.750   7.497   1.245 -0.6415  1.0116  0.6167
  433MOL0     C58360   8.854   7.492   1.363  0.4978 -0.0678 -0.6172
  433MOL0     C58361   8.975   7.414   1.316  0.2922 -0.4044 -0.0187
  433MOL0     C58362   8.950   7.264   1.280 -0.1533 -0.7992 -0.5842
  433MOL0     C58363   9.070   7.181   1.316  0.1587 -0.2167 -0.8895
  433MOL0     C58364   9.103   7.080   1.221 -0.3231  0.6134 -0.4316
  433MOL0    Cl58365   9.224   7.137   1.080  0.3331 -0.1360 -0.0742
  433MOL0     C58366   8.251   7.802   1.257  0.5301 -0.0715  0.0071
  433MOL0     C58367   8.190   7.920   1.213  0.6592  0.3765 -0.6849
  433MOL0     O58368   7.948   7.929   0.943 -0.0573 -0.2277 -0.1926
  433MOL0     C58369   8.039   8.271   0.921  0.2686  0.5003 -0.6549
  433MOL0     C58370   7.997   8.397   0.888  0.9312 -0.3777  0.4058
  433MOL0     N58371   8.222   8.976   1.123  0.2093  0.1215 -0.2898
  433MOL0     N58372   8.332   9.044   1.116  0.8383 -0.0181 -0.0757
  433MOL0     C58373   9.365   8.784   1.082  1.1180 -0.5320  0.6076
  433MOL0     C58374   9.497   8.759   1.093 -0.3746 -0.7621  0.6393
  433MOL0     C58375   9.953   8.811   1.004  0.4429  0.3499  0.6144
  433MOL0     C58376   9.976   8.707   1.092  0.0770 -0.4806 -0.0718
  433MOL0     C58377  10.099   8.656   1.117  0.2557  0.2986 -0.0090
  433MOL0     C58378  10.212   8.699   1.048  0.0839  0.0743 -0.2534
  433MOL0     O58379  10.343   8.658   1.057  0.8250 -0.0948  0.0060
  433MOL0     C58380  10.388   8.560   1.153 -0.3976  0.3982 -0.1132
  433MOL0     C58381  10.529   8.509   1.125 -0.2646 -0.5034 -0.3571
  433MOL0     C58382  10.546   8.449   0.986 -0.7875  0.8437 -0.1345
  433MOL0     C58383  10.690   8.386   0.961  0.4829 -0.3740 -0.4653
  433MOL0     C58384  10.791   8.491   0.934 -0.3244  0.0153  1.3593
  433MOL0     C58385  10.881   8.571   0.919 -0.5107  0.5903  0.4236
  433MOL0     C58386  10.188   8.809   0.959  0.7460  0.1846 -0.3873
  433MOL0     C58387  10.062   8.866   0.940  0.1104 -0.3532 -0.0821
  433MOL0     H58388   9.621   9.066   1.003 -0.2998  0.9208 -5.1785
  433MOL0     H58389   9.382   9.107   0.964  2.0499 -0.0485 -2.4615
  433MOL0     H58390   9.099   8.761   1.036 -1.6783 -2.2674 -2.6433
  433MOL0     H58391   8.987   8.892   0.980 -0.4863  1.0349 -0.8758
  433MOL0     H58392   9.199   8.753   0.808 -0.0229 -1.8879 -0.5946
  433MOL0     H58393   9.026   8.730   0.802  0.4558  1.1212  0.8490
  433MOL0     H58394   9.192   8.966   0.720  0.7179 -1.1120  0.9395
  433MOL0     H58395   9.064   8.869   0.634 -2.2930  1.8402 -0.3390
  433MOL0     H58396   8.989   9.086   0.835  1.4361  0.7932 -0.6052
  433MOL0     H58397   8.989   9.081   0.661 -0.2726 -0.6783  0.5857
  433MOL0     H58398   8.790   8.970   0.653  1.3257 -1.3920 -0.4937
  433MOL0     H58399   8.842   8.856   0.789 -1.3338 -0.5831 -0.3562
  433MOL0     H58400   8.811   9.058   0.947 -0.5246  1.1078 -0.5516
  433MOL0     H58401   8.728   9.144   0.821  1.7696  1.0384  1.3463
  433MOL0     H58402   8.580   8.923   0.807 -0.7942  0.3412  0.0413
  433MOL0     H58403   8.656   8.890   0.964 -0.5381 -2.0357 -1.4669
  433MOL0     H58404   8.496   9.162   0.910 -1.9660  0.5320  2.0077
  433MOL0     H58405   8.563   9.096   1.059  0.3988  1.8952 -0.2407
  433MOL0     H58406   8.351   8.877   0.835 -1.0492  1.0650 -0.6308
  433MOL0     H58407   8.169   8.725   0.894  0.9512  3.4617 -1.4465
  433MOL0     H58408   8.123   8.716   1.072  1.2025 -2.7906 -2.1711
  433MOL0     H58409   8.005   8.871   0.834  1.5444 -0.7668 -0.0208
  433MOL0     H58410   7.965   8.913   1.008 -0.6036 -0.1035  1.0968
  433MOL0     H58411   7.782   8.791   0.946  1.0386  1.3074  0.8100
  433MOL0     H58412   7.877   8.668   1.025 -0.4546  1.0310  0.4652
  433MOL0     H58413   7.986   8.635   0.797 -1.1016  0.5354 -2.5242
  433MOL0     H58414   7.847   8.718   0.735 -0.9591  0.9473  0.3040
  433MOL0     H58415   7.694   8.337   0.777  0.3825  0.0973  1.7352
  433MOL0     H58416   7.705   7.999   0.871  2.8799 -1.6731 -0.3836
  433MOL0     H58417   7.656   8.106   0.737 -1.0015  0.9100  0.8537
  433MOL0     H58418   7.801   7.995   0.719  1.5146  1.3503  1.0706
  433MOL0     H58419   8.259   7.882   0.885 -0.7076 -1.1967  0.3573
  433MOL0     H58420   8.391   7.689   0.967 -0.2404 -0.7534  1.3010
  433MOL0     H58421   8.536   7.537   1.094 -1.3184 -1.1019 -0.4180
  433MOL0     H58422   8.587   7.702   1.140  2.4564 -1.3312  1.0338
  433MOL0     H58423   8.635   7.635   1.365 -0.8008 -1.3613  1.2778
  433MOL0     H58424   8.562   7.466   1.324  0.2996 -0.5569 -0.7374
  433MOL0     H58425   8.791   7.550   1.159 -2.9511  0.1918 -1.1008
  433MOL0     H58426   8.724   7.399   1.203  1.3397  1.0509 -0.7979
  433MOL0     H58427   8.881   7.597   1.376  1.1753 -0.3098 -0.0058
  433MOL0     H58428   8.822   7.444   1.456  2.4230  1.1353  0.7307
  433MOL0     H58429   9.058   7.429   1.386 -0.5095  2.0910  0.5021
  433MOL0     H58430   9.014   7.454   1.221 -1.1472 -1.0472 -0.9096
  433MOL0     H58431   8.857   7.229   1.325 -0.5436  2.1287  1.1799
  433MOL0     H58432   8.946   7.272   1.171  2.0923  0.0747 -0.6581
  433MOL0     H58433   9.051   7.138   1.415 -0.0133  3.7997  1.0356
  433MOL0     H58434   9.161   7.242   1.322 -0.9995  1.7770 -2.2472
  433MOL0     H58435   9.011   7.040   1.178  0.9340 -0.8878 -1.8470
  433MOL0     H58436   9.154   7.005   1.282 -3.1194  0.5682  2.0668
  433MOL0     H58437   8.260   7.789   1.364 -0.3562  1.4721  0.2968
  433MOL0     H58438   8.139   7.988   1.280  0.9141  0.5337 -0.6488
  433MOL0     H58439   8.134   8.281   0.972  0.3281  0.4234 -0.7500
  433MOL0     H58440   8.058   8.483   0.914  3.0751 -1.2090 -1.4956
  433MOL0     H58441   9.288   8.720   1.124 -1.9606  2.7061  0.3986
  433MOL0     H58442   9.525   8.669   1.145 -0.9584 -1.2844  0.0584
  433MOL0     H58443   9.891   8.667   1.147 -1.1630 -0.7520 -2.0946
  433MOL0     H58444  10.113   8.590   1.202  2.7144  1.7889  0.8367
  433MOL0     H58445  10.382   8.589   1.259 -1.5848 -2.7219  0.7588
  433MOL0     H58446  10.332   8.467   1.148  1.1636 -0.6889  1.4947
  433MOL0     H58447  10.558   8.445   1.209 -1.8211 -3.0434 -1.6728
  433MOL0     H58448  10.594   8.598   1.130 -0.8456 -0.0614 -0.5517
  433MOL0     H58449  10.535   8.519   0.903  0.8972 -1.0020 -2.0195
  433MOL0     H58450  10.470   8.371   0.975  0.0210  0.0664 -0.3498
  433MOL0     H58451  10.682   8.322   0.873 -0.4306  1.1528 -1.5454
  433MOL0     H58452  10.725   8.318   1.039 -1.4762 -0.7244  0.1501
  433MOL0     H58453  10.969   8.631   0.903  0.7366 -1.3547 -0.4213
  433MOL0     H58454  10.267   8.852   0.898  0.5963 -0.3669 -0.9862
  433MOL0     H58455  10.047   8.942   0.865 -2.7775 -1.3071 -0.6061
  434MOL0     O58456   5.353   9.310   3.895  0.1739  0.3125  0.1115
  434MOL0     C58457   5.426   9.403   3.934  1.0526 -0.8660  0.1889
  434MOL0     O58458   5.400   9.495   4.028  0.3819  0.8024 -0.6645
  434MOL0     C58459   5.289   9.481   4.100  0.3217 -0.6569  0.1921
  434MOL0     C58460   5.173   9.504   4.042  0.0055  0.1624 -0.1049
  434MOL0     C58461   5.058   9.504   4.119 -0.2010 -0.0673 -0.1834
  434MOL0     C58462   5.056   9.483   4.252 -0.1233 -0.4278  0.4024
  434MOL0     O58463   4.936   9.486   4.322 -0.0733 -0.3352 -0.5788
  434MOL0     C58464   4.911   9.394   4.437  0.2074 -0.3235  0.6379
  434MOL0     C58465   4.763   9.402   4.487 -0.3977 -0.6633 -0.5866
  434MOL0     C58466   4.655   9.351   4.388 -0.2769  0.6550 -0.1278
  434MOL0     C58467   4.525   9.309   4.453 -0.4810  0.2078 -0.3489
  434MOL0     C58468   4.446   9.412   4.531  0.4328 -0.2808 -0.6614
  434MOL0     C58469   4.415   9.538   4.450  0.3792  0.1427  0.3699
  434MOL0     C58470   4.336   9.651   4.529 -0.0563  0.3900  0.1396
  434MOL0     C58471   4.197   9.602   4.580 -0.2202  0.6810 -0.3685
  434MOL0     N58472   4.104   9.705   4.631  0.7643 -0.6279 -0.2703
  434MOL0     C58473   3.971   9.716   4.598 -0.0319  0.8626  0.0190
  434MOL0     C58474   3.939   9.840   4.641 -0.8044 -0.3711  0.4150
  434MOL0     C58475   3.801   9.900   4.611 -0.1332 -0.1994 -0.0972
  434MOL0     C58476   3.688   9.837   4.684  0.2217  0.3309 -0.0696
  434MOL0     C58477   3.552   9.897   4.652 -0.0294 -0.6147 -0.1425
  434MOL0     C58478   3.441   9.816   4.715  0.9989  0.1461  0.0396
  434MOL0     O58479   3.321   9.826   4.632  0.4590 -0.2382  0.0338
  434MOL0     C58480   3.205   9.769   4.679 -0.2459  0.1029  0.3070
  434MOL0     C58481   3.084   9.793   4.611  0.6665  0.5817  0.4955
  434MOL0     C58482   2.962   9.743   4.661  0.5046 -0.4702 -0.2653
  434MOL0     C58483   2.840   9.789   4.588  1.0270  0.0307 -0.0556
  434MOL0     C58484   2.958   9.673   4.786  1.1857 -0.1920 -0.5257
  434MOL0     C58485   2.828   9.625   4.848  0.4475  0.4158  0.1676
  434MOL0     O58486   2.848   9.540   4.967  0.9042 -0.3362  0.7479
  434MOL0     C58487   2.751   9.478   5.041 -0.3409 -0.2897  0.0763
  434MOL0     C58488   2.798   9.391   5.142 -0.5851  0.0660  0.5943
  434MOL0     C58489   2.703   9.308   5.209  0.0494 -0.2036  0.0503
  434MOL0     C58490   2.564   9.315   5.178  0.2283 -0.2233  1.5275
  434MOL0     O58491   2.490   9.214   5.230  0.7230 -0.3082 -0.2441
  434MOL0     C58492   2.343   9.239   5.233 -0.1845 -0.0969 -0.5534
  434MOL0     C58493   2.263   9.117   5.278 -0.2745  0.4592 -0.8884
  434MOL0     C58494   2.122   9.155   5.327 -0.1477 -0.4807 -0.4049
  434MOL0     C58495   2.052   9.035   5.362 -1.2658 -0.0365 -0.3062
  434MOL0     C58496   1.906   9.069   5.388  0.7520  0.8444 -0.5318
  434MOL0     C58497   1.841   8.948   5.452  0.0688 -0.4928  0.4618
  434MOL0     C58498   1.686   8.969   5.484  0.5999 -0.0026  0.2465
  434MOL0     C58499   1.632   8.871   5.590  0.0774 -0.0289 -0.1845
  434MOL0    Cl58500   1.457   8.907   5.604 -0.0161 -0.1035  0.4384
  434MOL0     C58501   2.526   9.406   5.084  0.4226 -0.1619  0.9441
  434MOL0     C58502   2.619   9.490   5.021  0.0081 -0.0783 -0.1283
  434MOL0     O58503   2.718   9.646   4.800  0.4642  0.1427  0.0402
  434MOL0     C58504   3.082   9.647   4.844  0.3005  0.4901 -0.7554
  434MOL0     C58505   3.207   9.687   4.793 -0.3702 -0.4660 -1.0279
  434MOL0     N58506   4.055   9.906   4.686 -0.2042 -0.0740 -0.0867
  434MOL0     N58507   4.150   9.822   4.685  0.0729 -0.2828 -0.1042
  434MOL0     C58508   5.175   9.458   4.319 -0.1293  0.2420  0.0495
  434MOL0     C58509   5.294   9.459   4.239 -0.3702  0.0418  0.0848
  434MOL0     C58510   5.556   9.410   3.871 -0.4084 -0.8126 -0.6828
  434MOL0     C58511   5.589   9.359   3.741 -0.2133  0.5357 -0.2641
  434MOL0     C58512   5.716   9.387   3.691 -0.4508 -0.6268 -1.3393
  434MOL0     C58513   5.807   9.460   3.770 -0.1004 -0.4191 -0.8974
  434MOL0     O58514   5.934   9.488   3.728 -0.9664 -0.7421  0.6744
  434MOL0     C58515   6.004   9.413   3.626  0.1570  0.8872  0.8078
  434MOL0     C58516   6.150   9.440   3.647 -0.2947 -0.2048  0.0917
  434MOL0     C58517   6.208   9.524   3.526  0.9221 -0.1513 -0.4214
  434MOL0     C58518   6.353   9.563   3.555  0.6102  0.2312  0.1344
  434MOL0     C58519   6.443   9.444   3.579  0.4448 -0.3691 -0.5727
  434MOL0     C58520   6.526   9.358   3.601  0.5122  0.2956  0.2659
  434MOL0     C58521   5.777   9.506   3.894 -0.5623 -0.3442  0.3190
  434MOL0     C58522   5.649   9.480   3.943  0.8632  0.1547 -0.3930
  434MOL0     H58523   5.171   9.516   3.935  3.2610  4.1974  0.0036
  434MOL0     H58524   4.967   9.509   4.061  0.2132 -0.3499 -0.8765
  434MOL0     H58525   4.952   9.294   4.420  0.4437 -0.3610  1.3866
  434MOL0     H58526   4.967   9.423   4.526 -0.0607 -2.7645  1.6776
  434MOL0     H58527   4.741   9.361   4.586 -0.0637  0.5270  0.0068
  434MOL0     H58528   4.751   9.511   4.491  1.5561 -0.4326  0.2219
  434MOL0     H58529   4.630   9.427   4.312 -2.2269 -1.2573 -1.5103
  434MOL0     H58530   4.694   9.264   4.335 -1.1408  1.3797 -2.0750
  434MOL0     H58531   4.465   9.258   4.377 -1.2010 -3.9227  2.5903
  434MOL0     H58532   4.545   9.220   4.514 -1.0035 -0.1106 -0.6280
  434MOL0     H58533   4.360   9.369   4.582  1.3184 -1.1460  0.1436
  434MOL0     H58534   4.517   9.431   4.612  1.5300 -3.1900 -0.8187
  434MOL0     H58535   4.511   9.589   4.439  1.5581 -1.6240  1.8640
  434MOL0     H58536   4.366   9.507   4.357 -0.2477  0.2367  0.6677
  434MOL0     H58537   4.403   9.678   4.610  0.7982 -0.5004 -0.2429
  434MOL0     H58538   4.316   9.739   4.467 -1.3881  0.4851  0.6757
  434MOL0     H58539   4.212   9.536   4.666 -0.6149  2.8530  1.4591
  434MOL0     H58540   4.148   9.556   4.494 -0.8799  0.9276 -0.1257
  434MOL0     H58541   3.911   9.665   4.523 -1.2575  0.7787  1.0287
  434MOL0     H58542   3.809  10.007   4.634  0.9632 -0.1838 -0.5159
  434MOL0     H58543   3.780   9.883   4.504 -2.7979 -1.9129  0.6032
  434MOL0     H58544   3.709   9.835   4.792 -3.1533 -1.3196  0.6754
  434MOL0     H58545   3.681   9.731   4.660 -0.2272 -0.0888  1.7586
  434MOL0     H58546   3.546   9.903   4.543  0.0759  1.3486 -0.0728
  434MOL0     H58547   3.549  10.002   4.683 -0.1984 -0.3101 -1.1477
  434MOL0     H58548   3.421   9.854   4.816 -0.1184  0.7643 -0.3950
  434MOL0     H58549   3.468   9.711   4.722 -1.0408 -0.2962  2.8754
  434MOL0     H58550   3.095   9.849   4.519  1.1117 -2.3726 -1.4070
  434MOL0     H58551   2.772   9.707   4.562  0.8627 -0.4230  1.6847
  434MOL0     H58552   2.786   9.863   4.647 -1.0507 -0.2774 -1.4487
  434MOL0     H58553   2.888   9.818   4.494  0.4368  0.3662 -0.2592
  434MOL0     H58554   2.905   9.396   5.160  0.1925  2.8647 -3.3764
  434MOL0     H58555   2.738   9.229   5.274  0.9056  0.7187  0.7474
  434MOL0     H58556   2.331   9.316   5.309  0.5657  1.3759 -1.8778
  434MOL0     H58557   2.309   9.280   5.137 -0.2619  0.6104 -0.2258
  434MOL0     H58558   2.254   9.045   5.197 -1.0409 -0.0302 -0.3793
  434MOL0     H58559   2.310   9.059   5.358 -1.7034 -0.8510 -0.9694
  434MOL0     H58560   2.063   9.205   5.251 -0.5821 -1.8648 -1.0101
  434MOL0     H58561   2.126   9.231   5.406 -2.8537  0.4760 -1.0821
  434MOL0     H58562   2.043   8.959   5.284  0.1543 -1.6810  1.0504
  434MOL0     H58563   2.104   8.992   5.448  1.9737  2.4906 -0.7881
  434MOL0     H58564   1.852   9.089   5.296 -2.4502 -1.3242  0.7141
  434MOL0     H58565   1.889   9.155   5.453  1.0301 -0.7578  1.8044
  434MOL0     H58566   1.849   8.863   5.384 -0.1288  0.4414 -0.7595
  434MOL0     H58567   1.894   8.920   5.544 -2.7544 -0.4279  2.2338
  434MOL0     H58568   1.633   8.950   5.390  2.8118 -1.2514 -0.8235
  434MOL0     H58569   1.671   9.073   5.512 -0.7979  0.0432 -0.5625
  434MOL0     H58570   1.685   8.893   5.684  2.6836 -0.9066 -1.3423
  434MOL0     H58571   1.659   8.769   5.562  0.9357  0.2183 -0.3099
  434MOL0     H58572   2.429   9.434   5.045  0.3558  0.3168  1.4437
  434MOL0     H58573   2.583   9.570   4.958  1.2716  0.2089 -0.5129
  434MOL0     H58574   3.086   9.595   4.939 -0.8572 -2.6541 -2.3062
  434MOL0     H58575   3.287   9.651   4.857 -1.4766  1.6606  1.7498
  434MOL0     H58576   5.165   9.449   4.427 -1.8061  1.6563  0.0507
  434MOL0     H58577   5.392   9.436   4.280 -0.6248 -0.5806  0.3570
  434MOL0     H58578   5.515   9.313   3.676  0.6661 -1.7576  0.2674
  434MOL0     H58579   5.728   9.361   3.587 -0.7327 -0.4188 -1.4251
  434MOL0     H58580   5.986   9.308   3.649  0.0620  0.5276 -0.7588
  434MOL0     H58581   5.974   9.428   3.522  1.5171 -0.0225  0.2568
  434MOL0     H58582   6.203   9.345   3.654  1.5048  0.7044 -0.3888
  434MOL0     H58583   6.163   9.510   3.730 -1.0560  0.9962 -0.7687
  434MOL0     H58584   6.146   9.613   3.513 -0.2969 -0.7797  0.8022
  434MOL0     H58585   6.204   9.472   3.430 -0.5426  0.1147 -0.5274
  434MOL0     H58586   6.357   9.643   3.629  4.1662  1.1235 -0.8440
  434MOL0     H58587   6.388   9.615   3.466 -0.7976  1.7768  0.4426
  434MOL0     H58588   6.606   9.287   3.598  0.7580  0.5446  0.8062
  434MOL0     H58589   5.848   9.557   3.959  0.0901 -0.8805  0.0411
  434MOL0     H58590   5.630   9.512   4.045  0.8274 -2.8020  0.6212
  435MOL0     O58591   1.651   6.852   5.176 -0.3802 -0.0089  0.6754
  435MOL0     C58592   1.636   6.892   5.294 -0.3289  0.2981 -0.5112
  435MOL0     O58593   1.516   6.924   5.351  0.2598  0.0569 -0.2368
  435MOL0     C58594   1.401   6.915   5.280 -0.4008 -0.1588 -0.4922
  435MOL0     C58595   1.312   7.026   5.264  0.0166  0.1121  0.2541
  435MOL0     C58596   1.195   7.013   5.186 -0.2833 -0.1660  0.4708
  435MOL0     C58597   1.158   6.893   5.132 -0.0625  0.9153  0.7438
  435MOL0     O58598   1.035   6.893   5.066  0.8343 -0.4778  0.6152
  435MOL0     C58599   0.956   6.777   5.095  0.1206  0.8992  0.3399
  435MOL0     C58600   0.809   6.793   5.057  0.6938  0.0414 -0.1178
  435MOL0     C58601   0.742   6.666   5.006 -0.9746  0.3425 -0.3090
  435MOL0     C58602   0.596   6.697   4.978  0.6094  0.1384  0.1611
  435MOL0     C58603   0.507   6.578   4.968  0.0928 -0.4759 -0.2507
  435MOL0     C58604   0.536   6.496   4.837 -0.7440  0.8402  0.3969
  435MOL0     C58605   0.410   6.418   4.796 -1.3625 -0.0899  0.6366
  435MOL0     C58606   0.368   6.316   4.909 -0.3913 -0.1456  0.3953
  435MOL0     N58607   0.248   6.244   4.882 -0.0897  0.4116  0.7851
  435MOL0     C58608   0.170   6.192   4.981  0.1086 -0.3353 -0.3398
  435MOL0     C58609   0.089   6.107   4.916  0.7514 -0.2798  0.2380
  435MOL0     C58610  -0.020   6.015   4.968 -0.3309  0.1390 -0.0359
  435MOL0     C58611  -0.154   6.046   4.911 -0.2869 -0.0501 -0.4699
  435MOL0     C58612  -0.250   5.935   4.921 -0.4239 -0.1537  0.1727
  435MOL0     C58613  -0.381   5.968   4.858  0.7060  0.0976  0.0768
  435MOL0     O58614  -0.447   6.051   4.946  0.5994  0.0887  0.0363
  435MOL0     C58615  -0.581   6.077   4.936 -0.4629 -0.2533 -0.1341
  435MOL0     C58616  -0.634   6.178   5.019  0.2340  0.5236  1.2126
  435MOL0     C58617  -0.767   6.221   5.011 -0.6541  0.0972  0.1395
  435MOL0     C58618  -0.811   6.325   5.115  0.5499 -0.0914  0.5401
  435MOL0     C58619  -0.854   6.151   4.923  0.2215  0.1616 -0.1642
  435MOL0     C58620  -0.998   6.161   4.913 -0.1518  0.2914  1.0467
  435MOL0     O58621  -1.056   6.130   4.792  0.3773 -0.3575 -0.3134
  435MOL0     C58622  -1.190   6.110   4.795  0.4128  0.0561  0.9295
  435MOL0     C58623  -1.235   5.985   4.773  0.6355 -0.5963  0.1404
  435MOL0     C58624  -1.375   5.965   4.788 -0.7488  0.5610 -0.8962
  435MOL0     C58625  -1.462   6.065   4.817  0.1934  0.3418  0.2025
  435MOL0     O58626  -1.590   6.040   4.823 -0.7524  0.5535 -0.5814
  435MOL0     C58627  -1.689   6.108   4.746 -0.1636  0.6615 -0.0833
  435MOL0     C58628  -1.762   6.011   4.655 -0.8015  0.1177 -0.0723
  435MOL0     C58629  -1.876   6.088   4.587 -0.8681 -0.7639 -0.0193
  435MOL0     C58630  -1.949   5.995   4.494 -0.0897  0.3076  0.1840
  435MOL0     C58631  -2.066   6.056   4.419  0.2456 -0.4240  0.1000
  435MOL0     C58632  -2.122   5.964   4.318  1.2028 -0.2272 -0.2864
  435MOL0     C58633  -2.245   6.019   4.237 -0.5196  0.0887 -0.6158
  435MOL0     C58634  -2.205   6.151   4.165  0.8508  0.5570 -0.4521
  435MOL0    Cl58635  -2.072   6.129   4.048  0.0459  0.1687  0.1878
  435MOL0     C58636  -1.414   6.192   4.814 -0.8238 -0.4928  0.4427
  435MOL0     C58637  -1.273   6.219   4.813  0.7203  0.4166 -1.4336
  435MOL0     O58638  -1.056   6.176   5.018  0.0671  1.1325 -0.2860
  435MOL0     C58639  -0.796   6.049   4.835 -0.1847  0.7953 -1.1966
  435MOL0     C58640  -0.660   6.023   4.839 -0.5297  0.8521 -0.1894
  435MOL0     N58641   0.111   6.120   4.775 -0.0918  0.5162 -0.1713
  435MOL0     N58642   0.215   6.187   4.761 -0.3551 -0.5735  0.0214
  435MOL0     C58643   1.251   6.787   5.133  0.4978 -0.4969 -0.1248
  435MOL0     C58644   1.369   6.796   5.216  0.1411  0.3262  0.6785
  435MOL0     C58645   1.761   6.910   5.372 -0.0485  0.5045 -0.4751
  435MOL0     C58646   1.757   6.975   5.495 -0.1049  0.8603 -0.4325
  435MOL0     C58647   1.876   6.997   5.564 -0.0870 -0.8149 -0.0846
  435MOL0     C58648   2.001   6.970   5.509  0.2906 -0.0441  0.5367
  435MOL0     O58649   2.123   7.003   5.566  0.3504  0.1964 -0.5789
  435MOL0     C58650   2.148   7.031   5.699  0.2475 -1.1594  0.2138
  435MOL0     C58651   2.161   7.179   5.726 -0.3625  0.2294  0.1571
  435MOL0     C58652   2.262   7.245   5.624  0.2737  0.3379  0.6338
  435MOL0     C58653   2.267   7.396   5.664  1.0462 -0.4054  0.2956
  435MOL0     C58654   2.329   7.428   5.795  0.3427 -0.3409 -0.7820
  435MOL0     C58655   2.376   7.457   5.902 -0.1270 -0.0975  0.9044
  435MOL0     C58656   1.998   6.910   5.383 -0.3413 -1.3562 -0.3996
  435MOL0     C58657   1.888   6.880   5.323  0.4897  0.1713  0.1658
  435MOL0     H58658   1.338   7.126   5.298  1.6892  0.8606 -2.8777
  435MOL0     H58659   1.140   7.104   5.167  0.2438  0.3257  1.2401
  435MOL0     H58660   0.995   6.691   5.040 -0.9223  0.3306  0.4639
  435MOL0     H58661   0.963   6.754   5.202  1.2723 -1.5984 -0.2140
  435MOL0     H58662   0.754   6.841   5.139 -0.8137  2.8541 -2.5877
  435MOL0     H58663   0.798   6.866   4.976  3.6893 -0.0493 -0.7457
  435MOL0     H58664   0.795   6.627   4.919 -2.8763  1.8513 -2.2464
  435MOL0     H58665   0.742   6.593   5.087  0.2859 -0.4500 -0.9884
  435MOL0     H58666   0.558   6.761   5.059 -0.1022  1.8478 -1.4340
  435MOL0     H58667   0.582   6.753   4.885  1.2135 -0.9081 -0.5686
  435MOL0     H58668   0.510   6.514   5.057  1.1187 -0.2390 -0.1068
  435MOL0     H58669   0.408   6.622   4.952  0.5018  0.1550 -1.1237
  435MOL0     H58670   0.570   6.560   4.756 -0.0131 -0.5459 -0.4334
  435MOL0     H58671   0.623   6.434   4.864 -0.2363  1.9615  1.4257
  435MOL0     H58672   0.335   6.493   4.770  0.8211  1.9318 -0.2676
  435MOL0     H58673   0.428   6.360   4.705 -0.2600 -1.8455  1.9281
  435MOL0     H58674   0.359   6.379   4.998  0.4126  0.0509  0.3510
  435MOL0     H58675   0.444   6.239   4.928 -0.9003 -0.5484  0.8202
  435MOL0     H58676   0.184   6.218   5.086  3.0926  1.3434 -1.0196
  435MOL0     H58677   0.003   5.915   4.930  1.2738  0.5088 -0.0762
  435MOL0     H58678  -0.018   6.016   5.077  2.4219 -1.6670  0.0133
  435MOL0     H58679  -0.150   6.075   4.806  1.7225  0.4145 -0.3049
  435MOL0     H58680  -0.192   6.128   4.972 -0.5341 -0.2160 -0.3964
  435MOL0     H58681  -0.256   5.895   5.023  0.0340 -3.1377 -0.8757
  435MOL0     H58682  -0.207   5.848   4.871  0.5080 -0.0288  0.7402
  435MOL0     H58683  -0.442   5.878   4.849  1.3910 -0.6381  2.1929
  435MOL0     H58684  -0.365   6.025   4.766  2.1185  3.1865  2.0494
  435MOL0     H58685  -0.570   6.221   5.096  1.2841  1.3255 -0.0663
  435MOL0     H58686  -0.730   6.382   5.161  1.1508  1.1322 -1.8358
  435MOL0     H58687  -0.876   6.404   5.076  0.2461  0.0588  1.3513
  435MOL0     H58688  -0.871   6.276   5.191  1.3358 -2.6878 -0.4140
  435MOL0     H58689  -1.169   5.901   4.754  1.9489 -0.8195  4.4944
  435MOL0     H58690  -1.415   5.864   4.782 -1.5686  0.8144 -0.1148
  435MOL0     H58691  -1.761   6.155   4.813  0.5646 -0.9208  1.8989
  435MOL0     H58692  -1.640   6.191   4.693  2.7301  1.5473  3.6103
  435MOL0     H58693  -1.704   5.970   4.573  1.4868 -0.0722  1.5332
  435MOL0     H58694  -1.812   5.933   4.713 -1.5115  0.0380 -0.7852
  435MOL0     H58695  -1.839   6.178   4.538 -1.7772  2.0907  4.0769
  435MOL0     H58696  -1.942   6.130   4.663  1.1619  1.7583  0.4953
  435MOL0     H58697  -1.891   5.948   4.415  1.9975  0.3486  1.6291
  435MOL0     H58698  -2.000   5.914   4.548  1.6748  0.2575  1.8581
  435MOL0     H58699  -2.028   6.149   4.376  1.3088  0.4522  2.7051
  435MOL0     H58700  -2.144   6.080   4.493  0.2062  0.4415 -0.2080
  435MOL0     H58701  -2.043   5.944   4.245  1.2538  2.4700 -1.1086
  435MOL0     H58702  -2.163   5.876   4.367 -1.6991  1.1220 -0.0518
  435MOL0     H58703  -2.322   6.047   4.310  0.1547 -1.3087  0.6869
  435MOL0     H58704  -2.291   5.946   4.170  0.5614  2.4966 -4.2849
  435MOL0     H58705  -2.173   6.220   4.244  0.6109  0.3226 -0.1515
  435MOL0     H58706  -2.292   6.197   4.118  1.3689  2.1337  0.0659
  435MOL0     H58707  -1.486   6.273   4.821 -0.5599 -0.3605  1.8812
  435MOL0     H58708  -1.230   6.317   4.831  1.9978 -0.2840 -0.5265
  435MOL0     H58709  -0.867   5.992   4.775 -0.0803  0.4922 -1.0353
  435MOL0     H58710  -0.626   5.940   4.778 -0.4935 -0.5210  1.5873
  435MOL0     H58711   1.215   6.696   5.085 -0.1497  1.0806 -2.8246
  435MOL0     H58712   1.427   6.704   5.213 -0.8130 -0.2815  0.3297
  435MOL0     H58713   1.661   7.008   5.532 -0.5289  0.3679 -1.0628
  435MOL0     H58714   1.878   7.068   5.646  0.3329  0.0889 -0.8549
  435MOL0     H58715   2.061   6.996   5.755 -0.3687 -1.2070 -0.7602
  435MOL0     H58716   2.238   6.970   5.712  0.5792 -0.9016 -0.7922
  435MOL0     H58717   2.191   7.186   5.831 -1.4211  0.5056  0.4544
  435MOL0     H58718   2.062   7.225   5.731  0.7824  2.8496  0.1618
  435MOL0     H58719   2.215   7.228   5.526 -0.2847 -1.7693  1.2198
  435MOL0     H58720   2.358   7.195   5.616  0.4112  0.7535 -0.5010
  435MOL0     H58721   2.173   7.451   5.669  2.7627  3.0052 -1.5440
  435MOL0     H58722   2.318   7.446   5.581  1.3425 -0.7876  0.2452
  435MOL0     H58723   2.418   7.480   5.997  0.0137 -0.0720  0.8356
  435MOL0     H58724   2.093   6.877   5.343 -1.2521 -3.3061 -1.0444
  435MOL0     H58725   1.907   6.832   5.228 -0.5138  1.9298 -0.9809
  436MOL0     O58726   1.196   9.391   4.347 -0.3157 -0.4344  0.3907
  436MOL0     C58727   1.218   9.424   4.465 -0.2709 -0.6878  0.3035
  436MOL0     O58728   1.136   9.400   4.572  0.3788  0.6493 -0.5834
  436MOL0     C58729   1.003   9.363   4.548  0.7004  0.3578 -0.3412
  436MOL0     C58730   0.981   9.237   4.486 -1.0864  0.5603  0.0385
  436MOL0     C58731   0.847   9.194   4.472 -0.5638 -0.4640 -0.3186
  436MOL0     C58732   0.744   9.264   4.532  0.8113 -0.0377 -0.3575
  436MOL0     O58733   0.619   9.210   4.519 -0.5554  0.0528  0.5612
  436MOL0     C58734   0.511   9.265   4.600 -0.5579 -0.2908  0.5052
  436MOL0     C58735   0.388   9.173   4.626  0.1887  0.3398  0.3702
  436MOL0     C58736   0.272   9.171   4.534 -0.3378  0.6269  0.2127
  436MOL0     C58737   0.179   9.056   4.578 -0.1475 -0.2369 -0.0693
  436MOL0     C58738   0.082   9.019   4.468 -0.7370 -0.3506 -0.5182
  436MOL0     C58739  -0.014   8.918   4.527  0.1958  0.2087 -0.1044
  436MOL0     C58740  -0.111   8.858   4.423  0.3658 -0.1855 -0.2430
  436MOL0     C58741  -0.191   8.745   4.480  0.2293 -0.8158  0.3270
  436MOL0     N58742  -0.236   8.662   4.367 -0.2893  0.4537 -0.4861
  436MOL0     C58743  -0.332   8.698   4.276  0.2602  0.7895  0.4646
  436MOL0     C58744  -0.354   8.595   4.186 -1.0562 -0.8609  0.4667
  436MOL0     C58745  -0.442   8.596   4.060  0.0007  0.5908 -0.2044
  436MOL0     C58746  -0.429   8.462   3.994  0.1455 -0.1168  0.0668
  436MOL0     C58747  -0.525   8.345   4.052  0.0396  0.3614 -0.2801
  436MOL0     C58748  -0.509   8.218   3.971  0.3357 -0.0231  0.0162
  436MOL0     O58749  -0.584   8.232   3.850 -0.2694 -0.7444 -1.0693
  436MOL0     C58750  -0.725   8.237   3.844 -0.2820  0.0085 -1.3276
  436MOL0     C58751  -0.785   8.325   3.750 -0.0587  0.9152  0.3817
  436MOL0     C58752  -0.922   8.324   3.734  0.1896  0.9181 -0.0956
  436MOL0     C58753  -0.992   8.408   3.635 -0.0896  0.1627 -0.1008
  436MOL0     C58754  -0.999   8.242   3.827  0.1674  0.5100  0.7979
  436MOL0     C58755  -1.150   8.231   3.840  0.9001  0.0055 -0.2994
  436MOL0     O58756  -1.229   8.321   3.782 -0.5570  0.0087  0.0035
  436MOL0     C58757  -1.359   8.282   3.767  0.1792 -0.5779  0.1123
  436MOL0     C58758  -1.451   8.265   3.875 -0.0167 -0.3511  0.1354
  436MOL0     C58759  -1.586   8.226   3.854 -0.0819 -0.6517 -0.8865
  436MOL0     C58760  -1.632   8.195   3.724  0.1500 -0.0775 -0.7290
  436MOL0     O58761  -1.762   8.168   3.711 -0.1355  0.0207  0.6225
  436MOL0     C58762  -1.853   8.271   3.678  0.6000  0.6593  0.6786
  436MOL0     C58763  -1.986   8.208   3.631  0.6548  0.9174  1.1119
  436MOL0     C58764  -2.107   8.297   3.655  0.4860  0.3921  0.1599
  436MOL0     C58765  -2.237   8.215   3.604 -0.5927  0.5536  1.1655
  436MOL0     C58766  -2.353   8.306   3.591  0.7739  0.2740  0.3024
  436MOL0     C58767  -2.473   8.231   3.531  0.1499  0.2863 -0.8877
  436MOL0     C58768  -2.579   8.339   3.514  0.0835  0.0383  0.4781
  436MOL0     C58769  -2.717   8.275   3.478 -0.1547  0.9052  0.2991
  436MOL0    Cl58770  -2.723   8.189   3.318 -0.4445  0.6760  0.0622
  436MOL0     C58771  -1.544   8.225   3.618 -0.9104 -0.2335  0.4110
  436MOL0     C58772  -1.410   8.271   3.639 -0.0946  0.2335  0.8663
  436MOL0     O58773  -1.195   8.133   3.897  0.1148 -0.4773  0.4510
  436MOL0     C58774  -0.927   8.159   3.917 -0.4538 -0.0203 -0.7348
  436MOL0     C58775  -0.794   8.149   3.925  0.1422  0.2514  0.3721
  436MOL0     N58776  -0.273   8.495   4.237  0.5676  0.3242 -0.4244
  436MOL0     N58777  -0.201   8.538   4.336  0.4543  0.5256 -0.5600
  436MOL0     C58778   0.767   9.390   4.594 -0.2218  0.3796  0.2016
  436MOL0     C58779   0.896   9.440   4.601 -0.2056  0.1706  0.7474
  436MOL0     C58780   1.337   9.506   4.497  0.5096 -0.0265  0.8121
  436MOL0     C58781   1.448   9.493   4.409 -0.2574 -0.2717 -0.1157
  436MOL0     C58782   1.554   9.586   4.426  0.8928  0.2906 -0.1819
  436MOL0     C58783   1.563   9.671   4.540  0.3727  0.6408  0.1830
  436MOL0     O58784   1.672   9.749   4.578 -0.3871  0.9700  0.8338
  436MOL0     C58785   1.776   9.759   4.481  0.0224 -1.2307 -0.7444
  436MOL0     C58786   1.854   9.873   4.529 -0.4666 -0.1327 -0.8400
  436MOL0     C58787   1.780  10.001   4.574 -0.4354  0.1015  0.0586
  436MOL0     C58788   1.859  10.124   4.552  0.1549 -0.1147 -0.4127
  436MOL0     C58789   1.991  10.121   4.622 -0.1481 -0.4793  0.0012
  436MOL0     C58790   2.096  10.133   4.690 -0.4497  0.8961  0.0799
  436MOL0     C58791   1.459   9.658   4.634  0.6874 -0.3063 -0.1115
  436MOL0     C58792   1.349   9.585   4.609  0.4611  0.0114  0.4842
  436MOL0     H58793   1.057   9.165   4.458 -0.7488  0.8752  0.1420
  436MOL0     H58794   0.818   9.105   4.417 -1.3855  0.8591 -2.1171
  436MOL0     H58795   0.550   9.300   4.695 -2.4463 -1.2603  1.7092
  436MOL0     H58796   0.477   9.348   4.537  0.7669 -0.1877 -0.1070
  436MOL0     H58797   0.427   9.074   4.648  1.8142  1.1916  1.5534
  436MOL0     H58798   0.344   9.205   4.721 -0.8291  0.6404 -0.1873
  436MOL0     H58799   0.223   9.269   4.532  0.4137  1.0285 -2.0286
  436MOL0     H58800   0.308   9.164   4.431 -2.3804  1.3249 -0.6098
  436MOL0     H58801   0.238   8.974   4.620  1.9195  1.0351 -0.3121
  436MOL0     H58802   0.118   9.094   4.661 -1.2202  1.2826 -1.4822
  436MOL0     H58803   0.028   9.110   4.437 -0.6323  0.3610  1.2789
  436MOL0     H58804   0.136   8.977   4.383 -2.5546  0.4104 -2.1375
  436MOL0     H58805   0.046   8.837   4.569 -2.2993 -1.5452  0.3289
  436MOL0     H58806  -0.068   8.972   4.605  0.4549  0.9124 -0.4058
  436MOL0     H58807  -0.188   8.934   4.405  0.1325 -0.3331  0.1132
  436MOL0     H58808  -0.065   8.829   4.328  0.1665 -2.9536  0.4282
  436MOL0     H58809  -0.279   8.772   4.539 -1.4970 -1.5472 -1.7618
  436MOL0     H58810  -0.133   8.681   4.547 -2.1047 -0.8270  2.5197
  436MOL0     H58811  -0.386   8.792   4.268  0.4733  0.7980 -1.0093
  436MOL0     H58812  -0.546   8.611   4.092 -0.1294 -0.2657 -0.2046
  436MOL0     H58813  -0.407   8.679   3.998  0.0702 -0.4063 -1.5524
  436MOL0     H58814  -0.325   8.428   3.993 -0.3587 -1.7631  0.9957
  436MOL0     H58815  -0.454   8.477   3.888 -0.3189  1.1130  0.3389
  436MOL0     H58816  -0.624   8.391   4.053  1.1745  2.9823  0.6000
  436MOL0     H58817  -0.502   8.333   4.159  1.6815  0.0677 -0.6347
  436MOL0     H58818  -0.540   8.131   4.031  2.6501 -0.7322  0.2667
  436MOL0     H58819  -0.405   8.203   3.943  0.9075  0.9387  1.5096
  436MOL0     H58820  -0.723   8.393   3.693  1.2670 -0.7998 -0.3262
  436MOL0     H58821  -1.080   8.360   3.591  0.1442  0.7451 -1.2552
  436MOL0     H58822  -1.031   8.496   3.688  0.9881  1.7901 -1.8657
  436MOL0     H58823  -0.928   8.448   3.556 -1.3492 -0.2747 -1.3893
  436MOL0     H58824  -1.407   8.281   3.973 -0.1163 -0.0409  0.1302
  436MOL0     H58825  -1.653   8.224   3.939  0.9908  4.9584  0.5278
  436MOL0     H58826  -1.859   8.349   3.754 -0.1064  2.6972 -1.3698
  436MOL0     H58827  -1.815   8.328   3.593 -0.8620  1.2872  0.4210
  436MOL0     H58828  -1.980   8.198   3.522  2.1242  1.6393  1.0955
  436MOL0     H58829  -2.001   8.110   3.676 -0.2471  1.5381  2.2132
  436MOL0     H58830  -2.084   8.391   3.604 -1.5909 -1.1291 -4.0385
  436MOL0     H58831  -2.113   8.312   3.763  1.9203 -0.4897  0.3965
  436MOL0     H58832  -2.218   8.183   3.501 -0.3340  2.7965  0.4502
  436MOL0     H58833  -2.256   8.130   3.671 -0.8919 -0.9495 -0.7354
  436MOL0     H58834  -2.324   8.384   3.521  3.3443 -0.7752  0.0769
  436MOL0     H58835  -2.377   8.354   3.687 -0.4668  1.8255 -0.7392
  436MOL0     H58836  -2.449   8.178   3.439 -2.1896  1.1250 -2.0606
  436MOL0     H58837  -2.508   8.157   3.604  0.9933 -1.1621 -1.9104
  436MOL0     H58838  -2.541   8.395   3.428  1.5774 -1.2402  0.2492
  436MOL0     H58839  -2.586   8.402   3.603  4.1959 -0.6017  1.4323
  436MOL0     H58840  -2.793   8.351   3.459  0.7025  1.6099 -0.3898
  436MOL0     H58841  -2.756   8.204   3.551  0.3468 -0.4568 -0.7079
  436MOL0     H58842  -1.578   8.216   3.515  1.0331  0.3015 -0.3325
  436MOL0     H58843  -1.344   8.289   3.554  2.8917 -2.3030  2.4477
  436MOL0     H58844  -0.982   8.089   3.979 -0.7650  1.2178  0.4459
  436MOL0     H58845  -0.746   8.075   3.988  1.2148  0.9245  0.3620
  436MOL0     H58846   0.696   9.444   4.656  0.8988 -0.9092  2.7683
  436MOL0     H58847   0.917   9.518   4.673 -1.5397 -1.5545  3.1294
  436MOL0     H58848   1.448   9.419   4.329 -0.9716  0.1193 -0.4779
  436MOL0     H58849   1.623   9.592   4.343 -1.5987 -1.1452 -2.4995
  436MOL0     H58850   1.832   9.665   4.476 -0.1217 -1.2712 -2.1588
  436MOL0     H58851   1.743   9.792   4.382  2.0940  3.7098 -0.0411
  436MOL0     H58852   1.931   9.895   4.454  2.3857 -2.9178  1.0106
  436MOL0     H58853   1.914   9.836   4.613 -0.5819  0.5104 -0.4712
  436MOL0     H58854   1.750  10.003   4.679 -2.6380 -0.8540 -0.4909
  436MOL0     H58855   1.687  10.013   4.517 -1.7963 -0.1181  2.0838
  436MOL0     H58856   1.810  10.218   4.581 -1.4834 -1.3902  1.1908
  436MOL0     H58857   1.873  10.139   4.445  0.2836  2.1135 -0.1250
  436MOL0     H58858   2.180  10.144   4.756 -0.7164 -0.8485  0.7648
  436MOL0     H58859   1.461   9.715   4.727  3.1150  0.2924 -0.4666
  436MOL0     H58860   1.270   9.593   4.684 -2.4678 -3.4419 -1.8999
  437MOL0     O58861   2.130   3.635   8.089  0.2738 -0.3362  0.3154
  437MOL0     C58862   2.202   3.578   8.010  0.8569  0.3042  0.3096
  437MOL0     O58863   2.264   3.463   8.035 -0.5800 -0.1137 -0.1146
  437MOL0     C58864   2.229   3.383   8.145  0.0793 -0.4031 -0.5618
  437MOL0     C58865   2.327   3.353   8.248  0.4839 -0.1202  0.5723
  437MOL0     C58866   2.292   3.281   8.362 -0.0125 -0.0744  0.6755
  437MOL0     C58867   2.169   3.221   8.372 -1.1223  0.5374 -0.1444
  437MOL0     O58868   2.145   3.129   8.469 -0.9551 -0.3240  0.3236
  437MOL0     C58869   2.078   3.184   8.585  1.1734  0.5344  0.2553
  437MOL0     C58870   1.933   3.155   8.562 -0.3586 -0.1029 -0.8146
  437MOL0     C58871   1.872   3.172   8.703  0.6689  0.1870 -0.2532
  437MOL0     C58872   1.723   3.127   8.693 -0.4941  0.6915 -0.7782
  437MOL0     C58873   1.637   3.189   8.799  0.3444 -0.0485  0.2657
  437MOL0     C58874   1.498   3.129   8.810 -0.2818 -0.2056 -0.0883
  437MOL0     C58875   1.402   3.201   8.909  0.0270  0.6038 -0.4357
  437MOL0     C58876   1.441   3.158   9.049  0.6675 -0.4735  0.1530
  437MOL0     N58877   1.345   3.200   9.156  0.6765 -0.2588 -0.1323
  437MOL0     C58878   1.239   3.283   9.140  0.5152 -0.2447  0.3180
  437MOL0     C58879   1.198   3.310   9.273 -1.4884 -0.6730 -0.5789
  437MOL0     C58880   1.108   3.411   9.336  0.2948 -0.3354  0.1774
  437MOL0     C58881   0.965   3.350   9.340 -0.6698  0.8851  0.4251
  437MOL0     C58882   0.942   3.234   9.438  0.2016  0.5580 -0.0787
  437MOL0     C58883   0.966   3.257   9.588 -0.2815 -0.0946 -0.4773
  437MOL0     O58884   0.875   3.365   9.628  0.6292  0.2813  0.1020
  437MOL0     C58885   0.740   3.341   9.639 -0.2454  0.5825 -0.3532
  437MOL0     C58886   0.658   3.454   9.647  0.8474  0.4179 -0.2990
  437MOL0     C58887   0.519   3.454   9.660 -0.6282  0.2260 -0.8695
  437MOL0     C58888   0.460   3.589   9.668 -0.0217  0.2826 -0.8151
  437MOL0     C58889   0.453   3.333   9.679  0.6073  0.3725 -0.0192
  437MOL0     C58890   0.313   3.310   9.691 -0.4959 -0.4328 -0.2371
  437MOL0     O58891   0.265   3.192   9.641 -0.4365 -0.2223  0.4547
  437MOL0     C58892   0.139   3.141   9.651 -0.4539 -0.2843 -0.1271
  437MOL0     C58893   0.100   3.062   9.760 -0.5010  1.3239  0.2262
  437MOL0     C58894  -0.038   3.012   9.771 -0.1390  0.5010  0.2105
  437MOL0     C58895  -0.134   3.046   9.672 -1.0391 -0.0720 -0.2909
  437MOL0     O58896  -0.254   2.984   9.683 -0.4759  1.1661  0.4257
  437MOL0     C58897  -0.374   3.048   9.630  0.3553  0.5474  0.4906
  437MOL0     C58898  -0.491   2.972   9.683 -0.4534  0.5670  0.0503
  437MOL0     C58899  -0.479   2.821   9.658  0.1309 -0.1681 -0.6841
  437MOL0     C58900  -0.601   2.750   9.727 -0.5325 -0.3984  0.3761
  437MOL0     C58901  -0.596   2.601   9.705 -0.4515 -0.4684 -0.0996
  437MOL0     C58902  -0.733   2.542   9.728 -0.6534 -0.0219 -0.4695
  437MOL0     C58903  -0.726   2.400   9.749  0.6674  0.5659 -0.1435
  437MOL0     C58904  -0.871   2.343   9.760 -0.4364  0.4719  0.0037
  437MOL0    Cl58905  -0.959   2.390   9.906 -0.5185  0.1793 -0.2669
  437MOL0     C58906  -0.094   3.124   9.561  0.5246 -0.1955 -0.2351
  437MOL0     C58907   0.036   3.174   9.560  0.4545 -0.5046 -0.2891
  437MOL0     O58908   0.254   3.395   9.763 -0.4281 -0.4977 -0.2017
  437MOL0     C58909   0.533   3.218   9.678  0.7077 -0.8078 -0.2285
  437MOL0     C58910   0.676   3.223   9.653  0.4140 -0.2944 -0.1149
  437MOL0     N58911   1.265   3.219   9.358 -0.0112  0.0938 -0.6313
  437MOL0     N58912   1.351   3.154   9.288  0.1768 -0.6115 -0.0455
  437MOL0     C58913   2.075   3.249   8.272 -0.3007  0.0384  0.5560
  437MOL0     C58914   2.099   3.334   8.165  0.7123  0.7215 -0.4053
  437MOL0     C58915   2.228   3.650   7.885 -0.2543  0.0729  0.2472
  437MOL0     C58916   2.234   3.587   7.765 -0.3170  0.4613  0.2269
  437MOL0     C58917   2.253   3.650   7.640 -0.2222  0.0806 -0.9782
  437MOL0     C58918   2.262   3.785   7.639 -0.7204 -0.7304  0.2499
  437MOL0     O58919   2.263   3.870   7.522  0.3822 -0.2484 -0.6273
  437MOL0     C58920   2.272   3.805   7.395 -0.1299  0.4141 -0.2535
  437MOL0     C58921   2.421   3.784   7.377  0.5658 -0.3107 -0.4214
  437MOL0     C58922   2.440   3.707   7.247 -0.7108  0.0555  0.3641
  437MOL0     C58923   2.590   3.711   7.200  0.3641 -0.6934 -0.2809
  437MOL0     C58924   2.602   3.630   7.082 -0.3595  0.2294 -0.5414
  437MOL0     C58925   2.618   3.570   6.977  0.1984  0.3798 -0.1619
  437MOL0     C58926   2.261   3.853   7.761 -0.0180 -1.3443  0.0284
  437MOL0     C58927   2.234   3.790   7.880  0.3709  0.4732  0.1367
  437MOL0     H58928   2.430   3.384   8.239  0.1118  0.8912 -0.4135
  437MOL0     H58929   2.377   3.253   8.424  0.8057 -0.2931 -0.5053
  437MOL0     H58930   2.119   3.124   8.667  0.4438  1.2752  1.1816
  437MOL0     H58931   2.110   3.287   8.602  1.5530  0.2738  1.1513
  437MOL0     H58932   1.884   3.224   8.492 -0.2880  0.2940 -0.4736
  437MOL0     H58933   1.927   3.055   8.517  2.6929 -0.2934 -0.9887
  437MOL0     H58934   1.924   3.118   8.783 -2.4374  0.5557  2.2252
  437MOL0     H58935   1.872   3.279   8.727 -2.3460  0.5558 -1.4901
  437MOL0     H58936   1.675   3.162   8.601 -2.5788 -3.8866 -1.7347
  437MOL0     H58937   1.719   3.018   8.696  3.3254  0.4317  1.2068
  437MOL0     H58938   1.686   3.168   8.895 -0.1799 -0.4605  0.4490
  437MOL0     H58939   1.633   3.297   8.780  1.0050 -0.3286 -1.6192
  437MOL0     H58940   1.452   3.121   8.710  1.0401 -0.3246 -0.7024
  437MOL0     H58941   1.521   3.028   8.846  0.1507  0.0649  0.3969
  437MOL0     H58942   1.404   3.310   8.904 -0.7436  0.9586  3.6122
  437MOL0     H58943   1.302   3.159   8.895 -0.3110 -0.5662  3.9099
  437MOL0     H58944   1.541   3.193   9.077  0.5102 -1.3877  2.0826
  437MOL0     H58945   1.454   3.050   9.061 -0.1889 -0.3828  2.5455
  437MOL0     H58946   1.208   3.325   9.045 -2.2508 -4.6627 -1.0772
  437MOL0     H58947   1.148   3.436   9.434 -0.3847  1.0476  0.1250
  437MOL0     H58948   1.103   3.499   9.271  1.6685 -0.8723 -0.7120
  437MOL0     H58949   0.922   3.320   9.244 -0.9311 -0.7862  1.0420
  437MOL0     H58950   0.898   3.433   9.364 -0.9240  0.8071  0.0010
  437MOL0     H58951   0.998   3.142   9.419 -0.8671 -0.4540  1.3691
  437MOL0     H58952   0.837   3.202   9.442 -0.2741  2.1040  0.7213
  437MOL0     H58953   1.071   3.284   9.601  0.1780 -1.4840 -1.1361
  437MOL0     H58954   0.949   3.174   9.657 -1.5489  1.5821  1.3401
  437MOL0     H58955   0.714   3.546   9.633  1.1120  0.3172  0.0791
  437MOL0     H58956   0.497   3.640   9.758  0.5349  0.2076 -0.9926
  437MOL0     H58957   0.493   3.645   9.579 -2.5223 -0.3543 -2.2230
  437MOL0     H58958   0.351   3.588   9.677  0.1338 -0.9502  1.6426
  437MOL0     H58959   0.182   3.019   9.818 -0.4400  1.2908  0.1171
  437MOL0     H58960  -0.069   2.934   9.840 -0.9628 -0.9905 -1.7442
  437MOL0     H58961  -0.376   3.153   9.659 -2.8805  0.5937  0.4602
  437MOL0     H58962  -0.385   3.051   9.522 -1.4467 -4.1612  0.3132
  437MOL0     H58963  -0.506   2.998   9.788 -0.4544  0.0830  0.1720
  437MOL0     H58964  -0.578   3.002   9.624 -2.0978  0.0122  2.0807
  437MOL0     H58965  -0.395   2.780   9.715 -1.3974 -0.8482  1.1818
  437MOL0     H58966  -0.471   2.787   9.554  2.5379  1.5846 -1.1458
  437MOL0     H58967  -0.607   2.764   9.835 -3.0940 -1.4146  0.4393
  437MOL0     H58968  -0.696   2.792   9.690 -0.1504  0.0164 -0.1485
  437MOL0     H58969  -0.515   2.567   9.769 -1.1498  0.7713  1.5172
  437MOL0     H58970  -0.569   2.584   9.601  0.5430 -1.1471  0.2544
  437MOL0     H58971  -0.781   2.591   9.814 -0.2721  0.6245 -0.6169
  437MOL0     H58972  -0.802   2.560   9.645 -1.3239 -0.7843 -0.0880
  437MOL0     H58973  -0.678   2.369   9.843 -1.7045 -0.7847  0.7076
  437MOL0     H58974  -0.675   2.353   9.665 -0.5315  0.1145 -0.6438
  437MOL0     H58975  -0.876   2.233   9.761 -2.7854  0.4909  2.5309
  437MOL0     H58976  -0.932   2.388   9.681 -4.4091 -3.0004  0.7357
  437MOL0     H58977  -0.165   3.160   9.488  1.3789 -1.2366 -1.6283
  437MOL0     H58978   0.073   3.248   9.490 -1.9996  0.1987 -0.9332
  437MOL0     H58979   0.486   3.123   9.700  0.0759 -0.1419  1.5506
  437MOL0     H58980   0.731   3.130   9.643 -2.2420 -2.2616  1.8070
  437MOL0     H58981   1.980   3.198   8.280  0.6429 -1.9760 -0.1788
  437MOL0     H58982   2.015   3.343   8.097 -2.0977  1.3402  2.8623
  437MOL0     H58983   2.239   3.479   7.762  1.4083  0.5328 -0.2824
  437MOL0     H58984   2.264   3.598   7.545  1.0801  0.1980 -0.9090
  437MOL0     H58985   2.220   3.709   7.397  1.2820 -0.3812  0.4688
  437MOL0     H58986   2.223   3.851   7.309 -0.5098  0.0071 -0.2526
  437MOL0     H58987   2.474   3.721   7.450 -0.0382 -0.1687  0.1410
  437MOL0     H58988   2.469   3.882   7.371 -0.5991  0.2926 -0.1441
  437MOL0     H58989   2.383   3.761   7.171 -2.1134  0.9833  1.9793
  437MOL0     H58990   2.410   3.603   7.256  0.5331 -0.2762  0.9787
  437MOL0     H58991   2.671   3.681   7.267 -0.0000  1.3775  1.1853
  437MOL0     H58992   2.617   3.814   7.174  0.6091 -0.7447 -0.2346
  437MOL0     H58993   2.646   3.506   6.896 -0.1405 -0.5298  0.4228
  437MOL0     H58994   2.277   3.960   7.760  3.5127 -1.7544 -2.4128
  437MOL0     H58995   2.212   3.855   7.964  2.4616  2.2193 -0.5716
  438MOL0     O58996   5.224   0.092   8.899  0.6372 -0.4067 -0.0696
  438MOL0     C58997   5.161   0.163   8.977  0.1864  0.3062  0.4762
  438MOL0     O58998   5.030   0.195   8.960  0.3417 -0.0054  0.2168
  438MOL0     C58999   4.965   0.149   8.852 -0.6116 -0.3579 -1.3825
  438MOL0     C59000   4.914   0.234   8.752  1.4673 -0.4456 -0.0055
  438MOL0     C59001   4.818   0.196   8.656  0.1997 -0.3159 -0.5105
  438MOL0     C59002   4.777   0.060   8.656  0.1218 -0.0315  0.0615
  438MOL0     O59003   4.693   0.001   8.567 -0.4464 -0.0434  0.0343
  438MOL0     C59004   4.582   0.078   8.536 -0.5884  0.3126 -0.0315
  438MOL0     C59005   4.472  -0.005   8.471  0.2902  0.0629 -1.3926
  438MOL0     C59006   4.339   0.073   8.448 -0.2933 -0.1753 -0.1302
  438MOL0     C59007   4.244   0.001   8.355 -0.2942 -0.2227  0.2439
  438MOL0     C59008   4.119   0.082   8.331  0.6555  0.4751 -0.8459
  438MOL0     C59009   4.024  -0.006   8.252 -0.4392  0.8326  0.0075
  438MOL0     C59010   3.889   0.064   8.227  0.2618  0.0233 -0.0147
  438MOL0     C59011   3.815  -0.038   8.141  0.1156  0.0633 -0.5581
  438MOL0     N59012   3.691   0.018   8.086 -0.0419 -0.5727 -0.3014
  438MOL0     C59013   3.675   0.089   7.969 -0.1438 -0.5182 -0.1701
  438MOL0     C59014   3.540   0.113   7.949 -0.0091 -0.0950  0.7802
  438MOL0     C59015   3.470   0.180   7.836  0.3809 -0.1244 -0.0452
  438MOL0     C59016   3.322   0.131   7.810 -0.0717  0.7038 -0.2484
  438MOL0     C59017   3.252   0.217   7.705  0.3605  0.4809  0.0729
  438MOL0     C59018   3.108   0.185   7.685  0.6705 -0.6647  0.6092
  438MOL0     O59019   3.064   0.238   7.560  0.3884  0.0423 -0.5072
  438MOL0     C59020   2.927   0.235   7.549 -0.2228 -0.0073 -0.9099
  438MOL0     C59021   2.861   0.113   7.552 -0.7381 -0.6536 -0.1413
  438MOL0     C59022   2.722   0.101   7.539  0.4003 -0.7062 -0.0648
  438MOL0     C59023   2.663  -0.033   7.547 -0.4319  0.0311  0.6464
  438MOL0     C59024   2.645   0.218   7.510 -0.4017 -0.3014  0.7799
  438MOL0     C59025   2.499   0.220   7.498 -0.8398 -0.2002 -0.9436
  438MOL0     O59026   2.432   0.120   7.565 -0.1459  0.4534  1.1740
  438MOL0     C59027   2.301   0.133   7.551  0.7494  0.0600  0.1228
  438MOL0     C59028   2.218   0.210   7.635 -0.2336 -1.1608 -0.6109
  438MOL0     C59029   2.077   0.210   7.615  0.3991 -0.5719 -0.2644
  438MOL0     C59030   2.020   0.134   7.509  0.1722 -0.0290 -0.0829
  438MOL0     O59031   1.891   0.106   7.478  0.6591 -0.5417 -0.6893
  438MOL0     C59032   1.785   0.124   7.573 -1.2516  0.0416  0.0879
  438MOL0     C59033   1.655   0.057   7.530 -0.9975 -0.8094 -0.0368
  438MOL0     C59034   1.662  -0.094   7.559  0.0574 -0.9049  0.2670
  438MOL0     C59035   1.543  -0.172   7.499  0.0043  0.0516  0.6887
  438MOL0     C59036   1.423  -0.177   7.596 -0.0476  0.5644 -0.4570
  438MOL0     C59037   1.302  -0.228   7.521 -0.4595 -0.3973 -0.6485
  438MOL0     C59038   1.295  -0.384   7.502 -0.5390 -0.0573  0.1104
  438MOL0     C59039   1.165  -0.428   7.433 -0.6408 -1.0032  0.0097
  438MOL0    Cl59040   1.038  -0.409   7.553 -0.2384  0.3008  0.3160
  438MOL0     C59041   2.111   0.071   7.421 -0.1149  0.3109  0.1251
  438MOL0     C59042   2.250   0.087   7.442 -0.3738 -0.0081 -0.0592
  438MOL0     O59043   2.445   0.305   7.427 -0.2429  0.1630 -0.1100
  438MOL0     C59044   2.723   0.338   7.488 -0.1322 -0.5368  0.5246
  438MOL0     C59045   2.859   0.349   7.512 -0.4244 -0.5035  0.1842
  438MOL0     N59046   3.476   0.060   8.067  0.1340  0.2056  0.4832
  438MOL0     N59047   3.569   0.008   8.143  0.3444 -0.2191  0.3327
  438MOL0     C59048   4.845  -0.033   8.742  0.1682  0.0980  0.2588
  438MOL0     C59049   4.933   0.014   8.841  0.8833  0.6689 -0.3122
  438MOL0     C59050   5.229   0.222   9.088  0.3368 -0.5980  0.9694
  438MOL0     C59051   5.187   0.343   9.147  0.1940 -0.1529 -0.6829
  438MOL0     C59052   5.263   0.398   9.251 -0.2195 -0.1679 -0.3488
  438MOL0     C59053   5.374   0.339   9.298 -0.2367 -0.1581 -0.9378
  438MOL0     O59054   5.455   0.411   9.380  0.4111 -0.2547  0.1614
  438MOL0     C59055   5.517   0.520   9.313 -0.1337 -0.1014  0.3425
  438MOL0     C59056   5.658   0.528   9.368 -0.3501  0.1836 -0.0736
  438MOL0     C59057   5.737   0.627   9.275  0.1979  0.1043 -0.0757
  438MOL0     C59058   5.886   0.632   9.299  1.0037  0.5456  0.0308
  438MOL0     C59059   5.948   0.729   9.208  0.1369 -0.3738 -0.1294
  438MOL0     C59060   6.009   0.803   9.134  0.5598 -0.4408  0.6012
  438MOL0     C59061   5.412   0.217   9.252  0.1951 -0.3324  0.5839
  438MOL0     C59062   5.343   0.160   9.140 -0.6432  0.0068 -0.2949
  438MOL0     H59063   4.951   0.334   8.769  0.3196 -0.2739  1.6908
  438MOL0     H59064   4.767   0.276   8.601 -1.3499 -0.3911  0.7346
  438MOL0     H59065   4.542   0.107   8.634 -1.8141  1.4126 -0.8326
  438MOL0     H59066   4.599   0.165   8.473 -1.5854  0.3951 -0.2036
  438MOL0     H59067   4.505  -0.038   8.373  6.2405 -1.5358  0.7324
  438MOL0     H59068   4.460  -0.098   8.527 -1.6195  1.0068 -0.0881
  438MOL0     H59069   4.301   0.095   8.548  1.3087 -2.6656  1.1296
  438MOL0     H59070   4.363   0.167   8.399 -1.6021 -0.4672 -1.3958
  438MOL0     H59071   4.293  -0.013   8.258 -0.8395  2.2913 -0.4821
  438MOL0     H59072   4.233  -0.098   8.398 -1.5865 -1.3193 -2.3948
  438MOL0     H59073   4.076   0.094   8.431 -0.5382 -1.1586 -1.1203
  438MOL0     H59074   4.138   0.182   8.292  0.4588  1.4876  1.5030
  438MOL0     H59075   4.067  -0.025   8.153  0.1088 -0.1621  0.4115
  438MOL0     H59076   4.014  -0.102   8.303  1.4787  0.4864 -0.1763
  438MOL0     H59077   3.825   0.080   8.314 -2.2471  1.3581 -1.9502
  438MOL0     H59078   3.877   0.163   8.182 -4.5901  0.9821  2.6621
  438MOL0     H59079   3.789  -0.132   8.191  1.1371  0.7370  1.3549
  438MOL0     H59080   3.877  -0.075   8.060 -0.1846 -1.3369 -0.1820
  438MOL0     H59081   3.745   0.112   7.889 -0.6213 -1.0661 -0.7569
  438MOL0     H59082   3.468   0.287   7.858  3.2175 -0.2268  1.1266
  438MOL0     H59083   3.530   0.165   7.746  0.8953  0.5702  0.1707
  438MOL0     H59084   3.264   0.138   7.902  0.3314 -2.5817  0.3602
  438MOL0     H59085   3.331   0.028   7.776 -0.0931  1.0011 -1.1944
  438MOL0     H59086   3.305   0.202   7.611  3.3965  1.1512  1.5637
  438MOL0     H59087   3.254   0.320   7.744 -2.3995  0.2788  0.9850
  438MOL0     H59088   3.054   0.226   7.770  0.3370 -0.5861  0.3618
  438MOL0     H59089   3.090   0.077   7.679  0.5956 -0.6065 -0.5509
  438MOL0     H59090   2.910   0.020   7.579 -2.7160 -1.5546  0.6022
  438MOL0     H59091   2.597  -0.055   7.463 -0.6090 -3.0952  1.4967
  438MOL0     H59092   2.728  -0.118   7.566  0.0567  0.6349  1.7992
  438MOL0     H59093   2.612  -0.037   7.644 -2.9643 -0.4404 -0.6081
  438MOL0     H59094   2.267   0.255   7.721  3.7908 -1.5112 -2.5163
  438MOL0     H59095   2.018   0.257   7.694  2.0021  4.5173 -1.6950
  438MOL0     H59096   1.822   0.079   7.665 -1.1458 -0.7696 -0.3433
  438MOL0     H59097   1.780   0.232   7.591 -4.2181  0.1826 -1.0629
  438MOL0     H59098   1.568   0.096   7.583  1.1296 -0.0774  3.1798
  438MOL0     H59099   1.643   0.076   7.423 -3.2950  1.6798  0.5648
  438MOL0     H59100   1.677  -0.122   7.664 -0.6655 -0.3457  0.5349
  438MOL0     H59101   1.755  -0.132   7.515 -0.5393 -3.2320  0.9039
  438MOL0     H59102   1.511  -0.125   7.406 -2.9999 -0.7391  1.2329
  438MOL0     H59103   1.580  -0.274   7.483 -2.8917 -1.0060  0.1857
  438MOL0     H59104   1.394  -0.081   7.640 -0.0766 -0.6428  2.4318
  438MOL0     H59105   1.448  -0.238   7.684 -1.0242  1.8612  0.7840
  438MOL0     H59106   1.208  -0.202   7.571  0.5234  2.5612 -0.1649
  438MOL0     H59107   1.301  -0.173   7.427 -3.8621  2.0227  0.6017
  438MOL0     H59108   1.290  -0.421   7.605 -0.2952 -0.4543 -0.0225
  438MOL0     H59109   1.386  -0.428   7.461 -0.6666 -1.0065  0.8086
  438MOL0     H59110   1.170  -0.530   7.392 -0.8864 -2.0208  2.3184
  438MOL0     H59111   1.142  -0.356   7.355  0.0234 -2.5694 -1.7179
  438MOL0     H59112   2.077  -0.002   7.349  0.3345 -0.3627  0.5846
  438MOL0     H59113   2.321   0.049   7.369  0.9394 -0.9578  1.6406
  438MOL0     H59114   2.665   0.426   7.461  0.5164 -1.0068 -2.8780
  438MOL0     H59115   2.915   0.442   7.516 -0.5132 -0.3925 -1.0346
  438MOL0     H59116   4.812  -0.136   8.731 -1.3389  0.4447  1.3011
  438MOL0     H59117   4.961  -0.051   8.923  1.0324 -0.1338 -0.9874
  438MOL0     H59118   5.098   0.394   9.110 -1.5341 -0.1971  2.9834
  438MOL0     H59119   5.236   0.493   9.296  1.1450  0.4395 -0.7801
  438MOL0     H59120   5.518   0.510   9.204 -2.6555  0.1981  0.2428
  438MOL0     H59121   5.471   0.617   9.334  1.6412  0.4648  1.8357
  438MOL0     H59122   5.711   0.432   9.368  1.5093  1.1539 -0.5303
  438MOL0     H59123   5.664   0.576   9.466  0.1419 -1.2391  0.6167
  438MOL0     H59124   5.695   0.728   9.280 -1.4538 -0.4458 -1.7710
  438MOL0     H59125   5.717   0.598   9.172 -0.4677 -2.1971  0.6414
  438MOL0     H59126   5.939   0.536   9.298  1.4264  0.7443  1.3547
  438MOL0     H59127   5.900   0.683   9.395 -0.9510  1.2658 -0.0270
  438MOL0     H59128   6.056   0.874   9.069 -1.4159  2.5681  2.2147
  438MOL0     H59129   5.511   0.186   9.287  1.3829  0.9950 -1.3944
  438MOL0     H59130   5.372   0.060   9.109 -1.8413 -1.2073  2.2176
  439MOL0     O59131   5.926   6.181   3.495 -0.4406 -0.0017 -0.4660
  439MOL0     C59132   5.921   6.300   3.533  0.1535  0.2833 -0.1249
  439MOL0     O59133   5.814   6.351   3.602 -0.4738 -0.5816  0.3500
  439MOL0     C59134   5.691   6.280   3.611  1.6293 -0.3611  0.6380
  439MOL0     C59135   5.610   6.317   3.721 -0.3372 -0.4119  0.2997
  439MOL0     C59136   5.486   6.266   3.735  0.4190 -0.3153  0.0435
  439MOL0     C59137   5.441   6.165   3.648 -0.5387 -0.4430 -0.0325
  439MOL0     O59138   5.315   6.110   3.670 -0.4659 -0.0557  0.1386
  439MOL0     C59139   5.261   6.005   3.585  0.4622 -0.2013 -0.2542
  439MOL0     C59140   5.183   5.901   3.662  0.1178  0.1243 -0.3811
  439MOL0     C59141   5.047   5.948   3.723 -0.7132  0.0705  0.0321
  439MOL0     C59142   4.937   5.989   3.621 -0.1128  0.8890  0.5998
  439MOL0     C59143   4.793   6.020   3.694 -0.2748  0.2311 -0.1685
  439MOL0     C59144   4.730   5.907   3.774  0.5697 -0.4482  0.3843
  439MOL0     C59145   4.586   5.948   3.822 -0.1391 -0.1820 -0.1653
  439MOL0     C59146   4.502   5.827   3.859  0.6690  0.4419 -1.0693
  439MOL0     N59147   4.372   5.868   3.899 -0.2094 -0.7061 -0.6842
  439MOL0     C59148   4.321   5.899   4.024 -0.8559  0.2219 -0.0677
  439MOL0     C59149   4.189   5.900   4.015 -0.7022  0.7456  0.5863
  439MOL0     C59150   4.086   5.910   4.117 -0.4435  0.4913  0.2414
  439MOL0     C59151   4.107   5.804   4.233 -0.2662 -0.3177  0.4268
  439MOL0     C59152   3.998   5.804   4.346 -0.5704 -0.4355  1.0350
  439MOL0     C59153   3.852   5.806   4.294 -0.4730  0.0549 -0.5611
  439MOL0     O59154   3.822   5.936   4.243  0.0006 -0.2595 -0.3488
  439MOL0     C59155   3.697   5.970   4.214 -0.2654 -0.5293  0.3333
  439MOL0     C59156   3.580   5.890   4.239  0.2116 -0.2289 -0.4133
  439MOL0     C59157   3.454   5.930   4.205 -0.1100  0.0471 -0.0083
  439MOL0     C59158   3.354   5.833   4.265  0.2317 -0.6295  0.4786
  439MOL0     C59159   3.430   6.058   4.134 -0.1798 -0.0477  0.3514
  439MOL0     C59160   3.297   6.110   4.097  0.3339 -0.3459 -0.4562
  439MOL0     O59161   3.291   6.229   4.034 -0.2744 -0.5704  0.2873
  439MOL0     C59162   3.164   6.278   3.993  0.3144 -0.2272  0.1145
  439MOL0     C59163   3.107   6.382   4.069  0.5012  0.6313  0.3949
  439MOL0     C59164   2.976   6.428   4.043  0.0074 -0.4009  0.6954
  439MOL0     C59165   2.899   6.363   3.947 -0.0720  0.2054  0.3866
  439MOL0     O59166   2.766   6.402   3.937  0.4268 -0.2243 -0.4080
  439MOL0     C59167   2.692   6.363   3.819 -0.2088 -0.3372 -0.6330
  439MOL0     C59168   2.574   6.456   3.827  0.5804  0.3359  0.2200
  439MOL0     C59169   2.469   6.417   3.723 -0.1990  0.0751  0.1103
  439MOL0     C59170   2.340   6.486   3.760  0.3063 -0.4746  0.4304
  439MOL0     C59171   2.219   6.457   3.675  0.2375 -1.1625  0.9574
  439MOL0     C59172   2.163   6.309   3.671 -0.1034 -0.5964  0.3250
  439MOL0     C59173   2.030   6.306   3.595 -0.1224  0.3349 -0.2807
  439MOL0     C59174   1.915   6.369   3.677  0.5437  0.5564 -0.4208
  439MOL0    Cl59175   1.773   6.316   3.586 -0.0311  0.1630 -0.2053
  439MOL0     C59176   2.963   6.269   3.859  0.6349  0.3948 -0.7780
  439MOL0     C59177   3.092   6.226   3.887  0.4018 -0.4371  0.4009
  439MOL0     O59178   3.199   6.037   4.112 -0.4206 -0.4998 -0.4112
  439MOL0     C59179   3.548   6.132   4.113 -0.0694 -0.5965 -0.0843
  439MOL0     C59180   3.673   6.093   4.157  0.1502  0.3773 -0.5819
  439MOL0     N59181   4.162   5.889   3.882  0.0170  0.3129  0.1599
  439MOL0     N59182   4.268   5.871   3.812 -0.0130 -0.7242  0.4487
  439MOL0     C59183   5.521   6.130   3.537  0.4070 -0.4253  0.1654
  439MOL0     C59184   5.645   6.190   3.511  0.0147  0.3036 -0.2666
  439MOL0     C59185   6.036   6.393   3.498 -0.1910  0.3538 -0.3191
  439MOL0     C59186   6.152   6.351   3.436 -0.6370  0.4355 -0.3823
  439MOL0     C59187   6.259   6.445   3.404  0.2342  0.2071  0.1530
  439MOL0     C59188   6.236   6.583   3.433 -0.8299  1.7337 -0.4565
  439MOL0     O59189   6.342   6.662   3.407 -0.0193 -0.4433  0.1380
  439MOL0     C59190   6.363   6.776   3.490  0.2824 -0.0250  0.0673
  439MOL0     C59191   6.462   6.856   3.407 -0.0193  0.4130 -0.9983
  439MOL0     C59192   6.515   6.962   3.499 -0.1512 -0.2880 -0.6435
  439MOL0     C59193   6.646   7.025   3.448 -0.1048 -0.0348  0.9419
  439MOL0     C59194   6.697   7.115   3.552 -0.4172 -0.9576  0.1106
  439MOL0     C59195   6.745   7.181   3.642  0.4788 -0.2066 -0.6142
  439MOL0     C59196   6.119   6.624   3.495 -0.4185 -0.0051 -0.5972
  439MOL0     C59197   6.022   6.532   3.527  1.3634 -0.1710 -1.2460
  439MOL0     H59198   5.643   6.405   3.775 -2.6712  2.5490 -2.6977
  439MOL0     H59199   5.436   6.314   3.818 -0.4774  1.2717 -1.3820
  439MOL0     H59200   5.194   6.053   3.513 -2.3830  0.3801  2.5558
  439MOL0     H59201   5.341   5.949   3.537  0.6753 -0.4879  0.4236
  439MOL0     H59202   5.164   5.818   3.593 -1.2877  1.0861 -1.2144
  439MOL0     H59203   5.240   5.868   3.749 -1.1038  2.7285  1.5232
  439MOL0     H59204   5.028   5.878   3.804  0.9380 -1.7350 -1.0315
  439MOL0     H59205   5.065   6.042   3.776  0.3008 -1.4738  2.6225
  439MOL0     H59206   4.962   6.078   3.563 -0.3771 -0.1347 -1.1466
  439MOL0     H59207   4.925   5.904   3.554  0.7660  0.2869  1.1901
  439MOL0     H59208   4.802   6.099   3.768  0.8972 -0.3123  0.2968
  439MOL0     H59209   4.729   6.046   3.609  2.7133  0.0732 -2.6865
  439MOL0     H59210   4.713   5.819   3.711 -0.3920 -0.7934  1.1014
  439MOL0     H59211   4.790   5.872   3.858 -0.2505 -0.8857  0.8074
  439MOL0     H59212   4.592   6.002   3.917 -3.2315  1.4145 -0.7617
  439MOL0     H59213   4.539   6.009   3.745 -2.3838 -1.6328 -0.0350
  439MOL0     H59214   4.548   5.773   3.943  0.9492  1.8960 -0.2696
  439MOL0     H59215   4.503   5.761   3.772  0.9030  1.6802 -2.0230
  439MOL0     H59216   4.372   5.904   4.120 -0.3428 -0.8441 -0.2698
  439MOL0     H59217   4.073   6.012   4.154  0.1654  0.9505 -0.7510
  439MOL0     H59218   3.999   5.891   4.053 -0.9332  3.1495 -0.0316
  439MOL0     H59219   4.208   5.809   4.276  1.1864 -1.3539 -2.5965
  439MOL0     H59220   4.096   5.707   4.185  4.5490 -1.7860  1.6784
  439MOL0     H59221   4.023   5.891   4.407  1.4459 -1.8261  2.3211
  439MOL0     H59222   4.003   5.721   4.417  0.1027  0.1267  1.6582
  439MOL0     H59223   3.789   5.779   4.379  1.7523 -2.5085  0.4259
  439MOL0     H59224   3.832   5.724   4.224  0.3159 -0.1920 -0.5054
  439MOL0     H59225   3.598   5.801   4.298  0.1635  1.1412  1.7626
  439MOL0     H59226   3.338   5.863   4.369 -0.1470 -1.5793  0.7050
  439MOL0     H59227   3.262   5.841   4.205  1.2404  1.7582 -0.9044
  439MOL0     H59228   3.385   5.729   4.275 -1.8581 -1.5568 -1.6220
  439MOL0     H59229   3.162   6.425   4.152  1.5231  0.0683  0.0348
  439MOL0     H59230   2.935   6.519   4.088  2.1523  1.7542 -1.4226
  439MOL0     H59231   2.750   6.385   3.729 -2.5179 -1.4759 -2.5232
  439MOL0     H59232   2.660   6.259   3.827 -0.7017 -0.0303  2.3203
  439MOL0     H59233   2.523   6.460   3.923 -1.8469 -0.2952 -0.9481
  439MOL0     H59234   2.606   6.558   3.801  1.1851  0.0272 -0.2813
  439MOL0     H59235   2.442   6.312   3.735 -0.0723  0.0369  0.0668
  439MOL0     H59236   2.504   6.431   3.620 -0.1753  1.5618  0.3069
  439MOL0     H59237   2.315   6.460   3.863  1.1423 -4.5840 -0.2189
  439MOL0     H59238   2.360   6.594   3.751  0.6803 -0.6829 -2.1950
  439MOL0     H59239   2.238   6.495   3.575 -1.8565 -0.9871  0.5837
  439MOL0     H59240   2.141   6.523   3.713  0.9297  1.0221 -1.2027
  439MOL0     H59241   2.238   6.254   3.613  1.2577 -1.8181  3.0515
  439MOL0     H59242   2.147   6.263   3.770  1.7731  0.6401  1.2710
  439MOL0     H59243   2.008   6.200   3.583  0.1796  0.5409 -3.3069
  439MOL0     H59244   2.029   6.347   3.494 -2.0575 -0.3117 -0.5649
  439MOL0     H59245   1.934   6.476   3.693 -1.3802  0.5694  2.5479
  439MOL0     H59246   1.906   6.321   3.775 -2.3920 -0.5286 -1.1360
  439MOL0     H59247   2.905   6.221   3.780 -0.2381 -0.9067  0.6020
  439MOL0     H59248   3.125   6.145   3.822  0.6232  0.3156 -0.4563
  439MOL0     H59249   3.539   6.222   4.053 -0.7398 -1.1511 -0.8458
  439MOL0     H59250   3.761   6.153   4.132  1.1153 -1.0096 -0.5852
  439MOL0     H59251   5.481   6.066   3.460  0.5075  0.8687 -0.9877
  439MOL0     H59252   5.696   6.145   3.426  0.1743 -2.2439  1.0535
  439MOL0     H59253   6.165   6.244   3.421 -3.1976  0.0035  0.0875
  439MOL0     H59254   6.355   6.430   3.357  0.8121 -1.2035  1.6673
  439MOL0     H59255   6.267   6.828   3.498 -0.0145 -0.7500  1.4716
  439MOL0     H59256   6.397   6.764   3.593 -0.4645 -0.9181  0.2149
  439MOL0     H59257   6.423   6.904   3.317  0.1859  0.9857 -0.7919
  439MOL0     H59258   6.541   6.788   3.376 -1.3770 -1.1123 -1.2448
  439MOL0     H59259   6.534   6.913   3.595 -1.3500  0.1706 -0.1515
  439MOL0     H59260   6.441   7.040   3.523  0.3989 -0.0717  0.4286
  439MOL0     H59261   6.633   7.082   3.356 -0.6576 -2.6703 -0.7319
  439MOL0     H59262   6.716   6.949   3.412  1.1846  1.4572  0.1858
  439MOL0     H59263   6.790   7.242   3.718 -2.6506  1.3712  0.1538
  439MOL0     H59264   6.114   6.730   3.519  0.4461 -0.1933  0.5555
  439MOL0     H59265   5.933   6.581   3.566  1.4485 -0.7858 -0.2449
  440MOL0     O59266   7.450   8.257   7.595 -0.0894 -0.3629 -0.1174
  440MOL0     C59267   7.456   8.366   7.637  0.1227  0.0312 -1.4145
  440MOL0     O59268   7.356   8.450   7.661  0.8216 -0.0337  0.7452
  440MOL0     C59269   7.221   8.417   7.633 -0.4094 -0.7480 -0.6739
  440MOL0     C59270   7.125   8.490   7.708 -0.9778 -1.1289  0.8652
  440MOL0     C59271   6.989   8.465   7.717 -0.1542  0.3176 -0.2883
  440MOL0     C59272   6.933   8.357   7.639 -0.4176  0.5700  0.5226
  440MOL0     O59273   6.803   8.320   7.642  0.6601  0.0113 -0.3851
  440MOL0     C59274   6.717   8.395   7.725 -0.1018  0.4729  0.0184
  440MOL0     C59275   6.573   8.356   7.694 -0.0559  0.1681 -1.1169
  440MOL0     C59276   6.473   8.465   7.745 -0.0886 -0.4358 -0.6026
  440MOL0     C59277   6.335   8.398   7.743  0.0331  0.7877 -0.6516
  440MOL0     C59278   6.228   8.504   7.739 -0.2902  0.3348  0.9542
  440MOL0     C59279   6.088   8.448   7.783  0.1289 -0.1201 -0.3417
  440MOL0     C59280   5.970   8.544   7.772  0.7890 -0.1651 -0.3336
  440MOL0     C59281   5.843   8.489   7.823 -0.2768  0.6494  0.5571
  440MOL0     N59282   5.729   8.593   7.808  0.0103  0.6819  0.4969
  440MOL0     C59283   5.657   8.607   7.682 -0.3602  0.9134  0.0539
  440MOL0     C59284   5.568   8.702   7.718 -0.1982 -0.3741 -0.4471
  440MOL0     C59285   5.453   8.762   7.642  0.0996  0.0020  0.1744
  440MOL0     C59286   5.321   8.740   7.715 -0.0029  0.3345 -0.3744
  440MOL0     C59287   5.208   8.761   7.614  0.6680 -0.4674 -0.1375
  440MOL0     C59288   5.061   8.753   7.671 -0.2311 -0.0100 -0.4994
  440MOL0     O59289   4.996   8.639   7.617 -0.1762  0.0350 -0.6729
  440MOL0     C59290   4.875   8.600   7.682  0.0428  0.0501  0.7265
  440MOL0     C59291   4.811   8.493   7.625  0.0670 -0.6219 -0.6338
  440MOL0     C59292   4.683   8.451   7.663 -0.2920 -0.5201 -0.0401
  440MOL0     C59293   4.630   8.331   7.583  0.6250 -0.1877 -0.4869
  440MOL0     C59294   4.616   8.518   7.761  0.4080 -0.1572 -0.5077
  440MOL0     C59295   4.478   8.480   7.805 -0.6866  0.7943  0.6392
  440MOL0     O59296   4.419   8.568   7.890 -1.0216 -0.3541 -0.1891
  440MOL0     C59297   4.302   8.545   7.951  0.2837 -0.2437 -0.1521
  440MOL0     C59298   4.299   8.446   8.054  0.6829  0.2989 -0.3032
  440MOL0     C59299   4.186   8.421   8.138 -0.1345  0.5991 -0.2935
  440MOL0     C59300   4.066   8.491   8.118 -0.7224  0.4621 -0.1872
  440MOL0     O59301   3.946   8.465   8.185 -0.6056  0.1164 -0.2008
  440MOL0     C59302   3.966   8.436   8.327 -0.3203  0.3550 -0.9324
  440MOL0     C59303   3.832   8.463   8.401 -0.5459  0.7696  0.0812
  440MOL0     C59304   3.735   8.341   8.370  0.0981 -0.4847  0.5441
  440MOL0     C59305   3.605   8.384   8.434 -0.1434 -0.4709 -0.0270
  440MOL0     C59306   3.495   8.275   8.447  0.6934  0.4673  0.1063
  440MOL0     C59307   3.446   8.222   8.306 -0.0586 -0.0600 -0.0056
  440MOL0     C59308   3.335   8.124   8.330  0.5958 -0.0372 -0.1822
  440MOL0     C59309   3.316   8.052   8.195  0.1244 -0.9052  0.4277
  440MOL0    Cl59310   3.174   7.954   8.202  0.0636 -0.0905  0.0757
  440MOL0     C59311   4.070   8.596   8.023 -0.5792  1.3310 -0.1816
  440MOL0     C59312   4.182   8.616   7.937  0.1941 -0.5452  0.8796
  440MOL0     O59313   4.430   8.371   7.778  0.1639  0.4121  0.7246
  440MOL0     C59314   4.680   8.629   7.824  0.5538  0.0232 -0.8012
  440MOL0     C59315   4.808   8.663   7.785 -0.5413  0.3620 -0.8875
  440MOL0     N59316   5.584   8.744   7.849 -0.0881  0.4566 -0.4246
  440MOL0     N59317   5.681   8.676   7.901  0.6051  0.5433 -0.5791
  440MOL0     C59318   7.024   8.281   7.563 -0.1268 -0.2331 -0.2211
  440MOL0     C59319   7.168   8.313   7.556 -0.1863  0.8125 -0.7358
  440MOL0     C59320   7.591   8.422   7.652 -0.9053  0.0813  0.0693
  440MOL0     C59321   7.610   8.557   7.705 -0.3350  0.0593  0.2930
  440MOL0     C59322   7.735   8.599   7.748 -1.1727  0.0636  0.0101
  440MOL0     C59323   7.851   8.517   7.727  0.4385 -0.6148  1.4575
  440MOL0     O59324   7.978   8.560   7.759 -0.2962 -0.0733 -0.1055
  440MOL0     C59325   8.091   8.472   7.785  0.0110 -0.2307 -1.2705
  440MOL0     C59326   8.085   8.416   7.928  0.4121  0.5132 -0.0875
  440MOL0     C59327   8.112   8.529   8.026  0.2801  0.1959  0.0107
  440MOL0     C59328   8.257   8.575   8.023 -0.0148  0.5087  0.0554
  440MOL0     C59329   8.275   8.667   8.133  0.3003  0.0761  0.4551
  440MOL0     C59330   8.299   8.749   8.217 -0.9641 -0.6209  0.8015
  440MOL0     C59331   7.836   8.389   7.672 -0.1383 -0.0091  0.2568
  440MOL0     C59332   7.709   8.339   7.630 -0.4808  0.0796  0.1121
  440MOL0     H59333   7.175   8.572   7.758  0.3993 -2.0185  1.0060
  440MOL0     H59334   6.932   8.539   7.772  1.1220  1.9493 -1.0923
  440MOL0     H59335   6.738   8.378   7.831 -0.3175 -1.0522 -0.1608
  440MOL0     H59336   6.737   8.501   7.710 -0.9634  1.1791  3.0241
  440MOL0     H59337   6.560   8.340   7.587  2.1735  2.2235 -1.7764
  440MOL0     H59338   6.553   8.261   7.746  0.5096  0.9408  0.5813
  440MOL0     H59339   6.499   8.497   7.846 -1.6437 -0.1409 -0.2750
  440MOL0     H59340   6.476   8.556   7.684  1.9652  0.9388  1.3915
  440MOL0     H59341   6.328   8.335   7.654  1.4706  0.2432 -0.4087
  440MOL0     H59342   6.323   8.330   7.828  1.2391  1.4391  0.0720
  440MOL0     H59343   6.262   8.589   7.799  0.2397  0.2404  0.7847
  440MOL0     H59344   6.219   8.543   7.636  2.8479 -2.1610 -0.4046
  440MOL0     H59345   6.082   8.357   7.721  2.2006 -1.1668  0.8758
  440MOL0     H59346   6.106   8.418   7.887  0.5897 -0.3267 -0.4756
  440MOL0     H59347   5.969   8.625   7.845 -2.8378  1.5403 -2.0247
  440MOL0     H59348   5.956   8.584   7.672  0.1389 -0.2607 -0.2860
  440MOL0     H59349   5.856   8.472   7.930  2.3446  0.5284  0.2638
  440MOL0     H59350   5.820   8.395   7.770 -0.0113 -0.5530  2.4711
  440MOL0     H59351   5.669   8.558   7.585  0.4089 -2.4536  1.6825
  440MOL0     H59352   5.459   8.871   7.629 -0.2822 -0.3279 -4.4450
  440MOL0     H59353   5.445   8.712   7.545  1.5886 -0.3771  0.2262
  440MOL0     H59354   5.324   8.809   7.799 -0.4814  0.2532 -0.2875
  440MOL0     H59355   5.315   8.637   7.752 -0.5314  0.5791  0.2307
  440MOL0     H59356   5.219   8.695   7.528 -1.3546 -2.0242  0.7159
  440MOL0     H59357   5.224   8.864   7.583 -1.8752  0.4447  1.2518
  440MOL0     H59358   4.999   8.841   7.652 -0.8921 -0.3690 -0.0254
  440MOL0     H59359   5.063   8.752   7.781  1.8712 -2.4747 -0.4679
  440MOL0     H59360   4.864   8.437   7.548  0.7369 -0.0233 -0.6251
  440MOL0     H59361   4.611   8.250   7.653  1.4581 -0.4450 -0.5409
  440MOL0     H59362   4.539   8.359   7.529  1.8356  1.7489 -1.6708
  440MOL0     H59363   4.690   8.305   7.495 -0.8980 -1.4527 -1.2023
  440MOL0     H59364   4.391   8.397   8.082 -0.5492 -2.0839 -0.1493
  440MOL0     H59365   4.189   8.339   8.209  2.4710 -1.5035 -2.5962
  440MOL0     H59366   3.993   8.331   8.337  3.0147  0.9221 -2.3407
  440MOL0     H59367   4.036   8.506   8.374 -2.8601  1.4575  1.4751
  440MOL0     H59368   3.844   8.472   8.510  2.5376  0.7968 -0.1604
  440MOL0     H59369   3.793   8.556   8.358  1.6863  1.5299 -0.4198
  440MOL0     H59370   3.774   8.253   8.421  1.2715  0.2477  0.9276
  440MOL0     H59371   3.731   8.339   8.260  1.7082 -0.8453  0.4670
  440MOL0     H59372   3.620   8.433   8.530  1.5741 -1.0272  0.0214
  440MOL0     H59373   3.575   8.474   8.379  1.6395 -0.9338 -1.9043
  440MOL0     H59374   3.409   8.307   8.507 -2.3678 -4.5315 -1.0570
  440MOL0     H59375   3.540   8.193   8.505 -1.0829 -0.4294  0.2722
  440MOL0     H59376   3.408   8.306   8.247 -3.1982  0.7983  2.9202
  440MOL0     H59377   3.527   8.175   8.249 -0.7523 -2.4347  0.8456
  440MOL0     H59378   3.237   8.163   8.359 -0.9782 -1.2058 -3.4270
  440MOL0     H59379   3.367   8.046   8.400  0.1389  0.1471  0.2366
  440MOL0     H59380   3.404   7.988   8.183  1.2066  0.7281 -0.6738
  440MOL0     H59381   3.306   8.124   8.114 -0.5030 -0.4526  0.9008
  440MOL0     H59382   3.982   8.657   8.007 -0.4714  1.0455 -2.0324
  440MOL0     H59383   4.170   8.692   7.860 -2.2290 -4.4300 -3.0359
  440MOL0     H59384   4.633   8.692   7.898 -0.1068 -0.4432 -0.8187
  440MOL0     H59385   4.846   8.764   7.799  0.6496  0.3132 -3.1902
  440MOL0     H59386   6.984   8.197   7.506 -1.8426 -0.0300  0.6132
  440MOL0     H59387   7.233   8.245   7.501  1.1839  1.2213  0.3296
  440MOL0     H59388   7.521   8.614   7.730 -2.0176 -3.1246  2.0736
  440MOL0     H59389   7.760   8.686   7.807  0.8803 -2.1476  2.6835
  440MOL0     H59390   8.100   8.389   7.714 -1.6385 -0.4617 -1.2647
  440MOL0     H59391   8.186   8.525   7.771  0.6682 -0.9200  0.3559
  440MOL0     H59392   8.160   8.337   7.942  0.6388  0.5005 -1.2986
  440MOL0     H59393   7.990   8.369   7.956  0.4984 -0.7276 -1.7387
  440MOL0     H59394   8.093   8.492   8.127  1.5788  0.4503  0.3638
  440MOL0     H59395   8.049   8.614   7.999  3.0216  1.8815 -1.5330
  440MOL0     H59396   8.298   8.631   7.938  2.1604  0.9032  1.2980
  440MOL0     H59397   8.324   8.491   8.041  1.1895  1.7958  2.0569
  440MOL0     H59398   8.332   8.822   8.288  0.1575  0.3333 -0.6523
  440MOL0     H59399   7.922   8.328   7.648  1.8168  3.1810 -1.5890
  440MOL0     H59400   7.709   8.240   7.584 -2.1779  0.9015 -1.8167
  441MOL0     O59401   8.490   5.865   9.379  0.2910 -0.0150 -0.0598
  441MOL0     C59402   8.479   5.938   9.477  0.2911  0.4835  0.5801
  441MOL0     O59403   8.377   6.029   9.503 -0.6713 -0.1290 -1.2341
  441MOL0     C59404   8.267   6.029   9.425 -0.7263  0.7585 -0.7045
  441MOL0     C59405   8.198   5.909   9.407 -0.0649 -0.4125  0.0322
  441MOL0     C59406   8.079   5.911   9.329 -0.3737 -1.3428  0.1349
  441MOL0     C59407   8.029   6.029   9.273  0.2399  0.3415  0.2989
  441MOL0     O59408   7.918   6.030   9.192  0.5356  0.1424 -0.0642
  441MOL0     C59409   7.873   5.906   9.123 -0.2850 -0.6487 -0.0390
  441MOL0     C59410   7.755   5.929   9.035 -0.3751 -0.1569  0.3669
  441MOL0     C59411   7.634   5.949   9.112  0.2003 -0.0141 -0.4011
  441MOL0     C59412   7.512   5.947   9.020  1.1121  0.6158 -0.2314
  441MOL0     C59413   7.386   6.007   9.084  0.0196  0.0802 -0.5652
  441MOL0     C59414   7.249   5.993   9.009 -0.2986  1.2567  0.2965
  441MOL0     C59415   7.246   6.076   8.885  0.6710  0.1918  0.5576
  441MOL0     C59416   7.122   6.055   8.790  0.0006  0.1407  0.5762
  441MOL0     N59417   6.997   6.095   8.850 -0.6852  0.0297 -0.7549
  441MOL0     C59418   6.887   6.027   8.830 -0.5239 -0.3539 -0.0267
  441MOL0     C59419   6.792   6.073   8.913 -0.1275 -0.6810 -0.3020
  441MOL0     C59420   6.649   6.021   8.941  0.9536 -0.5466 -0.2717
  441MOL0     C59421   6.614   6.033   9.099 -0.0244  0.4177  0.4201
  441MOL0     C59422   6.467   5.987   9.123 -0.2854  0.1053  0.6614
  441MOL0     C59423   6.356   6.069   9.047 -0.3205  0.1951  0.4119
  441MOL0     O59424   6.226   6.022   9.060  0.1819  0.1137  0.2706
  441MOL0     C59425   6.126   6.077   8.986  0.1247  0.4414  0.0928
  441MOL0     C59426   6.007   6.011   9.003 -0.8673 -0.0100 -0.2760
  441MOL0     C59427   5.887   6.039   8.939  0.6618 -0.6716 -0.3376
  441MOL0     C59428   5.763   5.967   8.992 -0.3108 -0.8322  0.1401
  441MOL0     C59429   5.890   6.144   8.849 -1.0669  0.3049  0.4544
  441MOL0     C59430   5.783   6.188   8.773  0.0930 -0.7824 -0.7807
  441MOL0     O59431   5.716   6.086   8.706 -0.0377 -0.5122  0.1808
  441MOL0     C59432   5.603   6.130   8.639  0.1713  0.2738 -0.6111
  441MOL0     C59433   5.593   6.230   8.540 -0.3654 -0.8573 -1.0223
  441MOL0     C59434   5.482   6.252   8.459 -0.0716  1.1609  0.2687
  441MOL0     C59435   5.368   6.170   8.475  0.2576  0.4520 -0.3475
  441MOL0     O59436   5.251   6.188   8.396  0.0363  0.5927  0.1451
  441MOL0     C59437   5.123   6.185   8.468  0.1145  0.2440 -0.2551
  441MOL0     C59438   5.045   6.308   8.424 -1.1174 -0.4378 -1.2047
  441MOL0     C59439   5.011   6.320   8.276  0.1971 -0.2358 -0.0452
  441MOL0     C59440   4.904   6.212   8.225  0.0324  0.1134  0.4944
  441MOL0     C59441   4.759   6.249   8.229 -1.1363  0.9642  0.0813
  441MOL0     C59442   4.679   6.148   8.142 -0.4802  0.3152  0.4791
  441MOL0     C59443   4.523   6.167   8.167  0.2986  0.0112  0.6264
  441MOL0     C59444   4.460   6.078   8.275 -0.2935  0.3528 -0.1268
  441MOL0    Cl59445   4.467   5.914   8.222 -0.1430 -0.1088  0.2380
  441MOL0     C59446   5.374   6.071   8.579  0.6198 -0.1808  0.4530
  441MOL0     C59447   5.487   6.058   8.666  0.5414 -0.3579 -0.4790
  441MOL0     O59448   5.763   6.312   8.772  0.2334  0.3666  0.3780
  441MOL0     C59449   6.013   6.221   8.830 -0.6984 -0.8306 -0.1004
  441MOL0     C59450   6.127   6.185   8.901  0.2453  1.3031  0.0708
  441MOL0     N59451   6.851   6.189   8.968  0.3830 -0.2850  0.2844
  441MOL0     N59452   6.976   6.199   8.929 -0.1255  0.1670 -0.6436
  441MOL0     C59453   8.105   6.143   9.292  0.2778 -0.6829 -0.9734
  441MOL0     C59454   8.222   6.142   9.362  0.9251 -0.3247  0.5697
  441MOL0     C59455   8.590   5.913   9.573  0.1137 -0.4463 -0.5373
  441MOL0     C59456   8.717   5.897   9.518  0.0552  0.0718  0.4285
  441MOL0     C59457   8.834   5.912   9.597  0.4937  0.2235 -0.0957
  441MOL0     C59458   8.823   5.924   9.736  1.1247 -0.2402 -0.2508
  441MOL0     O59459   8.928   5.925   9.822  0.6420  1.1266 -0.4574
  441MOL0     C59460   9.046   5.991   9.781 -0.8921 -0.0048 -0.8372
  441MOL0     C59461   9.161   5.986   9.882 -1.2989 -0.3639 -0.0668
  441MOL0     C59462   9.291   6.029   9.814 -0.9382  0.3365 -0.0086
  441MOL0     C59463   9.408   6.010   9.911 -0.1187  0.7348  1.1384
  441MOL0     C59464   9.534   6.021   9.832  0.3519 -0.2578 -0.1203
  441MOL0     C59465   9.644   6.039   9.786 -0.5277 -0.5993 -0.3132
  441MOL0     C59466   8.691   5.936   9.788  0.0596 -0.1199  0.0178
  441MOL0     C59467   8.578   5.941   9.711 -0.6823 -0.1512  0.5791
  441MOL0     H59468   8.239   5.821   9.455  0.3801 -1.0333 -1.4257
  441MOL0     H59469   8.028   5.818   9.306 -1.1443 -0.4259 -2.0838
  441MOL0     H59470   7.957   5.884   9.056  0.6373  0.7904  0.5968
  441MOL0     H59471   7.852   5.820   9.188 -2.7495  1.2097  1.8015
  441MOL0     H59472   7.774   6.025   8.987  2.1167 -1.7291 -2.1274
  441MOL0     H59473   7.743   5.859   8.952  1.0685  1.7895 -1.5887
  441MOL0     H59474   7.621   5.879   9.195 -2.5530 -0.1701 -0.8850
  441MOL0     H59475   7.632   6.051   9.151 -3.6487 -1.2764  3.4502
  441MOL0     H59476   7.534   5.988   8.922  0.6831 -1.9085 -1.4743
  441MOL0     H59477   7.495   5.842   8.993  2.7616  0.1451  0.4585
  441MOL0     H59478   7.375   5.953   9.179  1.7438 -1.4893 -1.1900
  441MOL0     H59479   7.398   6.113   9.106 -4.4794  0.4057  1.4473
  441MOL0     H59480   7.224   5.891   8.975 -0.9973  1.4211  0.3108
  441MOL0     H59481   7.172   6.011   9.084  0.5871 -0.8942  1.8103
  441MOL0     H59482   7.252   6.181   8.916 -0.7586  0.4797 -0.0410
  441MOL0     H59483   7.338   6.060   8.829 -1.3377 -0.3310 -2.8756
  441MOL0     H59484   7.116   5.948   8.770  0.2495  0.4231 -1.1217
  441MOL0     H59485   7.139   6.106   8.695  1.0563 -2.3636 -0.6684
  441MOL0     H59486   6.876   5.943   8.763  1.0792 -1.7626  1.3747
  441MOL0     H59487   6.577   6.081   8.884 -1.1165 -2.4080  0.2473
  441MOL0     H59488   6.639   5.915   8.918 -1.5445 -0.6836  1.0804
  441MOL0     H59489   6.621   6.137   9.132 -2.9396  1.6773 -2.3691
  441MOL0     H59490   6.689   5.971   9.149 -1.8396 -0.8961  1.6460
  441MOL0     H59491   6.437   5.980   9.228 -0.2075 -0.6190  0.6418
  441MOL0     H59492   6.463   5.887   9.078 -0.4553 -0.2778  1.5139
  441MOL0     H59493   6.374   6.068   8.939  0.6064  3.1548  0.4441
  441MOL0     H59494   6.354   6.175   9.072  0.4197  0.8599 -2.1108
  441MOL0     H59495   5.993   5.953   9.094  0.8228  2.6790  1.8673
  441MOL0     H59496   5.762   5.870   8.942  0.4056 -0.8246  0.1035
  441MOL0     H59497   5.770   5.941   9.098  1.5396 -1.1672 -0.0381
  441MOL0     H59498   5.670   6.020   8.970  0.4400  1.0944  1.3542
  441MOL0     H59499   5.674   6.302   8.533 -2.3885  1.6575 -0.1367
  441MOL0     H59500   5.473   6.337   8.392  1.2734 -0.0261 -1.5150
  441MOL0     H59501   5.070   6.092   8.443  0.2009  1.0825 -4.4153
  441MOL0     H59502   5.155   6.185   8.572  0.7715 -1.1982 -0.4394
  441MOL0     H59503   4.952   6.307   8.481  0.3766  0.9504  1.5092
  441MOL0     H59504   5.108   6.395   8.448  0.1518 -0.5195 -3.9080
  441MOL0     H59505   5.107   6.322   8.222  0.7193 -0.5684  0.8517
  441MOL0     H59506   4.970   6.420   8.264 -1.2278 -0.5973  1.4785
  441MOL0     H59507   4.934   6.197   8.120  0.5709  2.7958  0.2026
  441MOL0     H59508   4.923   6.113   8.269  2.2621 -0.3990 -1.3852
  441MOL0     H59509   4.743   6.352   8.197  2.8020  1.8261  0.3522
  441MOL0     H59510   4.725   6.241   8.333  3.4212  3.3952  2.0008
  441MOL0     H59511   4.700   6.174   8.038 -0.9757  1.7350  0.7169
  441MOL0     H59512   4.705   6.043   8.159 -1.3092 -0.1669 -1.0372
  441MOL0     H59513   4.467   6.150   8.074 -1.7100 -0.4568  1.8509
  441MOL0     H59514   4.508   6.269   8.204  0.8019  0.5197 -0.5083
  441MOL0     H59515   4.355   6.108   8.281  0.1517  1.7765  1.1845
  441MOL0     H59516   4.515   6.084   8.369 -3.1526 -2.4074  1.9055
  441MOL0     H59517   5.291   6.009   8.612 -0.4040  2.6775  3.7341
  441MOL0     H59518   5.503   5.984   8.743 -1.8647 -1.3285 -0.8186
  441MOL0     H59519   6.022   6.306   8.764 -2.3011 -1.2646 -0.9252
  441MOL0     H59520   6.221   6.237   8.884  1.6637 -0.5487  1.7858
  441MOL0     H59521   8.066   6.240   9.261  0.9297  0.4729  1.5521
  441MOL0     H59522   8.270   6.238   9.376  3.0541 -0.8400 -2.1825
  441MOL0     H59523   8.734   5.882   9.412 -0.3805 -1.2942  0.5205
  441MOL0     H59524   8.928   5.924   9.546 -0.4440  2.3157 -1.4777
  441MOL0     H59525   9.077   5.942   9.687  1.6386  0.8706 -0.5307
  441MOL0     H59526   9.028   6.097   9.761 -0.0554  0.4626  0.7192
  441MOL0     H59527   9.173   5.885   9.920  0.0258  0.5100  1.9946
  441MOL0     H59528   9.120   6.056   9.956 -0.9361  1.0707 -1.1647
  441MOL0     H59529   9.286   6.131   9.775  0.1668 -0.4351 -2.3751
  441MOL0     H59530   9.309   5.965   9.727 -0.0063  0.6257 -0.0452
  441MOL0     H59531   9.404   5.915   9.966  0.4516 -1.5936 -2.4190
  441MOL0     H59532   9.408   6.089   9.986 -0.2414 -0.2283  2.1863
  441MOL0     H59533   9.738   6.074   9.748  1.2022 -1.9616  2.3350
  441MOL0     H59534   8.685   5.966   9.892 -1.8951  0.2101 -0.1665
  441MOL0     H59535   8.474   5.964   9.736 -1.1263 -1.2522 -0.1658
  442MOL0     O59536   2.014   5.834   5.316  0.1945  0.3273 -0.2713
  442MOL0     C59537   1.937   5.922   5.349  0.1216 -0.1941 -0.3731
  442MOL0     O59538   1.966   6.049   5.388 -0.5652  0.3288  0.1035
  442MOL0     C59539   2.095   6.085   5.409  0.1253 -0.1083 -0.1406
  442MOL0     C59540   2.108   6.191   5.498 -0.9953 -0.3560 -1.1539
  442MOL0     C59541   2.233   6.241   5.531 -0.1898  0.0467  0.0117
  442MOL0     C59542   2.344   6.192   5.461 -0.3197 -0.1568  0.1850
  442MOL0     O59543   2.476   6.244   5.474 -0.3758  0.1676 -0.3464
  442MOL0     C59544   2.518   6.274   5.604  0.3419 -0.0152  0.4549
  442MOL0     C59545   2.668   6.254   5.614 -0.7655  0.9462 -0.2292
  442MOL0     C59546   2.725   6.396   5.591 -0.2099  0.8367  0.4219
  442MOL0     C59547   2.875   6.387   5.581 -0.7831  0.4072  0.4749
  442MOL0     C59548   2.941   6.527   5.596  0.4852  0.6099 -0.0279
  442MOL0     C59549   3.091   6.512   5.566 -0.0020  0.9337  0.6322
  442MOL0     C59550   3.165   6.425   5.663  0.5154  0.7174 -0.0518
  442MOL0     C59551   3.193   6.286   5.607 -0.1469  0.7367  0.2086
  442MOL0     N59552   3.218   6.198   5.729 -0.6740  0.1231  1.2531
  442MOL0     C59553   3.341   6.204   5.798 -0.5964  0.3920  0.0048
  442MOL0     C59554   3.323   6.132   5.904 -0.8848  0.3614  0.3511
  442MOL0     C59555   3.428   6.116   6.005  0.3929  0.0710  0.1553
  442MOL0     C59556   3.561   6.066   5.955 -0.3507  0.5592  0.6172
  442MOL0     C59557   3.673   6.069   6.066 -0.8891  0.4616 -0.3314
  442MOL0     C59558   3.648   5.963   6.171 -0.2504 -0.4919 -0.1006
  442MOL0     O59559   3.756   5.936   6.255 -0.0808  0.5971  0.4606
  442MOL0     C59560   3.856   5.847   6.224 -1.5920 -0.0749  0.1373
  442MOL0     C59561   3.852   5.760   6.116  0.5491 -0.2129 -0.2957
  442MOL0     C59562   3.950   5.671   6.077 -0.4621  0.7761  0.1844
  442MOL0     C59563   3.929   5.582   5.954  0.2743 -0.4523 -0.9110
  442MOL0     C59564   4.073   5.671   6.143 -0.2143 -0.0990  0.3609
  442MOL0     C59565   4.189   5.577   6.128  0.5908 -0.4945  0.5320
  442MOL0     O59566   4.310   5.622   6.177 -0.2756  0.2870  0.5543
  442MOL0     C59567   4.413   5.537   6.206  0.1136  0.3393  0.3050
  442MOL0     C59568   4.469   5.537   6.335 -0.3990  0.1633 -0.3941
  442MOL0     C59569   4.585   5.471   6.355  0.2046 -0.4830  0.7401
  442MOL0     C59570   4.646   5.386   6.257  0.8583  0.1644  0.7587
  442MOL0     O59571   4.763   5.319   6.278 -1.0410 -0.2219  0.0178
  442MOL0     C59572   4.872   5.392   6.347 -0.0682 -0.0212 -0.0758
  442MOL0     C59573   4.999   5.302   6.364  1.0252 -0.4361 -0.1370
  442MOL0     C59574   5.051   5.234   6.234  0.5619 -0.4855 -0.6580
  442MOL0     C59575   5.120   5.098   6.267  0.3953  0.0758 -1.0441
  442MOL0     C59576   5.179   5.034   6.142  0.0846  0.4327 -0.6024
  442MOL0     C59577   5.239   4.892   6.180  0.0890  0.7475  0.6883
  442MOL0     C59578   5.295   4.827   6.052 -0.1768  0.0464  0.1899
  442MOL0     C59579   5.357   4.687   6.064  0.2372 -0.2342 -0.3898
  442MOL0    Cl59580   5.465   4.662   5.926 -0.6043 -0.4339  0.1811
  442MOL0     C59581   4.595   5.391   6.127  0.4680 -0.1133  0.5197
  442MOL0     C59582   4.476   5.467   6.104  0.0204  0.0406 -0.1343
  442MOL0     O59583   4.179   5.468   6.078  0.0337 -0.6305  0.6344
  442MOL0     C59584   4.086   5.772   6.240 -1.2139 -0.2135  0.0295
  442MOL0     C59585   3.988   5.859   6.276  0.6121 -0.8579  0.4474
  442MOL0     N59586   3.200   6.069   5.898  1.2559 -0.3567 -0.2801
  442MOL0     N59587   3.133   6.117   5.796  0.0003  0.2762 -0.3782
  442MOL0     C59588   2.328   6.098   5.370 -0.6242  0.3309  0.0174
  442MOL0     C59589   2.204   6.044   5.337  0.2016 -0.1036  0.4655
  442MOL0     C59590   1.797   5.881   5.367  0.8118  0.4284 -0.4783
  442MOL0     C59591   1.757   5.747   5.385 -0.4190 -0.1230  0.1640
  442MOL0     C59592   1.628   5.710   5.421  0.3826  0.7291 -0.0573
  442MOL0     C59593   1.532   5.805   5.420  0.1273 -0.0025 -0.0014
  442MOL0     O59594   1.401   5.782   5.440  0.3702 -0.3721 -0.0458
  442MOL0     C59595   1.372   5.643   5.462 -0.1925 -0.7503  0.4513
  442MOL0     C59596   1.221   5.630   5.497 -0.2348 -0.2274  0.4580
  442MOL0     C59597   1.184   5.478   5.508  0.0430  0.7240  0.1917
  442MOL0     C59598   1.038   5.448   5.488  0.1194 -0.2866  1.0807
  442MOL0     C59599   0.960   5.533   5.573  0.0723  0.1643  0.3480
  442MOL0     C59600   0.904   5.611   5.643  1.2835 -0.4940 -0.1742
  442MOL0     C59601   1.567   5.944   5.401 -0.0122  0.2018 -0.2751
  442MOL0     C59602   1.701   5.980   5.386  0.9343 -0.3555 -0.0027
  442MOL0     H59603   2.019   6.229   5.546  0.4830  1.8869 -0.0079
  442MOL0     H59604   2.235   6.322   5.603  2.3747 -0.4824  0.6130
  442MOL0     H59605   2.490   6.371   5.645  1.9436  0.1733  1.1616
  442MOL0     H59606   2.476   6.194   5.667  0.3067  0.5416  1.1529
  442MOL0     H59607   2.690   6.221   5.715  0.1951  1.3153 -0.3096
  442MOL0     H59608   2.710   6.184   5.542 -2.9814 -1.5284  0.7350
  442MOL0     H59609   2.675   6.438   5.503  2.1140  2.4079 -0.2570
  442MOL0     H59610   2.694   6.464   5.672 -0.8501  1.1746 -0.0964
  442MOL0     H59611   2.915   6.317   5.656 -1.1762  1.3452  1.5894
  442MOL0     H59612   2.904   6.354   5.481 -0.1659  4.3757 -0.8109
  442MOL0     H59613   2.890   6.600   5.532  1.5932  4.0578  2.7113
  442MOL0     H59614   2.921   6.571   5.694  0.3480  3.0422 -1.0885
  442MOL0     H59615   3.114   6.479   5.464 -1.1601 -0.0657  0.6805
  442MOL0     H59616   3.136   6.609   5.591  0.5193  0.5994  1.0293
  442MOL0     H59617   3.261   6.473   5.681  0.9084 -0.5042  1.2458
  442MOL0     H59618   3.112   6.422   5.759  0.9484  0.9639  0.1991
  442MOL0     H59619   3.272   6.279   5.533 -1.2414  0.1789 -0.9443
  442MOL0     H59620   3.110   6.242   5.551  1.8892 -0.7634 -1.8079
  442MOL0     H59621   3.432   6.256   5.770  0.8400 -1.6218  0.6686
  442MOL0     H59622   3.446   6.212   6.055  0.0651  0.2669 -0.0967
  442MOL0     H59623   3.396   6.045   6.082 -0.1033 -0.9577 -0.9696
  442MOL0     H59624   3.604   6.134   5.881  0.2020  0.5365  0.9116
  442MOL0     H59625   3.548   5.966   5.912  0.6908  1.6407 -2.4891
  442MOL0     H59626   3.670   6.166   6.118 -0.9588 -1.1537  2.9693
  442MOL0     H59627   3.775   6.056   6.029 -1.0115 -1.5203 -0.0580
  442MOL0     H59628   3.620   5.882   6.102  0.7730 -1.9489  1.1248
  442MOL0     H59629   3.558   5.983   6.229  0.8012  2.1407  0.7456
  442MOL0     H59630   3.763   5.744   6.055 -0.9499  3.6729  0.5574
  442MOL0     H59631   3.851   5.614   5.884  0.2726 -0.9597 -1.1477
  442MOL0     H59632   4.023   5.585   5.896  1.5721 -1.3473  1.0501
  442MOL0     H59633   3.911   5.478   5.980  1.9273  0.0184  2.7673
  442MOL0     H59634   4.429   5.595   6.417 -0.8931 -0.8638  0.1095
  442MOL0     H59635   4.634   5.483   6.452  4.4879 -0.7412 -1.1466
  442MOL0     H59636   4.888   5.490   6.302 -1.0005  0.1414 -0.0772
  442MOL0     H59637   4.834   5.410   6.449  0.6577 -2.3069  0.6596
  442MOL0     H59638   5.084   5.360   6.403 -0.1632  1.3214 -0.0114
  442MOL0     H59639   4.971   5.228   6.439  2.5681 -0.2886  0.6286
  442MOL0     H59640   5.118   5.300   6.177 -2.5506  0.4061 -3.5755
  442MOL0     H59641   4.970   5.217   6.163 -1.3955 -1.0322  1.5812
  442MOL0     H59642   5.192   5.122   6.345 -1.5744 -1.4907  1.4126
  442MOL0     H59643   5.046   5.029   6.309  0.5634 -0.6578 -1.9114
  442MOL0     H59644   5.249   5.104   6.096 -0.1421  0.8915 -0.2601
  442MOL0     H59645   5.099   5.020   6.069  0.7719 -2.9186 -0.8913
  442MOL0     H59646   5.322   4.901   6.250  1.8642 -1.0852 -1.0424
  442MOL0     H59647   5.157   4.827   6.212  0.3112  0.6976  1.1453
  442MOL0     H59648   5.376   4.895   6.024 -0.4033  0.7524  1.2108
  442MOL0     H59649   5.224   4.831   5.969  0.1723  1.4860 -0.0584
  442MOL0     H59650   5.290   4.601   6.067  2.0061 -1.6668  0.3412
  442MOL0     H59651   5.416   4.690   6.156  0.6283 -0.3142 -0.6359
  442MOL0     H59652   4.643   5.332   6.050  0.5300  1.0215 -0.3447
  442MOL0     H59653   4.430   5.477   6.006  0.7735 -2.6897 -0.8448
  442MOL0     H59654   4.178   5.777   6.298 -0.7560 -0.3392 -0.6764
  442MOL0     H59655   4.001   5.933   6.354 -3.7079  2.2569 -1.3576
  442MOL0     H59656   2.424   6.083   5.321 -0.8923  1.2146 -0.8244
  442MOL0     H59657   2.187   5.975   5.256  0.1613 -0.7097  0.9831
  442MOL0     H59658   1.832   5.668   5.377 -1.3772 -0.8949 -2.2166
  442MOL0     H59659   1.610   5.607   5.450 -1.8812  0.9227 -0.6000
  442MOL0     H59660   1.392   5.572   5.382  0.2171  0.2198 -0.3146
  442MOL0     H59661   1.425   5.616   5.554  1.0690  0.0980 -0.0070
  442MOL0     H59662   1.155   5.683   5.427  0.8470 -0.2354 -0.5992
  442MOL0     H59663   1.201   5.688   5.588 -2.0183  0.9412 -0.6261
  442MOL0     H59664   1.206   5.453   5.612  0.2856  1.5941  0.3616
  442MOL0     H59665   1.245   5.416   5.442  0.3427  2.8769 -1.6975
  442MOL0     H59666   1.008   5.347   5.519 -2.8473 -0.4271 -1.7505
  442MOL0     H59667   1.010   5.461   5.384 -1.3843 -2.7297  1.0893
  442MOL0     H59668   0.861   5.674   5.719  2.3872  1.3224 -1.0042
  442MOL0     H59669   1.493   6.023   5.398  2.4194  2.5936 -1.1100
  442MOL0     H59670   1.722   6.087   5.385 -1.4369  0.1609 -0.4504
  443MOL0     O59671   3.275  10.191   1.780  0.5320 -0.1553 -0.2886
  443MOL0     C59672   3.369  10.238   1.718 -0.9815  0.7232 -0.1643
  443MOL0     O59673   3.368  10.282   1.583  0.0174  0.4738 -0.3034
  443MOL0     C59674   3.242  10.290   1.525 -0.2200 -0.3660  1.0819
  443MOL0     C59675   3.199  10.410   1.477 -0.6202 -0.4020 -0.8437
  443MOL0     C59676   3.065  10.422   1.428 -0.1918 -0.1315  0.4890
  443MOL0     C59677   2.979  10.320   1.434  0.5088  0.3031  0.6638
  443MOL0     O59678   2.844  10.346   1.392  0.5424 -0.3217 -1.0439
  443MOL0     C59679   2.735  10.247   1.387  0.0613 -0.4155 -0.4004
  443MOL0     C59680   2.688  10.225   1.242 -1.5235 -0.4630 -0.2895
  443MOL0     C59681   2.580  10.330   1.221 -0.8470  0.1377 -0.0413
  443MOL0     C59682   2.514  10.285   1.082  0.5191  0.1631  0.1977
  443MOL0     C59683   2.393  10.365   1.041  1.2189  0.3468  0.2550
  443MOL0     C59684   2.280  10.290   0.965  0.0688 -0.3719  0.4335
  443MOL0     C59685   2.165  10.378   0.919  0.4479 -0.6595 -0.2893
  443MOL0     C59686   2.060  10.302   0.836  0.2217  0.3612  0.5532
  443MOL0     N59687   2.016  10.194   0.917 -1.2652  0.4423  0.6867
  443MOL0     C59688   1.933  10.202   1.029  0.8586 -0.1991  0.6643
  443MOL0     C59689   1.912  10.075   1.074  0.0749 -0.5990  0.5340
  443MOL0     C59690   1.848  10.049   1.205 -0.3273 -0.0427 -0.0339
  443MOL0     C59691   1.718   9.988   1.181  0.1834  0.2666  0.2838
  443MOL0     C59692   1.659   9.948   1.318  0.4154 -0.1939  0.3410
  443MOL0     C59693   1.642  10.066   1.418 -0.1236  0.0081  0.1656
  443MOL0     O59694   1.542  10.157   1.379  0.1388 -0.4226  0.1398
  443MOL0     C59695   1.409  10.124   1.399 -0.2282 -0.1575 -0.8237
  443MOL0     C59696   1.324  10.117   1.283 -0.5149 -0.0886  0.5198
  443MOL0     C59697   1.192  10.090   1.294 -0.1765  0.8273 -0.2755
  443MOL0     C59698   1.113  10.083   1.166 -0.1422  0.0781 -0.2059
  443MOL0     C59699   1.138  10.056   1.422  0.2556 -0.1667  0.3644
  443MOL0     C59700   0.996  10.009   1.441  0.2077 -0.0431  0.9876
  443MOL0     O59701   0.970   9.941   1.550 -0.1109  0.2937  0.7409
  443MOL0     C59702   0.853   9.876   1.561  0.3945 -0.2174 -0.3147
  443MOL0     C59703   0.775   9.902   1.675 -0.5347  0.6665 -0.1661
  443MOL0     C59704   0.658   9.822   1.694 -0.4951  0.7169 -0.0623
  443MOL0     C59705   0.614   9.729   1.589  0.2548  0.3984 -0.1292
  443MOL0     O59706   0.489   9.678   1.598  0.3214 -0.2772 -0.1792
  443MOL0     C59707   0.473   9.540   1.563 -0.6604 -0.8071  0.8000
  443MOL0     C59708   0.380   9.470   1.664 -0.7621  0.2471  0.0104
  443MOL0     C59709   0.228   9.495   1.641 -0.5582  0.3366 -0.2028
  443MOL0     C59710   0.145   9.412   1.739  0.6460 -0.2832 -0.1773
  443MOL0     C59711  -0.006   9.442   1.734 -0.0939  0.8766 -0.2833
  443MOL0     C59712  -0.077   9.394   1.859  0.7422 -0.4768 -0.2954
  443MOL0     C59713  -0.231   9.402   1.828 -1.0130  0.0739  0.0584
  443MOL0     C59714  -0.312   9.356   1.951  0.2297  0.2377 -0.2210
  443MOL0    Cl59715  -0.474   9.313   1.905 -0.0011 -0.2970 -0.1443
  443MOL0     C59716   0.687   9.714   1.471 -0.1022 -0.0561  0.2425
  443MOL0     C59717   0.810   9.788   1.457 -0.0405 -0.9328 -0.0655
  443MOL0     O59718   0.912  10.044   1.353  0.3591  0.1677 -0.4245
  443MOL0     C59719   1.217  10.074   1.534 -0.0775  0.1134  0.5832
  443MOL0     C59720   1.357  10.097   1.525  0.5387 -0.7880  0.5179
  443MOL0     N59721   1.982   9.993   0.987  0.7233  0.4395  0.5618
  443MOL0     N59722   2.032  10.059   0.891  0.4613 -0.2470 -0.7985
  443MOL0     C59723   3.031  10.193   1.467 -0.0416  0.9075  0.1191
  443MOL0     C59724   3.160  10.177   1.511  0.1584 -0.7874 -0.3264
  443MOL0     C59725   3.498  10.226   1.786 -0.5958  0.1144  0.4571
  443MOL0     C59726   3.532  10.124   1.878 -0.3965 -0.0955  0.2620
  443MOL0     C59727   3.662  10.114   1.926  0.3170 -0.6601  0.3911
  443MOL0     C59728   3.759  10.208   1.893 -0.7919 -0.0894  0.0390
  443MOL0     O59729   3.888  10.217   1.947 -0.2281  0.1307 -0.2790
  443MOL0     C59730   3.938  10.117   2.042 -0.2417 -0.1113 -0.2030
  443MOL0     C59731   3.988   9.988   1.982  0.7498  0.4734  0.7847
  443MOL0     C59732   4.098   9.995   1.880 -0.2830  0.0316  0.7892
  443MOL0     C59733   4.237   9.954   1.919 -0.2891  0.3943 -0.3607
  443MOL0     C59734   4.303  10.048   2.001  0.2814  0.3302 -0.2002
  443MOL0     C59735   4.355  10.125   2.079 -0.1648 -0.2254  0.0345
  443MOL0     C59736   3.734  10.299   1.794  0.1467 -0.3248  0.1515
  443MOL0     C59737   3.604  10.308   1.741  0.4122 -0.5019 -0.1795
  443MOL0     H59738   3.280  10.482   1.471  1.3245 -2.5428 -1.7986
  443MOL0     H59739   3.021  10.516   1.394 -0.8364  0.1978  2.1295
  443MOL0     H59740   2.770  10.152   1.428  2.0058 -0.4138 -1.8740
  443MOL0     H59741   2.650  10.281   1.446 -0.7010 -1.3898 -0.9240
  443MOL0     H59742   2.774  10.245   1.176 -0.9690  0.1717  0.6048
  443MOL0     H59743   2.663  10.121   1.217 -4.3829 -0.0159  0.4172
  443MOL0     H59744   2.508  10.345   1.302 -1.4783  1.6300 -0.8272
  443MOL0     H59745   2.627  10.428   1.204  3.1781 -1.3914  1.1112
  443MOL0     H59746   2.586  10.286   1.000  0.1917  0.3420 -0.0872
  443MOL0     H59747   2.480  10.182   1.093  2.3033 -0.9644 -3.3843
  443MOL0     H59748   2.335  10.396   1.128 -1.6843 -3.9081  0.1426
  443MOL0     H59749   2.418  10.461   0.993  0.4200 -0.6170 -2.2414
  443MOL0     H59750   2.330  10.239   0.881  1.9181  0.3708  1.0331
  443MOL0     H59751   2.241  10.211   1.030  2.3038 -1.6410  0.3528
  443MOL0     H59752   2.119  10.435   1.001  0.6225  0.9637 -1.2605
  443MOL0     H59753   2.190  10.458   0.849 -2.1897 -0.5939 -1.2778
  443MOL0     H59754   2.099  10.253   0.746 -0.3368  0.6793  0.1259
  443MOL0     H59755   1.978  10.368   0.804  0.1233 -0.8801 -2.0154
  443MOL0     H59756   1.899  10.291   1.082  0.2246 -0.2904  0.4247
  443MOL0     H59757   1.916   9.978   1.252 -0.5772 -1.0588 -1.1458
  443MOL0     H59758   1.839  10.142   1.263  3.3513  0.2580  0.3070
  443MOL0     H59759   1.731   9.889   1.135  1.0709  0.9744 -1.0505
  443MOL0     H59760   1.665  10.054   1.112  0.6685  0.5957  0.2217
  443MOL0     H59761   1.738   9.888   1.363 -0.6202 -0.5927  1.7267
  443MOL0     H59762   1.569   9.886   1.311  1.4633 -1.8543  1.0270
  443MOL0     H59763   1.733  10.125   1.436 -0.0849  0.2446 -0.7569
  443MOL0     H59764   1.608  10.025   1.513 -3.4779  0.9117 -0.5254
  443MOL0     H59765   1.378  10.126   1.190  1.5549 -0.3578  1.6355
  443MOL0     H59766   1.043  10.166   1.159  2.5444  2.4878 -0.1819
  443MOL0     H59767   1.178  10.083   1.078 -1.2461  1.4267 -1.0658
  443MOL0     H59768   1.057   9.989   1.158  0.7715 -0.7483  2.2133
  443MOL0     H59769   0.809   9.977   1.747 -3.8642  0.1055  2.2050
  443MOL0     H59770   0.594   9.828   1.782 -1.3923 -0.0420 -0.6492
  443MOL0     H59771   0.418   9.538   1.468  0.1995  2.4074  0.1026
  443MOL0     H59772   0.565   9.486   1.538  1.5609  3.8967 -2.7304
  443MOL0     H59773   0.396   9.362   1.659  0.0067  0.3466  0.1601
  443MOL0     H59774   0.406   9.505   1.765 -2.4810  0.9970  0.2142
  443MOL0     H59775   0.209   9.462   1.538  1.8171  0.0557 -0.5932
  443MOL0     H59776   0.201   9.600   1.650 -0.6644  0.2669  0.3553
  443MOL0     H59777   0.162   9.306   1.717  2.1675  0.4562 -3.1269
  443MOL0     H59778   0.184   9.426   1.840  0.0567  2.2116 -0.2342
  443MOL0     H59779  -0.049   9.414   1.637 -0.4504  1.6224 -0.3455
  443MOL0     H59780  -0.010   9.551   1.740  2.5974  1.2062 -2.3303
  443MOL0     H59781  -0.058   9.289   1.884 -0.4778 -0.6440 -0.0376
  443MOL0     H59782  -0.063   9.456   1.948 -2.8226  1.3148 -0.7917
  443MOL0     H59783  -0.253   9.334   1.746 -0.0958  1.6863 -1.5947
  443MOL0     H59784  -0.262   9.498   1.786 -3.0130 -1.3658 -1.8906
  443MOL0     H59785  -0.314   9.441   2.019  2.2563 -0.7659  1.1922
  443MOL0     H59786  -0.278   9.268   2.006 -2.3819  0.4877  2.0332
  443MOL0     H59787   0.638   9.655   1.394 -2.1650  3.1877 -1.1348
  443MOL0     H59788   0.872   9.788   1.368  1.0693  0.4064  0.6716
  443MOL0     H59789   1.171  10.057   1.631 -1.5311 -1.2586 -0.2921
  443MOL0     H59790   1.411  10.099   1.619 -0.5664 -1.4246  1.1939
  443MOL0     H59791   2.966  10.107   1.457  1.5630 -0.2937 -0.5084
  443MOL0     H59792   3.198  10.078   1.535  1.1456 -0.6505 -1.2573
  443MOL0     H59793   3.453  10.057   1.910 -1.1700  0.5200 -0.2880
  443MOL0     H59794   3.695  10.031   1.988  2.0358 -1.3616 -1.3555
  443MOL0     H59795   4.028  10.162   2.084 -0.6131 -0.3195  0.8516
  443MOL0     H59796   3.857  10.096   2.113  1.2057 -0.0876  1.5244
  443MOL0     H59797   3.902   9.946   1.930  1.5107  0.9839 -0.9678
  443MOL0     H59798   4.023   9.914   2.056  2.5248 -0.4503 -0.8631
  443MOL0     H59799   4.116  10.096   1.843  1.3725 -0.7062 -0.5265
  443MOL0     H59800   4.074   9.937   1.791 -4.2124  1.2520  0.8604
  443MOL0     H59801   4.299   9.932   1.832  1.0083 -1.1691  0.9069
  443MOL0     H59802   4.231   9.849   1.950 -1.6179  0.3969 -0.5360
  443MOL0     H59803   4.406  10.200   2.136  0.7279  1.7552 -3.1443
  443MOL0     H59804   3.812  10.366   1.759  0.9979 -1.8303 -0.9449
  443MOL0     H59805   3.571  10.372   1.660 -0.4179 -1.0867 -0.3200
  444MOL0     O59806   1.558   4.330   0.685  0.4544 -0.0397  0.5465
  444MOL0     C59807   1.599   4.220   0.711  0.4567  0.9371  0.2848
  444MOL0     O59808   1.521   4.108   0.706 -0.5848  0.1285 -1.0352
  444MOL0     C59809   1.387   4.119   0.675 -0.1788  0.0890  0.9331
  444MOL0     C59810   1.345   4.109   0.538  0.0824  0.2842 -0.2345
  444MOL0     C59811   1.215   4.086   0.498  0.7945  0.1917  0.6517
  444MOL0     C59812   1.109   4.096   0.598  0.2891 -0.7422 -0.1174
  444MOL0     O59813   0.974   4.090   0.562 -0.7767 -0.2265  0.2455
  444MOL0     C59814   0.945   4.083   0.426 -0.0145  0.8546  0.6600
  444MOL0     C59815   0.792   4.064   0.399 -0.5698  0.2042 -0.1433
  444MOL0     C59816   0.741   3.928   0.444 -0.2196 -0.6528 -0.0160
  444MOL0     C59817   0.594   3.919   0.408 -0.2224 -0.2366 -0.2977
  444MOL0     C59818   0.543   3.776   0.433 -0.2749 -0.0280  0.0681
  444MOL0     C59819   0.390   3.776   0.403  0.3503 -0.2887 -0.3960
  444MOL0     C59820   0.336   3.632   0.390  0.2131  0.2162 -0.2079
  444MOL0     C59821   0.338   3.572   0.526 -0.4482  0.4396  0.6268
  444MOL0     N59822   0.205   3.559   0.585 -0.4155 -0.2155 -0.5024
  444MOL0     C59823   0.121   3.666   0.594 -0.0879 -0.3624 -0.5578
  444MOL0     C59824   0.012   3.614   0.654 -0.4368  0.4139 -1.2040
  444MOL0     C59825  -0.111   3.692   0.684  0.3622  0.6320  0.4476
  444MOL0     C59826  -0.077   3.812   0.774  0.1324  0.6518 -0.5554
  444MOL0     C59827  -0.202   3.856   0.859 -0.3131  0.4023 -0.1057
  444MOL0     C59828  -0.169   3.966   0.970 -0.6169 -0.8098  0.1705
  444MOL0     O59829  -0.271   3.979   1.068 -0.5643  0.1999  0.6465
  444MOL0     C59830  -0.372   4.066   1.058 -0.4603  0.0180  0.2474
  444MOL0     C59831  -0.395   4.154   0.950  0.1430 -0.4098 -0.5698
  444MOL0     C59832  -0.490   4.257   0.962  0.7874 -0.1339  0.1880
  444MOL0     C59833  -0.474   4.366   0.858 -0.4983 -0.8913  0.3359
  444MOL0     C59834  -0.589   4.255   1.063 -0.2117  0.8326  0.6256
  444MOL0     C59835  -0.710   4.338   1.078 -0.3938 -0.1506  0.0026
  444MOL0     O59836  -0.779   4.338   1.197  0.9532 -0.0786 -0.1586
  444MOL0     C59837  -0.913   4.369   1.206 -0.3169  0.2940  0.4727
  444MOL0     C59838  -1.006   4.348   1.103  0.2964  0.5077 -0.3075
  444MOL0     C59839  -1.144   4.375   1.126  0.8022 -0.0087 -0.0937
  444MOL0     C59840  -1.187   4.418   1.259  0.8085 -0.7344  0.6092
  444MOL0     O59841  -1.314   4.466   1.279  0.3211 -0.2554 -0.4662
  444MOL0     C59842  -1.398   4.395   1.363 -0.8279 -0.4242 -0.4959
  444MOL0     C59843  -1.534   4.456   1.346  0.5140 -0.1067 -0.0197
  444MOL0     C59844  -1.624   4.393   1.456 -0.4909 -0.7991 -0.1419
  444MOL0     C59845  -1.772   4.430   1.434  1.0681  0.0991  0.4999
  444MOL0     C59846  -1.850   4.387   1.558 -0.2268 -0.5366 -0.7144
  444MOL0     C59847  -1.998   4.417   1.543 -0.4026  0.0504 -0.2364
  444MOL0     C59848  -2.094   4.347   1.639 -0.2446 -0.2605 -0.2618
  444MOL0     C59849  -2.070   4.389   1.786  0.5421  0.2472 -0.3815
  444MOL0    Cl59850  -2.201   4.316   1.893 -0.1086 -0.1390 -0.1917
  444MOL0     C59851  -1.095   4.429   1.354 -1.1413  0.7661 -0.7761
  444MOL0     C59852  -0.957   4.407   1.328 -0.3702  0.6207  0.0839
  444MOL0     O59853  -0.744   4.396   0.978  0.3966 -0.0247  0.2764
  444MOL0     C59854  -0.563   4.165   1.171  0.1314 -0.0120 -0.6929
  444MOL0     C59855  -0.452   4.080   1.172  0.1470  0.0177 -0.0967
  444MOL0     N59856   0.046   3.485   0.689  0.1404 -0.6111  0.2039
  444MOL0     N59857   0.158   3.457   0.650 -0.6079  0.7344 -0.7630
  444MOL0     C59858   1.143   4.099   0.729  0.1762 -0.2268 -0.0632
  444MOL0     C59859   1.280   4.110   0.768 -0.1677 -0.2459  0.3669
  444MOL0     C59860   1.732   4.212   0.761  0.1902 -0.6219  0.9094
  444MOL0     C59861   1.814   4.327   0.771  0.5246 -0.1922  0.2243
  444MOL0     C59862   1.948   4.320   0.818 -0.6196  1.0776  0.5667
  444MOL0     C59863   2.002   4.197   0.845 -1.0708 -0.3280 -0.5488
  444MOL0     O59864   2.130   4.195   0.886  0.5294  0.4551  0.0743
  444MOL0     C59865   2.200   4.067   0.903  0.0972 -0.1332  0.7821
  444MOL0     C59866   2.358   4.085   0.918  0.2212  0.4997  1.3953
  444MOL0     C59867   2.401   4.151   1.050  0.0094  0.2087 -0.3167
  444MOL0     C59868   2.554   4.154   1.058 -0.0719  0.2954 -0.2704
  444MOL0     C59869   2.611   4.250   0.964 -0.6862  0.0156 -0.2926
  444MOL0     C59870   2.654   4.341   0.898  0.1271  0.2698  0.7407
  444MOL0     C59871   1.921   4.080   0.825 -0.0947 -0.4000  0.2274
  444MOL0     C59872   1.790   4.084   0.783  0.6206  0.0678 -0.4250
  444MOL0     H59873   1.412   4.096   0.453  0.2210  0.8472 -0.2173
  444MOL0     H59874   1.201   4.076   0.391  0.3442 -0.5890  0.7814
  444MOL0     H59875   0.971   4.175   0.372 -1.9490  0.3761 -1.2168
  444MOL0     H59876   0.981   4.000   0.365 -0.9974  2.6057 -2.5217
  444MOL0     H59877   0.739   4.148   0.446 -2.3423  0.1454 -1.9127
  444MOL0     H59878   0.767   4.072   0.293 -2.2763  0.0223  0.2165
  444MOL0     H59879   0.799   3.858   0.384  1.7400  1.0716 -0.2273
  444MOL0     H59880   0.752   3.920   0.552 -1.3923  0.7937  0.2441
  444MOL0     H59881   0.540   3.986   0.476  1.4143 -1.0543  1.9456
  444MOL0     H59882   0.569   3.938   0.304 -2.6244  1.9722  0.5802
  444MOL0     H59883   0.597   3.703   0.373  1.1265  0.4381  0.7354
  444MOL0     H59884   0.551   3.752   0.539  1.4484 -1.2656 -0.2966
  444MOL0     H59885   0.340   3.834   0.481  1.3029  0.0189 -0.0020
  444MOL0     H59886   0.370   3.827   0.309  0.7584 -1.0473 -0.8994
  444MOL0     H59887   0.234   3.632   0.351 -0.2140 -2.9597  0.6652
  444MOL0     H59888   0.398   3.572   0.323  1.9688  0.0913  1.4492
  444MOL0     H59889   0.409   3.606   0.603 -1.0240  1.0250  0.9125
  444MOL0     H59890   0.360   3.466   0.509 -0.0463  0.7649 -0.9508
  444MOL0     H59891   0.138   3.766   0.555  0.2591 -0.5871 -1.0026
  444MOL0     H59892  -0.159   3.723   0.591 -2.0752  1.6675  1.9264
  444MOL0     H59893  -0.179   3.632   0.745  1.1234  0.2315  0.9221
  444MOL0     H59894  -0.015   3.888   0.725 -0.7743  0.6662 -1.7323
  444MOL0     H59895  -0.000   3.781   0.846  0.0109 -1.1393 -1.1535
  444MOL0     H59896  -0.247   3.771   0.909  1.2431  0.2940  1.1844
  444MOL0     H59897  -0.288   3.887   0.799 -1.0915  0.1444  0.8512
  444MOL0     H59898  -0.134   4.061   0.928 -0.3660 -2.2037 -3.1095
  444MOL0     H59899  -0.090   3.924   1.032  1.0864  3.5985  1.3429
  444MOL0     H59900  -0.334   4.157   0.860  1.2547  0.5626  0.1976
  444MOL0     H59901  -0.489   4.462   0.907 -2.4772 -0.9230 -0.1238
  444MOL0     H59902  -0.385   4.363   0.795 -2.0847  0.6467 -2.1324
  444MOL0     H59903  -0.550   4.363   0.779 -0.3247  2.0365 -0.0525
  444MOL0     H59904  -0.975   4.312   1.005 -1.4408 -0.8805 -0.3898
  444MOL0     H59905  -1.227   4.348   1.061  0.5158 -4.2866  1.7347
  444MOL0     H59906  -1.391   4.287   1.343  0.3293  0.0027 -2.6703
  444MOL0     H59907  -1.364   4.405   1.466 -1.4068  0.7687 -0.4054
  444MOL0     H59908  -1.522   4.564   1.350  2.7917 -0.2613 -1.3419
  444MOL0     H59909  -1.569   4.424   1.248 -0.0410 -2.3845  0.8590
  444MOL0     H59910  -1.586   4.433   1.550  0.5504  0.3021 -0.9973
  444MOL0     H59911  -1.607   4.285   1.464  0.1263 -0.5853  1.9810
  444MOL0     H59912  -1.785   4.537   1.421  0.9477  0.4418  2.9707
  444MOL0     H59913  -1.812   4.383   1.344 -2.2001  0.5437  1.5944
  444MOL0     H59914  -1.818   4.444   1.646  0.8293 -1.6580 -0.3516
  444MOL0     H59915  -1.835   4.283   1.588  3.3914  0.0677  0.0021
  444MOL0     H59916  -2.021   4.524   1.544  2.5948  0.8462 -1.9890
  444MOL0     H59917  -2.022   4.390   1.440  0.8515 -1.0458 -0.2735
  444MOL0     H59918  -2.084   4.239   1.628 -1.6195 -0.4376  0.0781
  444MOL0     H59919  -2.197   4.371   1.612 -0.3934 -0.1839  0.3436
  444MOL0     H59920  -2.065   4.498   1.799  1.6148  0.0215  1.5213
  444MOL0     H59921  -1.973   4.349   1.818 -0.4417 -1.3646  0.7430
  444MOL0     H59922  -1.131   4.462   1.451 -0.7091 -1.5261  0.2355
  444MOL0     H59923  -0.881   4.425   1.403 -1.5651 -0.7949  1.7010
  444MOL0     H59924  -0.621   4.160   1.263 -0.6276 -0.6187 -1.1881
  444MOL0     H59925  -0.440   4.012   1.256 -0.3044 -0.1119 -0.1358
  444MOL0     H59926   1.063   4.114   0.801  0.1356  2.9350 -0.6179
  444MOL0     H59927   1.298   4.112   0.875  0.0219 -0.0015  0.3319
  444MOL0     H59928   1.772   4.424   0.745 -3.1693 -1.6858  0.0382
  444MOL0     H59929   2.012   4.408   0.824  0.4684  0.3286  0.2952
  444MOL0     H59930   2.150   4.032   0.993  1.2307 -0.3655  1.3366
  444MOL0     H59931   2.176   4.003   0.818 -0.4819 -1.2742  1.7785
  444MOL0     H59932   2.389   4.149   0.835  2.9205 -2.3434 -0.0126
  444MOL0     H59933   2.407   3.988   0.906  1.2075  1.0135  1.1682
  444MOL0     H59934   2.360   4.094   1.134 -0.1654  1.5282  0.5349
  444MOL0     H59935   2.371   4.257   1.053  1.4469  0.6282 -0.1486
  444MOL0     H59936   2.603   4.058   1.041  1.3025  0.8036  0.5681
  444MOL0     H59937   2.574   4.191   1.159 -1.5227  0.3486  0.0236
  444MOL0     H59938   2.688   4.423   0.837  0.7373  0.7563  1.7005
  444MOL0     H59939   1.959   3.979   0.840 -1.5570 -1.0730 -0.3401
  444MOL0     H59940   1.743   3.986   0.781 -0.8449  0.6543  1.3347
  445MOL0     O59941   6.666   3.909   7.732 -0.1321  0.6280 -0.7119
  445MOL0     C59942   6.706   3.927   7.855 -0.3897  0.0067  0.0175
  445MOL0     O59943   6.629   3.917   7.964 -0.1863 -0.0682  0.4525
  445MOL0     C59944   6.496   3.881   7.963 -0.3792 -0.7506  0.7454
  445MOL0     C59945   6.433   3.933   8.074 -0.6129  0.0154  0.6216
  445MOL0     C59946   6.306   3.883   8.107  0.4899  0.0150 -0.1326
  445MOL0     C59947   6.237   3.793   8.023 -0.1971  0.1278  0.8996
  445MOL0     O59948   6.112   3.743   8.030 -0.7019 -0.2144 -0.7882
  445MOL0     C59949   6.106   3.641   8.134  0.3969 -0.3139  0.0673
  445MOL0     C59950   5.959   3.596   8.120 -0.1295  0.7213  0.8688
  445MOL0     C59951   5.915   3.500   8.226 -1.1172  0.7445  0.0758
  445MOL0     C59952   5.970   3.357   8.203 -0.4121 -0.5051  0.8276
  445MOL0     C59953   5.862   3.257   8.266  0.4747 -0.6964 -0.0064
  445MOL0     C59954   5.904   3.109   8.255 -0.4522  0.2414  0.0277
  445MOL0     C59955   5.794   3.013   8.321  0.2149 -0.1890  0.0748
  445MOL0     C59956   5.833   2.867   8.292 -0.9562  0.3263 -0.1822
  445MOL0     N59957   5.737   2.780   8.376 -0.3415  0.4075  0.5361
  445MOL0     C59958   5.615   2.737   8.337 -0.0726 -0.2154  0.1689
  445MOL0     C59959   5.555   2.699   8.449  1.0709 -0.3108 -0.3024
  445MOL0     C59960   5.421   2.624   8.465 -0.5512 -1.1150  0.1925
  445MOL0     C59961   5.329   2.696   8.560  0.0277  0.0771  0.5312
  445MOL0     C59962   5.184   2.643   8.552 -0.0285 -0.4371 -0.0850
  445MOL0     C59963   5.086   2.746   8.594 -0.5912 -0.6867  0.1810
  445MOL0     O59964   5.076   2.737   8.738 -0.1102 -0.3063 -0.5486
  445MOL0     C59965   4.944   2.761   8.778 -0.0317 -0.2464 -0.3682
  445MOL0     C59966   4.899   2.889   8.807 -0.0118  0.6321 -1.1363
  445MOL0     C59967   4.772   2.922   8.851 -0.0032 -0.6029  1.2799
  445MOL0     C59968   4.753   3.072   8.887 -0.6044 -0.5605  0.0563
  445MOL0     C59969   4.679   2.821   8.872  1.0126 -0.3060  0.3861
  445MOL0     C59970   4.543   2.848   8.931 -0.4142 -0.0706  0.0195
  445MOL0     O59971   4.502   2.747   9.018 -0.0416  0.1654  0.0614
  445MOL0     C59972   4.383   2.755   9.077  0.2411  0.4712  0.0269
  445MOL0     C59973   4.360   2.693   9.198 -0.2629  0.5460  0.1854
  445MOL0     C59974   4.246   2.706   9.272  0.3609 -0.1429  0.1148
  445MOL0     C59975   4.135   2.766   9.211 -0.4890 -0.5276 -0.4226
  445MOL0     O59976   4.013   2.783   9.265  0.1714 -0.1521  0.1768
  445MOL0     C59977   3.999   2.767   9.399 -0.3773  0.5918 -0.5351
  445MOL0     C59978   3.865   2.824   9.434 -0.3660 -0.2545  0.5719
  445MOL0     C59979   3.742   2.760   9.360  0.3981  0.5528 -1.0435
  445MOL0     C59980   3.606   2.818   9.397 -0.1668  0.0514 -0.1845
  445MOL0     C59981   3.492   2.722   9.345 -0.0481 -0.5475 -0.1450
  445MOL0     C59982   3.356   2.798   9.345 -0.1703  0.2509  0.4754
  445MOL0     C59983   3.304   2.825   9.483  1.1141 -0.1900  0.3761
  445MOL0     C59984   3.311   2.976   9.512  0.3714  0.1461  0.5089
  445MOL0    Cl59985   3.188   3.080   9.434 -0.0986  0.3403 -0.0000
  445MOL0     C59986   4.151   2.812   9.083 -0.4827  0.0638  0.2378
  445MOL0     C59987   4.268   2.807   9.013 -0.7272  0.1250  0.1375
  445MOL0     O59988   4.484   2.951   8.893 -0.0824  0.4237  0.4275
  445MOL0     C59989   4.716   2.692   8.840  0.2428 -0.5075  0.4845
  445MOL0     C59990   4.843   2.664   8.787 -0.8616  0.0286  0.1019
  445MOL0     N59991   5.619   2.720   8.554 -0.3653  0.6229 -0.0629
  445MOL0     N59992   5.732   2.767   8.504 -0.1675 -0.2876 -0.8193
  445MOL0     C59993   6.297   3.764   7.901 -0.6543 -0.0808 -0.8248
  445MOL0     C59994   6.424   3.805   7.864 -0.2945  0.7694 -0.3015
  445MOL0     C59995   6.851   3.977   7.865  0.9101  0.0122  0.2095
  445MOL0     C59996   6.941   3.967   7.760  0.2111  0.2315  0.1945
  445MOL0     C59997   7.069   4.023   7.782  0.2885  0.0984 -0.3846
  445MOL0     C59998   7.109   4.072   7.913 -0.6351 -0.8512 -0.5890
  445MOL0     O59999   7.236   4.099   7.945  0.4247 -0.0426 -0.4265
  445MOL0     C60000   7.340   4.089   7.848 -0.1147  0.0949  0.4172
  445MOL0     C60001   7.468   4.155   7.907 -0.0875  0.2761  0.3131
  445MOL0     C60002   7.506   4.101   8.046 -0.4157 -0.4122  0.5563
  445MOL0     C60003   7.624   4.177   8.111  0.0990  0.1010 -0.0794
  445MOL0     C60004   7.757   4.139   8.049  0.4973 -0.9129 -0.1023
  445MOL0     C60005   7.867   4.103   8.006 -0.2411 -0.1631 -0.3574
  445MOL0     C60006   7.010   4.084   8.010  0.7166 -0.3161 -0.0433
  445MOL0     C60007   6.887   4.042   7.985 -0.1649  0.4560 -0.5450
  445MOL0     H60008   6.483   4.006   8.138 -0.0681 -0.9009  1.2636
  445MOL0     H60009   6.254   3.931   8.189 -0.9055  0.5647 -1.2991
  445MOL0     H60010   6.184   3.565   8.127  1.0891 -0.0671  3.4606
  445MOL0     H60011   6.107   3.701   8.225 -1.2099  3.0492 -1.9272
  445MOL0     H60012   5.893   3.683   8.118 -2.6353 -1.1064 -1.1100
  445MOL0     H60013   5.945   3.549   8.022  2.0514  1.1691  0.2742
  445MOL0     H60014   5.923   3.531   8.331 -0.9637 -1.1224  0.6545
  445MOL0     H60015   5.807   3.498   8.209 -0.8415  3.2645 -2.9113
  445MOL0     H60016   5.969   3.339   8.096 -2.0892  1.9871  0.3573
  445MOL0     H60017   6.067   3.335   8.250 -0.3266  2.3740  2.1879
  445MOL0     H60018   5.857   3.267   8.375  3.6215 -4.1122  0.6236
  445MOL0     H60019   5.762   3.271   8.223  1.9108  0.7606 -3.1763
  445MOL0     H60020   5.917   3.094   8.148 -0.4621 -2.1911  0.3227
  445MOL0     H60021   6.005   3.087   8.291  2.3094  2.8665 -5.0080
  445MOL0     H60022   5.791   3.038   8.427  3.4866 -1.8970  0.6849
  445MOL0     H60023   5.693   3.026   8.279  0.8442  1.9195 -0.9585
  445MOL0     H60024   5.934   2.854   8.334 -1.8676 -2.0122  1.5478
  445MOL0     H60025   5.843   2.835   8.188  2.2258 -0.9483  0.3720
  445MOL0     H60026   5.578   2.730   8.235 -0.9876  0.7589  0.4099
  445MOL0     H60027   5.384   2.617   8.362  3.0882  0.8622 -1.4257
  445MOL0     H60028   5.437   2.523   8.505  1.7276 -0.5774  0.7656
  445MOL0     H60029   5.321   2.802   8.535 -2.4052  0.0105  0.7718
  445MOL0     H60030   5.374   2.689   8.660  0.2145  0.3094  0.4638
  445MOL0     H60031   5.160   2.544   8.590 -0.9871  0.2573  1.1854
  445MOL0     H60032   5.167   2.631   8.444 -0.2691 -3.9822  0.2393
  445MOL0     H60033   4.991   2.724   8.545 -1.4045  0.3564  1.2218
  445MOL0     H60034   5.117   2.847   8.564 -2.2298 -0.2211 -0.0720
  445MOL0     H60035   4.973   2.967   8.817  0.4064 -0.0633  3.2715
  445MOL0     H60036   4.694   3.077   8.979 -0.7186 -2.0044  0.0785
  445MOL0     H60037   4.852   3.116   8.906 -0.1681 -1.2870 -0.4835
  445MOL0     H60038   4.696   3.136   8.819 -2.4745  1.6358  3.3981
  445MOL0     H60039   4.450   2.659   9.247  1.1221  3.0125 -0.4895
  445MOL0     H60040   4.242   2.659   9.370  2.3510  1.8601  1.2328
  445MOL0     H60041   4.010   2.661   9.421  1.7001 -0.2600 -4.5590
  445MOL0     H60042   4.084   2.814   9.450 -0.0160  0.3511 -0.9118
  445MOL0     H60043   3.851   2.829   9.543  0.3376  1.1448  0.6249
  445MOL0     H60044   3.883   2.929   9.410 -3.5096  0.9430  2.7394
  445MOL0     H60045   3.742   2.654   9.389 -0.7692  0.2816 -1.9456
  445MOL0     H60046   3.754   2.756   9.251  1.2036 -0.6564 -0.9298
  445MOL0     H60047   3.603   2.829   9.506 -0.2159  2.7650 -0.3941
  445MOL0     H60048   3.604   2.917   9.350 -0.7780 -1.5234 -3.7840
  445MOL0     H60049   3.487   2.626   9.397 -2.3981 -0.0666  0.6761
  445MOL0     H60050   3.510   2.707   9.238  0.5938  0.0830 -0.1291
  445MOL0     H60051   3.377   2.891   9.290 -0.5372 -0.3643 -0.7427
  445MOL0     H60052   3.279   2.743   9.289  1.0040  0.0814 -1.0435
  445MOL0     H60053   3.362   2.772   9.559 -0.5970 -0.5344  1.4831
  445MOL0     H60054   3.197   2.804   9.487  0.9924  0.2783 -0.3278
  445MOL0     H60055   3.405   3.018   9.475 -0.6878  0.1888 -2.3674
  445MOL0     H60056   3.302   2.991   9.620  1.4163  2.0146  0.3848
  445MOL0     H60057   4.059   2.853   9.042 -1.2818 -0.9571  0.9462
  445MOL0     H60058   4.271   2.833   8.907 -0.6071  0.4324  0.2164
  445MOL0     H60059   4.642   2.614   8.859 -1.9722  1.5202  0.7392
  445MOL0     H60060   4.870   2.559   8.786  1.1818  0.4685  1.5790
  445MOL0     H60061   6.232   3.716   7.828  1.3721 -2.0545 -1.4628
  445MOL0     H60062   6.476   3.781   7.772 -1.7363  1.0382 -1.2081
  445MOL0     H60063   6.913   3.938   7.659  0.6653  2.1877 -0.5355
  445MOL0     H60064   7.133   4.013   7.695 -2.0674  1.5717 -2.4372
  445MOL0     H60065   7.359   3.985   7.818 -0.5515  0.5093 -1.4306
  445MOL0     H60066   7.310   4.148   7.761 -1.9725 -0.0850  0.8732
  445MOL0     H60067   7.441   4.261   7.909  2.1765  0.9911 -1.9339
  445MOL0     H60068   7.543   4.146   7.828 -1.4726  0.8138 -1.1291
  445MOL0     H60069   7.527   3.994   8.039 -1.0846 -0.4413 -2.1473
  445MOL0     H60070   7.422   4.110   8.116 -2.1103 -1.0799 -1.2949
  445MOL0     H60071   7.638   4.156   8.218  1.9634 -0.9991 -0.4987
  445MOL0     H60072   7.614   4.285   8.093 -1.9804 -0.4306 -2.5954
  445MOL0     H60073   7.968   4.085   7.976 -0.2227 -0.9303  0.1403
  445MOL0     H60074   7.036   4.129   8.106  0.4286 -0.1084 -0.0637
  445MOL0     H60075   6.809   4.051   8.060  1.1208 -2.8924  1.4291
  446MOL0     O60076   9.537   2.525   1.689  1.0335 -0.4611  0.6532
  446MOL0     C60077   9.546   2.634   1.753 -0.6492 -0.1492  0.2984
  446MOL0     O60078   9.459   2.688   1.842  0.4092  0.2178 -0.7255
  446MOL0     C60079   9.324   2.646   1.834 -0.0016 -0.2787  0.4080
  446MOL0     C60080   9.251   2.594   1.725  0.6604 -0.5084 -0.3776
  446MOL0     C60081   9.109   2.581   1.736 -0.2503 -0.3239  0.2156
  446MOL0     C60082   9.041   2.637   1.846 -0.2923  0.9582 -0.3824
  446MOL0     O60083   8.902   2.642   1.871 -0.3648  0.5501  0.2009
  446MOL0     C60084   8.820   2.603   1.760 -0.9384 -0.3458 -0.7400
  446MOL0     C60085   8.680   2.592   1.819  0.2947  0.5093 -0.2709
  446MOL0     C60086   8.630   2.726   1.859 -0.5623 -0.6708 -0.1935
  446MOL0     C60087   8.473   2.728   1.875 -0.5237 -0.5948  0.6328
  446MOL0     C60088   8.411   2.866   1.916 -0.3328  0.7490 -0.2440
  446MOL0     C60089   8.256   2.869   1.899  0.6729 -0.1230  0.0889
  446MOL0     C60090   8.210   3.011   1.923 -0.5255 -0.4343  0.3231
  446MOL0     C60091   8.097   3.055   1.840  0.5064 -0.5951 -1.1640
  446MOL0     N60092   8.039   3.186   1.876 -0.0335 -0.3683  0.5256
  446MOL0     C60093   7.928   3.211   1.948  0.0372  0.2301 -0.0694
  446MOL0     C60094   7.900   3.339   1.925  0.7139  0.6448  0.9324
  446MOL0     C60095   7.773   3.409   1.965 -0.1624  0.7819  1.0343
  446MOL0     C60096   7.686   3.421   1.845  0.3422 -0.2932 -0.7630
  446MOL0     C60097   7.568   3.514   1.867 -0.0687  0.1404 -0.6592
  446MOL0     C60098   7.488   3.535   1.742  0.4292  1.3652  0.1133
  446MOL0     O60099   7.442   3.415   1.669 -0.2912  0.1459  0.5831
  446MOL0     C60100   7.309   3.398   1.635  0.2691 -0.0898  0.1531
  446MOL0     C60101   7.278   3.298   1.546  0.4513  0.6932 -0.9337
  446MOL0     C60102   7.150   3.279   1.494  0.1065 -0.1906 -0.4553
  446MOL0     C60103   7.129   3.160   1.399  0.0013 -0.4409 -0.2491
  446MOL0     C60104   7.046   3.364   1.531  0.3903 -0.0863  0.3994
  446MOL0     C60105   6.906   3.360   1.479 -0.0811  0.0125 -0.7799
  446MOL0     O60106   6.850   3.237   1.466 -0.4224  0.6669 -0.0421
  446MOL0     C60107   6.716   3.227   1.418 -0.0568 -0.1782 -0.2948
  446MOL0     C60108   6.612   3.302   1.478 -0.9743 -0.4404  0.1273
  446MOL0     C60109   6.486   3.294   1.427  0.1956 -0.6673  1.0780
  446MOL0     C60110   6.460   3.194   1.324  0.4941 -0.0730 -0.7141
  446MOL0     O60111   6.331   3.159   1.281 -0.0213  0.3437 -0.5145
  446MOL0     C60112   6.228   3.260   1.305  0.3708 -0.2410  0.4832
  446MOL0     C60113   6.094   3.218   1.273  0.6023  1.0353  0.3899
  446MOL0     C60114   6.078   3.161   1.129 -0.6345  0.2115  0.6202
  446MOL0     C60115   5.931   3.123   1.109 -0.5659  0.3396 -0.2479
  446MOL0     C60116   5.848   3.245   1.085  0.9728  0.8425 -0.1610
  446MOL0     C60117   5.698   3.216   1.098 -0.8509 -0.3838  0.2546
  446MOL0     C60118   5.633   3.152   0.974  0.1013 -0.5212 -0.3016
  446MOL0     C60119   5.484   3.124   0.998  0.1499  0.4690 -0.0357
  446MOL0    Cl60120   5.393   3.284   1.000 -0.3443  0.2815 -0.0780
  446MOL0     C60121   6.566   3.116   1.269 -0.6242  0.1664 -0.2747
  446MOL0     C60122   6.688   3.133   1.320 -0.7149  0.1020 -0.3406
  446MOL0     O60123   6.850   3.461   1.474 -0.0621 -0.2568 -0.3643
  446MOL0     C60124   7.080   3.464   1.627 -0.1714  0.0942 -0.4325
  446MOL0     C60125   7.205   3.478   1.675 -0.2580 -1.0809 -0.6763
  446MOL0     N60126   7.994   3.394   1.843 -0.5666 -0.4076 -0.3225
  446MOL0     N60127   8.083   3.305   1.818 -0.4219  0.0195 -0.1624
  446MOL0     C60128   9.115   2.675   1.951 -0.3702  0.0621  0.2493
  446MOL0     C60129   9.255   2.685   1.946 -0.2199  0.4379 -0.9826
  446MOL0     C60130   9.668   2.721   1.749  0.1969 -0.1161  0.5285
  446MOL0     C60131   9.778   2.678   1.666 -0.4117 -0.7340 -0.3719
  446MOL0     C60132   9.902   2.733   1.669  0.2700 -0.2519 -0.2595
  446MOL0     C60133   9.931   2.845   1.749 -0.0391  0.0875 -0.3690
  446MOL0     O60134  10.058   2.886   1.734  0.0858 -0.2331 -0.7633
  446MOL0     C60135  10.076   3.031   1.780 -0.0711  0.0963 -0.6036
  446MOL0     C60136  10.196   3.086   1.703  0.1448  0.5667  0.0809
  446MOL0     C60137  10.157   3.135   1.568 -0.2440  0.2209  0.7134
  446MOL0     C60138  10.274   3.203   1.490  0.1389 -0.0817  0.0217
  446MOL0     C60139  10.227   3.233   1.354  0.6184 -0.0204 -0.3747
  446MOL0     C60140  10.189   3.267   1.244  0.1658  1.0358 -0.3581
  446MOL0     C60141   9.820   2.892   1.828  0.5634 -0.8382  0.0042
  446MOL0     C60142   9.688   2.836   1.826 -0.1319 -0.1663 -0.4813
  446MOL0     H60143   9.296   2.567   1.630  1.1448 -0.6333 -0.1206
  446MOL0     H60144   9.057   2.544   1.648  0.9225  0.8682 -1.0114
  446MOL0     H60145   8.834   2.676   1.680 -0.8037  2.3702  1.5934
  446MOL0     H60146   8.839   2.502   1.723 -0.2129 -0.7681  0.6744
  446MOL0     H60147   8.613   2.550   1.743  0.1110 -1.4274  0.9108
  446MOL0     H60148   8.675   2.528   1.906  0.6190  0.9144  0.0507
  446MOL0     H60149   8.676   2.761   1.952 -0.2768 -1.4745 -0.0249
  446MOL0     H60150   8.662   2.802   1.787 -0.3276 -1.0598 -0.5032
  446MOL0     H60151   8.430   2.693   1.781  0.6675  0.1048 -0.1823
  446MOL0     H60152   8.437   2.655   1.948  1.1935 -0.3339  1.8001
  446MOL0     H60153   8.443   2.889   2.018 -0.3832 -2.3992  0.5901
  446MOL0     H60154   8.456   2.933   1.842  0.1380 -0.7704 -1.3933
  446MOL0     H60155   8.231   2.834   1.798 -4.0873  4.1290 -0.6251
  446MOL0     H60156   8.199   2.803   1.966 -2.0316  1.0040 -0.9585
  446MOL0     H60157   8.169   3.021   2.024 -0.0324 -2.6373  0.8061
  446MOL0     H60158   8.296   3.077   1.909  2.5650 -3.6123  2.5397
  446MOL0     H60159   8.017   2.981   1.844 -0.4550  0.4211 -1.2572
  446MOL0     H60160   8.128   3.063   1.736  0.6709  4.3518 -1.0042
  446MOL0     H60161   7.859   3.136   1.986 -1.6112  2.0301  0.6011
  446MOL0     H60162   7.730   3.363   2.054 -0.8770  1.8728  1.2816
  446MOL0     H60163   7.804   3.514   1.978  0.2789  0.8082 -0.0632
  446MOL0     H60164   7.646   3.320   1.828 -0.0501 -0.0316 -1.4250
  446MOL0     H60165   7.741   3.459   1.759 -0.7071  1.4471 -0.7083
  446MOL0     H60166   7.600   3.610   1.909 -0.1130  0.0481 -0.4180
  446MOL0     H60167   7.503   3.467   1.942  0.0647  1.4955  0.3436
  446MOL0     H60168   7.544   3.581   1.660 -0.2682 -0.0571 -1.2130
  446MOL0     H60169   7.409   3.607   1.764 -2.0155 -0.6294 -1.5688
  446MOL0     H60170   7.359   3.241   1.503  0.8911  1.6457 -1.4102
  446MOL0     H60171   7.226   3.117   1.375 -0.5088 -1.0337 -1.3410
  446MOL0     H60172   7.081   3.074   1.448  1.9191 -1.7619 -0.5761
  446MOL0     H60173   7.068   3.190   1.314  1.3320 -0.3860 -1.2073
  446MOL0     H60174   6.635   3.375   1.555 -0.7904  0.9826 -1.2270
  446MOL0     H60175   6.405   3.359   1.460  0.0268  1.6296 -3.2106
  446MOL0     H60176   6.234   3.291   1.410 -1.4760 -0.6231  0.7290
  446MOL0     H60177   6.249   3.342   1.235 -1.8627  1.0607  1.2310
  446MOL0     H60178   6.063   3.145   1.348  2.2547  1.0263  1.1149
  446MOL0     H60179   6.034   3.308   1.291 -0.7865  0.5260 -1.3992
  446MOL0     H60180   6.133   3.067   1.119  0.6120  0.8818  1.0154
  446MOL0     H60181   6.119   3.233   1.058  0.2663 -0.6314  0.2700
  446MOL0     H60182   5.927   3.060   1.020 -1.1686  2.5258 -1.8530
  446MOL0     H60183   5.901   3.069   1.200  1.1509  1.1606  0.8575
  446MOL0     H60184   5.871   3.282   0.985 -0.5360 -0.2322 -0.9466
  446MOL0     H60185   5.858   3.323   1.161 -1.3167  1.8730 -0.8260
  446MOL0     H60186   5.673   3.154   1.184  2.8909 -1.2506  0.9091
  446MOL0     H60187   5.656   3.317   1.105  0.6355  0.1491  3.0490
  446MOL0     H60188   5.694   3.066   0.942  2.7984  0.9737  0.4570
  446MOL0     H60189   5.635   3.229   0.897  0.1227 -0.7404 -0.5205
  446MOL0     H60190   5.461   3.065   1.087 -0.1127  1.5115  0.6127
  446MOL0     H60191   5.446   3.067   0.912  0.2718 -0.5202  0.5521
  446MOL0     H60192   6.530   3.042   1.199 -0.8089 -1.5958  1.6090
  446MOL0     H60193   6.755   3.056   1.282 -3.0861 -1.4704 -1.5459
  446MOL0     H60194   7.002   3.537   1.648  0.0908  0.2352  0.0671
  446MOL0     H60195   7.218   3.567   1.736  0.0628 -1.3929 -0.2899
  446MOL0     H60196   9.063   2.696   2.043 -0.9215 -1.7245  0.3761
  446MOL0     H60197   9.307   2.711   2.037 -1.0995 -0.8063 -0.0918
  446MOL0     H60198   9.772   2.586   1.609  2.1671 -0.3209 -1.4481
  446MOL0     H60199   9.979   2.684   1.610 -0.5028 -1.8218 -0.0141
  446MOL0     H60200   9.997   3.106   1.768  0.1195  0.7307  1.6344
  446MOL0     H60201  10.099   3.033   1.887 -4.8917 -2.6514  0.7769
  446MOL0     H60202  10.275   3.013   1.685  0.3129  0.7664  0.0127
  446MOL0     H60203  10.245   3.163   1.763  2.2787 -0.8191  0.1953
  446MOL0     H60204  10.078   3.209   1.577  0.1690  0.5940  1.3315
  446MOL0     H60205  10.105   3.059   1.509 -1.4502 -1.2089  3.4536
  446MOL0     H60206  10.357   3.133   1.483 -0.7039 -0.9884 -1.5600
  446MOL0     H60207  10.305   3.298   1.535 -0.1942 -0.7488  1.7671
  446MOL0     H60208  10.162   3.278   1.140  1.3111 -1.4704 -0.9994
  446MOL0     H60209   9.832   2.972   1.900  4.3034 -1.0919 -0.1225
  446MOL0     H60210   9.614   2.880   1.892 -0.8502 -2.1691  0.1365
  447MOL0     O60211   4.309   9.141   8.716  0.6215 -0.3238 -0.1459
  447MOL0     C60212   4.351   9.253   8.699  0.1214 -0.5682  0.1124
  447MOL0     O60213   4.288   9.361   8.639  0.1853 -0.2334 -0.0081
  447MOL0     C60214   4.152   9.335   8.606  0.3668 -0.7110 -0.1919
  447MOL0     C60215   4.053   9.394   8.686 -0.5872 -0.3217 -0.2378
  447MOL0     C60216   3.916   9.367   8.666 -0.3067  0.4668  0.1175
  447MOL0     C60217   3.873   9.288   8.553 -0.2801  0.2450 -0.0989
  447MOL0     O60218   3.736   9.276   8.541  0.7567 -0.3851  0.2016
  447MOL0     C60219   3.686   9.234   8.419 -0.3076 -0.8646  1.0734
  447MOL0     C60220   3.545   9.185   8.448 -1.5479 -0.8262  0.2984
  447MOL0     C60221   3.480   9.161   8.305 -0.4134 -0.5555  0.3105
  447MOL0     C60222   3.341   9.120   8.337  0.0725  0.3938 -0.4060
  447MOL0     C60223   3.257   9.121   8.207  0.3602  0.4284 -0.2265
  447MOL0     C60224   3.110   9.135   8.245 -0.5447 -0.0541  0.1409
  447MOL0     C60225   3.007   9.144   8.133 -0.1874 -0.5446 -0.2862
  447MOL0     C60226   2.861   9.140   8.183  0.3942  0.6577  0.6675
  447MOL0     N60227   2.786   9.010   8.168  0.5575  0.1449 -0.5263
  447MOL0     C60228   2.733   8.978   8.048  0.9385  0.4622  0.6887
  447MOL0     C60229   2.641   8.879   8.085  1.0872  0.5029 -0.2301
  447MOL0     C60230   2.524   8.818   8.004  0.7731 -0.0705  0.7533
  447MOL0     C60231   2.586   8.739   7.889 -0.2933 -0.6713 -0.2319
  447MOL0     C60232   2.494   8.712   7.770 -0.5425 -0.2490  0.1080
  447MOL0     C60233   2.356   8.661   7.798  0.2334 -0.7061 -0.5302
  447MOL0     O60234   2.357   8.537   7.871 -0.3997  0.2153  0.5391
  447MOL0     C60235   2.238   8.467   7.889 -0.4059  0.6904  0.2354
  447MOL0     C60236   2.123   8.538   7.902  0.8152  0.3549 -0.4396
  447MOL0     C60237   2.000   8.469   7.912 -0.3688 -0.5228  0.0754
  447MOL0     C60238   1.864   8.541   7.917 -0.2657  0.4096 -0.7717
  447MOL0     C60239   1.998   8.324   7.911  0.0535 -0.6966  0.5058
  447MOL0     C60240   1.871   8.236   7.931 -0.7503 -0.3276  0.0795
  447MOL0     O60241   1.872   8.119   7.864 -0.0854 -0.5655  0.5715
  447MOL0     C60242   1.766   8.035   7.884 -0.1436  0.3828 -0.1799
  447MOL0     C60243   1.785   7.926   7.962  0.0231 -0.0366 -0.6036
  447MOL0     C60244   1.679   7.837   7.982 -0.5185  0.3251  0.0915
  447MOL0     C60245   1.548   7.862   7.924 -0.5263 -0.3553  0.3913
  447MOL0     O60246   1.441   7.789   7.948 -0.0955  0.0272  0.6230
  447MOL0     C60247   1.455   7.651   7.927  0.5179  1.1240  1.3294
  447MOL0     C60248   1.323   7.572   7.906 -0.7183  0.5579 -0.5806
  447MOL0     C60249   1.249   7.560   8.044 -0.1757 -0.2731 -0.1391
  447MOL0     C60250   1.127   7.469   8.033  0.1605 -0.0492 -1.0651
  447MOL0     C60251   1.075   7.453   8.174 -0.1036 -0.5117 -0.5955
  447MOL0     C60252   1.077   7.315   8.234 -0.6258 -0.1277 -0.3056
  447MOL0     C60253   1.017   7.302   8.377 -0.3844 -0.1913 -0.0014
  447MOL0     C60254   1.007   7.163   8.410  0.2607  0.0617  0.4025
  447MOL0    Cl60255   1.173   7.084   8.425  0.1802  0.8058  0.3391
  447MOL0     C60256   1.523   7.981   7.847 -0.4092 -0.7860  0.1193
  447MOL0     C60257   1.636   8.066   7.824 -0.5194  0.2145  0.7264
  447MOL0     O60258   1.789   8.267   8.016  0.2998 -0.6740  0.1588
  447MOL0     C60259   2.117   8.257   7.910 -0.7570 -0.5180 -0.1494
  447MOL0     C60260   2.238   8.328   7.894  0.6883 -0.8316  0.7202
  447MOL0     N60261   2.642   8.867   8.223  0.2676 -0.7424 -0.3087
  447MOL0     N60262   2.734   8.941   8.271  0.5250 -0.2789 -0.6552
  447MOL0     C60263   3.975   9.230   8.473  0.4489  0.0211 -0.4468
  447MOL0     C60264   4.109   9.259   8.496  0.0832 -0.4076  0.2590
  447MOL0     C60265   4.484   9.275   8.760 -0.0468 -0.3482 -0.1419
  447MOL0     C60266   4.531   9.405   8.781  1.1211 -0.0667  0.7365
  447MOL0     C60267   4.658   9.426   8.827 -1.0929  0.5187 -0.3948
  447MOL0     C60268   4.734   9.325   8.879  0.5737 -0.0835  0.5710
  447MOL0     O60269   4.851   9.366   8.936  0.3971  0.3491 -0.2922
  447MOL0     C60270   4.952   9.273   8.959 -0.0684 -0.3643  0.4397
  447MOL0     C60271   5.065   9.335   9.030 -0.1489 -0.4463 -0.1462
  447MOL0     C60272   5.172   9.243   9.075  0.4045 -0.3502 -1.3747
  447MOL0     C60273   5.297   9.313   9.138  0.0554  0.2902  0.4776
  447MOL0     C60274   5.407   9.215   9.162 -0.2552 -0.8421 -0.0648
  447MOL0     C60275   5.501   9.137   9.169  0.1346  0.3249  0.7535
  447MOL0     C60276   4.683   9.192   8.870 -0.1176  0.4270  0.3152
  447MOL0     C60277   4.559   9.169   8.808  0.2867  0.5781 -1.1832
  447MOL0     H60278   4.090   9.462   8.762  0.2903  0.3206 -1.2104
  447MOL0     H60279   3.834   9.417   8.716 -1.0850 -0.4349 -0.2225
  447MOL0     H60280   3.682   9.316   8.346  0.9424 -2.6113 -1.0949
  447MOL0     H60281   3.740   9.156   8.366  0.0904  0.2254 -0.1907
  447MOL0     H60282   3.543   9.090   8.501  1.6144 -1.5304 -0.6045
  447MOL0     H60283   3.486   9.259   8.501 -2.4625 -1.4832  0.2215
  447MOL0     H60284   3.482   9.250   8.240  0.5813  0.1836  1.3018
  447MOL0     H60285   3.542   9.085   8.256  2.4287  0.0305  2.7242
  447MOL0     H60286   3.329   9.016   8.372 -2.4041  0.0078 -2.0911
  447MOL0     H60287   3.297   9.200   8.397 -0.6628  1.2758 -2.0680
  447MOL0     H60288   3.293   9.204   8.145 -0.2442  2.1673  1.6187
  447MOL0     H60289   3.269   9.026   8.154 -0.7402  0.1746 -0.0380
  447MOL0     H60290   3.079   9.045   8.300  2.6366 -2.2460 -1.3473
  447MOL0     H60291   3.099   9.222   8.311 -0.0301  0.1930 -0.0947
  447MOL0     H60292   3.027   9.234   8.075 -0.0057  0.3844  1.1685
  447MOL0     H60293   3.014   9.049   8.078  0.7513 -1.4684  1.3391
  447MOL0     H60294   2.808   9.224   8.135  1.1419 -0.3194 -2.0471
  447MOL0     H60295   2.855   9.165   8.289  1.9709  0.7954  0.7385
  447MOL0     H60296   2.751   9.030   7.955 -2.6933  3.6109  1.5152
  447MOL0     H60297   2.462   8.751   8.064  0.5380 -1.0190 -0.5011
  447MOL0     H60298   2.465   8.902   7.968  1.5803  1.1137  2.0855
  447MOL0     H60299   2.627   8.649   7.936 -0.4764 -0.2395  0.7951
  447MOL0     H60300   2.673   8.797   7.856 -0.1046  0.6096  2.3128
  447MOL0     H60301   2.550   8.643   7.706  1.1610 -0.0067  1.2723
  447MOL0     H60302   2.478   8.800   7.707 -0.0960  0.8623  1.5240
  447MOL0     H60303   2.305   8.646   7.702 -2.9043 -1.0721  1.0628
  447MOL0     H60304   2.300   8.731   7.860  2.5118 -0.2980  1.2003
  447MOL0     H60305   2.110   8.646   7.901  1.4616  0.5004 -3.5552
  447MOL0     H60306   1.831   8.531   8.021 -1.1193  1.7264 -0.8857
  447MOL0     H60307   1.878   8.649   7.901  1.5126  0.0844 -1.6144
  447MOL0     H60308   1.791   8.506   7.843 -0.8115 -2.7519  1.1050
  447MOL0     H60309   1.887   7.908   7.993  0.3089 -0.4275 -1.7104
  447MOL0     H60310   1.694   7.740   8.027 -0.7967 -0.7756 -2.0301
  447MOL0     H60311   1.516   7.636   7.837 -0.6740  2.0769  0.3275
  447MOL0     H60312   1.515   7.610   8.009  0.7473 -1.0832  0.1349
  447MOL0     H60313   1.256   7.627   7.840 -2.3974  2.9316  2.7881
  447MOL0     H60314   1.339   7.474   7.861 -2.1799  1.2447 -2.7329
  447MOL0     H60315   1.219   7.661   8.075  1.1725 -0.5277  2.3121
  447MOL0     H60316   1.304   7.516   8.129 -1.6100 -1.9205 -0.0171
  447MOL0     H60317   1.049   7.496   7.961  0.8719  0.5223 -1.6384
  447MOL0     H60318   1.157   7.371   7.997  0.2156  0.0268 -1.2270
  447MOL0     H60319   0.971   7.481   8.153  0.4031 -0.7186 -3.8885
  447MOL0     H60320   1.122   7.525   8.242 -3.5721  1.2144  0.2091
  447MOL0     H60321   1.029   7.248   8.163  1.0682 -1.1877 -0.5075
  447MOL0     H60322   1.182   7.287   8.241 -1.3333 -2.8209  1.2673
  447MOL0     H60323   0.918   7.349   8.382 -0.4413  0.7108 -4.6962
  447MOL0     H60324   1.090   7.348   8.444  1.3252 -2.1065 -0.4323
  447MOL0     H60325   0.951   7.114   8.330 -0.1543 -0.7315  1.1648
  447MOL0     H60326   0.962   7.155   8.509  2.3894  2.1991  1.6486
  447MOL0     H60327   1.436   8.019   7.796  0.1528  2.5436  1.4288
  447MOL0     H60328   1.621   8.160   7.771  2.0431  0.3638  0.1377
  447MOL0     H60329   2.123   8.150   7.926 -1.1353 -0.5760 -0.3670
  447MOL0     H60330   2.331   8.273   7.883  0.6292 -0.5045 -2.3094
  447MOL0     H60331   3.941   9.167   8.392  1.9298 -3.7683  1.6099
  447MOL0     H60332   4.182   9.215   8.428 -0.5699  0.0056 -0.7374
  447MOL0     H60333   4.477   9.495   8.755 -0.1642 -0.5123  1.7736
  447MOL0     H60334   4.688   9.530   8.844 -0.1122  0.1442  0.2614
  447MOL0     H60335   4.918   9.191   9.023  1.5892 -0.9783  0.5942
  447MOL0     H60336   4.981   9.217   8.870  1.5456  1.3959 -0.2137
  447MOL0     H60337   5.026   9.376   9.123 -0.6474 -3.7285  1.2297
  447MOL0     H60338   5.121   9.412   8.975  1.0660 -0.5698  0.8656
  447MOL0     H60339   5.220   9.188   8.994  1.1954  0.2696 -1.3441
  447MOL0     H60340   5.133   9.169   9.146  1.3221 -0.2432 -0.7399
  447MOL0     H60341   5.277   9.366   9.231  0.7790 -0.7763  1.2743
  447MOL0     H60342   5.325   9.392   9.067 -2.0709  0.9704  0.3451
  447MOL0     H60343   5.588   9.075   9.179 -0.9864 -1.7188 -1.4003
  447MOL0     H60344   4.741   9.107   8.902 -0.1807 -0.0338 -0.7495
  447MOL0     H60345   4.526   9.067   8.793 -1.1127  0.9009 -0.4675
  448MOL0     O60346  10.711   4.011   1.452 -0.3968  0.5956  0.6344
  448MOL0     C60347  10.757   4.047   1.564  1.2443  0.6523  1.3058
  448MOL0     O60348  10.877   4.037   1.614 -0.1078 -0.1608  0.1241
  448MOL0     C60349  10.986   4.020   1.523 -0.1618 -0.5906 -0.2434
  448MOL0     C60350  11.043   3.893   1.510 -0.5705  0.3588  0.1867
  448MOL0     C60351  11.165   3.874   1.438  0.0743 -0.0972 -0.1374
  448MOL0     C60352  11.204   3.976   1.357 -0.1699 -0.9527  0.2623
  448MOL0     O60353  11.317   3.944   1.283  0.4506  0.6480 -0.3126
  448MOL0     C60354  11.409   4.051   1.252 -0.4486  0.5388 -0.0889
  448MOL0     C60355  11.546   3.989   1.234  0.0166  0.4051 -0.0815
  448MOL0     C60356  11.670   4.082   1.225  1.1077  0.1184  0.7872
  448MOL0     C60357  11.697   4.157   1.352 -0.8246 -0.5687 -0.2443
  448MOL0     C60358  11.832   4.244   1.330 -0.1397  0.4583  0.1763
  448MOL0     C60359  11.830   4.392   1.285 -1.1894 -0.1336  0.3642
  448MOL0     C60360  11.970   4.450   1.288  0.7110 -0.3304 -0.9424
  448MOL0     C60361  11.968   4.600   1.245  0.3457  0.5914 -0.3466
  448MOL0     N60362  12.096   4.674   1.263  0.6813  0.6396  0.2175
  448MOL0     C60363  12.131   4.751   1.368 -0.3840  0.0433 -0.5119
  448MOL0     C60364  12.245   4.811   1.329 -0.0283 -0.2253  0.8119
  448MOL0     C60365  12.320   4.905   1.410 -0.4405 -1.0252 -0.0411
  448MOL0     C60366  12.453   4.839   1.466  1.0244  0.0043  0.8472
  448MOL0     C60367  12.561   4.827   1.362  0.5007 -0.4490 -0.5000
  448MOL0     C60368  12.578   4.689   1.308  0.0051 -0.3176 -0.5163
  448MOL0     O60369  12.595   4.592   1.414  1.0578 -0.0229 -0.3121
  448MOL0     C60370  12.501   4.495   1.440  0.0543  0.3788 -0.2044
  448MOL0     C60371  12.543   4.421   1.555 -0.0173 -0.6105  0.4726
  448MOL0     C60372  12.470   4.317   1.598  0.8592  0.2155 -0.2120
  448MOL0     C60373  12.525   4.230   1.713 -0.4336 -0.3060 -0.3460
  448MOL0     C60374  12.342   4.281   1.534 -0.5680 -0.0537  0.0171
  448MOL0     C60375  12.250   4.167   1.581  0.1237  0.1512  0.6206
  448MOL0     O60376  12.270   4.102   1.698 -0.3184 -0.2815 -0.2000
  448MOL0     C60377  12.170   4.020   1.739  0.8195  0.0574  0.0417
  448MOL0     C60378  12.176   3.881   1.706 -0.7467 -0.0837 -0.0681
  448MOL0     C60379  12.089   3.791   1.750  0.5382  0.2620 -0.1502
  448MOL0     C60380  11.976   3.833   1.827 -0.1323 -0.4304 -0.0726
  448MOL0     O60381  11.869   3.753   1.866  0.1242  0.0992 -0.4774
  448MOL0     C60382  11.873   3.621   1.815 -0.3823  0.4385 -0.1251
  448MOL0     C60383  11.761   3.537   1.876  0.8893  0.1166 -0.3908
  448MOL0     C60384  11.812   3.490   2.011  0.8808  0.3843  0.1341
  448MOL0     C60385  11.693   3.403   2.074  0.7598  1.0867 -0.0826
  448MOL0     C60386  11.737   3.356   2.213  0.4711  0.8689  0.6202
  448MOL0     C60387  11.634   3.257   2.272 -0.6258  0.1300  1.2460
  448MOL0     C60388  11.657   3.236   2.424  0.7503 -0.6043  0.8164
  448MOL0     C60389  11.778   3.146   2.452  0.2449  0.5282  0.1715
  448MOL0    Cl60390  11.727   2.978   2.412  0.0119  0.7719 -0.3044
  448MOL0     C60391  11.975   3.967   1.880 -0.3807 -0.4381  0.4024
  448MOL0     C60392  12.066   4.069   1.824 -0.7274 -0.0204 -0.2012
  448MOL0     O60393  12.161   4.135   1.504 -0.0989 -0.2629 -0.4322
  448MOL0     C60394  12.296   4.361   1.432  0.1974 -0.3291 -0.1907
  448MOL0     C60395  12.374   4.462   1.377 -0.0157 -0.1899  0.2566
  448MOL0     N60396  12.282   4.768   1.202  0.3134  0.1443  0.5495
  448MOL0     N60397  12.192   4.683   1.169 -0.0225 -0.1628  0.6334
  448MOL0     C60398  11.141   4.108   1.369 -1.3580 -0.3674  0.2881
  448MOL0     C60399  11.035   4.118   1.448 -0.4473 -0.4779  0.1436
  448MOL0     C60400  10.650   4.125   1.648 -0.0639  1.0483  0.3210
  448MOL0     C60401  10.669   4.173   1.778  1.1704 -0.3555  0.1366
  448MOL0     C60402  10.571   4.240   1.844 -0.2745 -0.9102  0.0969
  448MOL0     C60403  10.447   4.274   1.788 -0.0015  0.1152 -1.1779
  448MOL0     O60404  10.356   4.355   1.858 -0.0923  0.9152  0.3626
  448MOL0     C60405  10.223   4.367   1.798 -0.7453 -0.2942  0.5736
  448MOL0     C60406  10.153   4.228   1.814  0.5298 -0.3405  0.3735
  448MOL0     C60407  10.038   4.245   1.918 -0.3115  0.1030 -0.0159
  448MOL0     C60408   9.974   4.117   1.955  0.6546  1.3428  0.3489
  448MOL0     C60409   9.870   4.132   2.060 -0.2693 -0.7037 -0.9155
  448MOL0     C60410   9.789   4.156   2.156 -0.3129  0.1212 -0.2645
  448MOL0     C60411  10.428   4.219   1.658  0.8655  0.5562  0.0688
  448MOL0     C60412  10.525   4.145   1.593  0.5290  0.9082 -0.0685
  448MOL0     H60413  10.999   3.806   1.557 -1.5155 -0.8730 -2.7590
  448MOL0     H60414  11.225   3.784   1.448  1.3517  0.9552  2.5475
  448MOL0     H60415  11.383   4.110   1.164  0.5645  0.7907 -0.2343
  448MOL0     H60416  11.415   4.108   1.345  1.9912 -4.3827  3.2632
  448MOL0     H60417  11.563   3.920   1.318  1.0390  1.3067  0.4794
  448MOL0     H60418  11.544   3.931   1.141  1.1453 -1.5679  1.0429
  448MOL0     H60419  11.755   4.017   1.201  0.0861 -0.7715 -0.6233
  448MOL0     H60420  11.664   4.149   1.139  0.7874 -0.0000  0.7176
  448MOL0     H60421  11.619   4.233   1.364 -0.4941 -0.0348 -1.3798
  448MOL0     H60422  11.695   4.090   1.439 -0.9583 -0.0995  0.1157
  448MOL0     H60423  11.886   4.234   1.425 -0.4803 -0.8942  0.2504
  448MOL0     H60424  11.896   4.182   1.266 -0.8459 -0.6708  0.5317
  448MOL0     H60425  11.795   4.398   1.181 -0.3444 -0.5681  0.0437
  448MOL0     H60426  11.777   4.452   1.359 -0.5946  2.5046 -1.2310
  448MOL0     H60427  12.005   4.446   1.391 -2.3849  0.3919  0.2503
  448MOL0     H60428  12.029   4.402   1.210 -0.1597 -3.3234  0.0931
  448MOL0     H60429  11.888   4.639   1.308  0.9671 -1.2483  1.7105
  448MOL0     H60430  11.935   4.618   1.142  0.0565 -2.9285 -1.0253
  448MOL0     H60431  12.082   4.776   1.461 -1.0440  3.2953 -1.6207
  448MOL0     H60432  12.325   4.996   1.350 -3.1115  1.2238  2.8048
  448MOL0     H60433  12.261   4.938   1.496 -0.6654  2.0335 -1.2409
  448MOL0     H60434  12.431   4.749   1.523 -1.3750 -0.4063 -0.5912
  448MOL0     H60435  12.489   4.907   1.544 -0.0744  1.0777  0.4639
  448MOL0     H60436  12.656   4.848   1.412 -0.1623  1.3770  0.0813
  448MOL0     H60437  12.543   4.901   1.283 -2.0444  0.2213  0.6150
  448MOL0     H60438  12.677   4.693   1.262  1.4840  0.5923  2.4962
  448MOL0     H60439  12.490   4.658   1.250 -0.6800  1.0340 -0.2485
  448MOL0     H60440  12.633   4.455   1.603  0.4045 -1.1445  0.0812
  448MOL0     H60441  12.498   4.124   1.701  1.8122 -0.7676 -2.2883
  448MOL0     H60442  12.634   4.236   1.701 -0.3127 -3.6068 -2.2543
  448MOL0     H60443  12.505   4.270   1.812  0.2413  0.4075 -0.4876
  448MOL0     H60444  12.243   3.845   1.629 -1.8043  1.1271 -1.6264
  448MOL0     H60445  12.093   3.688   1.716 -0.6724 -0.6021  2.1096
  448MOL0     H60446  11.849   3.640   1.710  0.0130 -0.9642 -0.4828
  448MOL0     H60447  11.969   3.569   1.816  0.4737  1.9007  2.0378
  448MOL0     H60448  11.675   3.603   1.892  0.1367 -0.7825 -0.6482
  448MOL0     H60449  11.740   3.459   1.802 -1.8676 -1.9450  2.2954
  448MOL0     H60450  11.844   3.575   2.073  0.6092 -0.4806  1.5124
  448MOL0     H60451  11.895   3.420   2.000  0.3100  0.0316 -2.4163
  448MOL0     H60452  11.598   3.457   2.081  1.2258  1.9837 -0.4905
  448MOL0     H60453  11.675   3.317   2.009 -1.9783  1.3475  0.2301
  448MOL0     H60454  11.739   3.443   2.280  0.8703  0.6505  0.8969
  448MOL0     H60455  11.834   3.306   2.214  0.7966  1.4698  2.0153
  448MOL0     H60456  11.532   3.281   2.243 -0.1726  0.9674  0.2698
  448MOL0     H60457  11.651   3.164   2.218 -4.0421 -1.0245  1.9532
  448MOL0     H60458  11.563   3.197   2.464 -0.8033  0.7664 -1.2804
  448MOL0     H60459  11.672   3.330   2.478  0.6963 -0.1364  0.0283
  448MOL0     H60460  11.791   3.131   2.559 -3.6187 -1.1205  0.5913
  448MOL0     H60461  11.868   3.180   2.400 -0.9482  1.6438 -1.2552
  448MOL0     H60462  11.887   3.989   1.939 -1.7720 -3.8594 -0.1802
  448MOL0     H60463  12.061   4.168   1.867  0.6688 -0.3358  0.7438
  448MOL0     H60464  12.193   4.356   1.397 -0.1949  1.7681  0.5123
  448MOL0     H60465  12.332   4.519   1.294 -0.6830 -1.6641 -0.4668
  448MOL0     H60466  11.187   4.190   1.315 -2.0939 -0.9866 -1.3834
  448MOL0     H60467  11.003   4.222   1.454  3.6615  0.9109  2.1446
  448MOL0     H60468  10.769   4.160   1.816  1.7771 -1.5294 -1.7192
  448MOL0     H60469  10.609   4.284   1.936 -0.0508  0.1579 -0.4871
  448MOL0     H60470  10.170   4.451   1.843 -0.4874 -0.1155  0.5486
  448MOL0     H60471  10.239   4.399   1.694 -1.2579  2.5520  1.2841
  448MOL0     H60472  10.213   4.144   1.849  0.0314 -0.5261  0.8059
  448MOL0     H60473  10.110   4.195   1.719 -0.4693 -2.6463  1.5505
  448MOL0     H60474   9.961   4.316   1.887  0.1191  0.0624 -1.2381
  448MOL0     H60475  10.087   4.291   2.005 -1.4160  0.3647  0.4838
  448MOL0     H60476  10.045   4.042   1.991 -1.0613  0.0356  1.1772
  448MOL0     H60477   9.931   4.070   1.865 -1.9155  1.2878  1.5178
  448MOL0     H60478   9.739   4.176   2.248  0.2006  0.0310  0.0414
  448MOL0     H60479  10.342   4.248   1.599 -0.2033 -0.1493  1.2358
  448MOL0     H60480  10.505   4.119   1.489 -0.7256  0.3998  0.2906
  449MOL0     O60481   0.441   8.909   1.463  0.1699  0.0054  0.6482
  449MOL0     C60482   0.353   8.985   1.500 -0.6091 -0.2840  0.5450
  449MOL0     O60483   0.350   9.124   1.473 -0.3837 -0.5309 -0.4231
  449MOL0     C60484   0.440   9.185   1.386 -1.2216 -0.3812 -0.2299
  449MOL0     C60485   0.390   9.284   1.301  0.9603 -1.0278  0.5439
  449MOL0     C60486   0.476   9.363   1.218  0.4644  0.2633  0.0902
  449MOL0     C60487   0.607   9.347   1.225  0.1651 -0.2748  0.6152
  449MOL0     O60488   0.704   9.418   1.151 -0.0850  0.9042 -0.8187
  449MOL0     C60489   0.694   9.433   1.012 -0.4126  0.0950 -0.0596
  449MOL0     C60490   0.643   9.573   0.979 -0.5335  0.4117 -0.2017
  449MOL0     C60491   0.753   9.670   1.012 -0.5872 -0.0700 -0.2213
  449MOL0     C60492   0.699   9.803   1.018 -0.3952 -0.4871  0.3602
  449MOL0     C60493   0.806   9.921   0.999 -0.5492  0.4224 -0.3182
  449MOL0     C60494   0.733  10.054   1.007 -0.6650  0.0537  1.2218
  449MOL0     C60495   0.684  10.104   1.141  0.5458  0.7009  0.2387
  449MOL0     C60496   0.540  10.145   1.153  0.2773  0.4667 -0.0765
  449MOL0     N60497   0.452  10.022   1.139 -0.0487  0.1332 -0.4542
  449MOL0     C60498   0.445   9.914   1.221 -0.4328  1.2638 -0.1598
  449MOL0     C60499   0.367   9.821   1.152  0.3383 -0.2204 -1.0201
  449MOL0     C60500   0.336   9.680   1.194 -0.3820 -1.1384 -0.6331
  449MOL0     C60501   0.218   9.668   1.297 -1.1354  1.1670  0.4379
  449MOL0     C60502   0.097   9.715   1.227  0.4114 -0.2972 -0.7902
  449MOL0     C60503  -0.022   9.696   1.319  0.5996 -0.3901  0.4375
  449MOL0     O60504  -0.038   9.557   1.347  0.3629 -0.3237  0.1487
  449MOL0     C60505  -0.157   9.504   1.395 -0.0730 -0.4655 -0.3551
  449MOL0     C60506  -0.185   9.373   1.369 -0.1649  0.1986  0.3610
  449MOL0     C60507  -0.314   9.320   1.399  0.4520  0.2719  1.2791
  449MOL0     C60508  -0.323   9.173   1.346 -0.1998  0.3269  0.9792
  449MOL0     C60509  -0.411   9.390   1.478 -0.5786 -0.2669 -0.0070
  449MOL0     C60510  -0.539   9.327   1.514 -0.5420  1.0093  0.4095
  449MOL0     O60511  -0.616   9.398   1.602  0.3845  0.5182 -0.0931
  449MOL0     C60512  -0.744   9.341   1.642 -0.1886  0.7250  0.5108
  449MOL0     C60513  -0.836   9.302   1.546 -0.3180 -0.4094  0.7051
  449MOL0     C60514  -0.962   9.254   1.567  0.0212  0.2600  0.2790
  449MOL0     C60515  -1.001   9.248   1.698  0.9103 -0.2373 -0.2769
  449MOL0     O60516  -1.135   9.208   1.725 -0.8361 -0.1769 -0.5049
  449MOL0     C60517  -1.195   9.115   1.641  0.0445 -0.8026  0.0609
  449MOL0     C60518  -1.328   9.055   1.694  0.8416 -1.0672 -1.1185
  449MOL0     C60519  -1.452   9.145   1.679  0.9146 -0.1035 -0.3318
  449MOL0     C60520  -1.578   9.054   1.722  0.3939  0.6234 -0.2794
  449MOL0     C60521  -1.699   9.137   1.785  1.5937  0.0255 -0.7057
  449MOL0     C60522  -1.808   9.151   1.675  0.1711 -1.3870  0.1293
  449MOL0     C60523  -1.939   9.233   1.729 -0.7850 -0.0889 -0.4691
  449MOL0     C60524  -2.054   9.212   1.628  0.3124  0.1021  0.0464
  449MOL0    Cl60525  -2.209   9.230   1.724 -0.1645 -0.0259  0.0465
  449MOL0     C60526  -0.923   9.302   1.807 -0.1808 -0.4817 -0.0800
  449MOL0     C60527  -0.792   9.342   1.776 -0.9211  0.2000 -0.4151
  449MOL0     O60528  -0.585   9.236   1.441  0.4992 -0.1534 -0.0982
  449MOL0     C60529  -0.369   9.520   1.522  0.1872  0.5870 -1.1806
  449MOL0     C60530  -0.254   9.584   1.467  0.1718  1.0467  0.1189
  449MOL0     N60531   0.330   9.878   1.041  0.1191 -0.2428  0.1599
  449MOL0     N60532   0.373   9.998   1.036 -0.1866 -0.1911 -0.0502
  449MOL0     C60533   0.664   9.252   1.309 -0.1696  0.0961  0.1357
  449MOL0     C60534   0.579   9.166   1.393 -0.5647 -0.2370  1.0121
  449MOL0     C60535   0.227   8.939   1.561  0.2095 -0.3439 -0.0017
  449MOL0     C60536   0.130   9.027   1.595 -0.6044 -0.5483 -0.8099
  449MOL0     C60537   0.013   8.981   1.651  0.6214  0.0676  0.1766
  449MOL0     C60538  -0.015   8.854   1.681 -0.3526 -0.2934  0.9741
  449MOL0     O60539  -0.140   8.818   1.739 -0.5812 -0.6281 -0.1171
  449MOL0     C60540  -0.170   8.679   1.774  0.0745 -0.4957 -0.0608
  449MOL0     C60541  -0.302   8.668   1.859  0.1684 -1.0034  0.2018
  449MOL0     C60542  -0.357   8.518   1.869  0.1495 -0.2964  0.4491
  449MOL0     C60543  -0.264   8.421   1.929  0.3758 -0.0671 -0.3544
  449MOL0     C60544  -0.174   8.353   1.839 -0.2342 -0.1343  0.1790
  449MOL0     C60545  -0.106   8.282   1.763  0.6262 -0.0084 -0.0688
  449MOL0     C60546   0.096   8.764   1.682 -0.2217 -0.1644  0.4475
  449MOL0     C60547   0.216   8.805   1.618  0.2784 -0.4215  0.0411
  449MOL0     H60548   0.282   9.293   1.305  1.0043  0.0490 -0.2720
  449MOL0     H60549   0.434   9.426   1.141 -1.0291  0.9362  1.4097
  449MOL0     H60550   0.793   9.408   0.973 -0.8758 -1.0232 -0.5576
  449MOL0     H60551   0.630   9.364   0.956  0.0533 -1.3978  1.2136
  449MOL0     H60552   0.603   9.579   0.878  1.6023 -0.2155 -1.1228
  449MOL0     H60553   0.559   9.594   1.047  1.5641 -0.2579  2.8186
  449MOL0     H60554   0.810   9.645   1.102 -0.3033 -0.2385 -0.4454
  449MOL0     H60555   0.830   9.664   0.934  0.3926  0.9547  0.6364
  449MOL0     H60556   0.621   9.805   0.942  0.5411 -0.9655 -0.6427
  449MOL0     H60557   0.660   9.815   1.120 -0.7200  0.6303  0.1133
  449MOL0     H60558   0.888   9.919   1.071  0.0036 -2.1061 -0.9296
  449MOL0     H60559   0.855   9.903   0.903  0.3260  0.2660  0.1485
  449MOL0     H60560   0.809  10.124   0.971  0.6485 -1.0350  1.7573
  449MOL0     H60561   0.651  10.037   0.936 -0.2098 -2.3072  1.1838
  449MOL0     H60562   0.707  10.025   1.213 -2.5554 -1.3202 -0.7840
  449MOL0     H60563   0.754  10.183   1.170  2.4381 -0.4806 -0.7894
  449MOL0     H60564   0.513  10.211   1.071 -0.1921 -1.4357 -1.5406
  449MOL0     H60565   0.521  10.189   1.251 -2.4376  1.5611 -1.0178
  449MOL0     H60566   0.507   9.888   1.306 -2.8585 -1.8512  0.8451
  449MOL0     H60567   0.300   9.641   1.098  1.5325  0.7290 -2.2273
  449MOL0     H60568   0.423   9.625   1.232 -0.4897  0.2080  1.7497
  449MOL0     H60569   0.233   9.732   1.385 -0.6059  1.7166 -0.0401
  449MOL0     H60570   0.204   9.565   1.331  1.7048 -0.4851 -2.8144
  449MOL0     H60571   0.078   9.646   1.144 -1.0111  0.3664 -1.0526
  449MOL0     H60572   0.105   9.819   1.191  2.0049 -0.2759 -0.4541
  449MOL0     H60573  -0.115   9.732   1.275  0.9080 -1.1779 -0.9161
  449MOL0     H60574  -0.010   9.747   1.415 -3.4994 -0.3736  1.1281
  449MOL0     H60575  -0.106   9.320   1.317  1.9420  2.9122  0.5336
  449MOL0     H60576  -0.240   9.127   1.292  1.1915  1.9479  1.6250
  449MOL0     H60577  -0.353   9.116   1.434 -3.1248 -0.5930 -0.4899
  449MOL0     H60578  -0.413   9.172   1.283 -0.5021 -1.2459  1.4000
  449MOL0     H60579  -0.810   9.328   1.444 -3.8437  0.5595 -0.0857
  449MOL0     H60580  -1.037   9.235   1.491 -0.8721 -0.6395  1.3329
  449MOL0     H60581  -1.222   9.173   1.552  1.8501 -1.2909 -0.8611
  449MOL0     H60582  -1.121   9.039   1.612 -0.2964 -1.7300  1.5268
  449MOL0     H60583  -1.356   8.973   1.626 -0.6711 -0.1218 -1.6854
  449MOL0     H60584  -1.306   9.027   1.797 -3.0637  2.6901  1.0695
  449MOL0     H60585  -1.465   9.190   1.580  1.3092 -2.3884 -1.4700
  449MOL0     H60586  -1.445   9.219   1.760 -1.6081  1.0914 -1.1016
  449MOL0     H60587  -1.613   8.990   1.641 -0.4053  1.3696 -0.5368
  449MOL0     H60588  -1.536   8.985   1.796 -1.2015  0.0239  0.1008
  449MOL0     H60589  -1.675   9.238   1.821  1.5512 -0.3784  0.4754
  449MOL0     H60590  -1.744   9.078   1.865  0.5714  1.5772 -0.0825
  449MOL0     H60591  -1.756   9.205   1.596  0.8885 -0.3878  1.2549
  449MOL0     H60592  -1.838   9.050   1.645 -2.2074 -0.3393 -1.3663
  449MOL0     H60593  -1.908   9.335   1.754  1.3176  0.1119 -3.3733
  449MOL0     H60594  -1.964   9.180   1.821  2.0534  0.3447  0.6643
  449MOL0     H60595  -2.047   9.113   1.582  0.2734  0.0140  0.2246
  449MOL0     H60596  -2.064   9.286   1.548 -2.6475  0.3231  0.5027
  449MOL0     H60597  -0.971   9.303   1.904 -0.6227  3.7570 -0.1486
  449MOL0     H60598  -0.730   9.397   1.846  0.4548 -0.8969 -0.7281
  449MOL0     H60599  -0.429   9.574   1.594  0.4022 -1.2537  0.4486
  449MOL0     H60600  -0.227   9.687   1.485 -0.3498  1.1345  0.4131
  449MOL0     H60601   0.771   9.235   1.317 -0.1568 -0.1897 -0.5608
  449MOL0     H60602   0.602   9.097   1.474  1.2735  1.6751  2.2443
  449MOL0     H60603   0.123   9.132   1.570 -1.0478 -0.2789  0.3557
  449MOL0     H60604  -0.066   9.051   1.675  1.6209  0.9942  0.8935
  449MOL0     H60605  -0.177   8.608   1.691 -0.9800 -2.4831  1.6320
  449MOL0     H60606  -0.090   8.637   1.835 -1.6249 -0.5728  2.2755
  449MOL0     H60607  -0.368   8.737   1.806  1.2615 -1.6721 -2.1394
  449MOL0     H60608  -0.274   8.711   1.956 -0.9516  2.4439 -0.8578
  449MOL0     H60609  -0.391   8.487   1.770  1.3236  0.2454 -0.1324
  449MOL0     H60610  -0.445   8.526   1.935  1.4559  1.4553  2.0705
  449MOL0     H60611  -0.318   8.345   1.986 -0.7507 -0.0405 -1.3463
  449MOL0     H60612  -0.212   8.470   2.013 -1.8227  0.3304  0.8592
  449MOL0     H60613  -0.036   8.219   1.713 -1.6134 -1.0189 -2.1520
  449MOL0     H60614   0.092   8.665   1.725  0.0953 -0.3854 -0.0163
  449MOL0     H60615   0.292   8.730   1.632  0.0199 -0.6452  0.2586
  450MOL0     O60616   6.369   7.255   5.197  0.2546  0.2384  0.1716
  450MOL0     C60617   6.389   7.170   5.102  0.0715  0.4328 -0.2915
  450MOL0     O60618   6.294   7.123   5.012 -0.9617 -0.2775 -0.8182
  450MOL0     C60619   6.167   7.167   5.014  0.9172  0.2581 -0.3372
  450MOL0     C60620   6.065   7.107   5.092 -0.7059 -0.1074 -0.5529
  450MOL0     C60621   5.936   7.160   5.090  0.9713 -0.4819  0.7695
  450MOL0     C60622   5.901   7.265   5.004 -0.8554 -0.0825 -0.4104
  450MOL0     O60623   5.773   7.312   4.975  0.0144  0.4001  0.1130
  450MOL0     C60624   5.657   7.250   5.029 -0.7979 -0.0984 -0.3826
  450MOL0     C60625   5.529   7.315   4.958  0.6248  0.4993  0.6732
  450MOL0     C60626   5.531   7.298   4.808 -0.2918  0.3436  0.0344
  450MOL0     C60627   5.395   7.334   4.745 -0.1802  0.1496  0.1749
  450MOL0     C60628   5.409   7.304   4.595  0.3827 -0.2935  0.3971
  450MOL0     C60629   5.286   7.347   4.511 -0.2537  1.3925 -0.0092
  450MOL0     C60630   5.273   7.269   4.381  0.0606 -0.0921 -0.2132
  450MOL0     C60631   5.398   7.297   4.297  1.2147  0.1021 -0.2972
  450MOL0     N60632   5.388   7.260   4.154  0.6428  1.1436  0.1805
  450MOL0     C60633   5.466   7.158   4.089  0.5682  0.1117 -0.2344
  450MOL0     C60634   5.472   7.198   3.966  0.1091 -0.5643 -0.2819
  450MOL0     C60635   5.564   7.134   3.855  0.1135  0.0572 -0.5152
  450MOL0     C60636   5.677   7.220   3.790 -0.1595  0.3547 -0.8870
  450MOL0     C60637   5.775   7.267   3.891 -0.2979  1.0452 -0.1313
  450MOL0     C60638   5.919   7.259   3.841 -0.2098 -0.8659  0.0294
  450MOL0     O60639   5.954   7.354   3.742  0.3869 -0.9133 -0.1383
  450MOL0     C60640   6.083   7.395   3.752  0.1489 -0.3115 -0.5026
  450MOL0     C60641   6.190   7.308   3.799 -0.3426  0.0849 -0.0591
  450MOL0     C60642   6.325   7.347   3.797  0.1140  0.0064 -0.7986
  450MOL0     C60643   6.423   7.251   3.852  0.7015 -0.5073 -0.2210
  450MOL0     C60644   6.362   7.476   3.739  0.7525 -0.3043 -0.1687
  450MOL0     C60645   6.494   7.537   3.733 -0.3188 -0.3496  0.3340
  450MOL0     O60646   6.508   7.667   3.703  0.1272 -0.1309 -1.1367
  450MOL0     C60647   6.631   7.726   3.723  0.3192  0.5247  0.7727
  450MOL0     C60648   6.742   7.676   3.662 -0.0390 -0.2531  0.2270
  450MOL0     C60649   6.865   7.748   3.682  0.6085 -1.0203  1.0442
  450MOL0     C60650   6.881   7.861   3.761 -0.2654 -0.0367  0.3652
  450MOL0     O60651   6.988   7.945   3.775 -0.6891  0.0748 -0.2574
  450MOL0     C60652   7.120   7.903   3.737  0.3114  0.5562  0.5142
  450MOL0     C60653   7.212   7.999   3.804 -0.6833 -0.8576  0.1631
  450MOL0     C60654   7.362   7.989   3.766 -0.2641  0.3533 -0.2826
  450MOL0     C60655   7.429   7.862   3.801  0.2754  0.0168  0.1946
  450MOL0     C60656   7.572   7.860   3.738 -0.3805 -0.1367 -1.1636
  450MOL0     C60657   7.642   7.726   3.794  0.6360 -0.1951  0.8827
  450MOL0     C60658   7.767   7.676   3.720  0.0535 -0.2933  0.4525
  450MOL0     C60659   7.836   7.548   3.776 -0.0227 -0.1559 -0.2663
  450MOL0    Cl60660   7.728   7.410   3.774 -0.1642  0.4920  0.0326
  450MOL0     C60661   6.772   7.899   3.830 -0.3085 -0.4781  0.5227
  450MOL0     C60662   6.647   7.835   3.805 -0.9481  0.7667 -0.4395
  450MOL0     O60663   6.587   7.464   3.754 -0.2885  0.3680 -0.6585
  450MOL0     C60664   6.254   7.554   3.686  0.3799 -0.3558  0.0621
  450MOL0     C60665   6.119   7.519   3.692 -0.0208  0.4428 -0.4743
  450MOL0     N60666   5.399   7.308   3.936 -0.2521  0.7090  0.8939
  450MOL0     N60667   5.348   7.342   4.055 -0.0125 -0.2859  0.4692
  450MOL0     C60668   6.003   7.330   4.926 -0.7154 -0.4253 -0.2610
  450MOL0     C60669   6.131   7.279   4.929  0.3719 -0.1054  0.4420
  450MOL0     C60670   6.516   7.097   5.118  0.0215  0.0027  0.3437
  450MOL0     C60671   6.621   7.150   5.195 -0.6145  0.4098  0.0741
  450MOL0     C60672   6.744   7.081   5.211 -0.0599 -0.7527 -0.5545
  450MOL0     C60673   6.767   6.959   5.145 -0.5023 -0.0599  0.9454
  450MOL0     O60674   6.885   6.894   5.169  0.0829  0.4864  0.0271
  450MOL0     C60675   6.973   6.855   5.056 -0.8411  0.2370  0.7978
  450MOL0     C60676   7.111   6.919   5.074 -0.2706  0.1484  0.0644
  450MOL0     C60677   7.191   6.849   5.190 -0.0190 -0.0252 -0.5992
  450MOL0     C60678   7.308   6.937   5.229  1.0192 -0.2045 -0.0927
  450MOL0     C60679   7.262   7.057   5.297  0.4755 -0.9576 -0.0796
  450MOL0     C60680   7.225   7.164   5.348 -0.0247 -0.0870  0.1851
  450MOL0     C60681   6.662   6.906   5.064 -0.5152  0.6954  0.5661
  450MOL0     C60682   6.543   6.973   5.055  0.0136  0.8378  0.0586
  450MOL0     H60683   6.091   7.026   5.159 -2.4437  0.1590  0.4862
  450MOL0     H60684   5.856   7.119   5.151 -0.1199 -0.1580 -0.3923
  450MOL0     H60685   5.663   7.143   5.006 -1.1431 -0.4384  0.9643
  450MOL0     H60686   5.656   7.270   5.137  0.3628  1.4668 -0.6354
  450MOL0     H60687   5.436   7.271   4.995  0.3931 -0.3339 -0.8213
  450MOL0     H60688   5.516   7.422   4.977 -2.6858  0.5003 -0.8539
  450MOL0     H60689   5.609   7.360   4.764 -1.7879  1.5022 -1.0933
  450MOL0     H60690   5.545   7.194   4.780 -0.8674  0.5443 -1.0578
  450MOL0     H60691   5.322   7.261   4.782  0.2634 -0.3546  0.0706
  450MOL0     H60692   5.365   7.435   4.774  0.3600  0.8997 -1.7681
  450MOL0     H60693   5.498   7.347   4.548 -0.5153  1.0265 -0.1686
  450MOL0     H60694   5.423   7.196   4.596  0.3319 -0.2985  0.5925
  450MOL0     H60695   5.203   7.319   4.577  0.8898  1.7604  1.6462
  450MOL0     H60696   5.282   7.452   4.481  0.8944  1.0875 -1.3527
  450MOL0     H60697   5.260   7.162   4.396  0.7143 -0.3354 -1.2483
  450MOL0     H60698   5.184   7.310   4.333  1.4883  2.2123 -1.0477
  450MOL0     H60699   5.488   7.250   4.338  0.2996 -2.0393 -0.6250
  450MOL0     H60700   5.409   7.406   4.302  0.2415  0.1550  1.3139
  450MOL0     H60701   5.520   7.076   4.134  0.4352 -0.3005 -0.8067
  450MOL0     H60702   5.604   7.034   3.877 -0.2986 -0.1302 -0.5960
  450MOL0     H60703   5.487   7.116   3.779 -2.1622 -0.4525  1.7606
  450MOL0     H60704   5.635   7.306   3.738  0.7135  0.8191 -0.8430
  450MOL0     H60705   5.717   7.149   3.717  2.5637  0.6747  0.1802
  450MOL0     H60706   5.766   7.209   3.983 -0.4684  0.6265 -0.4072
  450MOL0     H60707   5.749   7.366   3.931 -1.6044 -0.1762  2.2323
  450MOL0     H60708   5.944   7.156   3.814  0.2374 -1.2561  1.8045
  450MOL0     H60709   5.982   7.280   3.928 -1.7092 -0.7251  1.1165
  450MOL0     H60710   6.172   7.210   3.840  1.7315  0.7779  2.7277
  450MOL0     H60711   6.493   7.296   3.922 -0.3618 -0.3605  0.7676
  450MOL0     H60712   6.386   7.172   3.918 -0.6961 -0.5319 -1.0012
  450MOL0     H60713   6.460   7.218   3.754  0.4058  2.1615 -1.3172
  450MOL0     H60714   6.739   7.581   3.609  2.0262 -0.7811  0.9643
  450MOL0     H60715   6.950   7.716   3.622 -1.3271 -1.2087 -1.8481
  450MOL0     H60716   7.133   7.801   3.775 -1.9799 -1.1242 -2.7497
  450MOL0     H60717   7.125   7.898   3.628 -0.7562 -3.8853  0.4893
  450MOL0     H60718   7.187   8.105   3.798  0.5042 -0.1498  4.3098
  450MOL0     H60719   7.204   7.981   3.912  2.0420  1.5912  0.9260
  450MOL0     H60720   7.418   8.069   3.814  2.0867 -0.2636 -1.8197
  450MOL0     H60721   7.376   7.998   3.658  0.3634 -2.1197 -0.4670
  450MOL0     H60722   7.424   7.862   3.910  0.1734  0.6383  0.1899
  450MOL0     H60723   7.368   7.779   3.765 -1.7121  0.1744  2.8909
  450MOL0     H60724   7.640   7.945   3.746 -0.5120  0.1871 -3.0715
  450MOL0     H60725   7.559   7.848   3.630 -1.9716  1.9419 -1.2593
  450MOL0     H60726   7.664   7.747   3.900 -1.9532  2.1966  1.0757
  450MOL0     H60727   7.566   7.650   3.774 -0.6251  2.0245 -4.5843
  450MOL0     H60728   7.835   7.761   3.728 -1.4119  0.8005  2.2972
  450MOL0     H60729   7.737   7.651   3.618 -1.4989 -2.0514  1.2686
  450MOL0     H60730   7.861   7.567   3.881  2.5457 -0.6871 -0.7252
  450MOL0     H60731   7.930   7.522   3.728  0.8716 -1.5942  2.1037
  450MOL0     H60732   6.794   7.975   3.905 -1.7914 -0.9133  1.4359
  450MOL0     H60733   6.556   7.862   3.858  1.1168 -0.2461  4.1239
  450MOL0     H60734   6.272   7.652   3.643 -0.2318  0.8540  2.3983
  450MOL0     H60735   6.050   7.584   3.640  1.8315  3.7151  0.8650
  450MOL0     H60736   5.976   7.412   4.860 -1.6025  1.7415  2.5871
  450MOL0     H60737   6.207   7.323   4.865  2.6823 -2.6265  1.2651
  450MOL0     H60738   6.620   7.242   5.253 -0.2958  0.3194  0.2226
  450MOL0     H60739   6.818   7.129   5.274 -1.2442 -1.4850  1.4745
  450MOL0     H60740   6.980   6.747   5.045  1.9563  0.3731  0.5279
  450MOL0     H60741   6.937   6.887   4.958 -0.5409  0.7985  0.8635
  450MOL0     H60742   7.091   7.024   5.097 -0.7615  0.4419 -1.5530
  450MOL0     H60743   7.168   6.913   4.981 -0.9744  0.0020 -0.3599
  450MOL0     H60744   7.227   6.748   5.168 -3.9948 -2.0322  1.1631
  450MOL0     H60745   7.117   6.843   5.270 -1.2210 -0.0276 -1.6894
  450MOL0     H60746   7.372   6.967   5.145  1.2196 -1.9535 -0.5919
  450MOL0     H60747   7.371   6.879   5.297  1.3133  0.0142 -0.1765
  450MOL0     H60748   7.198   7.254   5.399  1.1842 -0.1370  0.9433
  450MOL0     H60749   6.676   6.814   5.009 -0.4633  0.5298  0.8562
  450MOL0     H60750   6.463   6.936   4.992  0.6892  1.4351 -1.1750
  451MOL0     O60751   6.912   0.282   4.968 -0.0450 -0.1408  0.5819
  451MOL0     C60752   6.854   0.179   5.013  0.3730  0.3465 -0.4591
  451MOL0     O60753   6.917   0.055   5.042  0.1522 -0.2194  0.7404
  451MOL0     C60754   7.043   0.055   5.006 -0.3240  0.6523  0.4204
  451MOL0     C60755   7.086   0.022   4.876 -0.0092 -0.9860 -0.7761
  451MOL0     C60756   7.223   0.007   4.841 -0.2917  0.1904  0.1087
  451MOL0     C60757   7.321   0.038   4.944  1.2483  0.1393 -0.5328
  451MOL0     O60758   7.458   0.032   4.928  0.6150  0.1404  0.2549
  451MOL0     C60759   7.513   0.077   4.801  0.2874  1.1799  0.4211
  451MOL0     C60760   7.659   0.055   4.776 -0.3343 -0.3106 -0.6088
  451MOL0     C60761   7.748   0.137   4.875 -0.0400  0.0280 -0.2649
  451MOL0     C60762   7.748   0.092   5.018  0.1881  0.2503  0.3198
  451MOL0     C60763   7.835   0.203   5.093 -0.2099 -0.5130 -0.3438
  451MOL0     C60764   7.853   0.167   5.239 -0.0704 -0.2813 -0.4436
  451MOL0     C60765   7.967   0.243   5.307  0.1249  0.4249 -0.1781
  451MOL0     C60766   7.985   0.192   5.453  0.5840 -0.1926 -0.6323
  451MOL0     N60767   7.870   0.208   5.537  0.5159  0.2590 -0.6301
  451MOL0     C60768   7.774   0.111   5.558 -0.3350  0.8290 -0.1936
  451MOL0     C60769   7.673   0.172   5.626 -1.1147  0.7063 -0.4331
  451MOL0     C60770   7.549   0.142   5.709  0.8889 -0.2326 -0.0872
  451MOL0     C60771   7.480   0.014   5.651 -0.6225 -0.5993 -0.3039
  451MOL0     C60772   7.415   0.052   5.516 -0.6879  0.0884 -0.5398
  451MOL0     C60773   7.353  -0.060   5.432  0.0013 -0.0331 -0.0262
  451MOL0     O60774   7.282  -0.155   5.513 -0.7308 -0.6283  0.0528
  451MOL0     C60775   7.150  -0.142   5.548  0.2702  0.2668  0.2125
  451MOL0     C60776   7.070  -0.042   5.502 -0.2544  0.6628  0.8077
  451MOL0     C60777   6.928  -0.052   5.497 -0.0158  0.1575 -0.8901
  451MOL0     C60778   6.850   0.049   5.424  0.1064  0.1996  0.1194
  451MOL0     C60779   6.861  -0.154   5.578  0.1576 -0.1886  0.6856
  451MOL0     C60780   6.709  -0.170   5.580  0.8458  0.0622 -0.4960
  451MOL0     O60781   6.626  -0.064   5.545  0.6729  0.4175  0.1076
  451MOL0     C60782   6.492  -0.098   5.535  0.0285 -0.2970  0.1422
  451MOL0     C60783   6.438  -0.145   5.415  0.2759 -0.0265 -0.4017
  451MOL0     C60784   6.297  -0.160   5.404 -0.0039 -0.1140 -1.0150
  451MOL0     C60785   6.207  -0.138   5.514  0.4408  0.5739 -0.1406
  451MOL0     O60786   6.065  -0.148   5.515  0.6649 -0.8652  0.2498
  451MOL0     C60787   6.015  -0.226   5.405 -0.0765 -0.1660 -0.7120
  451MOL0     C60788   5.858  -0.228   5.405 -1.0210 -0.2735 -0.3213
  451MOL0     C60789   5.799  -0.098   5.348 -0.4628 -0.1758  0.4270
  451MOL0     C60790   5.657  -0.073   5.383 -0.9566 -0.6082  0.3531
  451MOL0     C60791   5.606   0.068   5.350  1.1164  0.0259  0.4629
  451MOL0     C60792   5.457   0.071   5.322  0.5180 -0.7386 -0.9553
  451MOL0     C60793   5.409   0.018   5.186  0.4757 -0.0160 -0.5314
  451MOL0     C60794   5.254   0.007   5.175 -0.9700  0.0443 -0.7461
  451MOL0    Cl60795   5.222  -0.125   5.285 -0.2340 -0.2320 -0.4010
  451MOL0     C60796   6.263  -0.094   5.628 -0.3901  0.1802 -1.1679
  451MOL0     C60797   6.403  -0.078   5.644 -0.1634  0.3608 -0.7872
  451MOL0     O60798   6.667  -0.279   5.623  0.4716 -0.3284  0.3568
  451MOL0     C60799   6.945  -0.246   5.638 -0.0165  0.0780  0.6198
  451MOL0     C60800   7.086  -0.241   5.610  0.7192 -0.2390  0.0687
  451MOL0     N60801   7.713   0.305   5.640  0.0294 -0.2413  0.3560
  451MOL0     N60802   7.820   0.326   5.579 -0.7999 -0.1979  0.0305
  451MOL0     C60803   7.282   0.063   5.069  0.1828 -0.4722  0.0050
  451MOL0     C60804   7.146   0.074   5.100 -0.0170 -0.2297  0.2149
  451MOL0     C60805   6.713   0.190   5.036 -0.1992  0.3640 -0.3590
  451MOL0     C60806   6.644   0.079   5.076  0.3917 -0.0441 -0.3631
  451MOL0     C60807   6.503   0.079   5.085  0.8094 -0.5014 -0.0709
  451MOL0     C60808   6.427   0.190   5.039 -0.0252 -0.1653 -0.9118
  451MOL0     O60809   6.293   0.205   5.069  0.0744  0.4865  0.2288
  451MOL0     C60810   6.221   0.105   5.142  0.5894 -0.5081  0.9147
  451MOL0     C60811   6.072   0.131   5.158 -0.1220 -0.7757  0.4682
  451MOL0     C60812   5.993   0.138   5.024 -1.1607 -0.3234  0.0093
  451MOL0     C60813   5.846   0.164   5.048  0.1479  0.2985  0.9635
  451MOL0     C60814   5.772   0.072   4.963  0.1313 -0.8815  0.7286
  451MOL0     C60815   5.715  -0.006   4.887 -0.5121 -0.8097 -0.0601
  451MOL0     C60816   6.499   0.298   4.985 -0.7589 -0.1747  0.4229
  451MOL0     C60817   6.639   0.297   4.978 -0.0414 -0.6431 -0.5994
  451MOL0     H60818   7.012   0.000   4.800 -0.5517 -1.3552 -0.1454
  451MOL0     H60819   7.253  -0.018   4.740  0.4966 -0.8372  0.5838
  451MOL0     H60820   7.466   0.022   4.720  0.3213  2.0051 -0.1713
  451MOL0     H60821   7.496   0.184   4.784  0.6109  1.5403  2.1395
  451MOL0     H60822   7.681  -0.052   4.787 -0.8349 -0.2297  1.8464
  451MOL0     H60823   7.678   0.073   4.670 -0.8008 -3.0227 -1.2152
  451MOL0     H60824   7.853   0.132   4.844  0.3337 -1.9170  1.1151
  451MOL0     H60825   7.707   0.238   4.872 -3.6124 -1.2888 -2.5684
  451MOL0     H60826   7.645   0.094   5.056  0.0065 -2.6025  0.1831
  451MOL0     H60827   7.790  -0.007   5.036  0.7899  0.6768  1.3269
  451MOL0     H60828   7.930   0.193   5.040  0.3326  1.5835  0.1401
  451MOL0     H60829   7.792   0.303   5.076  0.0573 -0.0729  1.3529
  451MOL0     H60830   7.761   0.192   5.292 -1.6028 -2.4229 -1.9336
  451MOL0     H60831   7.862   0.058   5.240 -2.2722 -0.4949 -0.0366
  451MOL0     H60832   8.062   0.229   5.253 -0.2103  1.6598 -1.1367
  451MOL0     H60833   7.948   0.351   5.306  2.3433  0.8942  0.9608
  451MOL0     H60834   8.054   0.250   5.516 -0.0031 -0.1572 -0.0173
  451MOL0     H60835   8.024   0.089   5.457  0.7796 -0.1098 -0.2917
  451MOL0     H60836   7.797   0.007   5.538  0.6765  0.8146  0.9462
  451MOL0     H60837   7.575   0.121   5.813 -1.2450  1.5851  0.9088
  451MOL0     H60838   7.481   0.227   5.716 -1.1362 -1.8372  0.7992
  451MOL0     H60839   7.412  -0.012   5.732  2.0294 -1.4581  1.8033
  451MOL0     H60840   7.548  -0.072   5.648  0.8709  0.5107  0.4016
  451MOL0     H60841   7.491   0.095   5.451  1.1898 -1.6509  0.4044
  451MOL0     H60842   7.341   0.131   5.532  1.5384  1.7915  2.1596
  451MOL0     H60843   7.437  -0.115   5.389 -2.1362 -2.9044 -0.7972
  451MOL0     H60844   7.295  -0.018   5.350 -1.2365 -0.6377  0.5124
  451MOL0     H60845   7.111   0.041   5.446 -0.1931  1.2379  1.6978
  451MOL0     H60846   6.800   0.116   5.495  3.4700  1.5319  1.4567
  451MOL0     H60847   6.910   0.114   5.361 -3.0405  1.1120 -2.1600
  451MOL0     H60848   6.785  -0.003   5.354  0.1854 -0.9644  0.8691
  451MOL0     H60849   6.505  -0.146   5.329 -0.0448 -0.5147 -0.6496
  451MOL0     H60850   6.263  -0.166   5.301  0.0335 -2.2334 -0.9578
  451MOL0     H60851   6.051  -0.199   5.306  0.1765 -0.7617 -0.7825
  451MOL0     H60852   6.045  -0.329   5.425  0.9806  0.1743 -0.4598
  451MOL0     H60853   5.825  -0.311   5.342  0.6298 -2.6201  1.7246
  451MOL0     H60854   5.821  -0.254   5.505  0.9439 -1.6766  0.1008
  451MOL0     H60855   5.804  -0.108   5.239  1.0385 -2.3890  0.6160
  451MOL0     H60856   5.862  -0.013   5.378  0.6931 -2.0562  3.9247
  451MOL0     H60857   5.593  -0.148   5.336 -1.2737 -0.2936  0.2757
  451MOL0     H60858   5.640  -0.085   5.490 -0.8793  0.2289  0.4621
  451MOL0     H60859   5.648   0.113   5.260 -0.2254  3.7662  1.5129
  451MOL0     H60860   5.623   0.140   5.430  0.9264  0.7457 -0.1271
  451MOL0     H60861   5.409   0.016   5.404 -0.0007 -2.9625 -2.6487
  451MOL0     H60862   5.429   0.176   5.328 -0.1797 -0.9832  1.0430
  451MOL0     H60863   5.459  -0.076   5.160  1.2159 -0.2079  1.4354
  451MOL0     H60864   5.435   0.086   5.104 -0.0343  0.3220 -0.4179
  451MOL0     H60865   5.199  -0.017   5.083 -1.2671 -0.5874 -0.4124
  451MOL0     H60866   5.224   0.100   5.224  1.2342  0.7996 -0.7427
  451MOL0     H60867   6.194  -0.066   5.707  0.8828  0.9705 -0.2966
  451MOL0     H60868   6.453  -0.044   5.734  1.9935 -3.2406 -0.4346
  451MOL0     H60869   6.910  -0.330   5.697  0.7636 -1.5826 -1.1675
  451MOL0     H60870   7.133  -0.332   5.647  1.2298 -1.4193 -3.1595
  451MOL0     H60871   7.357   0.092   5.142  0.9683 -3.1330  0.3644
  451MOL0     H60872   7.107   0.082   5.201 -0.3943  1.7051 -0.0471
  451MOL0     H60873   6.687  -0.020   5.090  0.6195  0.3387  2.0562
  451MOL0     H60874   6.460  -0.018   5.109  0.8378 -0.8416 -1.3271
  451MOL0     H60875   6.234   0.017   5.078 -1.7431  2.5433 -4.4032
  451MOL0     H60876   6.271   0.092   5.239  3.1627  2.6113  0.1808
  451MOL0     H60877   6.054   0.228   5.204  1.5373 -0.3618  0.3254
  451MOL0     H60878   6.030   0.051   5.219  1.5753 -1.8083  0.3479
  451MOL0     H60879   6.005   0.042   4.974 -0.1777 -0.3460  0.2695
  451MOL0     H60880   6.032   0.223   4.967 -1.2973 -0.9197 -0.9895
  451MOL0     H60881   5.824   0.269   5.026  1.2937  0.1017 -1.4392
  451MOL0     H60882   5.820   0.130   5.149 -0.9325  1.1265  0.9868
  451MOL0     H60883   5.672  -0.074   4.816  2.2610 -3.0766  0.2169
  451MOL0     H60884   6.441   0.381   4.945 -1.6484 -2.0196 -2.4560
  451MOL0     H60885   6.688   0.382   4.931  1.4223 -0.6794  0.7888
  452MOL0     O60886   7.575   7.026   3.472 -0.0322 -0.5765  0.5113
  452MOL0     C60887   7.687   7.023   3.416 -0.4205  0.5969 -0.4440
  452MOL0     O60888   7.752   6.906   3.380 -0.5852 -0.0697 -0.1248
  452MOL0     C60889   7.694   6.783   3.410 -0.4288  0.4792 -1.3360
  452MOL0     C60890   7.714   6.709   3.530 -0.1540 -0.5032  0.2558
  452MOL0     C60891   7.636   6.596   3.562  0.3265  0.0409 -0.2283
  452MOL0     C60892   7.545   6.550   3.471  0.0267 -0.6898 -0.2813
  452MOL0     O60893   7.488   6.422   3.500 -0.0572 -0.1568  0.4758
  452MOL0     C60894   7.386   6.371   3.408  0.3878 -0.0066 -0.3157
  452MOL0     C60895   7.334   6.233   3.435  0.4041  0.2877 -0.5296
  452MOL0     C60896   7.443   6.137   3.457 -0.0466  0.0082  0.2360
  452MOL0     C60897   7.389   5.996   3.461  0.6991 -0.5944 -1.1885
  452MOL0     C60898   7.507   5.900   3.496 -0.6140 -0.3258 -0.6901
  452MOL0     C60899   7.469   5.754   3.462  0.0492 -0.8579  0.1708
  452MOL0     C60900   7.569   5.655   3.521 -0.0454  0.2985  0.0430
  452MOL0     C60901   7.540   5.507   3.476  0.8054  0.0144 -0.5794
  452MOL0     N60902   7.426   5.448   3.536  0.3572 -0.5951 -0.6264
  452MOL0     C60903   7.291   5.479   3.505  0.4735  0.0529 -0.5752
  452MOL0     C60904   7.227   5.401   3.597  0.7403  0.3220  0.1092
  452MOL0     C60905   7.081   5.401   3.625 -0.1843 -0.5042 -0.0392
  452MOL0     C60906   7.046   5.470   3.761 -0.8395  0.7910  0.0530
  452MOL0     C60907   6.902   5.463   3.796 -0.5274 -1.0549  0.1382
  452MOL0     C60908   6.853   5.571   3.903 -0.4358  0.2220  0.1354
  452MOL0     O60909   6.785   5.496   3.999  0.8991  0.2002  0.1557
  452MOL0     C60910   6.652   5.451   3.968 -0.8832 -0.4682 -0.6735
  452MOL0     C60911   6.594   5.397   4.079  0.2702  0.6735 -0.4096
  452MOL0     C60912   6.458   5.351   4.083 -0.3000 -1.4832  0.4467
  452MOL0     C60913   6.401   5.310   4.205  0.3425  0.1584 -0.9456
  452MOL0     C60914   6.377   5.361   3.958  0.1746 -0.3457  0.4004
  452MOL0     C60915   6.239   5.305   3.939  1.0531 -1.1191 -0.1431
  452MOL0     O60916   6.196   5.213   4.038 -0.1298  0.3384 -0.0285
  452MOL0     C60917   6.067   5.155   4.019 -0.5484  0.1318  0.3784
  452MOL0     C60918   5.953   5.215   4.076  0.5058  0.6118 -0.4205
  452MOL0     C60919   5.831   5.153   4.070  0.0972  0.4499  0.4032
  452MOL0     C60920   5.815   5.033   4.007  0.3081  0.1861 -0.2873
  452MOL0     O60921   5.690   4.982   3.998  0.2824 -0.7451 -0.0878
  452MOL0     C60922   5.673   4.848   3.950  0.3804 -0.6576 -0.2831
  452MOL0     C60923   5.523   4.801   3.972  0.3908  0.2697  1.2305
  452MOL0     C60924   5.497   4.770   4.121 -0.1322  0.8106  0.2790
  452MOL0     C60925   5.358   4.719   4.140 -0.5544  0.6710 -0.1312
  452MOL0     C60926   5.325   4.697   4.281  1.4009  0.6076 -0.7424
  452MOL0     C60927   5.190   4.623   4.300  0.4006  0.3872 -0.4677
  452MOL0     C60928   5.145   4.616   4.442 -0.2848  0.4761 -0.0420
  452MOL0     C60929   5.098   4.751   4.481  0.1536  0.0921 -0.6181
  452MOL0    Cl60930   5.002   4.734   4.639 -0.0536  0.2423  0.3047
  452MOL0     C60931   5.928   4.972   3.950 -0.3278  0.5716  0.5576
  452MOL0     C60932   6.053   5.038   3.949 -0.2823  0.5504 -0.0445
  452MOL0     O60933   6.175   5.339   3.838 -0.2737  0.1147 -0.1225
  452MOL0     C60934   6.439   5.424   3.846  0.3918 -0.0097 -0.1388
  452MOL0     C60935   6.576   5.461   3.851 -1.1518  0.4743  0.7806
  452MOL0     N60936   7.307   5.310   3.665 -0.1771 -0.2519  0.9717
  452MOL0     N60937   7.430   5.358   3.635  0.2194  0.9621  0.3133
  452MOL0     C60938   7.514   6.629   3.355 -0.1026  0.0261  0.3470
  452MOL0     C60939   7.593   6.737   3.325 -0.5573  1.2252  0.4438
  452MOL0     C60940   7.760   7.146   3.398 -0.1813  0.3537  0.1040
  452MOL0     C60941   7.880   7.141   3.317  0.1971 -0.2934  0.7810
  452MOL0     C60942   7.957   7.254   3.299  0.8147 -0.6284  0.2607
  452MOL0     C60943   7.921   7.381   3.357  0.0201 -0.4288  0.2513
  452MOL0     O60944   8.008   7.490   3.340 -0.0037  0.3978  0.1150
  452MOL0     C60945   7.963   7.617   3.378 -0.9604 -0.6482 -0.0208
  452MOL0     C60946   8.062   7.708   3.300  0.4587  0.3567 -0.8119
  452MOL0     C60947   8.210   7.708   3.365  0.7457 -0.7632 -0.1774
  452MOL0     C60948   8.292   7.585   3.301  0.9673  0.0329  0.4680
  452MOL0     C60949   8.433   7.595   3.339  0.5017  0.2453  0.3256
  452MOL0     C60950   8.554   7.596   3.376  0.5316 -0.7224 -0.5646
  452MOL0     C60951   7.801   7.389   3.427 -0.3956 -0.5444 -0.0243
  452MOL0     C60952   7.715   7.272   3.446 -0.4319 -0.3360  0.0486
  452MOL0     H60953   7.785   6.755   3.599 -0.0458 -0.9469  0.4444
  452MOL0     H60954   7.648   6.541   3.655 -0.3160  1.6767  0.8720
  452MOL0     H60955   7.306   6.442   3.390  0.1718 -0.5247 -1.4950
  452MOL0     H60956   7.438   6.359   3.313  2.0180 -2.0886  0.7485
  452MOL0     H60957   7.266   6.253   3.518 -1.9106  2.0805 -2.7007
  452MOL0     H60958   7.267   6.207   3.353 -2.1959  0.9849  1.2667
  452MOL0     H60959   7.505   6.143   3.366 -2.4323 -1.8481 -1.6546
  452MOL0     H60960   7.504   6.160   3.544  3.3341  1.2079 -2.2156
  452MOL0     H60961   7.308   5.985   3.533  0.4488 -2.1546 -1.6812
  452MOL0     H60962   7.347   5.966   3.365 -0.0540 -0.5971 -0.8595
  452MOL0     H60963   7.602   5.929   3.449  1.7903 -2.3970  2.4561
  452MOL0     H60964   7.517   5.905   3.605  0.8370  3.5775 -0.8324
  452MOL0     H60965   7.370   5.732   3.501 -0.1430 -0.1848  0.0781
  452MOL0     H60966   7.470   5.750   3.353 -0.7663  1.4392  0.0304
  452MOL0     H60967   7.670   5.687   3.492  0.3904 -1.0192  0.0394
  452MOL0     H60968   7.561   5.645   3.630  4.3518 -1.7800  0.3941
  452MOL0     H60969   7.631   5.448   3.487  0.1627 -1.5604 -2.9151
  452MOL0     H60970   7.520   5.504   3.368 -0.8453 -2.0638 -0.2581
  452MOL0     H60971   7.241   5.553   3.445  1.9943  1.1926 -0.5073
  452MOL0     H60972   7.022   5.448   3.547 -1.1825 -1.3456  0.1804
  452MOL0     H60973   7.045   5.297   3.632  3.8528 -2.0071  2.3148
  452MOL0     H60974   7.083   5.572   3.744  0.1855  0.2827 -0.8781
  452MOL0     H60975   7.106   5.435   3.845  0.3176  1.5184 -0.4449
  452MOL0     H60976   6.896   5.363   3.841 -0.2826 -0.2881  1.9688
  452MOL0     H60977   6.839   5.478   3.708  1.3714  0.6100 -1.0240
  452MOL0     H60978   6.791   5.647   3.855  3.2188  0.8492 -4.3910
  452MOL0     H60979   6.932   5.623   3.960 -1.0395  2.0707 -0.6473
  452MOL0     H60980   6.656   5.392   4.168 -0.0713  0.0924 -0.1965
  452MOL0     H60981   6.382   5.203   4.211 -0.8671  0.0886 -4.1824
  452MOL0     H60982   6.468   5.343   4.286  0.5246 -1.4087 -0.4291
  452MOL0     H60983   6.310   5.368   4.222  1.7788  2.1493  0.5471
  452MOL0     H60984   5.973   5.310   4.124 -0.7350  1.0225 -0.6895
  452MOL0     H60985   5.740   5.200   4.105  0.7019  3.9611 -2.1830
  452MOL0     H60986   5.690   4.840   3.842 -3.6400  0.6154 -1.1815
  452MOL0     H60987   5.734   4.774   4.002 -1.0339 -0.1658  2.2400
  452MOL0     H60988   5.450   4.868   3.926 -0.5081 -0.5860  1.3722
  452MOL0     H60989   5.516   4.712   3.909  1.2291  1.7092 -1.0161
  452MOL0     H60990   5.507   4.858   4.186 -2.3007  1.5354 -0.2865
  452MOL0     H60991   5.565   4.692   4.156 -0.6743  0.4281  0.4870
  452MOL0     H60992   5.275   4.777   4.100 -0.7776  0.7356  0.4196
  452MOL0     H60993   5.364   4.617   4.101 -0.4272  0.2506  0.9438
  452MOL0     H60994   5.315   4.793   4.332  1.7409 -0.5823  1.6959
  452MOL0     H60995   5.418   4.657   4.323  1.8472  2.9993  0.7287
  452MOL0     H60996   5.118   4.674   4.236 -0.9583 -2.9434 -1.8219
  452MOL0     H60997   5.199   4.519   4.269 -1.4999 -0.2372  0.9148
  452MOL0     H60998   5.209   4.582   4.523 -2.2377 -0.1373  1.3122
  452MOL0     H60999   5.063   4.543   4.447  0.7382 -0.6771  0.4463
  452MOL0     H61000   5.026   4.799   4.414 -0.9021  1.5192  1.4032
  452MOL0     H61001   5.186   4.815   4.490  0.7471 -0.7091 -0.6178
  452MOL0     H61002   5.907   4.883   3.891 -1.9295  1.2571  0.0121
  452MOL0     H61003   6.143   5.006   3.898 -0.4692  0.6303 -0.4267
  452MOL0     H61004   6.381   5.444   3.757  2.2446 -0.4946 -1.5183
  452MOL0     H61005   6.629   5.489   3.761  3.8569  0.7013  3.4267
  452MOL0     H61006   7.436   6.600   3.285  1.4848  0.6357 -1.7826
  452MOL0     H61007   7.569   6.789   3.232 -5.0195  1.1409  1.3286
  452MOL0     H61008   7.920   7.057   3.261  2.8361  2.8319 -2.5072
  452MOL0     H61009   8.042   7.251   3.232 -1.5225  1.3006 -3.0853
  452MOL0     H61010   7.862   7.639   3.344 -0.8812 -1.4983 -0.8527
  452MOL0     H61011   7.979   7.622   3.486 -1.2074  0.6923 -0.0248
  452MOL0     H61012   8.028   7.811   3.306 -0.3326  0.0433  0.3119
  452MOL0     H61013   8.063   7.669   3.197  1.8198 -0.5974 -0.4733
  452MOL0     H61014   8.209   7.691   3.473  2.1051 -1.4032 -0.2392
  452MOL0     H61015   8.265   7.799   3.343  0.1718 -0.7702 -1.7385
  452MOL0     H61016   8.288   7.589   3.192 -1.0414 -1.2152  0.4292
  452MOL0     H61017   8.256   7.488   3.336  1.4862  0.0140  0.9523
  452MOL0     H61018   8.657   7.610   3.400  0.7135  1.4724 -2.2613
  452MOL0     H61019   7.761   7.482   3.466 -3.1438 -0.5725 -2.4315
  452MOL0     H61020   7.625   7.295   3.502  1.8179  2.2204  2.9706
  453MOL0     O61021   6.186   5.921   3.220  0.4002  0.2044 -0.4912
  453MOL0     C61022   6.202   6.015   3.150  0.2772  0.2198 -0.4002
  453MOL0     O61023   6.102   6.107   3.110 -0.5324 -0.6136 -0.0808
  453MOL0     C61024   5.975   6.087   3.143  0.6135  0.5628  0.3756
  453MOL0     C61025   5.917   5.959   3.131  0.1346 -0.0928  0.4197
  453MOL0     C61026   5.778   5.945   3.145 -0.7359  0.6236 -0.6838
  453MOL0     C61027   5.691   6.056   3.173  0.1053 -0.0624  0.7651
  453MOL0     O61028   5.553   6.052   3.196 -0.3530  0.3167  0.3726
  453MOL0     C61029   5.487   5.926   3.197  0.1893 -0.3945  0.0647
  453MOL0     C61030   5.338   5.962   3.204 -0.7270 -0.8816  0.7979
  453MOL0     C61031   5.253   5.838   3.181 -0.1162 -0.9902  0.7868
  453MOL0     C61032   5.099   5.854   3.190 -0.1151  0.3492 -0.4044
  453MOL0     C61033   5.033   5.719   3.138  0.4142 -0.1335  0.2384
  453MOL0     C61034   4.880   5.730   3.104  0.4773 -1.3452 -0.4539
  453MOL0     C61035   4.798   5.770   3.231  0.4815 -0.4301  0.5679
  453MOL0     C61036   4.652   5.751   3.209  0.1010  0.2907 -0.0794
  453MOL0     N61037   4.561   5.751   3.329 -1.3714 -0.3940  0.4121
  453MOL0     C61038   4.425   5.756   3.313 -0.4509  0.4285  0.0159
  453MOL0     C61039   4.368   5.767   3.439  0.4186 -0.2894 -0.6321
  453MOL0     C61040   4.218   5.770   3.473  0.3638 -0.6298  0.1409
  453MOL0     C61041   4.122   5.787   3.350 -0.6272  0.2017  0.0903
  453MOL0     C61042   3.976   5.775   3.384 -0.1443  0.2163  0.0351
  453MOL0     C61043   3.941   5.875   3.503 -0.6741  1.0325 -0.1958
  453MOL0     O61044   3.795   5.862   3.535  0.1121  0.0055  0.2700
  453MOL0     C61045   3.702   5.905   3.440 -0.1731 -0.3204 -0.3858
  453MOL0     C61046   3.736   5.996   3.336  0.0831  0.4562 -0.0179
  453MOL0     C61047   3.643   6.057   3.241  0.9473  0.7660  0.0689
  453MOL0     C61048   3.703   6.133   3.131 -0.1119  0.1166  1.2507
  453MOL0     C61049   3.497   6.020   3.263 -0.7370 -0.2149  0.5041
  453MOL0     C61050   3.384   6.062   3.179  0.7063 -0.7399 -0.0698
  453MOL0     O61051   3.267   6.005   3.210  0.2067  0.5867  0.2299
  453MOL0     C61052   3.153   6.066   3.162  0.1992 -0.3842  0.9201
  453MOL0     C61053   3.084   6.004   3.053  0.0734  0.1788  0.1863
  453MOL0     C61054   2.965   6.054   3.007  0.3838  0.3912 -0.6593
  453MOL0     C61055   2.912   6.172   3.062  0.6704 -0.0772 -0.8174
  453MOL0     O61056   2.790   6.227   3.029  0.4556  0.5733  0.9652
  453MOL0     C61057   2.682   6.133   3.012  0.6308  0.2570  0.4501
  453MOL0     C61058   2.578   6.201   2.925 -0.4845 -0.8851  0.0073
  453MOL0     C61059   2.477   6.094   2.872 -0.8314 -0.2222 -0.5717
  453MOL0     C61060   2.352   6.165   2.809  0.2021  0.8524 -0.1734
  453MOL0     C61061   2.376   6.232   2.682  0.5914 -0.4165  0.1004
  453MOL0     C61062   2.239   6.236   2.620  0.4344  0.6054 -0.2660
  453MOL0     C61063   2.240   6.321   2.491 -1.5172 -0.6838  0.7679
  453MOL0     C61064   2.098   6.326   2.440 -0.6026  0.3084 -0.5035
  453MOL0    Cl61065   2.067   6.157   2.370  0.4884 -0.3206 -0.0289
  453MOL0     C61066   2.985   6.240   3.162  0.1327 -0.4804 -0.2940
  453MOL0     C61067   3.096   6.178   3.224  0.4579  0.3517  0.0005
  453MOL0     O61068   3.405   6.136   3.080 -0.2502  0.4420 -0.2324
  453MOL0     C61069   3.470   5.942   3.374 -0.1672  0.3179  0.1532
  453MOL0     C61070   3.563   5.887   3.461 -0.0278 -0.1480  0.8412
  453MOL0     N61071   4.482   5.775   3.530 -0.4259  0.0102 -0.0926
  453MOL0     N61072   4.591   5.753   3.462  0.1759  0.1457  0.5458
  453MOL0     C61073   5.761   6.186   3.172 -0.3117 -0.1118 -0.1845
  453MOL0     C61074   5.895   6.196   3.162 -1.2433 -0.0786 -0.0710
  453MOL0     C61075   6.336   6.040   3.101  0.5615 -0.7002 -0.2880
  453MOL0     C61076   6.368   6.146   3.017 -0.5962  0.5578 -0.1353
  453MOL0     C61077   6.500   6.161   2.976  0.1940  0.2523  0.5968
  453MOL0     C61078   6.603   6.073   3.002 -0.7845 -0.7820 -0.0116
  453MOL0     O61079   6.720   6.086   2.927  0.2280  0.4507 -0.4158
  453MOL0     C61080   6.825   5.996   2.960 -0.5748  0.4927 -0.6615
  453MOL0     C61081   6.955   6.061   2.912  0.7790  0.5710  0.9471
  453MOL0     C61082   7.072   5.968   2.936 -0.0130 -0.8866 -0.5112
  453MOL0     C61083   7.200   6.048   2.894  0.4390 -0.0644  0.1660
  453MOL0     C61084   7.307   5.960   2.905  0.1148  0.0594 -0.1749
  453MOL0     C61085   7.412   5.894   2.903  0.2635 -0.5799  0.4550
  453MOL0     C61086   6.571   5.964   3.086 -0.2985 -0.9233 -0.6263
  453MOL0     C61087   6.437   5.949   3.138 -0.7139  0.2957  0.6876
  453MOL0     H61088   5.981   5.875   3.108  3.1641  1.7175  1.4871
  453MOL0     H61089   5.734   5.846   3.155  0.3877  0.0237 -1.4768
  453MOL0     H61090   5.502   5.865   3.108  0.0365 -2.3174  1.2974
  453MOL0     H61091   5.518   5.857   3.276  0.5487  0.4587  0.6854
  453MOL0     H61092   5.314   6.008   3.301 -1.0645 -0.5533  0.5612
  453MOL0     H61093   5.318   6.027   3.118  0.7902 -1.0286  0.2935
  453MOL0     H61094   5.282   5.808   3.080  1.2643 -0.2789  0.9463
  453MOL0     H61095   5.292   5.762   3.249 -0.1630 -2.0289 -0.3203
  453MOL0     H61096   5.079   5.875   3.295  1.4405 -1.1774  0.2426
  453MOL0     H61097   5.062   5.930   3.121 -0.9076 -0.4422 -0.8801
  453MOL0     H61098   5.087   5.695   3.046  0.7554  0.2516  0.3385
  453MOL0     H61099   5.051   5.635   3.205 -1.1461  1.1032  2.3217
  453MOL0     H61100   4.870   5.804   3.024 -1.4675 -2.0566 -0.9377
  453MOL0     H61101   4.841   5.634   3.069  0.5222 -0.8368 -1.9617
  453MOL0     H61102   4.821   5.699   3.311 -0.3639 -2.9980 -1.3314
  453MOL0     H61103   4.823   5.864   3.281  0.1327 -0.2443  0.3912
  453MOL0     H61104   4.639   5.657   3.156 -0.8114 -1.5990  3.2396
  453MOL0     H61105   4.622   5.838   3.149  2.9030  0.9966 -0.6323
  453MOL0     H61106   4.375   5.757   3.217  0.7130  0.8639 -0.6024
  453MOL0     H61107   4.184   5.689   3.538 -2.2190  1.7469  1.9970
  453MOL0     H61108   4.206   5.860   3.534 -0.5797 -0.1776 -0.6942
  453MOL0     H61109   4.143   5.706   3.280  1.3431  0.2662  0.5417
  453MOL0     H61110   4.148   5.885   3.309  1.4105  0.0514  0.8750
  453MOL0     H61111   3.957   5.670   3.407  2.6072 -0.3407  0.0093
  453MOL0     H61112   3.914   5.805   3.298  1.1704  1.5290 -0.5016
  453MOL0     H61113   3.967   5.976   3.471  2.0259  0.2492 -0.7303
  453MOL0     H61114   3.994   5.851   3.595 -1.0955  0.9307  0.0231
  453MOL0     H61115   3.839   6.026   3.321 -0.0571  0.8145 -0.2618
  453MOL0     H61116   3.704   6.072   3.041 -0.6894  1.7151  0.1257
  453MOL0     H61117   3.651   6.226   3.108 -0.1452 -0.1808  0.0717
  453MOL0     H61118   3.806   6.159   3.157 -0.2314  0.3869  1.4614
  453MOL0     H61119   3.120   5.916   3.000  0.6551  0.5890 -0.1118
  453MOL0     H61120   2.920   6.014   2.917  0.6833 -0.0492 -0.6128
  453MOL0     H61121   2.705   6.042   2.956 -1.5160  1.0022 -1.8162
  453MOL0     H61122   2.641   6.101   3.108  1.9668  0.3064  1.0570
  453MOL0     H61123   2.527   6.281   2.980  0.3328  0.3553 -0.9848
  453MOL0     H61124   2.626   6.245   2.837 -1.7782 -1.1121 -0.8405
  453MOL0     H61125   2.452   6.021   2.949  1.2495 -2.8665 -2.2365
  453MOL0     H61126   2.525   6.030   2.798 -1.4747  2.5548 -3.6616
  453MOL0     H61127   2.278   6.085   2.800 -2.6557  2.8641  2.9727
  453MOL0     H61128   2.306   6.230   2.884 -0.4840  1.2433 -0.9108
  453MOL0     H61129   2.449   6.189   2.612 -0.3767 -0.9529 -0.5914
  453MOL0     H61130   2.421   6.327   2.715  0.8862 -0.7759  0.7467
  453MOL0     H61131   2.197   6.141   2.588 -2.7937  1.7915  0.1211
  453MOL0     H61132   2.173   6.283   2.693  1.8453  3.9666 -0.9594
  453MOL0     H61133   2.302   6.267   2.419 -0.0947  0.6344  0.9436
  453MOL0     H61134   2.271   6.425   2.508 -3.5992  0.1760 -0.3015
  453MOL0     H61135   2.103   6.403   2.362 -0.0549  2.0307  1.1519
  453MOL0     H61136   2.020   6.361   2.508 -0.7207  1.3086 -1.1307
  453MOL0     H61137   2.951   6.341   3.182  0.2088  0.2144 -3.1479
  453MOL0     H61138   3.135   6.197   3.323  2.0332 -5.3096  0.7984
  453MOL0     H61139   3.367   5.912   3.389  0.0675 -1.0645 -0.7209
  453MOL0     H61140   3.542   5.833   3.552 -0.2575  0.7547  1.3418
  453MOL0     H61141   5.704   6.278   3.177 -3.4141 -1.9450  1.4904
  453MOL0     H61142   5.930   6.299   3.157 -0.6349 -0.3422 -1.5309
  453MOL0     H61143   6.294   6.220   2.989 -1.6843 -0.0092  1.0712
  453MOL0     H61144   6.524   6.245   2.913  1.4688  0.5161  1.3931
  453MOL0     H61145   6.848   5.983   3.066  0.3746 -0.3144 -0.9480
  453MOL0     H61146   6.811   5.904   2.902 -1.5097  0.4764 -0.4212
  453MOL0     H61147   6.977   6.153   2.967  3.4841  1.8966 -2.0205
  453MOL0     H61148   6.945   6.080   2.804  0.0126 -1.0947  0.6879
  453MOL0     H61149   7.056   5.876   2.880 -0.2972 -0.6490 -0.8228
  453MOL0     H61150   7.067   5.949   3.044  1.1869 -1.8498 -0.6127
  453MOL0     H61151   7.213   6.133   2.962  0.7587  1.5121 -1.7713
  453MOL0     H61152   7.195   6.084   2.791 -3.4993  0.3896  0.3515
  453MOL0     H61153   7.505   5.841   2.896 -0.1143 -1.0453 -1.8249
  453MOL0     H61154   6.641   5.887   3.117  2.1197  1.0839 -0.8212
  453MOL0     H61155   6.426   5.865   3.206  2.8912  0.1940  1.3268
  454MOL0     O61156   0.188   6.958   3.527  0.1510  0.2653  0.2452
  454MOL0     C61157   0.190   7.067   3.581 -0.0116 -0.5352  1.2807
  454MOL0     O61158   0.081   7.150   3.595  0.1764 -0.7615  0.2692
  454MOL0     C61159  -0.046   7.133   3.539 -0.2536  0.2378 -0.6575
  454MOL0     C61160  -0.083   7.039   3.443 -0.5709 -0.3976 -0.3851
  454MOL0     C61161  -0.212   7.031   3.383 -0.2353  0.5492 -0.0182
  454MOL0     C61162  -0.304   7.135   3.412 -0.0741 -0.7901  0.1470
  454MOL0     O61163  -0.432   7.156   3.353  0.1476 -0.1246  0.4723
  454MOL0     C61164  -0.464   7.088   3.227 -0.7121  0.2542  0.3882
  454MOL0     C61165  -0.620   7.090   3.212 -0.6902 -0.7294 -0.5735
  454MOL0     C61166  -0.679   7.232   3.191 -0.6728  0.7967  0.5716
  454MOL0     C61167  -0.827   7.230   3.161 -0.1346 -0.6518  0.1284
  454MOL0     C61168  -0.887   7.360   3.215 -0.1721 -0.3947 -0.1987
  454MOL0     C61169  -1.046   7.357   3.209  0.1374 -1.0827 -0.2032
  454MOL0     C61170  -1.114   7.486   3.267 -0.1481 -0.4978  0.3370
  454MOL0     C61171  -1.270   7.459   3.300  0.1436  0.4516 -1.0905
  454MOL0     N61172  -1.358   7.477   3.186  0.2406  0.3285  0.1175
  454MOL0     C61173  -1.406   7.600   3.146  0.2948  0.0894  0.6205
  454MOL0     C61174  -1.481   7.550   3.038  0.4441  0.0925  0.4675
  454MOL0     C61175  -1.561   7.642   2.962  0.9481 -0.2738  0.0629
  454MOL0     C61176  -1.716   7.633   2.981  0.0711  0.3714  0.5293
  454MOL0     C61177  -1.793   7.704   2.869 -0.1071  0.8187  0.1734
  454MOL0     C61178  -1.938   7.651   2.848 -0.4492  0.3737  0.2247
  454MOL0     O61179  -2.014   7.745   2.769  0.1338 -0.0038  0.3510
  454MOL0     C61180  -2.140   7.688   2.729  0.5851  0.5436 -0.1292
  454MOL0     C61181  -2.210   7.764   2.635  0.1934 -1.1277  0.2661
  454MOL0     C61182  -2.335   7.722   2.581  0.0037 -0.1271 -0.1921
  454MOL0     C61183  -2.384   7.811   2.469  0.2363 -0.0645  0.6124
  454MOL0     C61184  -2.392   7.605   2.632  0.4475  0.1277 -0.1854
  454MOL0     C61185  -2.525   7.545   2.597 -0.7596 -0.0720  0.0518
  454MOL0     O61186  -2.560   7.422   2.639 -0.0793  0.4227 -0.0680
  454MOL0     C61187  -2.677   7.365   2.600  0.0418  0.8206 -0.7706
  454MOL0     C61188  -2.730   7.278   2.691  0.0076 -0.0386  0.5698
  454MOL0     C61189  -2.831   7.191   2.663  0.4676 -1.2105 -0.3906
  454MOL0     C61190  -2.903   7.194   2.545 -0.4146  0.5578 -0.5308
  454MOL0     O61191  -2.993   7.093   2.517  0.3016 -0.6321  0.4074
  454MOL0     C61192  -3.085   7.110   2.408  1.2914  0.2691 -0.0165
  454MOL0     C61193  -3.209   7.018   2.448 -0.2021  0.0615  1.0826
  454MOL0     C61194  -3.320   7.033   2.346  0.3680 -0.3741 -0.7345
  454MOL0     C61195  -3.457   6.953   2.379 -0.1205 -0.2447  0.7424
  454MOL0     C61196  -3.574   7.017   2.296 -0.4259 -1.1497  0.6626
  454MOL0     C61197  -3.696   6.931   2.317  0.6779 -1.3376  0.1353
  454MOL0     C61198  -3.809   6.989   2.234 -0.7621  0.4833  0.0851
  454MOL0     C61199  -3.945   6.919   2.259  0.1908 -0.1380  0.1599
  454MOL0    Cl61200  -3.940   6.738   2.226 -0.0810 -0.5788 -0.1472
  454MOL0     C61201  -2.852   7.277   2.444  0.3905  0.4092 -0.0189
  454MOL0     C61202  -2.734   7.360   2.470  0.0226  0.0963 -0.6172
  454MOL0     O61203  -2.601   7.621   2.535 -0.3898 -0.5169 -0.1050
  454MOL0     C61204  -2.328   7.529   2.730 -0.1580  0.4833  0.1346
  454MOL0     C61205  -2.202   7.570   2.770 -0.0994 -0.5403 -0.2395
  454MOL0     N61206  -1.467   7.414   3.012 -0.4936 -0.0778 -0.4493
  454MOL0     N61207  -1.389   7.368   3.105 -0.1391  0.0107 -0.2428
  454MOL0     C61208  -0.257   7.233   3.495  0.6199  0.3715  0.0886
  454MOL0     C61209  -0.141   7.230   3.565  0.4526 -0.9758 -1.0901
  454MOL0     C61210   0.315   7.124   3.640  1.1778 -0.2439  0.3590
  454MOL0     C61211   0.332   7.269   3.649 -0.0262  0.0851 -0.3159
  454MOL0     C61212   0.449   7.319   3.701  0.1332 -0.5329 -0.2889
  454MOL0     C61213   0.545   7.242   3.759  0.7508 -0.3226 -0.1448
  454MOL0     O61214   0.659   7.304   3.821  0.5798  0.1250 -0.4200
  454MOL0     C61215   0.775   7.227   3.863 -0.6324  0.2734  0.6366
  454MOL0     C61216   0.887   7.310   3.917 -0.2806 -0.5239 -0.1202
  454MOL0     C61217   0.936   7.420   3.811  0.5242 -0.1884  0.2570
  454MOL0     C61218   1.052   7.502   3.868  0.4316 -0.1127 -0.5835
  454MOL0     C61219   1.076   7.620   3.785  0.2977  0.0860 -0.3862
  454MOL0     C61220   1.106   7.724   3.730 -0.2004 -0.0207  0.3490
  454MOL0     C61221   0.536   7.098   3.746 -0.0085 -0.1577  1.3150
  454MOL0     C61222   0.418   7.043   3.693 -0.1392 -0.1806  0.2055
  454MOL0     H61223  -0.015   6.965   3.403 -0.7559 -0.2275 -1.0332
  454MOL0     H61224  -0.225   6.949   3.313  1.7301  0.8965 -0.8694
  454MOL0     H61225  -0.407   7.145   3.153 -0.6322  1.0960  1.0935
  454MOL0     H61226  -0.431   6.984   3.236 -0.8179  0.2742  1.0314
  454MOL0     H61227  -0.654   7.027   3.129 -1.0999 -1.6267  0.2591
  454MOL0     H61228  -0.659   7.051   3.306  1.4268  1.3421  1.2738
  454MOL0     H61229  -0.659   7.280   3.287  1.5305 -0.2720  0.6974
  454MOL0     H61230  -0.621   7.284   3.114  0.4555  0.4025  1.1342
  454MOL0     H61231  -0.851   7.231   3.055 -1.8409  1.5571  0.4669
  454MOL0     H61232  -0.874   7.141   3.203 -1.6611 -0.3383 -0.8288
  454MOL0     H61233  -0.851   7.380   3.317  1.5634 -2.4222 -0.3211
  454MOL0     H61234  -0.846   7.438   3.151  0.5316  0.0066  0.7134
  454MOL0     H61235  -1.074   7.353   3.103  0.4031  0.6178 -0.3651
  454MOL0     H61236  -1.090   7.270   3.259 -0.3493 -0.8559 -0.2317
  454MOL0     H61237  -1.058   7.516   3.356 -0.4352  2.2137 -0.3002
  454MOL0     H61238  -1.114   7.568   3.195  2.4516  0.4396  1.2942
  454MOL0     H61239  -1.299   7.525   3.381  0.9973 -0.3264 -0.1212
  454MOL0     H61240  -1.276   7.357   3.339  1.1353  1.1063  0.8911
  454MOL0     H61241  -1.390   7.696   3.192  0.9552 -1.4075  3.7370
  454MOL0     H61242  -1.533   7.745   2.988 -0.9686 -0.1614  1.9409
  454MOL0     H61243  -1.547   7.630   2.854 -3.3252 -0.7728 -0.6256
  454MOL0     H61244  -1.745   7.664   3.082  0.7966  0.6012  0.6723
  454MOL0     H61245  -1.743   7.527   2.985 -0.1777  0.4355  0.6030
  454MOL0     H61246  -1.746   7.706   2.771  1.1134 -1.5343  0.6539
  454MOL0     H61247  -1.796   7.807   2.907 -1.7382  0.9243 -0.1297
  454MOL0     H61248  -1.995   7.632   2.940 -0.2638 -1.2410  0.0485
  454MOL0     H61249  -1.941   7.552   2.801 -1.0276  0.8129 -0.6734
  454MOL0     H61250  -2.162   7.854   2.597  1.8899 -2.8050 -1.8396
  454MOL0     H61251  -2.366   7.749   2.381 -0.0948  0.6214  0.0536
  454MOL0     H61252  -2.491   7.828   2.483 -0.2266 -1.9304 -0.2787
  454MOL0     H61253  -2.335   7.908   2.468  1.6483 -0.7558  0.3059
  454MOL0     H61254  -2.695   7.284   2.794  0.4995  0.1715  0.3977
  454MOL0     H61255  -2.862   7.117   2.736 -1.0424  0.7538  1.0585
  454MOL0     H61256  -3.120   7.214   2.403  0.0090 -0.1771 -0.5914
  454MOL0     H61257  -3.056   7.079   2.307 -2.0406 -0.7596 -0.7825
  454MOL0     H61258  -3.182   6.912   2.453  1.0081  0.2561 -0.5000
  454MOL0     H61259  -3.249   7.051   2.544 -0.5975  2.4540  0.1682
  454MOL0     H61260  -3.275   6.981   2.262  3.3150  1.0976 -0.1781
  454MOL0     H61261  -3.349   7.134   2.314 -0.0081 -0.6745 -1.3592
  454MOL0     H61262  -3.452   6.847   2.352 -1.9797 -0.0845 -0.4069
  454MOL0     H61263  -3.476   6.949   2.486  1.5877  1.6770  1.1825
  454MOL0     H61264  -3.546   7.014   2.191  0.5316 -0.0315  0.8761
  454MOL0     H61265  -3.585   7.120   2.331 -4.1951 -0.9501 -0.5970
  454MOL0     H61266  -3.687   6.825   2.293 -1.2285 -1.3692 -0.6410
  454MOL0     H61267  -3.713   6.953   2.423  0.9078  1.7278 -0.3835
  454MOL0     H61268  -3.788   6.973   2.128  2.3780 -1.0351  0.8083
  454MOL0     H61269  -3.829   7.097   2.241  0.5025  0.8015 -0.8232
  454MOL0     H61270  -4.026   6.953   2.194  0.0959  0.6649  0.6823
  454MOL0     H61271  -3.975   6.942   2.362 -1.2598  2.0003 -0.6829
  454MOL0     H61272  -2.903   7.278   2.349  1.3484  1.4903 -0.5349
  454MOL0     H61273  -2.700   7.418   2.385 -1.6153 -1.7498 -2.6404
  454MOL0     H61274  -2.368   7.435   2.767 -1.0976  0.2913 -1.3013
  454MOL0     H61275  -2.152   7.511   2.846  1.7449  1.3525  0.1294
  454MOL0     H61276  -0.325   7.314   3.517 -2.0057 -0.2161 -4.4622
  454MOL0     H61277  -0.118   7.307   3.638  1.9296 -1.2114 -1.2842
  454MOL0     H61278   0.264   7.345   3.612 -1.1963 -1.0072 -0.4857
  454MOL0     H61279   0.451   7.425   3.722 -1.3364 -0.9194  2.1735
  454MOL0     H61280   0.738   7.144   3.924 -1.2167  0.4215  0.4947
  454MOL0     H61281   0.813   7.175   3.774  0.6210  2.0408  0.0854
  454MOL0     H61282   0.963   7.241   3.956 -0.1627 -1.2206 -1.5363
  454MOL0     H61283   0.843   7.367   4.000 -0.1633 -0.0333 -0.3873
  454MOL0     H61284   0.848   7.483   3.791  1.3634  0.2448 -2.4628
  454MOL0     H61285   0.960   7.373   3.716  2.1301  1.7039 -0.3448
  454MOL0     H61286   1.142   7.440   3.868  0.3477 -0.2559  0.2985
  454MOL0     H61287   1.033   7.543   3.967 -4.1827 -2.9168  0.0107
  454MOL0     H61288   1.125   7.818   3.682  0.7868  0.5163  1.7098
  454MOL0     H61289   0.609   7.037   3.798  0.0607  0.8315  2.4350
  454MOL0     H61290   0.398   6.938   3.711 -0.0271 -0.4033 -0.8712
  455MOL0     O61291   9.235   4.872   3.365  0.6020 -0.3016 -0.0280
  455MOL0     C61292   9.295   4.978   3.374 -0.1283 -0.4994  0.4988
  455MOL0     O61293   9.253   5.085   3.451 -0.1064  0.4703  0.5387
  455MOL0     C61294   9.121   5.090   3.479  1.0627  0.0756  0.6442
  455MOL0     C61295   9.011   5.090   3.386  0.1141 -0.0655 -0.1219
  455MOL0     C61296   8.879   5.118   3.429 -0.0042 -0.1815  0.0944
  455MOL0     C61297   8.857   5.133   3.570  0.8591  0.6894  0.2012
  455MOL0     O61298   8.732   5.167   3.628 -0.3946 -0.0591  0.3666
  455MOL0     C61299   8.622   5.180   3.535 -0.2468  1.1483  0.7795
  455MOL0     C61300   8.547   5.053   3.499  0.8930  0.0687 -0.7732
  455MOL0     C61301   8.414   5.083   3.428 -0.0681 -0.3445 -0.5654
  455MOL0     C61302   8.435   5.115   3.279  0.7981  0.1767 -0.1949
  455MOL0     C61303   8.309   5.135   3.203  0.4901 -0.4873 -0.0032
  455MOL0     C61304   8.330   5.136   3.060  0.2220  0.6063 -0.2102
  455MOL0     C61305   8.206   5.196   2.988  0.0777  0.1213  0.4923
  455MOL0     C61306   8.216   5.351   2.949  0.0161 -0.5755 -0.3218
  455MOL0     N61307   8.082   5.402   2.906  0.7154 -0.3383  0.8076
  455MOL0     C61308   7.974   5.431   2.978  0.3369 -0.5590  0.7066
  455MOL0     C61309   7.881   5.469   2.891  0.5510  0.1692  0.8830
  455MOL0     C61310   7.740   5.521   2.936 -0.1724 -0.0790  0.5527
  455MOL0     C61311   7.624   5.412   2.915 -0.2188  0.9117  0.4342
  455MOL0     C61312   7.510   5.429   3.014  0.3929 -0.4797 -0.6241
  455MOL0     C61313   7.420   5.544   2.980 -0.1267 -0.2634 -0.6943
  455MOL0     O61314   7.335   5.564   3.099 -0.0198  0.2069 -0.4871
  455MOL0     C61315   7.203   5.569   3.071  0.2029  0.0086  1.4714
  455MOL0     C61316   7.119   5.527   3.168  0.5313 -0.4125  0.3934
  455MOL0     C61317   6.982   5.536   3.153 -0.1728 -0.2833 -0.4396
  455MOL0     C61318   6.909   5.466   3.266 -0.1071 -0.1798  0.7176
  455MOL0     C61319   6.926   5.581   3.037 -0.6105 -0.4261  0.1222
  455MOL0     C61320   6.777   5.602   3.020 -0.1352 -0.0071 -0.1323
  455MOL0     O61321   6.722   5.575   2.894  0.5812 -0.0449  0.1510
  455MOL0     C61322   6.593   5.608   2.864 -0.5526 -0.0164  0.7333
  455MOL0     C61323   6.568   5.654   2.736 -0.9987 -0.3702 -0.4882
  455MOL0     C61324   6.440   5.698   2.698  0.3381  0.4313  0.1081
  455MOL0     C61325   6.326   5.678   2.778 -0.4804  0.7295 -0.3073
  455MOL0     O61326   6.199   5.712   2.735  1.0200  0.0150 -0.2880
  455MOL0     C61327   6.173   5.703   2.592  0.2934 -0.7954 -0.9616
  455MOL0     C61328   6.025   5.739   2.566 -0.0666  0.8648 -0.7000
  455MOL0     C61329   5.989   5.719   2.422  0.4611 -0.8201 -0.3867
  455MOL0     C61330   5.831   5.697   2.411  0.0059  0.0115 -1.0346
  455MOL0     C61331   5.792   5.656   2.266 -0.0530 -0.3382  0.3022
  455MOL0     C61332   5.645   5.620   2.267 -0.1959 -0.0937 -0.2531
  455MOL0     C61333   5.543   5.729   2.267  0.0296 -0.5655 -0.1641
  455MOL0     C61334   5.398   5.674   2.293  1.1320 -0.1772  1.0198
  455MOL0    Cl61335   5.331   5.622   2.137  0.0194 -0.2435 -0.1119
  455MOL0     C61336   6.353   5.633   2.912  0.4754 -0.1619  0.1575
  455MOL0     C61337   6.486   5.598   2.953  0.1893  0.3173  0.9490
  455MOL0     O61338   6.722   5.657   3.116 -0.3471 -0.8011  0.4372
  455MOL0     C61339   7.011   5.602   2.929 -0.4997  0.9073  0.8475
  455MOL0     C61340   7.146   5.609   2.944  0.1597 -0.1014  0.4523
  455MOL0     N61341   7.927   5.440   2.762  0.2296 -0.0834  0.2337
  455MOL0     N61342   8.046   5.403   2.775 -0.9264  0.6193 -0.0331
  455MOL0     C61343   8.957   5.113   3.660  0.1084 -0.3494  0.1205
  455MOL0     C61344   9.093   5.097   3.617 -0.0397  0.4264  0.3131
  455MOL0     C61345   9.427   4.994   3.302  0.4121 -0.6625  0.8843
  455MOL0     C61346   9.496   5.114   3.320  1.1576  0.2954  0.0100
  455MOL0     C61347   9.622   5.135   3.263 -0.0027  0.0111 -0.2535
  455MOL0     C61348   9.695   5.028   3.207 -0.2240 -0.0519  0.4176
  455MOL0     O61349   9.822   5.054   3.170  0.6114  0.6048  0.4729
  455MOL0     C61350   9.911   4.942   3.134  0.4241 -0.1802  0.7736
  455MOL0     C61351  10.060   4.988   3.127  0.1850  0.2439 -0.4112
  455MOL0     C61352  10.142   4.886   3.048  0.3133  0.5466 -0.0638
  455MOL0     C61353  10.188   4.954   2.912  0.2754 -0.3551 -0.6369
  455MOL0     C61354  10.222   4.852   2.816 -1.0244  0.1122 -0.7001
  455MOL0     C61355  10.257   4.775   2.721  0.6602 -0.9347 -0.9540
  455MOL0     C61356   9.623   4.909   3.186  0.4958  0.5125 -0.5929
  455MOL0     C61357   9.494   4.888   3.241 -0.7656  0.4586 -0.5149
  455MOL0     H61358   9.021   5.093   3.278  2.8335  1.5717  0.0900
  455MOL0     H61359   8.798   5.139   3.359 -2.2916 -0.4605  2.4896
  455MOL0     H61360   8.556   5.248   3.591  0.2185  1.9647  0.3634
  455MOL0     H61361   8.654   5.239   3.449 -2.5142 -0.5749 -1.3830
  455MOL0     H61362   8.603   4.986   3.432  2.6253 -1.3304  1.9114
  455MOL0     H61363   8.527   5.001   3.593  0.8173  2.8197  0.8322
  455MOL0     H61364   8.351   4.994   3.437 -1.2102  0.4625 -0.3207
  455MOL0     H61365   8.368   5.169   3.478  0.7855  0.8763 -1.7924
  455MOL0     H61366   8.488   5.207   3.255 -0.9706  1.0549 -0.9713
  455MOL0     H61367   8.485   5.032   3.229 -2.0503 -2.3678  0.8654
  455MOL0     H61368   8.242   5.048   3.213 -1.6698  0.3404 -4.6724
  455MOL0     H61369   8.260   5.228   3.232  0.5113 -0.2228 -0.8023
  455MOL0     H61370   8.416   5.193   3.023  0.0826  1.4071  0.6883
  455MOL0     H61371   8.344   5.034   3.021  1.6935  1.0401 -0.9210
  455MOL0     H61372   8.209   5.137   2.896  3.9014  1.6265 -0.5503
  455MOL0     H61373   8.116   5.182   3.049 -1.4236  2.6069 -0.9895
  455MOL0     H61374   8.290   5.366   2.871  0.8563  0.2397  0.6099
  455MOL0     H61375   8.264   5.394   3.037  1.4723 -2.4826 -0.1189
  455MOL0     H61376   7.976   5.434   3.087  1.3654  0.1946  0.6838
  455MOL0     H61377   7.748   5.540   3.044 -0.6500 -2.2662  1.0235
  455MOL0     H61378   7.724   5.614   2.881 -0.3083 -0.0485  0.6432
  455MOL0     H61379   7.673   5.317   2.940 -1.5040  0.0597 -0.1782
  455MOL0     H61380   7.589   5.408   2.812  1.2876  0.4302 -0.0842
  455MOL0     H61381   7.549   5.454   3.112  0.7924 -0.1802 -0.8580
  455MOL0     H61382   7.449   5.338   3.016 -1.4702  0.7234  0.2905
  455MOL0     H61383   7.379   5.530   2.880  1.5444  0.7259 -1.5529
  455MOL0     H61384   7.483   5.633   2.976 -1.9097  1.0276 -2.0084
  455MOL0     H61385   7.166   5.488   3.257  0.5422  0.0080  0.5749
  455MOL0     H61386   6.881   5.539   3.343 -0.1851  0.4655  0.0883
  455MOL0     H61387   6.815   5.418   3.237 -0.2889 -0.8164  2.2838
  455MOL0     H61388   6.967   5.385   3.312  2.6262  0.7210 -0.9085
  455MOL0     H61389   6.649   5.671   2.666 -0.3515 -0.0021  0.3350
  455MOL0     H61390   6.437   5.751   2.603 -3.4458  1.2789  0.5631
  455MOL0     H61391   6.234   5.773   2.533  1.5267  0.8848  2.0424
  455MOL0     H61392   6.201   5.601   2.566  0.7350 -0.2430 -2.8329
  455MOL0     H61393   5.965   5.675   2.632  1.4476  0.7967  0.6758
  455MOL0     H61394   5.998   5.843   2.586  0.0897  0.5754  1.2022
  455MOL0     H61395   6.057   5.644   2.382  1.5432 -0.4538  0.6800
  455MOL0     H61396   6.025   5.806   2.366  1.8617  0.0784  1.7557
  455MOL0     H61397   5.800   5.612   2.472  0.0715  1.9259  1.8124
  455MOL0     H61398   5.768   5.781   2.441 -0.8889 -0.9092 -0.2981
  455MOL0     H61399   5.853   5.574   2.226 -0.6827  0.5381 -2.6753
  455MOL0     H61400   5.809   5.741   2.200  2.1817 -0.5485  0.5397
  455MOL0     H61401   5.623   5.576   2.169  0.7343  0.5433 -0.7564
  455MOL0     H61402   5.621   5.540   2.338  0.5218 -0.5354 -0.4955
  455MOL0     H61403   5.546   5.783   2.171 -0.1254  0.6708  0.5037
  455MOL0     H61404   5.567   5.802   2.345 -1.3853 -0.4579  0.1990
  455MOL0     H61405   5.329   5.753   2.323 -4.0398 -0.7865 -6.4306
  455MOL0     H61406   5.387   5.585   2.355  1.0114  0.1475  1.4689
  455MOL0     H61407   6.274   5.622   2.985 -0.2890  1.4921 -0.3889
  455MOL0     H61408   6.505   5.566   3.055 -0.5397 -4.5475 -0.1797
  455MOL0     H61409   6.976   5.619   2.828  2.1121  0.0707 -0.2588
  455MOL0     H61410   7.209   5.636   2.860 -2.2646 -0.6395 -1.6488
  455MOL0     H61411   8.934   5.141   3.763  1.8734 -0.4326  0.5748
  455MOL0     H61412   9.165   5.099   3.698  0.8780 -0.7100 -0.4361
  455MOL0     H61413   9.453   5.183   3.391 -1.2484 -0.3459 -0.7373
  455MOL0     H61414   9.665   5.233   3.281  0.3255  0.0151 -1.0295
  455MOL0     H61415   9.900   4.873   3.218 -0.4013 -0.3105  0.5696
  455MOL0     H61416   9.888   4.901   3.035  2.3973  1.2410 -0.3441
  455MOL0     H61417  10.102   5.005   3.227  2.4087  2.0057 -1.5535
  455MOL0     H61418  10.059   5.092   3.093  0.8574  1.0221  1.7424
  455MOL0     H61419  10.094   4.793   3.017 -0.2196  0.9554 -0.4816
  455MOL0     H61420  10.224   4.851   3.112  1.4661  1.7376 -0.8344
  455MOL0     H61421  10.276   5.019   2.917  2.4575 -2.5069 -5.2249
  455MOL0     H61422  10.107   5.013   2.870  0.3960 -0.6255 -1.2610
  455MOL0     H61423  10.306   4.722   2.642  0.8841 -1.9840 -0.1346
  455MOL0     H61424   9.669   4.825   3.134 -0.7482 -0.5375 -0.0362
  455MOL0     H61425   9.442   4.793   3.242 -1.2924  0.7292 -1.3670
  456MOL0     O61426  10.756   4.945   5.683  0.6668  0.4329 -0.5997
  456MOL0     C61427  10.771   4.827   5.648  0.1898 -0.1810  0.1769
  456MOL0     O61428  10.668   4.735   5.623 -0.3132  0.3347 -0.4588
  456MOL0     C61429  10.540   4.762   5.659 -0.6929  0.5116 -0.5595
  456MOL0     C61430  10.446   4.732   5.564 -0.4668 -0.1245  0.2472
  456MOL0     C61431  10.309   4.768   5.577  0.0511 -0.3941  0.2201
  456MOL0     C61432  10.270   4.847   5.685 -0.7952 -0.2437  0.2306
  456MOL0     O61433  10.143   4.887   5.696 -0.1954 -0.3112  0.1058
  456MOL0     C61434  10.132   5.031   5.738  0.6818  0.5337  0.1902
  456MOL0     C61435   9.985   5.084   5.750 -0.8095 -0.0962 -0.2058
  456MOL0     C61436   9.899   5.016   5.858  0.4402  0.1734  0.4692
  456MOL0     C61437   9.771   5.104   5.892  0.4778 -0.4669 -1.2110
  456MOL0     C61438   9.673   5.035   5.991  0.7772 -0.2160  0.9775
  456MOL0     C61439   9.568   5.134   6.055  0.0109  0.2483  0.6106
  456MOL0     C61440   9.463   5.161   5.938 -0.4751  0.0564  0.7936
  456MOL0     C61441   9.381   5.289   5.959 -0.2984  0.3968  0.4261
  456MOL0     N61442   9.277   5.299   5.852  0.3076  0.6665 -0.2441
  456MOL0     C61443   9.159   5.368   5.848  0.2775  0.6726 -0.5247
  456MOL0     C61444   9.093   5.330   5.739  0.2040 -0.2211  0.8904
  456MOL0     C61445   8.957   5.380   5.709  0.5982  0.8482 -0.4769
  456MOL0     C61446   8.858   5.258   5.706 -0.8569  0.5555  0.4870
  456MOL0     C61447   8.714   5.304   5.683  0.2785 -0.5810 -0.5544
  456MOL0     C61448   8.697   5.356   5.538 -0.1196 -0.0027 -0.7851
  456MOL0     O61449   8.564   5.357   5.496 -0.3686  0.3806 -0.8389
  456MOL0     C61450   8.522   5.455   5.413 -0.4452  0.3984 -0.2828
  456MOL0     C61451   8.602   5.535   5.333 -0.2237 -0.4170  0.2238
  456MOL0     C61452   8.550   5.621   5.233  0.2049  0.1027  0.5989
  456MOL0     C61453   8.643   5.714   5.170  0.0098  0.0371 -0.6075
  456MOL0     C61454   8.408   5.624   5.206  1.2395 -0.4341  0.8458
  456MOL0     C61455   8.339   5.701   5.096  0.3270  0.2022 -0.1105
  456MOL0     O61456   8.412   5.736   4.985 -0.5595  0.2505  0.7488
  456MOL0     C61457   8.341   5.790   4.877 -0.5334 -0.1294 -0.7283
  456MOL0     C61458   8.300   5.922   4.889  0.0406 -0.8011  0.2995
  456MOL0     C61459   8.232   5.973   4.773  0.2040  0.2381  0.7897
  456MOL0     C61460   8.208   5.894   4.656 -0.4121  0.1752  0.0621
  456MOL0     O61461   8.143   5.951   4.545  0.6002  0.0803 -0.5830
  456MOL0     C61462   8.140   6.097   4.538  0.3401 -0.5580 -0.8124
  456MOL0     C61463   8.092   6.144   4.403 -0.0941 -0.1925  0.4958
  456MOL0     C61464   7.958   6.106   4.356 -0.4807 -0.0786 -0.9761
  456MOL0     C61465   7.956   6.144   4.210  0.0852  0.1733 -0.1786
  456MOL0     C61466   7.825   6.097   4.141 -0.2092 -0.0978 -0.1478
  456MOL0     C61467   7.844   6.088   3.988  0.3081 -0.1436 -0.0175
  456MOL0     C61468   7.727   6.015   3.915 -0.4263 -0.3012 -0.2896
  456MOL0     C61469   7.672   6.056   3.777  0.1416 -0.5511 -0.1781
  456MOL0    Cl61470   7.778   5.976   3.666  0.1204  0.1293 -0.2073
  456MOL0     C61471   8.253   5.766   4.650 -0.5552 -0.1563  0.6015
  456MOL0     C61472   8.321   5.710   4.767  0.0067  0.5750  0.5333
  456MOL0     O61473   8.223   5.738   5.113  0.4035 -0.3975 -0.4287
  456MOL0     C61474   8.322   5.548   5.292 -0.7958 -0.0410  1.2627
  456MOL0     C61475   8.383   5.473   5.398 -0.7005  0.1135 -0.4104
  456MOL0     N61476   9.160   5.236   5.662 -0.0181  0.6191 -0.4593
  456MOL0     N61477   9.278   5.220   5.732  0.4116 -0.2746 -0.1292
  456MOL0     C61478  10.370   4.882   5.781 -0.3136  0.4291  0.4914
  456MOL0     C61479  10.497   4.842   5.762 -0.4373  1.0840 -0.9590
  456MOL0     C61480  10.906   4.780   5.623 -0.9992  0.2160 -0.1747
  456MOL0     C61481  10.941   4.643   5.599  0.0489 -0.2439 -0.3568
  456MOL0     C61482  11.066   4.603   5.558  0.2891  0.0818 -0.7921
  456MOL0     C61483  11.162   4.692   5.557 -0.8533  0.7010  0.4336
  456MOL0     O61484  11.295   4.655   5.531  0.1296  0.7471  0.4842
  456MOL0     C61485  11.341   4.522   5.500 -0.3425  0.6417 -0.3428
  456MOL0     C61486  11.477   4.519   5.432 -0.9525 -0.0592 -0.0356
  456MOL0     C61487  11.598   4.591   5.503 -0.1958  0.5139 -0.0043
  456MOL0     C61488  11.719   4.559   5.408  0.6792 -0.7820  0.4150
  456MOL0     C61489  11.832   4.646   5.440  0.9702 -0.3631 -0.5017
  456MOL0     C61490  11.913   4.734   5.460  0.0334  0.2178  0.2149
  456MOL0     C61491  11.146   4.821   5.590  0.4586  0.7327  0.4243
  456MOL0     C61492  11.020   4.870   5.614  0.6287 -0.5016 -0.5770
  456MOL0     H61493  10.476   4.677   5.476  1.2445  0.0102  0.7148
  456MOL0     H61494  10.245   4.747   5.492  2.2843 -2.3484 -1.1319
  456MOL0     H61495  10.178   5.051   5.836  0.4362  0.3201  0.3514
  456MOL0     H61496  10.178   5.094   5.662 -1.6049  0.6757 -1.1705
  456MOL0     H61497   9.991   5.192   5.766 -1.4432 -0.1419  0.3937
  456MOL0     H61498   9.930   5.078   5.656 -0.9451  3.1618 -0.4593
  456MOL0     H61499   9.869   4.916   5.825  5.1655 -0.9960 -1.2104
  456MOL0     H61500   9.949   4.982   5.949 -3.5746 -2.8443  1.8115
  456MOL0     H61501   9.806   5.196   5.939  0.5073 -1.3046  0.5021
  456MOL0     H61502   9.723   5.125   5.796 -2.1754  0.4840  0.2168
  456MOL0     H61503   9.618   4.952   5.946  0.5435  0.5461 -0.1773
  456MOL0     H61504   9.735   5.003   6.076 -0.6928 -0.2994  2.0667
  456MOL0     H61505   9.521   5.089   6.143 -1.1686  1.5128  0.6530
  456MOL0     H61506   9.613   5.230   6.081  2.3630 -1.0536  1.6874
  456MOL0     H61507   9.520   5.169   5.845 -0.7972 -0.1036  0.5783
  456MOL0     H61508   9.395   5.077   5.919 -0.1756 -0.0468  0.1363
  456MOL0     H61509   9.437   5.382   5.944 -0.2810 -0.1088 -3.7191
  456MOL0     H61510   9.343   5.285   6.061 -1.4114 -1.1099 -0.0228
  456MOL0     H61511   9.132   5.441   5.924  1.1948  1.5894 -1.0618
  456MOL0     H61512   8.926   5.458   5.779  0.2138  1.6349 -1.4931
  456MOL0     H61513   8.958   5.424   5.609 -2.5112  3.0563  0.2952
  456MOL0     H61514   8.862   5.191   5.792 -3.6163  2.4795  2.3248
  456MOL0     H61515   8.881   5.194   5.621 -2.2395 -1.3399  1.4566
  456MOL0     H61516   8.682   5.381   5.753 -1.8420 -0.2423 -1.8101
  456MOL0     H61517   8.653   5.214   5.696 -0.0185 -0.2027  0.8884
  456MOL0     H61518   8.769   5.306   5.473 -0.0640  0.2153 -0.8940
  456MOL0     H61519   8.729   5.461   5.538 -1.8924  0.5865  0.2503
  456MOL0     H61520   8.708   5.542   5.356 -0.4549 -2.5357  2.2202
  456MOL0     H61521   8.603   5.815   5.162 -1.1219 -0.3832 -0.3896
  456MOL0     H61522   8.727   5.725   5.239 -1.1689 -3.0465  1.5360
  456MOL0     H61523   8.678   5.669   5.076  2.2645  1.0226 -0.2921
  456MOL0     H61524   8.310   5.992   4.971 -1.8269  0.7308 -0.6827
  456MOL0     H61525   8.204   6.077   4.772  1.7857  0.7535  2.7440
  456MOL0     H61526   8.075   6.137   4.615  1.8424  0.6962 -0.1548
  456MOL0     H61527   8.243   6.132   4.549 -0.0118  0.2568 -0.0201
  456MOL0     H61528   8.088   6.253   4.412 -0.3372 -0.1723  0.1681
  456MOL0     H61529   8.168   6.103   4.336 -1.2848 -0.3898 -0.7703
  456MOL0     H61530   7.884   6.161   4.414 -0.9321  0.0990 -1.7218
  456MOL0     H61531   7.935   6.000   4.369 -0.3965  0.0668  0.5970
  456MOL0     H61532   7.956   6.252   4.196  0.2653  0.5255  2.2734
  456MOL0     H61533   8.043   6.102   4.159  1.2170 -0.3055  2.0239
  456MOL0     H61534   7.745   6.171   4.154  0.5700  0.8447 -0.5419
  456MOL0     H61535   7.809   5.997   4.181  5.0738 -1.3145 -0.3670
  456MOL0     H61536   7.859   6.186   3.941 -1.6501  0.5562  0.7010
  456MOL0     H61537   7.932   6.024   3.972 -0.5711 -1.5617  0.6552
  456MOL0     H61538   7.646   6.013   3.988  2.2093 -2.3095  2.8826
  456MOL0     H61539   7.754   5.909   3.911 -1.1624 -0.8015  3.6176
  456MOL0     H61540   7.668   6.165   3.770 -1.4439 -0.4992  1.1317
  456MOL0     H61541   7.570   6.020   3.763 -0.8359  1.9255  0.1927
  456MOL0     H61542   8.223   5.701   4.568  0.2612 -0.5976  0.6457
  456MOL0     H61543   8.364   5.610   4.757 -1.3799 -0.1712  1.6751
  456MOL0     H61544   8.216   5.531   5.274 -0.9722  1.1814  1.0508
  456MOL0     H61545   8.320   5.415   5.465 -0.2491  0.2334  0.1218
  456MOL0     H61546  10.357   4.951   5.864  3.8252  2.2411 -0.1174
  456MOL0     H61547  10.574   4.857   5.837 -1.2889 -1.2441  0.4870
  456MOL0     H61548  10.861   4.571   5.612 -0.2583  0.0593 -0.5543
  456MOL0     H61549  11.074   4.495   5.555  0.8061  0.0685  0.5741
  456MOL0     H61550  11.351   4.464   5.592  0.4936 -0.6475 -1.2083
  456MOL0     H61551  11.270   4.461   5.444  0.8788 -0.2655 -0.9610
  456MOL0     H61552  11.478   4.557   5.330  0.9961  0.3551  0.1058
  456MOL0     H61553  11.504   4.413   5.434  3.6246  0.9080  2.7115
  456MOL0     H61554  11.617   4.564   5.607  0.9554  2.0974  0.2204
  456MOL0     H61555  11.582   4.699   5.510 -1.0526  0.2819  3.2212
  456MOL0     H61556  11.688   4.557   5.303 -0.9970 -0.6621  0.8790
  456MOL0     H61557  11.760   4.459   5.428  1.1761 -0.5893  0.3642
  456MOL0     H61558  11.991   4.805   5.479 -1.5768  2.0898  0.1728
  456MOL0     H61559  11.232   4.884   5.609  0.7367  0.0022  1.7150
  456MOL0     H61560  11.016   4.979   5.616  0.4141 -0.4552 -2.1060
  457MOL0     O61561   0.268   1.153   2.687  0.1555  0.3227  0.2262
  457MOL0     C61562   0.304   1.258   2.727 -0.1737  0.3748  0.1182
  457MOL0     O61563   0.240   1.335   2.833  0.3199 -0.6743  0.5015
  457MOL0     C61564   0.117   1.308   2.876  0.7988  0.7027 -0.5005
  457MOL0     C61565   0.092   1.358   3.004  0.2630  0.0475  0.6315
  457MOL0     C61566  -0.038   1.359   3.057 -0.0700  0.0967  0.2430
  457MOL0     C61567  -0.140   1.299   2.986  0.5200 -0.3604  0.1779
  457MOL0     O61568  -0.266   1.299   3.025  0.0356 -0.3733 -0.5228
  457MOL0     C61569  -0.287   1.280   3.166 -0.1193 -0.7860 -0.4399
  457MOL0     C61570  -0.405   1.183   3.180  0.9245 -0.3973  0.0196
  457MOL0     C61571  -0.536   1.237   3.124 -1.1707 -0.2862 -0.9559
  457MOL0     C61572  -0.563   1.204   2.971  0.1222  0.0522 -0.2536
  457MOL0     C61573  -0.716   1.207   2.941 -0.5632 -0.2378  0.8115
  457MOL0     C61574  -0.745   1.176   2.798 -0.1269 -0.1220 -0.1373
  457MOL0     C61575  -0.899   1.156   2.777 -0.6389 -0.2783  0.6552
  457MOL0     C61576  -0.924   1.122   2.624  0.0986  0.2291  0.4806
  457MOL0     N61577  -0.889   0.984   2.589  0.0895  0.4022 -0.1985
  457MOL0     C61578  -0.782   0.955   2.507  0.6427  0.4899  1.0619
  457MOL0     C61579  -0.786   0.819   2.506  0.2867  0.3550  0.0485
  457MOL0     C61580  -0.690   0.723   2.437  0.1105  0.3044  0.1229
  457MOL0     C61581  -0.551   0.785   2.405 -0.4754  0.2398 -0.2919
  457MOL0     C61582  -0.465   0.672   2.347  0.1138 -0.4955  0.7974
  457MOL0     C61583  -0.349   0.725   2.272  0.3443  0.0304  1.3032
  457MOL0     O61584  -0.247   0.781   2.352  0.0177  0.6030  0.1336
  457MOL0     C61585  -0.131   0.820   2.299 -1.0689 -0.0405  0.7244
  457MOL0     C61586  -0.089   0.796   2.167 -0.1821 -0.8934  0.2880
  457MOL0     C61587   0.042   0.824   2.132 -0.3523 -0.3301  0.2740
  457MOL0     C61588   0.078   0.810   1.996 -0.9652 -0.0391 -0.0539
  457MOL0     C61589   0.132   0.871   2.227  0.0638  0.1113 -0.5982
  457MOL0     C61590   0.271   0.908   2.195 -0.2529  0.1714  0.6345
  457MOL0     O61591   0.295   1.044   2.173 -0.0272  0.4980  0.4730
  457MOL0     C61592   0.420   1.088   2.142 -0.4204  0.4798  0.2292
  457MOL0     C61593   0.535   1.022   2.202  0.5754 -0.3643 -0.0169
  457MOL0     C61594   0.661   1.072   2.177  0.0214 -1.1013 -0.2596
  457MOL0     C61595   0.688   1.187   2.102  0.8165 -0.0610  0.0071
  457MOL0     O61596   0.824   1.213   2.091  0.0721  0.5282 -0.1245
  457MOL0     C61597   0.857   1.326   2.006  0.1848  0.8597  0.1607
  457MOL0     C61598   1.017   1.330   2.001  0.1108 -0.0572  0.3340
  457MOL0     C61599   1.068   1.450   1.913  0.2413  0.2245 -0.1147
  457MOL0     C61600   1.225   1.461   1.898  0.2921 -0.2810  0.6025
  457MOL0     C61601   1.279   1.559   1.791 -0.3436  0.1968 -0.4056
  457MOL0     C61602   1.434   1.573   1.789 -0.6974 -0.1798  0.4867
  457MOL0     C61603   1.487   1.688   1.708  0.3521  0.1712 -0.1495
  457MOL0     C61604   1.633   1.680   1.674  0.1614  0.2549 -0.0716
  457MOL0    Cl61605   1.729   1.702   1.822  0.1141  0.4703 -0.2967
  457MOL0     C61606   0.575   1.253   2.043  0.0695 -0.2305 -0.9984
  457MOL0     C61607   0.443   1.210   2.076  1.0644  0.1891  0.1622
  457MOL0     O61608   0.352   0.820   2.185  1.0956  0.2407  0.0008
  457MOL0     C61609   0.091   0.887   2.362 -0.7153 -0.0150  0.3483
  457MOL0     C61610  -0.039   0.859   2.394  0.0727 -0.2080  0.2200
  457MOL0     N61611  -0.892   0.776   2.589  0.7350 -0.2030 -0.3560
  457MOL0     N61612  -0.954   0.872   2.636  0.0017  0.1587  0.1651
  457MOL0     C61613  -0.114   1.257   2.857 -0.0703 -0.7531  0.5856
  457MOL0     C61614   0.008   1.268   2.797  0.3145 -0.1528 -0.2861
  457MOL0     C61615   0.412   1.331   2.655  0.0889 -0.5157  0.5844
  457MOL0     C61616   0.456   1.454   2.700  0.2950  0.4646 -0.1192
  457MOL0     C61617   0.567   1.518   2.632 -0.2158 -0.3859  0.6512
  457MOL0     C61618   0.630   1.461   2.523  0.7063 -0.3184 -0.1126
  457MOL0     O61619   0.725   1.537   2.458 -0.7182  0.2918 -0.9680
  457MOL0     C61620   0.815   1.488   2.361  0.6018 -0.4370 -0.6636
  457MOL0     C61621   0.936   1.583   2.362  0.3224  0.8811 -0.2877
  457MOL0     C61622   1.029   1.566   2.474 -0.6535 -0.2455 -0.6350
  457MOL0     C61623   1.002   1.657   2.582 -0.5564 -0.4564 -0.2907
  457MOL0     C61624   1.103   1.628   2.689  0.1369  0.3003  0.9608
  457MOL0     C61625   1.188   1.622   2.777  0.7021  0.3000 -0.3543
  457MOL0     C61626   0.579   1.340   2.473  0.5599 -0.0956 -0.8117
  457MOL0     C61627   0.465   1.281   2.538 -0.6116 -0.1328  0.4402
  457MOL0     H61628   0.175   1.388   3.067  1.9736 -2.5103 -0.2389
  457MOL0     H61629  -0.056   1.398   3.156 -1.8141 -0.2394  0.1028
  457MOL0     H61630  -0.204   1.222   3.209  1.4725 -0.7709 -3.2585
  457MOL0     H61631  -0.286   1.376   3.217  1.6544  0.0160 -1.8505
  457MOL0     H61632  -0.387   1.079   3.150  1.0389 -0.3130 -0.2099
  457MOL0     H61633  -0.421   1.182   3.288 -1.5507  0.5282 -0.2656
  457MOL0     H61634  -0.610   1.179   3.180  1.4700 -1.2886  1.7554
  457MOL0     H61635  -0.539   1.342   3.152  2.9613 -0.9754  3.4032
  457MOL0     H61636  -0.512   1.277   2.908  1.9954 -1.0955 -0.1563
  457MOL0     H61637  -0.519   1.108   2.942  1.9252  0.3362  1.2931
  457MOL0     H61638  -0.778   1.141   3.001  2.2712 -1.8312  2.1940
  457MOL0     H61639  -0.742   1.313   2.949  0.0147 -0.1050  0.9609
  457MOL0     H61640  -0.709   1.256   2.733 -0.3192 -3.2488 -4.6204
  457MOL0     H61641  -0.695   1.082   2.774 -0.1988  0.4927 -3.0297
  457MOL0     H61642  -0.941   1.078   2.841  2.6080 -1.7299  1.2276
  457MOL0     H61643  -0.934   1.256   2.804  0.7856  0.6988 -0.8989
  457MOL0     H61644  -0.880   1.194   2.554 -1.9032  0.1709 -0.9337
  457MOL0     H61645  -1.031   1.134   2.606  0.2125 -0.2470 -0.6645
  457MOL0     H61646  -0.711   1.015   2.451  0.7581 -2.8094 -2.8654
  457MOL0     H61647  -0.679   0.632   2.496  2.8347  2.2797  3.0291
  457MOL0     H61648  -0.730   0.701   2.337  0.9664 -1.0858  0.0551
  457MOL0     H61649  -0.510   0.822   2.500 -3.8666  0.8760  1.0497
  457MOL0     H61650  -0.569   0.866   2.334 -0.8364  2.0474  1.7566
  457MOL0     H61651  -0.519   0.599   2.287  0.7971  0.2249 -0.7355
  457MOL0     H61652  -0.431   0.610   2.431  0.3375 -0.7980  0.4847
  457MOL0     H61653  -0.385   0.798   2.198  0.4158  1.3367  2.5208
  457MOL0     H61654  -0.303   0.642   2.218 -1.1123 -0.9731  1.5783
  457MOL0     H61655  -0.162   0.754   2.098 -0.4196 -2.0298  1.1906
  457MOL0     H61656   0.115   0.715   1.957 -1.6015 -1.1270  1.9034
  457MOL0     H61657  -0.007   0.824   1.928 -0.8741  0.8512 -0.0009
  457MOL0     H61658   0.140   0.894   1.961  0.1299 -1.1306 -0.8361
  457MOL0     H61659   0.527   0.925   2.251 -0.3852 -0.1618  0.2441
  457MOL0     H61660   0.748   1.030   2.227  2.2028 -0.2905 -3.0986
  457MOL0     H61661   0.828   1.307   1.902  2.1709 -2.3122  0.0469
  457MOL0     H61662   0.822   1.423   2.041 -0.4696  2.6095 -4.6032
  457MOL0     H61663   1.050   1.354   2.102  1.9093  3.4212 -0.9131
  457MOL0     H61664   1.062   1.235   1.971  3.1994  1.0251  1.2039
  457MOL0     H61665   1.026   1.546   1.947 -2.0368 -0.1855 -1.5491
  457MOL0     H61666   1.033   1.436   1.811  2.4854  0.9100 -1.0326
  457MOL0     H61667   1.271   1.491   1.993  2.8377 -1.3823 -0.1936
  457MOL0     H61668   1.258   1.360   1.872 -1.2750  0.0986 -3.4874
  457MOL0     H61669   1.251   1.663   1.813 -0.7578 -0.0476  0.2389
  457MOL0     H61670   1.238   1.531   1.693  0.9332 -0.4686 -0.7649
  457MOL0     H61671   1.466   1.589   1.892  2.6816 -1.5601 -0.2044
  457MOL0     H61672   1.483   1.482   1.752 -2.7495 -0.7114 -1.0758
  457MOL0     H61673   1.461   1.777   1.766  0.1853 -1.2171  1.9882
  457MOL0     H61674   1.440   1.693   1.609  2.2391  0.3284 -1.0796
  457MOL0     H61675   1.649   1.753   1.594 -1.6519  0.9954  0.1955
  457MOL0     H61676   1.653   1.579   1.638  0.1543  0.0702  0.4307
  457MOL0     H61677   0.577   1.347   1.988 -0.7511  0.5085  0.1813
  457MOL0     H61678   0.351   1.256   2.041  0.2568 -0.7716  0.9228
  457MOL0     H61679   0.150   0.924   2.445 -1.8583  2.9419 -0.0297
  457MOL0     H61680  -0.078   0.851   2.495  0.8706 -3.4198  0.3745
  457MOL0     H61681  -0.199   1.229   2.797 -0.6184 -0.7879  1.3583
  457MOL0     H61682   0.013   1.251   2.690 -1.4663  0.2439 -0.4652
  457MOL0     H61683   0.432   1.501   2.795  2.8337  0.0044  0.8526
  457MOL0     H61684   0.605   1.617   2.655 -0.0228  0.1596 -1.7589
  457MOL0     H61685   0.852   1.389   2.390 -1.9775 -0.4647  3.4043
  457MOL0     H61686   0.774   1.485   2.260  2.1461  0.2318 -1.3339
  457MOL0     H61687   0.901   1.686   2.352  1.2844  1.1286 -1.3413
  457MOL0     H61688   0.999   1.566   2.274  2.3777 -2.6007  1.5985
  457MOL0     H61689   1.126   1.597   2.434  0.1350 -0.0640  1.3343
  457MOL0     H61690   1.036   1.460   2.503  2.8831 -0.4581 -1.7263
  457MOL0     H61691   0.903   1.643   2.625 -1.4706  1.0261 -1.7851
  457MOL0     H61692   1.006   1.759   2.542 -0.1797 -0.4895 -0.3485
  457MOL0     H61693   1.264   1.630   2.852  0.4013  2.4228 -0.2304
  457MOL0     H61694   0.632   1.284   2.397 -0.4849  0.1277 -1.7255
  457MOL0     H61695   0.439   1.185   2.494  1.0765  0.1247 -1.2655
  458MOL0     O61696   4.712   2.536   9.568 -0.6879 -0.5078  0.1743
  458MOL0     C61697   4.643   2.617   9.501  0.3139 -0.3757  0.2876
  458MOL0     O61698   4.684   2.687   9.390 -0.2418 -0.0586  1.0243
  458MOL0     C61699   4.817   2.684   9.343  0.4024  0.0903 -1.2041
  458MOL0     C61700   4.842   2.762   9.234 -0.7710  0.0180 -0.1670
  458MOL0     C61701   4.962   2.756   9.163 -0.3504 -0.0110 -0.8044
  458MOL0     C61702   5.064   2.664   9.202  0.4081  0.0369  0.1641
  458MOL0     O61703   5.178   2.661   9.128  0.4731  0.4809  0.4122
  458MOL0     C61704   5.170   2.581   9.010  0.3771 -0.0749 -0.1709
  458MOL0     C61705   5.292   2.593   8.921 -0.2256  0.2234  0.1083
  458MOL0     C61706   5.421   2.549   9.001  0.8689 -0.3758 -0.3616
  458MOL0     C61707   5.539   2.564   8.912  0.7626  0.3120  0.0726
  458MOL0     C61708   5.647   2.476   8.968 -0.8753  0.7131  0.4755
  458MOL0     C61709   5.792   2.469   8.898 -0.0072 -0.5159  0.2076
  458MOL0     C61710   5.794   2.429   8.749  0.2965 -0.5440  0.6965
  458MOL0     C61711   5.928   2.404   8.695 -0.8554 -0.1130  0.7153
  458MOL0     N61712   5.923   2.378   8.550 -0.0840 -0.6187  0.1336
  458MOL0     C61713   5.835   2.429   8.455 -0.5055  0.0265 -0.2433
  458MOL0     C61714   5.835   2.329   8.360 -0.0450 -1.3534  0.8477
  458MOL0     C61715   5.765   2.336   8.222  0.7119  0.5948 -0.8416
  458MOL0     C61716   5.615   2.363   8.248 -0.1752  1.2107 -0.4032
  458MOL0     C61717   5.529   2.326   8.127 -0.0399  0.5349 -0.5682
  458MOL0     C61718   5.391   2.364   8.160  0.9792  0.0275 -0.1608
  458MOL0     O61719   5.350   2.495   8.130 -0.3518 -0.0797  0.7710
  458MOL0     C61720   5.219   2.534   8.149  0.4065 -0.7691  0.2385
  458MOL0     C61721   5.186   2.670   8.122  0.5745  0.5690  0.3434
  458MOL0     C61722   5.064   2.722   8.140  0.1460 -0.3810 -0.0382
  458MOL0     C61723   5.040   2.874   8.112  0.6213  0.4626 -0.0274
  458MOL0     C61724   4.962   2.636   8.192  0.2421 -0.2414  0.1341
  458MOL0     C61725   4.816   2.672   8.207  0.6698  1.1475 -0.2209
  458MOL0     O61726   4.734   2.635   8.105 -0.3641 -0.1744  0.7287
  458MOL0     C61727   4.603   2.643   8.112 -0.0443  1.2180 -0.2581
  458MOL0     C61728   4.532   2.572   8.214 -0.7687 -0.7527 -0.2989
  458MOL0     C61729   4.388   2.588   8.220 -0.3291  0.1789  0.6893
  458MOL0     C61730   4.322   2.667   8.123  0.3049 -0.7768  0.6569
  458MOL0     O61731   4.189   2.675   8.100 -0.3189 -0.5836  0.5171
  458MOL0     C61732   4.100   2.601   8.182  0.9354 -0.0308 -0.5914
  458MOL0     C61733   3.962   2.630   8.130  0.4557  0.0170 -0.8476
  458MOL0     C61734   3.844   2.554   8.211  0.1166 -1.7372  0.0853
  458MOL0     C61735   3.837   2.412   8.163  0.4432  0.7710  0.0239
  458MOL0     C61736   3.719   2.384   8.064  1.1037  0.6735 -0.2683
  458MOL0     C61737   3.712   2.252   7.985 -0.1778  1.0157 -0.4640
  458MOL0     C61738   3.591   2.241   7.895 -0.1288 -1.2450 -0.4644
  458MOL0     C61739   3.477   2.166   7.959 -0.2734 -0.5499 -0.9316
  458MOL0    Cl61740   3.323   2.210   7.892  0.2657 -0.2706  0.3564
  458MOL0     C61741   4.394   2.736   8.028  0.6901  1.1562  0.0880
  458MOL0     C61742   4.531   2.722   8.016  0.8147 -0.0827 -0.2501
  458MOL0     O61743   4.784   2.732   8.306  0.7052 -0.1827  0.4096
  458MOL0     C61744   4.991   2.499   8.204  0.1078  0.1065 -0.8708
  458MOL0     C61745   5.123   2.449   8.194 -0.9867 -0.1176 -0.6121
  458MOL0     N61746   5.929   2.231   8.392  0.3869  0.3017  0.4063
  458MOL0     N61747   5.970   2.259   8.505 -0.3420  0.5728  0.1264
  458MOL0     C61748   5.038   2.588   9.312  0.1373 -0.2358  0.2760
  458MOL0     C61749   4.920   2.602   9.386  0.1037  0.1964  0.1401
  458MOL0     C61750   4.509   2.653   9.551 -0.1680 -0.0663  0.0578
  458MOL0     C61751   4.453   2.778   9.526 -0.4859  0.8546  0.1102
  458MOL0     C61752   4.336   2.817   9.589  0.7795  0.1024 -0.3119
  458MOL0     C61753   4.269   2.717   9.660 -0.4372 -0.3182 -0.0422
  458MOL0     O61754   4.139   2.730   9.713  0.0359 -0.1608  0.0095
  458MOL0     C61755   4.087   2.853   9.775  0.0540  0.8021  0.0401
  458MOL0     C61756   3.995   2.821   9.900  0.3105  0.4778  0.3806
  458MOL0     C61757   3.856   2.824   9.859 -0.4556 -0.7430 -0.5027
  458MOL0     C61758   3.758   2.813   9.982 -0.7867 -0.6509  0.4130
  458MOL0     C61759   3.637   2.872   9.926 -0.2822  0.2651 -0.6205
  458MOL0     C61760   3.528   2.910   9.884  0.3930  0.0865 -0.3582
  458MOL0     C61761   4.316   2.589   9.679 -0.4948  0.3179  0.0201
  458MOL0     C61762   4.440   2.557   9.620 -0.0905 -0.0682  0.3430
  458MOL0     H61763   4.761   2.826   9.201 -1.0328 -0.4924 -0.5197
  458MOL0     H61764   4.994   2.825   9.085  0.0149  3.4810  2.1889
  458MOL0     H61765   5.161   2.478   9.046  1.1066  0.0971  0.5392
  458MOL0     H61766   5.082   2.616   8.955 -0.2340  0.4535  1.1044
  458MOL0     H61767   5.284   2.520   8.839  0.5594 -0.6445  0.7745
  458MOL0     H61768   5.307   2.695   8.886  1.4661 -0.4433 -1.2658
  458MOL0     H61769   5.446   2.596   9.097  0.3313 -1.8234  0.5303
  458MOL0     H61770   5.405   2.444   9.028  2.6795 -0.5800  0.0595
  458MOL0     H61771   5.531   2.544   8.804  2.8841 -0.5690  0.0348
  458MOL0     H61772   5.574   2.668   8.908  1.2883  0.1074 -1.6032
  458MOL0     H61773   5.667   2.503   9.072 -1.6047 -0.5834  0.9680
  458MOL0     H61774   5.622   2.370   8.967  0.4437  0.3736  1.0861
  458MOL0     H61775   5.835   2.569   8.911 -0.8688 -0.1225  0.0994
  458MOL0     H61776   5.853   2.388   8.940 -1.2789 -2.0863 -0.8551
  458MOL0     H61777   5.739   2.335   8.741  1.8079 -1.6182  2.3032
  458MOL0     H61778   5.756   2.505   8.679  0.5982 -0.9761  0.0552
  458MOL0     H61779   5.974   2.322   8.750  1.0044 -0.7032 -1.5700
  458MOL0     H61780   5.985   2.497   8.707 -0.7541 -0.1424  0.4616
  458MOL0     H61781   5.778   2.522   8.455 -1.7513 -0.6512  1.9800
  458MOL0     H61782   5.803   2.424   8.169 -0.7536  1.2284 -0.8895
  458MOL0     H61783   5.780   2.251   8.156  2.1081  0.7859 -0.8071
  458MOL0     H61784   5.609   2.468   8.278  0.3680  1.2375 -0.3731
  458MOL0     H61785   5.574   2.301   8.328 -1.6385  1.1340 -1.1728
  458MOL0     H61786   5.536   2.222   8.093 -5.1461  0.2409 -1.5520
  458MOL0     H61787   5.555   2.389   8.040  1.6945  1.3990  0.5181
  458MOL0     H61788   5.378   2.349   8.268  3.6822  1.0943  0.3926
  458MOL0     H61789   5.335   2.285   8.109  2.8108 -1.6993  0.3533
  458MOL0     H61790   5.267   2.729   8.080 -0.4539 -0.2572 -3.1778
  458MOL0     H61791   4.954   2.896   8.048  1.6526  0.7316 -1.3513
  458MOL0     H61792   5.019   2.912   8.213  0.4568  2.2854 -0.7242
  458MOL0     H61793   5.132   2.921   8.078  2.2848 -0.1993  3.1777
  458MOL0     H61794   4.593   2.503   8.270 -1.7489 -0.0645  1.7247
  458MOL0     H61795   4.334   2.547   8.305  1.2197  2.3123  2.8292
  458MOL0     H61796   4.126   2.494   8.186  0.0630 -0.3057  4.1048
  458MOL0     H61797   4.100   2.639   8.285 -1.2685 -1.8735  0.1844
  458MOL0     H61798   3.934   2.734   8.148 -1.7479 -0.7517  0.6939
  458MOL0     H61799   3.961   2.613   8.022 -2.7809 -1.0665 -0.7525
  458MOL0     H61800   3.747   2.599   8.188  0.6700 -0.1061  0.7877
  458MOL0     H61801   3.875   2.559   8.315  3.7288 -1.0628 -0.8856
  458MOL0     H61802   3.931   2.380   8.117  0.1558  0.7641 -0.5666
  458MOL0     H61803   3.817   2.341   8.243 -3.6798  0.6189 -0.9542
  458MOL0     H61804   3.694   2.463   7.993 -2.2632 -0.3305 -0.4097
  458MOL0     H61805   3.643   2.383   8.144  1.9386  0.3249  0.5388
  458MOL0     H61806   3.799   2.225   7.924 -2.7174 -3.2160 -2.6934
  458MOL0     H61807   3.722   2.174   8.061  0.4296  3.3940  2.0479
  458MOL0     H61808   3.612   2.195   7.797 -3.5109  1.5387 -2.7279
  458MOL0     H61809   3.549   2.340   7.878 -1.6109 -1.4348  1.7390
  458MOL0     H61810   3.475   2.206   8.061  0.2864  1.0021 -1.5016
  458MOL0     H61811   3.505   2.061   7.970  0.6912 -0.0659  3.0412
  458MOL0     H61812   4.347   2.804   7.957 -1.0135  0.5262  0.5495
  458MOL0     H61813   4.596   2.781   7.952  1.3666  1.1479  1.3717
  458MOL0     H61814   4.920   2.426   8.243  2.3151 -0.3240  2.8152
  458MOL0     H61815   5.145   2.345   8.216 -3.2502 -0.3377  0.9321
  458MOL0     H61816   5.115   2.517   9.338  1.1139  0.4153 -0.7285
  458MOL0     H61817   4.918   2.524   9.461  3.0381 -0.2976 -0.1573
  458MOL0     H61818   4.513   2.853   9.476 -1.4436  1.6751  0.1782
  458MOL0     H61819   4.292   2.916   9.581 -0.4838 -0.2144  1.9940
  458MOL0     H61820   4.166   2.916   9.816  1.5852 -1.8871  1.5347
  458MOL0     H61821   4.030   2.913   9.704  0.5590 -1.0592 -2.0766
  458MOL0     H61822   4.015   2.895   9.978  2.4449 -0.5044  0.8651
  458MOL0     H61823   4.020   2.722   9.942  1.1345  0.6454  0.3080
  458MOL0     H61824   3.837   2.748   9.783 -3.0932  1.4344 -2.2190
  458MOL0     H61825   3.842   2.925   9.819 -1.6693 -0.7599 -0.1735
  458MOL0     H61826   3.787   2.879  10.064  2.2570  2.0262 -2.5129
  458MOL0     H61827   3.754   2.710  10.019  0.9350 -0.9481 -0.1154
  458MOL0     H61828   3.440   2.957   9.844 -1.5365 -2.0235  1.0940
  458MOL0     H61829   4.251   2.510   9.716  0.8044 -0.4319  0.7683
  458MOL0     H61830   4.482   2.458   9.633 -1.7673 -0.6282  2.0266
  459MOL0     O61831   2.140   6.809   3.800  0.3455  0.4873 -0.3366
  459MOL0     C61832   2.091   6.800   3.912  0.3024 -0.6034  0.5153
  459MOL0     O61833   1.953   6.779   3.935  0.0475  0.7082 -0.3717
  459MOL0     C61834   1.866   6.768   3.830  0.9315  0.3619 -0.3060
  459MOL0     C61835   1.776   6.657   3.835 -0.1114  0.3245  0.0126
  459MOL0     C61836   1.688   6.627   3.732  0.2115 -0.5851 -0.2094
  459MOL0     C61837   1.685   6.709   3.616  0.8481  0.2371  0.9109
  459MOL0     O61838   1.589   6.690   3.518 -0.1046 -0.1524 -0.3027
  459MOL0     C61839   1.555   6.553   3.480 -0.0562 -1.3356 -0.5518
  459MOL0     C61840   1.475   6.556   3.353  0.4643  0.2195  0.1046
  459MOL0     C61841   1.378   6.441   3.350 -0.3512 -0.7149  0.3472
  459MOL0     C61842   1.301   6.449   3.217  0.6512 -0.5924 -0.8172
  459MOL0     C61843   1.170   6.367   3.232  0.2116 -0.0207 -0.0948
  459MOL0     C61844   1.100   6.367   3.099 -0.1880  0.4717  0.4645
  459MOL0     C61845   0.978   6.269   3.104 -1.0550 -0.4016  0.2178
  459MOL0     C61846   0.919   6.247   2.971  0.1181 -0.2050  0.4178
  459MOL0     N61847   0.898   6.368   2.889 -0.2065 -0.2690 -0.0360
  459MOL0     C61848   0.863   6.497   2.934  0.8953 -0.4714  0.7473
  459MOL0     C61849   0.855   6.577   2.820  0.1559 -0.4965 -0.3400
  459MOL0     C61850   0.809   6.722   2.822  0.6909  0.0162  0.3351
  459MOL0     C61851   0.663   6.730   2.784 -0.3459  0.3160 -0.0066
  459MOL0     C61852   0.566   6.668   2.894  0.1780 -0.3907  0.4322
  459MOL0     C61853   0.557   6.746   3.020  0.0415 -0.4386  0.0899
  459MOL0     O61854   0.449   6.703   3.104 -0.1953  0.1510  0.1477
  459MOL0     C61855   0.325   6.764   3.085 -0.2922 -0.0806  0.4651
  459MOL0     C61856   0.317   6.905   3.080  0.6229  0.3296  0.6846
  459MOL0     C61857   0.188   6.965   3.062 -0.3616  0.8090 -0.6318
  459MOL0     C61858   0.193   7.112   3.045 -0.2095 -0.9235 -0.3764
  459MOL0     C61859   0.078   6.883   3.029  0.7415 -0.4645 -0.1121
  459MOL0     C61860  -0.062   6.935   2.995 -0.7123 -0.4191 -0.2481
  459MOL0     O61861  -0.146   6.851   2.936 -0.5666  0.2811 -0.4072
  459MOL0     C61862  -0.276   6.873   2.922  0.5040 -0.0429 -0.7518
  459MOL0     C61863  -0.351   6.991   2.912 -0.1548 -0.0537 -0.2203
  459MOL0     C61864  -0.485   6.982   2.875  0.0748 -0.6414  0.3287
  459MOL0     C61865  -0.544   6.857   2.871  0.1682  0.2116  0.1907
  459MOL0     O61866  -0.676   6.832   2.840 -0.1258 -0.6268  0.5412
  459MOL0     C61867  -0.768   6.936   2.848 -0.4216  0.5978 -0.5345
  459MOL0     C61868  -0.906   6.878   2.848  0.5671 -0.0125 -0.2361
  459MOL0     C61869  -1.014   6.992   2.861 -0.1472 -0.9925 -0.1031
  459MOL0     C61870  -1.146   6.936   2.913 -0.7073 -0.2251  0.5633
  459MOL0     C61871  -1.265   7.032   2.888 -0.5929 -0.6472 -0.0903
  459MOL0     C61872  -1.396   6.967   2.921  0.0899 -0.3406 -1.0898
  459MOL0     C61873  -1.513   7.070   2.945  0.6663  0.4209 -0.8908
  459MOL0     C61874  -1.647   7.008   2.982  0.0004  0.5336  0.5671
  459MOL0    Cl61875  -1.701   6.887   2.863  0.7309 -0.1201 -0.4872
  459MOL0     C61876  -0.467   6.751   2.883  0.0212  0.5468  0.3041
  459MOL0     C61877  -0.335   6.750   2.901 -0.0237 -0.3799  0.8282
  459MOL0     O61878  -0.100   7.042   3.047  0.4572 -0.5679  0.2364
  459MOL0     C61879   0.090   6.744   3.038  0.0777  0.0915 -0.0722
  459MOL0     C61880   0.214   6.682   3.065 -0.0815  0.1650 -0.7741
  459MOL0     N61881   0.882   6.501   2.706  0.8993 -0.4033  0.4729
  459MOL0     N61882   0.919   6.383   2.751  0.0616 -0.1305 -0.7334
  459MOL0     C61883   1.765   6.823   3.617  0.7958 -0.6979  0.0348
  459MOL0     C61884   1.858   6.844   3.718 -0.2557 -0.4125 -0.7493
  459MOL0     C61885   2.180   6.816   4.032 -0.6083  1.0167  0.6169
  459MOL0     C61886   2.120   6.810   4.160 -0.5791 -0.6753 -0.0764
  459MOL0     C61887   2.203   6.837   4.271  0.0732  0.6319 -0.2851
  459MOL0     C61888   2.341   6.861   4.255 -0.8883 -0.7849 -0.1252
  459MOL0     O61889   2.414   6.879   4.369  0.2795  0.3023  0.7930
  459MOL0     C61890   2.560   6.891   4.386 -0.2248 -0.4737  0.5957
  459MOL0     C61891   2.595   6.899   4.535 -0.2119 -0.6471 -0.7768
  459MOL0     C61892   2.490   6.982   4.621 -0.3788  0.1494 -1.0259
  459MOL0     C61893   2.467   7.118   4.563  0.0621  0.4093 -0.4537
  459MOL0     C61894   2.381   7.209   4.645  0.5129  0.3484 -0.1211
  459MOL0     C61895   2.301   7.274   4.712 -0.0358 -0.9613  1.0295
  459MOL0     C61896   2.399   6.862   4.127 -0.0019 -0.7589 -0.5343
  459MOL0     C61897   2.315   6.845   4.018  0.5417  0.1203 -0.1760
  459MOL0     H61898   1.775   6.581   3.912 -0.1150  0.2957 -0.0162
  459MOL0     H61899   1.626   6.539   3.745  0.4874 -0.4680  2.4191
  459MOL0     H61900   1.640   6.485   3.471 -1.5716 -3.2574 -1.1816
  459MOL0     H61901   1.507   6.500   3.562  5.1134 -0.9534  3.2314
  459MOL0     H61902   1.422   6.652   3.348 -0.3255 -0.0439  2.4902
  459MOL0     H61903   1.542   6.542   3.267 -0.1131  1.1494 -0.5169
  459MOL0     H61904   1.432   6.345   3.348  3.2646  1.0560  2.1828
  459MOL0     H61905   1.318   6.451   3.440  0.6991 -2.7288  1.3409
  459MOL0     H61906   1.279   6.547   3.174 -0.7890 -0.8674 -0.7421
  459MOL0     H61907   1.362   6.404   3.139 -0.6781  0.0622 -2.2977
  459MOL0     H61908   1.196   6.267   3.267 -1.1024 -0.7469 -1.1246
  459MOL0     H61909   1.110   6.421   3.305  0.8178  1.7152 -0.8131
  459MOL0     H61910   1.091   6.472   3.068  0.4908 -0.0944 -1.8395
  459MOL0     H61911   1.170   6.320   3.030  1.2504  1.6548  1.0626
  459MOL0     H61912   1.006   6.172   3.146  3.0766 -0.2709 -1.7297
  459MOL0     H61913   0.903   6.323   3.162 -1.3359  1.3283 -1.6406
  459MOL0     H61914   0.822   6.199   2.989  0.1762 -1.2016 -1.6523
  459MOL0     H61915   0.983   6.184   2.910 -1.9034  0.7948 -2.9960
  459MOL0     H61916   0.845   6.527   3.037  4.4699  2.5691  0.7227
  459MOL0     H61917   0.806   6.765   2.922  1.6784  0.1055  0.3406
  459MOL0     H61918   0.874   6.767   2.746  0.0335 -0.6566 -0.6571
  459MOL0     H61919   0.633   6.679   2.692  2.5729 -2.0605  0.2048
  459MOL0     H61920   0.640   6.837   2.781  1.7923  0.8397  0.3824
  459MOL0     H61921   0.587   6.561   2.905  2.2092  0.0498  1.0883
  459MOL0     H61922   0.464   6.673   2.854  0.6118  2.0502 -0.5231
  459MOL0     H61923   0.555   6.851   2.989  0.1004 -0.1107  1.1581
  459MOL0     H61924   0.649   6.728   3.075  0.7356  0.3303 -0.7959
  459MOL0     H61925   0.404   6.965   3.105  0.9404  0.4219 -0.6111
  459MOL0     H61926   0.292   7.152   3.020  1.1592 -1.2480  3.7444
  459MOL0     H61927   0.119   7.153   2.975 -0.0708 -0.8699 -0.4929
  459MOL0     H61928   0.164   7.159   3.139 -1.2150 -2.7172  0.2446
  459MOL0     H61929  -0.308   7.087   2.937 -2.7536  0.8136  1.1863
  459MOL0     H61930  -0.540   7.074   2.861  0.8018  0.0560  1.7860
  459MOL0     H61931  -0.754   6.997   2.938  1.7204 -0.1564 -0.3081
  459MOL0     H61932  -0.757   7.003   2.762  0.0502  0.4578 -0.5809
  459MOL0     H61933  -0.933   6.821   2.759 -0.1219  3.5788 -2.5228
  459MOL0     H61934  -0.913   6.819   2.940  0.0917  1.3196  0.6205
  459MOL0     H61935  -1.036   7.031   2.761 -1.9524  0.2620  0.7374
  459MOL0     H61936  -0.976   7.081   2.913  0.4588 -1.3430  0.0771
  459MOL0     H61937  -1.168   6.840   2.864  2.6083 -1.0591  0.4409
  459MOL0     H61938  -1.137   6.914   3.020  1.0261 -1.1910  0.2680
  459MOL0     H61939  -1.276   7.071   2.787 -0.7809 -0.7305 -0.1025
  459MOL0     H61940  -1.262   7.117   2.956  0.1205 -0.1373 -0.7370
  459MOL0     H61941  -1.417   6.898   2.838 -0.9518  0.4190 -1.4890
  459MOL0     H61942  -1.381   6.916   3.016 -1.3824  0.5977 -0.3107
  459MOL0     H61943  -1.532   7.112   2.846  0.9623  2.8661  0.0046
  459MOL0     H61944  -1.483   7.138   3.025 -0.6860 -0.6625  0.6107
  459MOL0     H61945  -1.722   7.086   2.995 -2.0720 -1.2842  0.1216
  459MOL0     H61946  -1.636   6.957   3.078 -0.9793 -0.5547  0.1251
  459MOL0     H61947  -0.501   6.649   2.869  0.6504  0.5205 -1.2908
  459MOL0     H61948  -0.278   6.658   2.906  1.4720  0.4442 -0.2772
  459MOL0     H61949   0.004   6.680   3.026  1.8983 -2.5727  0.2270
  459MOL0     H61950   0.232   6.577   3.082  0.0102  0.2829 -0.1233
  459MOL0     H61951   1.743   6.886   3.532 -0.8946 -0.7999  0.3502
  459MOL0     H61952   1.926   6.927   3.703 -1.0868  1.1807  3.0651
  459MOL0     H61953   2.014   6.802   4.181 -0.8003  1.8816  0.1026
  459MOL0     H61954   2.159   6.837   4.370 -1.2715 -2.8570 -0.7135
  459MOL0     H61955   2.616   6.812   4.335  0.2343  0.4958 -0.4665
  459MOL0     H61956   2.595   6.981   4.334  0.6047 -1.5767 -0.8415
  459MOL0     H61957   2.691   6.949   4.553 -0.9169  0.2750  0.6740
  459MOL0     H61958   2.599   6.798   4.575 -0.3836  0.4212  2.2169
  459MOL0     H61959   2.529   6.993   4.723 -1.9609 -0.0709 -0.3609
  459MOL0     H61960   2.395   6.929   4.627 -0.2284  0.0465  1.5814
  459MOL0     H61961   2.407   7.106   4.472 -1.5271 -0.4290  0.6574
  459MOL0     H61962   2.566   7.165   4.555  0.7156  0.3408  4.3121
  459MOL0     H61963   2.237   7.344   4.762  2.3414  1.8226  0.4104
  459MOL0     H61964   2.503   6.891   4.136 -0.7689  1.7054  1.2181
  459MOL0     H61965   2.359   6.849   3.919  0.1926 -1.9351 -0.4542
  460MOL0     O61966   7.062   9.309  10.966  0.1948  0.7106 -0.0305
  460MOL0     C61967   7.043   9.188  10.990 -0.4046  0.0805 -0.4512
  460MOL0     O61968   7.138   9.088  11.001  0.3252 -0.6510  0.0992
  460MOL0     C61969   7.268   9.122  11.015 -0.5473  1.2674  0.0444
  460MOL0     C61970   7.319   9.187  11.129  0.6931  0.2858  0.8658
  460MOL0     C61971   7.450   9.227  11.143 -0.1327  0.4509  0.2807
  460MOL0     C61972   7.537   9.184  11.043  0.2060 -0.0565  0.0264
  460MOL0     O61973   7.671   9.223  11.068 -0.3063  0.1276  0.4441
  460MOL0     C61974   7.776   9.136  11.014 -0.2662 -0.1152 -0.0990
  460MOL0     C61975   7.891   9.141  11.115  0.0822 -0.4798 -0.7015
  460MOL0     C61976   8.021   9.084  11.063  0.6304  0.0116  0.2577
  460MOL0     C61977   8.134   9.099  11.159  0.4595  0.3567  0.3468
  460MOL0     C61978   8.256   9.014  11.118  0.3007 -1.1712 -0.1516
  460MOL0     C61979   8.343   9.061  11.000  0.7072  0.7985 -0.4206
  460MOL0     C61980   8.472   8.986  10.977  0.3991  0.5762 -0.3218
  460MOL0     C61981   8.549   8.944  11.102 -0.6182  0.3387  0.0147
  460MOL0     N61982   8.685   8.903  11.085 -0.4373 -0.5921  0.0254
  460MOL0     C61983   8.720   8.788  11.031 -0.0624 -0.0392  0.4467
  460MOL0     C61984   8.853   8.789  11.024  0.0974 -0.7306 -0.0464
  460MOL0     C61985   8.941   8.691  10.970  0.3416  0.3183 -0.0119
  460MOL0     C61986   8.990   8.713  10.825 -0.4771 -0.6917 -0.6315
  460MOL0     C61987   8.869   8.708  10.729  0.2684 -0.5473  0.3264
  460MOL0     C61988   8.809   8.575  10.705  0.1466  0.4592  0.2194
  460MOL0     O61989   8.692   8.548  10.792 -0.2303 -0.7394 -0.4961
  460MOL0     C61990   8.568   8.606  10.779  0.5945 -0.3012 -0.5178
  460MOL0     C61991   8.539   8.705  10.682  0.1278  0.8875 -1.6255
  460MOL0     C61992   8.415   8.763  10.668  0.0600 -0.5568 -0.5713
  460MOL0     C61993   8.391   8.872  10.557 -0.8545 -0.1815 -0.2005
  460MOL0     C61994   8.312   8.725  10.761 -0.7093 -0.2384  0.0946
  460MOL0     C61995   8.172   8.785  10.764 -0.1087  1.0942  0.0824
  460MOL0     O61996   8.126   8.855  10.660  0.5729 -0.3048 -0.1315
  460MOL0     C61997   8.000   8.900  10.650  0.2248 -0.4445  0.7292
  460MOL0     C61998   7.991   9.033  10.628 -0.0370  0.4553  0.3681
  460MOL0     C61999   7.865   9.094  10.607  0.8186  0.4584 -0.6817
  460MOL0     C62000   7.741   9.018  10.614 -0.8153 -0.3009 -0.4361
  460MOL0     O62001   7.618   9.076  10.609 -0.1898  0.1318  0.0081
  460MOL0     C62002   7.602   9.219  10.602  0.0751  0.3569 -0.1659
  460MOL0     C62003   7.478   9.276  10.549 -0.9999 -0.6166 -0.3020
  460MOL0     C62004   7.459   9.249  10.403  0.4005  0.8226 -0.3617
  460MOL0     C62005   7.363   9.353  10.344 -0.3233  0.0465  0.6450
  460MOL0     C62006   7.270   9.288  10.239 -0.1378  0.2578  0.2950
  460MOL0     C62007   7.171   9.391  10.184 -0.6514  0.0850  0.3555
  460MOL0     C62008   7.062   9.336  10.098 -0.1973 -0.0168  0.1164
  460MOL0     C62009   6.956   9.443  10.073  0.1161 -0.1659  0.3149
  460MOL0    Cl62010   6.840   9.382   9.958 -0.0289 -0.2629  0.1901
  460MOL0     C62011   7.756   8.878  10.634  0.3825  0.2349  0.1584
  460MOL0     C62012   7.889   8.827  10.652 -0.7869  0.3332  0.7473
  460MOL0     O62013   8.103   8.757  10.863  0.4879  0.1666  0.3630
  460MOL0     C62014   8.341   8.629  10.856 -0.4303  0.4671 -0.5275
  460MOL0     C62015   8.470   8.571  10.860  0.0241  0.1372  0.1968
  460MOL0     N62016   8.904   8.909  11.081  0.2729  0.1533  0.5382
  460MOL0     N62017   8.798   8.978  11.107  0.6081 -0.3634  0.2894
  460MOL0     C62018   7.496   9.102  10.936  0.1166 -0.2640 -0.4204
  460MOL0     C62019   7.362   9.077  10.920 -0.9414  0.9390  0.0608
  460MOL0     C62020   6.903   9.146  11.015 -0.0211  0.7327 -0.8898
  460MOL0     C62021   6.872   9.015  11.073  0.0880  0.2032  0.2872
  460MOL0     C62022   6.734   8.989  11.104  0.3403 -1.1297  1.2325
  460MOL0     C62023   6.629   9.080  11.084  0.0395 -0.5080 -0.9210
  460MOL0     O62024   6.494   9.054  11.116 -0.2080 -0.7618 -0.8288
  460MOL0     C62025   6.440   8.920  11.125 -0.5922 -0.3651  0.5346
  460MOL0     C62026   6.292   8.920  11.103 -0.7994 -0.4809 -0.4297
  460MOL0     C62027   6.216   8.787  11.108  0.0959  0.2118  0.2401
  460MOL0     C62028   6.243   8.696  10.984  0.6224  0.1166 -0.0486
  460MOL0     C62029   6.373   8.633  10.993  0.1274 -0.2726  0.5574
  460MOL0     C62030   6.479   8.573  10.999  0.3650 -0.3543  0.2381
  460MOL0     C62031   6.661   9.198  11.039 -0.3189  0.1764  0.2802
  460MOL0     C62032   6.792   9.226  10.995 -0.8382 -0.7202  0.2127
  460MOL0     H62033   7.233   9.221  11.186 -1.2267 -0.3213 -1.4897
  460MOL0     H62034   7.481   9.272  11.237 -1.0931 -3.2627  2.5605
  460MOL0     H62035   7.745   9.031  11.013 -2.3740  0.3293  3.0979
  460MOL0     H62036   7.809   9.168  10.915  3.5835 -0.4219  0.9138
  460MOL0     H62037   7.910   9.244  11.145  1.7179 -0.0447 -2.9735
  460MOL0     H62038   7.863   9.089  11.207  1.5214 -0.8362 -0.4261
  460MOL0     H62039   8.016   8.976  11.044 -3.0086 -0.0053  0.5791
  460MOL0     H62040   8.046   9.125  10.964 -0.8234  3.3667  1.1406
  460MOL0     H62041   8.167   9.204  11.163 -2.6600  1.4222  1.7531
  460MOL0     H62042   8.110   9.060  11.259 -1.4679 -1.1492 -0.6300
  460MOL0     H62043   8.326   9.023  11.202  0.3485 -2.1166 -0.0735
  460MOL0     H62044   8.222   8.910  11.107 -2.1378 -0.5284  0.6590
  460MOL0     H62045   8.285   9.052  10.907 -0.5474  1.5286  0.2565
  460MOL0     H62046   8.364   9.168  10.999  1.4584  0.6775  0.8079
  460MOL0     H62047   8.445   8.895  10.921 -1.6684  0.7613  0.2971
  460MOL0     H62048   8.532   9.046  10.908  4.7681 -0.6959  2.0087
  460MOL0     H62049   8.487   8.873  11.157 -3.1429  2.2785 -0.1430
  460MOL0     H62050   8.560   9.026  11.174  1.3234 -1.8584  2.4465
  460MOL0     H62051   8.657   8.702  11.010  0.4951 -0.1408 -0.8789
  460MOL0     H62052   9.039   8.689  11.018 -0.5503  0.0535  1.9021
  460MOL0     H62053   8.896   8.592  10.984  0.7923 -0.2135 -2.0336
  460MOL0     H62054   9.067   8.639  10.799 -1.8130 -1.0722 -3.9751
  460MOL0     H62055   9.033   8.812  10.810 -2.4269  0.3694  0.3304
  460MOL0     H62056   8.911   8.740  10.633 -1.6577 -0.8371 -0.6519
  460MOL0     H62057   8.791   8.781  10.752 -0.1816 -0.4192 -1.4663
  460MOL0     H62058   8.880   8.494  10.723  0.4958 -0.3665 -3.9120
  460MOL0     H62059   8.786   8.553  10.600 -0.7385 -3.1489  1.0453
  460MOL0     H62060   8.613   8.741  10.611 -0.6965  2.5617 -1.6770
  460MOL0     H62061   8.331   8.831  10.476 -0.1931  1.6345 -1.6643
  460MOL0     H62062   8.333   8.954  10.599  0.6021 -0.2955  2.2838
  460MOL0     H62063   8.479   8.925  10.521 -3.2123  2.7875 -1.9717
  460MOL0     H62064   8.079   9.096  10.641 -0.8733  1.4184  1.6202
  460MOL0     H62065   7.860   9.200  10.585  0.6522  0.7271  0.5825
  460MOL0     H62066   7.620   9.256  10.703  0.6915 -0.1375 -0.0933
  460MOL0     H62067   7.675   9.274  10.541  0.5057 -1.3968 -1.2910
  460MOL0     H62068   7.387   9.256  10.607 -0.8114  1.2065  0.7118
  460MOL0     H62069   7.495   9.383  10.561  1.3141 -1.0868  1.2760
  460MOL0     H62070   7.411   9.151  10.407  0.9789  0.5660  1.0146
  460MOL0     H62071   7.552   9.241  10.347 -0.2183 -4.6025 -1.1329
  460MOL0     H62072   7.304   9.396  10.426  1.5823  2.0724  1.0713
  460MOL0     H62073   7.422   9.437  10.306 -1.1010  0.0622 -0.5892
  460MOL0     H62074   7.216   9.208  10.290  1.5011 -0.3820  1.0939
  460MOL0     H62075   7.324   9.238  10.159 -2.3080  1.8132 -2.3056
  460MOL0     H62076   7.127   9.447  10.266  0.0197  1.0341  0.0880
  460MOL0     H62077   7.223   9.467  10.125 -0.1109  0.9030  1.8452
  460MOL0     H62078   6.997   9.265  10.148 -2.7626  0.8284 -1.7805
  460MOL0     H62079   7.100   9.289  10.006  0.0022  2.0341 -0.9056
  460MOL0     H62080   6.990   9.532  10.019  2.0030 -0.6486  0.6215
  460MOL0     H62081   6.910   9.483  10.164  2.7648  0.1679  1.5954
  460MOL0     H62082   7.668   8.818  10.652  0.9210 -0.6983 -0.2597
  460MOL0     H62083   7.890   8.722  10.679  1.4106  0.3952  1.1479
  460MOL0     H62084   8.268   8.603  10.932  0.1763 -0.3037 -0.1960
  460MOL0     H62085   8.505   8.497  10.931 -1.4755 -0.1573  0.6621
  460MOL0     H62086   7.569   9.076  10.859  0.6392  0.8104 -0.3098
  460MOL0     H62087   7.319   9.039  10.828  1.0949  0.6152 -0.8033
  460MOL0     H62088   6.957   8.948  11.073  0.9700  1.1170 -3.3766
  460MOL0     H62089   6.706   8.886  11.122 -1.8766 -0.6714  0.6521
  460MOL0     H62090   6.495   8.867  11.047 -0.5883 -1.1714  1.0756
  460MOL0     H62091   6.458   8.868  11.220 -0.7183 -0.8223  0.3088
  460MOL0     H62092   6.283   8.963  11.002  0.6460  1.0373  0.0470
  460MOL0     H62093   6.232   8.985  11.168 -1.0103 -1.7282  0.6563
  460MOL0     H62094   6.107   8.798  11.111 -0.2365 -2.3523  3.0852
  460MOL0     H62095   6.245   8.734  11.199  2.1804  0.4077 -0.2691
  460MOL0     H62096   6.236   8.755  10.892 -2.4137  0.3259  0.2361
  460MOL0     H62097   6.168   8.616  10.982 -1.6924  2.0983  1.9774
  460MOL0     H62098   6.575   8.526  10.991 -0.1898 -1.7513  1.2703
  460MOL0     H62099   6.582   9.273  11.035 -0.0275  0.4327 -1.2247
  460MOL0     H62100   6.809   9.321  10.945 -2.4863 -1.6500 -2.3180
  461MOL0     O62101   4.426   8.296   3.499 -0.2841  0.6423  0.2166
  461MOL0     C62102   4.432   8.229   3.393  0.0832 -0.2871  0.6337
  461MOL0     O62103   4.503   8.252   3.283 -0.6810 -0.7670  0.3037
  461MOL0     C62104   4.580   8.366   3.274  0.3406  0.5484  0.4099
  461MOL0     C62105   4.524   8.491   3.260  0.2496  0.3126 -0.0441
  461MOL0     C62106   4.603   8.608   3.252 -0.2297 -0.2629  0.4351
  461MOL0     C62107   4.738   8.601   3.242  0.3761  0.4327  0.3190
  461MOL0     O62108   4.805   8.717   3.227  0.4240 -0.2879 -0.0422
  461MOL0     C62109   4.942   8.729   3.274 -0.0815  0.8160  0.4462
  461MOL0     C62110   5.007   8.855   3.212 -0.3219 -0.7093  0.9432
  461MOL0     C62111   4.940   8.988   3.242 -0.4261 -0.1663  0.2365
  461MOL0     C62112   4.946   9.077   3.120 -0.6571  0.3598  0.7232
  461MOL0     C62113   4.918   9.224   3.158 -0.4263  0.5865  0.8398
  461MOL0     C62114   4.789   9.245   3.230 -0.6175  0.4163 -0.4359
  461MOL0     C62115   4.741   9.387   3.266  0.3466  0.0591  0.7453
  461MOL0     C62116   4.807   9.435   3.396  0.3012 -0.1333 -0.3755
  461MOL0     N62117   4.770   9.573   3.433 -0.7259 -0.4535 -0.3275
  461MOL0     C62118   4.693   9.619   3.531  0.2942  0.1904 -0.2896
  461MOL0     C62119   4.680   9.754   3.510  0.1512  0.1804  0.1107
  461MOL0     C62120   4.603   9.861   3.592  0.5978  0.2223  0.4929
  461MOL0     C62121   4.455   9.878   3.533 -0.2836 -0.2207  0.8966
  461MOL0     C62122   4.358   9.770   3.575  0.5505 -0.4814  1.1903
  461MOL0     C62123   4.215   9.799   3.558  0.4084 -0.4658 -0.3776
  461MOL0     O62124   4.164   9.896   3.647 -0.4171  0.2623 -0.0688
  461MOL0     C62125   4.030   9.891   3.680 -0.1182 -0.2167 -0.3437
  461MOL0     C62126   4.000   9.969   3.793  1.0729  0.5047  0.6324
  461MOL0     C62127   3.866   9.966   3.837  0.1603  0.3388 -0.2062
  461MOL0     C62128   3.840  10.063   3.943  0.7396 -0.0532 -0.1225
  461MOL0     C62129   3.764   9.890   3.774  0.5788  0.3854 -0.2725
  461MOL0     C62130   3.618   9.901   3.806 -0.5043 -0.0854  0.1612
  461MOL0     O62131   3.567  10.024   3.830  0.3736 -0.0835 -0.1926
  461MOL0     C62132   3.435  10.035   3.860 -0.3545  0.2315 -0.8879
  461MOL0     C62133   3.337  10.028   3.762 -0.8566 -0.2765 -0.2691
  461MOL0     C62134   3.203  10.042   3.801 -0.1901 -0.1476 -0.4623
  461MOL0     C62135   3.169  10.069   3.933  0.3632  0.7108  0.7401
  461MOL0     O62136   3.041  10.074   3.973 -0.5345  0.0276 -0.2278
  461MOL0     C62137   3.001  10.174   4.063 -0.9125  0.0182  0.4958
  461MOL0     C62138   2.848  10.159   4.078  0.2644  0.1154 -0.7225
  461MOL0     C62139   2.814  10.024   4.153  0.8894  0.4532  0.6423
  461MOL0     C62140   2.669   9.980   4.129  0.2427 -0.0347  0.3720
  461MOL0     C62141   2.620   9.863   4.216  0.1967  0.2879  0.0040
  461MOL0     C62142   2.477   9.830   4.185  0.2898 -0.2511 -0.0087
  461MOL0     C62143   2.431   9.725   4.290  0.1891  0.1058 -0.0380
  461MOL0     C62144   2.292   9.659   4.269  0.6437 -0.2160  0.0620
  461MOL0    Cl62145   2.230   9.597   4.430 -0.1419  0.0302  0.3380
  461MOL0     C62146   3.275  10.086   4.030  0.1402  0.8518  0.1132
  461MOL0     C62147   3.409  10.069   3.994 -0.1403  0.1505  0.7666
  461MOL0     O62148   3.560   9.795   3.815 -0.1641 -0.3877 -0.7072
  461MOL0     C62149   3.800   9.798   3.674  0.0827 -0.2735  0.4400
  461MOL0     C62150   3.929   9.802   3.618  0.5520  0.2656  0.0029
  461MOL0     N62151   4.751   9.791   3.397  0.6446  0.3336 -0.1234
  461MOL0     N62152   4.812   9.686   3.358  0.0833  0.0868 -0.4662
  461MOL0     C62153   4.800   8.472   3.247 -0.2297  0.0077  0.1549
  461MOL0     C62154   4.715   8.355   3.261  0.5613  0.4294 -0.8849
  461MOL0     C62155   4.350   8.111   3.384  0.1415 -0.9657  0.5346
  461MOL0     C62156   4.224   8.109   3.445 -0.0817 -0.1301  0.5724
  461MOL0     C62157   4.152   7.984   3.459  0.5861  0.3617 -0.4840
  461MOL0     C62158   4.206   7.863   3.413 -0.0800 -0.4648  0.0950
  461MOL0     O62159   4.140   7.743   3.415  0.2610 -0.3741 -0.3679
  461MOL0     C62160   4.025   7.731   3.506 -0.3261  0.0070 -0.2170
  461MOL0     C62161   3.894   7.776   3.431 -0.6235  0.4349  0.5354
  461MOL0     C62162   3.769   7.734   3.494 -0.4856 -0.3575 -0.1457
  461MOL0     C62163   3.723   7.820   3.617 -0.0495  0.8759  0.4779
  461MOL0     C62164   3.729   7.963   3.598 -0.1212 -0.6116  0.4486
  461MOL0     C62165   3.713   8.080   3.565 -0.2628  0.4140 -0.6030
  461MOL0     C62166   4.329   7.863   3.345  0.1535  0.5611  0.4510
  461MOL0     C62167   4.398   7.985   3.337 -0.5625 -0.2005 -0.1142
  461MOL0     H62168   4.415   8.494   3.259  0.1947 -0.9406  0.4649
  461MOL0     H62169   4.559   8.708   3.251 -0.6410 -0.3416 -3.0144
  461MOL0     H62170   4.941   8.734   3.383 -0.9697 -0.4322  0.5310
  461MOL0     H62171   4.999   8.643   3.239 -1.7482 -0.5260  0.8778
  461MOL0     H62172   5.112   8.875   3.234 -0.3640  5.5834 -2.4740
  461MOL0     H62173   5.020   8.840   3.105  0.1797 -0.3799  0.9571
  461MOL0     H62174   4.834   8.969   3.261 -0.0105 -1.5959  1.2610
  461MOL0     H62175   4.976   9.036   3.334 -4.4968 -1.0207  2.5407
  461MOL0     H62176   5.046   9.064   3.076 -1.6803 -2.3883 -1.0337
  461MOL0     H62177   4.875   9.041   3.046  0.6659 -1.2137  0.1526
  461MOL0     H62178   5.000   9.267   3.216  0.9095 -0.6164 -0.1097
  461MOL0     H62179   4.916   9.279   3.063  2.8650 -0.6468 -0.0578
  461MOL0     H62180   4.720   9.207   3.154  0.6403  0.2783 -1.5478
  461MOL0     H62181   4.795   9.181   3.318 -0.9297 -0.6356 -1.1646
  461MOL0     H62182   4.768   9.457   3.186  2.2296 -2.9561 -1.4783
  461MOL0     H62183   4.635   9.378   3.291 -0.1209 -1.5719 -1.4459
  461MOL0     H62184   4.915   9.446   3.378  0.1730  0.2377 -0.9448
  461MOL0     H62185   4.784   9.370   3.480 -1.2641 -1.2069 -1.5919
  461MOL0     H62186   4.640   9.567   3.611  1.6007  1.8688  1.7764
  461MOL0     H62187   4.606   9.818   3.693 -0.7096 -0.2985  0.3338
  461MOL0     H62188   4.663   9.952   3.595  0.3454  0.4415 -0.7658
  461MOL0     H62189   4.466   9.884   3.425 -0.4063  1.1181  0.9379
  461MOL0     H62190   4.415   9.976   3.561 -1.8643  0.1469 -2.1687
  461MOL0     H62191   4.372   9.751   3.682  1.7970  2.5043  1.6576
  461MOL0     H62192   4.372   9.683   3.510 -0.3294 -0.0495  0.4102
  461MOL0     H62193   4.164   9.705   3.583 -3.7546  1.6506 -0.0310
  461MOL0     H62194   4.189   9.823   3.454  2.8779 -0.2736 -1.0125
  461MOL0     H62195   4.069  10.035   3.844  1.6519 -0.5719  1.2644
  461MOL0     H62196   3.792  10.148   3.895 -2.5397 -2.7819 -2.0885
  461MOL0     H62197   3.768  10.016   4.010 -0.1318 -0.6790 -1.4670
  461MOL0     H62198   3.931  10.093   3.996 -0.9006  0.9790  2.2797
  461MOL0     H62199   3.356   9.996   3.660  2.8580  1.0631 -0.1270
  461MOL0     H62200   3.129  10.029   3.722 -0.7758  1.3497 -0.2056
  461MOL0     H62201   3.036  10.166   4.167  0.2997  0.8121  0.1619
  461MOL0     H62202   3.015  10.271   4.016  0.8981 -0.2706  0.3877
  461MOL0     H62203   2.809  10.247   4.130  0.4178 -0.6934  0.8417
  461MOL0     H62204   2.809  10.150   3.976  1.3622  0.1527 -1.1562
  461MOL0     H62205   2.820  10.039   4.262  1.1381 -1.3915  0.9146
  461MOL0     H62206   2.863   9.935   4.113 -2.1408 -0.4340 -1.4676
  461MOL0     H62207   2.595  10.061   4.136  2.1875  2.2869 -2.9624
  461MOL0     H62208   2.669   9.955   4.023 -0.1586  0.2073  0.3137
  461MOL0     H62209   2.627   9.878   4.324 -1.4275 -1.3142  0.3893
  461MOL0     H62210   2.687   9.779   4.194  1.2507  1.0239  0.3326
  461MOL0     H62211   2.419   9.922   4.195 -2.3653 -1.9523  1.3666
  461MOL0     H62212   2.468   9.789   4.084 -0.9649 -1.2683  0.4968
  461MOL0     H62213   2.417   9.775   4.386 -0.6217  0.4075 -0.3010
  461MOL0     H62214   2.499   9.639   4.297 -0.7918 -0.8891 -1.8477
  461MOL0     H62215   2.294   9.579   4.194 -1.8309  1.3638 -1.8771
  461MOL0     H62216   2.218   9.731   4.234 -0.8032 -1.2037  0.9937
  461MOL0     H62217   3.249  10.118   4.130 -0.8147 -0.3131  0.2688
  461MOL0     H62218   3.485  10.068   4.071 -0.4863 -0.6457  1.1103
  461MOL0     H62219   3.726   9.727   3.636 -2.2645  2.6304 -0.7977
  461MOL0     H62220   3.969   9.736   3.542  0.5513 -0.6542  0.7741
  461MOL0     H62221   4.908   8.459   3.249 -0.0909  0.4069 -1.8606
  461MOL0     H62222   4.756   8.254   3.263 -1.6145 -0.5551  2.5535
  461MOL0     H62223   4.179   8.202   3.480  1.6816  0.3058  1.8441
  461MOL0     H62224   4.052   7.992   3.500  0.7143 -0.6685  0.0564
  461MOL0     H62225   4.013   7.623   3.521 -0.2113  0.0776  0.4062
  461MOL0     H62226   4.032   7.779   3.604 -1.4624 -2.7244  1.3279
  461MOL0     H62227   3.898   7.731   3.331  0.6364 -1.0591  1.2089
  461MOL0     H62228   3.895   7.884   3.418  1.2374  0.9566  3.7830
  461MOL0     H62229   3.782   7.630   3.525  0.9963 -0.1558 -0.0329
  461MOL0     H62230   3.691   7.731   3.417  1.1136 -0.0491 -1.8458
  461MOL0     H62231   3.788   7.793   3.701  2.0455  0.7352 -1.0902
  461MOL0     H62232   3.620   7.790   3.638 -0.2482 -0.0834 -1.5978
  461MOL0     H62233   3.688   8.182   3.543 -2.9888  0.0417  0.3358
  461MOL0     H62234   4.385   7.776   3.313  0.1365  0.8630 -0.4288
  461MOL0     H62235   4.499   7.977   3.300  0.5679  0.6323  2.5282
  462MOL0     O62236   6.062  10.492   8.623 -0.3155  0.6549  0.7167
  462MOL0     C62237   6.130  10.531   8.529  0.7320 -0.1730  0.6220
  462MOL0     O62238   6.088  10.606   8.419  0.5433  0.4886  0.2136
  462MOL0     C62239   5.956  10.606   8.395 -0.3009  1.7103 -0.1914
  462MOL0     C62240   5.865  10.697   8.450 -0.0131 -0.4578 -0.2454
  462MOL0     C62241   5.727  10.696   8.411 -0.7080 -0.8256  0.5497
  462MOL0     C62242   5.684  10.595   8.329  0.2264 -0.3622 -0.4722
  462MOL0     O62243   5.549  10.588   8.297 -0.0968  0.5758  0.1136
  462MOL0     C62244   5.485  10.517   8.408  0.0156  0.5069 -0.3941
  462MOL0     C62245   5.345  10.476   8.380  0.4093  0.1202 -0.1975
  462MOL0     C62246   5.290  10.403   8.502 -0.2904 -0.0166 -0.0027
  462MOL0     C62247   5.220  10.499   8.598 -0.4880  0.3608  0.5697
  462MOL0     C62248   5.160  10.427   8.725  0.4055 -0.6169 -0.1209
  462MOL0     C62249   5.068  10.516   8.821 -0.3796 -0.9212  0.4828
  462MOL0     C62250   4.931  10.522   8.766  0.5116 -0.0352 -0.1063
  462MOL0     C62251   4.830  10.578   8.860  0.9360  0.7140  0.3441
  462MOL0     N62252   4.856  10.711   8.915 -0.5132  0.8340  0.1252
  462MOL0     C62253   4.914  10.754   9.033  0.5718  0.0847  0.6428
  462MOL0     C62254   4.939  10.887   9.027  0.2141 -0.1473  1.0323
  462MOL0     C62255   5.007  10.966   9.134  0.1094 -0.0952 -0.7123
  462MOL0     C62256   4.926  10.973   9.271  0.2383 -0.6927 -0.5435
  462MOL0     C62257   4.888  11.128   9.294 -0.7974  0.9589  0.0135
  462MOL0     C62258   4.790  11.184   9.196 -0.3613  0.1145 -0.3848
  462MOL0     O62259   4.755  11.318   9.238  0.1299  0.6891  0.0797
  462MOL0     C62260   4.674  11.396   9.157 -0.2536  0.5102 -0.2506
  462MOL0     C62261   4.621  11.514   9.204 -0.0200 -0.1119  0.0882
  462MOL0     C62262   4.544  11.600   9.125 -0.0396 -0.4100 -0.5981
  462MOL0     C62263   4.462  11.699   9.200 -0.4199  0.0663 -0.4012
  462MOL0     C62264   4.541  11.587   8.984  1.2994  0.7325  0.0792
  462MOL0     C62265   4.464  11.675   8.886 -0.6704 -0.0632 -1.3424
  462MOL0     O62266   4.426  11.636   8.764 -1.2031  0.3225 -0.2181
  462MOL0     C62267   4.319  11.675   8.699  0.4178 -0.5730 -0.2004
  462MOL0     C62268   4.198  11.712   8.759 -0.1750  0.3279 -0.4110
  462MOL0     C62269   4.081  11.733   8.693 -1.0302 -0.4251 -0.6162
  462MOL0     C62270   4.086  11.742   8.555 -0.6192  0.0531 -0.2085
  462MOL0     O62271   3.964  11.765   8.500  0.1875  0.3147 -0.8443
  462MOL0     C62272   3.958  11.815   8.367 -0.0051 -0.8076 -0.3244
  462MOL0     C62273   3.810  11.869   8.345  0.1244  0.5336  0.2552
  462MOL0     C62274   3.712  11.757   8.299  0.2441 -0.0771 -0.5595
  462MOL0     C62275   3.574  11.806   8.295  0.4101 -0.1042 -0.2325
  462MOL0     C62276   3.481  11.688   8.254  0.2052 -0.9247  0.1276
  462MOL0     C62277   3.337  11.741   8.225 -0.0896 -0.3170  0.2309
  462MOL0     C62278   3.242  11.626   8.227  0.2667  0.1863  0.0844
  462MOL0     C62279   3.101  11.680   8.202 -0.1453  0.7228  0.4685
  462MOL0    Cl62280   3.029  11.734   8.357 -0.1313  0.0902 -0.2713
  462MOL0     C62281   4.209  11.717   8.486  0.5137 -0.1432 -0.0227
  462MOL0     C62282   4.317  11.677   8.564  0.0026 -0.1957 -0.1097
  462MOL0     O62283   4.441  11.788   8.928 -0.7708 -0.7705 -0.4775
  462MOL0     C62284   4.592  11.466   8.937 -0.8396  0.3823 -0.1988
  462MOL0     C62285   4.654  11.369   9.019 -0.3522 -0.1790  0.1098
  462MOL0     N62286   4.907  10.927   8.901 -0.0488 -0.8149  0.4901
  462MOL0     N62287   4.859  10.820   8.831 -0.3889  0.2751 -0.2792
  462MOL0     C62288   5.780  10.500   8.275 -0.3438 -0.0708  0.4588
  462MOL0     C62289   5.916  10.512   8.304  0.2109  0.0511 -0.8942
  462MOL0     C62290   6.274  10.488   8.536  0.6526  0.3600  0.4117
  462MOL0     C62291   6.319  10.391   8.624 -0.0505 -0.2197 -0.4240
  462MOL0     C62292   6.452  10.341   8.617 -0.5609 -0.1054  0.6028
  462MOL0     C62293   6.544  10.405   8.534 -0.2556  0.2236 -0.0492
  462MOL0     O62294   6.673  10.359   8.552 -0.3757 -0.2029  0.2753
  462MOL0     C62295   6.766  10.383   8.447  0.5177  0.2878  0.6769
  462MOL0     C62296   6.896  10.302   8.474  0.6242  0.2374 -0.2809
  462MOL0     C62297   6.995  10.336   8.363 -0.6666 -0.1014  0.3622
  462MOL0     C62298   7.122  10.246   8.361  0.1930 -0.3520  0.2001
  462MOL0     C62299   7.195  10.238   8.491 -0.8848 -0.2671 -0.5728
  462MOL0     C62300   7.249  10.209   8.598  0.4593 -0.3039  0.2106
  462MOL0     C62301   6.506  10.510   8.448  0.2578 -0.2469  0.6276
  462MOL0     C62302   6.370  10.548   8.449 -0.4232 -0.3350  0.4148
  462MOL0     H62303   5.900  10.774   8.518 -1.1628  2.3404 -2.6071
  462MOL0     H62304   5.659  10.768   8.455  0.3579 -0.5263  1.7566
  462MOL0     H62305   5.535  10.420   8.419  0.0422  0.4855 -0.6943
  462MOL0     H62306   5.489  10.568   8.505  1.3005  0.2985 -0.3134
  462MOL0     H62307   5.286  10.567   8.362 -0.1377 -0.4771 -1.5549
  462MOL0     H62308   5.338  10.403   8.299 -4.2468 -4.5572  3.6588
  462MOL0     H62309   5.218  10.324   8.480  0.2952 -0.2432 -1.1280
  462MOL0     H62310   5.373  10.362   8.559  0.0206  2.3849  1.4028
  462MOL0     H62311   5.286  10.582   8.627 -0.0646 -0.3515  1.6789
  462MOL0     H62312   5.135  10.546   8.548  0.4972 -0.6207 -2.2315
  462MOL0     H62313   5.097  10.348   8.684  0.0199  0.6613 -2.1030
  462MOL0     H62314   5.241  10.390   8.789 -0.1949 -0.0780  0.9951
  462MOL0     H62315   5.063  10.472   8.921 -1.3294  0.9258  1.2932
  462MOL0     H62316   5.119  10.611   8.836 -0.5541 -0.4094 -1.8420
  462MOL0     H62317   4.934  10.576   8.671  2.0250  1.8578  0.9346
  462MOL0     H62318   4.895  10.422   8.744 -3.5880  0.4140  3.3758
  462MOL0     H62319   4.828  10.516   8.950  1.5549  2.8107  1.8844
  462MOL0     H62320   4.731  10.565   8.816  1.2566 -1.0522  0.0531
  462MOL0     H62321   4.944  10.682   9.108  1.5004 -1.3323 -1.0357
  462MOL0     H62322   5.101  10.914   9.154 -0.0289 -0.7449 -1.7073
  462MOL0     H62323   5.043  11.064   9.101  0.8173  0.0159  0.3217
  462MOL0     H62324   4.974  10.931   9.360 -2.8159  0.5436  1.8492
  462MOL0     H62325   4.832  10.919   9.255 -1.7244  2.0298  1.0231
  462MOL0     H62326   4.982  11.181   9.278 -0.0101  0.8340  3.4444
  462MOL0     H62327   4.855  11.142   9.398 -1.3327  1.3223 -0.1984
  462MOL0     H62328   4.696  11.128   9.197 -0.4528  0.2252 -1.6535
  462MOL0     H62329   4.840  11.187   9.099 -0.2431  0.3782 -0.3155
  462MOL0     H62330   4.636  11.519   9.312  2.2961  0.9681 -0.2195
  462MOL0     H62331   4.462  11.684   9.308  1.0731  3.1050  0.1288
  462MOL0     H62332   4.499  11.800   9.183 -1.3699  0.2637 -1.4480
  462MOL0     H62333   4.360  11.701   9.160 -0.4477 -0.6598 -0.3846
  462MOL0     H62334   4.192  11.709   8.867  1.3293 -1.7713 -0.3072
  462MOL0     H62335   3.985  11.751   8.741 -0.8944  0.2563 -0.5846
  462MOL0     H62336   4.019  11.905   8.377 -2.0126  0.3998  2.3430
  462MOL0     H62337   3.994  11.742   8.294  1.3879  0.3679 -0.8565
  462MOL0     H62338   3.779  11.909   8.441 -1.7065  2.8026 -1.1708
  462MOL0     H62339   3.812  11.955   8.277 -0.6960  1.8945  1.8988
  462MOL0     H62340   3.725  11.679   8.375  3.5033 -0.3243 -1.2360
  462MOL0     H62341   3.737  11.716   8.201  0.7457 -4.0200  1.0042
  462MOL0     H62342   3.542  11.847   8.391 -0.3514  2.8698 -1.6373
  462MOL0     H62343   3.574  11.885   8.220 -1.5366  0.9561  0.7964
  462MOL0     H62344   3.478  11.603   8.324  2.4288  0.8617  2.6291
  462MOL0     H62345   3.526  11.645   8.164  0.2741  1.5415 -1.0731
  462MOL0     H62346   3.319  11.824   8.294  1.0722 -0.6675  0.9883
  462MOL0     H62347   3.341  11.789   8.127 -0.5912  1.0715  0.8662
  462MOL0     H62348   3.239  11.580   8.327 -1.6249  4.2912  2.1455
  462MOL0     H62349   3.279  11.549   8.158 -0.4527  0.5620 -0.7378
  462MOL0     H62350   3.028  11.609   8.160 -0.3491  1.5855 -0.7051
  462MOL0     H62351   3.106  11.762   8.130  0.8337 -0.2376 -0.5931
  462MOL0     H62352   4.219  11.713   8.378 -0.3094  1.9792 -0.2182
  462MOL0     H62353   4.395  11.630   8.504 -0.9935 -2.0671 -0.0237
  462MOL0     H62354   4.580  11.452   8.830 -3.5667  1.2580 -0.0801
  462MOL0     H62355   4.697  11.283   8.969  2.5082  1.1845  0.0520
  462MOL0     H62356   5.745  10.423   8.207  1.4233 -0.9574  0.5163
  462MOL0     H62357   5.993  10.456   8.252 -0.7751 -1.1670 -1.0752
  462MOL0     H62358   6.263  10.344   8.705  0.3606  1.4367  0.8896
  462MOL0     H62359   6.483  10.276   8.698  0.0224  1.6174  1.8029
  462MOL0     H62360   6.724  10.356   8.349 -2.7925  0.5566  1.8702
  462MOL0     H62361   6.789  10.489   8.453  1.3651  0.0448  1.9937
  462MOL0     H62362   6.866  10.197   8.481  0.4269  0.3926  2.2537
  462MOL0     H62363   6.930  10.328   8.575  0.0626  0.2162 -0.0823
  462MOL0     H62364   7.033  10.438   8.368  2.9107 -1.0620 -2.5682
  462MOL0     H62365   6.935  10.323   8.272 -1.1183 -1.8359  0.8536
  462MOL0     H62366   7.184  10.272   8.275  0.8297 -1.6652  0.2365
  462MOL0     H62367   7.084  10.144   8.348 -0.8822  0.0974 -0.3099
  462MOL0     H62368   7.302  10.182   8.686 -2.2906 -2.5369  1.3419
  462MOL0     H62369   6.582  10.555   8.385  3.1870  1.4140  4.9179
  462MOL0     H62370   6.334  10.625   8.381  1.7253  1.5419  1.2627
  463MOL0     O62371  10.226   5.318   0.912 -0.6544 -0.1025  0.6454
  463MOL0     C62372  10.308   5.242   0.959  0.8934  0.4316 -0.6042
  463MOL0     O62373  10.282   5.149   1.060  0.6969 -0.3733  0.2185
  463MOL0     C62374  10.149   5.123   1.098 -0.3664 -0.5095  0.3377
  463MOL0     C62375  10.122   5.102   1.239 -0.7234  0.1538 -0.0200
  463MOL0     C62376  10.001   5.051   1.289  0.0062  1.0400  0.0092
  463MOL0     C62377   9.901   5.025   1.191  0.1239  0.0389  0.0674
  463MOL0     O62378   9.790   4.956   1.243  0.1584 -0.2989 -0.4327
  463MOL0     C62379   9.657   4.969   1.173 -0.9513  0.0354  0.3888
  463MOL0     C62380   9.544   4.928   1.275 -0.1040 -0.3685  1.1060
  463MOL0     C62381   9.404   4.935   1.194 -0.1174 -0.5159 -0.1066
  463MOL0     C62382   9.305   4.894   1.299 -0.1180  0.3290  0.2263
  463MOL0     C62383   9.163   4.910   1.248 -0.1796  0.2025  0.5649
  463MOL0     C62384   9.113   5.054   1.212 -0.3976 -0.6109  0.6820
  463MOL0     C62385   8.966   5.086   1.228  0.0781 -0.4479  0.1613
  463MOL0     C62386   8.905   5.112   1.360  0.0096 -0.1092 -0.1341
  463MOL0     N62387   8.758   5.116   1.368 -0.1405 -0.1862  0.4715
  463MOL0     C62388   8.676   5.012   1.373  0.9893  0.5295  1.1735
  463MOL0     C62389   8.552   5.051   1.416 -0.4370 -0.7501 -0.0117
  463MOL0     C62390   8.430   4.973   1.430 -0.2166  0.5021 -0.6880
  463MOL0     C62391   8.364   4.931   1.302  0.4824 -0.0019  0.6995
  463MOL0     C62392   8.245   4.843   1.330  0.3019  0.2176  0.7985
  463MOL0     C62393   8.148   4.813   1.210  0.6436 -0.0693 -0.3796
  463MOL0     O62394   8.064   4.706   1.258  0.2674  0.1601  0.3134
  463MOL0     C62395   7.960   4.690   1.170  0.1762  0.2605 -0.0263
  463MOL0     C62396   7.834   4.695   1.224  0.1643  0.6637  1.1287
  463MOL0     C62397   7.720   4.665   1.141 -0.5545  0.5088 -0.5694
  463MOL0     C62398   7.584   4.644   1.212  0.4510  0.4233  0.1792
  463MOL0     C62399   7.741   4.643   1.005  0.5569 -0.1170  1.1240
  463MOL0     C62400   7.630   4.605   0.910  0.2480  1.0379  0.3216
  463MOL0     O62401   7.661   4.635   0.774  1.1676  0.6837 -0.3225
  463MOL0     C62402   7.574   4.595   0.680  0.1962 -0.6931  1.1848
  463MOL0     C62403   7.438   4.626   0.682  0.1810 -0.0025 -0.0273
  463MOL0     C62404   7.366   4.581   0.574 -0.2946  0.3772 -0.4615
  463MOL0     C62405   7.422   4.531   0.457 -0.5047  0.8925  0.2154
  463MOL0     O62406   7.346   4.493   0.351 -0.6542  0.0700  0.2211
  463MOL0     C62407   7.284   4.606   0.288  0.7547 -0.2288 -0.1712
  463MOL0     C62408   7.170   4.557   0.197 -0.4693 -0.1793  0.8766
  463MOL0     C62409   7.053   4.481   0.261 -0.6911 -0.7820  0.3572
  463MOL0     C62410   6.964   4.420   0.147 -0.5754 -0.0102 -0.3022
  463MOL0     C62411   6.844   4.353   0.219 -0.1983  0.0247  0.4510
  463MOL0     C62412   6.734   4.331   0.117 -0.0571  0.3730 -0.2975
  463MOL0     C62413   6.778   4.224   0.014  0.7730  0.7530 -0.0271
  463MOL0     C62414   6.655   4.206  -0.077 -0.5720  0.6375 -0.3130
  463MOL0    Cl62415   6.676   4.044  -0.153 -0.0991 -0.0442 -0.6151
  463MOL0     C62416   7.558   4.517   0.446  0.0681  0.3006  0.7177
  463MOL0     C62417   7.636   4.549   0.559  1.2309 -0.0353 -0.1426
  463MOL0     O62418   7.537   4.533   0.951  0.1584 -0.0845  0.2607
  463MOL0     C62419   7.865   4.632   0.954 -0.1012  0.3551 -0.4425
  463MOL0     C62420   7.976   4.665   1.029 -0.0687  0.0549  0.4327
  463MOL0     N62421   8.568   5.190   1.457  0.3841 -0.0843  0.6429
  463MOL0     N62422   8.689   5.226   1.418 -0.5546  0.6472  0.2310
  463MOL0     C62423   9.914   5.058   1.057 -0.5189 -0.4724  1.4199
  463MOL0     C62424  10.038   5.097   1.011 -0.1033  0.1199 -0.2293
  463MOL0     C62425  10.434   5.244   0.893 -1.0536 -0.6192  0.4333
  463MOL0     C62426  10.544   5.181   0.959  0.4139  0.0893 -0.3747
  463MOL0     C62427  10.667   5.194   0.899 -0.5451  0.3398 -0.6013
  463MOL0     C62428  10.688   5.261   0.777 -0.8026 -0.6661  0.5686
  463MOL0     O62429  10.806   5.274   0.707  0.5119  0.3121  0.5641
  463MOL0     C62430  10.906   5.358   0.776 -0.9422  0.3342 -0.7005
  463MOL0     C62431  11.042   5.343   0.707  0.2102  0.9976  1.0692
  463MOL0     C62432  11.082   5.208   0.652 -0.2914  0.1823 -0.7246
  463MOL0     C62433  11.238   5.209   0.640 -0.4597  0.0714 -0.3783
  463MOL0     C62434  11.284   5.083   0.575 -0.2742 -0.6135 -0.1636
  463MOL0     C62435  11.324   4.985   0.515  0.3461 -0.4256  0.9370
  463MOL0     C62436  10.580   5.335   0.725 -0.4259  0.3088  0.7689
  463MOL0     C62437  10.451   5.320   0.775  0.3735 -0.4819  1.0566
  463MOL0     H62438  10.212   5.116   1.298 -0.3548 -1.5389 -0.1376
  463MOL0     H62439   9.999   5.047   1.398 -0.4476 -1.7513 -0.0048
  463MOL0     H62440   9.650   5.071   1.133  1.3372  0.5006  1.0315
  463MOL0     H62441   9.666   4.911   1.081  1.0236  1.9762 -0.7294
  463MOL0     H62442   9.555   4.827   1.315 -1.8979 -0.1126  2.3583
  463MOL0     H62443   9.556   5.001   1.356  1.3631  2.7125 -1.6533
  463MOL0     H62444   9.388   5.034   1.149  0.7730  0.5785  1.8233
  463MOL0     H62445   9.402   4.864   1.112  0.4183  0.8370 -1.3433
  463MOL0     H62446   9.317   4.789   1.325 -3.5710 -0.6745 -1.5125
  463MOL0     H62447   9.315   4.957   1.387 -1.1852 -1.9759  2.0998
  463MOL0     H62448   9.146   4.838   1.168  3.9813 -0.0251 -0.3303
  463MOL0     H62449   9.099   4.882   1.332  1.7020  1.1754  2.4086
  463MOL0     H62450   9.173   5.124   1.271 -2.0757  2.4704 -1.0212
  463MOL0     H62451   9.142   5.074   1.109 -1.4187  2.3127  0.8587
  463MOL0     H62452   8.960   5.174   1.162  0.1700 -0.7559 -0.2650
  463MOL0     H62453   8.900   5.013   1.180 -1.9252  1.2102  0.2231
  463MOL0     H62454   8.940   5.211   1.390  0.9147 -0.8793  1.4793
  463MOL0     H62455   8.956   5.042   1.427 -1.4448  2.1175  3.5926
  463MOL0     H62456   8.712   4.911   1.356  3.9066  1.8614 -1.7136
  463MOL0     H62457   8.462   4.876   1.471  0.4293  0.5754 -1.0141
  463MOL0     H62458   8.369   5.022   1.506  4.6291  2.9865  2.0493
  463MOL0     H62459   8.436   4.864   1.253  0.3551  1.2599 -1.3788
  463MOL0     H62460   8.347   5.012   1.230 -0.1441  0.0986  0.9614
  463MOL0     H62461   8.179   4.892   1.402 -0.9415 -0.6196  0.2631
  463MOL0     H62462   8.277   4.744   1.363  3.9043  0.5185 -1.2540
  463MOL0     H62463   8.196   4.776   1.119  0.4495 -1.5223  0.0657
  463MOL0     H62464   8.095   4.905   1.185  1.6204  0.6618  0.1590
  463MOL0     H62465   7.827   4.693   1.332 -2.9348  1.7856  1.0351
  463MOL0     H62466   7.579   4.717   1.294 -0.4203  0.9479 -0.3291
  463MOL0     H62467   7.501   4.667   1.145  0.5266  0.7407  0.1949
  463MOL0     H62468   7.571   4.539   1.240  0.9571  0.4391  0.4876
  463MOL0     H62469   7.385   4.670   0.766 -1.0068 -1.7981  0.2421
  463MOL0     H62470   7.260   4.566   0.592  0.4148 -1.7980  2.7973
  463MOL0     H62471   7.245   4.672   0.366 -1.1390  1.2052 -2.2174
  463MOL0     H62472   7.347   4.655   0.214 -2.0735  2.3597 -1.0532
  463MOL0     H62473   7.124   4.642   0.146 -1.4066 -1.0988  0.1641
  463MOL0     H62474   7.208   4.491   0.119  0.2145 -0.2509  1.2555
  463MOL0     H62475   7.007   4.558   0.324 -1.5601  0.3603 -1.5613
  463MOL0     H62476   7.081   4.401   0.330 -2.3996 -1.8532 -0.1140
  463MOL0     H62477   6.929   4.489   0.070  1.9979 -0.6257 -2.1494
  463MOL0     H62478   7.026   4.351   0.089 -1.0250  0.3970 -1.2922
  463MOL0     H62479   6.805   4.413   0.301 -0.1040 -0.6542  0.9939
  463MOL0     H62480   6.883   4.269   0.276  0.2353  0.3049  0.5731
  463MOL0     H62481   6.648   4.295   0.174  0.4852  0.4831  0.6036
  463MOL0     H62482   6.711   4.426   0.068 -0.6184  0.4358  0.0782
  463MOL0     H62483   6.806   4.131   0.065  1.4297 -0.4696 -2.4853
  463MOL0     H62484   6.864   4.255  -0.046  2.3606 -1.0374  1.2225
  463MOL0     H62485   6.651   4.283  -0.155 -1.2397  3.5523  2.4242
  463MOL0     H62486   6.560   4.214  -0.024 -2.1922 -0.0615 -2.8971
  463MOL0     H62487   7.604   4.487   0.353 -1.0534  1.2861 -0.1956
  463MOL0     H62488   7.743   4.547   0.545  1.3705 -2.6107  0.7961
  463MOL0     H62489   7.893   4.615   0.850  0.6833  1.9969 -0.5227
  463MOL0     H62490   8.075   4.653   0.987 -1.3402 -3.3005 -2.0913
  463MOL0     H62491   9.840   5.024   0.985  1.8363 -0.7564 -1.0461
  463MOL0     H62492  10.062   5.114   0.907 -1.5172  2.5528 -0.2337
  463MOL0     H62493  10.527   5.130   1.054  0.8526  0.0969 -0.2911
  463MOL0     H62494  10.746   5.131   0.941 -2.7107 -2.3218 -0.2072
  463MOL0     H62495  10.871   5.461   0.778  0.6207  0.9384 -2.0075
  463MOL0     H62496  10.914   5.330   0.882 -0.7655  0.4339 -0.6861
  463MOL0     H62497  11.124   5.379   0.769  1.1663  0.3519  0.2130
  463MOL0     H62498  11.028   5.412   0.623 -1.8387 -0.1176  0.4280
  463MOL0     H62499  11.034   5.190   0.555 -0.2687 -0.9249 -0.5388
  463MOL0     H62500  11.046   5.129   0.719 -0.7629  2.2836  1.6512
  463MOL0     H62501  11.283   5.228   0.738 -2.8755  1.2417  0.5903
  463MOL0     H62502  11.273   5.287   0.572  0.5581  0.0778  0.1449
  463MOL0     H62503  11.352   4.888   0.477 -3.0357 -0.2198 -2.7528
  463MOL0     H62504  10.589   5.394   0.634 -1.1293  1.5661  1.4963
  463MOL0     H62505  10.370   5.364   0.719  0.1048 -1.3194  0.7762
  464MOL0     O62506  10.129   5.252   2.143 -0.1185  0.9951 -0.1257
  464MOL0     C62507  10.120   5.351   2.077 -0.1412  0.6770 -0.1144
  464MOL0     O62508  10.007   5.426   2.065 -0.4186 -0.0945 -0.2350
  464MOL0     C62509   9.900   5.390   2.149 -0.9193 -0.2887  0.5313
  464MOL0     C62510   9.776   5.345   2.095 -0.2818 -0.3501 -0.3994
  464MOL0     C62511   9.662   5.328   2.177  0.2886  0.2910 -0.0121
  464MOL0     C62512   9.687   5.342   2.313  0.1270 -0.8059  0.2341
  464MOL0     O62513   9.582   5.333   2.393  0.4657 -0.7328 -0.8868
  464MOL0     C62514   9.590   5.235   2.505 -0.2353 -0.0479  0.2490
  464MOL0     C62515   9.455   5.249   2.577 -0.1120  0.2782 -0.0635
  464MOL0     C62516   9.332   5.210   2.496  0.0094  0.5433  1.1869
  464MOL0     C62517   9.209   5.182   2.570 -0.2074 -0.0574 -0.0114
  464MOL0     C62518   9.089   5.105   2.506 -0.1013 -0.0031 -0.3033
  464MOL0     C62519   9.034   5.194   2.408 -0.2498 -0.1253 -1.3647
  464MOL0     C62520   8.915   5.129   2.337  0.8896 -0.6161  0.0467
  464MOL0     C62521   8.839   5.233   2.237 -0.1782  0.5334  0.8318
  464MOL0     N62522   8.704   5.261   2.286 -0.5854  0.0095 -0.6141
  464MOL0     C62523   8.678   5.316   2.410  0.5661 -0.3545  1.0086
  464MOL0     C62524   8.548   5.344   2.406  0.8350  0.7037 -0.6908
  464MOL0     C62525   8.471   5.403   2.518  0.0584  0.8965  0.6367
  464MOL0     C62526   8.320   5.385   2.495  0.7691 -0.3410 -0.1855
  464MOL0     C62527   8.265   5.480   2.380 -0.0321 -0.9065  0.2966
  464MOL0     C62528   8.111   5.505   2.379 -0.3006  0.2954  0.1832
  464MOL0     O62529   8.053   5.374   2.406 -0.9131  0.3799  0.4816
  464MOL0     C62530   7.923   5.365   2.396  0.1076  0.2130  1.1089
  464MOL0     C62531   7.856   5.267   2.321  0.8817 -0.1956 -0.4118
  464MOL0     C62532   7.715   5.263   2.317 -0.3599  0.6340  0.0290
  464MOL0     C62533   7.653   5.154   2.244  0.2396  0.2141  0.5091
  464MOL0     C62534   7.637   5.365   2.388 -0.2636  0.7906 -0.4278
  464MOL0     C62535   7.493   5.377   2.394  0.0879  1.0032  0.2930
  464MOL0     O62536   7.433   5.436   2.506  1.0767  0.8171 -0.7454
  464MOL0     C62537   7.297   5.434   2.516 -0.2408 -0.4926  1.1234
  464MOL0     C62538   7.226   5.557   2.535 -0.4386  0.4202 -0.1091
  464MOL0     C62539   7.089   5.545   2.570 -0.2149 -0.1739  0.0743
  464MOL0     C62540   7.020   5.428   2.570 -0.0422  0.0121  0.0630
  464MOL0     O62541   6.888   5.432   2.598 -0.5747  0.8720 -0.6736
  464MOL0     C62542   6.809   5.330   2.545 -0.1327 -0.2124 -0.3046
  464MOL0     C62543   6.667   5.374   2.522 -0.3727 -0.5006  0.3806
  464MOL0     C62544   6.584   5.262   2.468 -0.7300  0.4187  0.1845
  464MOL0     C62545   6.439   5.303   2.429  0.3279 -0.2913 -0.3286
  464MOL0     C62546   6.343   5.374   2.531 -0.2027 -0.0408 -0.1073
  464MOL0     C62547   6.309   5.285   2.651 -0.4616 -0.6186  0.6432
  464MOL0     C62548   6.198   5.352   2.734 -0.1624 -0.3338  1.1988
  464MOL0     C62549   6.112   5.247   2.797  0.6910  0.1942 -0.1316
  464MOL0    Cl62550   6.008   5.145   2.683 -0.6880  0.1476 -0.0181
  464MOL0     C62551   7.094   5.314   2.544  0.5491 -0.2644 -0.6158
  464MOL0     C62552   7.229   5.316   2.524 -0.3905  0.6919  0.1733
  464MOL0     O62553   7.428   5.339   2.295  1.0600 -0.3894 -0.2179
  464MOL0     C62554   7.706   5.458   2.464 -0.0579  0.0948 -1.1625
  464MOL0     C62555   7.841   5.462   2.463 -0.3391 -0.9072 -0.4307
  464MOL0     N62556   8.500   5.281   2.290 -0.8495  0.3943 -0.2746
  464MOL0     N62557   8.595   5.249   2.209  0.1410 -0.1322 -0.0597
  464MOL0     C62558   9.803   5.395   2.368  0.0512 -0.7509  0.6127
  464MOL0     C62559   9.915   5.421   2.289  0.1021 -0.8791  0.1027
  464MOL0     C62560  10.239   5.395   2.000  0.3518  0.8819  1.0878
  464MOL0     C62561  10.369   5.339   2.022  0.2402  0.5501  0.0680
  464MOL0     C62562  10.478   5.388   1.942  0.6021  0.5854 -0.6748
  464MOL0     C62563  10.460   5.485   1.845 -1.1457  0.2853 -0.2959
  464MOL0     O62564  10.579   5.519   1.777  0.3576 -0.1242 -0.2840
  464MOL0     C62565  10.564   5.598   1.652 -0.2477 -0.0466 -0.0144
  464MOL0     C62566  10.706   5.629   1.601  0.6440 -0.2735  0.5130
  464MOL0     C62567  10.708   5.746   1.491 -0.8470 -0.2574  0.2349
  464MOL0     C62568  10.839   5.746   1.407 -1.3597 -0.7539 -0.2383
  464MOL0     C62569  10.962   5.761   1.492  0.3347 -0.2349  0.2565
  464MOL0     C62570  11.057   5.783   1.560 -0.7031 -0.0507  0.4661
  464MOL0     C62571  10.333   5.526   1.818  0.8478  0.4026 -0.1555
  464MOL0     C62572  10.227   5.489   1.901  0.2922  0.4811 -0.8268
  464MOL0     H62573   9.759   5.330   1.989  2.8768 -1.8579 -0.8141
  464MOL0     H62574   9.565   5.302   2.138  0.9922  2.0518 -3.3130
  464MOL0     H62575   9.606   5.130   2.478  0.9798 -0.1339  1.1817
  464MOL0     H62576   9.676   5.275   2.561  1.2052  0.4854 -2.1897
  464MOL0     H62577   9.463   5.180   2.663  0.8685  1.2191  0.6272
  464MOL0     H62578   9.442   5.347   2.623 -1.3897  1.5574 -2.9702
  464MOL0     H62579   9.318   5.294   2.428  0.5567  0.4893  0.9999
  464MOL0     H62580   9.358   5.126   2.431 -0.5502  1.0774  0.2568
  464MOL0     H62581   9.238   5.118   2.654  1.8740  0.8718  0.0263
  464MOL0     H62582   9.165   5.273   2.613 -1.1890  0.5288 -2.1546
  464MOL0     H62583   9.124   5.009   2.467 -0.2152 -1.0552  2.0221
  464MOL0     H62584   9.023   5.070   2.585  2.5316  0.3373  2.2137
  464MOL0     H62585   9.002   5.283   2.462 -0.2769 -1.7755  1.5628
  464MOL0     H62586   9.104   5.211   2.326 -0.3779 -1.0140 -1.6710
  464MOL0     H62587   8.943   5.040   2.280 -1.1547  0.1695 -2.4020
  464MOL0     H62588   8.845   5.100   2.416 -0.5180  1.7893 -0.2064
  464MOL0     H62589   8.819   5.189   2.139  0.3549 -0.9169  1.3472
  464MOL0     H62590   8.903   5.320   2.222  1.5654 -0.6699  1.0516
  464MOL0     H62591   8.741   5.330   2.497  0.5854 -0.8785  1.0853
  464MOL0     H62592   8.495   5.349   2.611  3.2410  0.2082 -0.4637
  464MOL0     H62593   8.512   5.503   2.533 -0.0959  1.1336 -0.4442
  464MOL0     H62594   8.276   5.421   2.588  1.5950 -2.1084  0.9278
  464MOL0     H62595   8.286   5.284   2.473 -0.4973 -0.1938  0.9908
  464MOL0     H62596   8.284   5.416   2.293  2.7142  0.3050 -0.0899
  464MOL0     H62597   8.321   5.574   2.380  0.6377 -1.2239  2.8886
  464MOL0     H62598   8.070   5.546   2.286 -1.1356  0.8115  0.7691
  464MOL0     H62599   8.082   5.581   2.452 -2.4753 -0.2423 -0.0743
  464MOL0     H62600   7.913   5.190   2.271  0.7225  0.5505 -1.7954
  464MOL0     H62601   7.730   5.092   2.198 -1.6204 -2.0777  0.3369
  464MOL0     H62602   7.586   5.090   2.302 -0.7965  0.9482  0.1641
  464MOL0     H62603   7.588   5.179   2.160 -0.9074 -3.9533 -0.0596
  464MOL0     H62604   7.264   5.658   2.533 -2.1278  1.0694 -0.8289
  464MOL0     H62605   7.033   5.632   2.603  1.6394  2.1293 -2.4724
  464MOL0     H62606   6.851   5.297   2.449 -1.6948 -2.8828 -0.1529
  464MOL0     H62607   6.815   5.244   2.613  1.7855  0.6992  0.7834
  464MOL0     H62608   6.615   5.403   2.614 -1.6907 -0.7856 -0.2565
  464MOL0     H62609   6.650   5.463   2.461  0.5286 -0.0983  0.7075
  464MOL0     H62610   6.587   5.180   2.541 -0.4712 -1.3243 -1.7087
  464MOL0     H62611   6.637   5.231   2.378 -2.4671  0.4846 -0.9014
  464MOL0     H62612   6.453   5.377   2.349  0.7550 -0.2026 -0.1754
  464MOL0     H62613   6.396   5.214   2.384 -0.8108  0.3288 -0.5157
  464MOL0     H62614   6.252   5.390   2.472  1.2143 -2.9158 -3.3840
  464MOL0     H62615   6.385   5.471   2.561  0.0180 -0.9162  2.6723
  464MOL0     H62616   6.268   5.191   2.611  1.0515 -0.7587 -0.6753
  464MOL0     H62617   6.396   5.259   2.711 -0.1943 -2.6034 -0.5149
  464MOL0     H62618   6.142   5.425   2.675  3.6162  2.1043  0.2494
  464MOL0     H62619   6.244   5.403   2.819 -0.1274  0.0678  0.9399
  464MOL0     H62620   6.030   5.273   2.865 -1.6932  2.2558 -3.4647
  464MOL0     H62621   6.168   5.167   2.846 -0.9201 -1.0373 -0.2233
  464MOL0     H62622   7.051   5.214   2.548  1.5230 -0.6705  0.1748
  464MOL0     H62623   7.285   5.224   2.511 -0.0463  0.7205  1.3176
  464MOL0     H62624   7.649   5.536   2.514 -1.6453 -0.8990 -1.3399
  464MOL0     H62625   7.891   5.538   2.522 -3.5581  1.4526 -0.5249
  464MOL0     H62626   9.802   5.436   2.469 -1.3418 -1.9911  1.1381
  464MOL0     H62627  10.002   5.468   2.334 -0.4822  0.5925 -0.2569
  464MOL0     H62628  10.388   5.255   2.088  0.5598  0.7611  0.2453
  464MOL0     H62629  10.580   5.352   1.949  0.4251 -0.2765 -2.2612
  464MOL0     H62630  10.508   5.546   1.574 -0.0946  1.3673 -1.1169
  464MOL0     H62631  10.501   5.685   1.671  1.6426  1.6309 -1.0027
  464MOL0     H62632  10.755   5.543   1.555  2.9940  0.6108  1.2034
  464MOL0     H62633  10.759   5.669   1.688 -0.1867  0.2071  0.8092
  464MOL0     H62634  10.690   5.846   1.531 -2.0852  0.9833 -3.0153
  464MOL0     H62635  10.637   5.713   1.413 -0.1103 -1.1029 -0.0956
  464MOL0     H62636  10.849   5.844   1.359  3.4927 -0.6323  0.5012
  464MOL0     H62637  10.839   5.660   1.341 -3.2780  0.4285 -1.9056
  464MOL0     H62638  11.139   5.809   1.625 -2.1643 -0.4203  2.5518
  464MOL0     H62639  10.318   5.593   1.735  1.2167 -1.3189 -1.6721
  464MOL0     H62640  10.130   5.532   1.879 -0.9187 -1.9074 -0.5596
  465MOL0     O62641   6.210   0.553   5.816 -0.1562  0.0510  0.3400
  465MOL0     C62642   6.261   0.614   5.908 -0.2889  0.2221  0.1211
  465MOL0     O62643   6.198   0.690   6.004 -0.2237  0.0200  0.5569
  465MOL0     C62644   6.056   0.688   6.003  0.9555 -0.6288 -0.1053
  465MOL0     C62645   5.986   0.812   5.985  0.8868  0.3871 -0.2921
  465MOL0     C62646   5.849   0.825   5.989  0.4314 -0.4905  0.8253
  465MOL0     C62647   5.775   0.704   6.012  0.2498 -0.8579 -0.0811
  465MOL0     O62648   5.638   0.717   6.007  0.2232  0.4458  0.2187
  465MOL0     C62649   5.561   0.680   6.116  0.7996  0.3568 -0.2581
  465MOL0     C62650   5.460   0.793   6.147 -0.4541  0.4755 -0.6573
  465MOL0     C62651   5.524   0.929   6.127 -0.3476 -0.0433 -0.0093
  465MOL0     C62652   5.448   1.038   6.210 -0.2834  0.3521 -0.0965
  465MOL0     C62653   5.293   1.015   6.226 -0.5392 -0.1612 -0.1344
  465MOL0     C62654   5.214   1.140   6.212  0.1226  0.0879 -0.1366
  465MOL0     C62655   5.070   1.108   6.172 -0.6316  0.3497 -0.5433
  465MOL0     C62656   4.996   1.005   6.264 -0.3821 -0.0861 -0.0369
  465MOL0     N62657   4.856   0.979   6.234  0.2082  0.3838 -0.9670
  465MOL0     C62658   4.754   1.031   6.314  0.1590 -0.7350 -0.7946
  465MOL0     C62659   4.636   1.000   6.253  0.1114 -0.2335 -0.8252
  465MOL0     C62660   4.504   1.039   6.310 -0.0069  0.4320 -0.1631
  465MOL0     C62661   4.500   1.185   6.341 -0.3332 -0.6538 -0.0142
  465MOL0     C62662   4.354   1.239   6.348  0.3080 -0.9510  0.1780
  465MOL0     C62663   4.344   1.388   6.388  0.5724 -0.5739 -0.3969
  465MOL0     O62664   4.211   1.434   6.351  0.2097 -0.7889  0.2341
  465MOL0     C62665   4.108   1.440   6.445 -0.2655  0.5611  0.7520
  465MOL0     C62666   4.102   1.381   6.573  0.0659  0.4656 -0.6987
  465MOL0     C62667   4.004   1.409   6.668  0.3732  0.6593 -0.1359
  465MOL0     C62668   4.017   1.356   6.811  0.1962  0.3375 -0.3625
  465MOL0     C62669   3.888   1.475   6.623 -0.0802  0.4230 -0.3740
  465MOL0     C62670   3.762   1.495   6.706 -0.0960 -0.0299  0.1301
  465MOL0     O62671   3.681   1.602   6.670  0.8136 -0.0261  0.1788
  465MOL0     C62672   3.545   1.595   6.703  0.1970 -0.0417 -0.3870
  465MOL0     C62673   3.468   1.485   6.682  0.0856  0.3089  0.6030
  465MOL0     C62674   3.331   1.481   6.706  0.0524 -0.6221  0.6899
  465MOL0     C62675   3.264   1.596   6.762 -0.0227 -0.2701  0.2928
  465MOL0     O62676   3.132   1.594   6.804 -0.3338 -1.0577  0.7807
  465MOL0     C62677   3.050   1.622   6.692 -0.5148 -0.2130  0.0437
  465MOL0     C62678   2.917   1.676   6.742  0.0736 -0.0127  0.7726
  465MOL0     C62679   2.840   1.560   6.806 -0.3016  0.4197 -0.1488
  465MOL0     C62680   2.753   1.483   6.703 -0.1855  1.2382  0.0647
  465MOL0     C62681   2.642   1.416   6.777 -0.3446  0.0193  0.2385
  465MOL0     C62682   2.535   1.345   6.685 -0.4014  0.0128  0.0425
  465MOL0     C62683   2.600   1.248   6.584  0.8621  0.7299  0.1692
  465MOL0     C62684   2.489   1.136   6.550 -0.5380 -0.5220 -0.0128
  465MOL0    Cl62685   2.558   1.006   6.447 -0.2213 -0.0293  0.3583
  465MOL0     C62686   3.345   1.708   6.783  0.4757 -0.4009  0.6141
  465MOL0     C62687   3.481   1.707   6.751  0.1225  0.4766  1.2793
  465MOL0     O62688   3.735   1.408   6.798  0.3947  0.1360 -0.1986
  465MOL0     C62689   3.882   1.533   6.492  0.1725  0.0505 -0.6076
  465MOL0     C62690   3.995   1.520   6.413 -0.3915  0.0442  0.7878
  465MOL0     N62691   4.664   0.932   6.141 -0.4079  0.4583 -0.1041
  465MOL0     N62692   4.798   0.923   6.130  0.1682  0.3812 -0.1310
  465MOL0     C62693   5.837   0.581   6.040  0.8621  0.4210  0.8209
  465MOL0     C62694   5.980   0.572   6.028 -0.3675  1.3200 -0.1754
  465MOL0     C62695   6.407   0.620   5.904 -0.2055  0.4452 -0.0672
  465MOL0     C62696   6.490   0.560   5.804 -0.6429  0.0905  0.6702
  465MOL0     C62697   6.630   0.580   5.805  0.2154  0.4225  0.3858
  465MOL0     C62698   6.689   0.659   5.895  0.9556  0.7870 -0.6233
  465MOL0     O62699   6.827   0.662   5.877 -0.1825  0.4204  0.4028
  465MOL0     C62700   6.887   0.765   5.960  0.0930  0.1517  0.6368
  465MOL0     C62701   7.038   0.749   5.945  0.2888  0.0664 -0.0103
  465MOL0     C62702   7.138   0.822   6.043  0.4073  0.3570 -0.2614
  465MOL0     C62703   7.279   0.806   5.997  0.0247  0.5597  1.0876
  465MOL0     C62704   7.365   0.839   6.114 -0.5969  0.0150 -0.2871
  465MOL0     C62705   7.433   0.868   6.205  0.1924  0.0260 -0.4907
  465MOL0     C62706   6.603   0.744   5.975 -0.0481  0.1230  0.1000
  465MOL0     C62707   6.466   0.721   5.976  0.1663  0.4711 -1.2337
  465MOL0     H62708   6.053   0.897   5.977  0.7405  0.5135 -0.1841
  465MOL0     H62709   5.800   0.921   5.976  0.4538 -0.4103  1.3107
  465MOL0     H62710   5.508   0.592   6.080  2.0399  0.3403 -2.1999
  465MOL0     H62711   5.615   0.658   6.209 -2.0044  0.6706  1.5896
  465MOL0     H62712   5.373   0.791   6.081 -0.3118 -1.7064 -0.8385
  465MOL0     H62713   5.432   0.780   6.252  0.7265  0.1297 -0.3730
  465MOL0     H62714   5.629   0.932   6.157 -0.6744  1.7151  1.1362
  465MOL0     H62715   5.507   0.957   6.023 -1.9963 -0.4409  0.1215
  465MOL0     H62716   5.487   1.042   6.312  0.9771  0.5465 -0.5632
  465MOL0     H62717   5.465   1.137   6.167 -1.0694  0.2374 -0.6845
  465MOL0     H62718   5.267   0.955   6.138  1.9576 -1.7462  0.1053
  465MOL0     H62719   5.266   0.961   6.316  0.8701  0.4724  0.7077
  465MOL0     H62720   5.224   1.186   6.311 -0.2130 -1.9492  0.8947
  465MOL0     H62721   5.263   1.200   6.134  1.3093  0.7424  1.0599
  465MOL0     H62722   5.021   1.206   6.176 -2.3370 -0.4233 -1.3011
  465MOL0     H62723   5.064   1.062   6.073  1.6293  0.1032 -0.6259
  465MOL0     H62724   5.008   1.046   6.365  2.1786 -1.7989  0.4475
  465MOL0     H62725   5.041   0.906   6.267  0.4102  0.2303 -1.0710
  465MOL0     H62726   4.770   1.087   6.406 -1.3707 -2.4421  0.6090
  465MOL0     H62727   4.432   1.016   6.231  0.2434  1.0041 -0.5593
  465MOL0     H62728   4.487   0.981   6.401 -0.2743 -0.9435 -1.0531
  465MOL0     H62729   4.557   1.241   6.267  0.9507  1.8750  2.6712
  465MOL0     H62730   4.544   1.202   6.440  1.4818 -2.6022 -0.4068
  465MOL0     H62731   4.303   1.180   6.424  0.3942  2.4883  3.1863
  465MOL0     H62732   4.308   1.233   6.249  0.7482 -0.8696 -0.0364
  465MOL0     H62733   4.414   1.447   6.329  0.0062  2.4232  1.7222
  465MOL0     H62734   4.366   1.410   6.493 -0.6968 -2.7603  0.4072
  465MOL0     H62735   4.176   1.307   6.601  0.2412  0.5958 -0.8139
  465MOL0     H62736   3.966   1.259   6.815 -0.1357  0.5333  2.4927
  465MOL0     H62737   4.120   1.330   6.839 -0.4081 -1.4505  0.3192
  465MOL0     H62738   3.980   1.427   6.885  0.6106  1.1862 -0.9509
  465MOL0     H62739   3.515   1.399   6.634  0.3037  1.2438 -0.9214
  465MOL0     H62740   3.266   1.399   6.681  1.4383 -1.0069 -2.0470
  465MOL0     H62741   3.100   1.701   6.636  0.3859 -0.5515  0.3535
  465MOL0     H62742   3.036   1.532   6.632  0.5771  0.0202 -0.5848
  465MOL0     H62743   2.942   1.750   6.819  2.8749 -0.1361  0.0678
  465MOL0     H62744   2.862   1.727   6.662  0.9251 -1.2824 -0.6760
  465MOL0     H62745   2.768   1.605   6.875 -3.0610  0.9761 -3.1077
  465MOL0     H62746   2.896   1.485   6.863 -1.2692 -1.1513 -1.1742
  465MOL0     H62747   2.712   1.549   6.626  2.1025  3.5906  0.7287
  465MOL0     H62748   2.816   1.413   6.649 -2.2714 -0.1620 -0.6827
  465MOL0     H62749   2.582   1.486   6.836 -0.5432 -1.0975  1.4225
  465MOL0     H62750   2.685   1.345   6.848  2.0860  1.0392 -0.1262
  465MOL0     H62751   2.465   1.292   6.750 -0.1942 -0.9111 -0.4686
  465MOL0     H62752   2.473   1.414   6.626  1.2792  1.3605 -0.2244
  465MOL0     H62753   2.680   1.189   6.631 -1.3086 -2.2939  0.3895
  465MOL0     H62754   2.640   1.295   6.494  0.0981  2.5829  0.7430
  465MOL0     H62755   2.409   1.189   6.497 -0.7355  0.0531  0.8491
  465MOL0     H62756   2.433   1.093   6.633 -1.5279  0.8699  0.0867
  465MOL0     H62757   3.298   1.802   6.809 -2.2904 -1.0774 -1.5322
  465MOL0     H62758   3.547   1.793   6.761 -0.3754  0.6944  3.0102
  465MOL0     H62759   3.795   1.587   6.455  0.9631  0.1622 -2.3631
  465MOL0     H62760   4.004   1.578   6.322  1.2302  1.0468  1.5299
  465MOL0     H62761   5.766   0.498   6.038  0.7134  0.5241  1.5720
  465MOL0     H62762   6.024   0.473   6.028 -0.9005  1.0500  1.2105
  465MOL0     H62763   6.436   0.487   5.745  0.4415  0.1788 -0.4582
  465MOL0     H62764   6.686   0.522   5.733 -1.4933 -0.2941 -0.4031
  465MOL0     H62765   6.868   0.863   5.915 -1.7958 -0.5405 -0.2146
  465MOL0     H62766   6.856   0.763   6.065  1.8508 -0.1824  1.1731
  465MOL0     H62767   7.066   0.771   5.842 -2.0582  0.4071 -0.6318
  465MOL0     H62768   7.071   0.648   5.973 -1.7437  0.0206  2.6950
  465MOL0     H62769   7.112   0.783   6.142 -1.3621  0.1846 -0.7554
  465MOL0     H62770   7.108   0.927   6.041 -0.3062  0.1630 -0.3339
  465MOL0     H62771   7.302   0.865   5.907  4.6773 -0.4881  1.3192
  465MOL0     H62772   7.281   0.699   5.977 -1.9134  0.8875 -1.2891
  465MOL0     H62773   7.493   0.902   6.287 -1.0227  1.2615 -0.0789
  465MOL0     H62774   6.647   0.824   6.034  0.6673 -0.9924  1.1436
  465MOL0     H62775   6.417   0.785   6.049  1.1885 -1.9055  1.7337
  466MOL0     O62776   3.185   1.949   6.418  0.0116  0.1485  0.1047
  466MOL0     C62777   3.262   2.005   6.340  0.8102  0.5660  0.8561
  466MOL0     O62778   3.228   2.104   6.255  0.4281  0.3530  0.6288
  466MOL0     C62779   3.098   2.146   6.270  0.2507  0.3083  0.3642
  466MOL0     C62780   3.067   2.250   6.364  0.2540  0.3076  0.9969
  466MOL0     C62781   2.931   2.291   6.369 -1.0136  0.3670  0.1760
  466MOL0     C62782   2.833   2.235   6.290 -0.5743  0.0965 -0.6362
  466MOL0     O62783   2.703   2.281   6.307  0.3373 -0.6332  0.6249
  466MOL0     C62784   2.588   2.205   6.251 -0.1872 -0.2380 -0.2413
  466MOL0     C62785   2.462   2.257   6.314  0.5353  0.5028  0.3896
  466MOL0     C62786   2.432   2.207   6.455 -0.0993  0.1309  0.2526
  466MOL0     C62787   2.507   2.283   6.567 -0.9095 -0.2093 -1.1719
  466MOL0     C62788   2.498   2.229   6.707 -0.5727 -0.4297 -0.0778
  466MOL0     C62789   2.592   2.316   6.795  0.0911  0.1380  0.3793
  466MOL0     C62790   2.580   2.267   6.939  0.2985 -0.5116  0.0719
  466MOL0     C62791   2.439   2.288   7.005 -0.0484 -0.1979 -0.1351
  466MOL0     N62792   2.448   2.278   7.151 -0.0944 -0.1442  0.5748
  466MOL0     C62793   2.369   2.195   7.230 -0.6486 -0.3587 -0.0013
  466MOL0     C62794   2.391   2.237   7.360 -0.2762  0.1651  0.0685
  466MOL0     C62795   2.346   2.167   7.483 -0.4313 -0.2080  0.7902
  466MOL0     C62796   2.200   2.209   7.524 -0.9514 -0.6968 -0.1356
  466MOL0     C62797   2.091   2.167   7.423  0.1574  0.6428 -0.0543
  466MOL0     C62798   1.955   2.189   7.482  0.3071 -1.6672 -0.5721
  466MOL0     O62799   1.851   2.173   7.381  0.0338  0.4396 -0.3351
  466MOL0     C62800   1.731   2.236   7.417 -0.1498  0.3205 -0.2703
  466MOL0     C62801   1.652   2.285   7.310  0.1783  0.6719  0.0931
  466MOL0     C62802   1.526   2.334   7.331 -0.4443  0.2030 -0.6555
  466MOL0     C62803   1.441   2.363   7.217  0.7710 -0.1345  0.2525
  466MOL0     C62804   1.484   2.347   7.465  0.2022 -0.0374  0.5068
  466MOL0     C62805   1.364   2.422   7.501 -0.1626  1.0058  0.2362
  466MOL0     O62806   1.374   2.506   7.611  0.2508 -0.2944 -0.2141
  466MOL0     C62807   1.257   2.564   7.654 -0.4936  0.0312  0.4352
  466MOL0     C62808   1.171   2.495   7.741  0.9959 -0.0485  0.0931
  466MOL0     C62809   1.057   2.565   7.792 -0.2399  0.0424  0.0161
  466MOL0     C62810   1.032   2.697   7.761  0.5894  0.1349  0.3572
  466MOL0     O62811   0.925   2.758   7.819 -0.3629  0.5728 -0.0482
  466MOL0     C62812   0.847   2.836   7.729  0.1364  0.0497  0.1348
  466MOL0     C62813   0.720   2.891   7.790 -0.0839  0.4297  0.8912
  466MOL0     C62814   0.607   2.781   7.782  0.5766 -0.1657 -0.2616
  466MOL0     C62815   0.474   2.849   7.799 -0.0744  0.5898 -0.6209
  466MOL0     C62816   0.363   2.749   7.823 -0.5158  0.0771  0.4741
  466MOL0     C62817   0.222   2.816   7.826 -0.0964 -0.8115  0.1504
  466MOL0     C62818   0.118   2.703   7.817 -0.2424  0.1721  0.1828
  466MOL0     C62819  -0.018   2.760   7.819  0.6277  0.6185 -0.2255
  466MOL0    Cl62820  -0.056   2.810   7.647  0.5107 -0.3233 -0.0370
  466MOL0     C62821   1.120   2.767   7.684 -0.7512  0.8831 -0.1747
  466MOL0     C62822   1.231   2.704   7.622  0.3405 -0.0455 -0.4368
  466MOL0     O62823   1.259   2.406   7.439 -0.1862 -0.0162 -0.4935
  466MOL0     C62824   1.554   2.302   7.570  0.2848  0.2062 -0.1925
  466MOL0     C62825   1.684   2.244   7.555  0.1827 -0.0730  0.4359
  466MOL0     N62826   2.484   2.340   7.352  0.1393  0.1335 -0.5579
  466MOL0     N62827   2.524   2.360   7.229  0.2163  0.4671 -0.0619
  466MOL0     C62828   2.862   2.132   6.210  0.7228 -1.1659  0.4807
  466MOL0     C62829   2.996   2.096   6.185 -0.5218 -0.7585  0.5371
  466MOL0     C62830   3.397   1.951   6.322 -0.5503  0.3390 -0.3897
  466MOL0     C62831   3.469   1.979   6.205  0.0769  0.1830 -0.5219
  466MOL0     C62832   3.582   1.901   6.177 -0.1583 -0.4734 -0.8849
  466MOL0     C62833   3.633   1.825   6.277  0.2049  0.2771  0.3343
  466MOL0     O62834   3.739   1.746   6.265 -0.4760 -0.1258  0.2497
  466MOL0     C62835   3.759   1.685   6.132 -0.4896 -0.3788 -0.2177
  466MOL0     C62836   3.650   1.583   6.094 -0.1177  0.1124  0.2357
  466MOL0     C62837   3.632   1.474   6.198 -0.4170  0.6312  0.9935
  466MOL0     C62838   3.558   1.350   6.139 -0.2423  0.2133  0.1432
  466MOL0     C62839   3.641   1.273   6.047 -0.6918  0.1371 -0.1438
  466MOL0     C62840   3.734   1.230   5.981 -0.0196 -0.4123  0.3869
  466MOL0     C62841   3.572   1.814   6.401 -0.5130 -0.8277 -0.1743
  466MOL0     C62842   3.456   1.873   6.420  0.8852 -0.1327 -0.5694
  466MOL0     H62843   3.148   2.275   6.432  1.6727  0.4847 -0.7090
  466MOL0     H62844   2.900   2.368   6.439 -0.0675  1.1373 -0.2275
  466MOL0     H62845   2.589   2.225   6.144  0.8688  0.0106 -0.1973
  466MOL0     H62846   2.597   2.099   6.277 -0.9724 -0.1503  0.4062
  466MOL0     H62847   2.469   2.366   6.322  0.6503  0.7461 -2.2097
  466MOL0     H62848   2.377   2.229   6.250  2.0231 -0.2303 -1.3340
  466MOL0     H62849   2.323   2.213   6.459 -0.3231  0.4681 -3.2089
  466MOL0     H62850   2.467   2.103   6.461  0.6398  0.3677  0.1048
  466MOL0     H62851   2.612   2.287   6.535  0.0223 -0.9010  1.4914
  466MOL0     H62852   2.464   2.384   6.570 -1.5413 -0.4887 -0.3410
  466MOL0     H62853   2.391   2.238   6.730 -0.6698 -0.1688 -0.6172
  466MOL0     H62854   2.533   2.126   6.718 -3.1564 -1.3792  0.0519
  466MOL0     H62855   2.693   2.298   6.757  0.2137 -1.6450  1.4458
  466MOL0     H62856   2.565   2.421   6.787 -3.5934 -0.7771 -1.9977
  466MOL0     H62857   2.603   2.160   6.940 -3.2241 -1.3728  0.2519
  466MOL0     H62858   2.657   2.316   7.000 -0.1384 -2.6357  2.5128
  466MOL0     H62859   2.362   2.226   6.959 -1.2913  1.9300 -1.0669
  466MOL0     H62860   2.417   2.394   6.991  0.0972 -0.1909 -0.3130
  466MOL0     H62861   2.286   2.131   7.203 -1.6678  1.3412 -1.0833
  466MOL0     H62862   2.361   2.059   7.472 -1.1388 -0.2561  0.2311
  466MOL0     H62863   2.420   2.205   7.554  2.1562 -0.5801 -1.5001
  466MOL0     H62864   2.192   2.317   7.540  0.4364 -0.4592 -0.9090
  466MOL0     H62865   2.192   2.172   7.626  4.8629 -1.2707  0.4166
  466MOL0     H62866   2.107   2.063   7.391 -1.8407 -0.2425  1.6165
  466MOL0     H62867   2.104   2.217   7.327 -1.8082  1.0061 -0.1639
  466MOL0     H62868   1.949   2.295   7.507 -1.1225 -1.8430 -0.0602
  466MOL0     H62869   1.929   2.123   7.565 -1.2036 -1.5175 -0.8947
  466MOL0     H62870   1.701   2.282   7.214  0.2634  2.0980  0.0705
  466MOL0     H62871   1.397   2.462   7.227 -0.2006  0.0422 -4.1106
  466MOL0     H62872   1.492   2.341   7.123 -3.7380 -1.6106 -2.1483
  466MOL0     H62873   1.347   2.308   7.229  0.2901  0.1639 -1.8084
  466MOL0     H62874   1.200   2.395   7.770 -0.2351 -1.4520 -3.0181
  466MOL0     H62875   0.990   2.518   7.863  0.0433  3.0420  2.4843
  466MOL0     H62876   0.908   2.918   7.691 -0.7118  0.4262 -0.4365
  466MOL0     H62877   0.818   2.771   7.646 -1.3199 -0.1922  0.8133
  466MOL0     H62878   0.732   2.913   7.897  0.6397  0.5686  0.7884
  466MOL0     H62879   0.695   2.989   7.749 -1.9578 -0.7568 -0.9471
  466MOL0     H62880   0.626   2.688   7.836  0.7530 -2.0825 -3.3536
  466MOL0     H62881   0.604   2.747   7.678 -4.3852 -1.5852  0.1007
  466MOL0     H62882   0.473   2.906   7.892 -1.9263 -1.8853  1.0224
  466MOL0     H62883   0.455   2.909   7.710  2.0660  3.2401  0.5580
  466MOL0     H62884   0.387   2.708   7.921  0.7898  0.5784  0.3863
  466MOL0     H62885   0.374   2.675   7.743  2.2812  1.9571 -1.0772
  466MOL0     H62886   0.211   2.866   7.922 -0.4505  1.0971 -0.8481
  466MOL0     H62887   0.219   2.893   7.748  2.0736  2.2611  2.8446
  466MOL0     H62888   0.134   2.637   7.904  1.1897 -3.3872 -2.5211
  466MOL0     H62889   0.147   2.647   7.728  2.5108  2.6686 -0.6432
  466MOL0     H62890  -0.033   2.834   7.897 -4.5333 -1.3231  1.0373
  466MOL0     H62891  -0.094   2.684   7.842  2.2483 -2.0419 -2.8892
  466MOL0     H62892   1.112   2.870   7.651 -2.6261  0.2528 -1.9154
  466MOL0     H62893   1.299   2.757   7.556  0.3915 -0.8853 -1.0688
  466MOL0     H62894   1.501   2.315   7.664 -4.6285  2.2123 -2.8314
  466MOL0     H62895   1.746   2.209   7.637 -2.5419 -2.7742  1.5429
  466MOL0     H62896   2.783   2.086   6.151 -0.3627 -1.0651  1.8153
  466MOL0     H62897   3.012   2.022   6.107 -2.0045 -1.8150  1.1882
  466MOL0     H62898   3.425   2.043   6.129 -0.3889 -1.2019 -1.4630
  466MOL0     H62899   3.629   1.917   6.080 -0.4028 -0.1256 -0.9480
  466MOL0     H62900   3.785   1.750   6.048 -1.6240  0.3956  0.0071
  466MOL0     H62901   3.849   1.625   6.148 -0.6300 -0.4803  0.2007
  466MOL0     H62902   3.687   1.531   6.005  0.9263  1.5961 -0.2422
  466MOL0     H62903   3.557   1.632   6.065 -0.8659  0.0558  2.3769
  466MOL0     H62904   3.570   1.513   6.280 -2.5979  0.6224 -0.5761
  466MOL0     H62905   3.726   1.444   6.245  0.6151  2.4400  0.2021
  466MOL0     H62906   3.473   1.399   6.091 -1.0358 -0.8004  0.4759
  466MOL0     H62907   3.513   1.291   6.219 -3.3613  2.7631  0.4825
  466MOL0     H62908   3.819   1.208   5.920  0.9711 -1.0095  1.9085
  466MOL0     H62909   3.618   1.753   6.478 -2.4614 -4.4051 -1.5796
  466MOL0     H62910   3.404   1.871   6.515  0.5488  2.3338 -0.6345
  467MOL0     O62911   5.271   7.509   6.570 -0.1187  0.2375  0.0608
  467MOL0     C62912   5.329   7.420   6.629  0.2087 -0.3103  0.0215
  467MOL0     O62913   5.314   7.387   6.762 -0.0946  0.0142 -0.2324
  467MOL0     C62914   5.227   7.457   6.842 -1.1646 -0.7886 -0.0412
  467MOL0     C62915   5.124   7.398   6.916 -0.4896 -0.1308 -0.3184
  467MOL0     C62916   5.037   7.476   6.993 -0.7027 -0.2688 -0.0274
  467MOL0     C62917   5.055   7.619   7.002  0.3908  0.3788 -0.0723
  467MOL0     O62918   4.975   7.708   7.072  0.3325 -0.1583 -0.0560
  467MOL0     C62919   4.831   7.664   7.090 -0.2567 -0.1501 -0.1495
  467MOL0     C62920   4.759   7.755   7.188  0.9188 -0.3477 -0.4526
  467MOL0     C62921   4.758   7.907   7.145 -0.1395  0.1640 -0.2723
  467MOL0     C62922   4.698   7.996   7.254  0.5056  0.2908  0.8747
  467MOL0     C62923   4.544   8.005   7.220  0.9553 -0.5904 -0.6792
  467MOL0     C62924   4.480   8.100   7.333  0.1570 -0.6359  0.7266
  467MOL0     C62925   4.327   8.074   7.346  0.2064  0.3742 -0.8959
  467MOL0     C62926   4.261   8.191   7.425 -0.7832 -0.2328 -0.4001
  467MOL0     N62927   4.114   8.180   7.419  0.2505 -0.0621 -0.0625
  467MOL0     C62928   4.038   8.115   7.513  0.5983  0.5258  0.5240
  467MOL0     C62929   3.914   8.128   7.463  0.3514  0.3147 -0.1931
  467MOL0     C62930   3.781   8.058   7.500 -1.0485  0.8837  0.4030
  467MOL0     C62931   3.657   8.138   7.535  0.2628 -0.3285  1.0666
  467MOL0     C62932   3.545   8.048   7.599 -0.6051  0.0249  0.2578
  467MOL0     C62933   3.432   8.129   7.670  0.6584  0.1986 -0.1323
  467MOL0     O62934   3.389   8.226   7.579 -0.1457  0.1019  0.1949
  467MOL0     C62935   3.260   8.232   7.546  0.8486  0.2072 -0.8320
  467MOL0     C62936   3.213   8.358   7.513 -0.3118 -0.2530 -0.5221
  467MOL0     C62937   3.075   8.392   7.499  0.3099 -0.4049 -0.4400
  467MOL0     C62938   3.039   8.536   7.458  0.3261  0.5287  0.3455
  467MOL0     C62939   2.980   8.287   7.518  0.1967  0.3217  0.1395
  467MOL0     C62940   2.827   8.310   7.527  0.9172 -0.1901 -0.9516
  467MOL0     O62941   2.756   8.196   7.532 -0.1470 -0.4833  0.8534
  467MOL0     C62942   2.620   8.207   7.520 -0.8574  0.4456  0.2213
  467MOL0     C62943   2.535   8.267   7.614 -0.5685 -0.6591  0.3371
  467MOL0     C62944   2.395   8.256   7.584  0.2534  0.2070  0.0883
  467MOL0     C62945   2.343   8.185   7.484 -0.4110  0.2295 -0.5120
  467MOL0     O62946   2.216   8.171   7.468 -0.2018  0.0167  0.8024
  467MOL0     C62947   2.152   8.081   7.565  0.4735  1.0747 -0.0473
  467MOL0     C62948   2.087   7.960   7.501  0.1825  0.7950 -0.5337
  467MOL0     C62949   2.009   7.895   7.614  0.0711  0.3839  0.3275
  467MOL0     C62950   1.943   7.764   7.564 -0.1490  0.0110 -0.2495
  467MOL0     C62951   1.790   7.760   7.540  0.4387  0.6927  0.1537
  467MOL0     C62952   1.752   7.617   7.495  0.2666 -0.8137 -0.0859
  467MOL0     C62953   1.603   7.616   7.476  0.3644  0.7407 -0.9294
  467MOL0     C62954   1.563   7.501   7.387  0.1098 -0.1181  0.4847
  467MOL0    Cl62955   1.582   7.343   7.473  0.0942  0.3580  0.1788
  467MOL0     C62956   2.433   8.124   7.396 -0.0716 -0.1550  0.3811
  467MOL0     C62957   2.572   8.139   7.409  0.2426 -0.3692 -0.0438
  467MOL0     O62958   2.780   8.426   7.542 -0.3996 -0.1350  0.0687
  467MOL0     C62959   3.032   8.161   7.527 -0.4448  0.0625  0.3394
  467MOL0     C62960   3.169   8.126   7.539 -0.0547 -0.3611  1.0317
  467MOL0     N62961   3.913   8.221   7.356  0.9777  0.2776  0.7484
  467MOL0     N62962   4.040   8.251   7.335 -0.4216 -0.4365  0.3380
  467MOL0     C62963   5.169   7.669   6.944  0.2142  0.0275  0.3413
  467MOL0     C62964   5.256   7.589   6.869  0.1588 -0.4121 -0.9266
  467MOL0     C62965   5.442   7.342   6.573 -0.5786 -0.6380  0.0937
  467MOL0     C62966   5.510   7.245   6.651  0.6337 -0.2455 -0.4184
  467MOL0     C62967   5.607   7.170   6.593  0.6798  2.0192 -0.2083
  467MOL0     C62968   5.656   7.197   6.465  0.9848  0.2052  0.1900
  467MOL0     O62969   5.768   7.125   6.425 -0.3260 -0.4086  0.3431
  467MOL0     C62970   5.810   7.150   6.293 -0.0658  0.1695 -0.6771
  467MOL0     C62971   5.938   7.065   6.261  0.6207 -0.7951 -0.3892
  467MOL0     C62972   6.047   7.059   6.367 -0.7391  0.4902 -0.5160
  467MOL0     C62973   6.161   7.159   6.348 -0.0001  1.1455  0.0884
  467MOL0     C62974   6.253   7.145   6.456 -0.1301  0.0301  0.0932
  467MOL0     C62975   6.336   7.152   6.534  0.2356  0.4265 -0.6031
  467MOL0     C62976   5.603   7.311   6.397  0.5355 -0.3423 -0.1195
  467MOL0     C62977   5.496   7.386   6.454  0.5227 -0.4137 -0.2060
  467MOL0     H62978   5.103   7.291   6.918 -0.2648 -0.1677  0.9142
  467MOL0     H62979   4.952   7.434   7.046 -1.7442  0.0558 -1.3591
  467MOL0     H62980   4.784   7.665   6.991 -0.6294 -0.6843  0.0206
  467MOL0     H62981   4.833   7.561   7.127  5.1442 -0.3251 -0.1340
  467MOL0     H62982   4.654   7.729   7.204  0.8791  0.9168  1.7516
  467MOL0     H62983   4.805   7.750   7.287 -2.7378  1.0748  1.5183
  467MOL0     H62984   4.857   7.946   7.121 -0.4336 -0.2873 -2.4340
  467MOL0     H62985   4.697   7.922   7.055 -1.6669  0.8492  0.8464
  467MOL0     H62986   4.707   7.953   7.354  0.0472 -1.4792  0.1747
  467MOL0     H62987   4.741   8.096   7.265 -3.7215  2.3132  1.0666
  467MOL0     H62988   4.517   8.036   7.119 -0.6395 -1.9519 -0.7151
  467MOL0     H62989   4.495   7.908   7.226 -4.1282  1.5831 -1.9494
  467MOL0     H62990   4.524   8.080   7.431 -1.3750 -1.5999  1.2495
  467MOL0     H62991   4.503   8.203   7.304 -0.6834 -1.0020 -1.3843
  467MOL0     H62992   4.282   8.055   7.248 -1.1266 -0.6190 -0.1308
  467MOL0     H62993   4.317   7.980   7.402 -2.1692  0.9794 -0.2270
  467MOL0     H62994   4.285   8.281   7.368  1.2781 -0.3977  0.1385
  467MOL0     H62995   4.300   8.199   7.527  3.5599 -1.2138 -1.7541
  467MOL0     H62996   4.076   8.054   7.594 -4.3860 -0.5648  2.4080
  467MOL0     H62997   3.772   7.977   7.427  0.7360  0.7954  0.2193
  467MOL0     H62998   3.814   8.011   7.594  0.0453  1.3821  0.2857
  467MOL0     H62999   3.615   8.180   7.443  2.0824  1.0469  0.8134
  467MOL0     H63000   3.686   8.210   7.612  0.5520 -0.7460  1.3528
  467MOL0     H63001   3.599   7.987   7.673  0.3399 -2.8688 -2.5907
  467MOL0     H63002   3.501   7.982   7.524  1.5770 -1.0477 -0.1638
  467MOL0     H63003   3.473   8.184   7.755  2.0075 -2.2076  0.8792
  467MOL0     H63004   3.356   8.056   7.701 -0.5645  1.0711 -0.9570
  467MOL0     H63005   3.297   8.426   7.503 -0.1167 -0.6204 -1.5023
  467MOL0     H63006   2.993   8.595   7.538 -0.8059  4.4417 -2.8762
  467MOL0     H63007   3.127   8.583   7.413  1.0670 -0.9246  0.1966
  467MOL0     H63008   2.959   8.530   7.384  0.6878 -1.6526  0.0729
  467MOL0     H63009   2.583   8.322   7.694 -1.0213  1.7367 -0.9331
  467MOL0     H63010   2.321   8.298   7.651  0.5336  1.2670 -0.2311
  467MOL0     H63011   2.218   8.046   7.644  0.4182 -0.0995 -0.4981
  467MOL0     H63012   2.065   8.139   7.599 -0.4498  0.3897 -1.1514
  467MOL0     H63013   2.024   7.972   7.412  1.1995 -2.9419 -1.9525
  467MOL0     H63014   2.167   7.907   7.448 -0.7443  1.7383 -3.0352
  467MOL0     H63015   1.927   7.957   7.651  1.0983  1.5731  0.6849
  467MOL0     H63016   2.076   7.882   7.699 -0.2224  0.3484  0.5554
  467MOL0     H63017   1.992   7.735   7.471  3.8753 -0.3304  1.7459
  467MOL0     H63018   1.967   7.685   7.637 -2.8806  0.5225  1.3848
  467MOL0     H63019   1.756   7.827   7.461 -1.1956 -1.4285 -1.0589
  467MOL0     H63020   1.739   7.789   7.632  0.3127  1.2922 -0.1031
  467MOL0     H63021   1.808   7.613   7.401  0.7052 -0.8876  0.1749
  467MOL0     H63022   1.782   7.540   7.566  0.1485 -0.0906  0.7614
  467MOL0     H63023   1.572   7.710   7.429  2.4813  3.1124  2.0375
  467MOL0     H63024   1.551   7.599   7.571  1.0007 -0.4069 -0.7622
  467MOL0     H63025   1.616   7.505   7.292 -2.0204  0.5227 -0.7475
  467MOL0     H63026   1.456   7.508   7.364  0.0308 -1.5299  0.3226
  467MOL0     H63027   2.391   8.066   7.314  0.1810  1.2114 -0.7588
  467MOL0     H63028   2.640   8.086   7.342 -1.7122 -3.9519  0.5319
  467MOL0     H63029   2.953   8.087   7.522 -1.1608  0.6850  1.7421
  467MOL0     H63030   3.190   8.020   7.540  1.6607 -0.0726 -0.3773
  467MOL0     H63031   5.189   7.776   6.938  0.3927  0.0532  1.2827
  467MOL0     H63032   5.336   7.638   6.815 -1.6598  1.0532 -2.4412
  467MOL0     H63033   5.488   7.220   6.754  0.9177 -2.1178 -0.7758
  467MOL0     H63034   5.652   7.084   6.642  1.7076 -0.2045 -4.4730
  467MOL0     H63035   5.743   7.118   6.212  3.3493 -1.7843 -3.0072
  467MOL0     H63036   5.844   7.254   6.286  3.8562 -0.9779 -0.7621
  467MOL0     H63037   5.985   7.102   6.169  2.1400  1.2318  1.1167
  467MOL0     H63038   5.890   6.968   6.242 -3.0299  0.3714  1.8386
  467MOL0     H63039   6.101   6.965   6.356 -0.1564  1.0173 -2.8587
  467MOL0     H63040   6.014   7.072   6.470 -2.0094  0.3113 -0.8857
  467MOL0     H63041   6.121   7.261   6.346  1.2128  1.6828 -3.0188
  467MOL0     H63042   6.202   7.149   6.247 -1.4282  2.7964 -0.7083
  467MOL0     H63043   6.417   7.147   6.605 -0.8880 -0.0937  0.6745
  467MOL0     H63044   5.632   7.336   6.296 -1.2790  0.4215 -0.4994
  467MOL0     H63045   5.452   7.470   6.402  3.0434  1.8235  1.0400
  468MOL0     O63046  10.495   1.401  10.708  0.9990 -0.6344  0.0032
  468MOL0     C63047  10.561   1.312  10.660  1.0970 -0.0588  0.2271
  468MOL0     O63048  10.516   1.192  10.625 -0.0706 -0.4796  0.0673
  468MOL0     C63049  10.384   1.175  10.633  0.8368 -0.5702 -0.3866
  468MOL0     C63050  10.301   1.182  10.519  0.1011 -0.3288  0.2831
  468MOL0     C63051  10.161   1.163  10.527 -0.8412 -0.2570  0.1192
  468MOL0     C63052  10.103   1.135  10.648 -0.5674 -0.3583  0.1425
  468MOL0     O63053   9.977   1.097  10.672  0.1988  0.3655  0.2077
  468MOL0     C63054   9.878   1.147  10.583  0.6511  0.1669  0.1157
  468MOL0     C63055   9.740   1.113  10.636 -0.8082 -0.3459 -0.5605
  468MOL0     C63056   9.629   1.139  10.532  0.4719 -0.5460  0.2828
  468MOL0     C63057   9.489   1.083  10.573  0.1489  0.7998 -0.3603
  468MOL0     C63058   9.385   1.103  10.465  0.1235 -0.0240 -0.9240
  468MOL0     C63059   9.246   1.075  10.512  0.3580 -0.3213 -0.4362
  468MOL0     C63060   9.144   1.117  10.405  0.3174  0.1701  0.2559
  468MOL0     C63061   9.171   1.041  10.279 -0.1117  0.3314 -0.2504
  468MOL0     N63062   9.056   1.043  10.197  1.0350  0.4259 -0.3405
  468MOL0     C63063   8.937   0.976  10.215  0.2956  0.5023 -0.2332
  468MOL0     C63064   8.852   1.003  10.115 -0.9861 -0.3737  0.3744
  468MOL0     C63065   8.720   0.933  10.085 -0.4890 -0.0172  0.2243
  468MOL0     C63066   8.598   1.024  10.110 -0.0524 -0.0220 -0.4829
  468MOL0     C63067   8.599   1.091  10.252  0.0235  0.2718 -0.1996
  468MOL0     C63068   8.472   1.170  10.269  0.1612  0.4084 -0.8071
  468MOL0     O63069   8.366   1.076  10.290  0.0258 -0.1454 -0.4200
  468MOL0     C63070   8.239   1.126  10.303 -0.0976  0.3539 -0.2780
  468MOL0     C63071   8.202   1.258  10.321  0.3344 -0.4521 -0.1255
  468MOL0     C63072   8.067   1.290  10.355  0.0712  0.3921 -0.5339
  468MOL0     C63073   8.031   1.427  10.374 -0.3831  0.3834 -0.4816
  468MOL0     C63074   7.965   1.190  10.362 -1.2019 -0.1108  0.2351
  468MOL0     C63075   7.820   1.217  10.377 -0.8709 -0.2272  0.0478
  468MOL0     O63076   7.749   1.107  10.408 -0.2632  0.2002 -0.0658
  468MOL0     C63077   7.610   1.109  10.411 -0.7717 -0.1988  0.5475
  468MOL0     C63078   7.539   1.033  10.322  0.4854 -0.1849  0.4743
  468MOL0     C63079   7.398   1.057  10.323  0.2346  0.3728 -0.1267
  468MOL0     C63080   7.331   1.146  10.410  0.2217  0.2408 -0.2332
  468MOL0     O63081   7.192   1.164  10.399 -0.6031 -0.3158  0.3784
  468MOL0     C63082   7.119   1.137  10.516  0.7761  0.5531 -0.6240
  468MOL0     C63083   7.064   1.276  10.571 -0.2461  0.5471  0.1408
  468MOL0     C63084   6.941   1.325  10.491 -0.2937 -0.0383 -0.2178
  468MOL0     C63085   6.826   1.374  10.579  0.2604  0.1784  1.1101
  468MOL0     C63086   6.724   1.437  10.490  0.6487 -0.1143 -0.0533
  468MOL0     C63087   6.607   1.485  10.576  0.7164 -0.1717 -0.5626
  468MOL0     C63088   6.516   1.588  10.502  1.0120 -0.2906  0.9971
  468MOL0     C63089   6.396   1.616  10.598 -0.2227  0.4868 -0.1235
  468MOL0    Cl63090   6.299   1.736  10.508  0.0033  0.2423  0.0406
  468MOL0     C63091   7.407   1.224  10.495 -0.5162  0.6617 -0.6850
  468MOL0     C63092   7.546   1.195  10.494  0.7703  0.2858  0.1760
  468MOL0     O63093   7.770   1.326  10.338  0.1284 -0.7871  0.1743
  468MOL0     C63094   8.013   1.058  10.356  0.5021 -0.1528  0.5061
  468MOL0     C63095   8.146   1.028  10.323 -0.5740 -0.0374  0.1515
  468MOL0     N63096   8.928   1.094  10.042 -0.1263  0.4121  0.4532
  468MOL0     N63097   9.045   1.118  10.091 -0.5762  0.1140 -0.2366
  468MOL0     C63098  10.182   1.131  10.763 -1.5327 -0.0477 -0.5343
  468MOL0     C63099  10.317   1.150  10.758 -0.5876  0.4768  0.0905
  468MOL0     C63100  10.702   1.350  10.636  0.4547  0.4388  0.2374
  468MOL0     C63101  10.795   1.247  10.590 -0.0973 -0.2021 -1.0341
  468MOL0     C63102  10.931   1.272  10.581 -0.0565 -0.8887  0.2451
  468MOL0     C63103  10.982   1.400  10.600  0.2905  0.1977  0.2551
  468MOL0     O63104  11.112   1.446  10.590  0.1029 -0.0476  0.2496
  468MOL0     C63105  11.223   1.355  10.575 -0.8141  1.1357 -0.0178
  468MOL0     C63106  11.354   1.434  10.595  0.2412  0.2773  0.9277
  468MOL0     C63107  11.465   1.338  10.553  0.5830  0.1728 -0.6986
  468MOL0     C63108  11.488   1.226  10.661  0.5001 -0.0275  0.2389
  468MOL0     C63109  11.555   1.289  10.775 -0.5479  0.7994 -0.1544
  468MOL0     C63110  11.611   1.345  10.869  0.5298 -0.7514  0.5443
  468MOL0     C63111  10.890   1.505  10.627 -0.2669 -1.0103  0.9045
  468MOL0     C63112  10.756   1.480  10.651  0.5334 -1.0751 -0.6301
  468MOL0     H63113  10.348   1.187  10.421 -1.5231 -2.6419 -0.6920
  468MOL0     H63114  10.102   1.157  10.436  0.2611 -0.0600 -0.6244
  468MOL0     H63115   9.891   1.251  10.552  1.6196  0.1282  0.3705
  468MOL0     H63116   9.880   1.088  10.491  1.1069  0.3535  0.0065
  468MOL0     H63117   9.736   1.006  10.657  1.0021 -0.2556  0.3821
  468MOL0     H63118   9.721   1.173  10.725  5.1603  3.0183 -1.0025
  468MOL0     H63119   9.624   1.248  10.518 -1.7389 -0.5955  0.4072
  468MOL0     H63120   9.646   1.098  10.433 -0.0631 -0.8346  0.3102
  468MOL0     H63121   9.495   0.976  10.594 -2.2959  0.4835 -0.9744
  468MOL0     H63122   9.467   1.145  10.661  1.4607  2.1922 -0.9554
  468MOL0     H63123   9.400   1.207  10.435  0.0956  0.3472  0.2846
  468MOL0     H63124   9.415   1.045  10.377  2.3169  2.8783 -2.2632
  468MOL0     H63125   9.235   0.967  10.524  2.4240 -0.3969  1.1519
  468MOL0     H63126   9.229   1.126  10.607 -0.1163  0.5891 -0.9959
  468MOL0     H63127   9.038   1.112  10.433 -0.0969  3.4885 -0.3042
  468MOL0     H63128   9.152   1.220  10.370 -0.1758 -0.0774 -0.6385
  468MOL0     H63129   9.201   0.937  10.295  1.2635  0.7482  0.0189
  468MOL0     H63130   9.254   1.093  10.230 -0.0477  1.2340  0.7625
  468MOL0     H63131   8.925   0.895  10.286  3.2285 -1.3946 -1.6809
  468MOL0     H63132   8.722   0.893   9.984  1.4551 -0.7243  0.4938
  468MOL0     H63133   8.710   0.848  10.154 -2.3077 -2.3160 -2.6738
  468MOL0     H63134   8.514   0.954  10.107 -0.2742  0.2033  0.4576
  468MOL0     H63135   8.585   1.101  10.033  1.5945 -0.5689 -1.3651
  468MOL0     H63136   8.681   1.163  10.251  0.2584  0.0580 -2.4647
  468MOL0     H63137   8.618   1.018  10.331 -5.8405 -0.3217  1.1457
  468MOL0     H63138   8.463   1.233  10.180 -0.2363  1.6938  0.0991
  468MOL0     H63139   8.494   1.229  10.359  2.8413 -2.7446  0.8400
  468MOL0     H63140   8.281   1.332  10.331  0.2793 -0.2818 -0.8709
  468MOL0     H63141   8.120   1.483  10.405 -0.3607  0.4689 -0.6993
  468MOL0     H63142   7.988   1.466  10.282 -1.9441 -1.3119 -0.5198
  468MOL0     H63143   7.957   1.434  10.454 -2.5021 -1.7601 -2.1318
  468MOL0     H63144   7.586   0.960  10.257  0.8787  0.5650 -0.0905
  468MOL0     H63145   7.345   0.993  10.253  1.8089 -1.7878  0.5330
  468MOL0     H63146   7.038   1.065  10.499  1.9492 -0.4537 -2.3248
  468MOL0     H63147   7.190   1.092  10.586  1.1927  0.9391 -0.7891
  468MOL0     H63148   7.030   1.273  10.675  0.2591  0.6391  0.3127
  468MOL0     H63149   7.144   1.349  10.560 -0.4579  0.7264 -0.2331
  468MOL0     H63150   6.915   1.257  10.409  0.7004  0.9480 -1.3896
  468MOL0     H63151   6.974   1.412  10.433 -0.3764 -0.7528 -1.3671
  468MOL0     H63152   6.775   1.289  10.628  0.3948 -1.8204 -1.9447
  468MOL0     H63153   6.876   1.435  10.655  3.4278 -2.0610  1.0133
  468MOL0     H63154   6.693   1.366  10.413  2.7636 -2.4525  1.1269
  468MOL0     H63155   6.769   1.530  10.454 -1.6382  0.8464 -0.6276
  468MOL0     H63156   6.551   1.395  10.603  1.3170  0.5143  3.6503
  468MOL0     H63157   6.650   1.533  10.665  0.2505  2.3849 -1.6306
  468MOL0     H63158   6.475   1.542  10.411 -1.7787  0.4077  1.7880
  468MOL0     H63159   6.558   1.686  10.477 -2.8160  1.7536  1.7639
  468MOL0     H63160   6.427   1.656  10.696 -0.0782  0.0446  0.0132
  468MOL0     H63161   6.340   1.522  10.604  1.0435 -0.2780  0.1261
  468MOL0     H63162   7.374   1.300  10.565  0.2311  1.2543 -0.9670
  468MOL0     H63163   7.603   1.249  10.569  3.0686 -0.0087 -1.2627
  468MOL0     H63164   7.942   0.977  10.367 -0.9600  1.2647  2.1073
  468MOL0     H63165   8.178   0.924  10.320  1.3502  0.4741  1.2895
  468MOL0     H63166  10.140   1.112  10.861  1.1265 -0.2502  0.6536
  468MOL0     H63167  10.380   1.145  10.846  1.4032 -0.7992 -1.3295
  468MOL0     H63168  10.757   1.146  10.575 -2.6567  0.9855 -3.6051
  468MOL0     H63169  10.996   1.189  10.556 -0.2182 -0.8701 -0.2498
  468MOL0     H63170  11.217   1.277  10.651 -1.7081  0.9491 -0.2661
  468MOL0     H63171  11.212   1.296  10.483  0.5337 -2.9635  2.2149
  468MOL0     H63172  11.376   1.471  10.696  1.0009 -2.0625  1.6980
  468MOL0     H63173  11.346   1.520  10.528 -1.1224 -1.4899 -1.3238
  468MOL0     H63174  11.557   1.398  10.546 -0.2831  1.7240  0.4760
  468MOL0     H63175  11.452   1.306  10.449  1.8309  1.8830 -1.4402
  468MOL0     H63176  11.548   1.143  10.624 -2.1762 -1.5838 -0.8695
  468MOL0     H63177  11.397   1.179  10.698 -0.7581  1.1794 -1.2041
  468MOL0     H63178  11.658   1.393  10.953  1.9464 -0.0413 -0.6051
  468MOL0     H63179  10.937   1.598  10.655 -1.3199  0.3599 -1.6110
  468MOL0     H63180  10.693   1.566  10.675  0.6885 -0.1586 -3.1769
  469MOL0     O63181  10.114   2.568   6.638  0.5437 -0.5277  0.3981
  469MOL0     C63182  10.154   2.488   6.556 -0.1241  0.3827 -0.0445
  469MOL0     O63183  10.085   2.402   6.484 -0.3256  0.9027 -0.1646
  469MOL0     C63184   9.947   2.400   6.509  0.0865  0.2765 -0.2381
  469MOL0     C63185   9.883   2.399   6.635  0.5447  0.1823 -0.2931
  469MOL0     C63186   9.748   2.356   6.646  0.0872  0.2039 -0.7618
  469MOL0     C63187   9.677   2.321   6.536 -0.7856  0.7176 -0.2085
  469MOL0     O63188   9.557   2.272   6.541 -0.1312 -0.3047 -0.5183
  469MOL0     C63189   9.471   2.350   6.625  0.5398  0.6903 -0.1117
  469MOL0     C63190   9.327   2.342   6.566 -0.5865 -0.1856 -0.0549
  469MOL0     C63191   9.232   2.433   6.649 -0.6705  0.9307 -0.0883
  469MOL0     C63192   9.099   2.361   6.683 -0.5045 -0.3926 -0.4935
  469MOL0     C63193   9.015   2.340   6.561 -0.0450  0.1015 -0.3429
  469MOL0     C63194   8.957   2.476   6.497 -0.4228  0.2197 -0.3682
  469MOL0     C63195   8.828   2.444   6.417 -0.1059 -0.0434 -0.0064
  469MOL0     C63196   8.843   2.352   6.304  0.3704 -0.5972 -0.2800
  469MOL0     N63197   8.811   2.212   6.334  0.5754  0.3878  0.7237
  469MOL0     C63198   8.694   2.141   6.341  0.5887 -0.7062  0.5352
  469MOL0     C63199   8.724   2.013   6.356 -0.7264 -0.0219  0.3329
  469MOL0     C63200   8.630   1.894   6.361 -0.5098  0.1860  0.2425
  469MOL0     C63201   8.499   1.928   6.309  0.6440  0.5708  0.0058
  469MOL0     C63202   8.407   1.800   6.308 -0.8093  0.4964 -0.1554
  469MOL0     C63203   8.304   1.792   6.195  1.0227  0.5253 -0.2126
  469MOL0     O63204   8.209   1.895   6.230  0.2387 -0.7148 -0.2654
  469MOL0     C63205   8.081   1.877   6.182  0.2819  0.0776 -1.4801
  469MOL0     C63206   8.032   1.786   6.085 -0.2138  0.6103 -0.3467
  469MOL0     C63207   7.906   1.799   6.038 -0.3701 -0.4031  0.4147
  469MOL0     C63208   7.868   1.703   5.928  0.6456  0.3514 -0.5899
  469MOL0     C63209   7.818   1.904   6.089  0.6146 -0.2134 -0.2775
  469MOL0     C63210   7.672   1.916   6.055  0.7721 -0.0570  0.0025
  469MOL0     O63211   7.610   2.036   6.077  0.1503 -0.4820  0.1493
  469MOL0     C63212   7.475   2.049   6.056  0.1078  0.3608 -0.4505
  469MOL0     C63213   7.399   1.953   6.121 -0.2129 -1.1219  0.3097
  469MOL0     C63214   7.256   1.954   6.106  0.2626 -0.4279 -0.6028
  469MOL0     C63215   7.193   2.063   6.038  0.6126  0.3824  0.5624
  469MOL0     O63216   7.054   2.068   6.025 -0.6330  0.1361 -0.0351
  469MOL0     C63217   7.008   2.142   5.909 -0.1250  0.6213  0.4529
  469MOL0     C63218   6.862   2.143   5.915  0.5908 -0.6482  0.2211
  469MOL0     C63219   6.802   2.255   5.841  0.1868 -0.0190 -0.3690
  469MOL0     C63220   6.656   2.249   5.855  0.2866  1.3336 -0.4187
  469MOL0     C63221   6.593   2.365   5.787  0.0188 -0.8623 -0.1141
  469MOL0     C63222   6.445   2.358   5.778  0.0657 -0.8559 -0.6090
  469MOL0     C63223   6.392   2.438   5.900 -0.1892 -0.5417 -0.3043
  469MOL0     C63224   6.243   2.420   5.914 -0.1710 -0.2348 -0.1903
  469MOL0    Cl63225   6.157   2.471   5.771 -0.0455  0.0496 -0.6455
  469MOL0     C63226   7.283   2.165   5.988  0.2234 -0.0480  0.7928
  469MOL0     C63227   7.419   2.156   5.996  0.6174 -0.5706 -0.0330
  469MOL0     O63228   7.617   1.813   6.023  0.0160  0.1258  0.2228
  469MOL0     C63229   7.868   1.982   6.188  0.1359  0.8334  0.4706
  469MOL0     C63230   7.995   1.971   6.242  0.4340  0.1647  0.5230
  469MOL0     N63231   8.862   1.998   6.366  0.3290 -0.4207 -0.1234
  469MOL0     N63232   8.911   2.121   6.355  0.3979  0.3317 -0.1430
  469MOL0     C63233   9.745   2.323   6.415  0.1032  1.1236  0.0841
  469MOL0     C63234   9.878   2.361   6.394  0.3339  0.2948 -0.9458
  469MOL0     C63235  10.299   2.468   6.547  0.4014 -0.0640 -0.2120
  469MOL0     C63236  10.356   2.341   6.518 -0.7866  0.2471 -0.4232
  469MOL0     C63237  10.493   2.320   6.504  0.5735 -0.1087 -0.2672
  469MOL0     C63238  10.579   2.429   6.527 -0.9211 -0.0580 -0.2216
  469MOL0     O63239  10.715   2.429   6.530 -0.4328  0.3492  0.1188
  469MOL0     C63240  10.781   2.471   6.412  0.5200 -0.3200  0.3117
  469MOL0     C63241  10.769   2.382   6.283 -0.0784 -0.5278  0.3766
  469MOL0     C63242  10.626   2.376   6.212  0.6852  0.0323 -0.0506
  469MOL0     C63243  10.584   2.507   6.160 -0.0366  0.3679 -0.1171
  469MOL0     C63244  10.494   2.499   6.048  0.0188 -0.2286  0.9246
  469MOL0     C63245  10.411   2.512   5.958  0.0077  1.0252  1.4622
  469MOL0     C63246  10.521   2.555   6.549  0.4856 -0.2059 -0.7796
  469MOL0     C63247  10.380   2.578   6.547 -0.1516  1.1082 -0.0654
  469MOL0     H63248   9.937   2.402   6.729  0.7804 -0.4792 -0.3979
  469MOL0     H63249   9.701   2.340   6.743 -1.7665 -0.9313 -1.7827
  469MOL0     H63250   9.471   2.307   6.726 -1.9753  1.5889  0.3449
  469MOL0     H63251   9.502   2.454   6.644  0.8009  0.6704 -0.4194
  469MOL0     H63252   9.342   2.377   6.463 -0.4998  0.1552  0.0740
  469MOL0     H63253   9.290   2.239   6.565 -1.0067 -0.0703 -2.6271
  469MOL0     H63254   9.277   2.463   6.743  1.2954  0.6592 -0.8943
  469MOL0     H63255   9.199   2.521   6.592 -2.1426  0.3712 -0.1397
  469MOL0     H63256   9.116   2.269   6.739 -3.8707 -0.1086  1.1847
  469MOL0     H63257   9.050   2.430   6.752  0.0636  0.3394 -0.8024
  469MOL0     H63258   9.072   2.290   6.482 -0.3037  1.8680 -1.7024
  469MOL0     H63259   8.938   2.270   6.595  2.0942 -1.9154  0.6322
  469MOL0     H63260   8.922   2.548   6.572 -1.2652  0.0663 -0.6003
  469MOL0     H63261   9.039   2.518   6.437 -0.0684  2.4078  1.5211
  469MOL0     H63262   8.745   2.413   6.481 -3.6074  3.2040 -2.5164
  469MOL0     H63263   8.787   2.538   6.378  0.7649  0.1232 -0.5485
  469MOL0     H63264   8.945   2.357   6.263 -0.2496  1.1118 -1.7262
  469MOL0     H63265   8.767   2.380   6.231 -0.6907 -0.4914  0.8508
  469MOL0     H63266   8.597   2.186   6.325  0.4255 -1.0269  0.6101
  469MOL0     H63267   8.671   1.812   6.301 -0.3511  0.3204  0.1653
  469MOL0     H63268   8.616   1.869   6.467 -0.9070  1.3903  0.4839
  469MOL0     H63269   8.500   1.963   6.205 -1.0780 -1.1364 -0.6557
  469MOL0     H63270   8.451   2.011   6.362  2.1751  1.4505  0.0634
  469MOL0     H63271   8.358   1.800   6.405 -1.0794 -2.3446 -0.2237
  469MOL0     H63272   8.472   1.712   6.318 -2.9335 -1.3803 -1.9567
  469MOL0     H63273   8.264   1.690   6.189 -0.2774  0.7879  2.3461
  469MOL0     H63274   8.353   1.817   6.101 -0.3465 -1.5108 -1.5408
  469MOL0     H63275   8.093   1.710   6.037  0.0512  0.5281  0.1192
  469MOL0     H63276   7.839   1.609   5.975 -1.9886  0.9877 -0.7691
  469MOL0     H63277   7.792   1.756   5.870 -0.9173 -1.1998 -0.0348
  469MOL0     H63278   7.952   1.686   5.860  1.7090 -1.2659  1.0443
  469MOL0     H63279   7.450   1.886   6.190 -0.7687 -0.2336  1.6086
  469MOL0     H63280   7.196   1.876   6.151 -1.1026  0.7849 -0.2553
  469MOL0     H63281   7.053   2.242   5.907 -0.3204  0.7415  1.7573
  469MOL0     H63282   7.044   2.091   5.819  0.7445  2.0781 -0.0660
  469MOL0     H63283   6.829   2.044   5.884 -0.7751  0.3978 -1.9163
  469MOL0     H63284   6.831   2.158   6.019 -1.4311 -0.4775 -0.3606
  469MOL0     H63285   6.822   2.259   5.733  2.1317  0.2030 -0.0372
  469MOL0     H63286   6.827   2.355   5.877 -0.8113 -0.2146  0.9037
  469MOL0     H63287   6.631   2.154   5.805 -1.5759  2.2908 -1.4174
  469MOL0     H63288   6.625   2.240   5.959  1.1103 -1.7027 -0.3436
  469MOL0     H63289   6.640   2.358   5.688  0.7751 -2.3353  0.3076
  469MOL0     H63290   6.628   2.458   5.831 -0.9608  0.1107 -1.3158
  469MOL0     H63291   6.405   2.412   5.692  0.5756  1.1709  0.3588
  469MOL0     H63292   6.417   2.253   5.782 -2.0193 -0.3026  1.8105
  469MOL0     H63293   6.407   2.546   5.892 -1.1864 -0.3415  0.2464
  469MOL0     H63294   6.443   2.407   5.992  0.4777  1.2320 -0.0280
  469MOL0     H63295   6.206   2.479   5.998 -2.5958 -2.6619  0.5822
  469MOL0     H63296   6.220   2.318   5.942  0.1013 -0.0697  0.6456
  469MOL0     H63297   7.245   2.252   5.936  0.2109  0.6846  1.9810
  469MOL0     H63298   7.494   2.225   5.957  0.2285  0.2649  0.6813
  469MOL0     H63299   7.801   2.059   6.224 -0.4986 -0.0347  1.2135
  469MOL0     H63300   8.033   2.054   6.302 -0.1922  0.9682 -0.1693
  469MOL0     H63301   9.688   2.286   6.330  2.3578  2.6385 -2.2014
  469MOL0     H63302   9.934   2.338   6.304  0.0979  0.2930 -1.0923
  469MOL0     H63303  10.292   2.253   6.519  0.0672 -0.3989 -1.0788
  469MOL0     H63304  10.534   2.221   6.488  0.9793 -1.1666  5.2434
  469MOL0     H63305  10.725   2.561   6.386  0.3248 -0.7477 -0.8344
  469MOL0     H63306  10.888   2.493   6.422  0.2787  0.8073  0.5496
  469MOL0     H63307  10.798   2.278   6.299  3.0983 -0.2170 -2.2506
  469MOL0     H63308  10.832   2.426   6.204 -0.5518 -1.3044 -0.4599
  469MOL0     H63309  10.550   2.334   6.279  3.0898  0.0069  2.8662
  469MOL0     H63310  10.627   2.305   6.129 -1.4889 -1.7245  1.3051
  469MOL0     H63311  10.667   2.571   6.129 -0.2581  0.6557 -0.1215
  469MOL0     H63312  10.528   2.556   6.240 -2.1681  1.5920 -2.2212
  469MOL0     H63313  10.341   2.510   5.876  1.9165  3.6214 -0.4058
  469MOL0     H63314  10.585   2.637   6.580 -1.1393  1.2581 -1.2000
  469MOL0     H63315  10.336   2.677   6.559 -0.6387  0.9542 -0.5438
  470MOL0     O63316   5.829   3.671   4.014 -0.4720 -0.1385  0.3302
  470MOL0     C63317   5.849   3.648   3.895  1.1547 -0.3748  0.0527
  470MOL0     O63318   5.757   3.636   3.799  0.7966 -0.2699 -0.5986
  470MOL0     C63319   5.625   3.650   3.827  0.3927 -0.6218 -0.4546
  470MOL0     C63320   5.529   3.726   3.750  0.1640  0.7736 -0.1436
  470MOL0     C63321   5.390   3.723   3.776  0.5401 -0.3058 -0.0241
  470MOL0     C63322   5.342   3.641   3.876 -0.2186 -0.0389 -0.5611
  470MOL0     O63323   5.209   3.611   3.902 -0.4384 -0.0381 -0.3216
  470MOL0     C63324   5.099   3.703   3.848 -0.9276  0.2557 -0.3754
  470MOL0     C63325   4.968   3.666   3.926 -0.3355  0.7023  0.0419
  470MOL0     C63326   4.854   3.768   3.909 -0.4132 -0.5797  0.2293
  470MOL0     C63327   4.730   3.702   3.974 -0.2812  0.9155  0.0261
  470MOL0     C63328   4.603   3.770   3.934  0.0620 -0.2466  0.3630
  470MOL0     C63329   4.582   3.918   3.973  0.0320 -0.4781 -0.1328
  470MOL0     C63330   4.444   3.971   3.921  0.3157 -0.3768 -0.9004
  470MOL0     C63331   4.324   3.935   4.014  0.2745  0.0483  0.2121
  470MOL0     N63332   4.193   3.941   3.939 -0.1684  0.5910  0.3990
  470MOL0     C63333   4.137   4.059   3.905  0.5287 -0.2689  0.0526
  470MOL0     C63334   4.068   4.032   3.791 -0.0759 -0.6157 -0.4364
  470MOL0     C63335   4.013   4.140   3.714 -0.4162  0.1088  0.4469
  470MOL0     C63336   3.870   4.099   3.667 -0.5490 -0.3686 -0.1748
  470MOL0     C63337   3.822   4.216   3.571  0.5837  0.0065 -0.5772
  470MOL0     C63338   3.672   4.211   3.520 -0.0222 -0.3536  0.2981
  470MOL0     O63339   3.600   4.198   3.639  0.1968  0.4058 -0.4717
  470MOL0     C63340   3.463   4.195   3.626  0.1677  0.4372  0.1388
  470MOL0     C63341   3.399   4.271   3.531 -0.7714 -0.0227 -0.1559
  470MOL0     C63342   3.265   4.271   3.519  0.7087  0.0693  0.7155
  470MOL0     C63343   3.211   4.348   3.401  0.1413  0.1046  0.3219
  470MOL0     C63344   3.185   4.198   3.607  0.7142  0.8405 -0.0054
  470MOL0     C63345   3.043   4.203   3.618  0.0864  0.1647  0.3225
  470MOL0     O63346   2.976   4.096   3.675 -0.7401  0.7343 -0.2006
  470MOL0     C63347   2.842   4.095   3.693 -1.4053  0.4865  0.1184
  470MOL0     C63348   2.742   4.135   3.610 -0.0092 -0.2174  0.3998
  470MOL0     C63349   2.605   4.133   3.641 -0.5697  0.5279  0.0058
  470MOL0     C63350   2.558   4.084   3.766  0.4699 -1.1916 -0.1319
  470MOL0     O63351   2.428   4.071   3.797  0.5954  0.0216  0.3557
  470MOL0     C63352   2.332   4.154   3.737  0.4739 -0.1696 -1.1769
  470MOL0     C63353   2.208   4.093   3.796 -0.2438  0.3968 -0.9274
  470MOL0     C63354   2.087   4.106   3.696 -0.7909 -0.7816 -0.4469
  470MOL0     C63355   1.990   3.991   3.710 -0.3004  0.4892  0.5420
  470MOL0     C63356   1.870   3.998   3.626  1.0608  0.8798  0.1584
  470MOL0     C63357   1.783   3.871   3.650 -0.3397  0.1970 -0.4202
  470MOL0     C63358   1.698   3.911   3.775 -1.3785  0.4171 -0.3835
  470MOL0     C63359   1.618   3.784   3.824 -1.0621  0.5157 -1.2426
  470MOL0    Cl63360   1.507   3.829   3.961 -0.1367 -0.1648 -0.1318
  470MOL0     C63361   2.654   4.043   3.853  0.1142  0.2327 -0.6417
  470MOL0     C63362   2.790   4.055   3.820  0.6009 -0.5854  0.3634
  470MOL0     O63363   2.988   4.312   3.597  0.0637  0.4596  0.2574
  470MOL0     C63364   3.244   4.118   3.709  0.3565  0.7007 -0.5612
  470MOL0     C63365   3.386   4.123   3.718 -0.0198  0.4635  0.5891
  470MOL0     N63366   4.070   3.897   3.768 -0.1086  0.5878  1.0258
  470MOL0     N63367   4.153   3.844   3.854  0.2821 -0.4351 -0.3350
  470MOL0     C63368   5.426   3.568   3.956 -0.2557 -0.5069  0.4274
  470MOL0     C63369   5.565   3.572   3.933  0.7343 -0.8986 -0.4865
  470MOL0     C63370   5.993   3.635   3.850 -0.9375 -0.3088 -0.0709
  470MOL0     C63371   6.104   3.669   3.933  0.1291  0.8690  0.3650
  470MOL0     C63372   6.235   3.643   3.901  0.2187 -0.7324 -0.0945
  470MOL0     C63373   6.264   3.598   3.772  0.0713  0.6630  0.4470
  470MOL0     O63374   6.395   3.576   3.745  0.2897  0.0669 -0.6855
  470MOL0     C63375   6.438   3.546   3.616 -0.0867 -0.0092 -0.2012
  470MOL0     C63376   6.590   3.551   3.596  0.1334  0.0203  0.3927
  470MOL0     C63377   6.655   3.681   3.612 -0.2922 -0.9825 -0.2149
  470MOL0     C63378   6.802   3.681   3.570  0.1403  0.6762  0.0038
  470MOL0     C63379   6.868   3.793   3.636 -0.9645  0.1354  0.0088
  470MOL0     C63380   6.919   3.892   3.686  0.1304 -0.7359  0.5010
  470MOL0     C63381   6.157   3.566   3.687 -0.2231  0.2259 -0.2384
  470MOL0     C63382   6.022   3.580   3.725 -0.7765 -0.0790  0.4676
  470MOL0     H63383   5.578   3.792   3.679 -0.5416  1.6999  0.2049
  470MOL0     H63384   5.329   3.764   3.696  0.4409 -2.0893 -0.9046
  470MOL0     H63385   5.123   3.806   3.875 -0.5411 -0.0348  0.4318
  470MOL0     H63386   5.087   3.695   3.739  0.3052 -0.8452 -0.4498
  470MOL0     H63387   4.931   3.568   3.895 -0.3057  0.5575  0.4522
  470MOL0     H63388   4.990   3.645   4.031  0.6556 -2.2037 -0.6361
  470MOL0     H63389   4.883   3.857   3.964  3.6685 -2.8384  2.2098
  470MOL0     H63390   4.840   3.794   3.803  2.6401  1.7072  0.2710
  470MOL0     H63391   4.723   3.602   3.930  0.3776  0.6421  0.5404
  470MOL0     H63392   4.725   3.678   4.081 -5.7714  1.0228  0.0753
  470MOL0     H63393   4.587   3.755   3.827 -0.9991 -1.1589  0.6375
  470MOL0     H63394   4.522   3.713   3.981  0.7007 -2.3082 -0.9225
  470MOL0     H63395   4.587   3.922   4.082 -4.9656  2.6242  0.3162
  470MOL0     H63396   4.662   3.987   3.946 -0.2049 -0.3630 -0.5525
  470MOL0     H63397   4.445   4.080   3.918 -1.2062 -0.3505 -2.1274
  470MOL0     H63398   4.423   3.933   3.821 -3.6937  1.7983 -1.1088
  470MOL0     H63399   4.319   3.993   4.107  1.7202 -1.1621  1.0933
  470MOL0     H63400   4.334   3.831   4.045  1.1975  0.4051  1.1492
  470MOL0     H63401   4.145   4.150   3.964 -1.3568  0.2786 -0.4720
  470MOL0     H63402   4.012   4.238   3.763  0.6098  1.2533 -1.6412
  470MOL0     H63403   4.074   4.154   3.623 -0.6938  2.3051  0.5269
  470MOL0     H63404   3.803   4.087   3.752 -0.3817 -0.5184 -0.0621
  470MOL0     H63405   3.871   4.008   3.605  1.5603  0.1546 -1.0063
  470MOL0     H63406   3.877   4.217   3.477 -0.7288  2.9269 -1.4156
  470MOL0     H63407   3.844   4.306   3.630  1.5915 -2.0639  2.4594
  470MOL0     H63408   3.648   4.138   3.441 -1.9071  2.0055 -1.4683
  470MOL0     H63409   3.653   4.304   3.466  1.3323  0.5680  1.3744
  470MOL0     H63410   3.460   4.334   3.467  2.5098 -1.2797  1.4805
  470MOL0     H63411   3.117   4.309   3.359  0.6164 -0.4665 -0.2244
  470MOL0     H63412   3.174   4.449   3.423  0.4062  0.9678 -2.7903
  470MOL0     H63413   3.282   4.361   3.319 -2.1810 -0.8059 -1.9740
  470MOL0     H63414   2.778   4.168   3.513 -1.5618  0.1467 -0.0809
  470MOL0     H63415   2.526   4.162   3.573 -1.3281 -0.5317  0.4156
  470MOL0     H63416   2.332   4.254   3.781  0.5944 -0.3747 -0.6943
  470MOL0     H63417   2.318   4.145   3.629  0.1947  0.8949 -1.2355
  470MOL0     H63418   2.227   3.986   3.809 -1.6821  0.0757 -1.2905
  470MOL0     H63419   2.186   4.146   3.889  0.9998 -0.1897 -0.2707
  470MOL0     H63420   2.117   4.122   3.592  3.3881  3.7297  1.0978
  470MOL0     H63421   2.028   4.199   3.702  0.1780 -0.1739 -0.1959
  470MOL0     H63422   2.045   3.901   3.682 -0.0082  1.4704 -2.3958
  470MOL0     H63423   1.966   3.978   3.816 -1.7114 -2.1421 -0.0282
  470MOL0     H63424   1.893   3.988   3.519 -3.0576  1.6615 -0.9628
  470MOL0     H63425   1.811   4.090   3.628 -4.3051 -1.9384 -3.7918
  470MOL0     H63426   1.711   3.858   3.569 -2.2182  2.2056  0.7980
  470MOL0     H63427   1.847   3.785   3.671 -0.4305  0.7929  2.9163
  470MOL0     H63428   1.631   3.992   3.745 -2.0087 -0.0993 -0.3973
  470MOL0     H63429   1.765   3.922   3.861 -0.4337 -0.4231 -0.9978
  470MOL0     H63430   1.699   3.723   3.866 -2.2863  0.2423  0.8060
  470MOL0     H63431   1.574   3.730   3.739  2.0842  1.7439 -3.9043
  470MOL0     H63432   2.625   4.001   3.948 -0.7315  0.3788 -0.8288
  470MOL0     H63433   2.861   4.011   3.888  1.4119  0.5385  0.2673
  470MOL0     H63434   3.190   4.066   3.787 -1.2550  4.6763  1.2296
  470MOL0     H63435   3.429   4.061   3.796 -2.0707 -0.8168  0.7643
  470MOL0     H63436   5.391   3.524   4.049  1.0818  0.6616  1.5322
  470MOL0     H63437   5.614   3.496   3.992 -1.0396 -1.2899  0.5741
  470MOL0     H63438   6.076   3.718   4.026 -0.1686  0.1791  0.6488
  470MOL0     H63439   6.326   3.666   3.956 -1.7266  2.7512  2.0590
  470MOL0     H63440   6.405   3.443   3.599 -0.4532  0.0122  0.3347
  470MOL0     H63441   6.388   3.612   3.544 -1.8236  2.6304  3.1159
  470MOL0     H63442   6.629   3.510   3.503  2.8769 -2.4474  2.4399
  470MOL0     H63443   6.629   3.480   3.670  0.5779 -0.7942 -0.6136
  470MOL0     H63444   6.643   3.714   3.716  0.5469  2.1686 -1.0127
  470MOL0     H63445   6.607   3.755   3.548  0.9609  1.2826  1.2921
  470MOL0     H63446   6.816   3.687   3.461 -0.5084  0.5867 -0.0858
  470MOL0     H63447   6.853   3.591   3.606  1.4289 -0.6466 -4.3991
  470MOL0     H63448   6.966   3.985   3.714 -0.0983 -0.4645 -0.0217
  470MOL0     H63449   6.159   3.516   3.591 -3.2434 -1.3632  0.3774
  470MOL0     H63450   5.947   3.553   3.652  0.4167 -3.4746  0.3377
  471MOL0     O63451   5.794   5.466  10.481 -0.4757  0.5727  0.4900
  471MOL0     C63452   5.891   5.509  10.416 -0.1131  0.7610  0.3071
  471MOL0     O63453   5.902   5.509  10.280 -0.0887 -0.0281  0.3116
  471MOL0     C63454   5.789   5.497  10.211  0.5711 -0.2828 -0.1404
  471MOL0     C63455   5.734   5.364  10.194 -0.8816 -0.8427 -0.4662
  471MOL0     C63456   5.625   5.351  10.111  0.0853 -0.8975  0.1012
  471MOL0     C63457   5.564   5.458  10.041  0.0275 -0.1920  0.2509
  471MOL0     O63458   5.448   5.454   9.964  0.4274  0.4687 -0.4349
  471MOL0     C63459   5.402   5.325   9.915 -0.3232  0.0816 -0.8675
  471MOL0     C63460   5.273   5.342   9.828  0.7340  0.1214 -0.4936
  471MOL0     C63461   5.158   5.362   9.921 -0.2102 -0.1805  0.9053
  471MOL0     C63462   5.074   5.489   9.895  0.4901 -0.6622 -0.5490
  471MOL0     C63463   4.936   5.499   9.965  0.3136 -0.1955  0.8944
  471MOL0     C63464   4.845   5.397   9.892 -0.8541 -0.2922 -1.2940
  471MOL0     C63465   4.714   5.403   9.980 -0.3735 -0.0016  0.4948
  471MOL0     C63466   4.586   5.352   9.912  0.3276 -0.1307 -0.0044
  471MOL0     N63467   4.469   5.405   9.975  0.2274  0.1151 -0.4132
  471MOL0     C63468   4.411   5.346  10.085  0.0749  0.5215  0.9785
  471MOL0     C63469   4.294   5.404  10.111  0.6743 -0.2730  0.2954
  471MOL0     C63470   4.190   5.380  10.216 -0.0852 -0.5810 -0.0747
  471MOL0     C63471   4.042   5.405  10.172 -0.2600  0.5797  0.6933
  471MOL0     C63472   3.948   5.386  10.287  0.5432  0.1729 -0.7700
  471MOL0     C63473   3.812   5.426  10.249 -0.0755 -0.2873 -1.1404
  471MOL0     O63474   3.724   5.394  10.366 -1.1799  0.0940  0.2238
  471MOL0     C63475   3.593   5.438  10.358 -0.0210 -0.9662  0.6299
  471MOL0     C63476   3.524   5.462  10.241 -0.5923 -0.3275 -0.0615
  471MOL0     C63477   3.385   5.499  10.245 -0.8597  0.8333 -0.6174
  471MOL0     C63478   3.315   5.530  10.109 -0.1829 -0.2806 -0.3219
  471MOL0     C63479   3.319   5.505  10.375 -0.7288  0.6725  0.3783
  471MOL0     C63480   3.179   5.559  10.392  0.1584  0.6044 -0.6543
  471MOL0     O63481   3.087   5.550  10.288 -0.3526  0.0697 -0.6443
  471MOL0     C63482   2.962   5.591  10.313  0.4986 -0.7866  0.4887
  471MOL0     C63483   2.871   5.510  10.368  0.1140  0.2360 -0.2306
  471MOL0     C63484   2.738   5.549  10.397  0.5238 -0.7853  0.4601
  471MOL0     C63485   2.699   5.685  10.363 -0.0978 -0.3916 -0.2140
  471MOL0     O63486   2.574   5.733  10.382  0.2634 -0.2258  0.2577
  471MOL0     C63487   2.469   5.656  10.437  0.4411  0.3521  0.6901
  471MOL0     C63488   2.334   5.718  10.388 -0.0067  0.1434 -0.7708
  471MOL0     C63489   2.308   5.863  10.434  0.9795  0.1035 -0.1815
  471MOL0     C63490   2.281   5.861  10.580  0.3213 -0.5554  0.1465
  471MOL0     C63491   2.225   5.999  10.628 -0.3876 -0.1944 -0.0456
  471MOL0     C63492   2.175   6.003  10.778  0.5352  0.1939  0.8236
  471MOL0     C63493   2.140   6.146  10.807  0.0680  0.7493 -0.6817
  471MOL0     C63494   2.004   6.193  10.769  0.4953  0.1852  0.1544
  471MOL0    Cl63495   1.856   6.130  10.855  0.1129  0.3287 -0.0650
  471MOL0     C63496   2.795   5.760  10.296 -0.3716  0.1839 -1.3030
  471MOL0     C63497   2.925   5.719  10.279  0.4474  0.3160  0.1612
  471MOL0     O63498   3.138   5.590  10.499  0.0417  0.2542  0.1381
  471MOL0     C63499   3.395   5.474  10.489 -1.0228 -0.8687  0.3270
  471MOL0     C63500   3.524   5.436  10.473 -0.7852  0.2168  0.6049
  471MOL0     N63501   4.279   5.503  10.010  0.0661  0.6631  0.6100
  471MOL0     N63502   4.390   5.508   9.937 -0.0984  0.0405  0.0344
  471MOL0     C63503   5.631   5.584  10.048 -0.0822  0.7833 -0.0519
  471MOL0     C63504   5.741   5.601  10.135 -0.4332  0.4706 -0.8365
  471MOL0     C63505   6.002   5.569  10.475 -0.3190 -1.0655  0.3950
  471MOL0     C63506   6.012   5.581  10.614  0.0357  0.1890 -0.1234
  471MOL0     C63507   6.125   5.654  10.670 -1.0447  0.7248  0.4578
  471MOL0     C63508   6.233   5.703  10.593 -0.1497  0.0400 -0.1780
  471MOL0     O63509   6.349   5.740  10.651 -0.1719 -0.1321 -0.4930
  471MOL0     C63510   6.360   5.752  10.795  0.2785 -0.0549  0.9265
  471MOL0     C63511   6.493   5.798  10.809  0.6443  0.5474  0.4247
  471MOL0     C63512   6.569   5.773  10.939 -0.3320 -0.8528  0.3346
  471MOL0     C63513   6.696   5.854  10.950 -0.0138  0.0649  0.2531
  471MOL0     C63514   6.759   5.812  11.076  0.3374  0.3340 -0.7538
  471MOL0     C63515   6.804   5.770  11.174 -0.8424  0.3319  0.1085
  471MOL0     C63516   6.219   5.691  10.455 -0.1298 -0.1413 -0.3946
  471MOL0     C63517   6.107   5.628  10.400  0.1744  0.0238  1.1891
  471MOL0     H63518   5.769   5.280  10.252  0.0537  0.5670  1.0941
  471MOL0     H63519   5.588   5.250  10.099  1.1306 -1.9193  3.9223
  471MOL0     H63520   5.471   5.272   9.849 -1.8390 -1.5819 -1.2045
  471MOL0     H63521   5.379   5.260   9.999 -0.8401 -0.5410 -1.4760
  471MOL0     H63522   5.294   5.434   9.772  2.1613  0.2843  0.2639
  471MOL0     H63523   5.258   5.258   9.759  1.3455 -0.9638  0.6647
  471MOL0     H63524   5.088   5.277   9.913 -3.0639  2.0923 -0.0472
  471MOL0     H63525   5.183   5.366  10.027  0.6630 -0.6752  0.7273
  471MOL0     H63526   5.132   5.575   9.930  2.1265 -1.9740  0.1098
  471MOL0     H63527   5.054   5.495   9.788 -2.5774 -0.3118 -0.0414
  471MOL0     H63528   4.947   5.464  10.068 -0.1202 -2.4793  0.2039
  471MOL0     H63529   4.889   5.597   9.955 -2.1857 -1.2239  1.8376
  471MOL0     H63530   4.830   5.433   9.790  1.3060  0.8106 -1.2926
  471MOL0     H63531   4.880   5.294   9.891 -3.0379 -1.0850 -0.2977
  471MOL0     H63532   4.734   5.358  10.077  0.2448  1.4079  1.0556
  471MOL0     H63533   4.698   5.509  10.004 -0.1597  0.6621 -1.9999
  471MOL0     H63534   4.591   5.243   9.906  0.8255 -0.1297  0.3553
  471MOL0     H63535   4.588   5.397   9.812  0.9725 -2.1891 -0.9837
  471MOL0     H63536   4.439   5.254  10.135 -0.6095 -0.6047 -0.6497
  471MOL0     H63537   4.197   5.275  10.243  1.6024 -0.4660  0.0615
  471MOL0     H63538   4.211   5.451  10.297 -0.8985 -0.2735 -0.1211
  471MOL0     H63539   4.023   5.345  10.082  1.7464  0.6495  0.1789
  471MOL0     H63540   4.044   5.508  10.135  1.4771 -0.2655 -1.9017
  471MOL0     H63541   3.988   5.428  10.380  1.6004 -0.9325 -0.7010
  471MOL0     H63542   3.950   5.278  10.299 -2.9450 -0.1782 -2.1041
  471MOL0     H63543   3.773   5.382  10.157 -2.6819  2.8014 -1.6937
  471MOL0     H63544   3.811   5.533  10.224 -2.6566  0.0687  0.1112
  471MOL0     H63545   3.578   5.456  10.148  0.0545 -0.6487  0.3295
  471MOL0     H63546   3.251   5.443  10.089  1.3526 -1.8452  1.2874
  471MOL0     H63547   3.263   5.626  10.115  0.0329 -0.1757 -0.1426
  471MOL0     H63548   3.389   5.534  10.029  0.2552 -0.2777  0.0792
  471MOL0     H63549   2.896   5.413  10.409 -1.2041  0.4925  1.2880
  471MOL0     H63550   2.681   5.476  10.454  2.9190 -2.8517  0.3878
  471MOL0     H63551   2.469   5.553  10.402 -0.4311  1.0227 -1.4844
  471MOL0     H63552   2.481   5.646  10.545  0.9289  0.6242  0.6620
  471MOL0     H63553   2.345   5.715  10.279 -2.1451 -3.2748 -1.0179
  471MOL0     H63554   2.247   5.656  10.410  2.0404 -3.3161 -1.7364
  471MOL0     H63555   2.226   5.904  10.374  1.5905 -1.2445 -2.0354
  471MOL0     H63556   2.396   5.923  10.405  1.2520 -0.4431 -0.5128
  471MOL0     H63557   2.208   5.781  10.596  1.1591 -1.7003 -1.5167
  471MOL0     H63558   2.375   5.833  10.630 -0.8790 -0.5586  2.5850
  471MOL0     H63559   2.143   6.037  10.566  0.6118 -0.3837 -1.5366
  471MOL0     H63560   2.318   6.057  10.618  2.7087 -3.8086  4.0519
  471MOL0     H63561   2.085   5.946  10.799  0.7510  0.1634  1.7060
  471MOL0     H63562   2.249   5.966  10.850 -0.8922 -3.6297  0.5830
  471MOL0     H63563   2.214   6.205  10.753  0.1618 -1.7892 -3.6311
  471MOL0     H63564   2.152   6.163  10.914  0.5929  1.4380 -0.8455
  471MOL0     H63565   1.983   6.185  10.662  0.9205 -0.8287  0.1297
  471MOL0     H63566   2.013   6.300  10.791 -0.8388  0.7067 -1.5919
  471MOL0     H63567   2.769   5.862  10.271 -1.0012  0.1409 -0.8451
  471MOL0     H63568   2.993   5.794  10.238 -1.0498  2.0806  0.7827
  471MOL0     H63569   3.364   5.471  10.593 -1.4539 -1.0329  0.1932
  471MOL0     H63570   3.583   5.420  10.563  1.6180  1.5649 -0.6073
  471MOL0     H63571   5.590   5.656   9.978 -0.7232  1.4644  1.0031
  471MOL0     H63572   5.789   5.698  10.143 -0.3011  0.2917  1.0654
  471MOL0     H63573   5.936   5.542  10.681 -0.8159  1.3486 -0.3959
  471MOL0     H63574   6.121   5.650  10.779 -2.2183 -1.4323  0.3896
  471MOL0     H63575   6.284   5.813  10.843 -0.8887 -0.4488 -0.3528
  471MOL0     H63576   6.352   5.649  10.831 -0.0816 -0.4914 -0.3166
  471MOL0     H63577   6.488   5.906  10.793  2.0106  0.4626 -0.8524
  471MOL0     H63578   6.569   5.766  10.737  1.8977  4.7271 -0.3797
  471MOL0     H63579   6.602   5.669  10.941  1.8874 -0.1881  1.0876
  471MOL0     H63580   6.506   5.795  11.026  1.7995  1.6984  1.3777
  471MOL0     H63581   6.684   5.963  10.942 -0.6733 -0.0807 -1.1022
  471MOL0     H63582   6.755   5.833  10.861  1.9187  1.6001  1.0984
  471MOL0     H63583   6.842   5.730  11.266  1.6636  0.6054 -0.7244
  471MOL0     H63584   6.304   5.730  10.400 -0.6868  0.0237 -1.1512
  471MOL0     H63585   6.102   5.626  10.292 -1.0211  0.2717  1.2310
  472MOL0     O63586  11.106   1.768   3.983 -0.0193 -0.4342 -0.6407
  472MOL0     C63587  11.039   1.847   3.907 -0.4117  0.4185  0.3775
  472MOL0     O63588  10.906   1.844   3.881  0.7167 -0.5834 -0.6444
  472MOL0     C63589  10.809   1.767   3.949  0.1267 -1.3414  0.1382
  472MOL0     C63590  10.688   1.762   3.882  0.0090  1.1892  0.3085
  472MOL0     C63591  10.582   1.685   3.943  0.0750 -0.2119 -0.0886
  472MOL0     C63592  10.597   1.630   4.072  0.8668  0.0950  0.9304
  472MOL0     O63593  10.490   1.578   4.138 -0.1846  0.0849 -0.4033
  472MOL0     C63594  10.428   1.466   4.085 -0.4261  0.1497 -0.2470
  472MOL0     C63595  10.318   1.417   4.180  0.7040  0.1584 -1.0545
  472MOL0     C63596  10.209   1.531   4.187 -0.4172  0.2201 -0.6711
  472MOL0     C63597  10.115   1.533   4.063  0.1373  0.2611 -0.7400
  472MOL0     C63598  10.011   1.642   4.076 -0.4282  0.2919  0.1200
  472MOL0     C63599   9.918   1.678   3.956  0.7293  0.4842  0.6070
  472MOL0     C63600   9.887   1.562   3.858 -0.8575 -0.9949 -0.0896
  472MOL0     C63601   9.817   1.608   3.729 -1.1616  0.2989 -0.4549
  472MOL0     N63602   9.702   1.687   3.758 -0.4433  0.1734 -0.0250
  472MOL0     C63603   9.572   1.634   3.778 -0.4368 -0.8279 -0.1451
  472MOL0     C63604   9.494   1.745   3.796  0.4807 -0.1765  0.1667
  472MOL0     C63605   9.345   1.747   3.805 -0.3949  0.4444  0.1188
  472MOL0     C63606   9.293   1.841   3.912  0.6082 -0.6280  0.2385
  472MOL0     C63607   9.141   1.841   3.917  0.7996  0.8097 -0.3857
  472MOL0     C63608   9.094   1.941   4.016  0.4966 -1.1456  0.9429
  472MOL0     O63609   9.152   1.931   4.146  0.6516 -0.2286 -0.3546
  472MOL0     C63610   9.147   2.032   4.240 -0.0069 -0.1354  0.1353
  472MOL0     C63611   9.041   2.120   4.250 -0.1772 -0.7937  0.1736
  472MOL0     C63612   9.029   2.220   4.347  0.2195  0.4339  0.0158
  472MOL0     C63613   8.905   2.309   4.328 -0.8820  1.0087  0.0310
  472MOL0     C63614   9.136   2.229   4.441 -0.5713  0.0939  0.2588
  472MOL0     C63615   9.141   2.332   4.545  0.6287  0.0416 -0.6384
  472MOL0     O63616   9.272   2.376   4.582 -0.2061 -0.7158  0.4393
  472MOL0     C63617   9.293   2.469   4.685 -0.8600 -1.0110 -0.0397
  472MOL0     C63618   9.238   2.599   4.694  0.1182 -0.0096  0.2014
  472MOL0     C63619   9.271   2.693   4.798  0.0907  0.0122 -0.3129
  472MOL0     C63620   9.353   2.645   4.904  0.3307 -0.6939 -0.4047
  472MOL0     O63621   9.374   2.726   5.013  0.3263  0.8438 -0.0454
  472MOL0     C63622   9.309   2.853   5.033  0.2494 -0.2688 -0.5030
  472MOL0     C63623   9.364   2.927   5.159  0.4210 -0.0838 -0.2006
  472MOL0     C63624   9.519   2.916   5.177  0.6989  0.4210  0.9444
  472MOL0     C63625   9.551   2.798   5.271 -0.4318 -0.8504 -0.1566
  472MOL0     C63626   9.708   2.790   5.306 -0.1859  0.6894 -0.3233
  472MOL0     C63627   9.770   2.923   5.364  0.1500  0.0971  0.2890
  472MOL0     C63628   9.923   2.915   5.397  0.1406 -0.3742 -0.3129
  472MOL0     C63629  10.009   2.874   5.286 -0.1864  0.2484  0.0532
  472MOL0    Cl63630  10.174   2.909   5.343  0.1555  0.0959 -0.5418
  472MOL0     C63631   9.402   2.514   4.895  0.3314  0.1773 -0.4595
  472MOL0     C63632   9.381   2.436   4.785 -0.3902  0.0399  0.7536
  472MOL0     O63633   9.038   2.372   4.602  0.4088  0.6271  0.3366
  472MOL0     C63634   9.244   2.138   4.433  0.4947  0.2213  0.3792
  472MOL0     C63635   9.245   2.042   4.330 -0.2074  0.3338 -1.1104
  472MOL0     N63636   9.579   1.858   3.799  0.5039  0.1087  0.4083
  472MOL0     N63637   9.691   1.822   3.760  0.1196  0.5564  0.6385
  472MOL0     C63638  10.716   1.633   4.133 -0.1129 -0.2668 -0.4859
  472MOL0     C63639  10.826   1.698   4.070  0.0046 -0.4061 -0.4298
  472MOL0     C63640  11.114   1.940   3.822  0.1872  0.2663  0.2324
  472MOL0     C63641  11.063   2.054   3.759  0.0762  1.2050  0.0223
  472MOL0     C63642  11.141   2.139   3.685  0.4526  0.4383  0.8703
  472MOL0     C63643  11.281   2.116   3.680  0.0941 -0.1330 -0.7071
  472MOL0     O63644  11.359   2.196   3.599  0.1651  0.4398 -0.0577
  472MOL0     C63645  11.362   2.141   3.466 -0.0017  0.1568  0.6033
  472MOL0     C63646  11.443   2.009   3.447  0.0485  0.8464  1.6870
  472MOL0     C63647  11.592   2.035   3.467  0.5419  0.3726 -0.2636
  472MOL0     C63648  11.663   2.110   3.347 -0.1903  0.7793  0.0060
  472MOL0     C63649  11.705   2.019   3.242  0.1451 -1.0227  0.0045
  472MOL0     C63650  11.739   1.932   3.163 -0.1823  0.3284  0.2475
  472MOL0     C63651  11.336   2.014   3.756  0.8636  0.1206  1.0551
  472MOL0     C63652  11.252   1.918   3.809  0.2796 -0.6719  0.0580
  472MOL0     H63653  10.666   1.814   3.789 -2.1237 -1.5972 -0.9024
  472MOL0     H63654  10.485   1.685   3.894  0.3203  0.8231 -0.6083
  472MOL0     H63655  10.383   1.472   3.985 -1.3818 -0.9340  0.0846
  472MOL0     H63656  10.499   1.383   4.086  3.0441  2.8487  2.0673
  472MOL0     H63657  10.280   1.319   4.149  2.8379 -0.6767 -1.1564
  472MOL0     H63658  10.365   1.410   4.278  0.7422 -1.8533 -1.1768
  472MOL0     H63659  10.146   1.517   4.276 -0.2513  1.5044 -0.3279
  472MOL0     H63660  10.265   1.625   4.199 -0.2958  0.1589 -0.7619
  472MOL0     H63661  10.181   1.544   3.977  0.3133  0.5844 -0.5644
  472MOL0     H63662  10.059   1.439   4.055 -0.7190  0.5824  1.0529
  472MOL0     H63663   9.943   1.615   4.157 -0.6934 -0.4501 -0.3400
  472MOL0     H63664  10.060   1.735   4.107  1.6443 -1.2752  1.8326
  472MOL0     H63665   9.815   1.697   3.988  0.0034 -3.5623  1.3030
  472MOL0     H63666   9.954   1.761   3.896  1.2105  0.2937  0.6318
  472MOL0     H63667   9.977   1.508   3.827 -2.2003 -1.4614 -3.6696
  472MOL0     H63668   9.827   1.487   3.911  0.5948 -1.7839  0.5252
  472MOL0     H63669   9.796   1.517   3.673  1.1610 -0.3953 -0.3097
  472MOL0     H63670   9.890   1.662   3.667  1.4858 -3.7039 -1.1926
  472MOL0     H63671   9.541   1.530   3.777 -2.2552 -0.3297  0.8062
  472MOL0     H63672   9.310   1.771   3.704  1.3759 -1.2695 -0.9920
  472MOL0     H63673   9.304   1.647   3.823  1.4039 -0.6875 -1.6068
  472MOL0     H63674   9.321   1.946   3.905  0.1446 -0.4307  1.1788
  472MOL0     H63675   9.326   1.810   4.011 -1.4029 -0.9028  0.8617
  472MOL0     H63676   9.111   1.744   3.957  2.3415  0.9276  1.2298
  472MOL0     H63677   9.097   1.850   3.818 -3.4098 -1.0140  1.1102
  472MOL0     H63678   8.986   1.928   4.027 -0.8228  1.3216 -5.0949
  472MOL0     H63679   9.110   2.040   3.973 -0.7528 -1.0221  0.7179
  472MOL0     H63680   8.968   2.120   4.170  0.1380 -0.5311 -0.1141
  472MOL0     H63681   8.903   2.408   4.376 -0.4691  0.9282  0.2240
  472MOL0     H63682   8.905   2.334   4.222  0.8941 -1.0219 -0.5156
  472MOL0     H63683   8.818   2.247   4.351  1.6977 -2.7063  0.5886
  472MOL0     H63684   9.167   2.631   4.618 -1.7813 -0.4086  1.7261
  472MOL0     H63685   9.244   2.798   4.787  0.0975 -0.0716 -1.1662
  472MOL0     H63686   9.325   2.910   4.941 -0.8120  1.5764  0.4126
  472MOL0     H63687   9.200   2.844   5.037  0.0457  1.8948 -0.1672
  472MOL0     H63688   9.324   3.029   5.155 -1.5957 -0.8407 -0.6343
  472MOL0     H63689   9.319   2.887   5.250  2.4339  0.8903  1.3111
  472MOL0     H63690   9.545   3.015   5.216  0.4661 -0.3068  3.0839
  472MOL0     H63691   9.577   2.915   5.084  2.5007  2.5988  1.9575
  472MOL0     H63692   9.505   2.813   5.369 -0.5873 -0.4880 -0.2847
  472MOL0     H63693   9.526   2.701   5.226  1.2050 -0.8383 -1.1891
  472MOL0     H63694   9.764   2.766   5.215  0.5217  2.0712 -0.2685
  472MOL0     H63695   9.718   2.711   5.380 -4.1760  0.0197 -0.2485
  472MOL0     H63696   9.744   3.004   5.296  1.4894  0.1375 -0.1963
  472MOL0     H63697   9.710   2.949   5.452 -0.8583 -0.9372 -0.0724
  472MOL0     H63698   9.931   2.832   5.467 -0.0670 -0.9534 -0.9702
  472MOL0     H63699   9.955   3.013   5.434 -1.8074  0.6230 -1.1052
  472MOL0     H63700   9.987   2.944   5.206  1.1514  2.7625  1.7268
  472MOL0     H63701   9.999   2.768   5.261 -0.0872 -0.0983  1.4011
  472MOL0     H63702   9.470   2.473   4.969  1.8230  1.2997 -1.1400
  472MOL0     H63703   9.417   2.333   4.783 -1.7140 -0.4394 -0.2162
  472MOL0     H63704   9.316   2.140   4.514 -1.4611 -0.7637  2.2665
  472MOL0     H63705   9.320   1.964   4.315 -1.3062 -0.7047 -1.3038
  472MOL0     H63706  10.725   1.599   4.236 -0.8679 -3.6550 -1.4195
  472MOL0     H63707  10.918   1.695   4.127  0.7446  1.5021 -1.4451
  472MOL0     H63708  10.955   2.065   3.756 -0.4571 -1.5497  2.9980
  472MOL0     H63709  11.097   2.226   3.638  2.5996  1.2308  0.1900
  472MOL0     H63710  11.256   2.123   3.446 -0.1025  0.0355  1.2499
  472MOL0     H63711  11.400   2.214   3.394  2.0695 -1.1131  0.3222
  472MOL0     H63712  11.439   1.970   3.345  1.8841  2.4624  0.9174
  472MOL0     H63713  11.404   1.931   3.512  1.9402 -0.7915  0.9679
  472MOL0     H63714  11.646   1.944   3.492  0.0798  0.2695  0.3954
  472MOL0     H63715  11.587   2.102   3.554  1.3377  0.9625 -0.6511
  472MOL0     H63716  11.759   2.156   3.372  0.5243 -0.4335 -0.4535
  472MOL0     H63717  11.596   2.187   3.306 -1.6398  0.0281  0.8527
  472MOL0     H63718  11.763   1.857   3.089  0.7918 -1.0694  1.9031
  472MOL0     H63719  11.444   2.002   3.754  0.9467  0.8969 -0.0544
  472MOL0     H63720  11.299   1.829   3.849 -0.9880 -0.7670  1.4205
  473MOL0     O63721   7.832   4.769   7.117 -0.3215 -0.2536  0.2598
  473MOL0     C63722   7.864   4.728   7.225 -0.0593 -0.2263 -0.0608
  473MOL0     O63723   7.790   4.639   7.295  0.2136  0.1997  0.3295
  473MOL0     C63724   7.666   4.613   7.241 -0.1905  0.3765  0.0646
  473MOL0     C63725   7.613   4.486   7.235  0.5853 -0.1032  0.1775
  473MOL0     C63726   7.482   4.460   7.193  0.0060 -0.0501 -0.2980
  473MOL0     C63727   7.399   4.555   7.150  0.4657 -0.5805  0.3521
  473MOL0     O63728   7.270   4.519   7.106  0.6495  0.3504  0.1555
  473MOL0     C63729   7.152   4.601   7.143 -0.6467  1.3758  0.2842
  473MOL0     C63730   7.037   4.593   7.044 -0.6591  0.4671 -1.1109
  473MOL0     C63731   6.907   4.666   7.086  0.6536 -0.8122  0.8719
  473MOL0     C63732   6.809   4.570   7.159  0.2366 -0.0522  0.0110
  473MOL0     C63733   6.684   4.638   7.214 -0.1736  1.5345 -0.0865
  473MOL0     C63734   6.592   4.527   7.280 -0.1400 -0.2310 -0.3588
  473MOL0     C63735   6.538   4.424   7.186 -0.3304  0.0415 -0.3337
  473MOL0     C63736   6.389   4.371   7.223 -1.2563 -0.5437 -0.0606
  473MOL0     N63737   6.288   4.474   7.212  0.1833 -0.3944 -0.1164
  473MOL0     C63738   6.279   4.560   7.107  0.3464 -0.8310  0.3734
  473MOL0     C63739   6.166   4.621   7.152  0.0265 -1.3098  0.5028
  473MOL0     C63740   6.101   4.738   7.078  0.0552  0.4785  0.4003
  473MOL0     C63741   5.961   4.709   7.047 -0.4173 -0.3887  0.1627
  473MOL0     C63742   5.858   4.768   7.147  0.2032 -0.4359 -0.2238
  473MOL0     C63743   5.717   4.730   7.117  0.2095  0.3359  0.0451
  473MOL0     O63744   5.675   4.766   6.987 -0.1329 -0.7204  0.4543
  473MOL0     C63745   5.543   4.782   6.971  0.1729 -1.1547  0.1317
  473MOL0     C63746   5.502   4.856   6.865  0.4659  0.2334  0.2469
  473MOL0     C63747   5.369   4.870   6.831  0.6261  0.5771  0.4824
  473MOL0     C63748   5.342   4.949   6.708  0.4230 -0.0012 -0.0084
  473MOL0     C63749   5.267   4.817   6.909 -0.0188  0.1589  0.0352
  473MOL0     C63750   5.123   4.833   6.885 -0.0945  0.7853 -0.2204
  473MOL0     O63751   5.086   4.846   6.755  1.1780  0.0256  0.1147
  473MOL0     C63752   4.957   4.866   6.718  0.6071  0.5059 -0.0130
  473MOL0     C63753   4.942   4.928   6.596  0.3283 -0.2254  0.0109
  473MOL0     C63754   4.814   4.949   6.546 -0.5778  0.2398  0.3365
  473MOL0     C63755   4.704   4.898   6.618  0.8905 -0.0275 -0.0569
  473MOL0     O63756   4.576   4.915   6.567 -0.4368  0.0734 -0.2960
  473MOL0     C63757   4.532   5.032   6.497 -0.6074 -0.3307 -0.2956
  473MOL0     C63758   4.384   5.069   6.527 -0.4141 -0.0283  0.5372
  473MOL0     C63759   4.341   5.196   6.444  0.3911  0.6022 -0.3335
  473MOL0     C63760   4.183   5.216   6.469  0.2672 -0.1813  0.0726
  473MOL0     C63761   4.142   5.361   6.424  0.0447  0.3762 -0.2962
  473MOL0     C63762   3.988   5.373   6.461 -0.5786  0.5920 -0.7960
  473MOL0     C63763   3.935   5.512   6.443  0.2517  0.3855 -0.1189
  473MOL0     C63764   3.789   5.522   6.490 -0.2575 -0.3348 -0.2632
  473MOL0    Cl63765   3.785   5.487   6.659  0.1198 -0.4448  0.1717
  473MOL0     C63766   4.724   4.822   6.728 -0.4149 -0.0701 -1.0092
  473MOL0     C63767   4.846   4.810   6.787 -0.4925 -0.1713  0.0706
  473MOL0     O63768   5.048   4.847   6.976 -0.6909 -0.1599 -0.1102
  473MOL0     C63769   5.312   4.746   7.024  0.0072  0.3221 -0.3303
  473MOL0     C63770   5.444   4.729   7.053  0.5303 -0.8124  0.0811
  473MOL0     N63771   6.118   4.572   7.270 -0.0711 -0.0644  0.2413
  473MOL0     N63772   6.181   4.470   7.298  0.1076 -0.1360 -0.4402
  473MOL0     C63773   7.445   4.685   7.157 -0.5139 -0.4329 -0.7290
  473MOL0     C63774   7.575   4.711   7.207  0.0643 -0.8208  1.4541
  473MOL0     C63775   7.990   4.781   7.293 -0.0668  1.0606  0.2469
  473MOL0     C63776   8.102   4.823   7.221  0.4321 -0.8192  0.1682
  473MOL0     C63777   8.216   4.876   7.286 -0.1709  0.5752  0.0533
  473MOL0     C63778   8.222   4.858   7.426 -0.6272  0.5856 -0.0035
  473MOL0     O63779   8.329   4.885   7.495 -0.4309  0.6108  0.3029
  473MOL0     C63780   8.441   4.963   7.440  0.4862  0.3223 -0.3417
  473MOL0     C63781   8.531   4.985   7.564 -0.7128 -0.2820 -0.2681
  473MOL0     C63782   8.614   4.859   7.596 -0.9304 -0.6771  0.2095
  473MOL0     C63783   8.735   4.880   7.681 -0.1096  1.0068  1.0514
  473MOL0     C63784   8.700   4.929   7.814  0.8915 -0.6208  0.2528
  473MOL0     C63785   8.686   4.977   7.927  0.1307  0.1317  0.1630
  473MOL0     C63786   8.118   4.804   7.497  0.0716 -0.2105  0.3458
  473MOL0     C63787   7.995   4.766   7.434 -0.7929  0.2882  0.1556
  473MOL0     H63788   7.683   4.410   7.270  0.4964 -0.3649 -0.2084
  473MOL0     H63789   7.437   4.361   7.192 -0.0727 -0.0380 -2.6211
  473MOL0     H63790   7.108   4.575   7.240 -2.1799  0.3949 -0.6447
  473MOL0     H63791   7.190   4.704   7.143  3.4344  0.0346 -0.3592
  473MOL0     H63792   7.071   4.629   6.947  2.1048 -1.6449 -1.0431
  473MOL0     H63793   7.016   4.488   7.021  3.2846 -1.1444  1.5581
  473MOL0     H63794   6.924   4.746   7.158  0.3214 -1.5836  1.8253
  473MOL0     H63795   6.853   4.709   7.000 -0.0696 -0.0092  1.7001
  473MOL0     H63796   6.776   4.487   7.096 -1.0969  0.3563  0.1396
  473MOL0     H63797   6.863   4.532   7.246  1.2006 -0.7237 -0.8536
  473MOL0     H63798   6.699   4.722   7.282  0.0353  0.4574  1.2325
  473MOL0     H63799   6.642   4.689   7.126  0.6780  0.9345 -0.8701
  473MOL0     H63800   6.651   4.472   7.355 -0.7012 -2.7038 -1.6484
  473MOL0     H63801   6.507   4.579   7.325 -0.1506 -0.3923 -0.1857
  473MOL0     H63802   6.546   4.445   7.079  0.2630  3.5876  0.2724
  473MOL0     H63803   6.607   4.339   7.189 -2.1764 -1.5456 -0.9023
  473MOL0     H63804   6.386   4.332   7.325 -0.1671  2.0214  1.0448
  473MOL0     H63805   6.366   4.286   7.159 -1.7712 -2.5397  2.6220
  473MOL0     H63806   6.337   4.579   7.018 -0.6252 -1.3778 -0.3954
  473MOL0     H63807   6.118   4.829   7.137  0.4667  2.3737 -2.4351
  473MOL0     H63808   6.154   4.764   6.986 -0.7580  3.5061  0.6663
  473MOL0     H63809   5.941   4.607   7.014  0.0874 -0.6032  0.5185
  473MOL0     H63810   5.941   4.759   6.952 -0.0629 -1.6596 -0.6039
  473MOL0     H63811   5.866   4.877   7.154 -1.7116 -0.2422 -0.5973
  473MOL0     H63812   5.886   4.731   7.246  3.6113  2.2328  0.0004
  473MOL0     H63813   5.659   4.781   7.194 -0.9327 -1.5432  0.4813
  473MOL0     H63814   5.698   4.624   7.136 -1.7895  0.7312  0.4764
  473MOL0     H63815   5.579   4.900   6.803 -0.9092 -0.4192 -2.0548
  473MOL0     H63816   5.328   4.875   6.629 -1.0707 -2.9380  2.7794
  473MOL0     H63817   5.256   5.016   6.713  2.1918  2.4147 -0.1120
  473MOL0     H63818   5.423   5.019   6.685 -0.2487  1.5421  2.0424
  473MOL0     H63819   5.023   4.984   6.551 -0.5393 -0.5010 -1.9908
  473MOL0     H63820   4.809   4.998   6.450  2.1820 -3.3387 -1.8483
  473MOL0     H63821   4.592   5.120   6.524 -0.3903 -0.3130 -0.8366
  473MOL0     H63822   4.528   5.018   6.389 -1.9563  0.3244 -0.3622
  473MOL0     H63823   4.326   4.981   6.501  1.9785 -1.6888  0.4939
  473MOL0     H63824   4.381   5.087   6.634  3.2372  0.3613  0.7284
  473MOL0     H63825   4.388   5.190   6.346  1.2528  2.2106 -0.0558
  473MOL0     H63826   4.388   5.281   6.496  2.0617  0.5313 -1.6455
  473MOL0     H63827   4.142   5.133   6.410  0.6084 -0.7989  0.6867
  473MOL0     H63828   4.165   5.193   6.574 -1.8858 -1.3307 -0.4747
  473MOL0     H63829   4.164   5.379   6.319 -0.9850  0.0492 -0.5799
  473MOL0     H63830   4.194   5.437   6.483 -1.6962  1.3496  0.0657
  473MOL0     H63831   3.928   5.303   6.401  1.6701 -3.0758  0.9054
  473MOL0     H63832   3.976   5.339   6.565  0.5340 -2.4875 -1.5684
  473MOL0     H63833   3.941   5.529   6.335  1.9995 -0.2093 -0.1500
  473MOL0     H63834   4.003   5.583   6.490 -2.2593  1.1911  2.6233
  473MOL0     H63835   3.727   5.450   6.436  1.2867 -3.1048  1.4073
  473MOL0     H63836   3.765   5.627   6.472  0.2499 -0.6216 -3.0563
  473MOL0     H63837   4.642   4.773   6.780  0.6935 -0.8180  0.0672
  473MOL0     H63838   4.857   4.748   6.875 -1.6723 -1.0643 -0.3825
  473MOL0     H63839   5.242   4.695   7.089 -1.2787  3.1985  0.7003
  473MOL0     H63840   5.474   4.659   7.132 -0.1918 -0.7655  0.4019
  473MOL0     H63841   7.403   4.781   7.128 -0.3255  0.7254  2.4186
  473MOL0     H63842   7.606   4.815   7.210  1.8241 -1.2191 -0.2559
  473MOL0     H63843   8.098   4.820   7.113  3.0862 -1.0134  0.0155
  473MOL0     H63844   8.304   4.919   7.239  0.0573  0.8441  0.7139
  473MOL0     H63845   8.503   4.917   7.363  2.0127  0.5847  0.6817
  473MOL0     H63846   8.394   5.051   7.394 -1.7021 -0.7736 -0.3520
  473MOL0     H63847   8.464   5.006   7.647 -3.3418  2.6991 -2.8776
  473MOL0     H63848   8.590   5.074   7.540 -0.9548 -0.7182 -2.8826
  473MOL0     H63849   8.640   4.808   7.504 -1.6520  2.1365 -1.7098
  473MOL0     H63850   8.551   4.787   7.649 -0.6619 -1.3223 -0.3389
  473MOL0     H63851   8.798   4.955   7.633  1.6818 -0.4493  0.9965
  473MOL0     H63852   8.796   4.790   7.693  0.1104  1.3205  2.5806
  473MOL0     H63853   8.681   5.015   8.027 -2.5905  0.3160  0.0197
  473MOL0     H63854   8.118   4.799   7.605  2.4097  0.7466  0.4598
  473MOL0     H63855   7.907   4.729   7.486 -3.6049  2.9964 -2.2514
  474MOL0     O63856   6.945  10.640   8.822  0.0080 -0.2467  1.2618
  474MOL0     C63857   7.019  10.739   8.804 -0.4233  0.0694 -0.0591
  474MOL0     O63858   6.979  10.866   8.785  0.5090  0.6407  0.2654
  474MOL0     C63859   6.844  10.888   8.752 -0.2922  0.7490 -0.4895
  474MOL0     C63860   6.784  11.000   8.804  0.8056 -0.5826  0.0281
  474MOL0     C63861   6.655  11.034   8.766  0.3498  0.3763  0.0533
  474MOL0     C63862   6.587  10.965   8.670  0.1945  0.3403 -0.4423
  474MOL0     O63863   6.466  11.010   8.632  0.1931 -0.0302 -0.0747
  474MOL0     C63864   6.404  10.953   8.517  0.2445  0.0225  0.8373
  474MOL0     C63865   6.293  11.053   8.461  0.1408  0.4106  0.1112
  474MOL0     C63866   6.169  11.065   8.544  0.3260  0.3690  0.4229
  474MOL0     C63867   6.067  11.152   8.479  0.2416  0.2279 -0.2912
  474MOL0     C63868   5.997  11.081   8.363  0.6163 -0.8621  0.6375
  474MOL0     C63869   5.862  11.138   8.348  0.3276  0.4045  0.3885
  474MOL0     C63870   5.788  11.061   8.235  0.6839  0.2081 -0.0813
  474MOL0     C63871   5.633  11.081   8.248  0.2795  0.0919 -0.2105
  474MOL0     N63872   5.552  11.021   8.146  0.7829 -0.3680 -0.3927
  474MOL0     C63873   5.519  10.886   8.131  0.4077 -0.2782 -0.4935
  474MOL0     C63874   5.435  10.867   8.031 -0.0543  0.0869 -0.0598
  474MOL0     C63875   5.363  10.741   7.979 -0.5096 -0.5037 -0.3566
  474MOL0     C63876   5.223  10.713   8.032  0.2543  0.5269 -1.1817
  474MOL0     C63877   5.154  10.628   7.932 -0.3094  0.4678  0.5062
  474MOL0     C63878   5.019  10.576   7.985 -0.5920  0.9795  0.2017
  474MOL0     O63879   4.923  10.686   7.971 -0.1346 -0.6839  0.4335
  474MOL0     C63880   4.834  10.689   7.866 -0.2948 -0.1301  0.7287
  474MOL0     C63881   4.857  10.622   7.742 -0.1814  0.1141 -0.0342
  474MOL0     C63882   4.767  10.608   7.636 -0.6010  0.8040 -0.4815
  474MOL0     C63883   4.801  10.508   7.525  0.5053 -0.0899  0.6145
  474MOL0     C63884   4.647  10.682   7.647 -0.5916  0.9023  0.4979
  474MOL0     C63885   4.548  10.685   7.539  0.4132 -0.3689  0.1731
  474MOL0     O63886   4.420  10.697   7.588 -0.7998 -0.6633 -0.3793
  474MOL0     C63887   4.316  10.700   7.507  0.5194  0.3612  0.8600
  474MOL0     C63888   4.220  10.599   7.531  0.2866  0.0404  0.6591
  474MOL0     C63889   4.096  10.607   7.466 -0.9943  0.3460  0.2299
  474MOL0     C63890   4.064  10.717   7.382  0.1443 -0.4309  1.1578
  474MOL0     O63891   3.939  10.714   7.319 -0.2557  0.3944  0.1635
  474MOL0     C63892   3.836  10.617   7.357  0.1033 -0.1342 -0.0463
  474MOL0     C63893   3.702  10.637   7.273  0.0406  0.0811 -0.1882
  474MOL0     C63894   3.635  10.776   7.304  0.6028 -0.9944 -1.3139
  474MOL0     C63895   3.531  10.812   7.193 -0.2556 -0.1270  0.2018
  474MOL0     C63896   3.436  10.923   7.246  0.4603 -0.1693 -0.4191
  474MOL0     C63897   3.303  10.946   7.166 -1.4753  0.6163 -0.5230
  474MOL0     C63898   3.326  10.987   7.017 -0.3048 -0.2902 -1.1247
  474MOL0     C63899   3.441  11.092   7.012  0.5532  0.0804  0.1049
  474MOL0    Cl63900   3.412  11.197   6.859 -0.0987  0.3618 -0.1627
  474MOL0     C63901   4.161  10.810   7.354 -0.0445 -0.7213 -0.5731
  474MOL0     C63902   4.286  10.804   7.423  0.1450  0.0574 -0.0422
  474MOL0     O63903   4.581  10.678   7.421  0.4028 -0.8285 -0.0058
  474MOL0     C63904   4.629  10.761   7.770  1.0737  0.0320  0.5993
  474MOL0     C63905   4.712  10.756   7.877 -0.4058 -0.6453 -0.2393
  474MOL0     N63906   5.413  10.994   7.976 -0.3019  0.3360 -0.0385
  474MOL0     N63907   5.485  11.084   8.046 -0.8027  0.5320  0.1162
  474MOL0     C63908   6.654  10.856   8.612 -0.3500  0.4651 -0.3223
  474MOL0     C63909   6.780  10.813   8.654  0.1252 -0.9855 -0.2068
  474MOL0     C63910   7.167  10.721   8.815  0.2188  0.5672 -0.5905
  474MOL0     C63911   7.247  10.832   8.846  0.1579  0.8198 -0.5689
  474MOL0     C63912   7.391  10.810   8.853 -0.3029 -0.6559  0.7385
  474MOL0     C63913   7.446  10.678   8.835  0.1528 -1.2611  0.8060
  474MOL0     O63914   7.577  10.642   8.852  0.2555 -0.4478 -0.2785
  474MOL0     C63915   7.672  10.744   8.831  0.2455 -0.0944  0.5637
  474MOL0     C63916   7.815  10.688   8.827  0.2761  0.4872 -0.1994
  474MOL0     C63917   7.813  10.594   8.698 -0.3235  1.3219 -0.4655
  474MOL0     C63918   7.945  10.520   8.672  0.3443 -0.0862 -0.0751
  474MOL0     C63919   7.935  10.464   8.538  0.5756  0.3221 -0.8310
  474MOL0     C63920   7.915  10.440   8.422 -0.4658  0.2310  0.3926
  474MOL0     C63921   7.363  10.573   8.810 -0.3874 -0.2644 -0.6925
  474MOL0     C63922   7.229  10.594   8.798  0.0127  0.3746  0.1374
  474MOL0     H63923   6.845  11.061   8.870  0.3086 -0.5520  0.4701
  474MOL0     H63924   6.598  11.120   8.800  1.7941  1.4522 -0.1427
  474MOL0     H63925   6.486  10.940   8.446  0.1743 -0.9482  0.9115
  474MOL0     H63926   6.364  10.855   8.546  0.9662 -0.7165 -0.5377
  474MOL0     H63927   6.324  11.154   8.432 -1.8389  0.6783 -1.2836
  474MOL0     H63928   6.270  11.000   8.368 -0.2378  2.0644 -0.7760
  474MOL0     H63929   6.146  10.959   8.558  1.2173  0.1083 -0.0379
  474MOL0     H63930   6.196  11.098   8.645  0.7797 -1.9121  1.1224
  474MOL0     H63931   5.990  11.180   8.551  0.7405  1.1958 -0.1127
  474MOL0     H63932   6.123  11.240   8.447  3.0424 -0.6251  1.8752
  474MOL0     H63933   6.051  11.107   8.272 -0.0689 -1.5883  0.0152
  474MOL0     H63934   5.995  10.972   8.373 -1.4106 -0.8613  0.7520
  474MOL0     H63935   5.811  11.116   8.442  1.5115  0.0580  0.9758
  474MOL0     H63936   5.867  11.244   8.323  1.9401  0.0639 -0.9506
  474MOL0     H63937   5.829  11.107   8.145 -0.7270 -0.4830 -1.1037
  474MOL0     H63938   5.807  10.953   8.226  0.2546 -0.1333  2.3423
  474MOL0     H63939   5.619  11.190   8.241  0.9161  0.2577  0.8304
  474MOL0     H63940   5.595  11.046   8.344 -2.7589  1.8953 -0.6186
  474MOL0     H63941   5.566  10.813   8.196 -0.0741 -0.0041  0.1724
  474MOL0     H63942   5.365  10.753   7.870  2.5227  3.7634 -0.0557
  474MOL0     H63943   5.422  10.653   8.006 -2.1569 -1.8315 -0.9012
  474MOL0     H63944   5.169  10.805   8.052  2.0912  0.7487  4.4421
  474MOL0     H63945   5.230  10.661   8.128 -0.5936 -0.0767 -1.4324
  474MOL0     H63946   5.209  10.536   7.910 -3.7465 -1.7380  0.4217
  474MOL0     H63947   5.133  10.671   7.834 -2.3621 -0.3966  0.5274
  474MOL0     H63948   5.034  10.550   8.090 -0.9756 -2.6715 -0.5051
  474MOL0     H63949   4.981  10.484   7.940 -1.1976  0.8814  0.9110
  474MOL0     H63950   4.953  10.572   7.732 -0.4862 -0.4368 -0.2950
  474MOL0     H63951   4.832  10.569   7.440 -1.8519  0.2671 -0.0751
  474MOL0     H63952   4.892  10.452   7.546  1.0399  0.7383  0.5686
  474MOL0     H63953   4.713  10.454   7.489 -0.1727  2.8670 -2.7084
  474MOL0     H63954   4.246  10.519   7.600  0.1863 -0.1299  0.5011
  474MOL0     H63955   4.028  10.524   7.481 -1.5563  0.6215 -0.7242
  474MOL0     H63956   3.868  10.513   7.349  1.3728  0.1664  0.8112
  474MOL0     H63957   3.808  10.631   7.462 -1.3120  0.1663 -0.4314
  474MOL0     H63958   3.719  10.616   7.167  1.7985  2.5473 -0.4604
  474MOL0     H63959   3.644  10.555   7.317  1.8393  0.0917  2.3838
  474MOL0     H63960   3.717  10.849   7.312  0.2182 -0.7125  0.7415
  474MOL0     H63961   3.592  10.769   7.404 -0.0116  2.1454 -1.2629
  474MOL0     H63962   3.582  10.833   7.098 -0.6282  1.6532  0.3700
  474MOL0     H63963   3.469  10.725   7.168 -1.5455  1.0605 -0.9143
  474MOL0     H63964   3.490  11.016   7.267 -1.2265  0.6640  0.3741
  474MOL0     H63965   3.392  10.881   7.337 -0.0833 -1.4939 -1.2655
  474MOL0     H63966   3.237  10.859   7.179 -1.8878  0.5948 -2.4393
  474MOL0     H63967   3.248  11.027   7.215 -0.7103 -0.5373  2.4994
  474MOL0     H63968   3.236  11.026   6.968 -2.2249 -0.8469  1.6681
  474MOL0     H63969   3.354  10.897   6.962 -1.0180 -0.7015 -0.8310
  474MOL0     H63970   3.536  11.041   6.995  0.8909  0.5639  0.5140
  474MOL0     H63971   3.449  11.161   7.097 -0.2548  2.0006 -1.3202
  474MOL0     H63972   4.138  10.889   7.284 -0.3646 -1.9675 -1.9211
  474MOL0     H63973   4.350  10.890   7.408 -0.3470  0.8487  2.0741
  474MOL0     H63974   4.536  10.817   7.764 -0.6185 -2.7006 -0.6656
  474MOL0     H63975   4.700  10.811   7.970  0.6616  0.7444 -0.8840
  474MOL0     H63976   6.614  10.800   8.528  1.8222  2.2294 -2.6940
  474MOL0     H63977   6.826  10.734   8.596  1.7318  0.0661 -0.4155
  474MOL0     H63978   7.196  10.926   8.862 -1.8460  0.1095 -2.3614
  474MOL0     H63979   7.453  10.894   8.884 -0.3140  0.2053 -1.3771
  474MOL0     H63980   7.660  10.795   8.735 -1.3595  0.5159  1.0595
  474MOL0     H63981   7.664  10.820   8.908  0.7008  1.1417 -0.5696
  474MOL0     H63982   7.829  10.635   8.921 -1.3283  0.9283  0.3304
  474MOL0     H63983   7.877  10.772   8.792 -2.2007  1.3288 -3.0802
  474MOL0     H63984   7.779  10.655   8.614 -0.1074  1.7061 -0.2775
  474MOL0     H63985   7.737  10.516   8.707 -2.2997  3.1002 -1.0635
  474MOL0     H63986   7.961  10.437   8.742 -3.5332 -1.2479 -0.3023
  474MOL0     H63987   8.023  10.593   8.693 -0.3027 -0.1377  2.9036
  474MOL0     H63988   7.890  10.423   8.319  1.2175 -0.0137 -0.0083
  474MOL0     H63989   7.402  10.473   8.801  0.6139  0.0640 -0.0868
  474MOL0     H63990   7.169  10.505   8.787 -2.1276  1.4983  1.9519
  475MOL0     O63991  11.225   4.382   2.644  0.2959 -0.0687 -0.1982
  475MOL0     C63992  11.276   4.476   2.707  0.4120 -0.0200  0.9586
  475MOL0     O63993  11.252   4.607   2.681  0.3478 -0.1074 -0.1958
  475MOL0     C63994  11.218   4.656   2.558 -0.4461  0.5203  0.5231
  475MOL0     C63995  11.254   4.592   2.446 -0.6785  0.7760  0.5800
  475MOL0     C63996  11.213   4.646   2.320  0.9005 -0.3152 -0.4416
  475MOL0     C63997  11.134   4.759   2.305  0.7759  0.1727  0.4725
  475MOL0     O63998  11.095   4.794   2.177 -0.7144 -0.4147  0.3904
  475MOL0     C63999  11.038   4.928   2.140 -1.0881 -0.4094  0.1171
  475MOL0     C64000  11.130   5.012   2.048 -0.4398 -0.6680 -0.2087
  475MOL0     C64001  11.242   5.066   2.130 -0.5564  0.2466  0.7059
  475MOL0     C64002  11.285   5.210   2.105  0.1046  0.1727 -0.4440
  475MOL0     C64003  11.328   5.215   1.960 -0.3386 -0.2745 -0.6871
  475MOL0     C64004  11.407   5.348   1.917  0.3235 -0.7468  0.0611
  475MOL0     C64005  11.537   5.375   1.988 -0.3638  0.4758  0.0823
  475MOL0     C64006  11.569   5.526   1.969 -0.5170 -0.2610 -0.3659
  475MOL0     N64007  11.551   5.601   2.092 -0.4843 -0.4519  0.7691
  475MOL0     C64008  11.644   5.688   2.146 -0.3508 -0.0086 -0.7179
  475MOL0     C64009  11.566   5.765   2.221  0.4031 -0.4633  0.3595
  475MOL0     C64010  11.624   5.870   2.314 -0.4231 -0.2874  0.8756
  475MOL0     C64011  11.675   5.999   2.258 -0.8642 -0.5893  0.7195
  475MOL0     C64012  11.573   6.057   2.159  1.0480  0.2778 -0.1454
  475MOL0     C64013  11.446   6.096   2.228  0.6774  0.5398  0.7031
  475MOL0     O64014  11.361   6.180   2.153 -0.3675  0.2389 -0.3590
  475MOL0     C64015  11.232   6.204   2.173 -0.2758  0.3011 -0.0852
  475MOL0     C64016  11.164   6.177   2.291  0.3261  0.5302 -0.9809
  475MOL0     C64017  11.022   6.200   2.304  0.4548  0.2986  0.2025
  475MOL0     C64018  10.962   6.134   2.430  0.2399 -0.3696  0.4244
  475MOL0     C64019  10.963   6.265   2.191  0.1342  1.0590 -0.2813
  475MOL0     C64020  10.823   6.279   2.178 -0.2514  0.3345 -0.2430
  475MOL0     O64021  10.774   6.262   2.050 -0.5557 -0.4554 -1.1462
  475MOL0     C64022  10.641   6.277   2.020 -0.1234 -0.7498 -0.6227
  475MOL0     C64023  10.618   6.339   1.904  0.5718  0.2684  0.0956
  475MOL0     C64024  10.487   6.363   1.867  0.4695 -0.3970 -0.2730
  475MOL0     C64025  10.383   6.311   1.939 -0.0220 -0.5823  0.0169
  475MOL0     O64026  10.254   6.323   1.899 -0.3233 -0.1206  0.3012
  475MOL0     C64027  10.211   6.424   1.808  0.0996 -0.1116  0.0347
  475MOL0     C64028  10.061   6.410   1.797  0.5589  0.7026  0.3835
  475MOL0     C64029   9.978   6.417   1.926 -0.0337  0.3060 -1.1658
  475MOL0     C64030   9.841   6.355   1.901  0.5281 -0.0265  0.2070
  475MOL0     C64031   9.767   6.347   2.036 -0.3203 -0.3876  0.3519
  475MOL0     C64032   9.644   6.256   2.019 -0.3345  0.1067  0.1544
  475MOL0     C64033   9.560   6.237   2.152  0.4593 -0.4904 -0.2424
  475MOL0     C64034   9.423   6.176   2.114 -0.9396 -0.2979  0.1451
  475MOL0    Cl64035   9.335   6.142   2.255 -0.1656  0.0377 -0.1621
  475MOL0     C64036  10.404   6.254   2.061 -0.3221 -0.0617  0.0511
  475MOL0     C64037  10.537   6.237   2.100 -0.5352 -1.0269 -0.3297
  475MOL0     O64038  10.761   6.308   2.276  0.2347  0.2558  1.0418
  475MOL0     C64039  11.036   6.290   2.077 -0.0718 -0.1506 -0.5113
  475MOL0     C64040  11.168   6.255   2.069 -0.3306  0.1543  0.4384
  475MOL0     N64041  11.435   5.729   2.208  0.2677 -0.9580 -0.3179
  475MOL0     N64042  11.426   5.623   2.136 -0.9984  0.4924 -0.2783
  475MOL0     C64043  11.100   4.828   2.425 -0.7262  0.3155  0.0698
  475MOL0     C64044  11.142   4.771   2.548  0.0922  0.3752  0.1170
  475MOL0     C64045  11.370   4.445   2.806 -0.1962  0.0329  0.2933
  475MOL0     C64046  11.391   4.323   2.877 -1.8912 -0.2636 -0.3432
  475MOL0     C64047  11.485   4.308   2.971 -0.3772  1.0984  0.1778
  475MOL0     C64048  11.567   4.408   3.012 -0.3905  0.6506  0.5283
  475MOL0     O64049  11.665   4.403   3.108  0.5875 -0.5417  0.1563
  475MOL0     C64050  11.621   4.374   3.238  0.3362 -0.6633 -1.0585
  475MOL0     C64051  11.717   4.265   3.293 -0.4217  0.2650  0.1379
  475MOL0     C64052  11.691   4.127   3.225  0.2542 -0.4494 -0.8073
  475MOL0     C64053  11.783   4.014   3.270  0.5209  0.2081 -0.3836
  475MOL0     C64054  11.783   3.896   3.184  0.1121 -0.8650  1.0741
  475MOL0     C64055  11.815   3.793   3.128  0.2391 -0.1174 -0.6888
  475MOL0     C64056  11.555   4.532   2.942  0.1092 -0.5605  0.0674
  475MOL0     C64057  11.459   4.549   2.843 -0.0803 -0.1989  0.3387
  475MOL0     H64058  11.317   4.504   2.439  1.7782  2.4785  0.0812
  475MOL0     H64059  11.244   4.602   2.226  3.3711  3.3761 -1.5501
  475MOL0     H64060  10.944   4.920   2.085  0.0103  1.7483 -2.3077
  475MOL0     H64061  11.005   4.984   2.228 -4.4191  1.5842 -2.1772
  475MOL0     H64062  11.172   4.959   1.962  2.0365  0.4086  0.2583
  475MOL0     H64063  11.067   5.096   2.019  0.5144  1.4639  3.2963
  475MOL0     H64064  11.226   5.066   2.239 -0.4597 -0.6638  0.7216
  475MOL0     H64065  11.323   4.996   2.112  0.6889  1.9519 -0.6774
  475MOL0     H64066  11.200   5.277   2.122  0.9431  1.7520 -2.0259
  475MOL0     H64067  11.360   5.242   2.178 -1.7608  0.6532  1.3384
  475MOL0     H64068  11.391   5.126   1.948 -0.3267 -0.3533 -0.0335
  475MOL0     H64069  11.238   5.206   1.897 -1.2970  1.1653  0.4246
  475MOL0     H64070  11.433   5.347   1.811 -1.5882  3.4283 -0.6324
  475MOL0     H64071  11.345   5.434   1.944  0.4137 -1.0274  1.2280
  475MOL0     H64072  11.535   5.350   2.095 -2.9184 -0.4844 -0.1219
  475MOL0     H64073  11.617   5.319   1.939 -0.8255 -1.6109  1.5805
  475MOL0     H64074  11.504   5.561   1.888  0.9485  1.5427 -0.8220
  475MOL0     H64075  11.674   5.545   1.945 -0.3717 -0.3178  0.2060
  475MOL0     H64076  11.752   5.691   2.133  0.1049  0.0304  2.4030
  475MOL0     H64077  11.539   5.890   2.380  0.7796 -0.1251  2.4489
  475MOL0     H64078  11.706   5.826   2.372 -0.5306 -0.0964  1.1782
  475MOL0     H64079  11.760   5.976   2.192 -1.4247  1.8994 -1.0258
  475MOL0     H64080  11.701   6.074   2.332 -2.0095  2.5692 -1.8422
  475MOL0     H64081  11.546   5.987   2.080 -1.6658  1.0417  0.0013
  475MOL0     H64082  11.592   6.139   2.089 -3.9033  0.5734 -1.5294
  475MOL0     H64083  11.460   6.149   2.323 -1.3819 -0.3376  1.5545
  475MOL0     H64084  11.389   6.007   2.254  1.1415 -0.0686 -0.3140
  475MOL0     H64085  11.213   6.127   2.374  1.0013  0.5915 -1.3366
  475MOL0     H64086  10.862   6.099   2.406  0.3264 -0.7688  0.6287
  475MOL0     H64087  11.023   6.049   2.463  0.0969 -0.5126  0.3181
  475MOL0     H64088  10.949   6.201   2.515 -1.9215 -2.4422  1.8498
  475MOL0     H64089  10.709   6.374   1.855  1.9298  1.3455  3.1252
  475MOL0     H64090  10.463   6.411   1.773 -2.1870  0.7123  0.8579
  475MOL0     H64091  10.243   6.523   1.839  1.0792 -0.5974  0.6187
  475MOL0     H64092  10.261   6.408   1.712  2.5968  0.3276  1.1743
  475MOL0     H64093  10.021   6.482   1.726  1.4736  1.3851  0.5520
  475MOL0     H64094  10.038   6.314   1.750 -1.1435  1.5333 -0.5817
  475MOL0     H64095   9.962   6.522   1.952 -1.2912 -0.0167 -0.5418
  475MOL0     H64096  10.034   6.375   2.009 -0.4400 -4.3527 -2.9608
  475MOL0     H64097   9.789   6.417   1.828  1.0207 -0.7966 -0.8169
  475MOL0     H64098   9.849   6.256   1.855 -0.9717 -0.2781  0.4196
  475MOL0     H64099   9.734   6.448   2.063  0.3923 -0.7707  2.9379
  475MOL0     H64100   9.828   6.307   2.118 -1.8348  2.1230  2.9034
  475MOL0     H64101   9.581   6.303   1.943  0.2002  0.3467 -0.1479
  475MOL0     H64102   9.685   6.160   1.986 -2.1712 -0.2682 -1.1967
  475MOL0     H64103   9.556   6.327   2.213 -0.8404  0.1477 -1.2318
  475MOL0     H64104   9.615   6.160   2.208  0.2144 -0.1817  0.4333
  475MOL0     H64105   9.443   6.081   2.064 -1.0647  0.2060 -0.8744
  475MOL0     H64106   9.376   6.240   2.040  0.6873 -1.6166 -2.1615
  475MOL0     H64107  10.325   6.213   2.124 -0.6045 -0.9914 -0.8695
  475MOL0     H64108  10.563   6.189   2.194  0.2507 -0.4873 -0.2623
  475MOL0     H64109  10.983   6.338   1.994 -0.2943  0.5141  0.0068
  475MOL0     H64110  11.227   6.269   1.978 -1.0937 -0.6258 -0.1984
  475MOL0     H64111  11.035   4.914   2.435 -0.6760  0.1810  1.7463
  475MOL0     H64112  11.110   4.820   2.639  0.4271  0.2741  0.2902
  475MOL0     H64113  11.333   4.234   2.858  1.3510 -2.5723 -0.2883
  475MOL0     H64114  11.478   4.210   3.017 -1.4721  1.3088  0.4975
  475MOL0     H64115  11.624   4.470   3.291 -2.4094 -0.2726 -1.4533
  475MOL0     H64116  11.523   4.327   3.250  0.1842 -0.0140  0.5974
  475MOL0     H64117  11.700   4.248   3.400  1.4847  1.3136  0.6605
  475MOL0     H64118  11.825   4.281   3.283  0.3908 -2.9727  2.0486
  475MOL0     H64119  11.697   4.126   3.116 -0.2782 -0.2326 -0.8409
  475MOL0     H64120  11.588   4.103   3.252  0.7919 -1.7831  0.1331
  475MOL0     H64121  11.740   3.989   3.367 -1.0169  2.3188 -0.4426
  475MOL0     H64122  11.885   4.054   3.277  1.3589 -2.0100  1.0022
  475MOL0     H64123  11.848   3.697   3.095 -1.2719 -1.0739  0.4196
  475MOL0     H64124  11.613   4.619   2.970  0.4286  0.1347 -2.4646
  475MOL0     H64125  11.454   4.650   2.803  0.9683 -0.0951  0.4384
  476MOL0     O64126   7.777   5.318   9.238 -0.2255 -0.2338  0.0589
  476MOL0     C64127   7.813   5.197   9.245 -0.7128 -0.3273  0.1411
  476MOL0     O64128   7.738   5.089   9.226 -0.2249 -0.6090  0.0965
  476MOL0     C64129   7.606   5.115   9.192 -0.3795 -0.2143  1.1053
  476MOL0     C64130   7.564   5.186   9.075 -0.4332  0.0157  0.2411
  476MOL0     C64131   7.428   5.218   9.054  0.2457  1.6669  0.6195
  476MOL0     C64132   7.324   5.176   9.134 -0.1230 -0.1556 -0.5229
  476MOL0     O64133   7.196   5.199   9.094 -0.3619 -0.1402  0.5224
  476MOL0     C64134   7.097   5.186   9.185 -0.9246 -0.8191 -0.2740
  476MOL0     C64135   7.051   5.035   9.182  0.2035 -0.2180  0.1228
  476MOL0     C64136   6.972   5.006   9.061 -0.4612  0.8088  0.1909
  476MOL0     C64137   6.920   4.862   9.056 -0.7076 -0.0866 -0.0443
  476MOL0     C64138   6.834   4.854   8.920  0.2292 -0.4556 -0.1161
  476MOL0     C64139   6.700   4.927   8.930  0.6258  0.5097 -0.1953
  476MOL0     C64140   6.616   4.933   8.804 -0.3616  0.2511  0.0006
  476MOL0     C64141   6.573   4.794   8.762  0.1333 -0.1773 -0.0435
  476MOL0     N64142   6.497   4.796   8.634 -0.5156 -0.2217  0.7187
  476MOL0     C64143   6.361   4.806   8.633 -0.1595 -0.2753 -0.5281
  476MOL0     C64144   6.324   4.777   8.510 -0.1259  0.4547  0.3696
  476MOL0     C64145   6.185   4.787   8.465 -0.0127 -0.9353  0.0292
  476MOL0     C64146   6.140   4.668   8.369 -0.0484 -0.0845 -0.0900
  476MOL0     C64147   6.178   4.680   8.226  0.5185  0.3973 -0.0290
  476MOL0     C64148   6.074   4.624   8.134 -0.1607 -0.2966 -0.7612
  476MOL0     O64149   5.948   4.703   8.140 -0.6905  0.5470 -0.1779
  476MOL0     C64150   5.847   4.668   8.060 -0.5104 -0.1738  0.3116
  476MOL0     C64151   5.845   4.555   7.976 -0.4081 -0.2454 -0.2644
  476MOL0     C64152   5.732   4.508   7.909 -0.4633 -0.0490 -0.7548
  476MOL0     C64153   5.747   4.368   7.851  0.1238  0.2774  0.3303
  476MOL0     C64154   5.610   4.578   7.920  0.5956  0.7459 -0.1693
  476MOL0     C64155   5.486   4.529   7.851 -0.8800  0.0428  0.0556
  476MOL0     O64156   5.375   4.592   7.896 -0.3659 -0.1008 -0.1618
  476MOL0     C64157   5.253   4.555   7.860 -0.0294 -0.0367  0.3888
  476MOL0     C64158   5.176   4.495   7.962  0.4791  0.3110  0.7063
  476MOL0     C64159   5.040   4.467   7.939  0.5400  0.0751  0.2721
  476MOL0     C64160   4.978   4.492   7.820 -0.1059 -0.1808  0.0287
  476MOL0     O64161   4.840   4.483   7.794  0.6026  0.3845 -0.0750
  476MOL0     C64162   4.746   4.437   7.894 -0.2024  0.1844 -0.3488
  476MOL0     C64163   4.739   4.287   7.905  0.4144  0.7377 -0.5790
  476MOL0     C64164   4.734   4.219   7.763  0.0374  0.3529 -0.2520
  476MOL0     C64165   4.714   4.057   7.779  0.4006  0.3855  0.8328
  476MOL0     C64166   4.562   4.030   7.791 -0.0210  0.4606  0.6150
  476MOL0     C64167   4.484   4.045   7.661 -0.5872  0.6435 -0.5455
  476MOL0     C64168   4.393   3.933   7.644  0.6988  0.6932 -0.9971
  476MOL0     C64169   4.314   3.948   7.518 -0.4778 -0.3082  0.5563
  476MOL0    Cl64170   4.427   3.946   7.377 -0.2003  0.0708 -0.1544
  476MOL0     C64171   5.056   4.544   7.720  0.0945  0.9358 -0.0022
  476MOL0     C64172   5.190   4.579   7.734  1.0868  0.4141 -0.1391
  476MOL0     O64173   5.492   4.451   7.756  0.2849  0.4744  0.6577
  476MOL0     C64174   5.614   4.699   8.000  0.0063  0.4393  0.6567
  476MOL0     C64175   5.734   4.738   8.061  0.4693  0.1784  0.2461
  476MOL0     N64176   6.435   4.745   8.439 -0.3143 -0.4775  0.2451
  476MOL0     N64177   6.540   4.773   8.507  0.3267 -0.3866 -0.2123
  476MOL0     C64178   7.370   5.113   9.247  0.7042 -0.4987 -0.1706
  476MOL0     C64179   7.503   5.078   9.274 -0.6848 -0.0322  0.1161
  476MOL0     C64180   7.955   5.172   9.262  0.5116 -0.1543 -0.1519
  476MOL0     C64181   8.002   5.036   9.279  0.3464 -0.3732  0.1324
  476MOL0     C64182   8.135   5.007   9.304 -0.4170  0.0970 -0.5734
  476MOL0     C64183   8.229   5.104   9.296  0.0741 -0.3477 -0.9247
  476MOL0     O64184   8.348   5.052   9.319  0.0692 -0.5783  0.4106
  476MOL0     C64185   8.463   5.138   9.295  0.2258  0.0883 -0.0210
  476MOL0     C64186   8.586   5.057   9.284  0.6436 -0.0265 -0.1756
  476MOL0     C64187   8.719   5.123   9.245  0.3631 -0.8208 -0.4700
  476MOL0     C64188   8.820   5.011   9.231 -0.9690  0.3486 -0.4837
  476MOL0     C64189   8.854   4.936   9.355 -0.6223  0.3672  0.2085
  476MOL0     C64190   8.881   4.855   9.443 -0.1562 -0.4168 -0.3260
  476MOL0     C64191   8.191   5.235   9.264 -0.1997 -0.0391 -0.9918
  476MOL0     C64192   8.052   5.271   9.253 -1.0193  0.2316 -1.2525
  476MOL0     H64193   7.642   5.216   9.006 -1.8466  2.1737 -0.4950
  476MOL0     H64194   7.398   5.267   8.962  1.4817  2.5417  0.6628
  476MOL0     H64195   7.132   5.205   9.287 -0.3102 -1.8373 -0.2750
  476MOL0     H64196   7.019   5.258   9.160  0.1097  0.9045  1.2250
  476MOL0     H64197   7.136   4.966   9.190  2.3082  2.0080 -1.4276
  476MOL0     H64198   6.977   5.019   9.261 -1.3140  0.2696 -1.1439
  476MOL0     H64199   6.889   5.077   9.058  1.1814  2.8464 -2.9892
  476MOL0     H64200   7.034   5.007   8.970 -0.1894 -2.2532  0.2339
  476MOL0     H64201   7.005   4.793   9.049 -1.0307 -0.5267  0.2564
  476MOL0     H64202   6.870   4.825   9.146  0.3164 -0.1470  0.5253
  476MOL0     H64203   6.906   4.895   8.849  0.9747  0.6496  1.2036
  476MOL0     H64204   6.817   4.748   8.899 -1.4049 -0.0267 -1.1632
  476MOL0     H64205   6.638   4.887   9.011 -0.1944  1.5206 -0.2903
  476MOL0     H64206   6.702   5.031   8.963 -2.0127  0.7826 -0.5993
  476MOL0     H64207   6.531   5.002   8.807  0.5079  1.4354 -0.9990
  476MOL0     H64208   6.681   4.966   8.722  1.2411 -0.7628  0.8130
  476MOL0     H64209   6.518   4.735   8.836 -1.3245 -0.3203 -1.2061
  476MOL0     H64210   6.668   4.747   8.735 -0.2108 -0.4992 -0.7011
  476MOL0     H64211   6.295   4.850   8.707 -0.6384 -0.4250 -0.8628
  476MOL0     H64212   6.129   4.791   8.558 -0.3778 -0.3713 -0.2077
  476MOL0     H64213   6.163   4.883   8.418 -0.2093 -0.9966 -0.0067
  476MOL0     H64214   6.032   4.666   8.380  0.0351  1.0987  1.2253
  476MOL0     H64215   6.170   4.569   8.405  0.9797  0.0264 -0.6132
  476MOL0     H64216   6.268   4.619   8.214 -0.8454 -1.3620 -1.9632
  476MOL0     H64217   6.197   4.779   8.183 -1.7324 -0.2186 -2.7146
  476MOL0     H64218   6.049   4.523   8.166 -1.5304  0.5222  0.9147
  476MOL0     H64219   6.121   4.630   8.035  3.1105  1.1609  0.7160
  476MOL0     H64220   5.926   4.483   7.971 -0.2292 -0.1621  1.1918
  476MOL0     H64221   5.651   4.317   7.854  0.5904 -0.7089 -0.8534
  476MOL0     H64222   5.793   4.365   7.752  1.4298 -0.2579  0.9416
  476MOL0     H64223   5.805   4.292   7.903 -3.0307 -1.5993  1.4042
  476MOL0     H64224   5.214   4.478   8.062  0.1949 -2.4737  0.4280
  476MOL0     H64225   4.993   4.414   8.021  0.4274  0.3056  0.3575
  476MOL0     H64226   4.773   4.499   7.980 -0.7643  1.1990 -0.8794
  476MOL0     H64227   4.643   4.473   7.882 -0.1841  1.1200  1.7817
  476MOL0     H64228   4.819   4.242   7.965 -0.3828 -0.6501 -0.5053
  476MOL0     H64229   4.645   4.257   7.954  2.0023 -2.0864  1.0326
  476MOL0     H64230   4.828   4.239   7.711  0.1841  0.8448  0.1837
  476MOL0     H64231   4.655   4.267   7.705  1.5716  1.2155 -1.7087
  476MOL0     H64232   4.760   4.011   7.691  1.0341  2.8105 -0.1823
  476MOL0     H64233   4.769   4.019   7.866 -0.3446  2.3320  2.2278
  476MOL0     H64234   4.511   4.100   7.858 -4.9336 -0.3967 -1.7665
  476MOL0     H64235   4.548   3.928   7.825 -4.0161 -0.0410 -1.8853
  476MOL0     H64236   4.430   4.140   7.663  0.8728  1.4946  0.2046
  476MOL0     H64237   4.560   4.045   7.582 -1.7760  1.5031 -1.7273
  476MOL0     H64238   4.319   3.931   7.725  1.2616  2.6020 -0.3929
  476MOL0     H64239   4.452   3.842   7.631 -1.7975 -0.9862 -1.3680
  476MOL0     H64240   4.266   4.047   7.520 -0.3146 -0.2408  1.5742
  476MOL0     H64241   4.247   3.863   7.503  0.0433 -0.8225  1.0842
  476MOL0     H64242   5.008   4.552   7.624 -1.5670 -2.9708  0.3241
  476MOL0     H64243   5.242   4.628   7.653 -0.1761  0.6960 -0.8030
  476MOL0     H64244   5.522   4.751   8.024  0.7378  1.0575  2.1983
  476MOL0     H64245   5.734   4.832   8.116  2.6481  0.6489 -0.4661
  476MOL0     H64246   7.291   5.090   9.318 -0.2039 -0.3991 -1.1213
  476MOL0     H64247   7.542   5.034   9.365 -0.9470 -0.8426 -0.1614
  476MOL0     H64248   7.932   4.953   9.278 -2.1999  1.5999  0.9589
  476MOL0     H64249   8.159   4.905   9.332  0.0601  0.7509  1.5085
  476MOL0     H64250   8.446   5.206   9.210 -2.6553  0.2517  0.5777
  476MOL0     H64251   8.465   5.206   9.380  1.7903  0.5304 -0.3891
  476MOL0     H64252   8.556   4.988   9.205 -0.8473  1.8502 -1.3497
  476MOL0     H64253   8.594   5.014   9.385  1.3312 -0.1366 -0.2713
  476MOL0     H64254   8.752   5.189   9.325 -0.6556 -0.8127 -0.0377
  476MOL0     H64255   8.710   5.176   9.149  2.2278 -0.7073 -0.6226
  476MOL0     H64256   8.914   5.051   9.193  0.6982 -0.9789  1.9512
  476MOL0     H64257   8.784   4.943   9.154 -0.3533  1.7448 -2.0769
  476MOL0     H64258   8.917   4.791   9.520 -1.1695 -1.2447 -0.5153
  476MOL0     H64259   8.260   5.316   9.244 -0.1118 -0.0969 -0.9228
  476MOL0     H64260   8.034   5.376   9.233  1.4327  1.1996  0.9461
  477MOL0     O64261   7.855   7.975   6.902  0.5871 -0.0956  0.4882
  477MOL0     C64262   7.935   7.984   6.811  0.9539  0.2650  0.3571
  477MOL0     O64263   7.897   8.008   6.679 -0.1054 -0.0431 -0.6033
  477MOL0     C64264   7.761   8.051   6.665 -0.9013 -0.5435  0.3602
  477MOL0     C64265   7.693   8.001   6.556 -0.0454 -0.0356 -0.2058
  477MOL0     C64266   7.576   8.049   6.513  0.2602  0.4922  0.2055
  477MOL0     C64267   7.513   8.153   6.584  0.1079 -0.4472 -0.1339
  477MOL0     O64268   7.396   8.216   6.554 -0.6870  0.5365 -0.0275
  477MOL0     C64269   7.361   8.207   6.414 -0.3797  0.6643 -0.5501
  477MOL0     C64270   7.251   8.098   6.393 -1.1990  0.8145  0.4471
  477MOL0     C64271   7.112   8.147   6.450  0.1146  0.5049  0.2957
  477MOL0     C64272   6.998   8.037   6.440  0.0022 -0.3512 -0.0952
  477MOL0     C64273   6.853   8.097   6.421 -0.4540  1.0324  0.3075
  477MOL0     C64274   6.823   8.201   6.532 -0.2259 -0.0558  0.2048
  477MOL0     C64275   6.681   8.239   6.521  0.8099  0.0658  0.0537
  477MOL0     C64276   6.644   8.377   6.585 -0.0534 -0.0642 -0.2355
  477MOL0     N64277   6.506   8.422   6.570 -1.2101  0.0179  0.5978
  477MOL0     C64278   6.437   8.439   6.454 -0.3732 -0.3091  1.1799
  477MOL0     C64279   6.312   8.467   6.496  0.5085 -0.7221 -0.5977
  477MOL0     C64280   6.187   8.489   6.408 -0.1765  0.0980  0.1560
  477MOL0     C64281   6.046   8.515   6.485  0.2542 -0.2618  0.2007
  477MOL0     C64282   5.989   8.387   6.544 -0.1185 -0.4297 -0.3312
  477MOL0     C64283   5.874   8.421   6.642  0.5291  0.2271  1.4319
  477MOL0     O64284   5.756   8.453   6.559  0.2373 -0.0652  0.6182
  477MOL0     C64285   5.640   8.471   6.625  0.6331  0.1185  1.1277
  477MOL0     C64286   5.619   8.472   6.768 -0.0745  0.7940 -0.1871
  477MOL0     C64287   5.493   8.501   6.826  0.1299 -0.4326 -0.1202
  477MOL0     C64288   5.481   8.485   6.971 -0.5865 -0.1018 -0.1080
  477MOL0     C64289   5.388   8.558   6.748  0.3692 -0.2215  0.1227
  477MOL0     C64290   5.260   8.607   6.810  0.1620 -0.1885  0.5448
  477MOL0     O64291   5.267   8.671   6.930 -0.1730  0.7796 -0.1402
  477MOL0     C64292   5.154   8.687   7.017  0.0441  0.1110  0.8188
  477MOL0     C64293   5.124   8.606   7.135  0.9145  0.3002  0.1441
  477MOL0     C64294   4.992   8.613   7.195 -0.1742 -0.9943  0.0681
  477MOL0     C64295   4.896   8.703   7.149  0.6998  0.1761  0.1562
  477MOL0     O64296   4.764   8.714   7.199  0.3455  0.3774 -0.2296
  477MOL0     C64297   4.748   8.697   7.342  0.1296 -0.7407  0.0480
  477MOL0     C64298   4.617   8.763   7.394 -0.2846  0.3224  0.7001
  477MOL0     C64299   4.498   8.663   7.379  0.0362 -0.4472  0.8048
  477MOL0     C64300   4.383   8.700   7.478  0.3112  0.5339  0.0815
  477MOL0     C64301   4.265   8.596   7.455  1.1051 -0.6391  0.1654
  477MOL0     C64302   4.154   8.621   7.557 -0.1220 -0.3365 -0.5276
  477MOL0     C64303   4.005   8.578   7.509  0.0998  0.3474 -0.1321
  477MOL0     C64304   3.899   8.614   7.608  0.5918 -0.5761  0.0975
  477MOL0    Cl64305   3.897   8.790   7.664 -0.2709  0.0243 -0.0589
  477MOL0     C64306   4.932   8.787   7.036  0.3715  0.3138 -0.0413
  477MOL0     C64307   5.056   8.782   6.978 -0.3984 -0.5021 -0.8882
  477MOL0     O64308   5.153   8.569   6.756 -0.8122 -0.5802  0.6125
  477MOL0     C64309   5.409   8.552   6.609  0.0277 -0.4367  0.1936
  477MOL0     C64310   5.525   8.505   6.551 -0.0715 -0.8123 -0.0327
  477MOL0     N64311   6.311   8.469   6.637  0.0191 -0.1147 -0.2009
  477MOL0     N64312   6.425   8.427   6.677 -0.2068 -0.6945 -0.5214
  477MOL0     C64313   7.586   8.205   6.697 -0.2377  0.5527 -0.5661
  477MOL0     C64314   7.705   8.157   6.733 -0.4906  0.1060  0.0314
  477MOL0     C64315   8.085   7.973   6.837  0.8268  0.2532  0.1151
  477MOL0     C64316   8.132   7.949   6.964 -0.0316  1.2635 -0.2300
  477MOL0     C64317   8.266   7.929   6.983 -0.4702 -0.4465  0.7061
  477MOL0     C64318   8.363   7.942   6.875 -0.2630 -0.0642 -0.0572
  477MOL0     O64319   8.494   7.908   6.893 -0.0243 -0.3112 -0.1607
  477MOL0     C64320   8.600   7.980   6.829 -0.5786  0.0048 -0.3309
  477MOL0     C64321   8.684   8.041   6.933  0.0795 -0.1454 -0.2098
  477MOL0     C64322   8.830   8.036   6.886 -0.4347  0.2978  0.0687
  477MOL0     C64323   8.932   8.081   6.988  0.2450  0.0117 -0.8164
  477MOL0     C64324   8.899   8.195   7.071 -0.3212  0.2539 -0.0003
  477MOL0     C64325   8.879   8.292   7.137  0.4931  0.2752 -0.4505
  477MOL0     C64326   8.317   7.964   6.746 -0.0212  0.1842 -0.4172
  477MOL0     C64327   8.179   7.980   6.735  0.3631  0.4875 -0.9255
  477MOL0     H64328   7.738   7.925   6.492  2.7043  2.6987 -1.7959
  477MOL0     H64329   7.530   8.010   6.423 -1.8320 -0.7738  1.7257
  477MOL0     H64330   7.312   8.303   6.395 -4.4708 -0.8735  1.0002
  477MOL0     H64331   7.444   8.195   6.344  2.0243 -0.6132  2.2947
  477MOL0     H64332   7.234   8.066   6.290  3.0797 -0.3575 -0.0550
  477MOL0     H64333   7.298   8.015   6.446  3.0011  1.8135 -1.3560
  477MOL0     H64334   7.110   8.194   6.549  0.2475  2.1586 -0.4533
  477MOL0     H64335   7.073   8.227   6.388 -0.9472  0.0709  0.3802
  477MOL0     H64336   7.022   7.978   6.352  1.7550  0.4807 -0.2185
  477MOL0     H64337   7.011   7.975   6.529  0.5106 -0.8355 -0.5002
  477MOL0     H64338   6.844   8.140   6.321 -3.4022 -1.3025 -0.5797
  477MOL0     H64339   6.791   8.007   6.427  1.0595  0.0312  2.0818
  477MOL0     H64340   6.859   8.158   6.626  2.5439 -0.2552 -0.8633
  477MOL0     H64341   6.885   8.289   6.513 -2.2504  1.1736 -1.1413
  477MOL0     H64342   6.659   8.250   6.414 -1.8749 -0.4111  0.4844
  477MOL0     H64343   6.617   8.160   6.561 -1.0065  1.7005  0.5094
  477MOL0     H64344   6.707   8.455   6.542 -0.9106  1.0002  0.3928
  477MOL0     H64345   6.679   8.377   6.689 -0.1174  0.8224 -0.2018
  477MOL0     H64346   6.479   8.443   6.354 -1.5652  0.3611  0.6849
  477MOL0     H64347   6.209   8.584   6.358  1.9914 -1.7830 -2.8276
  477MOL0     H64348   6.180   8.405   6.339  1.0778  1.1843 -1.3571
  477MOL0     H64349   5.975   8.560   6.415 -0.1841 -0.3563  0.5805
  477MOL0     H64350   6.045   8.582   6.571 -2.6658 -1.7233  1.4463
  477MOL0     H64351   6.067   8.340   6.603  0.2838 -0.9661 -1.2721
  477MOL0     H64352   5.968   8.321   6.459  2.2152 -0.3323 -1.0563
  477MOL0     H64353   5.907   8.502   6.707 -0.5034  2.7368 -0.9561
  477MOL0     H64354   5.862   8.331   6.703  1.2620 -1.0708 -0.2388
  477MOL0     H64355   5.707   8.431   6.815 -0.2134 -1.6067 -1.8653
  477MOL0     H64356   5.558   8.424   7.019 -1.3338  0.0739  1.3570
  477MOL0     H64357   5.489   8.579   7.027  2.9798 -1.2685  1.6283
  477MOL0     H64358   5.392   8.432   7.006  0.1298  0.0400  2.1107
  477MOL0     H64359   5.206   8.541   7.165  1.5830  0.4111 -1.3580
  477MOL0     H64360   4.960   8.551   7.278  0.4800 -0.3733  0.8089
  477MOL0     H64361   4.744   8.588   7.353 -1.4373 -0.5036  2.3300
  477MOL0     H64362   4.834   8.738   7.395  0.1029 -1.7442  0.9024
  477MOL0     H64363   4.640   8.779   7.499 -1.5322  1.1259  0.8725
  477MOL0     H64364   4.603   8.855   7.336 -1.2889  1.4602  2.6556
  477MOL0     H64365   4.525   8.558   7.394 -1.2970 -0.8034  0.9110
  477MOL0     H64366   4.454   8.659   7.279 -2.1750 -3.0024  1.7222
  477MOL0     H64367   4.424   8.689   7.580  1.1897 -3.5105 -0.5265
  477MOL0     H64368   4.340   8.799   7.462  1.0556  0.9162  0.3713
  477MOL0     H64369   4.300   8.493   7.464  0.1187 -0.9521  0.5734
  477MOL0     H64370   4.218   8.602   7.356 -0.8840 -0.7787  1.0374
  477MOL0     H64371   4.177   8.573   7.652 -1.0564  0.0826 -0.0785
  477MOL0     H64372   4.146   8.724   7.591 -0.3011 -1.1851  2.2190
  477MOL0     H64373   4.010   8.470   7.491  1.7667 -0.3985  3.7190
  477MOL0     H64374   3.980   8.624   7.413  1.0646  0.0826 -0.5194
  477MOL0     H64375   3.912   8.550   7.696  0.3650 -1.1781 -0.3058
  477MOL0     H64376   3.803   8.592   7.560  1.7561 -0.5525 -2.3819
  477MOL0     H64377   4.851   8.851   7.002 -0.3413 -1.6252 -2.2145
  477MOL0     H64378   5.085   8.836   6.888 -0.3756 -0.9386 -1.1488
  477MOL0     H64379   5.325   8.580   6.547  2.1661  2.3231 -1.6677
  477MOL0     H64380   5.540   8.501   6.444  1.7106  0.3619  0.1416
  477MOL0     H64381   7.550   8.295   6.747  1.3737  0.7186  0.3827
  477MOL0     H64382   7.762   8.198   6.815  2.7918 -0.4604 -1.7673
  477MOL0     H64383   8.059   7.969   7.043 -3.5791 -1.1256 -2.6363
  477MOL0     H64384   8.308   7.914   7.082  0.3366 -0.8222  0.3184
  477MOL0     H64385   8.655   7.909   6.766  1.2004  0.0634  1.0618
  477MOL0     H64386   8.563   8.065   6.771  1.2096  1.8770  1.1414
  477MOL0     H64387   8.664   7.995   7.030  0.0453  0.4309  0.0622
  477MOL0     H64388   8.664   8.148   6.940 -0.5939 -0.2899  0.2448
  477MOL0     H64389   8.841   8.100   6.798 -1.6110  1.0963  0.4778
  477MOL0     H64390   8.854   7.935   6.852 -1.9774  0.1486 -0.6578
  477MOL0     H64391   9.022   8.108   6.933 -0.5013  3.3613 -0.5862
  477MOL0     H64392   8.951   7.988   7.043  2.2703  1.0981  0.4168
  477MOL0     H64393   8.857   8.384   7.188 -2.9958  0.6149 -2.2718
  477MOL0     H64394   8.380   7.961   6.658  0.3091  0.2934 -0.1879
  477MOL0     H64395   8.142   7.989   6.634  0.2676  0.7449 -0.8673
  478MOL0     O64396   3.234   6.811   6.822  0.0786 -0.8203  0.1063
  478MOL0     C64397   3.312   6.798   6.917 -0.1974  0.1430 -0.5496
  478MOL0     O64398   3.300   6.704   7.019  0.1499 -0.9077  0.2862
  478MOL0     C64399   3.198   6.613   7.002 -0.1098 -0.1671 -1.2372
  478MOL0     C64400   3.185   6.536   6.891  0.3939  0.2705 -0.5426
  478MOL0     C64401   3.076   6.455   6.874 -0.3990 -0.3408 -0.2604
  478MOL0     C64402   2.978   6.449   6.975  0.0955 -0.2474  0.0120
  478MOL0     O64403   2.885   6.351   6.984  0.4745 -0.1410 -0.1743
  478MOL0     C64404   2.851   6.258   6.878  0.4782 -0.4742  0.2947
  478MOL0     C64405   2.743   6.156   6.919  0.4611 -0.3858  0.4361
  478MOL0     C64406   2.637   6.222   7.005  1.0264  0.5827  0.7154
  478MOL0     C64407   2.521   6.129   7.051  0.4588 -0.0105 -0.5118
  478MOL0     C64408   2.464   6.164   7.195  0.0016  0.2839 -0.1946
  478MOL0     C64409   2.370   6.284   7.193 -0.6287  1.6853 -0.4618
  478MOL0     C64410   2.327   6.310   7.326  0.0006 -0.1274 -0.2033
  478MOL0     C64411   2.433   6.360   7.426 -0.5271  0.2735 -0.7474
  478MOL0     N64412   2.543   6.449   7.383  0.0446  0.8093 -0.8507
  478MOL0     C64413   2.530   6.587   7.370  1.0331  0.0217 -0.2017
  478MOL0     C64414   2.654   6.633   7.344  0.2310  0.3487  0.0497
  478MOL0     C64415   2.679   6.778   7.302 -0.7749  0.2763  0.1940
  478MOL0     C64416   2.802   6.831   7.369  0.0683 -0.1553 -0.3007
  478MOL0     C64417   2.847   6.963   7.300  0.4949  0.1028 -1.0247
  478MOL0     C64418   2.979   7.012   7.361 -0.5353 -0.6653  1.2474
  478MOL0     O64419   3.026   7.108   7.266  0.3897 -1.0245  0.5368
  478MOL0     C64420   3.142   7.168   7.301  0.1125  0.0313  0.2455
  478MOL0     C64421   3.257   7.131   7.234 -0.6694  0.0087 -0.4339
  478MOL0     C64422   3.379   7.205   7.254  0.5107 -0.2595 -0.0033
  478MOL0     C64423   3.482   7.173   7.155  0.3449  0.0776 -0.6845
  478MOL0     C64424   3.385   7.308   7.350  0.1779 -0.7959 -0.4359
  478MOL0     C64425   3.502   7.387   7.393  1.3983 -1.0782 -0.2521
  478MOL0     O64426   3.484   7.521   7.426 -0.2441 -1.3295 -0.0989
  478MOL0     C64427   3.590   7.592   7.468  0.1228  0.4528  0.0947
  478MOL0     C64428   3.688   7.634   7.381  0.5390  0.0142  0.4846
  478MOL0     C64429   3.801   7.702   7.423  0.1907  0.5026 -0.4329
  478MOL0     C64430   3.814   7.736   7.556 -0.2747 -0.7692 -0.3690
  478MOL0     O64431   3.932   7.790   7.598  0.0900  0.2581  0.5695
  478MOL0     C64432   4.039   7.696   7.588  0.8421 -0.6873  0.1420
  478MOL0     C64433   4.172   7.754   7.533  0.3825  0.4606 -0.6807
  478MOL0     C64434   4.270   7.638   7.502  0.3062  0.2118 -0.2867
  478MOL0     C64435   4.347   7.675   7.377  0.0952 -0.7182  0.4858
  478MOL0     C64436   4.431   7.559   7.318  0.6709 -0.0549  0.4254
  478MOL0     C64437   4.556   7.531   7.404 -0.2414  0.5886  0.1700
  478MOL0     C64438   4.622   7.410   7.334 -0.1141  0.5436 -0.0753
  478MOL0     C64439   4.743   7.369   7.425 -0.4277 -1.1617  0.3224
  478MOL0    Cl64440   4.864   7.265   7.336 -0.1147 -0.2851 -0.6860
  478MOL0     C64441   3.711   7.705   7.649  0.5725 -0.0833  0.2505
  478MOL0     C64442   3.602   7.636   7.599  0.6142  0.2904 -1.0753
  478MOL0     O64443   3.605   7.322   7.411  0.0082 -0.5912  0.0640
  478MOL0     C64444   3.266   7.341   7.421 -0.2620  0.6876  0.7829
  478MOL0     C64445   3.142   7.276   7.395  0.6804  0.3658  0.6010
  478MOL0     N64446   2.743   6.525   7.337  0.2678  0.1537  0.1440
  478MOL0     N64447   2.679   6.420   7.368  0.2962 -0.1201  0.2233
  478MOL0     C64448   2.989   6.530   7.093  1.1351  0.2243  1.0465
  478MOL0     C64449   3.098   6.615   7.099  0.4182  0.0516 -0.4646
  478MOL0     C64450   3.434   6.878   6.915 -0.3160  0.8681 -0.1358
  478MOL0     C64451   3.467   6.970   6.812  0.0184  0.4900  0.8630
  478MOL0     C64452   3.599   7.026   6.802  0.0429  0.5605  0.6307
  478MOL0     C64453   3.685   7.005   6.917 -1.2851 -0.5322 -0.5857
  478MOL0     O64454   3.806   7.066   6.925 -0.1866  0.3957  0.0495
  478MOL0     C64455   3.843   7.183   6.844  0.2942  1.3885  0.5662
  478MOL0     C64456   3.915   7.136   6.713 -1.3089  0.3471  0.0649
  478MOL0     C64457   4.061   7.089   6.731 -0.0936 -0.5770  0.5839
  478MOL0     C64458   4.086   6.955   6.810 -0.3128 -0.1876 -0.3263
  478MOL0     C64459   4.230   6.936   6.830 -0.1665 -0.0823 -0.5047
  478MOL0     C64460   4.346   6.905   6.843 -0.2363  0.3911 -0.5058
  478MOL0     C64461   3.651   6.919   7.027  0.2905 -0.0535  0.0779
  478MOL0     C64462   3.525   6.854   7.021 -0.5927 -0.2951 -0.4726
  478MOL0     H64463   3.264   6.548   6.817 -0.4269  0.2953 -1.4461
  478MOL0     H64464   3.057   6.391   6.787 -0.4697  0.0202 -0.5126
  478MOL0     H64465   2.818   6.310   6.788 -0.3717 -1.9365 -0.2769
  478MOL0     H64466   2.943   6.205   6.853 -0.8572 -1.7930 -2.2840
  478MOL0     H64467   2.704   6.109   6.828 -0.1588 -0.1690  0.5869
  478MOL0     H64468   2.796   6.079   6.977  0.3381 -0.1896  0.8095
  478MOL0     H64469   2.681   6.257   7.099  1.3504  0.2869  0.6737
  478MOL0     H64470   2.586   6.300   6.947 -1.2651 -0.6439  0.9639
  478MOL0     H64471   2.441   6.132   6.977  0.9788 -0.7961 -1.1230
  478MOL0     H64472   2.548   6.023   7.039  0.0852  0.1388 -3.5294
  478MOL0     H64473   2.407   6.075   7.223 -1.8359  0.8500 -1.8803
  478MOL0     H64474   2.544   6.187   7.265 -1.3961  3.4883  0.4951
  478MOL0     H64475   2.423   6.371   7.154 -0.1025  1.8394  0.5528
  478MOL0     H64476   2.290   6.266   7.120  1.6697  1.0319 -2.9840
  478MOL0     H64477   2.244   6.382   7.325 -1.2309 -1.4873 -0.2861
  478MOL0     H64478   2.276   6.221   7.365 -0.8906  0.3088 -0.3341
  478MOL0     H64479   2.474   6.270   7.473 -0.2626  0.1793 -1.1588
  478MOL0     H64480   2.389   6.402   7.517  0.9345 -1.7644  0.9944
  478MOL0     H64481   2.436   6.641   7.375 -1.0620 -3.2957 -0.3250
  478MOL0     H64482   2.680   6.784   7.192 -3.0029  1.9361  0.1910
  478MOL0     H64483   2.594   6.843   7.323  0.4760  2.4800 -1.0776
  478MOL0     H64484   2.879   6.753   7.369 -0.7636 -1.0233  1.1859
  478MOL0     H64485   2.783   6.853   7.475 -1.4061 -0.0064 -0.5770
  478MOL0     H64486   2.770   7.040   7.308 -0.7878 -1.0932 -1.5091
  478MOL0     H64487   2.875   6.935   7.198 -0.4943 -0.4010 -1.1623
  478MOL0     H64488   3.047   6.927   7.374 -0.8435 -0.9852  0.8099
  478MOL0     H64489   2.966   7.053   7.461  0.6289 -1.3891  1.7185
  478MOL0     H64490   3.247   7.055   7.158  1.1576  1.3217 -2.0760
  478MOL0     H64491   3.574   7.231   7.169  0.5352  0.1036 -1.9797
  478MOL0     H64492   3.517   7.069   7.157  0.5383  0.0809 -2.5658
  478MOL0     H64493   3.441   7.197   7.057 -2.1183 -2.7290 -0.5035
  478MOL0     H64494   3.667   7.616   7.277  0.0757 -1.1222  0.7623
  478MOL0     H64495   3.875   7.728   7.347 -1.4810  0.5113 -2.1145
  478MOL0     H64496   4.051   7.671   7.694 -2.8957 -1.7623  0.4593
  478MOL0     H64497   4.010   7.603   7.538 -0.5143 -0.3560  0.2867
  478MOL0     H64498   4.138   7.806   7.442  0.2038  1.5355 -0.0191
  478MOL0     H64499   4.216   7.833   7.595 -0.2739  1.1802 -1.1126
  478MOL0     H64500   4.215   7.545   7.481  1.6733 -0.5305 -0.7144
  478MOL0     H64501   4.339   7.623   7.586  1.6193 -0.0634 -1.3782
  478MOL0     H64502   4.284   7.709   7.294  1.0525  0.4053  0.1926
  478MOL0     H64503   4.416   7.758   7.390 -0.4959 -0.1247 -0.0832
  478MOL0     H64504   4.455   7.589   7.216 -5.1262  0.5028 -1.1269
  478MOL0     H64505   4.365   7.473   7.306 -0.4571  0.7591  0.6799
  478MOL0     H64506   4.624   7.616   7.406  1.1485 -0.4195 -1.6713
  478MOL0     H64507   4.536   7.503   7.508  0.2050 -1.6900 -0.2928
  478MOL0     H64508   4.652   7.443   7.234  0.5421  1.2603  0.3488
  478MOL0     H64509   4.554   7.325   7.328  0.7349 -0.1490 -0.0917
  478MOL0     H64510   4.711   7.325   7.520  0.1140  2.0570  2.1554
  478MOL0     H64511   4.802   7.458   7.450 -3.0952  0.7946  0.1837
  478MOL0     H64512   3.706   7.747   7.749  0.3741 -0.7082  0.5060
  478MOL0     H64513   3.522   7.601   7.663  2.6193 -0.6829  1.0686
  478MOL0     H64514   3.262   7.426   7.488  0.8979  0.1628  1.5512
  478MOL0     H64515   3.055   7.296   7.458 -0.3129  1.3309 -1.0145
  478MOL0     H64516   2.915   6.523   7.172 -0.7943  3.3822 -0.3104
  478MOL0     H64517   3.105   6.675   7.189  2.1876 -1.0000  0.1456
  478MOL0     H64518   3.393   6.977   6.733  0.9991 -0.6297 -0.1962
  478MOL0     H64519   3.633   7.072   6.710  0.5516 -2.9951 -1.1243
  478MOL0     H64520   3.756   7.241   6.813 -0.4701 -1.1246 -2.5613
  478MOL0     H64521   3.908   7.245   6.907  0.3420 -0.8524  2.9141
  478MOL0     H64522   3.902   7.215   6.638 -2.2381 -0.3171 -0.4967
  478MOL0     H64523   3.868   7.054   6.658  0.7711 -0.6638 -0.2857
  478MOL0     H64524   4.102   7.169   6.793 -1.4243 -1.0736  2.1643
  478MOL0     H64525   4.105   7.084   6.631  1.2355  1.7737  0.9584
  478MOL0     H64526   4.045   6.873   6.750 -2.2832  0.1878  0.4256
  478MOL0     H64527   4.044   6.964   6.911 -1.1429  0.5421 -0.7169
  478MOL0     H64528   4.449   6.878   6.852 -0.0840  0.8943 -0.6720
  478MOL0     H64529   3.721   6.918   7.110  2.6499  1.7954 -1.7504
  478MOL0     H64530   3.532   6.791   7.109  5.1726 -0.5458 -0.7417
  479MOL0     O64531   9.433   3.824   2.755 -0.0339 -0.0472  0.4295
  479MOL0     C64532   9.451   3.820   2.636 -0.0200  0.5787 -0.3317
  479MOL0     O64533   9.381   3.750   2.555 -0.0623 -0.7166 -0.0859
  479MOL0     C64534   9.269   3.685   2.584 -0.2783  0.4786  0.2291
  479MOL0     C64535   9.162   3.733   2.661  0.1164 -0.4067 -0.1391
  479MOL0     C64536   9.035   3.685   2.655 -0.5319 -0.1722 -0.6542
  479MOL0     C64537   9.007   3.582   2.573  1.0573  0.4860  0.2542
  479MOL0     O64538   8.881   3.524   2.559  1.1130  0.2438 -1.0504
  479MOL0     C64539   8.812   3.481   2.680 -0.1713 -0.6948 -0.1030
  479MOL0     C64540   8.683   3.402   2.633 -0.0265  0.0315  0.1731
  479MOL0     C64541   8.575   3.493   2.555 -0.8391  0.2762 -0.1829
  479MOL0     C64542   8.544   3.625   2.629 -0.3122  0.2548 -0.2417
  479MOL0     C64543   8.436   3.711   2.560  0.2250 -0.0105  0.3014
  479MOL0     C64544   8.404   3.841   2.638  0.7412 -0.5076 -0.3990
  479MOL0     C64545   8.325   3.816   2.759  0.5671  0.3886 -0.6997
  479MOL0     C64546   8.273   3.936   2.834 -0.4476 -0.3417 -0.6366
  479MOL0     N64547   8.218   3.884   2.957  0.1446  0.4669 -0.8541
  479MOL0     C64548   8.136   3.772   2.983  0.2230 -0.5836 -0.2443
  479MOL0     C64549   8.131   3.764   3.114  0.0332  0.3626  0.0372
  479MOL0     C64550   8.045   3.660   3.189 -0.2616  0.0855 -0.1359
  479MOL0     C64551   7.899   3.667   3.222 -0.2285  0.0852  0.0168
  479MOL0     C64552   7.854   3.786   3.295 -0.5165  0.4708  0.0372
  479MOL0     C64553   7.709   3.776   3.358  0.0333 -0.1944 -0.4016
  479MOL0     O64554   7.698   3.904   3.422 -0.1131 -0.0440 -0.6428
  479MOL0     C64555   7.573   3.962   3.407 -0.3687 -0.5852 -0.3216
  479MOL0     C64556   7.454   3.918   3.475 -0.4621 -0.1682 -0.3050
  479MOL0     C64557   7.331   3.976   3.447 -0.6121  0.0932 -0.0571
  479MOL0     C64558   7.217   3.905   3.512 -0.4118  0.1402  0.5821
  479MOL0     C64559   7.316   4.079   3.352 -0.0945  0.4831 -0.3121
  479MOL0     C64560   7.183   4.133   3.306  0.1742 -0.3134  0.1519
  479MOL0     O64561   7.072   4.091   3.365  0.1432 -0.1684 -0.4475
  479MOL0     C64562   6.945   4.125   3.322  0.2304 -0.7097  0.3407
  479MOL0     C64563   6.912   4.171   3.191  0.7671  0.1732  0.9043
  479MOL0     C64564   6.779   4.214   3.163 -0.8324 -0.7609 -0.1897
  479MOL0     C64565   6.684   4.213   3.258 -0.0356 -0.2396  0.1307
  479MOL0     O64566   6.556   4.255   3.221 -0.1820  0.7442 -0.0692
  479MOL0     C64567   6.445   4.185   3.278 -0.4763  0.5466  0.4822
  479MOL0     C64568   6.331   4.176   3.174  0.1533  0.1423  0.1863
  479MOL0     C64569   6.209   4.099   3.229 -0.5666  0.5509 -0.3763
  479MOL0     C64570   6.109   4.042   3.118 -0.4076 -0.7030 -0.2492
  479MOL0     C64571   6.052   4.151   3.022 -1.1965  0.0683 -0.1859
  479MOL0     C64572   5.942   4.088   2.944  0.9127  0.2490 -0.2538
  479MOL0     C64573   5.807   4.139   2.993 -0.6269 -0.1535 -0.0885
  479MOL0     C64574   5.700   4.032   2.968 -0.3596  0.1388  0.1226
  479MOL0    Cl64575   5.538   4.069   3.037 -0.3088 -0.3426  0.1722
  479MOL0     C64576   6.709   4.166   3.382  0.3042  0.7423  0.4019
  479MOL0     C64577   6.845   4.129   3.417  0.0487 -0.3799  0.4524
  479MOL0     O64578   7.193   4.223   3.216  0.3315  0.5097  0.3640
  479MOL0     C64579   7.443   4.125   3.290  0.8821 -0.7313  0.4620
  479MOL0     C64580   7.568   4.065   3.314  0.5420 -0.3798  0.3991
  479MOL0     N64581   8.220   3.846   3.168  1.0739 -0.6680 -0.1554
  479MOL0     N64582   8.269   3.926   3.076  0.1685  0.5721  0.1397
  479MOL0     C64583   9.116   3.523   2.504 -0.3091 -0.5366 -0.9561
  479MOL0     C64584   9.248   3.572   2.509 -0.6676  0.3210 -0.2656
  479MOL0     C64585   9.580   3.873   2.581  0.1572  0.1214 -0.1113
  479MOL0     C64586   9.608   3.878   2.439  0.4563 -0.7077 -0.2308
  479MOL0     C64587   9.735   3.915   2.397 -0.3889  0.3017 -0.3579
  479MOL0     C64588   9.842   3.945   2.476 -0.1843  0.4949 -0.3430
  479MOL0     O64589   9.961   3.981   2.416  0.3225  0.6646  0.1746
  479MOL0     C64590  10.065   4.032   2.492  0.4235 -0.0499 -0.3341
  479MOL0     C64591  10.157   4.100   2.399 -0.0557 -0.1719 -0.0766
  479MOL0     C64592  10.208   4.025   2.273 -0.4758 -0.1412 -0.6564
  479MOL0     C64593  10.305   4.117   2.195 -0.4730  1.4496  0.6089
  479MOL0     C64594  10.360   4.044   2.077 -0.7166  0.1885 -0.2201
  479MOL0     C64595  10.415   3.994   1.981 -0.2917  0.5291  0.0830
  479MOL0     C64596   9.820   3.944   2.616 -0.4083  0.4225  0.1146
  479MOL0     C64597   9.686   3.903   2.663 -0.6222 -0.3233  0.6483
  479MOL0     H64598   9.185   3.820   2.722 -0.4576 -0.4237  0.1010
  479MOL0     H64599   8.959   3.723   2.722  1.3220 -0.4565  1.7705
  479MOL0     H64600   8.873   3.406   2.730 -1.3600 -1.7137 -0.1037
  479MOL0     H64601   8.783   3.564   2.744  0.2087 -0.4261 -0.2785
  479MOL0     H64602   8.703   3.313   2.574 -0.8068  1.2832 -2.1108
  479MOL0     H64603   8.638   3.368   2.727 -0.7517 -3.8293 -1.3769
  479MOL0     H64604   8.606   3.528   2.455  0.6881  1.6070  0.7071
  479MOL0     H64605   8.476   3.447   2.548 -2.2389  2.8335  1.3377
  479MOL0     H64606   8.514   3.612   2.733  1.7575 -0.4327  0.3029
  479MOL0     H64607   8.638   3.679   2.640  0.0432 -0.5982  1.1547
  479MOL0     H64608   8.479   3.745   2.466  0.5040  1.2958  0.8819
  479MOL0     H64609   8.347   3.650   2.543  0.7206 -1.6669  2.9667
  479MOL0     H64610   8.497   3.895   2.658  0.2528  1.2575 -2.4684
  479MOL0     H64611   8.350   3.904   2.566  1.3853 -0.8937 -1.2359
  479MOL0     H64612   8.236   3.754   2.745  0.7109 -0.1971  0.7919
  479MOL0     H64613   8.385   3.757   2.828 -1.1071  0.9673  1.3707
  479MOL0     H64614   8.197   3.989   2.775 -0.7171 -0.9862 -0.8813
  479MOL0     H64615   8.352   4.008   2.857 -2.0369  0.5899  2.6159
  479MOL0     H64616   8.078   3.714   2.912  0.1487 -1.9577  0.9179
  479MOL0     H64617   8.058   3.570   3.128 -0.3962  0.4411 -0.6975
  479MOL0     H64618   8.100   3.652   3.284 -1.4896  1.0180  0.6826
  479MOL0     H64619   7.886   3.574   3.278 -0.3135 -1.7424 -2.8489
  479MOL0     H64620   7.842   3.663   3.128 -0.7633 -3.1284  0.3770
  479MOL0     H64621   7.854   3.868   3.222  3.1240 -0.6688 -1.4567
  479MOL0     H64622   7.922   3.815   3.375  0.6050 -1.9602  0.0245
  479MOL0     H64623   7.698   3.704   3.440  1.9098  1.5333  1.5140
  479MOL0     H64624   7.633   3.761   3.281 -1.2323  1.2668  0.5058
  479MOL0     H64625   7.468   3.839   3.548 -0.1337 -1.8524 -2.1110
  479MOL0     H64626   7.227   3.807   3.561 -0.4678  1.3101  3.1144
  479MOL0     H64627   7.154   3.970   3.573 -3.9554 -1.4023 -1.1274
  479MOL0     H64628   7.142   3.895   3.433 -1.2379  3.1481  0.8786
  479MOL0     H64629   6.984   4.163   3.111  1.2318 -0.4853  1.3797
  479MOL0     H64630   6.760   4.255   3.064  1.2172  1.2448  0.1607
  479MOL0     H64631   6.474   4.088   3.320 -1.4966  0.2496  0.5141
  479MOL0     H64632   6.405   4.250   3.356 -1.6870  1.4542 -0.8421
  479MOL0     H64633   6.295   4.275   3.144 -0.9903 -0.2359  0.2519
  479MOL0     H64634   6.368   4.122   3.086  1.8328  0.6517  0.5449
  479MOL0     H64635   6.159   4.167   3.299 -0.3521  0.7811 -0.4491
  479MOL0     H64636   6.244   4.014   3.289 -0.6564 -0.2983 -1.4936
  479MOL0     H64637   6.158   3.967   3.055  1.3331 -0.0901  0.2981
  479MOL0     H64638   6.028   3.999   3.178 -0.3844  2.2535  2.1405
  479MOL0     H64639   6.119   4.186   2.943  0.0722 -0.9973  0.3702
  479MOL0     H64640   6.020   4.238   3.080 -0.2649 -0.9994  2.0421
  479MOL0     H64641   5.936   4.109   2.837  0.4538  1.0023 -0.0852
  479MOL0     H64642   5.963   3.981   2.954  0.9377  0.0523 -2.1381
  479MOL0     H64643   5.786   4.236   2.946  1.2000 -0.6930 -2.2146
  479MOL0     H64644   5.810   4.156   3.101 -1.3800 -0.2453 -0.0485
  479MOL0     H64645   5.723   3.937   3.017 -3.2223  1.0914  3.8025
  479MOL0     H64646   5.691   4.026   2.859 -0.7288  1.0250  0.0992
  479MOL0     H64647   6.638   4.172   3.463  0.9077 -0.5290  1.0579
  479MOL0     H64648   6.876   4.097   3.515  0.0347 -0.1097  0.5469
  479MOL0     H64649   7.434   4.215   3.229 -0.3768 -0.0474  1.5758
  479MOL0     H64650   7.659   4.086   3.258 -0.0143 -2.6761 -1.4972
  479MOL0     H64651   9.092   3.444   2.433  0.1532  0.0458 -1.7685
  479MOL0     H64652   9.321   3.535   2.437  0.7079 -1.9044  2.1165
  479MOL0     H64653   9.529   3.869   2.365 -0.2755 -0.9361  0.5715
  479MOL0     H64654   9.754   3.924   2.290 -0.7212  0.3610 -0.4142
  479MOL0     H64655  10.029   4.104   2.566  1.0590  1.0955 -1.1095
  479MOL0     H64656  10.099   3.939   2.539 -0.8658 -0.2902  0.1619
  479MOL0     H64657  10.246   4.126   2.458  0.0100 -2.4076  0.9058
  479MOL0     H64658  10.100   4.185   2.360 -0.1788 -0.8148 -1.3416
  479MOL0     H64659  10.129   4.010   2.199  0.1483 -0.3573 -1.2924
  479MOL0     H64660  10.265   3.939   2.309 -0.3958 -0.3641 -1.3097
  479MOL0     H64661  10.383   4.160   2.258 -0.7234  0.9317  1.2930
  479MOL0     H64662  10.253   4.199   2.144 -0.8831  0.2056 -1.0555
  479MOL0     H64663  10.463   3.941   1.901  2.0929  2.7709 -0.1036
  479MOL0     H64664   9.904   3.956   2.684 -1.9454 -1.6908  2.5830
  479MOL0     H64665   9.668   3.890   2.769  0.4495  1.4415  1.0772
  480MOL0     O64666   8.832   3.118  11.116  0.1580 -0.8497 -0.1505
  480MOL0     C64667   8.876   3.127  11.006  1.3468  0.9734  0.9418
  480MOL0     O64668   8.808   3.179  10.903 -0.4343  0.4813  0.8387
  480MOL0     C64669   8.691   3.239  10.915  0.5628 -0.3630  0.4245
  480MOL0     C64670   8.683   3.377  10.890 -0.0175  0.1727 -0.0144
  480MOL0     C64671   8.567   3.446  10.895 -0.0688 -0.4381 -0.0943
  480MOL0     C64672   8.448   3.379  10.925  0.5305  0.2043  0.0974
  480MOL0     O64673   8.316   3.427  10.942  0.1440  0.4647  0.2403
  480MOL0     C64674   8.308   3.548  11.022  0.1470  0.0295 -0.1802
  480MOL0     C64675   8.164   3.602  11.007  0.5400 -0.3609 -0.4563
  480MOL0     C64676   8.139   3.720  11.107 -0.5584 -0.8645 -0.4628
  480MOL0     C64677   7.998   3.776  11.087  0.5084  0.0628  0.0896
  480MOL0     C64678   7.949   3.882  11.181 -0.0096  0.2170 -0.2888
  480MOL0     C64679   7.800   3.921  11.149 -0.3289 -0.4107 -0.1921
  480MOL0     C64680   7.749   4.030  11.247  0.4845 -0.6593  0.5597
  480MOL0     C64681   7.801   4.170  11.200 -0.6277  0.0311  0.4057
  480MOL0     N64682   7.721   4.276  11.253  0.4856  0.1633 -0.2463
  480MOL0     C64683   7.627   4.339  11.172 -0.2387 -0.6281 -0.5821
  480MOL0     C64684   7.589   4.448  11.259 -0.2255  0.0813  0.9257
  480MOL0     C64685   7.487   4.549  11.238  0.0766  0.0541 -0.3001
  480MOL0     C64686   7.545   4.688  11.229  0.4323  0.1250 -0.2915
  480MOL0     C64687   7.439   4.794  11.225  0.1535 -0.5696  0.1573
  480MOL0     C64688   7.374   4.823  11.079  0.3585  0.4999  0.6676
  480MOL0     O64689   7.327   4.705  11.013  0.0470  0.1571  0.2632
  480MOL0     C64690   7.196   4.669  10.992  0.4895  0.3396 -0.6209
  480MOL0     C64691   7.087   4.720  11.066  0.0130  0.0178 -0.0801
  480MOL0     C64692   6.957   4.665  11.057 -1.0261 -0.0119  0.4901
  480MOL0     C64693   6.851   4.718  11.151 -0.2376 -0.1864 -0.3529
  480MOL0     C64694   6.939   4.556  10.968  0.0471 -0.4026 -0.0783
  480MOL0     C64695   6.796   4.506  10.937 -0.5641 -0.5469 -0.0653
  480MOL0     O64696   6.714   4.604  10.894  0.4412  0.2780  0.1465
  480MOL0     C64697   6.593   4.580  10.831  0.0422  1.1669 -1.0742
  480MOL0     C64698   6.492   4.512  10.897  0.7470 -0.0444 -0.5320
  480MOL0     C64699   6.370   4.495  10.830  1.0969 -0.4023  0.1100
  480MOL0     C64700   6.348   4.530  10.695  0.2262  1.2666 -0.1103
  480MOL0     O64701   6.223   4.500  10.643  0.1726 -1.0205  0.8925
  480MOL0     C64702   6.212   4.464  10.504  0.5934 -0.3833 -0.0656
  480MOL0     C64703   6.067   4.443  10.482 -0.1196  0.3672 -0.1397
  480MOL0     C64704   6.040   4.405  10.340 -0.4590  0.5780 -0.0601
  480MOL0     C64705   5.896   4.438  10.309 -0.0755  0.3365  0.1629
  480MOL0     C64706   5.879   4.389  10.167 -0.6501 -0.0331 -0.1448
  480MOL0     C64707   5.729   4.401  10.134  0.1961 -0.2810 -0.8735
  480MOL0     C64708   5.694   4.340  10.004 -0.8406  0.3965 -0.0335
  480MOL0     C64709   5.549   4.324   9.981 -0.0040 -0.8317 -0.1776
  480MOL0    Cl64710   5.473   4.211  10.108 -0.4017 -0.0013  0.0663
  480MOL0     C64711   6.461   4.586  10.635  1.0190  0.1052  1.4456
  480MOL0     C64712   6.581   4.619  10.700  0.2595  0.2268  0.5269
  480MOL0     O64713   6.776   4.384  10.943 -0.1573 -0.0506  0.0570
  480MOL0     C64714   7.055   4.490  10.914  0.3148 -0.7951  0.7852
  480MOL0     C64715   7.175   4.551  10.918 -0.0286 -1.2426 -0.0708
  480MOL0     N64716   7.666   4.460  11.369 -0.2471  0.5628  0.2601
  480MOL0     N64717   7.734   4.345  11.373  0.0313 -0.3458  0.6491
  480MOL0     C64718   8.454   3.244  10.946  0.4271  0.3653  0.1561
  480MOL0     C64719   8.571   3.173  10.948  0.4240 -0.4562 -0.5588
  480MOL0     C64720   9.016   3.086  10.981  0.3831  0.4464  0.7166
  480MOL0     C64721   9.069   3.063  10.856  0.1575 -0.1066 -0.0753
  480MOL0     C64722   9.204   3.027  10.847 -0.6962  0.0991 -0.1560
  480MOL0     C64723   9.289   3.013  10.964  0.3187 -0.0829  0.3371
  480MOL0     O64724   9.425   2.990  10.953 -0.1731  0.2212 -0.4071
  480MOL0     C64725   9.507   2.964  11.059 -0.9509  0.4745  0.3601
  480MOL0     C64726   9.652   2.960  10.986  0.0309  0.6172  0.1799
  480MOL0     C64727   9.674   2.815  10.924  0.6256  0.9027  0.3026
  480MOL0     C64728   9.719   2.707  11.028  0.2331 -0.5058 -0.2902
  480MOL0     C64729   9.725   2.568  10.979 -0.0942 -1.0488 -0.0812
  480MOL0     C64730   9.736   2.463  10.917  0.1907 -0.1443  0.8060
  480MOL0     C64731   9.228   3.037  11.090 -0.7024 -0.7187  0.1986
  480MOL0     C64732   9.097   3.074  11.099  0.9906 -0.3388 -0.6979
  480MOL0     H64733   8.778   3.422  10.861 -0.2630  0.2790 -0.6519
  480MOL0     H64734   8.569   3.550  10.864 -1.5057 -0.4312 -0.2365
  480MOL0     H64735   8.324   3.524  11.128  0.2796 -2.6995 -0.7611
  480MOL0     H64736   8.385   3.621  10.995 -0.6087  0.2927 -1.7428
  480MOL0     H64737   8.149   3.639  10.905  1.2322  1.2872  0.0051
  480MOL0     H64738   8.099   3.518  11.032  0.6198  0.1403  1.5980
  480MOL0     H64739   8.138   3.697  11.214  1.3154  4.4754  0.9955
  480MOL0     H64740   8.212   3.798  11.087 -1.7260  0.4911  0.3580
  480MOL0     H64741   8.006   3.818  10.986  3.1636  1.6912  0.8887
  480MOL0     H64742   7.928   3.692  11.098 -0.4291  0.6993 -0.8003
  480MOL0     H64743   7.958   3.844  11.283 -0.3491  1.1657  0.1075
  480MOL0     H64744   8.008   3.974  11.175 -0.5062  0.6616  1.3421
  480MOL0     H64745   7.802   3.957  11.045  4.0663 -1.1055 -0.5491
  480MOL0     H64746   7.742   3.832  11.172  1.2727 -1.2703  0.6590
  480MOL0     H64747   7.639   4.026  11.241  0.5533 -0.3536 -1.5217
  480MOL0     H64748   7.781   4.009  11.350  0.2791  1.2268  1.0509
  480MOL0     H64749   7.801   4.170  11.091 -3.1865  0.6744  0.3312
  480MOL0     H64750   7.903   4.186  11.236 -0.6338  0.4001  0.2607
  480MOL0     H64751   7.591   4.311  11.074  3.1215 -0.1327 -2.0704
  480MOL0     H64752   7.435   4.523  11.145  2.4125  0.9241 -1.9391
  480MOL0     H64753   7.419   4.534  11.323  2.5835 -0.1091  1.8296
  480MOL0     H64754   7.612   4.691  11.143  0.5445 -1.3402 -0.2802
  480MOL0     H64755   7.600   4.709  11.322 -0.2225 -1.0728  0.3906
  480MOL0     H64756   7.478   4.888  11.266  1.8079  0.0144 -2.4737
  480MOL0     H64757   7.362   4.776  11.301  0.6233  0.3468  0.8691
  480MOL0     H64758   7.455   4.851  11.010  0.0894 -0.9756 -0.2746
  480MOL0     H64759   7.309   4.911  11.088  2.3823  2.1187  0.1792
  480MOL0     H64760   7.103   4.804  11.132  0.2204  0.9167 -1.2331
  480MOL0     H64761   6.853   4.825  11.174 -2.5175 -0.5204  1.9076
  480MOL0     H64762   6.751   4.678  11.132  0.2770 -1.3909 -0.6249
  480MOL0     H64763   6.879   4.695  11.254  1.6754  2.3770 -0.1833
  480MOL0     H64764   6.504   4.455  10.989 -1.2146  2.8131  1.6759
  480MOL0     H64765   6.279   4.447  10.864 -1.1398  2.3797 -1.5576
  480MOL0     H64766   6.233   4.537  10.426 -1.2373 -1.7788 -1.9510
  480MOL0     H64767   6.272   4.374  10.484  2.2758  0.9548 -1.2812
  480MOL0     H64768   6.015   4.380  10.556 -1.0196  2.5105  1.1439
  480MOL0     H64769   6.028   4.543  10.503  3.1067  2.1827 -2.0099
  480MOL0     H64770   6.058   4.299  10.318  0.7264  0.5302  1.0567
  480MOL0     H64771   6.105   4.459  10.271 -0.3047 -0.2252 -0.5636
  480MOL0     H64772   5.843   4.373  10.379  1.4052  0.6170  1.6265
  480MOL0     H64773   5.867   4.543  10.324  0.1522  1.2588 -4.3339
  480MOL0     H64774   5.897   4.282  10.155 -2.1855 -0.0338 -3.9903
  480MOL0     H64775   5.940   4.450  10.100  0.5543 -1.1914 -0.1314
  480MOL0     H64776   5.672   4.346  10.210 -2.5559  3.5587  0.1658
  480MOL0     H64777   5.705   4.507  10.147 -0.1325 -0.7043  3.4575
  480MOL0     H64778   5.733   4.238   9.993 -1.1556  0.0992  1.4274
  480MOL0     H64779   5.739   4.400   9.924  0.0638  0.3254  0.4012
  480MOL0     H64780   5.534   4.276   9.883  0.6955  0.2603 -0.8443
  480MOL0     H64781   5.500   4.422   9.988  2.8134  0.5328  3.8021
  480MOL0     H64782   6.454   4.615  10.531 -0.2111 -0.8727  1.2296
  480MOL0     H64783   6.673   4.656  10.656  0.5654 -3.1921 -2.0801
  480MOL0     H64784   7.037   4.403  10.852  0.4353 -1.6647  1.9347
  480MOL0     H64785   7.262   4.505  10.872  2.3528  0.8588  1.9785
  480MOL0     H64786   8.359   3.195  10.968  1.2530 -0.4472  2.1823
  480MOL0     H64787   8.570   3.068  10.975 -3.5182 -0.2116  0.7694
  480MOL0     H64788   9.005   3.089  10.773  0.0532  1.9947  0.5738
  480MOL0     H64789   9.248   3.008  10.749  0.3218 -1.3538  0.5544
  480MOL0     H64790   9.500   3.048  11.130 -2.0542  0.4293  0.3227
  480MOL0     H64791   9.478   2.870  11.106 -0.7220  0.7440  1.0581
  480MOL0     H64792   9.724   2.966  11.068  1.1094  0.6551 -0.7494
  480MOL0     H64793   9.668   3.036  10.908  0.5478 -0.7850 -1.1244
  480MOL0     H64794   9.750   2.812  10.846  0.1008 -0.5858 -0.1910
  480MOL0     H64795   9.581   2.782  10.877  0.1396 -1.8893  2.9061
  480MOL0     H64796   9.655   2.713  11.117  1.3449  1.8242  0.4228
  480MOL0     H64797   9.816   2.736  11.068  0.9444 -1.2229 -1.4282
  480MOL0     H64798   9.744   2.373  10.859  1.1940  0.0648  0.6010
  480MOL0     H64799   9.286   3.035  11.181  2.3657  1.5273 -1.5036
  480MOL0     H64800   9.045   3.094  11.193 -1.3031  1.3596 -2.2159
  481MOL0     O64801   3.390   8.277   2.797  0.6222  0.4357  0.0624
  481MOL0     C64802   3.447   8.386   2.782 -0.4876  0.3011  0.2447
  481MOL0     O64803   3.390   8.504   2.812 -0.2237  0.2346  0.1767
  481MOL0     C64804   3.256   8.509   2.838  0.6129 -0.0267 -0.2545
  481MOL0     C64805   3.214   8.578   2.952  0.1671 -0.0226 -1.2041
  481MOL0     C64806   3.079   8.579   2.978 -0.2583  0.5400  0.0497
  481MOL0     C64807   2.980   8.527   2.896  0.5027 -0.0071  0.6825
  481MOL0     O64808   2.841   8.529   2.912  0.3293  0.0038 -0.4311
  481MOL0     C64809   2.799   8.546   3.050  0.6832  0.3942 -0.4307
  481MOL0     C64810   2.639   8.533   3.062  0.8884 -0.3586  0.3254
  481MOL0     C64811   2.592   8.385   3.031  0.3793 -0.6107  0.0377
  481MOL0     C64812   2.439   8.367   3.039 -0.5233  0.7629  0.2266
  481MOL0     C64813   2.386   8.231   3.003  0.3231 -1.0924 -0.5330
  481MOL0     C64814   2.412   8.175   2.863  0.1235  0.2284 -0.3162
  481MOL0     C64815   2.358   8.251   2.744  0.8420 -0.3689  0.5645
  481MOL0     C64816   2.214   8.209   2.715  0.5312  0.5095  0.4710
  481MOL0     N64817   2.157   8.283   2.605 -0.6228  0.3923  0.9926
  481MOL0     C64818   2.214   8.297   2.481  0.2776  0.6118  0.1781
  481MOL0     C64819   2.118   8.351   2.407  0.6326 -0.1746  0.1342
  481MOL0     C64820   2.134   8.422   2.265  0.3649  0.6037 -0.4300
  481MOL0     C64821   2.254   8.511   2.252  0.1969 -0.2343  0.4743
  481MOL0     C64822   2.271   8.556   2.108  0.4397  0.0895 -0.0701
  481MOL0     C64823   2.397   8.637   2.089 -0.5749  0.1543  0.2940
  481MOL0     O64824   2.500   8.536   2.093  0.4241 -0.0842 -0.1487
  481MOL0     C64825   2.633   8.561   2.087  0.1184 -0.0067 -0.2320
  481MOL0     C64826   2.724   8.453   2.097 -0.0759 -0.3441 -0.1118
  481MOL0     C64827   2.866   8.468   2.087  0.4355 -0.1788 -0.2401
  481MOL0     C64828   2.947   8.343   2.097  0.1243  0.1311 -0.1607
  481MOL0     C64829   2.924   8.595   2.071 -0.5380 -1.1045  0.6210
  481MOL0     C64830   3.071   8.624   2.035  0.7526 -0.4123  0.4193
  481MOL0     O64831   3.162   8.522   2.038  0.7699  0.6198 -0.0808
  481MOL0     C64832   3.293   8.537   2.004  0.1602  1.1921 -0.2553
  481MOL0     C64833   3.374   8.642   2.054  0.6370 -0.2086  0.0566
  481MOL0     C64834   3.513   8.659   2.024 -0.0282  0.3308 -0.6147
  481MOL0     C64835   3.574   8.567   1.940  0.0692 -0.6067  0.4657
  481MOL0     O64836   3.711   8.587   1.923 -0.3664  0.0048 -0.5007
  481MOL0     C64837   3.769   8.534   1.809 -0.2533 -0.7904  0.0364
  481MOL0     C64838   3.906   8.588   1.806  0.1085 -0.5304  0.4893
  481MOL0     C64839   3.996   8.488   1.733 -0.1853  0.5234 -0.0877
  481MOL0     C64840   4.129   8.556   1.708 -0.5299  0.3454 -0.2010
  481MOL0     C64841   4.244   8.480   1.788  0.2732 -0.0218  0.8951
  481MOL0     C64842   4.380   8.543   1.774 -0.2232  0.3795 -0.1414
  481MOL0     C64843   4.454   8.492   1.655  0.6650  0.0336 -1.1961
  481MOL0     C64844   4.582   8.556   1.656 -0.0798  0.9733 -0.3513
  481MOL0    Cl64845   4.674   8.479   1.793  0.3894 -0.5303  0.5890
  481MOL0     C64846   3.496   8.466   1.897  0.0629  0.7609  0.1923
  481MOL0     C64847   3.352   8.450   1.920 -0.2558  0.1921 -0.5926
  481MOL0     O64848   3.091   8.745   2.001 -0.2220  0.3455 -0.1153
  481MOL0     C64849   2.830   8.701   2.063  0.1657  0.1752  0.0492
  481MOL0     C64850   2.690   8.689   2.068 -0.3769 -0.3068  0.7149
  481MOL0     N64851   2.012   8.385   2.493 -0.4202 -0.8353  0.4739
  481MOL0     N64852   2.041   8.341   2.607 -0.2285 -0.6548 -0.3244
  481MOL0     C64853   3.016   8.469   2.770  0.3197 -0.3795  0.4988
  481MOL0     C64854   3.162   8.458   2.749  0.3021 -0.1012  0.4415
  481MOL0     C64855   3.592   8.401   2.738  0.0279 -0.2675  0.4547
  481MOL0     C64856   3.657   8.523   2.754  0.1739 -0.3056  0.0456
  481MOL0     C64857   3.792   8.522   2.720 -0.6300 -0.1262  0.0811
  481MOL0     C64858   3.862   8.413   2.673  1.2804  0.9137  0.6057
  481MOL0     O64859   3.997   8.430   2.639 -0.2558  0.4122  0.4438
  481MOL0     C64860   4.072   8.324   2.584 -0.7133  0.5038 -0.2692
  481MOL0     C64861   4.204   8.372   2.555 -0.7236  0.4952  0.6690
  481MOL0     C64862   4.292   8.370   2.684  0.7243 -0.4857  0.3800
  481MOL0     C64863   4.445   8.398   2.657  0.3346  0.3719 -0.5917
  481MOL0     C64864   4.519   8.401   2.786 -1.1736  0.7382 -0.0752
  481MOL0     C64865   4.579   8.415   2.894  0.6240  0.1717  0.6724
  481MOL0     C64866   3.787   8.296   2.649  0.2957 -0.4029 -0.1189
  481MOL0     C64867   3.651   8.292   2.683 -0.2717 -0.9190  0.4650
  481MOL0     H64868   3.289   8.596   3.028 -1.2165  0.3807  0.1058
  481MOL0     H64869   3.055   8.632   3.070 -2.9559  0.7301 -0.6792
  481MOL0     H64870   2.853   8.476   3.114 -0.4861 -0.9411 -0.8498
  481MOL0     H64871   2.825   8.647   3.084  2.2710  0.1371 -0.8330
  481MOL0     H64872   2.609   8.547   3.166  1.6201 -0.6316  0.5804
  481MOL0     H64873   2.585   8.606   3.002  1.1411  1.3043  2.0414
  481MOL0     H64874   2.607   8.350   2.928 -0.9429 -2.1108  0.3199
  481MOL0     H64875   2.643   8.310   3.091  2.3453  1.2944  0.8661
  481MOL0     H64876   2.405   8.399   3.138 -0.3937 -1.5307  1.0740
  481MOL0     H64877   2.393   8.439   2.971  0.3058  0.8740 -0.2248
  481MOL0     H64878   2.422   8.162   3.081  1.6499  0.7110  0.5315
  481MOL0     H64879   2.277   8.233   3.013  0.4271  0.5829  0.5162
  481MOL0     H64880   2.518   8.160   2.841 -0.1362  0.4386 -1.8709
  481MOL0     H64881   2.371   8.074   2.856  0.8222 -0.1584  0.9482
  481MOL0     H64882   2.384   8.356   2.759  2.1178 -0.6467  0.3595
  481MOL0     H64883   2.416   8.216   2.658 -1.1648 -2.9302  0.1234
  481MOL0     H64884   2.153   8.224   2.805  0.3486 -3.1533  1.1106
  481MOL0     H64885   2.205   8.102   2.694 -0.7887  1.0159 -1.9097
  481MOL0     H64886   2.306   8.255   2.443 -0.0379 -1.1802  1.2653
  481MOL0     H64887   2.128   8.339   2.194 -2.3100  0.3394  0.0021
  481MOL0     H64888   2.045   8.484   2.257  0.3613  0.5905 -0.4936
  481MOL0     H64889   2.344   8.458   2.284  1.4704  1.6688  0.2409
  481MOL0     H64890   2.230   8.602   2.307 -3.0422  0.8419 -2.3633
  481MOL0     H64891   2.189   8.625   2.088  1.8117  1.3248 -1.7417
  481MOL0     H64892   2.267   8.475   2.034  2.4027  1.5524 -1.9145
  481MOL0     H64893   2.411   8.703   2.175  3.6439  0.7391 -0.6590
  481MOL0     H64894   2.392   8.688   1.993  0.9244  1.3787  0.8446
  481MOL0     H64895   2.695   8.351   2.123 -0.5539 -0.1350  0.1953
  481MOL0     H64896   3.025   8.362   2.172 -0.4398 -0.0705  0.4907
  481MOL0     H64897   2.887   8.252   2.108  1.3829 -1.1161 -2.6856
  481MOL0     H64898   2.995   8.318   2.002  0.5676  1.4851 -0.3104
  481MOL0     H64899   3.337   8.704   2.134  3.2904 -0.1072  1.3037
  481MOL0     H64900   3.581   8.726   2.075  1.1016 -1.5234  0.4383
  481MOL0     H64901   3.762   8.426   1.826 -0.2925 -0.7458  0.3049
  481MOL0     H64902   3.707   8.557   1.722 -2.4045 -1.6646  1.2582
  481MOL0     H64903   3.906   8.688   1.762 -2.4775  0.3191  2.2194
  481MOL0     H64904   3.929   8.601   1.911 -2.4161  0.0762  1.0409
  481MOL0     H64905   3.956   8.457   1.637 -0.0811 -0.3491  0.1448
  481MOL0     H64906   4.014   8.397   1.791  1.5947 -0.5326 -2.1912
  481MOL0     H64907   4.147   8.548   1.600  1.7284  1.8586  0.0044
  481MOL0     H64908   4.124   8.663   1.732  0.3222  0.1862  0.7321
  481MOL0     H64909   4.258   8.383   1.740  3.7176  0.2030  1.2096
  481MOL0     H64910   4.221   8.480   1.895  3.1144  2.1079  1.6347
  481MOL0     H64911   4.382   8.651   1.758  0.4706  0.4328  0.2512
  481MOL0     H64912   4.429   8.536   1.872 -0.9341 -1.5070  0.1263
  481MOL0     H64913   4.396   8.518   1.566 -0.0523  0.2052 -0.6940
  481MOL0     H64914   4.470   8.384   1.663  1.9046  0.3059  0.2815
  481MOL0     H64915   4.573   8.665   1.664  0.0642  0.9705 -0.1591
  481MOL0     H64916   4.643   8.540   1.566 -0.2445 -0.9241 -0.1492
  481MOL0     H64917   3.551   8.391   1.842  0.9890  0.0878  1.9311
  481MOL0     H64918   3.297   8.379   1.859 -0.8423  0.2796 -0.1737
  481MOL0     H64919   2.870   8.799   2.042  1.6570 -0.7942 -1.9164
  481MOL0     H64920   2.639   8.783   2.050  1.1755  0.2172 -1.4113
  481MOL0     H64921   2.952   8.446   2.686  1.1315  0.5571 -0.4056
  481MOL0     H64922   3.197   8.421   2.653 -4.2267 -0.8626 -1.1790
  481MOL0     H64923   3.605   8.611   2.787 -0.4796 -0.3872 -0.7307
  481MOL0     H64924   3.854   8.611   2.715 -1.6172  0.5200 -1.0218
  481MOL0     H64925   4.065   8.241   2.655 -3.9484  1.8420  1.2183
  481MOL0     H64926   4.022   8.294   2.491 -1.3600  0.7605 -0.0114
  481MOL0     H64927   4.193   8.473   2.515 -0.4863  0.1909 -0.1888
  481MOL0     H64928   4.241   8.297   2.485 -2.0747 -1.3471  1.8495
  481MOL0     H64929   4.286   8.273   2.733  0.8942 -0.6831  0.0148
  481MOL0     H64930   4.254   8.448   2.750  0.3399 -1.1904  0.9944
  481MOL0     H64931   4.453   8.496   2.610  1.9364 -0.5133 -2.2757
  481MOL0     H64932   4.490   8.333   2.582  1.9562  0.5470  0.1936
  481MOL0     H64933   4.637   8.417   2.984  0.8643 -0.2668  0.5335
  481MOL0     H64934   3.831   8.202   2.618 -1.5758 -1.3778  0.0539
  481MOL0     H64935   3.600   8.196   2.679 -1.9168 -0.0564 -0.3721
  482MOL0     O64936   8.485   1.487  10.929 -0.7847  0.0164 -0.5012
  482MOL0     C64937   8.549   1.570  10.870 -0.6516  0.3780  0.9191
  482MOL0     O64938   8.504   1.642  10.758 -0.4243 -0.9200 -0.3090
  482MOL0     C64939   8.369   1.652  10.710 -0.0432  1.0963 -0.2998
  482MOL0     C64940   8.264   1.571  10.756 -0.1397  0.1015 -0.2293
  482MOL0     C64941   8.138   1.575  10.698 -0.7688  0.5082  0.6647
  482MOL0     C64942   8.115   1.675  10.598  0.6994 -0.0296  0.4262
  482MOL0     O64943   7.984   1.695  10.564 -0.7961  0.0250 -0.1739
  482MOL0     C64944   7.949   1.730  10.431 -0.1339  0.6853  0.1902
  482MOL0     C64945   7.807   1.720  10.391  0.0968 -0.0433  0.7060
  482MOL0     C64946   7.723   1.836  10.451  0.3253  0.5525 -0.0861
  482MOL0     C64947   7.586   1.839  10.391  0.0347 -0.0986  0.6161
  482MOL0     C64948   7.490   1.955  10.438 -0.4744  0.7877 -0.1146
  482MOL0     C64949   7.343   1.918  10.419 -0.4774  0.6334  0.5912
  482MOL0     C64950   7.312   1.903  10.264 -0.1946  0.6695 -0.3449
  482MOL0     C64951   7.159   1.900  10.250 -0.3192 -0.3597  0.0963
  482MOL0     N64952   7.122   2.023  10.198 -0.2498  0.2977 -0.1476
  482MOL0     C64953   7.087   2.130  10.287  0.1584 -0.7255  0.7041
  482MOL0     C64954   6.984   2.192  10.226  0.0423  1.0200  0.2674
  482MOL0     C64955   6.901   2.296  10.299  0.1706  0.2018  0.0050
  482MOL0     C64956   6.754   2.298  10.246 -0.6309  0.1351  0.3504
  482MOL0     C64957   6.690   2.417  10.319  0.2571  0.2046 -0.6650
  482MOL0     C64958   6.564   2.452  10.242 -0.3959  0.6784  1.1534
  482MOL0     O64959   6.460   2.360  10.234 -0.5609  0.2029 -0.4984
  482MOL0     C64960   6.335   2.411  10.212 -0.2660  0.0131 -0.4259
  482MOL0     C64961   6.230   2.317  10.234 -0.3154 -0.2800  0.0586
  482MOL0     C64962   6.093   2.348  10.212 -0.0488  0.3836  0.2232
  482MOL0     C64963   5.998   2.241  10.238  0.2646 -0.6953 -0.3325
  482MOL0     C64964   6.059   2.476  10.172 -0.0302 -0.2726  0.6261
  482MOL0     C64965   5.925   2.533  10.161  0.5356  0.1433 -0.4755
  482MOL0     O64966   5.907   2.637  10.067 -0.6808 -0.3018  0.4789
  482MOL0     C64967   5.777   2.679  10.043 -0.3918 -0.2295  0.0369
  482MOL0     C64968   5.702   2.761  10.130  0.1204  0.0542  0.6640
  482MOL0     C64969   5.564   2.786  10.095  0.4805 -0.5024  0.5975
  482MOL0     C64970   5.512   2.754   9.967  0.0402  0.0927  0.4882
  482MOL0     O64971   5.384   2.784   9.928  0.2270 -1.3300 -0.3663
  482MOL0     C64972   5.281   2.768  10.021  0.2741 -0.3467 -0.1290
  482MOL0     C64973   5.152   2.811   9.945 -0.8626  0.0725 -1.2670
  482MOL0     C64974   5.022   2.812  10.024  0.1815 -0.6529  0.0641
  482MOL0     C64975   4.910   2.829   9.915  0.1288  0.1537  0.3570
  482MOL0     C64976   4.769   2.818   9.986  0.0488  0.0911  0.1667
  482MOL0     C64977   4.652   2.822   9.886 -0.3296 -0.0249 -0.2444
  482MOL0     C64978   4.519   2.784   9.950 -0.3564  0.1934  1.2988
  482MOL0     C64979   4.457   2.908  10.003 -0.5102 -0.2974  0.3320
  482MOL0    Cl64980   4.311   2.854  10.067 -0.7723  0.3781 -0.4326
  482MOL0     C64981   5.593   2.680   9.880 -0.3192 -0.1352  0.4583
  482MOL0     C64982   5.728   2.636   9.921  0.8581  0.2304 -0.0023
  482MOL0     O64983   5.825   2.482  10.217 -0.3858  0.5862  1.0735
  482MOL0     C64984   6.166   2.571  10.139  0.2805 -0.7204  0.2077
  482MOL0     C64985   6.303   2.543  10.166  0.0771  0.1659  0.0488
  482MOL0     N64986   6.969   2.136  10.101 -0.0433 -0.1912  1.0097
  482MOL0     N64987   7.045   2.040  10.087  0.7448  0.7821  0.1851
  482MOL0     C64988   8.224   1.742  10.541 -0.2638 -0.3997  0.8611
  482MOL0     C64989   8.348   1.736  10.599 -0.4203  0.9872 -0.6486
  482MOL0     C64990   8.684   1.596  10.919 -0.2198 -0.9794 -0.5401
  482MOL0     C64991   8.750   1.711  10.896 -0.3403  0.3821  0.4841
  482MOL0     C64992   8.872   1.745  10.953  0.2899 -0.1707 -0.0358
  482MOL0     C64993   8.935   1.657  11.041 -0.3326  0.3781  0.4217
  482MOL0     O64994   9.055   1.700  11.085 -0.0805 -0.7151  0.4571
  482MOL0     C64995   9.144   1.601  11.136  0.0893 -0.1532  0.3153
  482MOL0     C64996   9.281   1.654  11.118  0.1823  0.2426 -0.5554
  482MOL0     C64997   9.397   1.572  11.160 -0.0296 -0.2028 -0.5453
  482MOL0     C64998   9.521   1.613  11.077  0.0975  0.2656  0.2183
  482MOL0     C64999   9.634   1.524  11.108  0.3875  0.1651 -0.1180
  482MOL0     C65000   9.728   1.452  11.130  0.5575  0.0233  0.0119
  482MOL0     C65001   8.870   1.537  11.077  0.3829  0.0727  0.6673
  482MOL0     C65002   8.742   1.515  11.017 -0.9328  0.4401  0.8488
  482MOL0     H65003   8.267   1.499  10.838 -1.4332 -0.2362 -0.4503
  482MOL0     H65004   8.062   1.517  10.749  0.9809 -0.8191  1.8895
  482MOL0     H65005   7.968   1.837  10.417 -0.4988  1.1405  2.6628
  482MOL0     H65006   8.014   1.671  10.365  2.3215  1.5004  1.7205
  482MOL0     H65007   7.809   1.714  10.282  0.6236 -2.5222  0.7897
  482MOL0     H65008   7.759   1.625  10.417  0.1186  0.1202  1.3767
  482MOL0     H65009   7.706   1.819  10.558 -0.2984 -0.9854 -0.3969
  482MOL0     H65010   7.760   1.933  10.418 -1.7619  0.9712 -1.3623
  482MOL0     H65011   7.585   1.847  10.282 -0.2216  0.1358  0.6365
  482MOL0     H65012   7.541   1.744  10.420 -1.1736  0.5068  0.7846
  482MOL0     H65013   7.512   1.966  10.544 -3.5852  0.8621  0.6172
  482MOL0     H65014   7.520   2.044  10.382  2.2474 -0.1688 -0.3258
  482MOL0     H65015   7.321   1.820  10.461 -3.2884 -0.4961 -2.9378
  482MOL0     H65016   7.284   1.999  10.465 -0.2073 -0.1148  2.3164
  482MOL0     H65017   7.356   1.985  10.207 -0.8677  1.1507 -0.1783
  482MOL0     H65018   7.351   1.808  10.225  0.7951 -0.1934  2.4854
  482MOL0     H65019   7.111   1.888  10.347  0.9149 -2.0092  0.5366
  482MOL0     H65020   7.119   1.816  10.193 -1.9983 -0.1031  0.8428
  482MOL0     H65021   7.129   2.156  10.384 -1.2397  0.3644  1.0561
  482MOL0     H65022   6.894   2.270  10.405  0.2272 -0.2997 -0.1111
  482MOL0     H65023   6.946   2.393  10.279 -0.8125  0.7496  0.3883
  482MOL0     H65024   6.700   2.206  10.270  0.3251 -1.4214 -2.8807
  482MOL0     H65025   6.756   2.313  10.138  3.1063 -1.9866 -0.0666
  482MOL0     H65026   6.760   2.501  10.309 -0.5735  0.8470 -1.2923
  482MOL0     H65027   6.662   2.398  10.422 -1.4820 -1.4900 -1.3977
  482MOL0     H65028   6.597   2.476  10.140 -1.9118 -0.5971  0.3148
  482MOL0     H65029   6.527   2.547  10.281  0.1854  1.0706  0.7637
  482MOL0     H65030   6.264   2.218  10.263  1.6708  0.4396  0.3830
  482MOL0     H65031   5.919   2.231  10.163 -0.2574  0.7094 -0.0064
  482MOL0     H65032   6.056   2.151  10.262  2.4257  0.4031 -1.1803
  482MOL0     H65033   5.944   2.269  10.329 -0.5113 -0.5214 -0.8290
  482MOL0     H65034   5.739   2.793  10.227 -1.6468  4.0674  0.2054
  482MOL0     H65035   5.511   2.858  10.157  3.6300  2.0549  0.5578
  482MOL0     H65036   5.269   2.663  10.049  1.1152 -0.6419 -0.8030
  482MOL0     H65037   5.284   2.824  10.115 -0.8095 -0.8762  0.2366
  482MOL0     H65038   5.177   2.911   9.908  0.5871  0.4950  0.6864
  482MOL0     H65039   5.141   2.749   9.855 -1.2331 -1.8137  0.0273
  482MOL0     H65040   5.020   2.899  10.090  2.2210 -1.3235  1.0898
  482MOL0     H65041   5.014   2.719  10.081 -0.0321 -1.1323 -0.7372
  482MOL0     H65042   4.918   2.918   9.853 -1.0335  0.4598  0.6252
  482MOL0     H65043   4.915   2.741   9.850  0.3044 -0.6705  1.4416
  482MOL0     H65044   4.764   2.903  10.054  0.4360 -1.5466  2.3365
  482MOL0     H65045   4.761   2.731  10.052 -0.3061  0.9303  1.2540
  482MOL0     H65046   4.643   2.918   9.835 -1.3753  0.7155  1.2622
  482MOL0     H65047   4.673   2.751   9.805  0.3880  0.6133 -0.6364
  482MOL0     H65048   4.534   2.715  10.034 -2.4735 -1.4206  0.4302
  482MOL0     H65049   4.454   2.735   9.877  0.9363 -0.9742  0.8747
  482MOL0     H65050   4.435   2.988   9.932 -0.1575 -0.3787  0.1315
  482MOL0     H65051   4.521   2.945  10.084 -1.1231 -0.3947  0.8688
  482MOL0     H65052   5.538   2.646   9.793  1.9677 -0.4000 -0.9552
  482MOL0     H65053   5.788   2.576   9.854  0.3360  1.6553 -1.8354
  482MOL0     H65054   6.135   2.665  10.094  3.1488 -0.2195 -0.9328
  482MOL0     H65055   6.380   2.617  10.149  0.5739  0.2215  2.1999
  482MOL0     H65056   8.219   1.810  10.457 -2.3436 -1.6241 -0.0906
  482MOL0     H65057   8.426   1.807  10.576 -1.3773  2.4090  0.2747
  482MOL0     H65058   8.702   1.786  10.833  1.0744 -0.3237 -1.5533
  482MOL0     H65059   8.919   1.840  10.928  0.0760 -0.3508 -1.1643
  482MOL0     H65060   9.121   1.580  11.241 -1.2595 -0.7549 -0.0752
  482MOL0     H65061   9.135   1.506  11.082  1.7029  0.2889 -0.7973
  482MOL0     H65062   9.290   1.741  11.183  0.6101 -0.4549  0.3434
  482MOL0     H65063   9.287   1.679  11.012 -1.3617  1.5386 -0.3791
  482MOL0     H65064   9.367   1.469  11.138  0.6692 -0.2025 -1.5740
  482MOL0     H65065   9.413   1.573  11.268  1.7663 -0.6320 -0.7732
  482MOL0     H65066   9.545   1.714  11.110 -0.8958 -0.5537  3.9990
  482MOL0     H65067   9.497   1.607  10.971  1.9067 -1.1928 -0.1581
  482MOL0     H65068   9.812   1.387  11.144  2.0632  1.2259 -2.5845
  482MOL0     H65069   8.904   1.460  11.145 -2.4234 -1.6069  0.3283
  482MOL0     H65070   8.679   1.437  11.060  0.8795 -0.1537  2.5726
  483MOL0     O65071   7.768   4.756   1.562 -0.0476 -0.1804  0.3385
  483MOL0     C65072   7.878   4.826   1.555  0.0524  0.7821  0.3678
  483MOL0     O65073   7.887   4.953   1.494 -0.2847 -0.5621  0.2855
  483MOL0     C65074   7.772   5.002   1.453  0.0253  0.0572  0.0861
  483MOL0     C65075   7.668   5.036   1.547 -0.4067  0.6111  0.0160
  483MOL0     C65076   7.546   5.082   1.499  0.1678  0.3783 -0.4852
  483MOL0     C65077   7.527   5.104   1.367  0.8399 -0.7050  0.0449
  483MOL0     O65078   7.401   5.158   1.321 -0.3963  0.4619  0.2778
  483MOL0     C65079   7.288   5.099   1.384  0.4997  0.1749 -0.5752
  483MOL0     C65080   7.162   5.137   1.305  0.2616  1.3463 -0.8163
  483MOL0     C65081   7.154   5.058   1.177  0.6585  0.5539 -0.1516
  483MOL0     C65082   7.035   5.100   1.086  0.2582  0.9377  0.0298
  483MOL0     C65083   6.897   5.068   1.153 -0.1109 -0.0086 -0.3265
  483MOL0     C65084   6.787   5.123   1.058  0.3762 -0.6810 -0.2243
  483MOL0     C65085   6.649   5.080   1.113  0.6318 -0.1542  0.1314
  483MOL0     C65086   6.561   5.130   1.005  0.1313 -0.5003  0.1538
  483MOL0     N65087   6.424   5.101   1.043 -0.3153  0.1559  0.0460
  483MOL0     C65088   6.346   5.198   1.101 -0.1253 -0.8526  0.0456
  483MOL0     C65089   6.227   5.133   1.134 -0.6154 -0.0709 -0.2072
  483MOL0     C65090   6.106   5.183   1.207  0.4056 -1.1038  0.1461
  483MOL0     C65091   6.032   5.305   1.133 -0.5798 -0.2503  0.1954
  483MOL0     C65092   5.915   5.261   1.047  0.0869  0.1793  0.0543
  483MOL0     C65093   5.827   5.380   1.004 -0.5535  0.3795 -0.1374
  483MOL0     O65094   5.709   5.347   0.928 -0.5739 -0.0445  0.1271
  483MOL0     C65095   5.597   5.317   0.997  0.8160 -0.5851 -0.8113
  483MOL0     C65096   5.564   5.330   1.134 -0.0572 -0.2776 -0.7428
  483MOL0     C65097   5.438   5.301   1.191  0.0443 -0.3711 -0.8463
  483MOL0     C65098   5.440   5.312   1.348  0.7021 -0.6374  0.3699
  483MOL0     C65099   5.321   5.272   1.114 -0.2403 -0.6241 -0.7433
  483MOL0     C65100   5.186   5.266   1.173 -0.3324 -0.0655  0.0006
  483MOL0     O65101   5.101   5.168   1.118  0.1098 -0.4393  0.5547
  483MOL0     C65102   4.965   5.157   1.143 -0.7383 -0.2424 -0.5650
  483MOL0     C65103   4.907   5.192   1.261 -0.0118 -0.1902  0.1651
  483MOL0     C65104   4.768   5.166   1.289  0.6117  0.8490 -0.6210
  483MOL0     C65105   4.691   5.101   1.187 -0.7590 -0.9331 -0.3326
  483MOL0     O65106   4.562   5.081   1.223 -0.2738  0.2068 -0.4576
  483MOL0     C65107   4.476   5.043   1.126  0.6418 -0.2434 -0.9888
  483MOL0     C65108   4.343   5.077   1.195  0.0475 -0.0752  0.4461
  483MOL0     C65109   4.220   5.022   1.114  0.2446  0.6637  0.0176
  483MOL0     C65110   4.091   5.070   1.188  0.2088 -0.1718 -0.2758
  483MOL0     C65111   3.966   5.076   1.089 -0.5058 -0.7024  0.9626
  483MOL0     C65112   3.841   5.136   1.161 -1.1263 -0.2630 -0.1258
  483MOL0     C65113   3.710   5.110   1.093  0.9168 -0.8297 -0.1775
  483MOL0     C65114   3.593   5.167   1.177 -0.1381  0.7862 -0.3003
  483MOL0    Cl65115   3.606   5.129   1.351  0.2008  0.1552 -0.2283
  483MOL0     C65116   4.757   5.060   1.067 -0.5432 -0.4807  0.3261
  483MOL0     C65117   4.891   5.094   1.040 -0.7202  0.1692 -0.8507
  483MOL0     O65118   5.153   5.346   1.257  0.2887 -0.4839 -0.5330
  483MOL0     C65119   5.352   5.254   0.980 -0.6982 -0.0813  0.7372
  483MOL0     C65120   5.484   5.275   0.921 -0.3016 -0.5833  0.1642
  483MOL0     N65121   6.235   5.006   1.081  0.1571  0.1310  0.1887
  483MOL0     N65122   6.350   4.988   1.027 -0.0999 -0.0526  0.2415
  483MOL0     C65123   7.631   5.095   1.274 -0.3465  0.9657 -0.6345
  483MOL0     C65124   7.759   5.040   1.317 -0.1341 -0.3661 -0.9128
  483MOL0     C65125   8.005   4.768   1.610  0.5861  0.0582 -0.5966
  483MOL0     C65126   8.034   4.632   1.586  0.0603 -0.8151  0.9775
  483MOL0     C65127   8.152   4.584   1.632 -0.3543  0.0303  1.4068
  483MOL0     C65128   8.246   4.659   1.700  0.8213  0.3343  0.5781
  483MOL0     O65129   8.366   4.600   1.727 -0.0092 -0.2832  0.5644
  483MOL0     C65130   8.455   4.671   1.824 -0.1635  0.1808  1.0498
  483MOL0     C65131   8.584   4.601   1.821  0.0524  0.0629  0.1441
  483MOL0     C65132   8.677   4.623   1.695  1.0995  0.9991 -0.5481
  483MOL0     C65133   8.820   4.588   1.740  0.4085 -0.4583 -0.0334
  483MOL0     C65134   8.911   4.608   1.627  0.2262 -0.7329  0.1121
  483MOL0     C65135   8.985   4.642   1.539  0.1002 -0.1417  0.3309
  483MOL0     C65136   8.218   4.795   1.711 -0.1509 -0.2797  1.2317
  483MOL0     C65137   8.094   4.844   1.679 -0.2452 -0.4739 -0.3693
  483MOL0     H65138   7.677   5.002   1.650  2.0179 -0.2426 -0.4065
  483MOL0     H65139   7.473   5.113   1.572 -0.6456 -1.1057 -0.6339
  483MOL0     H65140   7.295   4.990   1.394 -0.9116  0.0402 -0.8379
  483MOL0     H65141   7.278   5.141   1.485 -0.1399  0.9249 -0.9467
  483MOL0     H65142   7.069   5.116   1.359  0.4525  2.3238 -0.0849
  483MOL0     H65143   7.157   5.245   1.292 -2.2288  1.6760  1.6811
  483MOL0     H65144   7.245   5.062   1.117  1.6131 -3.4651  0.7556
  483MOL0     H65145   7.142   4.953   1.206  2.5651  0.3810  0.1138
  483MOL0     H65146   7.040   5.201   1.042 -2.7117  0.9025 -0.5906
  483MOL0     H65147   7.042   5.040   0.995  1.9528  1.4082 -0.1951
  483MOL0     H65148   6.888   4.961   1.173 -0.9522  0.0180 -0.5025
  483MOL0     H65149   6.885   5.112   1.252 -0.9548  0.9034 -0.8137
  483MOL0     H65150   6.794   5.230   1.040 -0.4224  0.2297  3.8553
  483MOL0     H65151   6.802   5.077   0.960 -1.0924  4.4720 -3.2178
  483MOL0     H65152   6.627   4.973   1.123 -3.3824  0.1790 -2.8179
  483MOL0     H65153   6.625   5.133   1.205 -1.3869 -2.0214  0.7794
  483MOL0     H65154   6.588   5.095   0.905 -2.1776  0.9562 -1.0623
  483MOL0     H65155   6.569   5.238   0.987 -0.2782 -0.4557  0.2404
  483MOL0     H65156   6.362   5.303   1.121  1.0416 -1.1905  0.9176
  483MOL0     H65157   6.034   5.102   1.216 -1.4571  0.4589  0.0845
  483MOL0     H65158   6.135   5.234   1.300 -0.9999  1.7434 -0.8500
  483MOL0     H65159   6.099   5.364   1.070  0.6394  2.1603  3.4514
  483MOL0     H65160   6.003   5.367   1.218 -1.3099 -0.6883  0.2752
  483MOL0     H65161   5.850   5.189   1.098  0.9661 -0.4218  0.3622
  483MOL0     H65162   5.964   5.212   0.962 -2.7954 -0.1094 -1.5454
  483MOL0     H65163   5.891   5.446   0.945  2.3264 -1.4124  0.7661
  483MOL0     H65164   5.799   5.436   1.094 -0.1725  0.4218 -0.0443
  483MOL0     H65165   5.638   5.372   1.201 -0.8026 -0.8434  0.4692
  483MOL0     H65166   5.537   5.279   1.387  1.1136  0.7271  0.5689
  483MOL0     H65167   5.430   5.417   1.375  0.1658 -0.3651 -0.8019
  483MOL0     H65168   5.364   5.256   1.403  3.1790 -3.5286  1.1611
  483MOL0     H65169   4.963   5.238   1.342 -2.3049 -0.4935  2.0251
  483MOL0     H65170   4.714   5.186   1.382  0.2035  1.6086 -1.0136
  483MOL0     H65171   4.489   5.097   1.032  1.8516 -1.4639 -1.5572
  483MOL0     H65172   4.477   4.935   1.108  0.5339 -0.2838 -0.7475
  483MOL0     H65173   4.336   5.036   1.296 -2.1245 -0.2758  0.2684
  483MOL0     H65174   4.328   5.184   1.214  2.0110 -0.3383  4.6711
  483MOL0     H65175   4.226   4.913   1.120  1.4334  0.7343  5.4340
  483MOL0     H65176   4.217   5.057   1.011 -0.7138 -0.9084 -0.5168
  483MOL0     H65177   4.075   5.004   1.274  0.8021 -1.1315 -0.8832
  483MOL0     H65178   4.106   5.173   1.224  0.4793  0.4080 -1.9643
  483MOL0     H65179   3.935   4.974   1.062 -2.3959  0.5306 -1.9681
  483MOL0     H65180   3.977   5.124   0.992 -1.7953 -0.0858  1.0958
  483MOL0     H65181   3.848   5.084   1.256  1.5680  0.4911  0.1840
  483MOL0     H65182   3.847   5.245   1.173  0.9190  0.0232 -2.7626
  483MOL0     H65183   3.704   5.003   1.072 -1.7190 -0.5603 -1.1091
  483MOL0     H65184   3.717   5.150   0.992 -1.3878  1.7838  0.5825
  483MOL0     H65185   3.498   5.123   1.146 -0.4072  1.0420  0.1513
  483MOL0     H65186   3.586   5.276   1.168 -1.9175  0.8548  1.2324
  483MOL0     H65187   4.691   5.002   1.003  1.0359 -0.4230 -1.4444
  483MOL0     H65188   4.947   5.057   0.955 -0.1026  0.6026 -0.6391
  483MOL0     H65189   5.280   5.214   0.909  1.0663  0.9248 -1.7774
  483MOL0     H65190   5.496   5.259   0.815  2.1210 -0.2652  0.3506
  483MOL0     H65191   7.622   5.132   1.172  3.7505  1.4878 -0.9871
  483MOL0     H65192   7.844   5.022   1.250 -0.6062  0.2901 -1.7082
  483MOL0     H65193   7.965   4.579   1.522  0.2787  2.7076 -2.5239
  483MOL0     H65194   8.169   4.480   1.608 -1.9916 -0.8694  3.7646
  483MOL0     H65195   8.470   4.776   1.796 -1.0680  0.2729  0.8831
  483MOL0     H65196   8.392   4.668   1.914 -3.9196 -4.0055 -1.3032
  483MOL0     H65197   8.569   4.494   1.838  2.4692 -0.7908 -2.3207
  483MOL0     H65198   8.642   4.627   1.911  1.5682  0.8772 -1.0140
  483MOL0     H65199   8.670   4.727   1.664 -1.2597  0.8238 -0.8312
  483MOL0     H65200   8.645   4.560   1.611 -1.6066 -0.3498  1.3217
  483MOL0     H65201   8.811   4.483   1.772 -1.9076 -0.7410 -1.3838
  483MOL0     H65202   8.853   4.654   1.820 -1.7528  0.4835  0.1430
  483MOL0     H65203   9.042   4.677   1.454  2.0982 -1.6661  0.9541
  483MOL0     H65204   8.294   4.862   1.750  0.5338 -0.2800 -0.0553
  483MOL0     H65205   8.077   4.949   1.697  1.7536 -0.2458  0.4724
  484MOL0     O65206   3.052   1.337   2.852 -0.2930  0.1980  0.1226
  484MOL0     C65207   3.129   1.393   2.773  0.0006  0.0633  0.3314
  484MOL0     O65208   3.097   1.480   2.676 -0.4147 -0.3181 -0.0381
  484MOL0     C65209   2.962   1.512   2.675  0.1509  0.2394  0.0896
  484MOL0     C65210   2.929   1.641   2.683  0.5906 -0.5230  0.1799
  484MOL0     C65211   2.794   1.681   2.675  0.7166 -0.2871 -0.0197
  484MOL0     C65212   2.695   1.583   2.653 -0.7677  0.6518 -0.1117
  484MOL0     O65213   2.562   1.628   2.644 -0.5663  0.1038 -0.1889
  484MOL0     C65214   2.468   1.559   2.717  1.2172  0.5181  0.3424
  484MOL0     C65215   2.337   1.629   2.665  0.1577 -0.3061 -0.8232
  484MOL0     C65216   2.221   1.545   2.712 -0.1699 -0.2246 -0.8764
  484MOL0     C65217   2.087   1.629   2.705 -0.0145  0.8631  0.1038
  484MOL0     C65218   1.973   1.537   2.728  0.6203  0.5984 -0.2017
  484MOL0     C65219   1.832   1.607   2.748  0.5506  0.3888  0.2874
  484MOL0     C65220   1.730   1.506   2.798  0.3577 -0.8246  0.0465
  484MOL0     C65221   1.592   1.575   2.832  0.8196  0.0522 -0.3596
  484MOL0     N65222   1.504   1.483   2.900 -0.5193 -0.3279 -0.4665
  484MOL0     C65223   1.436   1.370   2.843  0.1479 -0.6062 -0.2651
  484MOL0     C65224   1.385   1.306   2.952 -0.7882 -0.4280  0.1830
  484MOL0     C65225   1.315   1.173   2.947 -1.0227 -0.4357 -0.4799
  484MOL0     C65226   1.186   1.166   2.859 -0.6964 -0.2107  0.3860
  484MOL0     C65227   1.070   1.266   2.899 -0.3100 -0.6275 -0.3828
  484MOL0     C65228   0.943   1.263   2.822  0.0357 -0.3969  0.6950
  484MOL0     O65229   0.887   1.397   2.829  0.3180 -0.2114  0.2750
  484MOL0     C65230   0.787   1.413   2.917 -0.2446  0.0170  0.3332
  484MOL0     C65231   0.794   1.531   2.996 -0.3805 -0.3584 -0.4046
  484MOL0     C65232   0.691   1.568   3.086 -0.3733  0.7887 -0.7151
  484MOL0     C65233   0.697   1.696   3.166 -0.1802 -0.2676 -0.3270
  484MOL0     C65234   0.581   1.479   3.095  0.7600  0.2335  0.5703
  484MOL0     C65235   0.457   1.515   3.170  0.3252  0.5911  0.6791
  484MOL0     O65236   0.372   1.605   3.117 -0.0943 -0.1478 -0.6694
  484MOL0     C65237   0.259   1.640   3.182  0.3945  0.1271 -1.0481
  484MOL0     C65238   0.239   1.639   3.321 -0.9528 -0.3124 -0.2338
  484MOL0     C65239   0.116   1.663   3.374 -0.3312 -0.4274  0.2248
  484MOL0     C65240   0.011   1.713   3.297  0.1258  0.0652 -0.2359
  484MOL0     O65241  -0.111   1.754   3.348 -0.3501 -0.5908  0.2995
  484MOL0     C65242  -0.140   1.755   3.490  0.1528 -0.2093  0.2679
  484MOL0     C65243  -0.277   1.821   3.499  0.0475 -0.3023  0.9770
  484MOL0     C65244  -0.394   1.745   3.438  0.5827  0.4432  0.5735
  484MOL0     C65245  -0.535   1.800   3.470 -0.1271  0.3460 -0.4157
  484MOL0     C65246  -0.641   1.733   3.376  0.7948  0.9209 -0.2847
  484MOL0     C65247  -0.790   1.777   3.405 -0.0972 -0.5748 -0.6959
  484MOL0     C65248  -0.834   1.765   3.550  0.1438 -0.4928  0.2381
  484MOL0     C65249  -0.991   1.759   3.566 -0.0516  0.4767  0.6453
  484MOL0    Cl65250  -1.061   1.806   3.717 -0.1935  0.7301  0.2019
  484MOL0     C65251   0.029   1.720   3.158 -0.6390 -1.2993 -0.1708
  484MOL0     C65252   0.158   1.690   3.107 -0.4220 -0.1183  0.4846
  484MOL0     O65253   0.436   1.447   3.272  0.5928 -0.3180  0.3589
  484MOL0     C65254   0.568   1.364   3.011 -0.4595  1.1910  0.1415
  484MOL0     C65255   0.674   1.328   2.921 -0.5033 -0.3969  0.3282
  484MOL0     N65256   1.405   1.383   3.067  1.0231 -0.6091  0.1919
  484MOL0     N65257   1.474   1.491   3.033 -0.9784 -0.3188  0.0364
  484MOL0     C65258   2.730   1.447   2.660  0.3049  0.6828 -0.3336
  484MOL0     C65259   2.867   1.414   2.655 -0.4011  0.1987 -0.3207
  484MOL0     C65260   3.266   1.362   2.801 -0.5770  0.0035 -0.2194
  484MOL0     C65261   3.303   1.278   2.910  0.0444  0.5894  0.2968
  484MOL0     C65262   3.438   1.257   2.940  0.2969 -0.5181 -0.5739
  484MOL0     C65263   3.536   1.321   2.863  0.7199  0.0641  0.0084
  484MOL0     O65264   3.669   1.298   2.877  0.2081  0.7221  0.0578
  484MOL0     C65265   3.726   1.282   3.005  0.0435  0.4873 -1.0432
  484MOL0     C65266   3.836   1.385   3.023  0.7888 -0.4449  0.5336
  484MOL0     C65267   3.850   1.400   3.173  0.2319 -0.3007  0.1039
  484MOL0     C65268   3.906   1.268   3.243 -0.0983 -0.0869  0.3378
  484MOL0     C65269   4.040   1.225   3.188  0.2691  0.1994  0.2675
  484MOL0     C65270   4.147   1.202   3.136  0.9180 -1.1079  0.6325
  484MOL0     C65271   3.504   1.404   2.748  0.7616  0.0036 -0.3885
  484MOL0     C65272   3.366   1.420   2.722 -0.5401  0.4875 -0.2284
  484MOL0     H65273   3.007   1.714   2.706 -0.8451  0.4730  2.1411
  484MOL0     H65274   2.759   1.784   2.679 -0.5820 -0.7462  2.2934
  484MOL0     H65275   2.460   1.450   2.708 -1.9200  0.3905  2.8316
  484MOL0     H65276   2.479   1.579   2.824  2.2583  0.9989  0.1575
  484MOL0     H65277   2.319   1.723   2.718 -2.8029 -0.8541 -0.6505
  484MOL0     H65278   2.336   1.645   2.557 -1.5541  0.1995 -0.7618
  484MOL0     H65279   2.216   1.467   2.635 -2.2676  1.0972 -2.1875
  484MOL0     H65280   2.230   1.509   2.815  1.6727 -0.6935 -1.1608
  484MOL0     H65281   2.090   1.699   2.789 -1.4199 -1.2628  2.0294
  484MOL0     H65282   2.080   1.682   2.610  0.9232  1.2174  0.2168
  484MOL0     H65283   1.954   1.477   2.638 -0.8145  0.7023  0.0014
  484MOL0     H65284   1.988   1.469   2.812  0.6643  1.0526  0.1653
  484MOL0     H65285   1.841   1.683   2.826 -0.9947 -0.5659  1.4407
  484MOL0     H65286   1.800   1.662   2.659  0.7377  0.1369  0.0628
  484MOL0     H65287   1.715   1.423   2.728 -1.4920  0.3290 -1.0298
  484MOL0     H65288   1.761   1.451   2.887  0.6601  1.0500  1.1565
  484MOL0     H65289   1.554   1.617   2.739 -1.1714  0.7870  0.7249
  484MOL0     H65290   1.616   1.655   2.904 -0.3463 -0.1911  0.3169
  484MOL0     H65291   1.441   1.344   2.738  1.0384  1.0774 -0.6741
  484MOL0     H65292   1.386   1.097   2.911  0.9117  0.7875  0.5475
  484MOL0     H65293   1.287   1.147   3.049 -1.0239  0.6420 -0.1919
  484MOL0     H65294   1.147   1.064   2.852  2.5280 -1.5933  0.5707
  484MOL0     H65295   1.214   1.197   2.758 -0.3593 -1.7724 -0.0217
  484MOL0     H65296   1.109   1.367   2.886  1.0222 -0.9927  0.5492
  484MOL0     H65297   1.048   1.247   3.005 -0.1757 -1.3786 -0.4867
  484MOL0     H65298   0.880   1.184   2.863  0.1918  0.3551  2.5086
  484MOL0     H65299   0.975   1.252   2.718  1.1620  2.3027  0.6519
  484MOL0     H65300   0.886   1.590   2.999 -0.3234 -0.4297  2.9129
  484MOL0     H65301   0.790   1.726   3.215 -1.8994  1.6482  2.0143
  484MOL0     H65302   0.678   1.783   3.103  0.3171  0.1599  0.1006
  484MOL0     H65303   0.627   1.695   3.250 -2.1719  0.7224 -1.8790
  484MOL0     H65304   0.302   1.594   3.397 -1.7972 -2.0144 -0.4976
  484MOL0     H65305   0.094   1.653   3.480  0.8754 -2.0059  0.3520
  484MOL0     H65306  -0.143   1.652   3.527  2.6722 -1.3553 -2.3434
  484MOL0     H65307  -0.062   1.807   3.546  2.0184 -1.3334 -1.1608
  484MOL0     H65308  -0.321   1.845   3.597 -2.2245 -0.6890  0.1211
  484MOL0     H65309  -0.281   1.922   3.457 -3.4541  0.0885  1.9312
  484MOL0     H65310  -0.395   1.638   3.461 -2.1527  0.1296 -0.5586
  484MOL0     H65311  -0.383   1.751   3.330  0.6768  0.0978  0.5633
  484MOL0     H65312  -0.556   1.763   3.570  0.8963 -0.8068 -0.5954
  484MOL0     H65313  -0.526   1.909   3.473  0.7752  0.2539  1.0683
  484MOL0     H65314  -0.645   1.626   3.399  3.5157  0.9015  0.4617
  484MOL0     H65315  -0.611   1.737   3.270 -3.9530  2.3394 -1.8049
  484MOL0     H65316  -0.793   1.882   3.375 -1.1143 -1.1284 -2.6809
  484MOL0     H65317  -0.853   1.716   3.341 -0.5298  0.2687 -1.0900
  484MOL0     H65318  -0.798   1.849   3.611 -2.6113  2.2883 -1.6520
  484MOL0     H65319  -0.802   1.668   3.589  0.6465  0.2309  1.7140
  484MOL0     H65320  -1.006   1.653   3.545  2.7332  0.1207  0.1145
  484MOL0     H65321  -1.045   1.816   3.490  3.1734  1.8110 -0.8599
  484MOL0     H65322  -0.043   1.750   3.083 -3.3064 -0.1840  2.6052
  484MOL0     H65323   0.185   1.714   3.005  0.7902 -1.2445  0.5159
  484MOL0     H65324   0.479   1.302   3.004 -0.2855  1.0124 -0.6469
  484MOL0     H65325   0.658   1.238   2.863  0.3506 -0.2539 -0.1419
  484MOL0     H65326   2.654   1.371   2.644  0.5139  0.6719 -1.3688
  484MOL0     H65327   2.895   1.311   2.637 -1.0067 -0.1452  0.6336
  484MOL0     H65328   3.227   1.227   2.968  1.7461 -0.8472  1.3518
  484MOL0     H65329   3.468   1.190   3.020 -0.1338 -0.7930 -0.6387
  484MOL0     H65330   3.654   1.289   3.087  1.2333  1.2825 -0.0271
  484MOL0     H65331   3.777   1.185   3.013 -1.9923 -0.5300  0.1718
  484MOL0     H65332   3.811   1.485   2.986 -2.2036 -0.0968  3.1081
  484MOL0     H65333   3.930   1.352   2.978  0.8072 -0.7039  0.7631
  484MOL0     H65334   3.754   1.430   3.215  1.9416  2.2690  2.5614
  484MOL0     H65335   3.926   1.474   3.201 -0.3657  0.3467  0.0301
  484MOL0     H65336   3.836   1.185   3.230 -0.6727  0.4673 -0.2413
  484MOL0     H65337   3.914   1.298   3.348  1.4259  0.0383  0.1999
  484MOL0     H65338   4.245   1.182   3.097  1.7041 -1.3184  2.5924
  484MOL0     H65339   3.594   1.435   2.696  0.2262 -0.3922 -1.5757
  484MOL0     H65340   3.343   1.481   2.635  2.2595  2.5621  0.3049
  485MOL0     O65341   4.721   6.982   1.518 -1.0837 -0.0640 -0.0592
  485MOL0     C65342   4.697   7.102   1.500  0.2069  0.0382 -0.0011
  485MOL0     O65343   4.576   7.157   1.516  0.2817 -0.2821  0.3777
  485MOL0     C65344   4.470   7.074   1.547 -0.5695 -0.6320  0.1289
  485MOL0     C65345   4.389   7.116   1.655 -0.0298  0.3790  0.6048
  485MOL0     C65346   4.275   7.045   1.684  0.4361  0.0521  0.0343
  485MOL0     C65347   4.233   6.931   1.616  0.9270  0.4882  0.4345
  485MOL0     O65348   4.123   6.847   1.652 -0.4471  0.4057 -0.1280
  485MOL0     C65349   4.029   6.899   1.749 -0.4426  0.0649  0.3228
  485MOL0     C65350   3.894   6.820   1.744 -1.0616 -0.4972 -0.5042
  485MOL0     C65351   3.807   6.857   1.869 -0.6572  0.6217 -0.3234
  485MOL0     C65352   3.661   6.810   1.847  0.4319  1.0258  0.4914
  485MOL0     C65353   3.642   6.659   1.858  0.4824 -0.3408 -0.1817
  485MOL0     C65354   3.509   6.616   1.798  0.2706  0.0805 -0.3049
  485MOL0     C65355   3.385   6.649   1.891 -1.2715 -0.4316  0.3601
  485MOL0     C65356   3.386   6.580   2.027  0.1273  0.0076 -0.9739
  485MOL0     N65357   3.422   6.436   2.015 -0.6294  0.5686 -0.3274
  485MOL0     C65358   3.513   6.366   2.093  1.0236  0.1362 -0.4003
  485MOL0     C65359   3.496   6.231   2.060 -0.1963 -0.3327  0.2472
  485MOL0     C65360   3.569   6.118   2.132 -0.1967 -0.2963 -0.6263
  485MOL0     C65361   3.614   6.005   2.038 -0.0681 -0.0160  0.6843
  485MOL0     C65362   3.506   5.907   2.003  0.3651  0.2403 -0.2288
  485MOL0     C65363   3.579   5.795   1.924  0.2975 -0.1388  0.2976
  485MOL0     O65364   3.469   5.710   1.882 -0.2335  0.4551 -0.1414
  485MOL0     C65365   3.392   5.748   1.776  0.3723 -0.2395  0.2566
  485MOL0     C65366   3.280   5.675   1.741  0.3659 -0.3624  0.4242
  485MOL0     C65367   3.187   5.707   1.637  0.5740  0.6742  0.2179
  485MOL0     C65368   3.088   5.594   1.599  0.0216 -0.3721 -0.6913
  485MOL0     C65369   3.212   5.825   1.568 -0.4936  0.3874  0.0261
  485MOL0     C65370   3.121   5.872   1.454 -0.4842  0.5053 -0.8449
  485MOL0     O65371   3.166   5.977   1.384  0.6777  0.1730  0.4747
  485MOL0     C65372   3.119   5.988   1.247 -0.5465 -0.2365 -1.1879
  485MOL0     C65373   3.083   6.115   1.201 -0.1687  0.2538  0.3059
  485MOL0     C65374   3.036   6.135   1.070 -1.1047  0.7541 -0.2354
  485MOL0     C65375   3.030   6.027   0.982 -0.7086 -0.2431  0.1379
  485MOL0     O65376   2.990   6.041   0.849 -0.8911 -0.1920  0.4289
  485MOL0     C65377   2.949   6.164   0.793  0.3358  0.4575  0.2307
  485MOL0     C65378   2.932   6.136   0.645 -0.2284 -0.6998 -0.4557
  485MOL0     C65379   2.831   6.033   0.615  0.2362  0.5695 -0.4497
  485MOL0     C65380   2.702   6.050   0.686  0.0980  0.5435 -0.6065
  485MOL0     C65381   2.605   5.939   0.656  0.1492  0.6463  0.4623
  485MOL0     C65382   2.464   5.955   0.728 -0.5162 -0.6217 -0.7352
  485MOL0     C65383   2.372   5.828   0.715 -0.4380 -0.4360 -0.4525
  485MOL0     C65384   2.239   5.847   0.785 -0.2959 -0.5301  1.2085
  485MOL0    Cl65385   2.246   5.804   0.964  0.1262  0.0250  0.5811
  485MOL0     C65386   3.067   5.899   1.026 -0.1222  0.4451 -0.5625
  485MOL0     C65387   3.105   5.877   1.160  0.3445  0.2539 -0.3123
  485MOL0     O65388   3.010   5.815   1.442  0.2887  0.7217  0.4889
  485MOL0     C65389   3.321   5.903   1.610  0.2478  0.7201  0.4799
  485MOL0     C65390   3.411   5.867   1.701  1.4199 -0.4818 -1.1291
  485MOL0     N65391   3.393   6.223   1.972 -0.3508  0.5486 -0.0103
  485MOL0     N65392   3.354   6.343   1.945 -0.7102  0.2120 -0.3845
  485MOL0     C65393   4.311   6.888   1.506 -0.2474  0.5668 -0.0142
  485MOL0     C65394   4.436   6.953   1.473  0.0364 -0.4537 -0.0384
  485MOL0     C65395   4.812   7.184   1.453 -0.1363  0.5383 -0.6928
  485MOL0     C65396   4.795   7.322   1.439 -0.0622  0.3585 -0.0000
  485MOL0     C65397   4.907   7.398   1.398  0.1437  0.0307  0.0692
  485MOL0     C65398   5.031   7.337   1.377 -0.0469 -0.3790 -0.3979
  485MOL0     O65399   5.149   7.406   1.335 -0.5584  0.7976  0.6351
  485MOL0     C65400   5.132   7.543   1.294  0.3106  1.1334 -0.2050
  485MOL0     C65401   5.245   7.590   1.205  0.0762  0.5935  0.4734
  485MOL0     C65402   5.377   7.570   1.285 -0.2409  0.1456  0.0013
  485MOL0     C65403   5.510   7.565   1.196  1.0043 -0.3590 -0.3234
  485MOL0     C65404   5.528   7.674   1.105 -0.1039 -0.7467 -0.4350
  485MOL0     C65405   5.543   7.767   1.028  1.0255  1.0899 -0.1275
  485MOL0     C65406   5.047   7.207   1.387 -0.6449  0.5972 -0.1314
  485MOL0     C65407   4.941   7.127   1.427 -0.3537 -0.0518  0.0734
  485MOL0     H65408   4.409   7.205   1.713  1.1447 -1.1882  2.7336
  485MOL0     H65409   4.222   7.076   1.774  2.5235  1.1176  0.9655
  485MOL0     H65410   4.077   6.892   1.846 -0.5244  0.0080  0.3590
  485MOL0     H65411   4.008   7.002   1.717  0.5135  0.0181 -0.5064
  485MOL0     H65412   3.845   6.843   1.649  0.9540 -1.4193 -1.8476
  485MOL0     H65413   3.919   6.713   1.742 -4.2506 -1.3464 -0.1488
  485MOL0     H65414   3.855   6.825   1.962 -0.7839 -0.2396 -0.5461
  485MOL0     H65415   3.811   6.967   1.875 -2.0207  0.7383 -1.2629
  485MOL0     H65416   3.601   6.856   1.926 -0.1013 -3.3114  2.9655
  485MOL0     H65417   3.619   6.848   1.754 -2.5281 -1.6536  0.5615
  485MOL0     H65418   3.725   6.620   1.797 -0.4732 -0.1821 -1.6360
  485MOL0     H65419   3.656   6.636   1.964  0.6874  1.3126  0.1777
  485MOL0     H65420   3.500   6.676   1.706  2.7867 -1.9254 -2.0083
  485MOL0     H65421   3.505   6.512   1.764 -1.6501 -0.3621  1.1456
  485MOL0     H65422   3.408   6.754   1.912 -0.0367 -0.4373 -0.8494
  485MOL0     H65423   3.293   6.650   1.831 -0.8025  1.9774 -0.4273
  485MOL0     H65424   3.291   6.591   2.080  0.7365  1.2030 -0.0749
  485MOL0     H65425   3.468   6.610   2.094 -0.3636 -0.6853 -0.0290
  485MOL0     H65426   3.586   6.416   2.155  0.4456  0.0165  0.3974
  485MOL0     H65427   3.657   6.162   2.180  0.1909 -0.0211 -1.5757
  485MOL0     H65428   3.502   6.094   2.215 -2.0273  0.3945 -1.8452
  485MOL0     H65429   3.692   5.948   2.089  0.1452  0.6878  1.1589
  485MOL0     H65430   3.657   6.042   1.945  0.3995 -1.2415  0.3955
  485MOL0     H65431   3.429   5.965   1.952  0.4099  2.8920  2.4574
  485MOL0     H65432   3.459   5.875   2.096 -0.9496  2.5354 -0.0288
  485MOL0     H65433   3.641   5.740   1.996  0.8030  0.0977  0.0454
  485MOL0     H65434   3.649   5.838   1.851 -0.7378  1.5221  0.2439
  485MOL0     H65435   3.285   5.579   1.790  2.8564  0.4830  2.0069
  485MOL0     H65436   3.004   5.614   1.666  1.5113  1.9833  0.6122
  485MOL0     H65437   3.051   5.601   1.496 -0.1051  1.0065 -0.5604
  485MOL0     H65438   3.133   5.496   1.617 -0.4825 -0.2669  1.3376
  485MOL0     H65439   3.094   6.211   1.252 -2.2203  0.6020  0.1798
  485MOL0     H65440   2.987   6.232   1.056 -0.1347  1.3706  0.5353
  485MOL0     H65441   2.860   6.200   0.844 -0.6529 -0.8682 -0.5011
  485MOL0     H65442   3.036   6.228   0.811  1.4259 -1.4786  2.1918
  485MOL0     H65443   2.910   6.229   0.591 -0.3526 -0.3695  0.1559
  485MOL0     H65444   3.025   6.100   0.601 -1.4432 -3.1653 -1.1566
  485MOL0     H65445   2.871   5.935   0.642 -0.2435 -0.4178 -3.0022
  485MOL0     H65446   2.809   6.027   0.508 -1.5520 -1.5475 -0.0220
  485MOL0     H65447   2.717   6.039   0.793  1.3508  1.3809 -0.6808
  485MOL0     H65448   2.669   6.153   0.672  3.0162  1.8830  1.3921
  485MOL0     H65449   2.661   5.849   0.681 -2.4212 -1.1926  0.0023
  485MOL0     H65450   2.583   5.936   0.549 -3.8178 -0.2297  1.1465
  485MOL0     H65451   2.470   5.966   0.836 -0.5670 -0.2609 -0.7694
  485MOL0     H65452   2.416   6.048   0.696  2.4367  1.5262  0.6610
  485MOL0     H65453   2.427   5.740   0.750  1.2260  1.1256  1.0523
  485MOL0     H65454   2.361   5.812   0.608  0.9431 -0.2043 -0.6494
  485MOL0     H65455   2.174   5.768   0.746 -1.6012  0.8278  0.5186
  485MOL0     H65456   2.190   5.943   0.763 -0.7832 -1.1246 -0.4808
  485MOL0     H65457   3.067   5.807   0.967  0.3908 -0.7152  1.1669
  485MOL0     H65458   3.132   5.777   1.194  0.1698  0.3149  0.0028
  485MOL0     H65459   3.344   5.992   1.553 -0.7346  0.5499 -0.2083
  485MOL0     H65460   3.486   5.943   1.723  1.1803 -0.1986 -1.2747
  485MOL0     H65461   4.270   6.800   1.457 -1.8190  0.8591  0.7292
  485MOL0     H65462   4.490   6.916   1.387 -1.3257  2.3513 -2.2676
  485MOL0     H65463   4.696   7.363   1.457 -0.6920 -2.0077  2.5788
  485MOL0     H65464   4.878   7.502   1.386 -0.0488  0.5003  3.5542
  485MOL0     H65465   5.044   7.542   1.230  0.6897 -2.4626 -0.8602
  485MOL0     H65466   5.128   7.613   1.378  0.6389  1.7100 -0.6622
  485MOL0     H65467   5.238   7.698   1.188  0.9463  0.2943 -2.2220
  485MOL0     H65468   5.245   7.546   1.105  0.3423  0.5111  0.5068
  485MOL0     H65469   5.381   7.474   1.339  2.3842 -1.3163 -2.5273
  485MOL0     H65470   5.386   7.637   1.372  1.6805 -0.5104  0.3666
  485MOL0     H65471   5.503   7.476   1.132  0.0476 -0.5811  0.0811
  485MOL0     H65472   5.595   7.561   1.264 -0.4019  0.9665  1.6046
  485MOL0     H65473   5.546   7.840   0.949  1.8756  1.6494  0.4111
  485MOL0     H65474   5.149   7.170   1.387 -0.4042  1.0152  2.7488
  485MOL0     H65475   4.953   7.021   1.448  1.2248  0.2627  0.8855
  486MOL0     O65476  10.557   3.626   4.169 -0.1837 -0.0617 -0.1988
  486MOL0     C65477  10.666   3.692   4.155 -0.1117  0.2681 -0.2741
  486MOL0     O65478  10.671   3.824   4.160 -0.0407  0.1068  0.0042
  486MOL0     C65479  10.571   3.907   4.211 -0.2061  0.2040  0.5107
  486MOL0     C65480  10.461   3.876   4.288 -0.0795 -0.8978 -0.3305
  486MOL0     C65481  10.372   3.977   4.332  0.1162  0.0864  0.9075
  486MOL0     C65482  10.393   4.110   4.292  0.2794  0.6878 -0.5015
  486MOL0     O65483  10.302   4.216   4.305 -0.3201  0.4815  0.4518
  486MOL0     C65484  10.165   4.183   4.340  0.3134 -0.7298 -0.1000
  486MOL0     C65485  10.079   4.306   4.361 -0.3071 -0.6362 -0.1480
  486MOL0     C65486   9.941   4.257   4.398  0.5614 -0.0524  0.3484
  486MOL0     C65487   9.859   4.355   4.489  0.6087 -0.1730 -0.1743
  486MOL0     C65488   9.705   4.319   4.490 -0.0542  0.0931  0.1060
  486MOL0     C65489   9.625   4.443   4.522 -1.1560 -0.1377 -0.6542
  486MOL0     C65490   9.470   4.428   4.515 -0.8739  0.0786  0.4930
  486MOL0     C65491   9.417   4.332   4.625  0.8336 -0.1799  0.0457
  486MOL0     N65492   9.275   4.378   4.655  0.8835 -0.6352 -0.4345
  486MOL0     C65493   9.165   4.344   4.580 -0.6269 -0.5248  0.5943
  486MOL0     C65494   9.066   4.381   4.656 -0.1373  0.2386 -0.0450
  486MOL0     C65495   8.918   4.376   4.619 -0.9882  0.0042  0.1275
  486MOL0     C65496   8.839   4.419   4.743  0.2963 -0.0905 -0.0186
  486MOL0     C65497   8.689   4.405   4.719 -0.3009 -0.9310 -0.2212
  486MOL0     C65498   8.594   4.435   4.837  0.2432  0.1302  0.8922
  486MOL0     O65499   8.457   4.405   4.792  0.6676 -0.3433  0.2542
  486MOL0     C65500   8.354   4.404   4.893 -0.3480 -0.2448  0.0895
  486MOL0     C65501   8.381   4.435   5.029 -0.3516  0.6269  0.3116
  486MOL0     C65502   8.272   4.461   5.120 -0.3268  0.0988  1.2923
  486MOL0     C65503   8.300   4.512   5.250  0.2455 -0.4379 -0.2734
  486MOL0     C65504   8.137   4.442   5.074 -0.6732 -1.2052 -0.3643
  486MOL0     C65505   8.023   4.469   5.165 -0.4524 -0.6611  0.1136
  486MOL0     O65506   8.034   4.466   5.300  0.3229  0.0437 -0.9897
  486MOL0     C65507   7.926   4.486   5.391 -0.0663  0.7711  0.4078
  486MOL0     C65508   7.786   4.447   5.369 -0.9623 -0.1688 -0.1251
  486MOL0     C65509   7.686   4.491   5.466  0.4067 -0.4294  0.1296
  486MOL0     C65510   7.724   4.565   5.575  0.3588 -0.4385 -0.4219
  486MOL0     O65511   7.628   4.614   5.658 -0.1485  0.2814  0.0851
  486MOL0     C65512   7.578   4.514   5.748  0.2889  0.0627 -0.3238
  486MOL0     C65513   7.456   4.584   5.824 -0.3471  0.2276  0.5331
  486MOL0     C65514   7.329   4.600   5.739  0.5672  0.0843 -0.7322
  486MOL0     C65515   7.240   4.483   5.764 -0.8243 -0.2698 -0.0687
  486MOL0     C65516   7.106   4.491   5.684  1.0357  0.1860 -0.5415
  486MOL0     C65517   7.024   4.366   5.725 -0.2068 -0.5177  0.1888
  486MOL0     C65518   6.895   4.357   5.629 -0.0971  0.5730 -0.3433
  486MOL0     C65519   6.837   4.216   5.636  0.1754 -0.0378  0.0963
  486MOL0    Cl65520   6.928   4.077   5.580 -0.5087  0.0872  0.3768
  486MOL0     C65521   7.860   4.582   5.593  0.1845  0.5870 -0.7645
  486MOL0     C65522   7.959   4.548   5.508 -0.6069 -0.1542 -0.8143
  486MOL0     O65523   7.919   4.505   5.106  0.3801  0.1103  0.4312
  486MOL0     C65524   8.119   4.389   4.943 -0.3109  0.5150 -0.4688
  486MOL0     C65525   8.225   4.370   4.855 -0.2454 -1.3969 -0.0575
  486MOL0     N65526   9.107   4.432   4.774 -0.1418  0.1174 -0.7865
  486MOL0     N65527   9.235   4.441   4.773  0.1778 -0.5203 -0.2106
  486MOL0     C65528  10.507   4.141   4.215 -0.9413  0.2415 -0.0440
  486MOL0     C65529  10.600   4.040   4.179 -0.3425  0.3963  0.4097
  486MOL0     C65530  10.781   3.621   4.100 -0.2962 -0.0935  0.4096
  486MOL0     C65531  10.772   3.485   4.062  0.1242  0.3812 -0.2689
  486MOL0     C65532  10.873   3.418   4.003 -0.3789  0.5720 -0.3187
  486MOL0     C65533  10.998   3.488   3.976  1.1884 -0.3110  0.4278
  486MOL0     O65534  11.100   3.413   3.915  0.0821 -0.4814 -0.1846
  486MOL0     C65535  11.231   3.477   3.886  1.5588  0.5095  0.2668
  486MOL0     C65536  11.320   3.462   4.010 -1.2795 -0.0898  0.0372
  486MOL0     C65537  11.376   3.320   4.005 -0.8087 -0.2877 -0.6739
  486MOL0     C65538  11.463   3.275   4.124  0.5731  0.1353 -0.4199
  486MOL0     C65539  11.392   3.297   4.251  0.5433  1.0373  0.3122
  486MOL0     C65540  11.334   3.289   4.354 -0.6012  0.6208  0.7324
  486MOL0     C65541  11.016   3.622   4.025 -0.7297 -0.1028  0.3250
  486MOL0     C65542  10.905   3.683   4.078  0.9525 -0.2708 -0.1282
  486MOL0     H65543  10.430   3.776   4.317 -0.8020 -0.2447  1.2941
  486MOL0     H65544  10.285   3.942   4.386  0.4541 -0.2665  1.2294
  486MOL0     H65545  10.113   4.121   4.266 -0.2512 -0.9931  0.5098
  486MOL0     H65546  10.179   4.125   4.431  3.9673 -0.8368 -0.5796
  486MOL0     H65547  10.119   4.367   4.442  0.0238 -1.5397  0.3740
  486MOL0     H65548  10.075   4.363   4.267  1.9347 -1.2918 -0.7098
  486MOL0     H65549   9.886   4.231   4.307  0.5009  0.2387  0.3009
  486MOL0     H65550   9.953   4.163   4.454  2.5007 -0.2384 -0.3049
  486MOL0     H65551   9.895   4.340   4.591  0.9631 -1.7562 -0.5082
  486MOL0     H65552   9.875   4.452   4.440  0.2688 -0.4026 -0.7516
  486MOL0     H65553   9.677   4.292   4.388 -0.6733  1.9613 -0.2695
  486MOL0     H65554   9.680   4.236   4.556 -1.3533 -1.1250 -1.8297
  486MOL0     H65555   9.654   4.473   4.623  2.1052 -1.4931 -1.0636
  486MOL0     H65556   9.651   4.523   4.452 -1.2183  0.5986  0.1474
  486MOL0     H65557   9.437   4.531   4.533  1.1942  1.0696 -0.9312
  486MOL0     H65558   9.433   4.414   4.413 -2.3705 -1.1615  1.1576
  486MOL0     H65559   9.472   4.335   4.720 -0.5993  1.7756  0.9012
  486MOL0     H65560   9.415   4.231   4.585 -0.5294 -0.8344  1.6347
  486MOL0     H65561   9.166   4.287   4.488  0.6199  1.4886 -0.7092
  486MOL0     H65562   8.901   4.443   4.534 -1.1809  0.3637  0.4513
  486MOL0     H65563   8.884   4.275   4.593  1.2538 -0.5203 -1.0485
  486MOL0     H65564   8.870   4.519   4.772 -1.3585  1.0575 -1.9602
  486MOL0     H65565   8.865   4.343   4.818  0.6778  0.4528  0.4011
  486MOL0     H65566   8.666   4.308   4.673  0.4200 -0.3041 -2.0032
  486MOL0     H65567   8.675   4.479   4.639 -0.5015  0.6666  1.2406
  486MOL0     H65568   8.610   4.536   4.877 -0.3533 -0.2707  2.1625
  486MOL0     H65569   8.626   4.367   4.916 -1.8448  0.6754  2.3057
  486MOL0     H65570   8.483   4.441   5.067 -0.8267 -3.1955  2.7646
  486MOL0     H65571   8.400   4.556   5.252  1.4951 -3.1050 -1.0288
  486MOL0     H65572   8.234   4.595   5.278 -0.5392 -1.6207  1.6039
  486MOL0     H65573   8.300   4.435   5.328  2.6162 -3.2913 -2.8398
  486MOL0     H65574   7.753   4.390   5.283 -0.7022  0.6932 -0.8136
  486MOL0     H65575   7.581   4.463   5.469  0.1946  0.0903 -1.4198
  486MOL0     H65576   7.544   4.426   5.693  0.2011  0.4463 -0.9011
  486MOL0     H65577   7.651   4.480   5.822  0.3702  0.5122 -0.1956
  486MOL0     H65578   7.433   4.525   5.913  0.0834 -0.8511 -0.0491
  486MOL0     H65579   7.490   4.685   5.845 -2.4073  1.1107 -0.0818
  486MOL0     H65580   7.348   4.586   5.633  1.7763 -1.1412 -0.3845
  486MOL0     H65581   7.278   4.697   5.744 -0.6675 -0.2893 -3.9121
  486MOL0     H65582   7.295   4.389   5.754 -0.5887 -0.0565 -0.9575
  486MOL0     H65583   7.214   4.489   5.870  5.0359  0.4450  1.6945
  486MOL0     H65584   7.132   4.498   5.578  0.1841  1.5627 -0.6797
  486MOL0     H65585   7.042   4.577   5.709  0.9806 -0.1864  0.6601
  486MOL0     H65586   7.083   4.278   5.698 -1.0052 -0.9455 -0.1806
  486MOL0     H65587   7.007   4.367   5.834  3.0559  0.3618  0.8041
  486MOL0     H65588   6.935   4.383   5.531  0.7120  2.0288  0.3395
  486MOL0     H65589   6.823   4.435   5.658  2.9477  3.6610 -0.5070
  486MOL0     H65590   6.743   4.206   5.580  1.2195 -1.2533 -1.5543
  486MOL0     H65591   6.824   4.198   5.743  1.8248 -2.5831 -0.0563
  486MOL0     H65592   7.879   4.645   5.680 -3.7031 -0.4527  1.0834
  486MOL0     H65593   8.063   4.574   5.527 -0.4411 -0.9391 -0.6111
  486MOL0     H65594   8.016   4.379   4.909 -0.4642  1.2650 -0.2424
  486MOL0     H65595   8.205   4.339   4.753 -2.6826 -0.0670 -0.0572
  486MOL0     H65596  10.543   4.240   4.190  0.5446 -0.5217 -1.1117
  486MOL0     H65597  10.691   4.062   4.124 -0.2657 -1.8351 -0.4267
  486MOL0     H65598  10.679   3.430   4.069 -0.0701  0.6368 -0.7547
  486MOL0     H65599  10.856   3.327   3.946 -2.8586  1.9030 -1.8839
  486MOL0     H65600  11.269   3.426   3.797 -0.1243  0.9330 -0.7418
  486MOL0     H65601  11.216   3.578   3.847  1.2543  0.5342  0.4477
  486MOL0     H65602  11.259   3.474   4.100 -3.2235 -0.1920 -1.2145
  486MOL0     H65603  11.394   3.543   4.003 -3.1064  1.7076  0.4161
  486MOL0     H65604  11.444   3.313   3.919 -0.8399  0.0162 -0.7235
  486MOL0     H65605  11.285   3.261   3.999 -2.4755  1.8289  1.7237
  486MOL0     H65606  11.558   3.329   4.117  0.5174  0.2765 -0.0924
  486MOL0     H65607  11.486   3.170   4.104  2.6447  0.3423  0.5892
  486MOL0     H65608  11.280   3.269   4.445  1.5889 -2.5496  1.5129
  486MOL0     H65609  11.107   3.678   4.010 -0.5594  0.4327  2.8984
  486MOL0     H65610  10.915   3.788   4.101  2.5324 -0.2622 -0.7637
  487MOL0     O65611   6.498   0.221   2.179  0.1100 -0.6722  0.3276
  487MOL0     C65612   6.525   0.336   2.224  0.0456 -0.6254 -0.2041
  487MOL0     O65613   6.439   0.430   2.256 -0.5195  0.4366 -0.0426
  487MOL0     C65614   6.301   0.427   2.227 -0.1563  0.1746  0.3017
  487MOL0     C65615   6.220   0.511   2.297 -0.4575 -0.0153  0.3188
  487MOL0     C65616   6.079   0.508   2.294 -0.4480  0.0525 -0.5234
  487MOL0     C65617   6.019   0.423   2.207 -0.1823 -0.7159 -0.0867
  487MOL0     O65618   5.884   0.427   2.215  0.0808 -0.0546 -0.0232
  487MOL0     C65619   5.804   0.329   2.159 -0.5088  0.0569 -0.2993
  487MOL0     C65620   5.686   0.320   2.248 -0.0764  0.7836  0.1868
  487MOL0     C65621   5.719   0.241   2.374 -0.9360  0.4322  0.6258
  487MOL0     C65622   5.728   0.099   2.342 -0.3638  0.1066 -0.1520
  487MOL0     C65623   5.734   0.007   2.467  0.4295 -0.2195 -0.0706
  487MOL0     C65624   5.602  -0.012   2.528  0.2202  0.1476  0.1411
  487MOL0     C65625   5.604  -0.103   2.653 -0.6874 -1.2587  0.3441
  487MOL0     C65626   5.658  -0.036   2.777 -0.8405  0.2778 -0.8960
  487MOL0     N65627   5.603  -0.098   2.895 -1.0271 -0.0851  0.1205
  487MOL0     C65628   5.468  -0.119   2.918  0.3093 -0.1482  0.1829
  487MOL0     C65629   5.467  -0.198   3.027 -0.8930  0.4880  0.1644
  487MOL0     C65630   5.342  -0.252   3.085 -0.4071 -0.7083  0.6328
  487MOL0     C65631   5.272  -0.137   3.180 -0.0430  0.0421  0.5578
  487MOL0     C65632   5.171  -0.052   3.099 -0.0324 -0.4435 -0.4067
  487MOL0     C65633   5.023  -0.104   3.096  0.0232  0.3077  0.2964
  487MOL0     O65634   5.024  -0.220   3.009  0.4458 -0.4534 -0.4847
  487MOL0     C65635   4.919  -0.307   3.003 -0.1914  0.5093  0.0098
  487MOL0     C65636   4.925  -0.413   2.916  0.3527  1.0008  0.1490
  487MOL0     C65637   4.822  -0.513   2.901 -0.1875 -0.0633  0.1574
  487MOL0     C65638   4.846  -0.629   2.812  0.3607 -0.2003  0.4922
  487MOL0     C65639   4.714  -0.503   2.990  0.3399 -0.2716 -0.3307
  487MOL0     C65640   4.598  -0.603   3.005  0.9079 -0.7582 -0.2528
  487MOL0     O65641   4.532  -0.597   3.124  0.1936 -0.4884 -0.0432
  487MOL0     C65642   4.405  -0.651   3.138  0.6353  1.4746  1.0354
  487MOL0     C65643   4.292  -0.571   3.155  0.3988 -0.5234  0.4682
  487MOL0     C65644   4.170  -0.622   3.182  0.6333 -0.1747 -0.6105
  487MOL0     C65645   4.149  -0.767   3.180  0.7144 -1.0043  0.2514
  487MOL0     O65646   4.021  -0.826   3.200  0.3005  0.3530 -0.9886
  487MOL0     C65647   3.916  -0.785   3.107  0.0981  0.2345  0.3178
  487MOL0     C65648   3.804  -0.879   3.147  0.2434  0.8097 -0.1242
  487MOL0     C65649   3.674  -0.858   3.072 -0.7431  0.1667  0.0455
  487MOL0     C65650   3.571  -0.946   3.140  0.2362 -0.2166 -0.6910
  487MOL0     C65651   3.431  -0.947   3.084 -0.5248  0.4532 -0.7570
  487MOL0     C65652   3.367  -0.807   3.082  0.1659  0.6906 -0.1892
  487MOL0     C65653   3.227  -0.818   3.006  0.1035 -0.5027 -0.7058
  487MOL0     C65654   3.135  -0.699   3.043  0.3602  0.1132  0.3025
  487MOL0    Cl65655   3.206  -0.529   3.014 -0.1928  0.3145  0.2701
  487MOL0     C65656   4.258  -0.850   3.156 -0.3238 -0.0839  0.2025
  487MOL0     C65657   4.388  -0.790   3.141  0.0057  0.9293  0.5285
  487MOL0     O65658   4.554  -0.664   2.908  0.0212  0.0145 -0.0983
  487MOL0     C65659   4.704  -0.389   3.082 -0.0719 -0.3650 -0.4068
  487MOL0     C65660   4.801  -0.290   3.078 -0.4109 -0.4266 -0.5210
  487MOL0     N65661   5.598  -0.222   3.069 -0.4882  0.5965 -0.4153
  487MOL0     N65662   5.679  -0.152   2.999  0.0237  0.5430 -0.0745
  487MOL0     C65663   6.096   0.340   2.126  0.3764  1.2852  0.0857
  487MOL0     C65664   6.236   0.344   2.132  0.1958 -0.2933  1.1711
  487MOL0     C65665   6.667   0.354   2.226 -0.0515 -0.0990  0.0803
  487MOL0     C65666   6.723   0.473   2.279 -0.1625 -0.4858  0.9026
  487MOL0     C65667   6.860   0.497   2.274 -0.0577 -0.0625 -0.9969
  487MOL0     C65668   6.947   0.396   2.237 -0.6191  0.2142  0.1232
  487MOL0     O65669   7.088   0.393   2.238  0.1214  0.4265  0.3549
  487MOL0     C65670   7.149   0.521   2.269 -1.0704 -0.1832  0.5727
  487MOL0     C65671   7.296   0.514   2.285  0.5816  0.0111 -1.1231
  487MOL0     C65672   7.365   0.493   2.157  0.4361 -0.1542  0.1829
  487MOL0     C65673   7.513   0.458   2.150  0.3670  0.6920  0.1812
  487MOL0     C65674   7.612   0.560   2.185 -0.9489 -0.2844  0.1532
  487MOL0     C65675   7.709   0.632   2.205  0.5660 -0.1747 -0.3663
  487MOL0     C65676   6.897   0.274   2.193  0.8245  0.2247  0.0602
  487MOL0     C65677   6.760   0.252   2.198 -0.1753  0.9217  0.3834
  487MOL0     H65678   6.277   0.585   2.351  2.0275  0.3796 -2.6081
  487MOL0     H65679   6.020   0.568   2.363 -1.0669 -0.8033 -0.2903
  487MOL0     H65680   5.766   0.357   2.060 -3.5180 -1.7356  0.2119
  487MOL0     H65681   5.862   0.237   2.153  0.9354  0.9826 -1.0795
  487MOL0     H65682   5.658   0.425   2.265 -1.0098  0.5955 -0.1495
  487MOL0     H65683   5.602   0.283   2.189 -1.3340  0.2806  2.1719
  487MOL0     H65684   5.819   0.271   2.405  0.0036 -2.1820  0.4027
  487MOL0     H65685   5.653   0.255   2.460 -1.0366  0.5740  0.5242
  487MOL0     H65686   5.639   0.084   2.280 -1.3575 -1.6373  1.5836
  487MOL0     H65687   5.817   0.079   2.281 -1.7591  1.3330 -2.7420
  487MOL0     H65688   5.771  -0.090   2.432 -1.3200 -1.0167  0.1948
  487MOL0     H65689   5.806   0.034   2.544 -1.2106 -1.8313  2.1572
  487MOL0     H65690   5.562   0.084   2.561 -0.8671 -1.0701  2.5736
  487MOL0     H65691   5.540  -0.074   2.464  2.0179 -1.7236  0.0991
  487MOL0     H65692   5.502  -0.142   2.667 -1.0075 -0.7125 -0.4107
  487MOL0     H65693   5.675  -0.185   2.635 -0.4578 -0.5111 -2.7728
  487MOL0     H65694   5.635   0.071   2.774  0.7782  0.7272  0.6985
  487MOL0     H65695   5.768  -0.035   2.780 -0.7647  2.7888 -1.9219
  487MOL0     H65696   5.378  -0.091   2.864 -0.8503 -4.0535 -0.2231
  487MOL0     H65697   5.279  -0.287   3.003 -0.9527 -0.2789  0.8603
  487MOL0     H65698   5.367  -0.340   3.144 -3.1663 -0.3299  2.5571
  487MOL0     H65699   5.345  -0.066   3.221 -0.2707  1.4570 -1.3235
  487MOL0     H65700   5.214  -0.186   3.259 -0.9134 -0.7590 -0.5523
  487MOL0     H65701   5.206  -0.036   2.997 -0.5926  2.0215 -0.2762
  487MOL0     H65702   5.166   0.050   3.136 -1.0293 -0.5425 -0.2246
  487MOL0     H65703   4.962  -0.024   3.052 -1.1173 -0.0779  1.1399
  487MOL0     H65704   4.973  -0.132   3.189 -1.0587 -0.8181 -0.5792
  487MOL0     H65705   5.013  -0.420   2.853  0.5871  0.1864  0.5603
  487MOL0     H65706   4.949  -0.648   2.781  0.0716  1.1319 -1.5137
  487MOL0     H65707   4.813  -0.725   2.852  2.1676 -0.6185  1.0817
  487MOL0     H65708   4.803  -0.591   2.718 -0.7930  1.4566  1.6326
  487MOL0     H65709   4.312  -0.465   3.163  3.8070 -1.1381  2.0984
  487MOL0     H65710   4.084  -0.557   3.196  0.2649 -0.5557 -1.0361
  487MOL0     H65711   3.893  -0.679   3.123 -1.3806  0.3373 -1.9522
  487MOL0     H65712   3.951  -0.799   3.004 -0.0132 -0.6757  0.3897
  487MOL0     H65713   3.837  -0.982   3.131 -0.7216  0.5684 -0.6343
  487MOL0     H65714   3.780  -0.873   3.254 -2.0381 -1.2035 -0.4438
  487MOL0     H65715   3.699  -0.879   2.967 -2.3017  3.1310 -1.0563
  487MOL0     H65716   3.649  -0.752   3.070 -0.3733  0.2466 -0.5612
  487MOL0     H65717   3.610  -1.048   3.131 -0.3298 -0.3679 -1.6351
  487MOL0     H65718   3.564  -0.912   3.243  1.4381  1.0594 -1.0039
  487MOL0     H65719   3.367  -1.005   3.151 -1.4737  4.9431  2.7348
  487MOL0     H65720   3.437  -0.988   2.983  1.7714 -0.1361 -0.4447
  487MOL0     H65721   3.349  -0.780   3.186 -1.8813  0.6666 -0.5014
  487MOL0     H65722   3.433  -0.737   3.030  1.7739 -0.0164  0.8076
  487MOL0     H65723   3.168  -0.907   3.031  0.7194 -0.4231  1.1674
  487MOL0     H65724   3.254  -0.809   2.901  3.9221 -0.0712  0.1778
  487MOL0     H65725   3.088  -0.698   3.142 -0.9561  0.9983 -0.2989
  487MOL0     H65726   3.043  -0.709   2.984 -1.0856  2.2377  2.0292
  487MOL0     H65727   4.254  -0.958   3.148  0.8225 -0.1819  0.7636
  487MOL0     H65728   4.471  -0.859   3.142 -0.8429 -0.2815 -2.3508
  487MOL0     H65729   4.622  -0.378   3.152  0.8093  1.5314  0.3825
  487MOL0     H65730   4.791  -0.211   3.152 -0.1228 -0.4111 -0.4977
  487MOL0     H65731   6.052   0.258   2.070  1.4247  0.6347  0.1884
  487MOL0     H65732   6.293   0.270   2.077 -0.7387 -1.9327  2.3048
  487MOL0     H65733   6.661   0.548   2.328 -1.7099 -0.5446 -0.8764
  487MOL0     H65734   6.889   0.596   2.309 -1.3276 -0.0239  0.0295
  487MOL0     H65735   7.126   0.597   2.193  1.1219  1.7873  1.7572
  487MOL0     H65736   7.112   0.553   2.367 -0.8939  3.1627 -0.3547
  487MOL0     H65737   7.327   0.439   2.358  0.0776  1.2052  0.3634
  487MOL0     H65738   7.321   0.614   2.322 -3.2445  0.6031  0.3177
  487MOL0     H65739   7.355   0.591   2.109  1.1139  0.7389  1.7821
  487MOL0     H65740   7.313   0.417   2.099 -2.0443  0.1711  1.8651
  487MOL0     H65741   7.521   0.427   2.045  0.1277  0.4072  0.2474
  487MOL0     H65742   7.529   0.364   2.202  1.2119  1.5587  1.5447
  487MOL0     H65743   7.796   0.694   2.211  1.3299 -1.0303 -1.8012
  487MOL0     H65744   6.969   0.199   2.165 -0.0504 -0.2464 -0.9632
  487MOL0     H65745   6.722   0.156   2.164  0.1944  1.5032 -1.8375
  488MOL0     O65746   9.749   3.717   1.054  0.7256  0.5566  0.1278
  488MOL0     C65747   9.716   3.823   0.999  0.1228 -0.2068  0.4614
  488MOL0     O65748   9.589   3.849   0.952 -0.3501  0.4098  0.0062
  488MOL0     C65749   9.484   3.768   0.974  0.3404 -0.2469 -0.0267
  488MOL0     C65750   9.489   3.629   0.987 -0.8874  0.0424 -0.7528
  488MOL0     C65751   9.375   3.561   1.003 -0.1697  0.4357  0.6561
  488MOL0     C65752   9.249   3.627   1.011  0.4994 -0.4922 -0.2364
  488MOL0     O65753   9.126   3.566   1.044  0.6495  0.1262  0.4965
  488MOL0     C65754   9.120   3.486   1.160 -1.2320  0.4064  0.4403
  488MOL0     C65755   8.969   3.474   1.193 -0.2664 -0.0268  0.4793
  488MOL0     C65756   8.924   3.620   1.224 -0.6016 -0.1673  0.5840
  488MOL0     C65757   8.771   3.635   1.226 -0.5847 -0.0084 -0.1686
  488MOL0     C65758   8.701   3.555   1.333 -0.9904  0.3979 -0.2054
  488MOL0     C65759   8.551   3.593   1.324  0.2052  0.3143 -0.0360
  488MOL0     C65760   8.467   3.510   1.417  1.1183 -0.4687 -0.7610
  488MOL0     C65761   8.319   3.548   1.420 -0.2514 -0.6425  0.2634
  488MOL0     N65762   8.301   3.657   1.511  0.1692  0.3586  0.3330
  488MOL0     C65763   8.274   3.655   1.641  0.5658  0.0815 -0.3750
  488MOL0     C65764   8.264   3.785   1.679 -0.7870 -0.0172 -0.4491
  488MOL0     C65765   8.214   3.818   1.809  0.3323 -0.1694 -0.9601
  488MOL0     C65766   8.067   3.782   1.846 -0.2434  0.0691 -0.5748
  488MOL0     C65767   7.970   3.770   1.726 -0.0584 -0.3291 -0.3206
  488MOL0     C65768   7.822   3.758   1.768  0.1508  0.3951 -0.0064
  488MOL0     O65769   7.755   3.889   1.763  0.0652 -0.3006 -0.2733
  488MOL0     C65770   7.623   3.889   1.744  0.2291  0.1021  0.8077
  488MOL0     C65771   7.544   3.893   1.856 -0.2650  0.3219 -0.3432
  488MOL0     C65772   7.407   3.890   1.843  0.0592 -0.5981  0.4145
  488MOL0     C65773   7.335   3.896   1.977  0.0439 -0.8687 -0.6714
  488MOL0     C65774   7.348   3.898   1.713  0.2838 -0.1213  0.3884
  488MOL0     C65775   7.195   3.910   1.691 -0.0886 -0.0166  0.8916
  488MOL0     O65776   7.165   3.977   1.576  0.6668  0.1118 -0.2174
  488MOL0     C65777   7.032   3.990   1.542  0.2368  1.2041 -0.3856
  488MOL0     C65778   6.959   3.885   1.482 -0.8974 -0.4379  0.5880
  488MOL0     C65779   6.832   3.918   1.436  0.4485 -0.2070  0.1130
  488MOL0     C65780   6.767   4.035   1.482 -0.5467  1.2362 -0.2078
  488MOL0     O65781   6.641   4.071   1.444  0.4258  0.2464 -0.0672
  488MOL0     C65782   6.614   4.041   1.304  0.7880 -0.9202  0.6406
  488MOL0     C65783   6.501   4.130   1.249  0.4822  0.4894  0.4158
  488MOL0     C65784   6.370   4.142   1.327 -0.3319  0.2591 -0.2958
  488MOL0     C65785   6.286   4.264   1.290  0.5193  0.1438 -1.1145
  488MOL0     C65786   6.167   4.275   1.388 -0.7311  0.2103  0.6273
  488MOL0     C65787   6.061   4.376   1.335  0.3719  0.0173  0.3947
  488MOL0     C65788   5.972   4.414   1.453  0.1819 -0.1226  0.1003
  488MOL0     C65789   5.877   4.528   1.415 -0.2008  0.1516  0.2559
  488MOL0    Cl65790   5.739   4.545   1.536 -0.1450 -0.2657  0.2008
  488MOL0     C65791   6.838   4.127   1.549 -0.0270 -0.2527  0.9124
  488MOL0     C65792   6.968   4.112   1.574 -0.3802 -0.5178 -0.5070
  488MOL0     O65793   7.118   3.879   1.780  0.1340  0.0495  0.0761
  488MOL0     C65794   7.432   3.887   1.597 -0.6813  0.2598 -0.0179
  488MOL0     C65795   7.572   3.886   1.616 -0.3431  0.9128 -0.7851
  488MOL0     N65796   8.280   3.861   1.571  1.1411 -0.2430 -0.4744
  488MOL0     N65797   8.292   3.786   1.471 -0.3778  0.6382  0.1100
  488MOL0     C65798   9.249   3.764   0.987 -0.2523  0.2320  0.2484
  488MOL0     C65799   9.364   3.830   0.951  0.6411  0.1091  0.6963
  488MOL0     C65800   9.823   3.922   0.964  0.2964 -1.0560  0.1949
  488MOL0     C65801   9.777   4.052   0.926  0.3098  0.6142 -0.5169
  488MOL0     C65802   9.869   4.152   0.888  0.2606 -0.9367  0.3360
  488MOL0     C65803  10.000   4.123   0.874 -0.1719 -0.5289  0.6968
  488MOL0     O65804  10.082   4.225   0.828 -0.2508 -0.4926  0.1369
  488MOL0     C65805  10.219   4.189   0.786  0.5331  0.4096  0.2745
  488MOL0     C65806  10.263   4.312   0.706  0.0113  0.4114 -0.1246
  488MOL0     C65807  10.404   4.312   0.640 -0.1895  0.1216  0.5942
  488MOL0     C65808  10.461   4.443   0.602  0.3806 -0.0275  0.4935
  488MOL0     C65809  10.388   4.503   0.490  0.1210  0.0710 -1.0398
  488MOL0     C65810  10.351   4.574   0.392  0.7959  0.3286 -0.0088
  488MOL0     C65811  10.047   4.002   0.915  0.2666 -0.1548  0.2055
  488MOL0     C65812   9.961   3.896   0.959  0.0182 -0.0327 -0.0210
  488MOL0     H65813   9.583   3.575   0.985 -0.6749  0.4316 -1.7952
  488MOL0     H65814   9.378   3.453   1.017 -0.9726  0.4236  0.8193
  488MOL0     H65815   9.174   3.392   1.147  0.8563  1.7644 -1.3422
  488MOL0     H65816   9.180   3.522   1.245 -0.2207  1.9403 -0.8465
  488MOL0     H65817   8.909   3.433   1.110  1.2961  3.5569 -2.7211
  488MOL0     H65818   8.948   3.421   1.286 -1.0511  1.3151  1.0784
  488MOL0     H65819   8.974   3.659   1.313 -0.9580 -1.9303  1.6160
  488MOL0     H65820   8.957   3.685   1.142 -2.6928 -1.4243 -1.3947
  488MOL0     H65821   8.745   3.741   1.231 -1.8160 -0.1251 -2.5510
  488MOL0     H65822   8.731   3.607   1.128  1.4845  2.2896 -1.8059
  488MOL0     H65823   8.715   3.447   1.319 -0.1004  0.6056 -0.9286
  488MOL0     H65824   8.751   3.573   1.429 -0.0526 -0.6818 -0.4685
  488MOL0     H65825   8.529   3.698   1.346  1.4125  0.9756 -1.7265
  488MOL0     H65826   8.523   3.576   1.219 -0.1568 -0.0201  0.1121
  488MOL0     H65827   8.480   3.404   1.396 -1.1700 -0.7901 -0.8329
  488MOL0     H65828   8.509   3.511   1.518  1.0201  1.3298 -0.6971
  488MOL0     H65829   8.261   3.459   1.446 -0.4488 -1.0841 -1.5546
  488MOL0     H65830   8.278   3.572   1.322 -0.8046  1.2168  0.9110
  488MOL0     H65831   8.241   3.568   1.697 -1.7009 -0.0716 -1.7875
  488MOL0     H65832   8.280   3.767   1.880 -0.7682  0.3208  0.4790
  488MOL0     H65833   8.229   3.926   1.816  1.3213 -0.3949  1.2603
  488MOL0     H65834   8.043   3.864   1.915  1.3828  0.4867 -0.4506
  488MOL0     H65835   8.067   3.687   1.901  2.1309 -0.1966 -0.8925
  488MOL0     H65836   7.985   3.676   1.671 -0.7053 -1.2582  1.0116
  488MOL0     H65837   7.989   3.861   1.670 -1.4644  1.1998  1.5483
  488MOL0     H65838   7.808   3.707   1.864 -2.1981 -2.0610 -1.4774
  488MOL0     H65839   7.766   3.694   1.698 -2.4728  0.8721  1.5111
  488MOL0     H65840   7.588   3.893   1.955  0.1533  1.6842 -0.5159
  488MOL0     H65841   7.262   3.817   1.999 -1.9472  0.8129 -0.8323
  488MOL0     H65842   7.414   3.890   2.052  1.5648  2.1323 -1.8579
  488MOL0     H65843   7.274   3.987   1.986  0.4486 -0.5889 -0.7260
  488MOL0     H65844   6.999   3.790   1.446 -0.7702 -0.1919  0.0641
  488MOL0     H65845   6.786   3.845   1.370 -0.1209 -1.5434  1.8974
  488MOL0     H65846   6.700   4.052   1.238  1.4187  1.0546  1.7152
  488MOL0     H65847   6.586   3.935   1.302  1.6137 -1.1359 -0.6077
  488MOL0     H65848   6.544   4.230   1.240  1.1467  0.0396 -2.0898
  488MOL0     H65849   6.479   4.101   1.146  1.2643  2.0047 -0.1963
  488MOL0     H65850   6.388   4.143   1.435 -1.6190 -3.3895  0.1179
  488MOL0     H65851   6.313   4.051   1.303  1.5594 -0.8341 -0.9394
  488MOL0     H65852   6.341   4.358   1.306  0.5828  0.1526 -1.3841
  488MOL0     H65853   6.262   4.266   1.184 -2.9020  2.5468 -0.4609
  488MOL0     H65854   6.203   4.292   1.490 -1.6857  1.5605  0.7707
  488MOL0     H65855   6.128   4.173   1.383 -2.6673  0.9715 -1.3268
  488MOL0     H65856   6.108   4.460   1.283  1.0353 -0.8696 -0.4800
  488MOL0     H65857   5.993   4.325   1.266  1.1765 -0.6790  0.0962
  488MOL0     H65858   6.029   4.445   1.542  2.4353 -5.1930  0.7449
  488MOL0     H65859   5.911   4.327   1.478 -0.0332  0.0410  0.1495
  488MOL0     H65860   5.837   4.506   1.315 -2.5558  2.3306  0.6194
  488MOL0     H65861   5.934   4.621   1.405 -2.6068  1.4776 -3.0117
  488MOL0     H65862   6.786   4.219   1.574 -2.3893 -0.1180 -3.5798
  488MOL0     H65863   7.023   4.195   1.618  0.8060 -1.7296  0.4107
  488MOL0     H65864   7.399   3.876   1.494 -1.1322 -1.2067  0.2471
  488MOL0     H65865   7.631   3.893   1.525 -1.4441 -0.8907 -1.7038
  488MOL0     H65866   9.157   3.821   0.985  0.2595  1.0695  0.1219
  488MOL0     H65867   9.351   3.936   0.934 -0.5421  0.0561  1.2075
  488MOL0     H65868   9.671   4.076   0.921  0.0821 -0.2324  0.1380
  488MOL0     H65869   9.831   4.241   0.838  0.9146 -1.0043 -0.2918
  488MOL0     H65870  10.288   4.152   0.862  1.1637 -1.4832 -1.1378
  488MOL0     H65871  10.227   4.105   0.716  2.1733  1.2803 -0.6291
  488MOL0     H65872  10.258   4.394   0.777  2.8626  0.2807  0.3319
  488MOL0     H65873  10.193   4.331   0.624  0.2800 -4.1260 -1.7147
  488MOL0     H65874  10.401   4.256   0.546  1.3627 -0.3566  0.8021
  488MOL0     H65875  10.466   4.263   0.715 -3.0736 -2.2121  1.6895
  488MOL0     H65876  10.567   4.434   0.576  0.6535  1.7693  0.8813
  488MOL0     H65877  10.469   4.504   0.692  2.7176 -0.2008  0.4526
  488MOL0     H65878  10.316   4.634   0.311 -1.7221  1.6497  1.9204
  488MOL0     H65879  10.154   3.982   0.922  0.2064  0.0596  4.9289
  488MOL0     H65880   9.998   3.798   0.988 -0.9365 -0.5012 -0.3454
  489MOL0     O65881  10.046   9.998  10.718  0.2225  0.0429  0.4467
  489MOL0     C65882  10.158   9.970  10.761 -1.1360  0.7191  0.0712
  489MOL0     O65883  10.260  10.057  10.747 -1.4734 -0.7136  0.5377
  489MOL0     C65884  10.219  10.187  10.736  0.5555 -0.2124  1.0349
  489MOL0     C65885  10.170  10.243  10.848  0.6833 -0.3916 -0.9497
  489MOL0     C65886  10.127  10.372  10.848 -0.3802  0.3508  0.3255
  489MOL0     C65887  10.141  10.452  10.735 -0.0009  0.4582 -0.2162
  489MOL0     O65888  10.110  10.579  10.755  0.6268  0.0267  0.3487
  489MOL0     C65889  10.069  10.657  10.640 -0.5660  0.1614  0.8465
  489MOL0     C65890  10.039  10.801  10.677  1.0609  0.1757 -0.5924
  489MOL0     C65891   9.903  10.809  10.747  0.3909 -0.2155 -0.0257
  489MOL0     C65892   9.794  10.806  10.652 -0.3437  0.7785  0.2411
  489MOL0     C65893   9.655  10.794  10.724 -0.3307  0.0473 -0.1314
  489MOL0     C65894   9.605  10.940  10.759 -0.3103  0.2033  0.7060
  489MOL0     C65895   9.457  10.926  10.793 -0.1549  0.1450  0.3159
  489MOL0     C65896   9.455  10.929  10.946  0.1586  0.4975  0.2135
  489MOL0     N65897   9.318  10.934  10.989 -0.1994  0.8349  1.1661
  489MOL0     C65898   9.252  10.831  11.058 -0.1282 -0.0192  0.2278
  489MOL0     C65899   9.147  10.895  11.120  0.0435 -0.6943  0.6186
  489MOL0     C65900   9.063  10.832  11.223 -0.2296 -0.1958  0.1760
  489MOL0     C65901   8.953  10.744  11.174 -0.1895  0.7684 -0.6382
  489MOL0     C65902   8.860  10.692  11.285 -0.8598 -1.2355 -0.5270
  489MOL0     C65903   8.773  10.584  11.219 -0.1247  0.0700 -0.1603
  489MOL0     O65904   8.683  10.518  11.310  0.2485 -0.0493 -0.5151
  489MOL0     C65905   8.554  10.557  11.331 -0.1206  0.1945  0.1613
  489MOL0     C65906   8.492  10.673  11.276 -0.6771  0.2397  0.2091
  489MOL0     C65907   8.365  10.711  11.318 -0.3852 -0.2571  0.4754
  489MOL0     C65908   8.293  10.833  11.250  0.1891 -0.2032 -0.3714
  489MOL0     C65909   8.287  10.624  11.408 -1.2525 -0.5785  0.4876
  489MOL0     C65910   8.140  10.640  11.438  0.3422  0.5576  0.9509
  489MOL0     O65911   8.087  10.571  11.543 -0.2781 -0.6894 -0.0173
  489MOL0     C65912   7.955  10.579  11.582 -0.3898  0.0913 -0.1004
  489MOL0     C65913   7.853  10.535  11.499  0.1529 -0.1761  0.6029
  489MOL0     C65914   7.719  10.558  11.526  0.4125  0.9106  0.6300
  489MOL0     C65915   7.678  10.613  11.645  0.6195  0.7760 -0.2097
  489MOL0     O65916   7.541  10.632  11.673  0.3493 -0.6838  0.6366
  489MOL0     C65917   7.494  10.600  11.804  0.0694 -0.2745  0.1244
  489MOL0     C65918   7.354  10.542  11.799  0.1609 -0.6227 -0.0187
  489MOL0     C65919   7.337  10.413  11.703  0.9497 -0.0637  0.6426
  489MOL0     C65920   7.195  10.346  11.709  0.3045 -0.8135 -0.3382
  489MOL0     C65921   7.204  10.213  11.629 -0.1862 -0.3580  0.0669
  489MOL0     C65922   7.061  10.155  11.628  0.0359  0.6112  0.6884
  489MOL0     C65923   7.041  10.027  11.544 -0.0246 -0.6248  0.0928
  489MOL0     C65924   7.089   9.904  11.608  0.4377 -0.8114  1.0739
  489MOL0    Cl65925   7.009   9.894  11.767  0.2219 -0.1149  0.4803
  489MOL0     C65926   7.777  10.661  11.736  0.4392 -0.2292 -0.0417
  489MOL0     C65927   7.907  10.640  11.699 -0.2640  0.5253  0.9162
  489MOL0     O65928   8.070  10.703  11.359 -0.5750  0.0307 -0.0470
  489MOL0     C65929   8.354  10.511  11.449  0.3902  0.0505 -0.7908
  489MOL0     C65930   8.483  10.477  11.418  0.5217  0.1669 -0.9765
  489MOL0     N65931   9.143  11.022  11.071  0.1288  0.1656 -0.0496
  489MOL0     N65932   9.241  11.046  10.993  0.1586  0.1682 -0.5629
  489MOL0     C65933  10.204  10.400  10.617  0.7689 -0.2727  0.2005
  489MOL0     C65934  10.256  10.270  10.629 -0.4037 -0.1233  0.4998
  489MOL0     C65935  10.192   9.831  10.796 -0.4218 -0.4834  0.1755
  489MOL0     C65936  10.323   9.782  10.815  0.0464  0.1455  0.3472
  489MOL0     C65937  10.346   9.647  10.833 -0.5973  0.0326 -1.0294
  489MOL0     C65938  10.237   9.555  10.849  0.1862  0.0241 -0.1578
  489MOL0     O65939  10.250   9.419  10.869 -0.2185 -0.0141  0.1142
  489MOL0     C65940  10.385   9.360  10.877 -0.1837  1.0130  0.0233
  489MOL0     C65941  10.460   9.379  11.010 -0.2182 -0.3021  0.0171
  489MOL0     C65942  10.611   9.326  11.009 -0.0643 -1.3540 -0.4944
  489MOL0     C65943  10.718   9.408  10.930  0.2857 -1.1699 -0.4934
  489MOL0     C65944  10.727   9.540  10.996  0.4821  0.1112  0.1864
  489MOL0     C65945  10.769   9.638  11.056 -0.1076 -0.7658  0.7066
  489MOL0     C65946  10.103   9.604  10.840 -0.6084 -0.2984  0.5659
  489MOL0     C65947  10.086   9.742  10.819 -0.6870 -0.0189  0.4602
  489MOL0     H65948  10.163  10.181  10.937  0.7895  0.2447 -0.4874
  489MOL0     H65949  10.089  10.419  10.938 -3.4610  0.5721 -0.9621
  489MOL0     H65950  10.149  10.659  10.566 -0.3423  2.2266  1.0838
  489MOL0     H65951   9.986  10.605  10.591  0.5589  1.3513 -2.6415
  489MOL0     H65952  10.121  10.825  10.746 -0.3053 -2.6915  2.2775
  489MOL0     H65953  10.048  10.881  10.603 -0.4100  0.7962 -0.1483
  489MOL0     H65954   9.885  10.732  10.823 -2.7343 -0.1763 -0.5668
  489MOL0     H65955   9.907  10.906  10.797 -0.0943  1.0017 -2.2175
  489MOL0     H65956   9.803  10.887  10.580 -1.2953 -0.4778 -1.3573
  489MOL0     H65957   9.790  10.715  10.592 -2.5452  0.4179  0.8636
  489MOL0     H65958   9.580  10.747  10.659 -0.7315 -1.0328  1.0958
  489MOL0     H65959   9.658  10.731  10.813 -1.4772 -0.6016 -0.5272
  489MOL0     H65960   9.667  10.991  10.833 -1.9267  2.6669  0.4433
  489MOL0     H65961   9.617  11.002  10.669 -1.4581 -0.4620  0.0790
  489MOL0     H65962   9.398  11.001  10.741  1.3817  1.2693  0.1267
  489MOL0     H65963   9.418  10.831  10.754  2.8564 -0.5206 -1.4520
  489MOL0     H65964   9.502  11.023  10.976 -0.3341  1.5511 -2.1611
  489MOL0     H65965   9.517  10.848  10.987  1.1525  2.3926  2.7315
  489MOL0     H65966   9.289  10.730  11.073  2.3115  1.0361  2.0755
  489MOL0     H65967   9.129  10.764  11.278 -0.2417 -1.1693 -0.9425
  489MOL0     H65968   9.030  10.914  11.287  0.7420  2.0614 -2.0291
  489MOL0     H65969   9.005  10.662  11.124 -2.5468  0.9502 -3.6792
  489MOL0     H65970   8.892  10.804  11.105 -1.0145 -0.2347 -0.8092
  489MOL0     H65971   8.794  10.775  11.314  2.5417  0.4569  3.2220
  489MOL0     H65972   8.918  10.663  11.373 -0.1002  1.5266 -0.0398
  489MOL0     H65973   8.848  10.517  11.176  1.4972  2.0360 -0.5642
  489MOL0     H65974   8.711  10.625  11.139 -0.7470  0.7335  0.6391
  489MOL0     H65975   8.542  10.740  11.207 -0.9996  0.1992 -0.0674
  489MOL0     H65976   8.363  10.890  11.188  0.1057  0.4360  0.1173
  489MOL0     H65977   8.216  10.795  11.182 -0.4396  1.5962 -0.7191
  489MOL0     H65978   8.248  10.892  11.330  0.1617 -2.1816  1.1448
  489MOL0     H65979   7.874  10.490  11.403 -0.2192  0.2725  0.3053
  489MOL0     H65980   7.631  10.531  11.468 -1.5243  2.1476  2.7724
  489MOL0     H65981   7.563  10.529  11.853  0.2951 -1.6530 -2.0303
  489MOL0     H65982   7.501  10.697  11.854  0.4143  1.2217 -2.6402
  489MOL0     H65983   7.322  10.513  11.900  1.7726 -0.7392  0.4917
  489MOL0     H65984   7.281  10.618  11.771 -0.0176  0.4133  2.8876
  489MOL0     H65985   7.418  10.340  11.713 -1.2187 -2.4672  1.9748
  489MOL0     H65986   7.345  10.452  11.601  0.1313  0.6874  0.8528
  489MOL0     H65987   7.164  10.333  11.813 -0.0321 -0.4704 -0.3950
  489MOL0     H65988   7.124  10.414  11.663  3.0762  1.8043 -1.0660
  489MOL0     H65989   7.279  10.142  11.665  1.1734  0.8808 -0.2062
  489MOL0     H65990   7.238  10.230  11.526 -1.1840 -0.3042 -0.2564
  489MOL0     H65991   7.038  10.144  11.734  0.3124  0.2698  0.7156
  489MOL0     H65992   6.997  10.235  11.590 -0.1062  0.6451  0.9982
  489MOL0     H65993   7.087  10.043  11.446 -0.4994  2.8174  0.3043
  489MOL0     H65994   6.938   9.995  11.527 -0.5185  0.2540  1.2462
  489MOL0     H65995   7.199   9.904  11.614  0.5754  2.8356  0.8079
  489MOL0     H65996   7.056   9.817  11.550 -0.7695  0.2402  0.1414
  489MOL0     H65997   7.766  10.714  11.830 -3.2126 -1.6330  0.4773
  489MOL0     H65998   7.989  10.664  11.765 -0.7080 -0.6980  1.9357
  489MOL0     H65999   8.295  10.439  11.505  0.1902 -0.8841 -2.1450
  489MOL0     H66000   8.524  10.388  11.465  0.9245 -0.0957 -1.8054
  489MOL0     H66001  10.215  10.455  10.524  2.1846 -0.0247  0.4930
  489MOL0     H66002  10.309  10.228  10.545 -2.0656 -0.9268 -0.1946
  489MOL0     H66003  10.407   9.850  10.810 -2.3155  3.3273  0.5716
  489MOL0     H66004  10.449   9.616  10.850 -0.6716 -1.4879 -2.9528
  489MOL0     H66005  10.371   9.253  10.860 -0.1778  0.9464  0.4156
  489MOL0     H66006  10.447   9.400  10.796  0.1480 -1.6360 -1.1178
  489MOL0     H66007  10.398   9.339  11.090 -2.4130  1.4163 -0.7170
  489MOL0     H66008  10.466   9.486  11.034 -0.7619 -0.4088  0.6443
  489MOL0     H66009  10.598   9.228  10.963  0.3252 -1.6690  0.0599
  489MOL0     H66010  10.641   9.325  11.114  1.6130 -2.9169 -0.9325
  489MOL0     H66011  10.692   9.409  10.824 -1.8574  1.0719 -0.0387
  489MOL0     H66012  10.817   9.363  10.944  1.9850  2.3914  0.0728
  489MOL0     H66013  10.816   9.709  11.121  0.8599 -1.6718  1.0271
  489MOL0     H66014  10.027   9.526  10.839 -0.0610 -0.9049  2.4152
  489MOL0     H66015   9.980   9.767  10.825 -1.0608 -1.6746  1.3039
  490MOL0     O66016   4.209   3.806  10.467 -0.5750  0.0244  0.4255
  490MOL0     C66017   4.251   3.896  10.388  0.0943  0.8013 -0.1801
  490MOL0     O66018   4.173   3.982  10.311  0.0047  0.7375 -0.2942
  490MOL0     C66019   4.034   3.986  10.335  0.1789 -1.1114  0.4577
  490MOL0     C66020   3.941   3.964  10.233 -0.5048 -0.3440  0.1460
  490MOL0     C66021   3.805   3.951  10.257 -0.3241  0.2314 -1.1752
  490MOL0     C66022   3.754   3.958  10.385 -0.2161 -0.1415 -0.3705
  490MOL0     O66023   3.619   3.936  10.405 -0.4552 -0.0114 -0.8669
  490MOL0     C66024   3.553   4.020  10.505 -0.0177 -0.6422 -1.0351
  490MOL0     C66025   3.435   4.080  10.437  0.3638 -0.9905  1.2249
  490MOL0     C66026   3.331   4.154  10.524  0.2608 -0.2583 -0.5011
  490MOL0     C66027   3.236   4.052  10.594  0.4298 -0.0343  0.2128
  490MOL0     C66028   3.121   4.129  10.672 -0.2579  0.2487  0.6525
  490MOL0     C66029   3.004   4.034  10.715 -0.8952  0.2299 -0.2603
  490MOL0     C66030   3.062   3.942  10.831  0.5750 -0.5058  0.2884
  490MOL0     C66031   2.959   3.885  10.917  0.2276 -0.0175 -0.9425
  490MOL0     N66032   2.873   3.780  10.859 -0.3786  1.3947 -0.3780
  490MOL0     C66033   2.874   3.646  10.884 -0.2485  0.6458 -0.0786
  490MOL0     C66034   2.778   3.599  10.806 -0.7275 -0.5284 -0.0662
  490MOL0     C66035   2.744   3.457  10.789 -0.0227  0.2521 -0.5657
  490MOL0     C66036   2.696   3.409  10.647 -0.0788 -0.1064  0.1591
  490MOL0     C66037   2.697   3.259  10.626  0.3488  0.5277  0.0605
  490MOL0     C66038   2.558   3.194  10.603 -0.5171 -0.5960 -0.2554
  490MOL0     O66039   2.584   3.051  10.594  0.7072  0.8218 -0.5623
  490MOL0     C66040   2.487   2.949  10.596 -0.2832 -0.2321  0.4890
  490MOL0     C66041   2.521   2.814  10.561 -0.0343 -0.3624  0.4387
  490MOL0     C66042   2.417   2.714  10.561  0.0549 -0.4813 -1.1390
  490MOL0     C66043   2.453   2.575  10.519 -0.1609 -0.4713  0.0169
  490MOL0     C66044   2.281   2.750  10.583 -0.5656 -0.7534  0.6055
  490MOL0     C66045   2.167   2.652  10.583 -0.5922  0.7407  0.6845
  490MOL0     O66046   2.050   2.700  10.642 -0.2014 -0.5550  0.4454
  490MOL0     C66047   1.938   2.623  10.656  1.2979  0.5923  0.8146
  490MOL0     C66048   1.816   2.698  10.641  0.2239  0.5907 -0.2443
  490MOL0     C66049   1.691   2.632  10.652  0.2669 -0.1362  0.1589
  490MOL0     C66050   1.688   2.490  10.664  0.6185 -0.1768  0.1627
  490MOL0     O66051   1.562   2.426  10.663 -0.1379 -0.0578 -0.4652
  490MOL0     C66052   1.559   2.291  10.630  0.7371  0.4048 -1.3805
  490MOL0     C66053   1.416   2.249  10.631  0.1590  0.4206  0.6388
  490MOL0     C66054   1.328   2.335  10.545 -0.1532  0.2170 -0.3223
  490MOL0     C66055   1.178   2.320  10.589  0.3005  0.4937  0.1941
  490MOL0     C66056   1.095   2.376  10.476 -0.3368  0.2852  0.1670
  490MOL0     C66057   0.948   2.400  10.515 -0.4033  0.1410 -0.6176
  490MOL0     C66058   0.865   2.462  10.405  0.5986 -0.5119  0.4449
  490MOL0     C66059   0.913   2.591  10.344  0.1415  0.1426 -0.0221
  490MOL0    Cl66060   0.817   2.656  10.224  0.1845 -0.4075  0.1445
  490MOL0     C66061   1.811   2.421  10.667 -0.2289 -0.5873  0.0597
  490MOL0     C66062   1.936   2.487  10.674  0.0364  0.4258 -0.2118
  490MOL0     O66063   2.176   2.543  10.525  0.0785  0.5772 -0.0834
  490MOL0     C66064   2.258   2.885  10.617  0.1361 -0.0139  0.2461
  490MOL0     C66065   2.355   2.985  10.629  0.9968 -0.1680  0.6009
  490MOL0     N66066   2.726   3.702  10.729 -0.3040 -0.6709  0.7002
  490MOL0     N66067   2.787   3.807  10.757 -0.7310 -0.5694  1.0440
  490MOL0     C66068   3.848   3.976  10.491  0.3280  0.2165 -0.1025
  490MOL0     C66069   3.982   3.984  10.471 -0.2986  0.1828  0.7943
  490MOL0     C66070   4.401   3.890  10.373 -0.5155 -0.2608 -0.0893
  490MOL0     C66071   4.469   3.983  10.293  0.4861 -0.1098  0.1735
  490MOL0     C66072   4.607   3.983  10.273 -0.5837  0.4766  0.3234
  490MOL0     C66073   4.681   3.890  10.339  0.7828  0.0682  1.1634
  490MOL0     O66074   4.816   3.877  10.329 -0.0220  1.0605 -0.1700
  490MOL0     C66075   4.886   3.964  10.237  0.2893  0.2057  0.5685
  490MOL0     C66076   5.038   3.963  10.258 -0.1880 -0.2133 -0.6920
  490MOL0     C66077   5.105   4.092  10.234 -0.3577  0.0483  0.1911
  490MOL0     C66078   5.086   4.152  10.096 -0.2418  0.3198  0.3899
  490MOL0     C66079   5.124   4.044  10.004 -0.0297 -0.7890  0.7631
  490MOL0     C66080   5.174   3.964   9.936 -0.0152 -0.6848 -0.2843
  490MOL0     C66081   4.625   3.806  10.430 -0.2133 -0.3212  0.5371
  490MOL0     C66082   4.489   3.803  10.448  0.2712 -0.0353  0.2009
  490MOL0     H66083   3.971   3.951  10.129 -4.1909 -2.2349 -0.8594
  490MOL0     H66084   3.739   3.929  10.173 -1.9973  3.9041 -1.0153
  490MOL0     H66085   3.510   3.968  10.591 -1.1725  1.5668 -0.1876
  490MOL0     H66086   3.621   4.101  10.532  1.8756 -2.2727 -0.7058
  490MOL0     H66087   3.478   4.164  10.382 -0.1204 -0.8811  1.0110
  490MOL0     H66088   3.392   4.019  10.357  0.2513  2.5917 -1.6651
  490MOL0     H66089   3.383   4.216  10.598  0.9768 -1.7725  0.3186
  490MOL0     H66090   3.270   4.217  10.459  0.9289 -0.2792 -1.1598
  490MOL0     H66091   3.205   3.980  10.518  1.5224 -1.3388  0.9533
  490MOL0     H66092   3.294   3.998  10.670  1.0354 -1.4816 -1.2170
  490MOL0     H66093   3.162   4.170  10.766 -1.4753 -2.0457  2.2789
  490MOL0     H66094   3.086   4.209  10.607  2.3582  0.9209 -0.0409
  490MOL0     H66095   2.923   4.095  10.757 -0.5279 -0.5359  1.6588
  490MOL0     H66096   2.968   3.972  10.633 -2.2167  2.3309 -1.3747
  490MOL0     H66097   3.130   3.871  10.784 -0.1231 -0.5078 -0.7546
  490MOL0     H66098   3.128   4.001  10.895 -2.4993  2.5856  0.9187
  490MOL0     H66099   2.888   3.962  10.951 -1.2973 -1.8628  0.2336
  490MOL0     H66100   3.004   3.850  11.009 -2.7375 -1.8286 -0.0280
  490MOL0     H66101   2.924   3.581  10.955 -0.4491  0.3754 -0.1848
  490MOL0     H66102   2.830   3.394  10.816 -0.4553  0.1091  0.5154
  490MOL0     H66103   2.672   3.424  10.863 -0.4929 -0.1916 -1.2064
  490MOL0     H66104   2.748   3.465  10.569  0.5797 -0.7158  0.1587
  490MOL0     H66105   2.591   3.440  10.647 -0.2037 -0.5191 -0.6254
  490MOL0     H66106   2.742   3.215  10.715 -3.5106 -2.7179  0.7010
  490MOL0     H66107   2.761   3.225  10.543  3.2100  1.0681  1.9003
  490MOL0     H66108   2.512   3.239  10.515  0.2657  2.6012  0.8453
  490MOL0     H66109   2.500   3.221  10.692 -1.0101 -2.5311  0.0535
  490MOL0     H66110   2.619   2.787  10.524 -0.9186  0.3761 -2.7154
  490MOL0     H66111   2.559   2.567  10.493 -0.6684 -3.2837 -1.6110
  490MOL0     H66112   2.428   2.504  10.598 -2.7616 -4.3565 -3.7839
  490MOL0     H66113   2.400   2.539  10.430 -1.8435 -4.0754  2.2585
  490MOL0     H66114   1.808   2.806  10.632 -2.1537  0.5484  0.7207
  490MOL0     H66115   1.596   2.684  10.642 -0.6574 -1.0640  3.0227
  490MOL0     H66116   1.595   2.279  10.527  0.2713  1.1049 -1.6303
  490MOL0     H66117   1.625   2.241  10.701 -1.6565  1.6620  1.9439
  490MOL0     H66118   1.412   2.154  10.576 -0.4313  2.2087 -2.6420
  490MOL0     H66119   1.376   2.230  10.731  0.8861 -0.2091  0.8207
  490MOL0     H66120   1.344   2.319  10.438  2.5676  2.5883 -0.4078
  490MOL0     H66121   1.355   2.440  10.564  1.9533 -0.7986  3.3428
  490MOL0     H66122   1.155   2.216  10.611 -0.7911  0.7408  0.2702
  490MOL0     H66123   1.160   2.363  10.688 -0.5457  0.7945 -0.0849
  490MOL0     H66124   1.105   2.314  10.386  3.0234  0.0926  0.5353
  490MOL0     H66125   1.144   2.471  10.453  1.3677  0.2343  3.0852
  490MOL0     H66126   0.897   2.309  10.547  0.8427 -0.5472 -0.5160
  490MOL0     H66127   0.956   2.464  10.603  0.0224  3.3012 -2.8032
  490MOL0     H66128   0.764   2.482  10.440  0.5826 -0.7432  0.5309
  490MOL0     H66129   0.857   2.385  10.328  0.1817 -1.6274  1.5764
  490MOL0     H66130   1.020   2.580  10.322  0.9962  0.1543  3.5324
  490MOL0     H66131   0.919   2.663  10.426 -0.1394  0.2753 -0.1166
  490MOL0     H66132   1.813   2.313  10.677  1.1509 -0.4984  0.8890
  490MOL0     H66133   2.022   2.424  10.693 -0.3648  0.6177  2.8317
  490MOL0     H66134   2.154   2.914  10.626  0.0287 -0.9972  4.5319
  490MOL0     H66135   2.326   3.088  10.650 -2.1186 -0.7554 -0.2865
  490MOL0     H66136   3.827   3.971  10.597 -0.3063  1.6266 -0.1281
  490MOL0     H66137   4.046   4.014  10.553  1.3877  0.5347 -0.5900
  490MOL0     H66138   4.411   4.051  10.231 -1.4297  0.4944  2.4380
  490MOL0     H66139   4.645   4.053  10.200 -0.0879 -0.5693 -0.4573
  490MOL0     H66140   4.864   3.943  10.132  1.2902  0.7467  0.2334
  490MOL0     H66141   4.844   4.064  10.253 -1.1246  0.1096 -1.9722
  490MOL0     H66142   5.089   3.882  10.205 -1.2450 -1.5285  0.2174
  490MOL0     H66143   5.056   3.941  10.364 -0.6505  0.3740 -0.4840
  490MOL0     H66144   5.214   4.088  10.247 -0.2938  3.7409  2.4858
  490MOL0     H66145   5.070   4.168  10.305 -1.4414  1.3699 -1.6697
  490MOL0     H66146   5.157   4.234  10.081 -0.6036  0.6454  0.4418
  490MOL0     H66147   4.983   4.188  10.093 -0.0002  1.0426  0.3961
  490MOL0     H66148   5.216   3.891   9.869  1.9186 -2.5314  2.6904
  490MOL0     H66149   4.694   3.732  10.470 -1.9435 -3.5116 -1.9358
  490MOL0     H66150   4.439   3.728  10.508  0.7804 -0.5110  0.0413
  491MOL0     O66151   3.924  10.925   8.341 -0.0607 -0.7159 -0.7474
  491MOL0     C66152   3.977  10.844   8.416  0.7102  0.2954 -0.3456
  491MOL0     O66153   3.912  10.781   8.519  0.2887 -0.3704 -0.8946
  491MOL0     C66154   3.778  10.795   8.547 -0.5600 -0.0534  0.3102
  491MOL0     C66155   3.674  10.736   8.469  0.9091 -0.6265 -0.5363
  491MOL0     C66156   3.539  10.747   8.510 -0.4777 -0.6952  0.3113
  491MOL0     C66157   3.506  10.817   8.626  0.3869  0.5304 -0.6555
  491MOL0     O66158   3.377  10.802   8.673  0.5501  0.1896  0.1469
  491MOL0     C66159   3.336  10.893   8.779 -0.3705  0.0157 -0.1294
  491MOL0     C66160   3.188  10.857   8.774 -0.4309  0.3489 -0.6383
  491MOL0     C66161   3.109  10.952   8.851 -0.5518 -0.2916 -0.3822
  491MOL0     C66162   2.983  10.891   8.916  0.1403 -0.0239  0.4395
  491MOL0     C66163   2.874  10.836   8.822  0.5868  0.8295  0.4419
  491MOL0     C66164   2.894  10.687   8.779  0.2389 -0.0285  0.6633
  491MOL0     C66165   2.766  10.633   8.725  0.9602 -0.7127 -0.0324
  491MOL0     C66166   2.718  10.702   8.595 -0.7736 -0.2426 -0.2594
  491MOL0     N66167   2.589  10.651   8.560 -0.0887 -0.4789 -0.2219
  491MOL0     C66168   2.475  10.712   8.591  0.8633 -1.0510  0.5047
  491MOL0     C66169   2.376  10.630   8.564  0.4697 -0.1655  0.0591
  491MOL0     C66170   2.224  10.636   8.567  0.1074 -0.8615  0.2842
  491MOL0     C66171   2.159  10.658   8.425 -0.3021 -0.1398  0.3194
  491MOL0     C66172   2.018  10.705   8.433  0.1782  0.6955 -0.5631
  491MOL0     C66173   1.953  10.701   8.295 -0.1282 -0.2558 -0.6814
  491MOL0     O66174   1.935  10.565   8.250  0.4236 -0.0563 -0.2733
  491MOL0     C66175   1.802  10.517   8.267 -0.1673  0.3086  0.3179
  491MOL0     C66176   1.779  10.405   8.330  0.7774  0.2224 -0.4932
  491MOL0     C66177   1.652  10.344   8.330  0.7449  0.0439 -0.3261
  491MOL0     C66178   1.655  10.215   8.408  0.7735  0.3839 -0.4247
  491MOL0     C66179   1.545  10.397   8.243 -0.1978 -0.2738 -0.6518
  491MOL0     C66180   1.423  10.325   8.215  0.3704  0.2336  0.5176
  491MOL0     O66181   1.309  10.394   8.179 -0.5074  0.2962 -0.0534
  491MOL0     C66182   1.195  10.318   8.164 -0.2163 -0.0675 -0.2475
  491MOL0     C66183   1.132  10.293   8.043  0.4250 -0.5455  0.7953
  491MOL0     C66184   1.008  10.236   8.033 -0.1848 -1.1892 -0.1760
  491MOL0     C66185   0.938  10.192   8.149  0.1144 -0.3694  0.3135
  491MOL0     O66186   0.823  10.118   8.131 -0.5326 -0.9244 -0.4614
  491MOL0     C66187   0.851   9.976   8.126  0.0827 -0.1777  0.2256
  491MOL0     C66188   0.727   9.894   8.083 -0.7800 -1.2076  0.3824
  491MOL0     C66189   0.643   9.969   7.982  0.4412 -0.7191 -0.2549
  491MOL0     C66190   0.557   9.855   7.912 -0.3945 -0.0978 -0.0308
  491MOL0     C66191   0.424   9.909   7.874 -0.1261 -0.5256 -0.4970
  491MOL0     C66192   0.328   9.916   7.991  0.1257  0.3479  0.1921
  491MOL0     C66193   0.188   9.948   7.938  0.3603 -0.2998 -0.0306
  491MOL0     C66194   0.136  10.084   7.975 -0.2489 -0.3482 -0.3163
  491MOL0    Cl66195  -0.027  10.090   7.923 -0.3298 -0.1866  0.2757
  491MOL0     C66196   1.004  10.203   8.279  0.8333 -0.0984  0.6736
  491MOL0     C66197   1.129  10.269   8.282 -0.0239  0.7200 -0.3888
  491MOL0     O66198   1.427  10.202   8.216  0.4378  0.6765  0.1277
  491MOL0     C66199   1.570  10.522   8.183 -0.1893 -0.2903  0.4934
  491MOL0     C66200   1.700  10.577   8.195 -0.0964 -0.2459  0.1620
  491MOL0     N66201   2.430  10.516   8.515 -0.3825 -1.0368  0.3433
  491MOL0     N66202   2.555  10.533   8.504 -0.6943 -0.0162 -0.0488
  491MOL0     C66203   3.605  10.874   8.700 -0.6115  0.7692  0.1536
  491MOL0     C66204   3.741  10.861   8.664 -0.5668 -0.6039 -0.8850
  491MOL0     C66205   4.117  10.833   8.414  0.1405  1.3071  0.9165
  491MOL0     C66206   4.189  10.909   8.325  0.1415 -0.4417  0.2189
  491MOL0     C66207   4.330  10.911   8.319  0.8949  0.2730  0.1595
  491MOL0     C66208   4.396  10.829   8.408  0.5044 -0.0642 -0.9619
  491MOL0     O66209   4.535  10.828   8.433  0.1471 -0.5284 -0.1210
  491MOL0     C66210   4.623  10.892   8.340 -0.3303 -0.1610  0.2184
  491MOL0     C66211   4.763  10.846   8.369 -0.6388 -0.3274  0.6040
  491MOL0     C66212   4.784  10.701   8.327 -0.3224  0.2831  0.4327
  491MOL0     C66213   4.906  10.631   8.384 -0.2532  0.2607  0.0597
  491MOL0     C66214   4.895  10.488   8.371  1.2098 -0.1431  0.6343
  491MOL0     C66215   4.862  10.369   8.361  0.2621  0.5169  0.1091
  491MOL0     C66216   4.321  10.755   8.501 -0.6110 -0.0671  0.5088
  491MOL0     C66217   4.183  10.752   8.507  0.2593  0.5510 -0.0390
  491MOL0     H66218   3.703  10.688   8.376  3.0298 -1.3039  0.4016
  491MOL0     H66219   3.459  10.713   8.445  0.7531  1.5146 -2.5968
  491MOL0     H66220   3.374  10.860   8.877 -1.0391  2.8611  1.1874
  491MOL0     H66221   3.336  10.998   8.752 -1.7453 -0.4751 -2.2227
  491MOL0     H66222   3.139  10.853   8.677 -1.7644 -1.0639  0.0541
  491MOL0     H66223   3.181  10.755   8.812  1.0174  0.4976  0.1140
  491MOL0     H66224   3.161  11.005   8.932 -1.1625 -1.6291  0.9155
  491MOL0     H66225   3.088  11.019   8.767  2.7260 -1.2960 -2.2101
  491MOL0     H66226   3.017  10.810   8.982  1.3527 -0.8620 -1.1506
  491MOL0     H66227   2.934  10.968   8.976 -2.8969  0.4708 -2.3939
  491MOL0     H66228   2.776  10.850   8.869 -0.3530 -1.7934 -0.5335
  491MOL0     H66229   2.873  10.892   8.729  4.0059  0.0527 -0.1890
  491MOL0     H66230   2.972  10.677   8.703 -0.2148 -0.7836  0.2858
  491MOL0     H66231   2.905  10.614   8.860 -3.0751 -3.4614 -1.6943
  491MOL0     H66232   2.789  10.527   8.710  1.1832 -0.8777  1.3816
  491MOL0     H66233   2.692  10.644   8.805  3.7532  1.6873  2.4585
  491MOL0     H66234   2.783  10.667   8.513 -2.2961 -1.5565 -0.9604
  491MOL0     H66235   2.710  10.809   8.614  1.2990 -0.1817  0.6302
  491MOL0     H66236   2.466  10.812   8.631  1.0376 -1.1494  0.7939
  491MOL0     H66237   2.176  10.543   8.599 -1.1423 -1.4252 -2.8943
  491MOL0     H66238   2.193  10.718   8.633 -0.1413 -0.4135 -0.3730
  491MOL0     H66239   2.161  10.560   8.375 -0.4792 -0.4356  0.8819
  491MOL0     H66240   2.225  10.725   8.369  0.3158 -0.5062  0.6042
  491MOL0     H66241   2.027  10.801   8.484  2.4857 -0.7959  2.1251
  491MOL0     H66242   1.966  10.632   8.495 -0.5304  1.1956 -0.5576
  491MOL0     H66243   2.018  10.754   8.226 -1.5195  1.4767 -0.7218
  491MOL0     H66244   1.862  10.761   8.300  0.0070 -0.1165  0.5955
  491MOL0     H66245   1.857  10.359   8.388  0.1963 -0.2989 -0.1117
  491MOL0     H66246   1.553  10.193   8.440  1.3183 -1.3608  0.2118
  491MOL0     H66247   1.689  10.140   8.336 -0.3688 -0.8002  0.2287
  491MOL0     H66248   1.727  10.215   8.491  0.9473 -2.0087 -0.5261
  491MOL0     H66249   1.179  10.322   7.949  0.5477 -0.8936  0.7468
  491MOL0     H66250   0.947  10.218   7.945  0.4297 -1.5646 -0.5286
  491MOL0     H66251   0.939   9.958   8.064  0.7549  0.2021  1.0410
  491MOL0     H66252   0.875   9.932   8.224  1.4635 -0.8189 -0.3756
  491MOL0     H66253   0.767   9.801   8.039  0.4576 -0.0902 -0.9692
  491MOL0     H66254   0.679   9.877   8.179 -0.3921 -1.5955  0.5088
  491MOL0     H66255   0.701  10.023   7.907 -2.5114  1.4814 -1.1455
  491MOL0     H66256   0.571  10.039   8.025 -0.3228 -0.8331 -1.2859
  491MOL0     H66257   0.616   9.835   7.823  2.0984  2.2080  0.9686
  491MOL0     H66258   0.550   9.761   7.969 -0.5961  0.0936  0.2672
  491MOL0     H66259   0.384   9.842   7.798  0.7559  0.1640 -1.6016
  491MOL0     H66260   0.434  10.007   7.824  0.8655 -1.1162 -1.5085
  491MOL0     H66261   0.331   9.818   8.040  2.2437 -0.0721 -0.7134
  491MOL0     H66262   0.366   9.984   8.067 -0.4352 -0.4677  1.2377
  491MOL0     H66263   0.116   9.876   7.978  2.5630 -1.9577  1.1774
  491MOL0     H66264   0.183   9.946   7.829  2.2459 -0.7742 -0.1462
  491MOL0     H66265   0.192  10.166   7.931  0.4068 -0.4431  0.3315
  491MOL0     H66266   0.138  10.089   8.085  0.9065 -1.9795 -0.2342
  491MOL0     H66267   0.959  10.159   8.367  1.0484  2.3959  2.1039
  491MOL0     H66268   1.164  10.254   8.384 -1.0105  1.2448  0.0349
  491MOL0     H66269   1.504  10.568   8.109  1.1606 -1.9801 -1.9039
  491MOL0     H66270   1.721  10.665   8.135 -1.0650 -1.2057 -1.6989
  491MOL0     H66271   3.597  10.933   8.791  1.4729  0.4167  0.6066
  491MOL0     H66272   3.816  10.916   8.721  0.3579 -0.4482 -2.2149
  491MOL0     H66273   4.142  10.958   8.241  1.3357  2.1439  0.9797
  491MOL0     H66274   4.369  10.971   8.237 -0.7974 -0.9203 -1.5698
  491MOL0     H66275   4.594  10.869   8.237 -0.6392  0.4800  0.1584
  491MOL0     H66276   4.626  11.000   8.359 -0.7950 -0.2614  0.9027
  491MOL0     H66277   4.792  10.857   8.473 -1.7432 -1.7202  1.0969
  491MOL0     H66278   4.831  10.909   8.312  0.1741  0.9954  2.9196
  491MOL0     H66279   4.795  10.695   8.218  3.7640  2.2326  0.5447
  491MOL0     H66280   4.691  10.644   8.340 -0.8469  1.4480  2.0851
  491MOL0     H66281   4.928  10.673   8.482  0.9925  1.6052 -0.7422
  491MOL0     H66282   4.992  10.666   8.325 -1.3104  1.7442 -0.6630
  491MOL0     H66283   4.815  10.273   8.362 -1.2150  1.1876 -0.9018
  491MOL0     H66284   4.375  10.694   8.573  3.3643  0.7357 -1.5509
  491MOL0     H66285   4.140  10.690   8.586 -2.1554  1.7055 -0.3314
  492MOL0     O66286  10.403   0.681   2.088  0.2712 -0.3520  0.7448
  492MOL0     C66287  10.451   0.571   2.133  0.0059 -0.7052  0.6008
  492MOL0     O66288  10.391   0.469   2.197  0.5733  0.0555  0.3012
  492MOL0     C66289  10.264   0.494   2.255  0.6800 -0.3959  0.7922
  492MOL0     C66290  10.164   0.392   2.244 -0.4839  0.1218 -0.5485
  492MOL0     C66291  10.042   0.391   2.318 -0.0156 -1.5569  0.5939
  492MOL0     C66292  10.005   0.508   2.396  0.5991 -0.3158 -1.0786
  492MOL0     O66293   9.884   0.529   2.461  0.2968  0.7761 -0.1530
  492MOL0     C66294   9.771   0.459   2.406 -0.4068 -0.3042 -0.0688
  492MOL0     C66295   9.640   0.518   2.461  0.2444 -0.0243 -0.0231
  492MOL0     C66296   9.525   0.417   2.424  0.8422  0.7607 -0.5413
  492MOL0     C66297   9.400   0.445   2.509  0.5950  0.4307 -0.0580
  492MOL0     C66298   9.286   0.365   2.450  0.0151 -0.0533 -0.2237
  492MOL0     C66299   9.154   0.424   2.497  0.6800 -0.4974  0.0384
  492MOL0     C66300   9.121   0.417   2.645 -0.2957 -0.4142 -0.4298
  492MOL0     C66301   8.982   0.468   2.675  0.8550  0.3635  0.1395
  492MOL0     N66302   8.875   0.367   2.640  0.0596  0.5164  0.5148
  492MOL0     C66303   8.890   0.229   2.652  0.3660  0.9328  0.0814
  492MOL0     C66304   8.780   0.171   2.602 -0.8453 -1.0205  0.4305
  492MOL0     C66305   8.733   0.025   2.593 -0.4149 -0.8810 -0.6581
  492MOL0     C66306   8.591   0.003   2.560 -0.3809 -0.0565  0.0382
  492MOL0     C66307   8.561  -0.147   2.588  0.0856 -0.2492 -0.3819
  492MOL0     C66308   8.412  -0.180   2.565 -0.0572 -0.1387 -0.0680
  492MOL0     O66309   8.331  -0.084   2.634 -0.4269  0.2743  0.1466
  492MOL0     C66310   8.230  -0.027   2.560  0.2674  1.2079  0.5658
  492MOL0     C66311   8.239   0.096   2.503  0.6215 -0.1870 -0.1885
  492MOL0     C66312   8.139   0.143   2.410 -0.6166  0.1074 -0.3827
  492MOL0     C66313   8.152   0.284   2.354  0.2392 -0.3417 -0.4190
  492MOL0     C66314   8.021   0.063   2.387 -0.7704 -0.4545  0.3738
  492MOL0     C66315   7.900   0.101   2.300  0.3776  0.7188 -0.5542
  492MOL0     O66316   7.804  -0.003   2.305 -0.0597 -0.5246 -0.5558
  492MOL0     C66317   7.691   0.004   2.223 -0.0281  0.3047 -0.2240
  492MOL0     C66318   7.576   0.079   2.249 -0.3307 -0.2637 -0.3509
  492MOL0     C66319   7.468   0.071   2.163 -0.0250  0.7013 -0.7899
  492MOL0     C66320   7.477  -0.008   2.052 -0.2583 -1.0238  0.3755
  492MOL0     O66321   7.370  -0.035   1.962 -0.3458  0.6249  0.1030
  492MOL0     C66322   7.239   0.012   2.003  0.1832 -0.6850 -0.5453
  492MOL0     C66323   7.122  -0.050   1.920 -0.7464 -0.3467  0.7536
  492MOL0     C66324   6.994   0.015   1.951 -0.5879  0.1539 -0.3845
  492MOL0     C66325   6.885  -0.016   1.846 -0.1268 -0.7192  0.3806
  492MOL0     C66326   6.755   0.044   1.877  0.3457 -0.0524 -0.7974
  492MOL0     C66327   6.640  -0.012   1.800  0.0098  0.4151 -0.3462
  492MOL0     C66328   6.506   0.043   1.841 -0.3632 -0.8770 -0.6122
  492MOL0     C66329   6.394  -0.026   1.768  0.1762  0.4238 -0.0051
  492MOL0    Cl66330   6.238   0.044   1.786  0.0905 -0.3214  0.0359
  492MOL0     C66331   7.600  -0.076   2.019 -0.1112 -0.0677  0.3427
  492MOL0     C66332   7.704  -0.069   2.106 -0.5313  0.3661 -0.1244
  492MOL0     O66333   7.884   0.204   2.233  0.3544 -0.3862  0.7071
  492MOL0     C66334   8.014  -0.062   2.461 -0.3764  0.4577  0.3211
  492MOL0     C66335   8.122  -0.109   2.542  1.2082 -0.2115 -0.6886
  492MOL0     N66336   8.695   0.273   2.563 -0.2880 -0.3040 -0.6567
  492MOL0     N66337   8.758   0.386   2.583  0.2641  0.3303  0.8762
  492MOL0     C66338  10.100   0.609   2.406 -0.0400  0.0496 -0.6264
  492MOL0     C66339  10.225   0.606   2.336 -0.1535  0.2834 -0.4040
  492MOL0     C66340  10.593   0.545   2.092  0.3415  0.5592  0.7181
  492MOL0     C66341  10.636   0.414   2.091 -0.2519 -0.9972 -0.0342
  492MOL0     C66342  10.760   0.384   2.049  0.6246 -0.8587 -0.1251
  492MOL0     C66343  10.854   0.473   1.996 -0.4939  0.0156  0.2966
  492MOL0     O66344  10.991   0.453   1.973  0.0119 -0.6391  0.3939
  492MOL0     C66345  11.063   0.342   2.030 -0.0912 -0.0075  0.1057
  492MOL0     C66346  11.214   0.386   2.047 -0.1488 -1.0409  0.5603
  492MOL0     C66347  11.288   0.406   1.913  0.1587  0.0083  0.8464
  492MOL0     C66348  11.433   0.383   1.927  0.4511 -0.4049  0.5329
  492MOL0     C66349  11.498   0.411   1.803  0.1786  1.3307  0.4457
  492MOL0     C66350  11.553   0.422   1.692  0.8260  0.3181  0.4675
  492MOL0     C66351  10.807   0.608   1.993  0.0020 -0.3182  0.2100
  492MOL0     C66352  10.675   0.647   2.037 -0.5624  0.4366  0.1727
  492MOL0     H66353  10.187   0.297   2.196 -0.0116 -1.0030  1.7792
  492MOL0     H66354   9.975   0.306   2.312 -0.7962 -1.3044  3.9623
  492MOL0     H66355   9.780   0.455   2.297 -0.9317 -1.4051 -0.0949
  492MOL0     H66356   9.763   0.350   2.421 -0.2100 -0.4010 -0.6465
  492MOL0     H66357   9.649   0.518   2.570  0.8747  0.4008 -0.0672
  492MOL0     H66358   9.620   0.619   2.424 -2.5632 -0.7966 -0.8049
  492MOL0     H66359   9.488   0.436   2.322 -2.3397  0.1913  0.3820
  492MOL0     H66360   9.551   0.311   2.434 -1.4729  0.1741 -0.1541
  492MOL0     H66361   9.408   0.435   2.618 -1.7590 -0.7229  0.0721
  492MOL0     H66362   9.390   0.552   2.490  0.6206  0.2321 -1.2086
  492MOL0     H66363   9.286   0.369   2.340 -1.2023  0.2243 -0.2257
  492MOL0     H66364   9.298   0.258   2.469  2.6315  0.3474  0.7965
  492MOL0     H66365   9.149   0.529   2.466  1.3484  0.2912  2.3892
  492MOL0     H66366   9.073   0.375   2.442  2.0522 -1.8306 -0.8573
  492MOL0     H66367   9.134   0.316   2.685 -0.0944 -0.5481 -0.8216
  492MOL0     H66368   9.192   0.483   2.695  0.2567 -0.7431 -0.7623
  492MOL0     H66369   8.976   0.566   2.626 -0.4188 -0.3924 -1.2954
  492MOL0     H66370   8.965   0.479   2.783 -1.4158 -0.6321 -0.0659
  492MOL0     H66371   8.974   0.173   2.692 -1.4962 -1.6323  0.6918
  492MOL0     H66372   8.795  -0.034   2.526 -0.4314 -3.5332  1.4639
  492MOL0     H66373   8.757  -0.008   2.695  1.7155  3.1280  0.3517
  492MOL0     H66374   8.571   0.037   2.458 -0.4980 -1.6267 -0.4782
  492MOL0     H66375   8.530   0.071   2.619 -0.5128  0.5005 -0.7194
  492MOL0     H66376   8.576  -0.166   2.694 -0.7032 -1.7384 -0.5151
  492MOL0     H66377   8.618  -0.220   2.530 -1.7930 -1.0544 -1.3155
  492MOL0     H66378   8.388  -0.281   2.601  1.2519 -0.7788 -0.9126
  492MOL0     H66379   8.386  -0.188   2.459  2.8260 -0.4255 -0.8200
  492MOL0     H66380   8.332   0.146   2.526  0.6206  0.3807 -1.3472
  492MOL0     H66381   8.239   0.348   2.371 -1.7440  1.9418  1.9390
  492MOL0     H66382   8.127   0.282   2.247 -0.0426  1.1630 -0.4014
  492MOL0     H66383   8.076   0.340   2.409 -0.5888 -1.5793 -0.2627
  492MOL0     H66384   7.568   0.152   2.329 -1.1589 -1.8623  1.0811
  492MOL0     H66385   7.379   0.125   2.193 -2.5740 -3.2020 -0.5783
  492MOL0     H66386   7.220  -0.022   2.105  2.5065  1.7849  0.8540
  492MOL0     H66387   7.242   0.121   2.000 -1.1695 -0.6368 -0.8748
  492MOL0     H66388   7.151  -0.030   1.816  1.1780  0.7702  1.4597
  492MOL0     H66389   7.115  -0.158   1.934  0.6559 -0.6710 -0.6944
  492MOL0     H66390   7.009   0.123   1.952 -3.0591  0.6496  3.1172
  492MOL0     H66391   6.980  -0.025   2.052  1.1800 -3.1569 -1.2798
  492MOL0     H66392   6.917   0.021   1.748 -1.9617 -1.7993 -0.6916
  492MOL0     H66393   6.869  -0.124   1.834 -1.2595 -0.5277  0.0411
  492MOL0     H66394   6.761   0.149   1.845 -2.1876  0.0751 -0.9858
  492MOL0     H66395   6.727   0.036   1.983  0.8204  0.7014 -0.6010
  492MOL0     H66396   6.667   0.008   1.696  0.9122 -3.6350 -1.0657
  492MOL0     H66397   6.632  -0.121   1.809 -0.3854  0.4913  0.3376
  492MOL0     H66398   6.508   0.150   1.816  0.2789 -0.2415  1.7777
  492MOL0     H66399   6.490   0.036   1.949  2.8183 -0.0954  0.0239
  492MOL0     H66400   6.374  -0.125   1.809  1.4709 -0.4157 -1.2984
  492MOL0     H66401   6.433  -0.033   1.666  2.8791  1.4513  0.8671
  492MOL0     H66402   7.613  -0.138   1.931  0.0643  0.7897 -0.2538
  492MOL0     H66403   7.802  -0.112   2.090 -0.9835 -0.4815 -0.6640
  492MOL0     H66404   7.923  -0.122   2.457 -0.3560  0.4913 -2.3136
  492MOL0     H66405   8.111  -0.200   2.600 -1.0806 -0.4362 -1.3545
  492MOL0     H66406  10.091   0.691   2.476  4.4558 -0.0309  0.3390
  492MOL0     H66407  10.293   0.686   2.363  1.0901 -1.5850  2.4095
  492MOL0     H66408  10.578   0.334   2.136 -1.5701 -0.5420 -0.8739
  492MOL0     H66409  10.791   0.281   2.061  1.5221 -1.1730 -4.0795
  492MOL0     H66410  11.021   0.310   2.126 -0.5153  0.2996  0.0245
  492MOL0     H66411  11.049   0.260   1.958 -1.9445 -0.1331  0.5364
  492MOL0     H66412  11.269   0.317   2.111  1.6757  1.3720  1.7786
  492MOL0     H66413  11.215   0.483   2.098  0.9364 -0.4506 -0.5419
  492MOL0     H66414  11.272   0.506   1.872  1.6129 -1.0505 -2.6437
  492MOL0     H66415  11.249   0.343   1.832 -2.4223 -2.6738  3.8824
  492MOL0     H66416  11.454   0.281   1.960 -0.6065 -0.6297  0.5563
  492MOL0     H66417  11.477   0.457   1.995 -0.7667  0.7818  0.1009
  492MOL0     H66418  11.604   0.427   1.598  0.6559 -2.6239  0.1153
  492MOL0     H66419  10.871   0.689   1.959  1.4598 -1.5714 -0.1988
  492MOL0     H66420  10.634   0.747   2.024 -1.5400  0.1489  0.9909
  493MOL0     O66421   0.261   8.328  10.166  0.4805 -0.4290 -0.4693
  493MOL0     C66422   0.311   8.216  10.150 -0.9438  0.9646  0.0061
  493MOL0     O66423   0.245   8.090  10.127 -0.1558 -0.1481 -0.3047
  493MOL0     C66424   0.110   8.087  10.145 -0.0397  0.5536  0.5015
  493MOL0     C66425   0.023   8.028  10.051 -0.1877  0.0641 -0.6811
  493MOL0     C66426  -0.105   8.008  10.085 -0.4907 -0.2858 -0.4431
  493MOL0     C66427  -0.163   8.052  10.204  0.0709  0.3912  0.6945
  493MOL0     O66428  -0.301   8.029  10.225  0.0550  0.2206 -0.1265
  493MOL0     C66429  -0.376   8.135  10.287 -0.8216  0.7037  0.1556
  493MOL0     C66430  -0.384   8.247  10.188 -0.1865 -0.4875 -0.1196
  493MOL0     C66431  -0.431   8.211  10.045  0.3758 -1.1361  0.3173
  493MOL0     C66432  -0.547   8.116  10.042  0.4129 -0.8054  1.1160
  493MOL0     C66433  -0.585   8.082   9.893  0.3240 -0.2559 -0.7406
  493MOL0     C66434  -0.638   8.197   9.821 -0.0865 -0.2907  0.0963
  493MOL0     C66435  -0.775   8.242   9.877 -0.2919  0.2268  0.1621
  493MOL0     C66436  -0.837   8.355   9.798  0.2478 -0.5147  0.4817
  493MOL0     N66437  -0.849   8.331   9.662 -0.0694  0.8164  0.1479
  493MOL0     C66438  -0.956   8.275   9.595  0.6090 -0.6778 -0.4594
  493MOL0     C66439  -0.943   8.284   9.461 -0.2087  0.5040 -0.5142
  493MOL0     C66440  -1.036   8.259   9.339 -0.0617 -0.0532  0.0243
  493MOL0     C66441  -1.138   8.364   9.318 -0.4921 -0.4988 -0.4132
  493MOL0     C66442  -1.245   8.333   9.212  0.1783 -0.0711  0.2849
  493MOL0     C66443  -1.333   8.223   9.264  0.5901  0.7551 -0.2712
  493MOL0     O66444  -1.468   8.228   9.213 -0.8847 -0.0029  0.2928
  493MOL0     C66445  -1.567   8.149   9.267 -0.4722 -0.3205 -0.4395
  493MOL0     C66446  -1.546   8.028   9.336  0.2606  0.5370 -0.1485
  493MOL0     C66447  -1.653   7.949   9.387 -0.0426  0.0741 -0.9978
  493MOL0     C66448  -1.611   7.849   9.485 -0.0729  0.2252 -0.0859
  493MOL0     C66449  -1.785   7.996   9.359 -0.2853  0.4622 -0.3603
  493MOL0     C66450  -1.907   7.930   9.415 -0.3608 -0.4113  0.2840
  493MOL0     O66451  -2.026   7.976   9.369  0.1584 -0.6819  0.7809
  493MOL0     C66452  -2.153   7.944   9.406 -0.3886  0.4712  0.1041
  493MOL0     C66453  -2.259   7.986   9.332 -0.3664 -0.0862  0.2170
  493MOL0     C66454  -2.393   7.980   9.383 -0.1548  0.2764  0.0593
  493MOL0     C66455  -2.424   7.912   9.499  0.3522 -0.2398  0.1862
  493MOL0     O66456  -2.557   7.898   9.538  0.0489  0.2447 -0.1363
  493MOL0     C66457  -2.598   7.817   9.654 -0.0292 -0.5440 -0.3217
  493MOL0     C66458  -2.745   7.824   9.665  0.3160  0.1883  0.0260
  493MOL0     C66459  -2.798   7.969   9.697  0.5817 -0.1570 -0.2099
  493MOL0     C66460  -2.936   7.991   9.628 -0.8481  0.3116 -0.8166
  493MOL0     C66461  -3.044   7.906   9.695 -0.1087  0.1195  0.7460
  493MOL0     C66462  -3.186   7.932   9.641 -0.0656 -0.0754 -0.5582
  493MOL0     C66463  -3.296   7.833   9.691  0.1246 -0.3353 -0.3635
  493MOL0     C66464  -3.241   7.694   9.698  0.0238 -0.0658  0.1375
  493MOL0    Cl66465  -3.372   7.567   9.702 -0.4806 -0.5999 -0.1745
  493MOL0     C66466  -2.313   7.862   9.577 -0.7072 -0.5208  0.9610
  493MOL0     C66467  -2.182   7.876   9.526  0.8524 -0.3000 -0.4704
  493MOL0     O66468  -1.888   7.845   9.507  0.7898 -0.1936  0.2341
  493MOL0     C66469  -1.803   8.100   9.275  0.1904 -0.8989 -0.1385
  493MOL0     C66470  -1.698   8.186   9.236 -0.5072  0.0354 -0.2175
  493MOL0     N66471  -0.811   8.330   9.448  1.1198  1.2935  0.2723
  493MOL0     N66472  -0.760   8.358   9.562  0.2180  0.3511 -0.4369
  493MOL0     C66473  -0.079   8.111  10.299 -0.1460  0.7153 -0.0329
  493MOL0     C66474   0.053   8.126  10.270 -0.4987 -0.0593  0.3972
  493MOL0     C66475   0.461   8.202  10.151  0.0526  0.3840 -0.4045
  493MOL0     C66476   0.536   8.321  10.152 -0.4853  0.4135  0.2886
  493MOL0     C66477   0.673   8.317  10.137 -1.1532 -0.0060  0.2966
  493MOL0     C66478   0.742   8.196  10.130 -0.7077 -0.4854 -0.5129
  493MOL0     O66479   0.876   8.179  10.126 -0.4098 -0.0978  0.5310
  493MOL0     C66480   0.951   8.287  10.079 -0.4654 -0.3476  0.3099
  493MOL0     C66481   1.101   8.262  10.089  1.0901  0.0778  0.5577
  493MOL0     C66482   1.152   8.125  10.039  0.1113  0.5150  0.0561
  493MOL0     C66483   1.309   8.136  10.015 -0.7169 -0.7793 -0.3751
  493MOL0     C66484   1.385   8.036  10.094 -0.1340  0.9017 -0.1322
  493MOL0     C66485   1.459   7.960  10.168  0.6987  0.4440  0.3039
  493MOL0     C66486   0.673   8.079  10.153 -0.1151  0.2408 -0.1399
  493MOL0     C66487   0.531   8.074  10.150 -0.0822 -0.9634  0.3053
  493MOL0     H66488   0.061   7.993   9.955 -2.8119  0.9109 -2.1095
  493MOL0     H66489  -0.175   7.967  10.014 -2.1122  3.1341 -1.0364
  493MOL0     H66490  -0.478   8.104  10.313 -0.2575 -0.2493  1.3251
  493MOL0     H66491  -0.336   8.170  10.383 -1.3982  0.7391  0.3920
  493MOL0     H66492  -0.446   8.325  10.233  4.3843  3.1937  0.5570
  493MOL0     H66493  -0.285   8.287  10.164 -0.0833 -1.2033 -0.9452
  493MOL0     H66494  -0.456   8.301   9.987  2.7500 -0.6858 -0.1293
  493MOL0     H66495  -0.344   8.177   9.987  0.0690  2.2386 -2.4555
  493MOL0     H66496  -0.505   8.024  10.084  3.6402 -1.2539 -2.4923
  493MOL0     H66497  -0.640   8.153  10.086 -1.6363 -2.6710 -1.2541
  493MOL0     H66498  -0.502   8.033   9.841 -0.6380 -3.0113  0.1327
  493MOL0     H66499  -0.657   8.000   9.894 -2.1092  1.6075 -4.2211
  493MOL0     H66500  -0.562   8.276   9.814 -1.1752  1.0453  2.1759
  493MOL0     H66501  -0.646   8.152   9.722 -0.6411 -0.3155  0.1439
  493MOL0     H66502  -0.842   8.157   9.864 -0.9719  0.6275  0.9986
  493MOL0     H66503  -0.773   8.268   9.983 -1.9508  0.2492  0.2067
  493MOL0     H66504  -0.770   8.441   9.809 -1.5487  1.2690 -1.5503
  493MOL0     H66505  -0.932   8.382   9.844 -1.1372 -2.5305 -1.0431
  493MOL0     H66506  -1.051   8.245   9.638  2.4110 -0.9273  3.7581
  493MOL0     H66507  -0.981   8.244   9.246 -1.7428  0.4362 -1.0945
  493MOL0     H66508  -1.085   8.166   9.369 -0.9968  0.8417  1.4032
  493MOL0     H66509  -1.086   8.450   9.274 -0.4299 -0.0900  0.4392
  493MOL0     H66510  -1.191   8.388   9.411  2.4913  1.4790  0.9295
  493MOL0     H66511  -1.197   8.306   9.118 -0.4557  0.6407 -0.2541
  493MOL0     H66512  -1.299   8.428   9.205 -1.2248 -0.8091  0.6165
  493MOL0     H66513  -1.353   8.230   9.372 -3.7744 -1.6243 -0.6834
  493MOL0     H66514  -1.288   8.126   9.239 -2.4977 -0.2455 -2.6601
  493MOL0     H66515  -1.443   7.999   9.353  1.4062  3.9552 -0.4263
  493MOL0     H66516  -1.505   7.821   9.490  0.0732  0.5323 -1.1689
  493MOL0     H66517  -1.633   7.882   9.587  0.9532  1.7467 -0.3080
  493MOL0     H66518  -1.659   7.752   9.477  1.6823 -0.6474 -0.5126
  493MOL0     H66519  -2.222   8.037   9.243  0.3866  1.6842  1.4785
  493MOL0     H66520  -2.470   8.020   9.318  2.4213 -0.6766 -3.9554
  493MOL0     H66521  -2.561   7.714   9.653  0.4727 -0.4979  2.7387
  493MOL0     H66522  -2.553   7.855   9.746  0.4466  1.4696 -1.3214
  493MOL0     H66523  -2.776   7.800   9.564 -0.5131  0.3263  0.2415
  493MOL0     H66524  -2.782   7.746   9.733 -0.4387 -0.0510 -0.6384
  493MOL0     H66525  -2.732   8.047   9.658 -0.7206  1.0174 -0.1056
  493MOL0     H66526  -2.808   7.986   9.805 -2.4225  0.2948 -0.4824
  493MOL0     H66527  -2.957   8.099   9.627 -0.9595  0.3657  1.3556
  493MOL0     H66528  -2.934   7.957   9.524 -2.0904 -1.3389 -0.3312
  493MOL0     H66529  -3.047   7.907   9.804 -1.6883 -0.9971  0.7426
  493MOL0     H66530  -3.012   7.804   9.675 -1.7049 -0.7617  2.4205
  493MOL0     H66531  -3.227   8.028   9.673  1.3070 -0.3582  2.3483
  493MOL0     H66532  -3.191   7.939   9.532 -1.0674  3.5782 -0.4043
  493MOL0     H66533  -3.383   7.826   9.626 -1.7522 -3.1825  2.1951
  493MOL0     H66534  -3.324   7.873   9.789 -2.0060  0.5200 -1.2701
  493MOL0     H66535  -3.189   7.682   9.794  1.8562 -1.6877 -0.9843
  493MOL0     H66536  -3.166   7.665   9.624 -0.9317 -1.3801 -0.3493
  493MOL0     H66537  -2.330   7.798   9.663 -0.9423 -1.5121  0.2113
  493MOL0     H66538  -2.105   7.838   9.592  0.8973 -1.6458 -1.2572
  493MOL0     H66539  -1.905   8.103   9.240  0.3356 -2.1644 -0.7546
  493MOL0     H66540  -1.714   8.265   9.163 -0.7689  2.3957  2.2543
  493MOL0     H66541  -0.121   8.137  10.395  1.1940 -2.5695  1.6219
  493MOL0     H66542   0.122   8.162  10.346 -0.0346 -1.4009  0.6459
  493MOL0     H66543   0.482   8.414  10.167 -1.0161 -0.0870  1.6080
  493MOL0     H66544   0.728   8.410  10.130 -1.2639 -0.0586 -3.4182
  493MOL0     H66545   0.910   8.307   9.979 -3.4843  1.1354  1.6971
  493MOL0     H66546   0.934   8.377  10.139 -0.5835 -1.5166  2.0968
  493MOL0     H66547   1.122   8.271  10.196 -0.0420 -1.6826  0.9731
  493MOL0     H66548   1.140   8.346  10.029  0.7063 -1.0133 -1.3029
  493MOL0     H66549   1.100   8.086   9.952 -0.3658  1.7318 -0.2248
  493MOL0     H66550   1.118   8.049  10.110 -1.6043  2.3422  1.3002
  493MOL0     H66551   1.345   8.238  10.030  0.0847 -0.2964 -4.2947
  493MOL0     H66552   1.343   8.103   9.916  1.3532 -0.6781  0.2612
  493MOL0     H66553   1.516   7.906  10.241  2.2717 -0.1650 -1.3110
  493MOL0     H66554   0.712   7.977  10.157 -2.8905 -0.9569 -1.2301
  493MOL0     H66555   0.485   7.976  10.151  0.9726 -1.4759  1.2973
  494MOL0     O66556   3.641   1.446   4.358 -0.3904 -0.0693 -0.1715
  494MOL0     C66557   3.638   1.474   4.477  0.0138  0.5885  0.2676
  494MOL0     O66558   3.526   1.497   4.546  0.3138  0.0564 -0.1775
  494MOL0     C66559   3.408   1.432   4.506 -0.1329 -0.3689  0.4539
  494MOL0     C66560   3.308   1.509   4.436  0.6979 -0.9201  0.0037
  494MOL0     C66561   3.176   1.462   4.430 -0.3821  0.4102 -0.3708
  494MOL0     C66562   3.144   1.339   4.491  0.9339  0.0800 -0.4283
  494MOL0     O66563   3.011   1.307   4.490  0.0156  0.0709  0.1181
  494MOL0     C66564   2.947   1.211   4.579  0.1188  0.9186  0.2987
  494MOL0     C66565   2.791   1.232   4.588 -0.3191 -0.4288 -0.0843
  494MOL0     C66566   2.718   1.170   4.469  0.1334  0.2473 -0.2499
  494MOL0     C66567   2.567   1.195   4.476  0.0646 -0.2275  0.6714
  494MOL0     C66568   2.478   1.122   4.384  0.0061 -0.3370  0.3718
  494MOL0     C66569   2.317   1.144   4.398 -0.4477 -0.0294  0.6868
  494MOL0     C66570   2.277   1.287   4.408  0.0140  0.8120  0.2765
  494MOL0     C66571   2.126   1.299   4.401 -0.1089  0.5234 -0.0823
  494MOL0     N66572   2.042   1.238   4.501  0.4482  0.5966 -0.0339
  494MOL0     C66573   1.952   1.306   4.573 -0.2431 -0.4820 -0.3962
  494MOL0     C66574   1.881   1.216   4.645  0.2721  0.4027 -0.4630
  494MOL0     C66575   1.765   1.255   4.727 -0.7178 -0.6513 -0.1456
  494MOL0     C66576   1.643   1.256   4.645 -0.3360  0.7473  0.1165
  494MOL0     C66577   1.510   1.253   4.723  0.5378  0.5780 -0.5629
  494MOL0     C66578   1.398   1.225   4.632  0.1585  0.6245  0.1348
  494MOL0     O66579   1.281   1.234   4.717  0.5928 -0.5507  0.0065
  494MOL0     C66580   1.177   1.154   4.692  0.4442 -0.8080  0.3606
  494MOL0     C66581   1.149   1.096   4.565  0.4062 -0.0297 -0.6923
  494MOL0     C66582   1.035   1.014   4.549  0.8443  0.1018  0.6741
  494MOL0     C66583   1.008   0.943   4.420  0.7265  0.2830 -0.3756
  494MOL0     C66584   0.936   1.014   4.654  0.0528 -0.0301  0.6543
  494MOL0     C66585   0.802   0.965   4.630  0.0471  0.2122 -0.0663
  494MOL0     O66586   0.761   0.920   4.759  1.0472  0.2064 -0.7412
  494MOL0     C66587   0.639   0.852   4.775  0.5442 -0.9367  0.5502
  494MOL0     C66588   0.626   0.736   4.855 -0.3638 -0.0028  0.1062
  494MOL0     C66589   0.506   0.692   4.899 -0.1212 -0.8362  0.0547
  494MOL0     C66590   0.392   0.750   4.851  0.2807 -0.1346  0.2858
  494MOL0     O66591   0.271   0.689   4.898  0.2925 -0.0266  0.1474
  494MOL0     C66592   0.150   0.731   4.837  0.2788 -0.4456 -0.0896
  494MOL0     C66593   0.030   0.646   4.882  0.2645  0.1645  0.6257
  494MOL0     C66594  -0.105   0.692   4.827  0.3599 -0.3196  0.3880
  494MOL0     C66595  -0.203   0.573   4.787  0.3012  0.3780  0.3991
  494MOL0     C66596  -0.345   0.631   4.745  0.2300 -1.2394 -0.7730
  494MOL0     C66597  -0.459   0.538   4.739 -0.3259  0.4629 -0.4284
  494MOL0     C66598  -0.572   0.610   4.673  0.4055 -0.4274  0.0645
  494MOL0     C66599  -0.666   0.504   4.653  0.3760 -0.4053  0.2769
  494MOL0    Cl66600  -0.804   0.559   4.557  0.1572  0.1438  0.3069
  494MOL0     C66601   0.400   0.853   4.759  0.9837 -0.0817 -0.3054
  494MOL0     C66602   0.522   0.908   4.719  0.1190 -0.8568  0.6190
  494MOL0     O66603   0.736   0.974   4.528  0.2727 -0.7886 -0.6283
  494MOL0     C66604   0.962   1.091   4.765  0.0027  0.3677  0.3923
  494MOL0     C66605   1.080   1.155   4.788  0.0895  0.8001  0.3343
  494MOL0     N66606   1.925   1.091   4.617 -0.4035 -0.2057 -0.1118
  494MOL0     N66607   2.016   1.107   4.524 -0.4334 -0.0767 -0.7299
  494MOL0     C66608   3.238   1.263   4.555 -0.2228 -0.6055  0.5429
  494MOL0     C66609   3.371   1.313   4.564  0.1346  0.3183  0.2167
  494MOL0     C66610   3.772   1.489   4.534  0.1442  0.1926  0.0743
  494MOL0     C66611   3.891   1.488   4.456  0.0627  0.8612 -0.1571
  494MOL0     C66612   4.014   1.492   4.523 -0.2448 -0.7918  0.1804
  494MOL0     C66613   4.023   1.504   4.659 -0.8408  0.1487 -0.4659
  494MOL0     O66614   4.153   1.513   4.693 -0.3818 -0.0612  0.4017
  494MOL0     C66615   4.186   1.551   4.836  1.2849  0.7824  0.9928
  494MOL0     C66616   4.335   1.572   4.845 -0.2977 -0.0297 -0.1638
  494MOL0     C66617   4.421   1.455   4.815  0.2228 -0.7778 -0.9465
  494MOL0     C66618   4.488   1.405   4.948  0.1239 -0.7000  0.0605
  494MOL0     C66619   4.594   1.493   5.002  0.0014  0.0662  0.3738
  494MOL0     C66620   4.687   1.561   5.036 -0.0659  0.4733  0.0883
  494MOL0     C66621   3.909   1.512   4.737 -0.2697 -0.7482 -0.2510
  494MOL0     C66622   3.777   1.510   4.674  0.3790 -0.5468  0.1639
  494MOL0     H66623   3.329   1.602   4.384 -0.1268 -1.0244 -0.5242
  494MOL0     H66624   3.110   1.521   4.368  2.6006  1.2819 -3.0345
  494MOL0     H66625   2.955   1.113   4.533 -2.7253  1.5645 -1.8955
  494MOL0     H66626   2.978   1.224   4.683  1.0219 -3.4922  0.7741
  494MOL0     H66627   2.752   1.201   4.685 -0.2726  1.9489  0.7623
  494MOL0     H66628   2.765   1.338   4.574 -2.0677 -0.5128  2.0127
  494MOL0     H66629   2.771   1.206   4.380  0.4844 -1.5016 -0.7852
  494MOL0     H66630   2.741   1.064   4.477 -1.1450  0.0588  1.7946
  494MOL0     H66631   2.541   1.170   4.580  0.9682 -0.3347  0.8760
  494MOL0     H66632   2.554   1.304   4.478 -3.4807 -0.5374  0.8657
  494MOL0     H66633   2.504   1.154   4.283  0.9928 -0.1796  0.6584
  494MOL0     H66634   2.503   1.016   4.396 -0.5044 -0.3836  1.0931
  494MOL0     H66635   2.268   1.096   4.314  1.2822 -0.3556 -0.1908
  494MOL0     H66636   2.272   1.080   4.475 -4.1002  0.1131 -1.1368
  494MOL0     H66637   2.314   1.326   4.503  1.3369 -2.5973  1.2700
  494MOL0     H66638   2.324   1.348   4.330  0.4091  1.4524  1.0043
  494MOL0     H66639   2.095   1.249   4.308  2.4583  3.2604 -2.6464
  494MOL0     H66640   2.101   1.404   4.385  2.1843  1.0545 -0.6000
  494MOL0     H66641   1.950   1.414   4.564 -0.3284 -0.4160  0.3464
  494MOL0     H66642   1.761   1.187   4.813  2.6931 -2.5834 -1.3421
  494MOL0     H66643   1.790   1.358   4.754 -1.8834  0.6545 -3.4478
  494MOL0     H66644   1.649   1.164   4.587  0.5165  0.3427  0.8198
  494MOL0     H66645   1.643   1.330   4.565 -0.3206  1.0385  0.3842
  494MOL0     H66646   1.487   1.352   4.764  1.4522  0.8227 -0.6279
  494MOL0     H66647   1.504   1.174   4.799 -0.7981 -0.2464 -1.4858
  494MOL0     H66648   1.415   1.127   4.587  2.5931  0.4145  1.3571
  494MOL0     H66649   1.391   1.289   4.544 -1.9807 -1.5252 -1.4006
  494MOL0     H66650   1.205   1.117   4.474  1.2644  0.2755 -0.1030
  494MOL0     H66651   0.982   0.839   4.442 -2.2698  1.0054 -0.0026
  494MOL0     H66652   0.918   0.986   4.375  0.7003  0.1422 -0.4554
  494MOL0     H66653   1.092   0.950   4.351  1.8185  0.1616  0.8965
  494MOL0     H66654   0.710   0.676   4.890 -0.9087 -2.6688 -2.6819
  494MOL0     H66655   0.493   0.609   4.968  1.4951 -0.1151  1.2833
  494MOL0     H66656   0.126   0.835   4.861 -3.5744 -0.7750 -1.8112
  494MOL0     H66657   0.146   0.725   4.728 -1.2922  1.5369 -0.2081
  494MOL0     H66658   0.055   0.553   4.831  0.7314  0.1181  0.9383
  494MOL0     H66659   0.026   0.636   4.991  2.3911  3.2676  1.1163
  494MOL0     H66660  -0.101   0.767   4.747  1.3641 -0.0261  0.6995
  494MOL0     H66661  -0.164   0.743   4.904 -2.1914  0.0267 -1.6282
  494MOL0     H66662  -0.152   0.513   4.711 -2.3574  0.1020 -1.3049
  494MOL0     H66663  -0.206   0.498   4.867  0.1023 -0.8860 -0.7565
  494MOL0     H66664  -0.333   0.683   4.650 -2.0433  1.7662  0.4258
  494MOL0     H66665  -0.361   0.699   4.829  0.2087  1.1483 -2.6185
  494MOL0     H66666  -0.431   0.458   4.669 -1.5391  0.9558 -1.5248
  494MOL0     H66667  -0.479   0.503   4.841 -0.3807 -0.8417 -0.8678
  494MOL0     H66668  -0.546   0.650   4.575  0.2226  1.1331  0.6263
  494MOL0     H66669  -0.608   0.691   4.737  0.4502 -0.1674 -0.2393
  494MOL0     H66670  -0.696   0.457   4.747 -2.2039 -1.0559 -0.7724
  494MOL0     H66671  -0.636   0.417   4.593 -2.3991 -1.7823  0.7229
  494MOL0     H66672   0.307   0.895   4.721  1.0381 -0.9098 -1.4075
  494MOL0     H66673   0.515   0.987   4.644 -0.3112 -1.3753  0.1064
  494MOL0     H66674   0.882   1.098   4.838 -0.5143 -0.7946 -0.0306
  494MOL0     H66675   1.100   1.226   4.868 -0.3297  2.2860 -0.8352
  494MOL0     H66676   3.211   1.167   4.597 -1.1948 -0.6206 -0.0886
  494MOL0     H66677   3.441   1.256   4.624  1.9207  1.9251 -0.2383
  494MOL0     H66678   3.879   1.481   4.349 -1.6279  1.6616 -0.0550
  494MOL0     H66679   4.106   1.487   4.467  0.6290  1.3995  1.2998
  494MOL0     H66680   4.123   1.636   4.863 -2.2506 -0.7154 -1.6144
  494MOL0     H66681   4.159   1.466   4.900  2.2547 -0.6271 -0.3795
  494MOL0     H66682   4.365   1.614   4.942 -0.0706 -2.1145  0.7219
  494MOL0     H66683   4.361   1.642   4.764 -0.0881  0.0726 -0.0114
  494MOL0     H66684   4.502   1.493   4.753 -0.8357  0.6150 -1.5281
  494MOL0     H66685   4.364   1.381   4.758 -1.2592  1.1225 -2.0479
  494MOL0     H66686   4.540   1.312   4.923  1.6356  0.0830  0.2149
  494MOL0     H66687   4.402   1.391   5.015 -1.5675  0.6588 -1.7075
  494MOL0     H66688   4.762   1.627   5.076 -0.0643  0.8440 -0.5144
  494MOL0     H66689   3.916   1.542   4.841 -2.9025  1.0778 -0.4816
  494MOL0     H66690   3.691   1.503   4.739 -1.1213  0.1826 -1.6525
  495MOL0     O66691  10.076   4.074   2.834  0.5389 -0.3639 -0.1542
  495MOL0     C66692  10.130   4.029   2.942 -0.2765 -0.9073  0.0646
  495MOL0     O66693  10.073   4.015   3.061  0.3294  0.3908  0.0809
  495MOL0     C66694   9.937   4.022   3.067 -0.8727 -0.6562  0.9190
  495MOL0     C66695   9.862   4.128   3.010 -0.1463 -0.4602  0.4367
  495MOL0     C66696   9.719   4.123   3.028 -0.4589  0.2783 -0.3279
  495MOL0     C66697   9.661   4.020   3.100 -0.5546  0.0765  0.3078
  495MOL0     O66698   9.530   4.024   3.134  0.0288 -0.1925 -0.2350
  495MOL0     C66699   9.511   4.077   3.272 -1.0300 -0.0039  0.6856
  495MOL0     C66700   9.387   4.019   3.340 -0.2586 -0.1908  0.1006
  495MOL0     C66701   9.264   4.035   3.246  0.2910  0.2479 -0.1251
  495MOL0     C66702   9.136   3.986   3.316 -1.1711 -0.2239  0.7743
  495MOL0     C66703   9.023   3.980   3.210 -0.2248  0.4859 -0.3593
  495MOL0     C66704   8.888   3.924   3.267  0.0300  0.2582  0.0001
  495MOL0     C66705   8.773   3.925   3.155 -0.1944  0.8954  0.1919
  495MOL0     C66706   8.784   3.808   3.053 -0.2322  0.3104  0.8568
  495MOL0     N66707   8.721   3.693   3.102 -0.3631 -0.4241 -0.1140
  495MOL0     C66708   8.588   3.652   3.072  0.0630 -0.2812 -0.0160
  495MOL0     C66709   8.578   3.526   3.115 -0.7615 -0.5368  0.2045
  495MOL0     C66710   8.455   3.441   3.134 -0.4521 -0.0874 -0.2473
  495MOL0     C66711   8.442   3.358   3.008  0.2756 -0.6909 -0.0961
  495MOL0     C66712   8.332   3.255   3.036 -0.2453  0.6278  0.8796
  495MOL0     C66713   8.292   3.181   2.902 -0.8058  0.4164 -0.1232
  495MOL0     O66714   8.242   3.270   2.800  0.2492 -0.2389 -0.3914
  495MOL0     C66715   8.132   3.350   2.808  0.0340  0.3657 -0.3715
  495MOL0     C66716   8.037   3.329   2.905  0.3238  0.0466 -0.3150
  495MOL0     C66717   7.908   3.397   2.899  0.3469  0.5173 -0.1548
  495MOL0     C66718   7.805   3.358   3.007  0.3202 -0.0020  0.3561
  495MOL0     C66719   7.889   3.496   2.802 -0.0043  0.7197 -0.1301
  495MOL0     C66720   7.762   3.584   2.790 -0.6962  0.3949 -0.2167
  495MOL0     O66721   7.677   3.583   2.902 -0.0756  0.3025 -0.2465
  495MOL0     C66722   7.560   3.642   2.897 -0.1999 -0.0329  0.0801
  495MOL0     C66723   7.540   3.783   2.913  0.2837  0.0727  0.2656
  495MOL0     C66724   7.414   3.833   2.896  0.3378  0.5607 -0.2223
  495MOL0     C66725   7.312   3.751   2.847 -0.2285  0.6561 -0.0480
  495MOL0     O66726   7.191   3.812   2.832 -0.3961 -0.3055 -0.3286
  495MOL0     C66727   7.078   3.743   2.854  0.4071  0.2010 -0.4394
  495MOL0     C66728   6.971   3.838   2.883  0.5299 -0.1163  0.7607
  495MOL0     C66729   6.949   3.939   2.764  0.5040 -0.3323 -0.3996
  495MOL0     C66730   6.809   3.994   2.789  0.0861  0.1669  0.0685
  495MOL0     C66731   6.769   4.108   2.701 -0.9111  0.1613  0.9280
  495MOL0     C66732   6.622   4.125   2.693 -0.0643 -0.4876 -0.4054
  495MOL0     C66733   6.586   4.240   2.605  0.5215 -0.0748 -0.5623
  495MOL0     C66734   6.428   4.237   2.576 -0.2952 -0.1302 -0.6009
  495MOL0    Cl66735   6.382   4.089   2.488  0.0407 -0.1948 -0.2457
  495MOL0     C66736   7.337   3.616   2.824  0.2853 -0.5006 -0.2795
  495MOL0     C66737   7.458   3.562   2.849  0.3754  0.1980  0.1271
  495MOL0     O66738   7.747   3.651   2.691  0.5865  0.5794 -0.3188
  495MOL0     C66739   7.991   3.518   2.710 -0.1143  0.4516 -0.0070
  495MOL0     C66740   8.105   3.434   2.708 -0.4133 -0.7959 -0.4632
  495MOL0     N66741   8.703   3.492   3.166  0.0720 -0.6159  0.4464
  495MOL0     N66742   8.788   3.589   3.147 -0.2246  0.9321 -0.6063
  495MOL0     C66743   9.742   3.915   3.143 -0.3321  0.2917  0.6891
  495MOL0     C66744   9.880   3.917   3.128  0.5985  0.8410  0.1294
  495MOL0     C66745  10.278   3.991   2.939  0.1441  0.4296 -0.5279
  495MOL0     C66746  10.347   3.944   3.051 -0.6373 -0.0655 -0.2429
  495MOL0     C66747  10.490   3.926   3.040  0.0946  0.5695  0.3494
  495MOL0     C66748  10.548   3.927   2.916  0.2352  0.0006  0.4100
  495MOL0     O66749  10.689   3.908   2.928 -0.2660 -0.0537  0.2872
  495MOL0     C66750  10.751   3.890   2.797  0.4145 -0.4320 -0.4517
  495MOL0     C66751  10.899   3.903   2.813 -0.4885  0.6037 -0.1549
  495MOL0     C66752  10.959   3.801   2.911  0.7609 -0.4891  0.2747
  495MOL0     C66753  11.106   3.819   2.945 -0.4554 -0.8807 -0.5987
  495MOL0     C66754  11.126   3.959   2.988 -0.1604  1.1477  0.4113
  495MOL0     C66755  11.138   4.077   3.018  0.2889 -0.5877 -0.0991
  495MOL0     C66756  10.470   3.953   2.801  0.1184  1.3393 -0.2972
  495MOL0     C66757  10.338   3.994   2.814 -0.0995  0.4242  0.9478
  495MOL0     H66758   9.917   4.210   2.965  0.3483 -1.0822 -0.1121
  495MOL0     H66759   9.651   4.203   3.000 -2.2239 -0.2890  2.0783
  495MOL0     H66760   9.601   4.050   3.327 -1.0994 -1.9583 -0.0833
  495MOL0     H66761   9.492   4.185   3.277 -4.0393 -0.4231  0.5402
  495MOL0     H66762   9.399   3.913   3.363  2.7890  0.1505  0.4957
  495MOL0     H66763   9.366   4.070   3.434 -2.4873  0.1168 -0.4878
  495MOL0     H66764   9.262   4.143   3.229  0.4824  0.2699 -0.0144
  495MOL0     H66765   9.277   3.979   3.153  0.2696 -1.1508  0.6811
  495MOL0     H66766   9.159   3.885   3.352 -2.0705 -1.5480 -2.0658
  495MOL0     H66767   9.103   4.056   3.394 -4.3461  0.1604 -0.7478
  495MOL0     H66768   9.009   4.079   3.165 -3.5836 -0.4693 -1.7994
  495MOL0     H66769   9.063   3.913   3.133  0.6673 -0.0907  0.5912
  495MOL0     H66770   8.908   3.824   3.306 -2.2755 -1.0398 -1.8628
  495MOL0     H66771   8.857   3.989   3.349  1.8684 -0.6136  1.4751
  495MOL0     H66772   8.673   3.932   3.199  0.1352  1.6493  0.8572
  495MOL0     H66773   8.791   4.015   3.095 -0.1659 -0.3934 -1.8167
  495MOL0     H66774   8.885   3.777   3.024 -0.5797  1.4664 -1.9107
  495MOL0     H66775   8.739   3.843   2.960  0.4015  0.0318  0.4387
  495MOL0     H66776   8.519   3.725   3.031  2.9074  2.2793 -0.6011
  495MOL0     H66777   8.473   3.385   3.226 -0.8179 -0.4808 -0.4130
  495MOL0     H66778   8.371   3.510   3.146  1.2766  1.7318  2.4378
  495MOL0     H66779   8.533   3.312   2.970 -0.7241 -1.2496 -1.9411
  495MOL0     H66780   8.404   3.417   2.924  1.9311 -0.4335 -0.6942
  495MOL0     H66781   8.239   3.304   3.067 -3.3087 -2.2269 -2.8324
  495MOL0     H66782   8.358   3.181   3.113  2.6122 -1.1771 -1.5966
  495MOL0     H66783   8.219   3.107   2.937  0.5032 -0.4040  0.9481
  495MOL0     H66784   8.375   3.117   2.873 -3.0300 -3.7874  1.8580
  495MOL0     H66785   8.033   3.255   2.984  1.4900  0.2481 -0.0557
  495MOL0     H66786   7.797   3.444   3.074 -1.4388 -0.1755  0.4189
  495MOL0     H66787   7.712   3.322   2.961  0.8455 -0.2049 -0.5889
  495MOL0     H66788   7.833   3.274   3.071 -1.1257 -0.7440  0.0640
  495MOL0     H66789   7.624   3.850   2.929  1.0389 -0.6973 -0.3204
  495MOL0     H66790   7.392   3.936   2.921  0.4917  0.7307 -0.7660
  495MOL0     H66791   7.057   3.688   2.762 -0.7529  0.8698 -0.5903
  495MOL0     H66792   7.103   3.678   2.938  4.2237  2.4994  0.4577
  495MOL0     H66793   6.873   3.790   2.894  0.9050 -1.3200 -0.8350
  495MOL0     H66794   6.985   3.893   2.977 -1.6133 -0.6035  1.4243
  495MOL0     H66795   6.956   3.879   2.672 -1.5443  0.5268 -1.1702
  495MOL0     H66796   7.022   4.021   2.764  0.3401 -0.1380 -2.1329
  495MOL0     H66797   6.733   3.916   2.776 -0.4660  0.7932 -0.5760
  495MOL0     H66798   6.804   4.028   2.893  0.7909 -0.2275  0.2362
  495MOL0     H66799   6.815   4.090   2.603  1.9829  2.2837  1.7227
  495MOL0     H66800   6.823   4.198   2.734 -0.7743  0.0451  1.0227
  495MOL0     H66801   6.585   4.028   2.658  0.9993 -0.0907 -2.8509
  495MOL0     H66802   6.591   4.160   2.792 -0.2909 -2.1704  0.1522
  495MOL0     H66803   6.629   4.227   2.506  0.3303  0.8943 -0.7868
  495MOL0     H66804   6.617   4.335   2.651  0.9946 -0.1431 -0.7460
  495MOL0     H66805   6.404   4.321   2.510  1.6960  2.2119  1.4763
  495MOL0     H66806   6.371   4.254   2.668 -2.7531  1.5503 -2.3129
  495MOL0     H66807   7.267   3.546   2.780 -0.7986  0.5079 -0.2047
  495MOL0     H66808   7.485   3.457   2.839 -0.5357 -0.4080  3.2620
  495MOL0     H66809   7.987   3.593   2.632  3.0609  2.2132  1.3449
  495MOL0     H66810   8.190   3.445   2.642  1.0064 -1.7543  1.1235
  495MOL0     H66811   9.701   3.830   3.197  1.5863 -2.0813 -1.3100
  495MOL0     H66812   9.942   3.834   3.161 -0.6166  0.1990  0.8533
  495MOL0     H66813  10.301   3.944   3.149  0.9586 -0.6826  0.5457
  495MOL0     H66814  10.551   3.897   3.124  1.2720 -3.4635 -1.6255
  495MOL0     H66815  10.721   3.792   2.760  1.7031 -1.5417  1.3237
  495MOL0     H66816  10.717   3.974   2.736 -2.4578  0.2915  1.8865
  495MOL0     H66817  10.928   4.004   2.844 -0.7767  0.2798  1.2722
  495MOL0     H66818  10.949   3.889   2.717 -1.3949 -1.6357 -0.3642
  495MOL0     H66819  10.923   3.704   2.875 -1.2845  0.5829 -0.7723
  495MOL0     H66820  10.903   3.817   3.003  0.1338  1.0090 -0.3330
  495MOL0     H66821  11.183   3.788   2.873  2.6972  0.4714  1.9164
  495MOL0     H66822  11.109   3.753   3.032  0.6191 -0.4332 -0.2777
  495MOL0     H66823  11.135   4.181   3.044 -1.2297 -1.0443  1.8044
  495MOL0     H66824  10.509   3.945   2.700  0.1224 -3.1362 -0.1088
  495MOL0     H66825  10.291   4.032   2.724 -1.3926 -0.6936  1.1055
  496MOL0     O66826   4.616   4.492  11.050  0.8664  0.1456 -0.0021
  496MOL0     C66827   4.666   4.425  11.138 -0.7554 -0.4846 -0.2649
  496MOL0     O66828   4.609   4.341  11.228  0.1872 -0.4049  0.0139
  496MOL0     C66829   4.474   4.320  11.236  0.0720  0.4379 -0.8004
  496MOL0     C66830   4.439   4.209  11.312  0.3570 -0.4936  0.1169
  496MOL0     C66831   4.304   4.191  11.354 -0.2568 -0.0499 -0.1901
  496MOL0     C66832   4.198   4.276  11.300 -1.1581  0.1027 -0.3204
  496MOL0     O66833   4.065   4.257  11.339  0.0321  0.3589 -0.5903
  496MOL0     C66834   3.967   4.332  11.266 -0.0143  0.2185  0.2670
  496MOL0     C66835   3.823   4.290  11.311  1.1532 -0.1445 -0.5122
  496MOL0     C66836   3.796   4.298  11.462  0.8723 -0.2594  0.1294
  496MOL0     C66837   3.642   4.303  11.505 -0.2864 -0.5818 -0.6403
  496MOL0     C66838   3.629   4.372  11.642 -0.4432 -0.0777  0.3446
  496MOL0     C66839   3.488   4.357  11.691  0.9439 -0.0755 -0.0095
  496MOL0     C66840   3.476   4.402  11.839 -0.4354  0.2059 -0.4149
  496MOL0     C66841   3.352   4.343  11.918 -0.3758  0.1134 -0.2979
  496MOL0     N66842   3.232   4.346  11.841  0.2977 -0.8302 -0.8646
  496MOL0     C66843   3.164   4.455  11.790  0.4867 -0.8386 -0.5221
  496MOL0     C66844   3.054   4.398  11.733 -0.1297 -0.7463  0.2885
  496MOL0     C66845   2.956   4.474  11.642  0.2586 -0.0909  0.4586
  496MOL0     C66846   2.828   4.533  11.721  0.0411  0.0494  0.0623
  496MOL0     C66847   2.768   4.433  11.814 -0.4743  0.1091  0.4736
  496MOL0     C66848   2.627   4.470  11.844 -0.3017  0.4527  0.1066
  496MOL0     O66849   2.552   4.447  11.727  0.4678 -0.7536  0.2263
  496MOL0     C66850   2.435   4.518  11.731 -0.1064  0.5479  0.5227
  496MOL0     C66851   2.408   4.611  11.632 -0.0283 -0.4390 -0.0007
  496MOL0     C66852   2.287   4.679  11.625 -0.1091  0.0698 -0.2858
  496MOL0     C66853   2.274   4.776  11.508  0.0635  0.4089 -0.4887
  496MOL0     C66854   2.191   4.653  11.726 -0.1073  0.0110  0.2729
  496MOL0     C66855   2.053   4.720  11.721 -0.3491 -0.2036 -0.1226
  496MOL0     O66856   1.966   4.655  11.808 -0.1366 -0.4488  1.0290
  496MOL0     C66857   1.848   4.722  11.826 -0.2939  0.6304  0.4804
  496MOL0     C66858   1.729   4.677  11.772  0.0509  0.2916 -0.1894
  496MOL0     C66859   1.613   4.742  11.796  0.0583 -0.3333 -0.1266
  496MOL0     C66860   1.610   4.853  11.886  0.5370  0.1594  0.8199
  496MOL0     O66861   1.492   4.906  11.925  0.0807  0.0118 -0.4217
  496MOL0     C66862   1.477   5.032  11.988  0.6905  0.1971  0.2790
  496MOL0     C66863   1.325   5.074  11.976  0.0166  0.1445  0.1900
  496MOL0     C66864   1.238   4.987  12.064 -0.7867  0.4376 -0.6589
  496MOL0     C66865   1.099   5.005  12.008 -0.4776  0.5099 -0.0887
  496MOL0     C66866   0.994   4.930  12.095 -0.4377  0.0974  0.1057
  496MOL0     C66867   0.969   4.999  12.227  0.2474  0.4640  1.3101
  496MOL0     C66868   0.831   4.973  12.274  0.5137  0.3366 -0.3118
  496MOL0     C66869   0.814   5.041  12.407  0.1529 -0.4075 -0.7827
  496MOL0    Cl66870   0.678   4.958  12.481  0.0633 -0.3260  0.0730
  496MOL0     C66871   1.726   4.886  11.949 -0.4860  0.5903  0.5630
  496MOL0     C66872   1.846   4.821  11.922  0.1769  0.3824  0.8064
  496MOL0     O66873   2.032   4.826  11.669 -0.4459  0.1686 -0.0982
  496MOL0     C66874   2.214   4.542  11.817 -0.4902  0.1052  0.2425
  496MOL0     C66875   2.340   4.477  11.820  0.4342 -0.2500  0.4512
  496MOL0     N66876   3.063   4.263  11.738 -0.8487  1.4716  0.0248
  496MOL0     N66877   3.171   4.229  11.803  0.3957 -0.4165 -0.2740
  496MOL0     C66878   4.243   4.364  11.198  0.3777 -0.1104  0.2221
  496MOL0     C66879   4.375   4.388  11.169 -0.7960 -0.3272  0.3796
  496MOL0     C66880   4.807   4.436  11.145  0.0035 -0.8447  0.0746
  496MOL0     C66881   4.896   4.469  11.035  0.4592 -0.0212  0.3424
  496MOL0     C66882   5.030   4.504  11.058 -1.3414 -0.0007  0.9649
  496MOL0     C66883   5.075   4.521  11.188  0.2174 -0.1597 -0.9113
  496MOL0     O66884   5.212   4.559  11.194  0.0929 -0.1673 -0.0088
  496MOL0     C66885   5.262   4.598  11.320  0.1219  0.0709 -0.2540
  496MOL0     C66886   5.406   4.640  11.297 -0.1547  0.4326  0.3195
  496MOL0     C66887   5.487   4.692  11.412 -0.2667 -0.2557 -0.4037
  496MOL0     C66888   5.633   4.701  11.371 -0.1342  0.2682 -0.4042
  496MOL0     C66889   5.700   4.795  11.465  0.3189  0.1420 -0.3930
  496MOL0     C66890   5.747   4.850  11.559 -0.0050 -0.1319  0.0394
  496MOL0     C66891   4.996   4.483  11.293 -0.1859  0.0478  0.2358
  496MOL0     C66892   4.863   4.441  11.270  0.4843  0.5093 -0.4382
  496MOL0     H66893   4.520   4.151  11.354  1.3410 -1.5731 -2.9702
  496MOL0     H66894   4.284   4.118  11.432  2.3682  1.5700  2.1660
  496MOL0     H66895   3.967   4.439  11.292 -0.9274 -0.1241  1.8254
  496MOL0     H66896   3.974   4.314  11.159 -1.0357 -3.2011  0.6611
  496MOL0     H66897   3.759   4.364  11.261  0.8527 -0.1132 -0.0851
  496MOL0     H66898   3.791   4.193  11.271 -1.5950 -0.3169  1.7989
  496MOL0     H66899   3.848   4.210  11.502  1.3567 -0.8638 -1.7220
  496MOL0     H66900   3.841   4.388  11.503 -2.5645  0.6979  2.1759
  496MOL0     H66901   3.582   4.361  11.434  0.0032  0.0157 -0.4119
  496MOL0     H66902   3.591   4.207  11.509 -2.1387  0.3628 -0.5391
  496MOL0     H66903   3.697   4.312  11.703 -0.1560  1.0777  1.1918
  496MOL0     H66904   3.665   4.475  11.627  1.3484 -0.7256 -0.1076
  496MOL0     H66905   3.422   4.411  11.622  3.1997 -0.4973 -2.6957
  496MOL0     H66906   3.461   4.251  11.680 -0.1431 -0.0177  1.8204
  496MOL0     H66907   3.569   4.372  11.887 -0.2115 -0.3550 -1.1702
  496MOL0     H66908   3.472   4.511  11.834 -1.2818  0.1394 -3.8876
  496MOL0     H66909   3.336   4.397  12.012 -1.4501 -2.9521  1.3947
  496MOL0     H66910   3.371   4.238  11.939 -1.7223  0.0770  0.8344
  496MOL0     H66911   3.192   4.558  11.810  2.4276 -1.7804  2.0990
  496MOL0     H66912   3.000   4.557  11.586 -2.0088  1.3129  0.6134
  496MOL0     H66913   2.924   4.402  11.566  3.0597 -1.9538  0.8911
  496MOL0     H66914   2.755   4.558  11.644 -1.1329  3.0712  1.9493
  496MOL0     H66915   2.846   4.624  11.779 -1.5087  0.9773 -0.8409
  496MOL0     H66916   2.820   4.432  11.911 -2.0526 -2.6202  1.3921
  496MOL0     H66917   2.773   4.328  11.783 -1.9261  0.3686 -0.7232
  496MOL0     H66918   2.623   4.571  11.886  0.0946  0.4812  0.0822
  496MOL0     H66919   2.585   4.397  11.914 -0.2403 -0.0302 -0.3594
  496MOL0     H66920   2.491   4.635  11.565  1.2268  2.0318  2.2465
  496MOL0     H66921   2.334   4.747  11.422 -0.1182 -0.4559 -0.3336
  496MOL0     H66922   2.171   4.798  11.479  1.1003  3.8027 -2.0465
  496MOL0     H66923   2.312   4.874  11.539  2.0486 -0.2098 -0.8620
  496MOL0     H66924   1.734   4.589  11.710 -3.2428  0.0866 -0.3413
  496MOL0     H66925   1.521   4.694  11.764  1.1877 -1.5327 -1.6890
  496MOL0     H66926   1.509   5.029  12.093 -0.9078  2.0286  0.8829
  496MOL0     H66927   1.533   5.106  11.931  1.6256 -1.0594 -0.4874
  496MOL0     H66928   1.326   5.182  11.994 -0.0229  0.0725  0.6256
  496MOL0     H66929   1.302   5.057  11.870  0.3532  0.1981  0.1066
  496MOL0     H66930   1.257   5.008  12.170 -1.7902 -0.4081 -0.2962
  496MOL0     H66931   1.276   4.887  12.044 -1.1635  0.5060 -1.7904
  496MOL0     H66932   1.073   5.109  11.986  0.3705  0.1855 -3.1085
  496MOL0     H66933   1.106   4.954  11.912  4.2898 -0.8119  0.7071
  496MOL0     H66934   1.026   4.826  12.099  1.5673  0.7033  0.7577
  496MOL0     H66935   0.898   4.929  12.041  0.4862  0.5320 -1.6144
  496MOL0     H66936   1.032   4.947  12.300  0.7975 -1.7648 -0.6395
  496MOL0     H66937   0.982   5.107  12.211 -4.3142  0.7261 -3.1765
  496MOL0     H66938   0.803   4.870  12.299  0.8567  0.2200 -0.4089
  496MOL0     H66939   0.752   5.009  12.207  0.0453  2.9343  1.4935
  496MOL0     H66940   0.812   5.150  12.405 -1.8247 -0.2340  2.5913
  496MOL0     H66941   0.898   5.014  12.472 -2.2155 -2.8958  1.5448
  496MOL0     H66942   1.738   4.966  12.022  0.9569  1.0106 -0.0988
  496MOL0     H66943   1.933   4.845  11.981  0.5392  2.4865 -0.4570
  496MOL0     H66944   2.134   4.510  11.883  0.0235  1.4216  1.5806
  496MOL0     H66945   2.344   4.391  11.886 -1.5264  0.0964  1.0757
  496MOL0     H66946   4.171   4.417  11.137 -0.9763 -1.2932  0.7204
  496MOL0     H66947   4.388   4.473  11.103  0.9829  1.7559  3.1680
  496MOL0     H66948   4.874   4.483  10.930  1.0825  1.9755  0.4400
  496MOL0     H66949   5.090   4.551  10.980 -0.7294 -2.1561  0.0692
  496MOL0     H66950   5.208   4.678  11.373 -1.8411 -1.7856  0.7056
  496MOL0     H66951   5.272   4.522  11.398 -0.0303 -0.9132 -1.1773
  496MOL0     H66952   5.410   4.710  11.213  3.0085 -1.5407 -1.3814
  496MOL0     H66953   5.461   4.551  11.265  1.2726  1.0034  1.0995
  496MOL0     H66954   5.473   4.625  11.497  0.2285  2.1377  1.6973
  496MOL0     H66955   5.446   4.789  11.442 -0.5302 -0.6222  0.4720
  496MOL0     H66956   5.634   4.733  11.266  0.3537  0.0942 -0.4543
  496MOL0     H66957   5.683   4.604  11.371 -1.9408 -0.7582 -2.5430
  496MOL0     H66958   5.791   4.900  11.643  1.7392  0.7683 -1.3338
  496MOL0     H66959   5.027   4.482  11.397 -3.2845 -0.0484  1.2594
  496MOL0     H66960   4.810   4.409  11.359 -1.1764  2.3684 -0.6977
  497MOL0     O66961   2.684   6.769   5.110  0.5314  0.7509  0.0654
  497MOL0     C66962   2.654   6.686   5.192  0.2485  0.4756 -0.0847
  497MOL0     O66963   2.737   6.614   5.275 -0.1492 -0.1181 -0.1303
  497MOL0     C66964   2.867   6.644   5.262 -0.8156 -0.3247 -0.4472
  497MOL0     C66965   2.918   6.775   5.285  0.9378  0.4387 -0.1526
  497MOL0     C66966   3.053   6.802   5.254  0.5024  0.1728 -0.6949
  497MOL0     C66967   3.142   6.704   5.209  0.3669 -0.0150 -0.7054
  497MOL0     O66968   3.264   6.747   5.179 -0.3606  0.0935 -0.3170
  497MOL0     C66969   3.371   6.695   5.255  0.5328 -0.0625  0.2883
  497MOL0     C66970   3.490   6.785   5.260  1.0678  0.3716  0.1632
  497MOL0     C66971   3.459   6.908   5.351  0.3589  0.1867 -0.0318
  497MOL0     C66972   3.584   6.992   5.384  0.2051 -1.1351  0.4112
  497MOL0     C66973   3.569   7.110   5.479  0.5176 -0.9314  0.1634
  497MOL0     C66974   3.500   7.235   5.426  0.2236  0.1899 -0.8406
  497MOL0     C66975   3.546   7.374   5.484 -0.0157  0.2969  0.4773
  497MOL0     C66976   3.512   7.386   5.632  0.5261 -0.3019 -0.3985
  497MOL0     N66977   3.364   7.390   5.647 -0.2058  0.1759  0.4644
  497MOL0     C66978   3.292   7.501   5.618 -0.1775 -0.1587  0.2850
  497MOL0     C66979   3.162   7.466   5.650 -0.3109 -0.1920 -0.1931
  497MOL0     C66980   3.030   7.546   5.645 -0.5945  0.2654 -0.1653
  497MOL0     C66981   2.930   7.504   5.756 -0.3594 -0.2569  0.5129
  497MOL0     C66982   2.791   7.580   5.752 -0.9269  0.4541 -0.0849
  497MOL0     C66983   2.712   7.555   5.628  1.0659  0.6027  0.1423
  497MOL0     O66984   2.697   7.418   5.607  0.1767  0.2929 -0.1510
  497MOL0     C66985   2.624   7.378   5.498  0.4396 -0.2576  0.7201
  497MOL0     C66986   2.606   7.236   5.486  0.0174 -0.2783  0.3116
  497MOL0     C66987   2.537   7.176   5.378 -0.2989 -0.7786 -0.1927
  497MOL0     C66988   2.552   7.028   5.370 -0.2531 -0.4184  1.0911
  497MOL0     C66989   2.469   7.260   5.280 -0.7080  0.2057  0.4758
  497MOL0     C66990   2.383   7.205   5.170  1.4424 -0.5003 -0.4156
  497MOL0     O66991   2.352   7.078   5.156  0.3049 -0.0086  0.1976
  497MOL0     C66992   2.248   7.041   5.056 -0.2447 -1.3850 -0.8096
  497MOL0     C66993   2.113   7.045   5.094  0.8372  0.1786  0.5958
  497MOL0     C66994   2.009   6.989   5.015  0.3980  0.8050 -0.4617
  497MOL0     C66995   2.036   6.939   4.895 -0.8037 -0.3243  1.1875
  497MOL0     O66996   1.930   6.888   4.815  0.0422 -0.0917  0.1532
  497MOL0     C66997   1.873   6.763   4.851 -0.0745  0.2727 -0.9352
  497MOL0     C66998   1.950   6.643   4.787  0.0249  0.1209  0.2275
  497MOL0     C66999   1.950   6.659   4.635 -0.7961 -0.8667  0.7391
  497MOL0     C67000   1.962   6.518   4.575 -0.4734  0.7415 -1.0299
  497MOL0     C67001   1.947   6.522   4.421 -0.1918  0.2570  0.5149
  497MOL0     C67002   1.802   6.522   4.370 -0.5971 -0.4259 -0.4304
  497MOL0     C67003   1.750   6.390   4.314  0.2803  0.6337 -1.0620
  497MOL0     C67004   1.599   6.413   4.263 -0.2932  0.2057  0.3374
  497MOL0    Cl67005   1.605   6.499   4.106  0.4185 -0.0315 -0.3894
  497MOL0     C67006   2.170   6.943   4.846  0.6085 -0.6142  1.1345
  497MOL0     C67007   2.278   6.993   4.929  0.4454  0.4015 -0.3448
  497MOL0     O67008   2.355   7.292   5.084 -0.1405 -0.0652 -0.1765
  497MOL0     C67009   2.480   7.401   5.306 -0.8045 -0.1918 -0.4514
  497MOL0     C67010   2.548   7.461   5.412 -1.2154 -0.1338  0.0176
  497MOL0     N67011   3.166   7.337   5.703 -0.9524  0.1663 -0.5763
  497MOL0     N67012   3.287   7.292   5.697 -0.0613 -0.1040  0.2152
  497MOL0     C67013   3.096   6.569   5.206 -0.5744 -0.4063  0.0578
  497MOL0     C67014   2.964   6.549   5.223  0.0141  0.2055 -0.8727
  497MOL0     C67015   2.508   6.655   5.208  0.6720 -0.2836 -0.2537
  497MOL0     C67016   2.465   6.535   5.274  0.1542 -0.1545  0.4911
  497MOL0     C67017   2.330   6.500   5.273 -0.4634  0.2467  0.3252
  497MOL0     C67018   2.236   6.581   5.212  0.0077 -0.1515  0.5368
  497MOL0     O67019   2.103   6.557   5.224 -0.5675 -0.1639 -0.8028
  497MOL0     C67020   2.066   6.507   5.353  0.1627 -0.1654 -0.1062
  497MOL0     C67021   1.918   6.487   5.342 -0.7748 -0.1636 -0.0719
  497MOL0     C67022   1.851   6.485   5.480  0.1223  0.1835  0.0064
  497MOL0     C67023   1.710   6.429   5.448  0.4426  0.5090 -0.6314
  497MOL0     C67024   1.625   6.452   5.571  0.1573 -0.4642  0.4322
  497MOL0     C67025   1.545   6.491   5.650  0.3052 -0.0334  0.7810
  497MOL0     C67026   2.267   6.704   5.152  0.1486 -0.0314 -0.0879
  497MOL0     C67027   2.405   6.738   5.151 -0.2896 -0.4104  0.0543
  497MOL0     H67028   2.855   6.861   5.300 -0.6228 -0.4719 -1.1832
  497MOL0     H67029   3.092   6.904   5.260 -4.3608  2.2207  3.2811
  497MOL0     H67030   3.338   6.692   5.359 -0.5381  1.8722  0.0498
  497MOL0     H67031   3.400   6.596   5.217  3.0765  0.2090  1.3440
  497MOL0     H67032   3.575   6.736   5.309 -0.4194  0.1894  2.7324
  497MOL0     H67033   3.516   6.818   5.159 -3.2153  1.7727 -0.6866
  497MOL0     H67034   3.373   6.967   5.319 -1.8775 -1.6633  2.1705
  497MOL0     H67035   3.430   6.861   5.446  0.4463 -1.4274 -0.7715
  497MOL0     H67036   3.663   6.929   5.425 -1.4923 -3.1973  0.7548
  497MOL0     H67037   3.616   7.031   5.287 -0.1570  0.8214  1.0393
  497MOL0     H67038   3.527   7.083   5.576  1.5776  0.4484  1.0509
  497MOL0     H67039   3.674   7.135   5.498  0.9587 -3.1152  0.8708
  497MOL0     H67040   3.503   7.234   5.317 -1.7944  0.1107 -0.9238
  497MOL0     H67041   3.394   7.222   5.449  0.1332  2.0213 -0.0465
  497MOL0     H67042   3.655   7.368   5.488  0.0274  1.2580  1.0048
  497MOL0     H67043   3.509   7.464   5.433 -3.0439 -0.3854  1.2662
  497MOL0     H67044   3.554   7.477   5.677  1.1512 -1.2389  0.9899
  497MOL0     H67045   3.557   7.305   5.690 -1.5468 -1.1540  0.1385
  497MOL0     H67046   3.337   7.592   5.580  1.4813 -0.8083  0.6120
  497MOL0     H67047   3.056   7.652   5.647  0.4610  0.0295  2.3667
  497MOL0     H67048   2.987   7.514   5.549  1.6518  2.0155 -1.8587
  497MOL0     H67049   2.985   7.501   5.851 -1.0393 -2.3461  0.8946
  497MOL0     H67050   2.912   7.399   5.731 -0.0091 -0.6307  1.7761
  497MOL0     H67051   2.805   7.688   5.760  0.5348  0.3559 -1.0019
  497MOL0     H67052   2.729   7.557   5.840 -1.1041  0.8438 -0.1080
  497MOL0     H67053   2.752   7.610   5.542 -1.9876  2.1459 -0.4209
  497MOL0     H67054   2.608   7.582   5.650  0.1097 -1.8995 -0.8604
  497MOL0     H67055   2.639   7.164   5.560  0.4268 -1.1449 -0.6701
  497MOL0     H67056   2.482   6.983   5.442  0.9986 -1.9852  1.3862
  497MOL0     H67057   2.541   7.001   5.265  1.6777 -1.5505  1.1461
  497MOL0     H67058   2.651   6.986   5.388 -0.7122 -1.6840  0.7320
  497MOL0     H67059   2.092   7.072   5.197  3.3318 -0.4144  1.3248
  497MOL0     H67060   1.914   6.959   5.056 -2.2966  3.4807 -4.0430
  497MOL0     H67061   1.863   6.755   4.960  0.1854  0.6618 -0.8795
  497MOL0     H67062   1.774   6.766   4.804  0.4077  0.5368 -1.9709
  497MOL0     H67063   2.047   6.626   4.835 -1.5520  1.7118  4.5150
  497MOL0     H67064   1.890   6.554   4.810  0.8319 -0.6756 -0.6529
  497MOL0     H67065   2.029   6.720   4.591  1.4164 -3.4778  0.7932
  497MOL0     H67066   1.859   6.700   4.590 -0.6075 -1.0317  0.1974
  497MOL0     H67067   2.055   6.469   4.607 -2.2829 -0.8547  2.2979
  497MOL0     H67068   1.894   6.446   4.620  2.8507 -2.1557 -0.1334
  497MOL0     H67069   1.995   6.437   4.371 -1.3491  1.4356 -2.9127
  497MOL0     H67070   2.003   6.607   4.383  1.6472  0.0195  2.5153
  497MOL0     H67071   1.734   6.554   4.449 -0.8752  2.3989 -1.6938
  497MOL0     H67072   1.793   6.598   4.291 -0.7969 -0.2095 -0.2000
  497MOL0     H67073   1.755   6.316   4.395 -3.5280 -0.4198 -1.6124
  497MOL0     H67074   1.823   6.356   4.239  1.4275  0.0592  0.2591
  497MOL0     H67075   1.531   6.457   4.336 -0.9641  0.0115 -0.1658
  497MOL0     H67076   1.560   6.313   4.245 -0.2013  0.1513  0.4376
  497MOL0     H67077   2.182   6.890   4.752 -1.6153  2.0272 -0.7848
  497MOL0     H67078   2.384   6.982   4.905  0.9391 -1.6832  2.2274
  497MOL0     H67079   2.431   7.469   5.239 -1.1581 -0.0108 -0.0131
  497MOL0     H67080   2.527   7.567   5.421 -0.2855  0.0133  0.6266
  497MOL0     H67081   3.172   6.500   5.171  2.9054  2.7950  0.6310
  497MOL0     H67082   2.922   6.449   5.215  0.0714 -0.2489  2.6319
  497MOL0     H67083   2.538   6.463   5.310 -1.3915 -1.7139  0.6226
  497MOL0     H67084   2.305   6.411   5.330 -2.0387  0.5873  0.1972
  497MOL0     H67085   2.120   6.417   5.384  2.0890  0.9553 -0.0280
  497MOL0     H67086   2.096   6.571   5.436  2.2815  0.7123 -1.4778
  497MOL0     H67087   1.903   6.394   5.287 -2.0351 -0.1885  0.2881
  497MOL0     H67088   1.866   6.565   5.285  1.3465  2.0979  0.8854
  497MOL0     H67089   1.851   6.586   5.523 -0.4333  0.1225  0.1631
  497MOL0     H67090   1.916   6.424   5.543  0.5509 -1.2967 -1.7790
  497MOL0     H67091   1.715   6.321   5.428 -0.1279  0.0126  1.6145
  497MOL0     H67092   1.674   6.478   5.358  0.2784  1.4516 -0.0628
  497MOL0     H67093   1.468   6.511   5.722 -0.1099 -1.3439  0.7246
  497MOL0     H67094   2.187   6.771   5.123 -1.1996 -1.2226  0.7890
  497MOL0     H67095   2.434   6.835   5.111 -1.8208  0.2154  0.4132
  498MOL0     O67096  10.981   0.880  10.315 -0.6438 -0.1567 -0.5623
  498MOL0     C67097  11.061   0.811  10.258  0.0639 -0.5942  0.2822
  498MOL0     O67098  11.028   0.685  10.212 -0.0105 -0.4839 -0.1591
  498MOL0     C67099  10.903   0.641  10.230  0.4386  0.0420 -0.6198
  498MOL0     C67100  10.847   0.612  10.357  0.2381 -1.1279  0.1182
  498MOL0     C67101  10.718   0.562  10.359  0.1201  0.6053 -0.5733
  498MOL0     C67102  10.641   0.543  10.237  0.1157 -0.1018 -0.9701
  498MOL0     O67103  10.507   0.504  10.259 -0.2313  0.1187 -0.2692
  498MOL0     C67104  10.419   0.488  10.140 -0.2220  0.6196 -0.1633
  498MOL0     C67105  10.293   0.475  10.223 -0.0423  0.0868 -0.0067
  498MOL0     C67106  10.169   0.442  10.147 -0.3690  0.3777  2.0295
  498MOL0     C67107  10.049   0.413  10.228 -0.7336 -0.9534 -0.7374
  498MOL0     C67108   9.912   0.416  10.155 -0.8863 -0.2397 -0.2123
  498MOL0     C67109   9.804   0.407  10.252 -0.1856 -0.1437 -0.0060
  498MOL0     C67110   9.676   0.380  10.177 -0.1949  0.0788 -0.2168
  498MOL0     C67111   9.572   0.284  10.244 -0.0041  0.3998  0.5035
  498MOL0     N67112   9.431   0.325  10.216  0.1879  0.8911 -0.4914
  498MOL0     C67113   9.385   0.335  10.094  0.2576 -0.4979 -0.2385
  498MOL0     C67114   9.251   0.362  10.122  0.4197  0.0705 -0.2911
  498MOL0     C67115   9.145   0.369  10.017 -0.4976 -0.5252  0.0719
  498MOL0     C67116   9.067   0.502  10.008 -0.4526 -0.0687  0.2755
  498MOL0     C67117   9.146   0.629   9.992  0.4196 -0.0349  0.2818
  498MOL0     C67118   9.240   0.672  10.096 -1.0938  0.1308 -0.0568
  498MOL0     O67119   9.314   0.798  10.056  0.1194  0.9147 -0.6576
  498MOL0     C67120   9.436   0.779   9.996  0.1916  0.6268 -0.5650
  498MOL0     C67121   9.477   0.673   9.911 -1.1819  0.0831 -0.1889
  498MOL0     C67122   9.616   0.656   9.866  0.2596 -0.1631 -0.1486
  498MOL0     C67123   9.655   0.540   9.780 -0.1265 -0.2242  0.0675
  498MOL0     C67124   9.713   0.753   9.900  0.3860 -0.0388 -0.4491
  498MOL0     C67125   9.856   0.747   9.871 -0.7974 -0.4573 -0.5555
  498MOL0     O67126   9.917   0.871   9.856 -0.4462  0.1418 -0.2266
  498MOL0     C67127  10.049   0.884   9.817 -0.1077  0.1697  0.3206
  498MOL0     C67128  10.141   0.796   9.755  0.5866  0.3835 -0.4216
  498MOL0     C67129  10.261   0.844   9.695  0.1912  0.3214  0.8383
  498MOL0     C67130  10.305   0.975   9.713  0.7002 -0.3174  0.1782
  498MOL0     O67131  10.423   1.023   9.660  0.5583  0.2436  0.1155
  498MOL0     C67132  10.404   1.070   9.524  1.1218  0.6863  0.1728
  498MOL0     C67133  10.527   1.151   9.492  0.1282  0.3442 -0.1397
  498MOL0     C67134  10.651   1.063   9.511  0.0354  0.0707  0.5328
  498MOL0     C67135  10.762   1.105   9.409 -0.1612 -0.9258  0.6912
  498MOL0     C67136  10.887   1.025   9.447 -0.3270 -0.1662  0.5773
  498MOL0     C67137  11.005   1.082   9.363 -0.0433  0.1344  0.0408
  498MOL0     C67138  11.136   0.985   9.390 -0.7123 -0.2073 -0.2894
  498MOL0     C67139  11.254   1.054   9.325 -0.0164 -0.5607 -0.6712
  498MOL0    Cl67140  11.407   0.961   9.349  0.3196  0.3600  0.1159
  498MOL0     C67141  10.219   1.049   9.790  0.2143 -0.4628  0.5840
  498MOL0     C67142  10.089   1.015   9.828  0.0497 -0.2485 -0.4967
  498MOL0     O67143   9.910   0.637   9.866  0.3430 -0.5210  0.7389
  498MOL0     C67144   9.666   0.863   9.977 -1.4319  0.3418  0.6085
  498MOL0     C67145   9.534   0.872  10.028  0.3490  0.2761  0.2648
  498MOL0     N67146   9.226   0.369  10.258  0.2320 -0.0022  0.3438
  498MOL0     N67147   9.334   0.333  10.314 -0.5848 -0.1744 -0.0050
  498MOL0     C67148  10.698   0.580  10.120  0.4518  0.6433  0.9883
  498MOL0     C67149  10.828   0.624  10.112  0.4263  0.1726  0.1676
  498MOL0     C67150  11.198   0.858  10.222  0.5274  0.1959 -0.0571
  498MOL0     C67151  11.274   0.800  10.124  0.5204  0.1845  0.3588
  498MOL0     C67152  11.397   0.846  10.093 -0.6196  0.5123  0.0455
  498MOL0     C67153  11.450   0.964  10.148 -0.2932  0.4381 -0.3666
  498MOL0     O67154  11.570   1.000  10.107  0.0819 -0.3892 -0.3511
  498MOL0     C67155  11.641   1.107  10.168 -0.1477  0.9238  0.3551
  498MOL0     C67156  11.772   1.101  10.095 -0.0806 -0.7514 -0.4638
  498MOL0     C67157  11.757   1.083   9.936  0.1392 -0.2024 -0.5696
  498MOL0     C67158  11.867   1.132   9.848  1.0963  0.3493 -0.3221
  498MOL0     C67159  11.984   1.054   9.870  0.0999  0.5131 -0.9454
  498MOL0     C67160  12.082   0.988   9.895  0.1205  0.1664 -0.0659
  498MOL0     C67161  11.366   1.032  10.245  0.5988 -0.4180  1.0328
  498MOL0     C67162  11.238   0.978  10.278 -0.7899 -0.0286  0.5281
  498MOL0     H67163  10.905   0.625  10.448  1.8206 -2.5725 -0.6393
  498MOL0     H67164  10.679   0.535  10.457  3.7141  1.0951  1.1491
  498MOL0     H67165  10.421   0.575  10.073  0.2625 -0.1926 -1.2276
  498MOL0     H67166  10.432   0.408  10.067 -1.3840 -1.0202  1.3530
  498MOL0     H67167  10.312   0.388  10.287  0.5340 -0.0690 -0.3786
  498MOL0     H67168  10.277   0.568  10.278 -0.6076  0.0412 -0.0879
  498MOL0     H67169  10.156   0.526  10.078 -1.0542 -2.3881 -1.5176
  498MOL0     H67170  10.189   0.362  10.075  1.8258  1.6261  1.1603
  498MOL0     H67171  10.059   0.316  10.278  3.4140 -0.2591  0.1508
  498MOL0     H67172  10.051   0.495  10.300  0.3530 -1.0258 -0.6741
  498MOL0     H67173   9.895   0.508  10.098  0.8542  2.0206  2.6279
  498MOL0     H67174   9.914   0.326  10.093  2.0512  1.2793 -2.5945
  498MOL0     H67175   9.823   0.326  10.324  2.3354 -0.6706 -1.1628
  498MOL0     H67176   9.798   0.506  10.298  0.5177 -0.8438  1.6938
  498MOL0     H67177   9.635   0.481  10.170  4.1081  2.0775  0.2622
  498MOL0     H67178   9.685   0.336  10.078 -1.1591 -0.2570 -0.1664
  498MOL0     H67179   9.585   0.299  10.352  0.6480  0.4209  0.4249
  498MOL0     H67180   9.588   0.181  10.211 -1.3303  0.4871 -0.5096
  498MOL0     H67181   9.448   0.324  10.006  0.5597 -0.3348 -0.0480
  498MOL0     H67182   9.190   0.340   9.921  0.7192 -0.2670  0.5410
  498MOL0     H67183   9.071   0.296  10.051 -0.1196 -0.5490  0.8516
  498MOL0     H67184   8.995   0.511  10.091 -0.6193  0.1040  0.1117
  498MOL0     H67185   8.999   0.490   9.923 -1.1789  2.6343  0.3867
  498MOL0     H67186   9.073   0.710   9.977 -0.5955 -1.1824 -1.2000
  498MOL0     H67187   9.197   0.620   9.896 -0.0003 -0.9500  0.1362
  498MOL0     H67188   9.323   0.603  10.115  0.8424  1.0132 -4.1561
  498MOL0     H67189   9.175   0.700  10.180 -0.7225  1.0575 -0.0739
  498MOL0     H67190   9.412   0.593   9.877  1.8925 -2.4983 -0.4519
  498MOL0     H67191   9.693   0.581   9.686 -2.6817  2.1811 -0.0462
  498MOL0     H67192   9.722   0.473   9.835  0.0291  0.7751  1.1151
  498MOL0     H67193   9.569   0.478   9.754 -0.2470 -0.4324  0.9568
  498MOL0     H67194  10.118   0.690   9.762  0.3651  0.3946 -0.9023
  498MOL0     H67195  10.319   0.764   9.650 -1.9379 -1.0082  0.3033
  498MOL0     H67196  10.397   0.991   9.449  0.3977  3.9595 -3.5410
  498MOL0     H67197  10.316   1.136   9.523  0.1462 -0.5685 -1.1452
  498MOL0     H67198  10.522   1.165   9.383  1.1118 -0.9941 -0.3815
  498MOL0     H67199  10.527   1.247   9.544  1.3118  1.0162 -1.3138
  498MOL0     H67200  10.631   0.957   9.493  1.5270 -0.1241 -0.1093
  498MOL0     H67201  10.687   1.086   9.612  1.2541  0.1379  0.0949
  498MOL0     H67202  10.727   1.092   9.306 -1.1782  1.5855  0.6656
  498MOL0     H67203  10.779   1.209   9.436 -1.5241 -1.3188  3.4493
  498MOL0     H67204  10.872   0.919   9.423  0.1576 -0.1628  0.2502
  498MOL0     H67205  10.911   1.034   9.553 -0.1772 -0.0339  0.5341
  498MOL0     H67206  10.971   1.084   9.259  1.7322  6.1844 -0.8143
  498MOL0     H67207  11.020   1.189   9.380 -0.1248 -0.2694  3.3499
  498MOL0     H67208  11.116   0.885   9.349 -2.5186  0.6630 -1.6666
  498MOL0     H67209  11.150   0.984   9.498 -0.1666  2.0143 -0.2976
  498MOL0     H67210  11.263   1.151   9.375  1.5629  0.2307 -2.4259
  498MOL0     H67211  11.240   1.076   9.219 -2.7603  0.2432 -0.2427
  498MOL0     H67212  10.252   1.149   9.815  0.2602 -0.5035  0.6868
  498MOL0     H67213  10.028   1.094   9.870 -1.9884 -1.1218 -1.6841
  498MOL0     H67214   9.735   0.943  10.003 -0.9624  0.2872 -0.4388
  498MOL0     H67215   9.515   0.956  10.095  1.4623 -0.3530  1.4181
  498MOL0     H67216  10.638   0.559  10.032 -0.0783  0.5269  1.3738
  498MOL0     H67217  10.874   0.638  10.014 -0.7584 -0.3455 -0.4754
  498MOL0     H67218  11.237   0.712  10.072 -0.5409  0.7937  0.0219
  498MOL0     H67219  11.454   0.803  10.011  0.0153  2.1451 -0.4244
  498MOL0     H67220  11.574   1.193  10.153 -1.7417 -0.5774 -1.8432
  498MOL0     H67221  11.659   1.080  10.272  1.4829 -2.7237 -0.7316
  498MOL0     H67222  11.829   1.014  10.128  0.8483  0.1951  0.5056
  498MOL0     H67223  11.827   1.189  10.129 -1.2316  0.3913 -1.4383
  498MOL0     H67224  11.670   1.143   9.907  0.7169  0.5826 -0.7195
  498MOL0     H67225  11.732   0.982   9.904 -3.2729  1.3574 -3.7111
  498MOL0     H67226  11.894   1.236   9.871  1.5866  0.4616 -1.3249
  498MOL0     H67227  11.843   1.119   9.742  0.2482 -0.7364 -0.0023
  498MOL0     H67228  12.172   0.940   9.929  0.9927  2.3549  0.9466
  498MOL0     H67229  11.397   1.128  10.285  1.9290 -0.4071  0.0618
  498MOL0     H67230  11.181   1.015  10.363 -1.9194  1.5469 -0.8445
  499MOL0     O67231   6.921   3.986   2.350 -0.6937  0.2028 -0.2162
  499MOL0     C67232   6.999   4.060   2.294 -0.0025  0.5349  0.2177
  499MOL0     O67233   6.988   4.113   2.170  0.4680 -0.0672 -0.3560
  499MOL0     C67234   6.860   4.085   2.108 -0.1572 -0.2459 -0.3170
  499MOL0     C67235   6.743   4.116   2.171  0.0371  0.6921 -0.1174
  499MOL0     C67236   6.622   4.090   2.105 -0.2380 -0.4211  0.6106
  499MOL0     C67237   6.609   4.025   1.979  0.1452 -0.4188 -0.8472
  499MOL0     O67238   6.482   4.006   1.935  0.2807  0.5164 -0.6307
  499MOL0     C67239   6.468   4.008   1.799  0.2423 -0.3697  0.3139
  499MOL0     C67240   6.317   4.012   1.764  0.0529  0.2228 -0.5827
  499MOL0     C67241   6.239   4.129   1.829 -0.1388  0.0389  0.2334
  499MOL0     C67242   6.098   4.120   1.767  0.4385  0.2333 -0.4179
  499MOL0     C67243   6.007   4.194   1.863  0.3917  0.4897 -0.0891
  499MOL0     C67244   5.870   4.215   1.801 -0.0621  0.1918 -0.2102
  499MOL0     C67245   5.775   4.266   1.913  0.4096  0.0355  0.1534
  499MOL0     C67246   5.642   4.309   1.853 -0.5161 -1.1156 -0.1865
  499MOL0     N67247   5.552   4.200   1.838  0.0420  0.5568 -0.2002
  499MOL0     C67248   5.435   4.183   1.907  0.2990  0.2274 -0.6032
  499MOL0     C67249   5.383   4.072   1.853  0.0989 -0.1251 -0.1555
  499MOL0     C67250   5.254   3.994   1.892 -0.4245 -0.1689 -0.8219
  499MOL0     C67251   5.167   3.966   1.774  0.0084 -0.0573  0.7454
  499MOL0     C67252   5.145   3.809   1.761  0.1555  0.6740  0.0987
  499MOL0     C67253   5.034   3.774   1.667 -0.1197 -0.2808  0.2363
  499MOL0     O67254   4.916   3.811   1.728 -0.2101  0.1643  0.6252
  499MOL0     C67255   4.794   3.798   1.667 -0.0327  0.8484  0.6080
  499MOL0     C67256   4.763   3.718   1.557 -0.5411  1.0323  0.0846
  499MOL0     C67257   4.632   3.695   1.508 -0.0779  1.2535 -0.5155
  499MOL0     C67258   4.620   3.624   1.376 -0.4670 -0.4607 -0.8254
  499MOL0     C67259   4.526   3.747   1.582 -0.0040 -0.0781  0.3125
  499MOL0     C67260   4.380   3.723   1.553  0.3157 -0.1611 -0.3220
  499MOL0     O67261   4.349   3.609   1.486  0.8291 -0.0855  0.3393
  499MOL0     C67262   4.211   3.581   1.488  0.4669 -0.5620 -0.1253
  499MOL0     C67263   4.130   3.623   1.386 -0.2148  1.1259  0.0024
  499MOL0     C67264   3.999   3.574   1.373  0.0935 -0.2548  0.0187
  499MOL0     C67265   3.939   3.490   1.474  0.3207 -0.7061  0.6258
  499MOL0     O67266   3.812   3.424   1.474 -0.3737 -0.8348 -0.8324
  499MOL0     C67267   3.752   3.408   1.348 -0.0566 -0.4968  0.6228
  499MOL0     C67268   3.609   3.356   1.357 -0.2946  0.1412 -0.5657
  499MOL0     C67269   3.533   3.467   1.429 -0.1412 -0.8414 -0.6941
  499MOL0     C67270   3.388   3.436   1.435  1.2995 -0.2432 -1.0229
  499MOL0     C67271   3.315   3.529   1.526 -0.1424 -0.1055 -0.9736
  499MOL0     C67272   3.167   3.545   1.485  0.3546 -0.5255 -0.0272
  499MOL0     C67273   3.079   3.604   1.598 -0.8947 -0.8407 -0.3523
  499MOL0     C67274   2.926   3.603   1.571 -0.4745  0.2781  0.2588
  499MOL0    Cl67275   2.854   3.501   1.442  0.3382 -0.1821  0.0810
  499MOL0     C67276   4.017   3.463   1.594 -0.1393  0.1316  0.0706
  499MOL0     C67277   4.148   3.507   1.597 -0.2828 -0.0372 -0.6592
  499MOL0     O67278   4.303   3.812   1.575  0.1922 -0.1297  0.7449
  499MOL0     C67279   4.553   3.825   1.693 -0.4311 -0.1959 -0.1143
  499MOL0     C67280   4.682   3.845   1.741  0.2809  0.1787 -0.7718
  499MOL0     N67281   5.461   4.027   1.743  1.2415 -0.4043  0.0302
  499MOL0     N67282   5.564   4.105   1.739 -0.8336  0.2439 -0.6746
  499MOL0     C67283   6.733   4.010   1.914  1.0867 -0.9501  0.4161
  499MOL0     C67284   6.854   4.044   1.979  0.9318  0.1601  0.3558
  499MOL0     C67285   7.137   4.064   2.340  0.2892 -0.2885  0.0301
  499MOL0     C67286   7.237   4.134   2.273 -0.0232 -0.4062 -0.2937
  499MOL0     C67287   7.367   4.144   2.330 -0.0606 -0.7236 -0.3467
  499MOL0     C67288   7.404   4.079   2.450 -0.4385 -0.4052  0.7511
  499MOL0     O67289   7.535   4.080   2.484  0.0416 -0.4154 -0.3574
  499MOL0     C67290   7.568   4.039   2.618  0.2759  0.0249 -0.1034
  499MOL0     C67291   7.725   4.063   2.622  0.0783  0.0368  0.7852
  499MOL0     C67292   7.802   3.966   2.536 -0.9267 -0.0842 -0.2867
  499MOL0     C67293   7.950   3.958   2.583  0.3527 -0.3937 -0.0527
  499MOL0     C67294   8.029   3.866   2.498  0.4765 -0.3810  0.4894
  499MOL0     C67295   8.100   3.779   2.441  0.2924  0.3679 -0.1761
  499MOL0     C67296   7.300   4.010   2.513 -0.0520  0.5109  0.5303
  499MOL0     C67297   7.165   4.003   2.468 -0.7344  0.5897 -0.1791
  499MOL0     H67298   6.753   4.157   2.271  2.6226  0.1939 -0.1098
  499MOL0     H67299   6.524   4.110   2.146 -1.4172 -1.2354 -1.6524
  499MOL0     H67300   6.510   4.104   1.769  0.3803 -0.3918  0.4392
  499MOL0     H67301   6.517   3.929   1.741  2.6628  0.1062  1.6069
  499MOL0     H67302   6.313   4.010   1.654  1.6752 -2.2537 -0.6743
  499MOL0     H67303   6.259   3.925   1.797 -1.6649  1.6729  0.4119
  499MOL0     H67304   6.236   4.117   1.938  0.0815 -1.5899  0.0855
  499MOL0     H67305   6.277   4.230   1.808 -2.7435  0.8664 -0.9055
  499MOL0     H67306   6.091   4.153   1.663  1.5137  0.4413 -0.4451
  499MOL0     H67307   6.065   4.016   1.768 -0.6855  0.5269  2.2807
  499MOL0     H67308   6.002   4.137   1.957 -1.7801 -0.5269 -0.7531
  499MOL0     H67309   6.055   4.291   1.879  1.9078  0.2216 -2.5993
  499MOL0     H67310   5.879   4.287   1.718  1.3167  1.0035  0.6038
  499MOL0     H67311   5.824   4.124   1.762  0.3702 -1.4814  2.9323
  499MOL0     H67312   5.747   4.200   1.994  0.9644 -2.1359 -1.3390
  499MOL0     H67313   5.818   4.359   1.951  1.8797  0.6283 -2.6281
  499MOL0     H67314   5.654   4.369   1.763 -0.5080 -1.3612 -0.3473
  499MOL0     H67315   5.603   4.382   1.925  1.2897  0.5845 -0.8436
  499MOL0     H67316   5.396   4.227   1.999 -2.6538 -1.6949 -0.7971
  499MOL0     H67317   5.296   3.905   1.940  1.5841  0.9628 -0.3330
  499MOL0     H67318   5.196   4.053   1.964 -1.3742 -1.0599 -0.8484
  499MOL0     H67319   5.208   4.001   1.679  0.3278 -1.2137  0.4424
  499MOL0     H67320   5.079   4.026   1.800 -0.5385 -1.3431  2.0099
  499MOL0     H67321   5.104   3.770   1.855 -2.3278  2.0457 -0.3018
  499MOL0     H67322   5.241   3.772   1.726 -0.6039 -0.5221 -0.7902
  499MOL0     H67323   5.036   3.668   1.643 -0.1980 -0.4598  0.9825
  499MOL0     H67324   5.051   3.839   1.581  3.7854 -0.0853  0.9756
  499MOL0     H67325   4.844   3.664   1.510 -1.6607  0.6576 -1.5164
  499MOL0     H67326   4.721   3.587   1.354  0.3593 -0.2558  2.1990
  499MOL0     H67327   4.554   3.537   1.376 -2.8649  1.1059  2.7491
  499MOL0     H67328   4.583   3.696   1.303  1.1684  1.2328 -0.0683
  499MOL0     H67329   4.182   3.654   1.295  1.6223 -2.6951 -0.4331
  499MOL0     H67330   3.959   3.596   1.274  0.6847 -2.0509 -0.6532
  499MOL0     H67331   3.763   3.494   1.282 -1.0574 -0.7418  0.1267
  499MOL0     H67332   3.802   3.333   1.287 -3.8184 -1.1162 -2.0145
  499MOL0     H67333   3.572   3.342   1.255  2.5964  3.1566 -2.2287
  499MOL0     H67334   3.606   3.261   1.410 -0.7988  0.9973  1.0370
  499MOL0     H67335   3.543   3.568   1.387  0.9504 -0.1883  1.0344
  499MOL0     H67336   3.567   3.485   1.532 -0.7689  1.9010 -0.8923
  499MOL0     H67337   3.339   3.436   1.337  1.8143  3.6303 -1.4347
  499MOL0     H67338   3.384   3.336   1.480  0.3066  0.8834  1.5636
  499MOL0     H67339   3.366   3.626   1.517 -2.1816  0.9669 -1.7190
  499MOL0     H67340   3.325   3.489   1.627 -0.7907 -1.9503 -1.6023
  499MOL0     H67341   3.153   3.624   1.410  0.7181  1.3608  1.8174
  499MOL0     H67342   3.130   3.447   1.452 -0.9356  0.3992 -1.4823
  499MOL0     H67343   3.108   3.706   1.626 -0.1727 -1.2392  0.3950
  499MOL0     H67344   3.092   3.539   1.685  0.2026 -0.5358 -0.2667
  499MOL0     H67345   2.897   3.702   1.535 -0.0089  0.4240  0.2731
  499MOL0     H67346   2.865   3.592   1.661 -2.6493  0.3347 -1.1195
  499MOL0     H67347   3.978   3.402   1.675 -0.3910  0.3283  0.1002
  499MOL0     H67348   4.220   3.476   1.672  1.0401 -0.1276 -1.9267
  499MOL0     H67349   4.478   3.878   1.752  0.5641  1.1417  0.0111
  499MOL0     H67350   4.704   3.893   1.836  1.1146 -0.1773 -0.7768
  499MOL0     H67351   6.733   3.974   1.811  2.0803  0.2435 -0.0323
  499MOL0     H67352   6.954   4.035   1.937 -0.1940 -1.7892 -2.1527
  499MOL0     H67353   7.216   4.193   2.184 -1.3852 -0.4441 -0.0177
  499MOL0     H67354   7.443   4.184   2.264  0.1315 -2.0903 -0.9853
  499MOL0     H67355   7.530   4.105   2.696  2.2470  1.0653  0.0363
  499MOL0     H67356   7.534   3.937   2.636 -0.1868  0.4679  1.7781
  499MOL0     H67357   7.756   4.061   2.727  1.3665 -2.2375  0.4164
  499MOL0     H67358   7.739   4.163   2.580 -1.0092 -0.2402 -0.3253
  499MOL0     H67359   7.795   3.992   2.429 -0.9045 -1.2671 -0.5933
  499MOL0     H67360   7.748   3.871   2.544  0.6070 -1.0210 -0.6713
  499MOL0     H67361   7.948   3.926   2.688 -2.3543  0.3742  0.1939
  499MOL0     H67362   8.002   4.054   2.580  0.3887 -0.2732  2.1752
  499MOL0     H67363   8.159   3.707   2.387  0.5042  0.6605 -0.3351
  499MOL0     H67364   7.335   3.947   2.594  0.2343 -0.2355 -0.1619
  499MOL0     H67365   7.085   3.954   2.523 -0.5687 -1.3660 -1.5740
  500MOL0     O67366   5.784   6.480   8.282 -0.3694  0.7809 -0.1972
  500MOL0     C67367   5.870   6.575   8.282  0.1873 -0.0306 -0.0082
  500MOL0     O67368   5.839   6.693   8.335 -0.7856 -0.1715 -0.3130
  500MOL0     C67369   5.709   6.720   8.368 -0.2135 -0.1184 -0.1633
  500MOL0     C67370   5.639   6.654   8.472 -0.2382 -0.0455  0.2567
  500MOL0     C67371   5.507   6.687   8.511 -0.7088 -0.4877  1.1092
  500MOL0     C67372   5.435   6.789   8.435  0.9178 -0.0688  0.6618
  500MOL0     O67373   5.308   6.828   8.462  0.3678 -1.1115  0.3254
  500MOL0     C67374   5.218   6.718   8.491 -0.5910 -0.2566 -0.0298
  500MOL0     C67375   5.072   6.753   8.481  0.3405  0.0672 -0.4974
  500MOL0     C67376   5.035   6.868   8.389  0.7248 -0.6185 -0.3030
  500MOL0     C67377   4.887   6.864   8.347  0.5983 -0.4211  0.0005
  500MOL0     C67378   4.850   6.972   8.242 -0.7882 -0.4226 -0.1121
  500MOL0     C67379   4.716   6.950   8.172 -0.1026  0.0012  0.0068
  500MOL0     C67380   4.590   6.931   8.249 -0.1458  0.5985  0.7743
  500MOL0     C67381   4.543   7.062   8.318  0.6176  0.1746  0.3044
  500MOL0     N67382   4.502   7.169   8.224 -0.0011  0.4876 -0.1456
  500MOL0     C67383   4.366   7.185   8.191  0.2891  0.6592  0.0124
  500MOL0     C67384   4.361   7.296   8.112  0.2933  0.2645 -0.3691
  500MOL0     C67385   4.251   7.355   8.026 -0.1624 -0.0219  0.5474
  500MOL0     C67386   4.207   7.490   8.081 -0.3122 -0.4490 -0.0975
  500MOL0     C67387   4.143   7.493   8.232  0.5147 -0.0356  0.5533
  500MOL0     C67388   4.025   7.577   8.239  0.6491  0.0443  0.0018
  500MOL0     O67389   3.916   7.515   8.176  0.1046  0.2392  0.2859
  500MOL0     C67390   3.815   7.589   8.130 -0.0805 -0.5973 -0.2620
  500MOL0     C67391   3.820   7.725   8.099  0.1185  0.6050  0.7552
  500MOL0     C67392   3.705   7.792   8.046  0.0018  0.8938  0.0475
  500MOL0     C67393   3.707   7.936   8.018 -0.2357 -0.8070 -0.5452
  500MOL0     C67394   3.590   7.713   8.010 -0.6591  0.2493 -0.3775
  500MOL0     C67395   3.474   7.770   7.926 -0.0954  0.6644 -0.3815
  500MOL0     O67396   3.367   7.682   7.909 -0.5016 -0.0238  0.5261
  500MOL0     C67397   3.254   7.726   7.835 -0.2063  1.6046 -0.9206
  500MOL0     C67398   3.248   7.754   7.697  0.9815  0.3781  0.1229
  500MOL0     C67399   3.128   7.778   7.626 -0.6612 -0.3996  0.6031
  500MOL0     C67400   3.013   7.788   7.699  0.6033 -0.8136  0.5122
  500MOL0     O67401   2.901   7.833   7.635  0.1828  1.0249  0.1366
  500MOL0     C67402   2.764   7.791   7.669  0.1020  0.5970  0.0199
  500MOL0     C67403   2.683   7.749   7.545  0.7880  0.7081  0.1923
  500MOL0     C67404   2.551   7.674   7.592 -0.1627  0.5697 -0.3706
  500MOL0     C67405   2.458   7.646   7.468  0.2657  0.0119 -0.9622
  500MOL0     C67406   2.339   7.566   7.509  0.1117 -0.4756  0.4380
  500MOL0     C67407   2.250   7.509   7.402  0.4994  0.1075 -0.8390
  500MOL0     C67408   2.149   7.413   7.457  0.2060  0.8571 -0.0587
  500MOL0     C67409   2.051   7.363   7.349 -0.2973 -0.2491 -0.0931
  500MOL0    Cl67410   2.070   7.189   7.306  0.2521 -0.2705 -0.0706
  500MOL0     C67411   3.019   7.780   7.839  0.5488  0.4577 -0.1589
  500MOL0     C67412   3.133   7.744   7.904 -0.3984  0.2133 -0.2189
  500MOL0     O67413   3.475   7.882   7.873  0.7848 -0.6605  0.6924
  500MOL0     C67414   3.593   7.576   8.037  0.2000 -0.6932 -0.3879
  500MOL0     C67415   3.699   7.518   8.096 -0.6913  0.0205  0.0178
  500MOL0     N67416   4.484   7.354   8.121 -1.0653  0.0614  0.6156
  500MOL0     N67417   4.574   7.277   8.185  0.9838 -0.3341  0.1454
  500MOL0     C67418   5.504   6.850   8.327  0.5608 -0.8452  0.5388
  500MOL0     C67419   5.632   6.810   8.293 -1.0518 -0.5640 -0.2937
  500MOL0     C67420   6.013   6.551   8.246  0.3590 -0.1207 -0.6017
  500MOL0     C67421   6.098   6.659   8.264 -0.1721  0.1189  0.3788
  500MOL0     C67422   6.235   6.640   8.257 -0.3911 -0.1732  0.0077
  500MOL0     C67423   6.291   6.519   8.222 -0.7800 -0.2969 -0.6321
  500MOL0     O67424   6.427   6.504   8.212 -0.0560  0.2569 -0.5172
  500MOL0     C67425   6.480   6.390   8.135  0.1070 -1.0234 -0.5502
  500MOL0     C67426   6.620   6.422   8.074  0.1319 -0.8556 -0.1534
  500MOL0     C67427   6.737   6.390   8.174 -0.4700 -0.3132  0.2959
  500MOL0     C67428   6.877   6.426   8.128  0.0951  0.2616  0.2556
  500MOL0     C67429   6.921   6.335   8.025 -0.1441 -0.7876  0.8246
  500MOL0     C67430   6.987   6.258   7.963  0.9490  0.4515  0.6590
  500MOL0     C67431   6.200   6.415   8.195 -0.9182 -0.8357 -0.5171
  500MOL0     C67432   6.061   6.428   8.218 -0.6831  0.4748  0.1180
  500MOL0     H67433   5.695   6.578   8.526 -2.5730 -0.8790  1.6511
  500MOL0     H67434   5.457   6.637   8.593  0.8800 -2.7364  0.7843
  500MOL0     H67435   5.234   6.649   8.408 -1.5786  2.5187 -2.7103
  500MOL0     H67436   5.240   6.660   8.581  2.0746 -2.2469 -1.8201
  500MOL0     H67437   5.031   6.659   8.444 -0.9904  0.7642 -0.8607
  500MOL0     H67438   5.046   6.783   8.583  4.3584  4.7473 -0.4778
  500MOL0     H67439   5.056   6.970   8.422  0.3129 -0.0444 -1.7125
  500MOL0     H67440   5.092   6.869   8.295  0.1389  1.1220 -0.6842
  500MOL0     H67441   4.860   6.766   8.309 -2.4245  0.6597 -0.8935
  500MOL0     H67442   4.833   6.885   8.440  1.9593 -1.9429  1.2006
  500MOL0     H67443   4.855   7.069   8.291  0.9966 -1.0293  0.9838
  500MOL0     H67444   4.933   6.962   8.171 -1.4383 -2.4211 -0.6681
  500MOL0     H67445   4.706   7.045   8.120  0.9037  0.0458 -0.1134
  500MOL0     H67446   4.717   6.863   8.105  0.8857  0.4157 -0.5377
  500MOL0     H67447   4.519   6.899   8.172  1.8657 -1.7928 -0.2075
  500MOL0     H67448   4.596   6.862   8.333 -0.8516  0.1639  0.4791
  500MOL0     H67449   4.627   7.105   8.374  2.6267 -0.1712 -2.2527
  500MOL0     H67450   4.466   7.032   8.390  0.2764  2.2022  0.8753
  500MOL0     H67451   4.288   7.116   8.221  0.4108 -0.3809 -1.9029
  500MOL0     H67452   4.288   7.376   7.925 -0.3186  0.9455  0.6860
  500MOL0     H67453   4.158   7.296   8.027  0.0832 -0.6945 -2.7355
  500MOL0     H67454   4.131   7.526   8.012  0.9202  1.4446 -0.5217
  500MOL0     H67455   4.298   7.550   8.084 -3.1296  4.2903  1.9321
  500MOL0     H67456   4.205   7.539   8.309  0.4365  1.4989 -0.2454
  500MOL0     H67457   4.119   7.388   8.249 -0.6197 -0.3506 -2.3084
  500MOL0     H67458   4.063   7.673   8.203  0.6423 -0.1171 -0.4421
  500MOL0     H67459   3.998   7.596   8.343  1.1309  1.3187 -0.0908
  500MOL0     H67460   3.910   7.785   8.107  0.8658 -0.3335 -0.2454
  500MOL0     H67461   3.714   7.963   7.912 -2.1028 -0.1526 -0.5295
  500MOL0     H67462   3.625   7.996   8.058  0.3683  0.0010 -0.4996
  500MOL0     H67463   3.798   7.977   8.064  0.7516 -1.4264 -1.8524
  500MOL0     H67464   3.347   7.752   7.653  2.5947 -3.3402  3.3237
  500MOL0     H67465   3.131   7.792   7.518 -2.6947 -0.8295  0.4368
  500MOL0     H67466   2.768   7.701   7.731 -1.4073 -1.3167 -2.4771
  500MOL0     H67467   2.720   7.875   7.723  0.2470 -0.3032  1.5866
  500MOL0     H67468   2.654   7.840   7.491  0.4167  0.5317  0.0960
  500MOL0     H67469   2.746   7.694   7.475  0.6100  0.6799  0.0551
  500MOL0     H67470   2.498   7.736   7.666  1.3538  1.0945  0.3226
  500MOL0     H67471   2.579   7.581   7.643  0.0296  0.5567 -0.5019
  500MOL0     H67472   2.430   7.745   7.432  1.4065  0.5236 -0.4619
  500MOL0     H67473   2.505   7.584   7.391 -2.1868 -2.4952 -0.6133
  500MOL0     H67474   2.278   7.617   7.584 -1.4925 -1.9855  0.2203
  500MOL0     H67475   2.371   7.474   7.560 -1.5652 -0.8151  0.9405
  500MOL0     H67476   2.199   7.594   7.356 -2.0782 -0.7765  0.2354
  500MOL0     H67477   2.313   7.455   7.330  0.4721 -3.1806  1.3992
  500MOL0     H67478   2.091   7.468   7.532 -0.1268  1.0819 -0.4813
  500MOL0     H67479   2.191   7.323   7.504 -0.6423  0.3673 -0.2151
  500MOL0     H67480   2.082   7.417   7.259 -1.6968 -0.7676 -0.9205
  500MOL0     H67481   1.953   7.392   7.386 -0.7835 -1.8559 -0.0487
  500MOL0     H67482   2.933   7.791   7.905  2.4830  2.7181  2.1980
  500MOL0     H67483   3.136   7.732   8.012 -0.2436  1.6273 -0.0460
  500MOL0     H67484   3.507   7.513   8.014 -0.8008  1.0365 -1.6986
  500MOL0     H67485   3.701   7.411   8.113  0.0937 -0.5676 -3.2195
  500MOL0     H67486   5.456   6.929   8.269  2.3599  0.1160  0.2784
  500MOL0     H67487   5.678   6.842   8.200  0.3940  0.6806  0.7935
  500MOL0     H67488   6.058   6.759   8.275  4.2282  2.1463  0.1343
  500MOL0     H67489   6.292   6.733   8.266  0.3692 -0.7838  2.6046
  500MOL0     H67490   6.487   6.300   8.196 -2.4503  0.6311  2.4868
  500MOL0     H67491   6.421   6.376   8.044 -0.2554  0.6111 -0.6039
  500MOL0     H67492   6.622   6.525   8.035  0.8660 -1.7202 -2.5369
  500MOL0     H67493   6.625   6.358   7.986  0.3695 -1.1216  0.0571
  500MOL0     H67494   6.739   6.281   8.183  2.7268 -0.3968 -0.2524
  500MOL0     H67495   6.708   6.436   8.269  0.2235  3.0792 -0.9921
  500MOL0     H67496   6.949   6.421   8.210  2.2290 -0.2048 -1.5417
  500MOL0     H67497   6.884   6.525   8.083 -0.0961  0.8921  1.5869
  500MOL0     H67498   7.053   6.194   7.909  2.8574  1.9611  1.0875
  500MOL0     H67499   6.234   6.315   8.168 -2.3484 -1.0506 -1.6524
  500MOL0     H67500   5.997   6.340   8.215 -0.1698  0.1268 -0.8436
  501MOL0     O67501   5.887   7.596   4.164 -0.0717  0.5099  0.2332
  501MOL0     C67502   5.953   7.573   4.270  0.1251 -0.3224 -0.1876
  501MOL0     O67503   5.903   7.539   4.384 -0.3421 -0.0342  0.9800
  501MOL0     C67504   5.770   7.560   4.414  0.1137  0.0234  0.3975
  501MOL0     C67505   5.651   7.587   4.332  0.0718  0.6309 -0.5603
  501MOL0     C67506   5.533   7.633   4.388 -0.0468 -0.1853 -0.1933
  501MOL0     C67507   5.527   7.643   4.531  1.2230 -0.2662  0.4387
  501MOL0     O67508   5.414   7.692   4.597  0.0945  0.8456 -0.5062
  501MOL0     C67509   5.319   7.771   4.524  0.3162  1.0473  0.2196
  501MOL0     C67510   5.249   7.860   4.617  0.4332 -0.6344 -1.0541
  501MOL0     C67511   5.328   7.974   4.677  0.2411  0.2308 -0.2767
  501MOL0     C67512   5.242   8.059   4.775  0.5353 -0.3165  0.6134
  501MOL0     C67513   5.296   8.210   4.780  0.2046  0.4191  0.2803
  501MOL0     C67514   5.239   8.281   4.896 -0.2146  0.3131  0.3317
  501MOL0     C67515   5.085   8.269   4.907  0.1746  0.0843 -0.7621
  501MOL0     C67516   5.037   8.389   4.979 -0.4006  0.0804  0.9018
  501MOL0     N67517   5.080   8.415   5.118 -0.5580 -0.0053  0.3559
  501MOL0     C67518   5.098   8.316   5.212 -0.2218  0.7405  0.2691
  501MOL0     C67519   5.152   8.383   5.316  0.0593 -0.5381 -0.3212
  501MOL0     C67520   5.194   8.312   5.438  0.1445 -0.5558 -0.6245
  501MOL0     C67521   5.075   8.225   5.500 -0.5859 -0.1345  0.8422
  501MOL0     C67522   4.968   8.315   5.555  0.2083 -0.8400  0.0453
  501MOL0     C67523   4.834   8.243   5.538 -0.1330  0.5276  0.3019
  501MOL0     O67524   4.735   8.330   5.588 -0.0266  0.4525 -0.0830
  501MOL0     C67525   4.658   8.399   5.496 -0.9634 -0.2804  0.7056
  501MOL0     C67526   4.694   8.432   5.361  0.3342 -0.3916 -0.0036
  501MOL0     C67527   4.615   8.522   5.284 -0.0353  0.1179  0.6217
  501MOL0     C67528   4.672   8.566   5.146 -0.4763  0.6722  0.2704
  501MOL0     C67529   4.487   8.560   5.331 -1.3066  0.0586 -1.3825
  501MOL0     C67530   4.395   8.646   5.260 -0.4855  0.9086  0.1613
  501MOL0     O67531   4.362   8.762   5.324  0.4809 -0.7508  0.4043
  501MOL0     C67532   4.250   8.829   5.266 -0.3495 -0.1932 -0.1156
  501MOL0     C67533   4.247   8.883   5.137 -0.0016 -0.8384 -0.0262
  501MOL0     C67534   4.122   8.939   5.091  0.0288  0.2946 -0.1274
  501MOL0     C67535   4.013   8.947   5.175 -0.5274  0.0501  0.5957
  501MOL0     O67536   3.883   8.972   5.144  0.3657 -0.4337  0.6832
  501MOL0     C67537   3.849   8.975   5.005  0.8558  0.2152 -0.2073
  501MOL0     C67538   3.695   9.000   4.992  0.1412  0.3375  0.7184
  501MOL0     C67539   3.604   8.890   5.060 -0.4302 -1.1948  0.4944
  501MOL0     C67540   3.456   8.930   5.047 -0.4066 -0.8196  0.1338
  501MOL0     C67541   3.361   8.817   5.063 -0.4831  0.1221  0.3073
  501MOL0     C67542   3.221   8.860   5.012 -0.1121  0.4422 -0.6315
  501MOL0     C67543   3.119   8.745   5.019  0.1272  0.3293  0.4586
  501MOL0     C67544   3.137   8.640   4.917 -0.3248  0.0714 -0.2102
  501MOL0    Cl67545   3.020   8.514   4.941 -0.1734 -0.3195 -0.3217
  501MOL0     C67546   4.024   8.884   5.305 -0.5627 -0.3372 -0.2258
  501MOL0     C67547   4.145   8.833   5.354  0.5517  1.0061  0.4654
  501MOL0     O67548   4.365   8.614   5.146 -0.6972  0.2069  0.0096
  501MOL0     C67549   4.455   8.538   5.459 -0.4981 -0.3183  0.2101
  501MOL0     C67550   4.538   8.459   5.540  0.0029  0.2885 -0.9717
  501MOL0     N67551   5.158   8.518   5.291  0.3643  0.3184  0.3773
  501MOL0     N67552   5.109   8.539   5.167 -0.6040 -0.5641 -0.0706
  501MOL0     C67553   5.627   7.601   4.608  0.2879 -0.0261 -0.8737
  501MOL0     C67554   5.750   7.558   4.557  0.6511 -0.0240  0.4015
  501MOL0     C67555   6.097   7.560   4.260 -0.2748  0.2355  0.5897
  501MOL0     C67556   6.178   7.581   4.373 -0.2846  0.4449  0.4028
  501MOL0     C67557   6.314   7.585   4.355  0.4770 -0.4015 -0.2114
  501MOL0     C67558   6.382   7.567   4.231 -0.2822 -1.0996 -0.1584
  501MOL0     O67559   6.520   7.579   4.220 -1.1326 -0.4414 -0.2601
  501MOL0     C67560   6.568   7.654   4.102 -0.9526 -0.4522 -0.6140
  501MOL0     C67561   6.725   7.648   4.096 -0.2077  0.0553 -0.3539
  501MOL0     C67562   6.778   7.508   4.080 -0.1803  0.0485 -0.4043
  501MOL0     C67563   6.916   7.499   4.021  0.6362  0.4668 -0.0085
  501MOL0     C67564   7.019   7.594   4.070  0.6511  0.3396  0.0378
  501MOL0     C67565   7.115   7.668   4.088  0.0550 -0.2639  0.0159
  501MOL0     C67566   6.304   7.540   4.127  0.0252  0.0582  0.1080
  501MOL0     C67567   6.165   7.542   4.134 -0.7533  0.0149  0.0270
  501MOL0     H67568   5.644   7.566   4.226 -1.0299 -2.2237 -0.0044
  501MOL0     H67569   5.449   7.659   4.325  0.9319  1.8175 -0.7438
  501MOL0     H67570   5.380   7.833   4.457  1.7495 -0.5341 -0.0054
  501MOL0     H67571   5.247   7.708   4.472 -1.0187 -0.4638  3.5715
  501MOL0     H67572   5.165   7.900   4.559 -2.0750 -3.6966  0.1612
  501MOL0     H67573   5.200   7.807   4.699  0.2931 -0.3562 -0.9570
  501MOL0     H67574   5.418   7.939   4.728  1.0266  2.4198 -0.0586
  501MOL0     H67575   5.356   8.038   4.593  0.0099 -1.1728 -1.4783
  501MOL0     H67576   5.135   8.062   4.750  0.8705  0.4305 -0.8570
  501MOL0     H67577   5.247   8.011   4.873  2.6955  1.4179  1.4622
  501MOL0     H67578   5.403   8.206   4.802  0.2448  0.9090  0.1742
  501MOL0     H67579   5.263   8.264   4.690 -2.3171 -2.4825 -0.7295
  501MOL0     H67580   5.287   8.254   4.991  0.7713  0.4142 -0.1238
  501MOL0     H67581   5.267   8.385   4.877 -0.0608 -0.1789 -2.6060
  501MOL0     H67582   5.040   8.277   4.807 -4.4801  0.8486  1.1281
  501MOL0     H67583   5.057   8.175   4.956 -0.2291  0.7992  0.4102
  501MOL0     H67584   4.928   8.375   4.988 -0.7791  0.4273 -2.2465
  501MOL0     H67585   5.047   8.478   4.916  0.2805  1.2508  2.5618
  501MOL0     H67586   5.082   8.210   5.197  2.3761  0.5729 -2.1798
  501MOL0     H67587   5.285   8.254   5.426  1.0473  0.8367 -0.7027
  501MOL0     H67588   5.212   8.389   5.514  2.7043 -1.9033  0.2314
  501MOL0     H67589   5.105   8.159   5.582 -2.1840 -0.0748  1.5243
  501MOL0     H67590   5.036   8.165   5.417  1.0189 -1.8926  1.2962
  501MOL0     H67591   4.970   8.403   5.490 -1.6953 -2.8043 -2.9192
  501MOL0     H67592   4.986   8.352   5.656  0.3001  1.5329 -0.7832
  501MOL0     H67593   4.831   8.147   5.591  0.3643  0.4998  0.2869
  501MOL0     H67594   4.822   8.218   5.432 -0.7439  0.7763  0.3104
  501MOL0     H67595   4.787   8.394   5.320 -0.8254 -1.7519 -1.5293
  501MOL0     H67596   4.615   8.536   5.058  2.4946  2.2675 -2.3928
  501MOL0     H67597   4.679   8.675   5.134  2.7784  0.4817 -0.4973
  501MOL0     H67598   4.778   8.543   5.140 -0.7278 -0.4733  0.0938
  501MOL0     H67599   4.332   8.897   5.072  0.5209  3.2883  1.2202
  501MOL0     H67600   4.121   8.983   4.992 -0.9793 -0.7217 -0.5817
  501MOL0     H67601   3.905   9.045   4.942  0.3540 -0.2309 -1.1808
  501MOL0     H67602   3.883   8.878   4.966  2.7872  0.1180  1.5142
  501MOL0     H67603   3.674   9.092   5.047  2.5221  1.3135  0.1176
  501MOL0     H67604   3.683   9.007   4.883  0.9357  3.5455  0.7255
  501MOL0     H67605   3.625   8.869   5.165 -3.5870 -0.9821  1.2749
  501MOL0     H67606   3.616   8.796   5.006 -0.4589 -1.0578  0.2498
  501MOL0     H67607   3.432   9.010   5.118  0.9695 -0.9390  0.7667
  501MOL0     H67608   3.449   8.980   4.950  0.7876 -0.2650  0.3169
  501MOL0     H67609   3.345   8.781   5.165 -0.6920  0.6868  0.4776
  501MOL0     H67610   3.400   8.735   5.003  0.7391  1.3803 -0.6892
  501MOL0     H67611   3.189   8.944   5.074  1.0178  0.0851  0.4890
  501MOL0     H67612   3.230   8.895   4.909 -2.6746 -0.4582 -1.2221
  501MOL0     H67613   3.018   8.780   5.000 -1.3447 -2.5661  2.1629
  501MOL0     H67614   3.133   8.700   5.118  2.0374 -1.8499 -0.7058
  501MOL0     H67615   3.236   8.598   4.934 -0.5179 -0.4464 -0.3563
  501MOL0     H67616   3.120   8.680   4.816 -4.1264 -1.5515 -0.3670
  501MOL0     H67617   3.927   8.873   5.353  0.9590 -0.5735  3.0876
  501MOL0     H67618   4.145   8.773   5.445 -0.2483  1.9413  1.1127
  501MOL0     H67619   4.361   8.579   5.494 -1.9558 -1.9683 -1.5938
  501MOL0     H67620   4.502   8.446   5.641 -1.3701  0.8396 -1.3773
  501MOL0     H67621   5.620   7.621   4.715  1.7037  4.2044 -1.3891
  501MOL0     H67622   5.832   7.537   4.624  1.7464  2.4839 -0.0400
  501MOL0     H67623   6.138   7.602   4.472 -1.6972  2.1091 -0.4938
  501MOL0     H67624   6.368   7.611   4.446 -1.8149  3.4628  0.2847
  501MOL0     H67625   6.529   7.610   4.009 -0.5577 -1.2409 -0.4135
  501MOL0     H67626   6.523   7.754   4.105 -4.6363 -1.9954  0.4837
  501MOL0     H67627   6.767   7.691   4.187 -1.0983  0.2887 -0.0397
  501MOL0     H67628   6.756   7.707   4.009 -0.6579  2.2808  0.9088
  501MOL0     H67629   6.703   7.454   4.021 -3.0293  0.4890  2.5814
  501MOL0     H67630   6.771   7.447   4.171 -0.8251 -0.5379 -0.8345
  501MOL0     H67631   6.921   7.490   3.912  1.7922 -0.7230  0.1217
  501MOL0     H67632   6.953   7.402   4.054  1.6294  1.1886  1.0862
  501MOL0     H67633   7.202   7.732   4.094  1.4228 -1.8971 -1.3448
  501MOL0     H67634   6.349   7.518   4.030 -0.1149  0.9050 -0.1564
  501MOL0     H67635   6.096   7.544   4.050  1.5489 -2.0846 -2.0877
  502MOL0     O67636   3.404   3.047   8.207 -0.3286 -0.5020  0.2352
  502MOL0     C67637   3.477   2.971   8.269  0.6443 -0.0738  0.2506
  502MOL0     O67638   3.436   2.862   8.336  0.1245 -0.0856  0.0252
  502MOL0     C67639   3.310   2.815   8.335  0.2169  0.8381 -0.8006
  502MOL0     C67640   3.201   2.840   8.241 -0.4954 -0.4500  0.0133
  502MOL0     C67641   3.069   2.789   8.261  0.0476 -0.2832 -0.0154
  502MOL0     C67642   3.041   2.711   8.372 -0.2650  0.0382  0.2451
  502MOL0     O67643   2.914   2.674   8.399  0.5810 -0.7551 -0.3913
  502MOL0     C67644   2.876   2.601   8.507  0.6133  0.2403  0.2054
  502MOL0     C67645   2.721   2.608   8.525  0.0422  0.0986  0.0021
  502MOL0     C67646   2.672   2.525   8.647  0.3120 -0.3656 -0.2357
  502MOL0     C67647   2.656   2.615   8.766  0.7166  0.4720  0.5857
  502MOL0     C67648   2.645   2.534   8.896 -0.1444 -0.2169 -0.7188
  502MOL0     C67649   2.541   2.417   8.886 -0.7936  0.0411  0.0353
  502MOL0     C67650   2.395   2.471   8.881  0.5818 -0.0268  0.5676
  502MOL0     C67651   2.296   2.356   8.863 -0.6658 -0.9262 -0.3456
  502MOL0     N67652   2.291   2.272   8.983 -1.1358  0.2497  0.5202
  502MOL0     C67653   2.196   2.282   9.083  0.2753 -0.3360  0.3067
  502MOL0     C67654   2.232   2.195   9.181 -0.4013 -0.1149  0.9144
  502MOL0     C67655   2.159   2.150   9.308 -0.6284 -0.4533  0.6635
  502MOL0     C67656   2.057   2.047   9.262 -0.5278  0.3073  0.4311
  502MOL0     C67657   1.981   1.984   9.383 -0.2468  0.1464 -0.1866
  502MOL0     C67658   1.851   1.912   9.339 -0.9797  0.2109  0.0950
  502MOL0     O67659   1.752   2.010   9.301  0.1067 -0.5694 -0.1434
  502MOL0     C67660   1.635   1.974   9.246  0.5197 -0.2658  0.2817
  502MOL0     C67661   1.524   2.051   9.284 -0.2380 -0.2075 -0.6125
  502MOL0     C67662   1.393   2.024   9.237  0.2826 -0.5148 -0.0156
  502MOL0     C67663   1.286   2.106   9.294  0.4580  0.7930  0.4165
  502MOL0     C67664   1.375   1.913   9.148  0.1834  0.9290 -0.2537
  502MOL0     C67665   1.246   1.864   9.096  0.3580  0.4017 -0.2068
  502MOL0     O67666   1.240   1.799   8.975  0.3196  0.4099  0.2216
  502MOL0     C67667   1.124   1.730   8.945 -0.3513  0.9629 -0.3040
  502MOL0     C67668   1.022   1.785   8.868 -0.7355 -0.7407  0.0521
  502MOL0     C67669   0.897   1.725   8.850  0.2019  0.3753 -0.3802
  502MOL0     C67670   0.880   1.594   8.911 -0.8735 -0.0178 -0.5575
  502MOL0     O67671   0.764   1.516   8.905 -0.1902 -0.6010 -0.6420
  502MOL0     C67672   0.642   1.590   8.888  0.9839  0.1170 -0.8380
  502MOL0     C67673   0.532   1.495   8.945  0.0168 -0.7574  0.1424
  502MOL0     C67674   0.386   1.546   8.945 -0.5251  0.3113  0.2968
  502MOL0     C67675   0.283   1.429   8.934 -0.1557 -0.3097 -0.2373
  502MOL0     C67676   0.138   1.486   8.966  0.2180 -0.0371 -0.0859
  502MOL0     C67677   0.028   1.384   8.949  1.1803  1.0290  0.7362
  502MOL0     C67678  -0.118   1.445   8.962 -0.4851 -0.2138 -0.1582
  502MOL0     C67679  -0.210   1.355   9.043  0.0932  0.2611 -0.1907
  502MOL0    Cl67680  -0.152   1.358   9.210 -0.0506 -0.6301  0.4438
  502MOL0     C67681   0.985   1.543   8.993  0.0376 -0.5465 -0.8409
  502MOL0     C67682   1.106   1.609   9.013  0.2139 -0.4782 -0.2934
  502MOL0     O67683   1.153   1.881   9.176  0.4990 -0.1078  0.1146
  502MOL0     C67684   1.492   1.836   9.114  0.2999 -0.3351  0.6980
  502MOL0     C67685   1.619   1.866   9.163  0.5746 -0.5044 -0.4775
  502MOL0     N67686   2.342   2.120   9.123  0.7632 -0.0424 -0.8613
  502MOL0     N67687   2.373   2.164   9.004  0.1624 -0.1622  0.2807
  502MOL0     C67688   3.154   2.670   8.447  0.3548  0.1923 -0.4962
  502MOL0     C67689   3.280   2.726   8.443 -0.6531 -0.3569  0.2770
  502MOL0     C67690   3.616   3.001   8.275  0.2002  0.5263  0.3773
  502MOL0     C67691   3.666   3.106   8.203  0.4109  0.5027  0.0236
  502MOL0     C67692   3.805   3.125   8.190 -0.5952  0.0983 -0.2909
  502MOL0     C67693   3.900   3.044   8.256  0.1541 -0.2866  0.4421
  502MOL0     O67694   4.033   3.077   8.233 -0.0232  0.3372 -0.0215
  502MOL0     C67695   4.132   2.988   8.292  0.4555 -0.4205  0.1970
  502MOL0     C67696   4.266   3.059   8.276  0.2263  0.0877 -0.1599
  502MOL0     C67697   4.297   3.076   8.122  0.2724  1.1854 -0.0664
  502MOL0     C67698   4.432   3.143   8.089  0.3636  0.1874 -0.3581
  502MOL0     C67699   4.467   3.098   7.957 -0.4186  0.3657  0.2923
  502MOL0     C67700   4.475   3.066   7.842  0.4940  0.5621  0.0633
  502MOL0     C67701   3.848   2.934   8.330  1.2860 -1.2478  0.3706
  502MOL0     C67702   3.709   2.916   8.337 -0.7404  0.9868  0.1192
  502MOL0     H67703   3.221   2.897   8.151  0.5789 -1.1600 -0.2062
  502MOL0     H67704   2.981   2.818   8.204 -0.7438  0.8774  1.6972
  502MOL0     H67705   2.896   2.496   8.482 -1.3762 -0.1598  0.1519
  502MOL0     H67706   2.940   2.623   8.593  0.2674  0.6954  0.3472
  502MOL0     H67707   2.699   2.715   8.523  0.6143  0.2098 -1.5163
  502MOL0     H67708   2.667   2.584   8.432 -2.2678 -0.2933  1.3738
  502MOL0     H67709   2.574   2.486   8.617 -0.3745  0.4819  0.8039
  502MOL0     H67710   2.736   2.438   8.661 -1.4044 -1.8347 -1.1267
  502MOL0     H67711   2.740   2.682   8.786 -0.0274  1.9714 -1.0252
  502MOL0     H67712   2.575   2.688   8.756 -0.8263 -1.1180  0.9070
  502MOL0     H67713   2.748   2.504   8.917 -0.6463 -3.2028 -1.9796
  502MOL0     H67714   2.620   2.601   8.979 -0.1483 -2.1505  0.9405
  502MOL0     H67715   2.557   2.351   8.800 -0.4262 -1.9535  1.5464
  502MOL0     H67716   2.567   2.353   8.971  1.5165 -0.2946 -0.8584
  502MOL0     H67717   2.374   2.550   8.954 -0.0393  3.0816 -2.7037
  502MOL0     H67718   2.382   2.545   8.801 -0.4877  0.7967  1.4751
  502MOL0     H67719   2.336   2.298   8.779  0.7894  1.5595 -1.4769
  502MOL0     H67720   2.199   2.394   8.833  0.9432  1.2017 -3.4216
  502MOL0     H67721   2.117   2.355   9.092 -0.9182 -1.5099 -0.2582
  502MOL0     H67722   2.231   2.107   9.379 -1.1648 -0.0072  1.5041
  502MOL0     H67723   2.119   2.230   9.371  0.9849  0.6470  0.3253
  502MOL0     H67724   2.106   1.966   9.207 -2.4270  0.1100 -1.0637
  502MOL0     H67725   1.979   2.091   9.200 -0.8921 -1.2208 -0.2105
  502MOL0     H67726   1.958   2.060   9.458  0.3023  0.0276  0.1104
  502MOL0     H67727   2.057   1.916   9.422 -0.0563 -0.6295 -1.8270
  502MOL0     H67728   1.817   1.846   9.419  0.7443 -1.0414 -0.1407
  502MOL0     H67729   1.872   1.854   9.249  0.1813  1.8593 -0.7499
  502MOL0     H67730   1.549   2.126   9.359  3.4732 -1.2460 -0.6426
  502MOL0     H67731   1.222   2.129   9.208 -0.2193 -2.1520  0.0088
  502MOL0     H67732   1.229   2.045   9.365  2.6436 -1.5793  0.2555
  502MOL0     H67733   1.314   2.203   9.336 -0.0124  0.8481  0.6202
  502MOL0     H67734   1.035   1.883   8.824 -2.7024  0.0833  1.1990
  502MOL0     H67735   0.816   1.760   8.787 -0.2993 -3.1100 -1.9003
  502MOL0     H67736   0.632   1.685   8.941 -1.4028 -0.7445  0.4090
  502MOL0     H67737   0.627   1.612   8.782 -2.4256  0.1653 -0.4564
  502MOL0     H67738   0.541   1.403   8.888 -0.6663  0.2360 -1.6542
  502MOL0     H67739   0.557   1.472   9.049 -0.7487  0.3485  0.6045
  502MOL0     H67740   0.369   1.617   8.864  2.5436  1.7232  0.7356
  502MOL0     H67741   0.363   1.603   9.035  1.0209  3.2690 -1.0326
  502MOL0     H67742   0.275   1.392   8.831  1.8678  2.8374 -1.6966
  502MOL0     H67743   0.300   1.341   8.995 -1.1997 -2.9542 -3.4267
  502MOL0     H67744   0.125   1.569   8.896 -1.1269  1.1325  1.4733
  502MOL0     H67745   0.139   1.529   9.067  1.0783  1.1100 -0.5655
  502MOL0     H67746   0.044   1.345   8.849  0.7263 -0.1398  1.1001
  502MOL0     H67747   0.042   1.300   9.017  1.1006 -0.5609 -1.1540
  502MOL0     H67748  -0.159   1.452   8.861  1.7846 -1.5950 -1.2650
  502MOL0     H67749  -0.114   1.544   9.009  1.0094 -0.7880  1.0081
  502MOL0     H67750  -0.208   1.257   8.994 -1.2388  0.7095 -1.2091
  502MOL0     H67751  -0.311   1.396   9.046 -0.9125 -2.1037  0.2671
  502MOL0     H67752   0.961   1.451   9.047  2.9109 -1.4175 -0.9025
  502MOL0     H67753   1.190   1.587   9.078  1.6582  1.8018 -1.2580
  502MOL0     H67754   1.490   1.748   9.049  0.7946 -0.3280  0.6734
  502MOL0     H67755   1.705   1.803   9.143  0.2350 -1.4759  0.9634
  502MOL0     H67756   3.152   2.591   8.522  2.9269 -0.4980 -1.0546
  502MOL0     H67757   3.354   2.686   8.511 -0.1651  2.1049  1.2743
  502MOL0     H67758   3.594   3.174   8.158 -0.4974  1.1045  2.2129
  502MOL0     H67759   3.843   3.207   8.130 -0.8553  2.3787  2.4366
  502MOL0     H67760   4.118   2.993   8.401 -0.7661 -2.7944  0.1989
  502MOL0     H67761   4.131   2.889   8.246 -2.0374  0.3693 -1.6142
  502MOL0     H67762   4.346   2.997   8.318 -2.1195 -2.3786  0.9227
  502MOL0     H67763   4.259   3.159   8.319 -2.9271 -0.5444  1.0817
  502MOL0     H67764   4.216   3.121   8.064  1.3520  2.4788 -0.6354
  502MOL0     H67765   4.307   2.971   8.091 -2.3709  1.1723 -1.1561
  502MOL0     H67766   4.516   3.115   8.153 -1.2594  0.4433  1.9978
  502MOL0     H67767   4.420   3.252   8.084 -0.4183  0.1034 -0.4022
  502MOL0     H67768   4.487   3.028   7.742  0.5201 -1.7581  0.9095
  502MOL0     H67769   3.918   2.864   8.375  1.1564 -0.1062  2.5014
  502MOL0     H67770   3.671   2.826   8.385 -3.0594  0.2829 -2.7519
  503MOL0     O67771   1.137   2.659   2.660  0.2701 -0.0368 -0.2811
  503MOL0     C67772   1.163   2.584   2.755 -0.2101 -0.7591  0.5876
  503MOL0     O67773   1.086   2.556   2.866 -0.1894 -0.2969 -0.4294
  503MOL0     C67774   0.964   2.620   2.881 -0.3107 -0.9786  0.1572
  503MOL0     C67775   0.868   2.614   2.777 -0.5971  0.2937  0.6827
  503MOL0     C67776   0.745   2.682   2.790 -0.4437  0.3673  0.4827
  503MOL0     C67777   0.718   2.748   2.906 -0.0935  0.4855 -0.1769
  503MOL0     O67778   0.598   2.805   2.939  0.1315  0.5249  0.0494
  503MOL0     C67779   0.491   2.797   2.848 -0.0403 -0.2921  0.5359
  503MOL0     C67780   0.365   2.870   2.901  0.1048 -0.2202 -0.1183
  503MOL0     C67781   0.367   3.011   2.857  0.5463 -0.0246  0.0588
  503MOL0     C67782   0.271   3.102   2.946 -0.3443  0.6355  0.1669
  503MOL0     C67783   0.257   3.245   2.895 -0.1525  0.0056 -0.2970
  503MOL0     C67784   0.396   3.323   2.899 -0.1072 -0.2854  0.1949
  503MOL0     C67785   0.394   3.474   2.873 -0.5830  0.2631 -0.1792
  503MOL0     C67786   0.367   3.504   2.725 -0.4364 -0.2416 -0.0597
  503MOL0     N67787   0.351   3.648   2.720  0.0639 -0.1681  0.0723
  503MOL0     C67788   0.236   3.722   2.739 -0.1798 -0.0007 -0.1890
  503MOL0     C67789   0.275   3.846   2.708 -0.9434 -0.2295 -0.2152
  503MOL0     C67790   0.193   3.973   2.691  0.1696  0.0152  0.2082
  503MOL0     C67791   0.115   3.981   2.565 -0.1004 -0.1604  0.8326
  503MOL0     C67792   0.024   4.103   2.544 -0.1275 -0.9422  0.6382
  503MOL0     C67793  -0.059   4.103   2.416 -0.0288  0.5574 -0.2481
  503MOL0     O67794  -0.164   4.011   2.426  0.7258 -0.7425 -0.5776
  503MOL0     C67795  -0.294   4.056   2.451 -0.8483  0.2706 -0.2608
  503MOL0     C67796  -0.393   3.955   2.438 -0.5295  0.3297 -0.4557
  503MOL0     C67797  -0.531   3.984   2.437  0.5841  0.5295 -0.0139
  503MOL0     C67798  -0.614   3.867   2.410  0.4685 -0.1088 -0.8014
  503MOL0     C67799  -0.573   4.121   2.465 -0.4221  0.1948  0.3738
  503MOL0     C67800  -0.710   4.158   2.475  0.9034  0.3418 -0.1172
  503MOL0     O67801  -0.724   4.300   2.472 -0.5649  1.1805 -0.1870
  503MOL0     C67802  -0.856   4.347   2.485 -0.3767  0.3607 -0.0852
  503MOL0     C67803  -0.918   4.414   2.383  0.1969 -0.0709 -1.2459
  503MOL0     C67804  -1.053   4.457   2.389 -0.0592 -0.5931 -0.3221
  503MOL0     C67805  -1.132   4.435   2.501  0.0359  0.1622 -0.0654
  503MOL0     O67806  -1.259   4.483   2.500  0.5974  0.3653 -0.4936
  503MOL0     C67807  -1.366   4.420   2.577  0.1723 -0.1453 -0.2103
  503MOL0     C67808  -1.488   4.522   2.578 -0.2293  1.2185 -0.3981
  503MOL0     C67809  -1.602   4.459   2.663 -0.1610 -0.4117  0.4827
  503MOL0     C67810  -1.662   4.332   2.606 -0.1098  0.9982  0.4812
  503MOL0     C67811  -1.792   4.307   2.682 -0.3241 -0.5888  0.1800
  503MOL0     C67812  -1.855   4.175   2.631  0.3102  0.1323 -0.3892
  503MOL0     C67813  -1.992   4.143   2.682 -0.9106 -0.1763 -0.2133
  503MOL0     C67814  -1.986   4.136   2.834  0.5393  0.2521  0.2901
  503MOL0    Cl67815  -2.150   4.073   2.903  0.3153  0.0205 -0.1528
  503MOL0     C67816  -1.068   4.380   2.610 -0.9620  0.0254 -0.3946
  503MOL0     C67817  -0.925   4.334   2.604 -0.4727  0.0132  0.1769
  503MOL0     O67818  -0.799   4.078   2.494  0.0052 -0.3110  0.4543
  503MOL0     C67819  -0.472   4.220   2.486  0.5070 -0.1983  0.1246
  503MOL0     C67820  -0.338   4.185   2.474  0.1257  1.2189 -0.9295
  503MOL0     N67821   0.413   3.848   2.687  0.0669  0.1273  0.6386
  503MOL0     N67822   0.456   3.727   2.681  0.9734 -0.0768  0.1859
  503MOL0     C67823   0.806   2.752   3.012 -0.4431 -0.1096  0.4451
  503MOL0     C67824   0.933   2.687   2.994  0.8038  0.0690 -0.3891
  503MOL0     C67825   1.301   2.541   2.779 -0.3506 -0.8450  0.0343
  503MOL0     C67826   1.400   2.600   2.702 -0.5898  0.1193  0.1903
  503MOL0     C67827   1.535   2.567   2.723 -0.5695 -0.6253 -0.2511
  503MOL0     C67828   1.567   2.474   2.822  0.0899  0.6327  0.4648
  503MOL0     O67829   1.694   2.433   2.825  0.0681  0.1542  0.4488
  503MOL0     C67830   1.758   2.481   2.941  0.2248 -1.2740 -0.7167
  503MOL0     C67831   1.907   2.450   2.927  0.4895  0.3307 -0.3085
  503MOL0     C67832   1.961   2.471   2.789  0.6319 -0.5736  0.4220
  503MOL0     C67833   2.115   2.459   2.781 -0.2733  0.0442 -1.0775
  503MOL0     C67834   2.160   2.325   2.831  0.3155  0.9082 -0.5736
  503MOL0     C67835   2.198   2.219   2.868  0.0415 -0.7323 -0.3868
  503MOL0     C67836   1.465   2.414   2.898  0.3059 -0.1491 -1.2301
  503MOL0     C67837   1.332   2.447   2.881  0.1132  0.2762  0.4234
  503MOL0     H67838   0.902   2.550   2.696 -0.6231 -1.3369  1.9061
  503MOL0     H67839   0.676   2.674   2.706 -1.3380 -0.7895  1.2844
  503MOL0     H67840   0.532   2.841   2.757  1.0509  0.9115  1.5822
  503MOL0     H67841   0.471   2.693   2.821 -2.3899  0.6268 -1.7071
  503MOL0     H67842   0.269   2.831   2.865  1.0251 -2.3434 -0.3949
  503MOL0     H67843   0.357   2.859   3.009 -0.8873 -0.2882 -0.1848
  503MOL0     H67844   0.466   3.055   2.870 -0.3499  1.5420  2.2761
  503MOL0     H67845   0.330   3.016   2.755  2.0193  3.7238 -0.4657
  503MOL0     H67846   0.169   3.060   2.947  0.4308 -1.5124 -1.7934
  503MOL0     H67847   0.309   3.108   3.048 -1.0369  0.2090  0.4600
  503MOL0     H67848   0.221   3.251   2.792  1.5854  2.3618 -0.8476
  503MOL0     H67849   0.183   3.293   2.959 -1.0193  1.1358 -2.0819
  503MOL0     H67850   0.448   3.298   2.992 -2.4957  0.2658  1.7521
  503MOL0     H67851   0.471   3.281   2.832 -0.4750 -0.7741  0.0919
  503MOL0     H67852   0.312   3.519   2.930  1.5063  2.5758  1.2010
  503MOL0     H67853   0.485   3.525   2.905 -2.7326  1.2720  5.4663
  503MOL0     H67854   0.278   3.451   2.690 -2.3704  1.0748  2.5186
  503MOL0     H67855   0.455   3.482   2.664 -1.2315 -0.8077 -1.0327
  503MOL0     H67856   0.133   3.694   2.757 -0.4476 -0.5920 -2.3059
  503MOL0     H67857   0.117   3.974   2.770 -0.7036 -1.6522 -0.5622
  503MOL0     H67858   0.266   4.054   2.700  2.9868 -2.3232  0.0261
  503MOL0     H67859   0.054   3.890   2.563 -0.2573 -0.0438 -0.2832
  503MOL0     H67860   0.182   3.968   2.479  0.3618 -2.6463  1.4667
  503MOL0     H67861   0.089   4.191   2.541 -2.5358  0.9377  0.3650
  503MOL0     H67862  -0.038   4.114   2.633 -1.1644  2.0674 -0.3124
  503MOL0     H67863   0.012   4.071   2.339 -2.3596 -1.5335 -1.7081
  503MOL0     H67864  -0.097   4.202   2.391 -2.5439 -0.3777 -0.3940
  503MOL0     H67865  -0.359   3.854   2.417  0.6743  0.8035 -0.8807
  503MOL0     H67866  -0.694   3.893   2.340  0.8888 -0.7363 -1.5410
  503MOL0     H67867  -0.558   3.784   2.364 -1.8104 -1.9300 -0.4713
  503MOL0     H67868  -0.664   3.835   2.502 -0.7598  1.8427 -0.7457
  503MOL0     H67869  -0.859   4.419   2.291  1.4576  0.2185 -0.4442
  503MOL0     H67870  -1.101   4.511   2.308 -0.8654  0.7063  0.9704
  503MOL0     H67871  -1.402   4.322   2.544 -2.5853  0.4427  0.8705
  503MOL0     H67872  -1.337   4.412   2.682  0.2267  0.9358 -0.1313
  503MOL0     H67873  -1.458   4.617   2.623  1.4968 -0.0113  1.2239
  503MOL0     H67874  -1.526   4.526   2.476  0.9501 -1.2396 -1.0241
  503MOL0     H67875  -1.677   4.538   2.676  0.8854  0.6843  0.0713
  503MOL0     H67876  -1.564   4.422   2.759 -2.1499 -3.8826  0.0771
  503MOL0     H67877  -1.676   4.343   2.498  1.6896  1.4231  0.2555
  503MOL0     H67878  -1.603   4.242   2.624  1.8497  2.0148 -0.5253
  503MOL0     H67879  -1.865   4.389   2.680  1.2434  0.9279  1.3421
  503MOL0     H67880  -1.770   4.288   2.788  0.3759 -0.4759  0.0639
  503MOL0     H67881  -1.850   4.184   2.522  0.4188  1.7641 -0.2645
  503MOL0     H67882  -1.787   4.098   2.670  0.1783  0.2036 -0.0179
  503MOL0     H67883  -2.002   4.042   2.641 -1.6154 -0.5748  0.8909
  503MOL0     H67884  -2.061   4.214   2.635  0.8647  1.7686 -0.0182
  503MOL0     H67885  -1.966   4.236   2.873  0.0448  1.1324 -1.6094
  503MOL0     H67886  -1.904   4.073   2.869 -0.6125 -2.5784 -1.7490
  503MOL0     H67887  -1.125   4.372   2.702 -2.0269 -1.3057 -1.1364
  503MOL0     H67888  -0.882   4.286   2.691 -0.2920  2.2276  1.3824
  503MOL0     H67889  -0.492   4.321   2.519 -0.5735  0.6341 -2.7663
  503MOL0     H67890  -0.265   4.262   2.494 -0.1654  0.8319  1.9552
  503MOL0     H67891   0.780   2.807   3.102 -0.7473  1.1772 -0.3947
  503MOL0     H67892   1.004   2.688   3.076 -1.9222  0.2968  2.1450
  503MOL0     H67893   1.368   2.671   2.627  1.5255 -3.5564 -4.7482
  503MOL0     H67894   1.608   2.630   2.672 -3.1890  2.2097 -0.7848
  503MOL0     H67895   1.730   2.587   2.940 -1.7400 -1.7358  0.2866
  503MOL0     H67896   1.729   2.436   3.036 -2.0823  1.6241  0.1104
  503MOL0     H67897   1.913   2.345   2.955 -0.7278 -0.7817 -3.6442
  503MOL0     H67898   1.968   2.509   2.996  0.1892 -1.1656  1.3084
  503MOL0     H67899   1.934   2.572   2.758  0.2357 -0.8985 -0.3479
  503MOL0     H67900   1.916   2.394   2.724 -2.2677  0.5021  0.9851
  503MOL0     H67901   2.166   2.532   2.845  0.2672 -2.0328  1.0204
  503MOL0     H67902   2.149   2.475   2.678  2.7971  1.2330 -0.0031
  503MOL0     H67903   2.256   2.131   2.889 -1.5368 -1.2752  2.1286
  503MOL0     H67904   1.495   2.343   2.974 -2.7747  1.7538  2.0852
  503MOL0     H67905   1.254   2.397   2.938 -0.3240  1.1260  0.6029
  504MOL0     O67906   1.568   9.423   6.871 -0.2637  0.3707  0.4909
  504MOL0     C67907   1.580   9.299   6.867  0.1729 -0.1631 -0.3574
  504MOL0     O67908   1.477   9.214   6.911  0.0136 -0.2496  0.5105
  504MOL0     C67909   1.342   9.253   6.940  0.5859  0.1091  0.4759
  504MOL0     C67910   1.293   9.385   6.949  0.1966  0.3493 -0.0258
  504MOL0     C67911   1.162   9.405   6.975  0.7180  0.0574  0.3057
  504MOL0     C67912   1.079   9.298   6.995  0.7025 -0.3963 -0.7263
  504MOL0     O67913   0.946   9.289   7.013 -0.5977 -0.2080 -0.2886
  504MOL0     C67914   0.858   9.385   6.959  0.7150 -0.0619 -0.8390
  504MOL0     C67915   0.773   9.448   7.077  0.1330 -0.4823  0.5080
  504MOL0     C67916   0.675   9.350   7.136 -0.6654  0.8847 -0.4981
  504MOL0     C67917   0.561   9.325   7.049  0.6280  0.4843  0.3788
  504MOL0     C67918   0.462   9.218   7.113 -0.6647 -0.9804 -1.0579
  504MOL0     C67919   0.369   9.154   7.004  0.9590  0.3986  0.3652
  504MOL0     C67920   0.249   9.068   7.060 -0.1069  0.5397 -0.5517
  504MOL0     C67921   0.147   9.163   7.126  0.0880  0.3177 -0.1411
  504MOL0     N67922   0.031   9.092   7.172  0.0462  0.0361  0.6296
  504MOL0     C67923   0.014   9.058   7.306 -0.3505 -0.3881 -0.0334
  504MOL0     C67924  -0.113   9.017   7.306  0.0441  0.1389 -0.5888
  504MOL0     C67925  -0.190   8.991   7.427  0.2121  0.6713  0.3456
  504MOL0     C67926  -0.183   9.121   7.518 -0.4995  0.2599 -0.7622
  504MOL0     C67927  -0.278   9.100   7.638  0.4828  0.3691 -0.5798
  504MOL0     C67928  -0.408   9.182   7.613 -0.1973  0.1774  0.4593
  504MOL0     O67929  -0.497   9.105   7.528 -0.7079 -0.1898  0.4555
  504MOL0     C67930  -0.629   9.145   7.537 -0.6613  0.0473 -0.0877
  504MOL0     C67931  -0.654   9.280   7.514  0.8041  0.6033  0.2912
  504MOL0     C67932  -0.786   9.314   7.529  0.0939 -0.8744  0.6476
  504MOL0     C67933  -0.819   9.461   7.502  0.2769 -0.3318 -0.2415
  504MOL0     C67934  -0.883   9.224   7.570 -0.5369 -0.0583  0.6366
  504MOL0     C67935  -1.016   9.275   7.610  0.5943  0.4784 -0.6636
  504MOL0     O67936  -1.108   9.195   7.565  0.1577  0.3350  0.4399
  504MOL0     C67937  -1.239   9.223   7.561  0.4683  0.4786 -0.3153
  504MOL0     C67938  -1.295   9.348   7.571  0.4901 -0.0361  0.3102
  504MOL0     C67939  -1.430   9.375   7.588 -0.4792 -0.0599  0.3456
  504MOL0     C67940  -1.519   9.267   7.600  0.1070 -0.2934 -0.7476
  504MOL0     O67941  -1.654   9.274   7.631 -1.1753  0.0533  0.6225
  504MOL0     C67942  -1.714   9.400   7.638  0.4497 -0.2513 -0.3002
  504MOL0     C67943  -1.865   9.388   7.601 -0.1638 -0.0334  0.2449
  504MOL0     C67944  -1.950   9.297   7.684 -0.2091  0.6637 -0.2896
  504MOL0     C67945  -1.966   9.357   7.818  0.6495  1.0175  0.0086
  504MOL0     C67946  -2.076   9.471   7.827  0.7305  0.4303 -0.9361
  504MOL0     C67947  -2.092   9.506   7.982 -0.0698  0.2447 -0.4017
  504MOL0     C67948  -2.217   9.593   8.008  0.3674 -0.5884  0.2332
  504MOL0     C67949  -2.346   9.509   8.036 -0.6307 -0.4017 -0.1500
  504MOL0    Cl67950  -2.484   9.619   8.045 -0.2612 -0.3183  0.4097
  504MOL0     C67951  -1.467   9.139   7.588 -0.5386  0.0262 -0.4977
  504MOL0     C67952  -1.330   9.122   7.566  0.0058 -0.0738  0.3610
  504MOL0     O67953  -1.041   9.371   7.681 -0.0522  0.0676  0.0543
  504MOL0     C67954  -0.852   9.087   7.581  0.3876  0.6184  0.2480
  504MOL0     C67955  -0.720   9.042   7.573  0.4147 -0.4124 -0.4063
  504MOL0     N67956  -0.160   8.995   7.178 -0.7244 -0.1410  0.2164
  504MOL0     N67957  -0.071   9.041   7.095 -0.0692 -0.3410  0.3820
  504MOL0     C67958   1.133   9.166   7.000  0.2154 -0.1322 -0.6214
  504MOL0     C67959   1.260   9.137   6.967  0.2005 -0.9941 -0.5343
  504MOL0     C67960   1.712   9.251   6.819  0.2138 -0.5245 -0.2109
  504MOL0     C67961   1.805   9.335   6.764  0.2020 -0.7632  0.2023
  504MOL0     C67962   1.930   9.285   6.723 -0.5251 -0.0751 -0.9364
  504MOL0     C67963   1.966   9.154   6.729 -0.0101 -0.1537 -0.2203
  504MOL0     O67964   2.091   9.127   6.681  0.3335  0.5024 -0.3547
  504MOL0     C67965   2.140   9.001   6.729 -0.3274  0.0283 -0.2219
  504MOL0     C67966   2.294   8.983   6.720  0.5538  0.2713  0.2178
  504MOL0     C67967   2.376   9.074   6.813 -0.2594  0.3959 -0.1678
  504MOL0     C67968   2.525   9.031   6.820 -0.6317  0.4964  0.4911
  504MOL0     C67969   2.592   9.147   6.883 -0.2831  0.1480  1.6750
  504MOL0     C67970   2.634   9.255   6.937 -0.2805  0.6504 -0.0670
  504MOL0     C67971   1.875   9.066   6.790  0.1015 -0.0343 -0.2434
  504MOL0     C67972   1.748   9.113   6.828  0.2715 -0.3570  0.3927
  504MOL0     H67973   1.350   9.476   6.936  0.6819  0.3051  1.6166
  504MOL0     H67974   1.124   9.506   6.973  1.9637  0.5439 -0.3947
  504MOL0     H67975   0.909   9.461   6.899 -0.6905 -0.8803 -3.1846
  504MOL0     H67976   0.791   9.341   6.884 -1.3865 -0.5926  1.2319
  504MOL0     H67977   0.846   9.485   7.150  1.2647 -0.4865 -0.5951
  504MOL0     H67978   0.708   9.529   7.042 -2.2127 -2.1266  0.8097
  504MOL0     H67979   0.723   9.253   7.153 -1.3816  0.0480 -2.8501
  504MOL0     H67980   0.632   9.381   7.231 -0.5712 -3.6465  1.2888
  504MOL0     H67981   0.515   9.424   7.046 -0.5118 -0.0532 -0.7027
  504MOL0     H67982   0.588   9.299   6.946 -0.4352 -1.4798  0.5366
  504MOL0     H67983   0.514   9.145   7.176 -0.5738  0.9672  1.2351
  504MOL0     H67984   0.402   9.282   7.177  1.4026  0.4809 -0.4571
  504MOL0     H67985   0.331   9.234   6.939 -1.7837  0.6099  2.0433
  504MOL0     H67986   0.429   9.081   6.949  3.7455  1.0351  2.3404
  504MOL0     H67987   0.194   9.026   6.976  2.9178  0.4375 -2.6192
  504MOL0     H67988   0.289   8.995   7.131  3.1243  1.2129 -1.5267
  504MOL0     H67989   0.115   9.242   7.056  1.6803  0.3799 -0.8461
  504MOL0     H67990   0.188   9.217   7.211 -1.0582 -1.6943  1.7823
  504MOL0     H67991   0.068   9.086   7.397 -0.7912  1.1717 -0.2231
  504MOL0     H67992  -0.296   8.964   7.415  0.4649 -3.6185  4.4958
  504MOL0     H67993  -0.149   8.899   7.470 -2.6618 -1.1142 -0.4237
  504MOL0     H67994  -0.195   9.214   7.462  2.2888  0.9407 -0.3324
  504MOL0     H67995  -0.083   9.128   7.560 -0.8498 -1.5019  0.4917
  504MOL0     H67996  -0.227   9.147   7.723  0.1440 -1.1729  0.5107
  504MOL0     H67997  -0.306   8.997   7.661  1.4335  0.4934  1.3222
  504MOL0     H67998  -0.390   9.279   7.567  1.0950 -1.2315 -2.2323
  504MOL0     H67999  -0.457   9.210   7.707 -0.9212  1.8593 -0.3838
  504MOL0     H68000  -0.584   9.358   7.487 -1.3023  1.6641 -2.7620
  504MOL0     H68001  -0.816   9.525   7.591 -1.6413  0.4213 -0.6540
  504MOL0     H68002  -0.751   9.497   7.425 -0.5338 -0.6630 -1.1415
  504MOL0     H68003  -0.917   9.461   7.453  0.0764 -1.3237  0.1270
  504MOL0     H68004  -1.232   9.436   7.557 -0.1840  0.1997 -1.5041
  504MOL0     H68005  -1.456   9.480   7.595  1.1278  0.2704  2.0324
  504MOL0     H68006  -1.700   9.442   7.738  0.7996  0.9482 -0.8421
  504MOL0     H68007  -1.671   9.478   7.575  0.7128  0.5197  0.8062
  504MOL0     H68008  -1.907   9.490   7.601 -0.9648 -0.3505 -0.7013
  504MOL0     H68009  -1.852   9.359   7.497 -0.3835  1.3713 -0.1954
  504MOL0     H68010  -1.905   9.200   7.706 -0.7075  0.9233  2.2346
  504MOL0     H68011  -2.045   9.282   7.633  1.4723 -2.9099 -2.7812
  504MOL0     H68012  -1.996   9.270   7.878  1.6855 -0.6989 -1.8276
  504MOL0     H68013  -1.875   9.404   7.857 -0.3789  2.3440  0.8540
  504MOL0     H68014  -2.173   9.434   7.791 -0.1122  1.0661  0.6085
  504MOL0     H68015  -2.045   9.560   7.771  1.3513 -0.1527 -1.5487
  504MOL0     H68016  -2.100   9.414   8.041 -0.9984  1.1027  0.8708
  504MOL0     H68017  -2.002   9.560   8.014 -1.4853  1.4586  1.7839
  504MOL0     H68018  -2.244   9.656   7.923 -0.2212 -0.1520  0.7317
  504MOL0     H68019  -2.203   9.666   8.089 -0.3868  1.5048 -1.4418
  504MOL0     H68020  -2.336   9.458   8.132 -2.9574  0.6625  0.7378
  504MOL0     H68021  -2.368   9.437   7.957 -0.7564  0.3871 -0.8516
  504MOL0     H68022  -1.531   9.051   7.591  1.1758 -1.2629  0.5680
  504MOL0     H68023  -1.304   9.023   7.531 -1.8519 -0.7748  0.8518
  504MOL0     H68024  -0.937   9.020   7.593  0.2851  0.8779  0.9575
  504MOL0     H68025  -0.676   8.943   7.588 -0.4511 -0.4634  2.1878
  504MOL0     H68026   1.071   9.086   7.038 -0.7580 -0.0972 -2.0473
  504MOL0     H68027   1.301   9.037   6.962  1.9243 -0.2841 -2.1685
  504MOL0     H68028   1.795   9.442   6.746  2.5343 -0.6512 -0.8906
  504MOL0     H68029   1.991   9.364   6.679  1.9443 -1.4329 -0.1626
  504MOL0     H68030   2.109   8.989   6.833 -1.4931  1.0184 -0.4416
  504MOL0     H68031   2.095   8.917   6.676  1.9819  0.2244 -2.7323
  504MOL0     H68032   2.322   8.996   6.615 -0.0337  0.5002  0.0869
  504MOL0     H68033   2.308   8.876   6.740 -1.7415 -0.3214 -1.0904
  504MOL0     H68034   2.331   9.064   6.913 -0.6319  2.5152 -0.0749
  504MOL0     H68035   2.364   9.176   6.775 -3.3038 -0.2926 -1.2994
  504MOL0     H68036   2.570   9.021   6.721  0.2137  3.0286  0.5683
  504MOL0     H68037   2.539   8.942   6.882 -1.4568 -0.1754 -0.2551
  504MOL0     H68038   2.679   9.342   6.980  1.5056 -0.6336  0.7858
  504MOL0     H68039   1.901   8.961   6.787 -2.6555 -0.8007 -1.1641
  504MOL0     H68040   1.679   9.039   6.867  1.0118 -1.1403  0.2458
  505MOL0     O68041   8.720   6.041   5.912 -0.1241  0.5213 -0.6282
  505MOL0     C68042   8.717   6.162   5.896  0.6813  0.3109 -0.0214
  505MOL0     O68043   8.610   6.239   5.865  0.2746 -0.1664  0.5918
  505MOL0     C68044   8.479   6.195   5.884  0.1632 -0.9824 -0.8301
  505MOL0     C68045   8.447   6.123   5.998 -0.4454 -0.0177 -1.0099
  505MOL0     C68046   8.317   6.076   6.027 -0.2756  0.0230 -0.0899
  505MOL0     C68047   8.225   6.104   5.930  0.1302 -0.8287  0.8104
  505MOL0     O68048   8.099   6.046   5.928  0.1727 -0.0813 -0.2029
  505MOL0     C68049   8.012   6.112   6.022  0.0722  1.3969 -0.5994
  505MOL0     C68050   7.875   6.112   5.953  0.2770 -0.1073 -0.1748
  505MOL0     C68051   7.780   6.177   6.045  0.2729 -0.0924  0.2511
  505MOL0     C68052   7.639   6.156   6.015  0.4117  0.3705  0.3422
  505MOL0     C68053   7.589   6.235   5.896 -0.7288  0.3102  0.5310
  505MOL0     C68054   7.436   6.255   5.909 -0.2586  1.1200  1.0819
  505MOL0     C68055   7.340   6.140   5.898  0.3142 -0.0753 -0.3029
  505MOL0     C68056   7.194   6.177   5.937 -0.3532 -0.9617 -0.2774
  505MOL0     N68057   7.107   6.057   5.937 -0.1344  0.6735  0.4515
  505MOL0     C68058   7.104   5.962   6.040  0.8289 -0.3852  0.1262
  505MOL0     C68059   7.023   5.863   5.993  0.2626 -0.2464  0.4561
  505MOL0     C68060   6.975   5.733   6.062  0.2162 -0.1353  0.1057
  505MOL0     C68061   6.829   5.750   6.098  0.6477  0.8295 -0.2905
  505MOL0     C68062   6.736   5.732   5.977 -0.0784  1.0606  0.2876
  505MOL0     C68063   6.585   5.685   6.019 -0.7973  1.1375 -0.3684
  505MOL0     O68064   6.501   5.789   6.082  0.2333  0.0334  0.2994
  505MOL0     C68065   6.369   5.755   6.076 -0.0208 -0.2878  0.0429
  505MOL0     C68066   6.305   5.635   6.034  0.0325 -0.8870 -0.3248
  505MOL0     C68067   6.167   5.620   6.046  0.6074  0.0993 -0.5731
  505MOL0     C68068   6.103   5.496   5.991  0.0110 -0.8574 -0.7059
  505MOL0     C68069   6.088   5.726   6.104 -0.5076  0.2268 -0.4741
  505MOL0     C68070   5.938   5.727   6.114 -0.8329  0.5726 -0.7142
  505MOL0     O68071   5.878   5.840   6.153  0.0418  0.5058  0.0576
  505MOL0     C68072   5.743   5.858   6.164 -0.7595 -0.8551  0.1054
  505MOL0     C68073   5.641   5.793   6.100 -0.1111 -0.0419  0.5463
  505MOL0     C68074   5.514   5.833   6.130  0.3616  0.4872 -0.3193
  505MOL0     C68075   5.482   5.941   6.215  0.6415 -0.3231 -0.1624
  505MOL0     O68076   5.352   5.992   6.236  0.2198  0.4144  0.2586
  505MOL0     C68077   5.277   6.009   6.119 -0.0559  0.0692 -0.8233
  505MOL0     C68078   5.139   6.073   6.157 -0.9722  0.0449  0.5105
  505MOL0     C68079   5.040   5.970   6.200  0.8500  0.7759 -0.4739
  505MOL0     C68080   4.905   6.010   6.263  0.8709  0.5705 -0.7155
  505MOL0     C68081   4.820   6.112   6.177 -0.8078  0.0579  0.0689
  505MOL0     C68082   4.732   6.197   6.264 -0.2705  0.3318  0.4756
  505MOL0     C68083   4.654   6.308   6.176 -0.2028  0.2753 -0.2362
  505MOL0     C68084   4.515   6.377   6.231 -0.2539 -0.7166  0.3788
  505MOL0    Cl68085   4.524   6.446   6.400 -0.4223  0.2775  0.0118
  505MOL0     C68086   5.585   5.999   6.286  0.1415 -0.0207  0.0046
  505MOL0     C68087   5.715   5.952   6.269 -0.4094  0.4066 -0.0249
  505MOL0     O68088   5.885   5.618   6.118  0.9281  0.0605 -0.0794
  505MOL0     C68089   6.154   5.837   6.160  0.0101 -0.6968  0.1450
  505MOL0     C68090   6.291   5.850   6.142  0.3952 -0.5499 -0.2768
  505MOL0     N68091   6.975   5.907   5.863 -0.1482  0.7999 -1.0433
  505MOL0     N68092   7.040   6.015   5.832  0.1099  0.3341  0.6793
  505MOL0     C68093   8.253   6.174   5.811  0.8171  0.4559  0.3362
  505MOL0     C68094   8.383   6.226   5.791  0.7383  0.2010  0.1977
  505MOL0     C68095   8.854   6.220   5.888  0.3081 -0.5766  0.0269
  505MOL0     C68096   8.973   6.159   5.925  0.3879  0.4123  0.2603
  505MOL0     C68097   9.101   6.212   5.892  0.6433  0.0067 -0.6684
  505MOL0     C68098   9.108   6.331   5.832 -0.3563 -0.2731 -0.3150
  505MOL0     O68099   9.238   6.370   5.818 -0.2994 -0.0141  1.0211
  505MOL0     C68100   9.277   6.503   5.783 -0.2883  0.7898 -0.0718
  505MOL0     C68101   9.422   6.494   5.719 -0.7261 -0.5168 -0.7239
  505MOL0     C68102   9.515   6.403   5.802  0.1449  0.6783  0.1870
  505MOL0     C68103   9.661   6.413   5.744 -0.1548 -0.9119  0.2538
  505MOL0     C68104   9.755   6.341   5.824 -0.7513  0.0029 -0.5414
  505MOL0     C68105   9.846   6.279   5.878 -0.3373 -0.2463 -0.1905
  505MOL0     C68106   8.996   6.400   5.796  0.0799 -0.6811  0.1730
  505MOL0     C68107   8.867   6.344   5.824  0.3386 -0.1973 -0.8828
  505MOL0     H68108   8.517   6.103   6.079 -0.8858  0.3839 -0.5166
  505MOL0     H68109   8.295   6.006   6.107 -0.7806  0.4131  0.1198
  505MOL0     H68110   8.011   6.038   6.103  1.2055  2.9190  0.8852
  505MOL0     H68111   8.038   6.214   6.053 -1.9617  1.8917 -0.4369
  505MOL0     H68112   7.873   6.172   5.862  0.8001  1.9627  1.0937
  505MOL0     H68113   7.849   6.007   5.939 -0.2220  0.1101 -0.8996
  505MOL0     H68114   7.785   6.153   6.152  0.4337 -2.7237 -0.2610
  505MOL0     H68115   7.802   6.283   6.037 -2.4739  0.4102 -2.8905
  505MOL0     H68116   7.618   6.049   6.013  0.8601  0.2938 -1.3713
  505MOL0     H68117   7.596   6.197   6.107  0.6420 -0.7528  0.9735
  505MOL0     H68118   7.637   6.333   5.887 -1.6062  1.0276  2.8117
  505MOL0     H68119   7.622   6.190   5.803  2.5420  3.0643  0.1452
  505MOL0     H68120   7.407   6.298   6.006 -0.7667 -0.1072  1.4924
  505MOL0     H68121   7.418   6.322   5.824  0.5758 -0.9517 -0.8306
  505MOL0     H68122   7.339   6.118   5.790  1.7339  0.2595 -0.3995
  505MOL0     H68123   7.372   6.055   5.959 -1.9957 -1.8496 -1.3967
  505MOL0     H68124   7.153   6.243   5.860 -1.4014  2.0673  2.6113
  505MOL0     H68125   7.194   6.236   6.029  1.4119  0.6749 -1.2751
  505MOL0     H68126   7.153   5.966   6.136  0.6136  0.3179  0.2139
  505MOL0     H68127   6.985   5.652   5.990  1.3827  0.4625 -0.4274
  505MOL0     H68128   7.035   5.714   6.152 -1.1349 -0.3115  1.0060
  505MOL0     H68129   6.812   5.855   6.123 -0.5235  0.2183  1.7804
  505MOL0     H68130   6.808   5.684   6.183  5.9469 -0.4420  0.3585
  505MOL0     H68131   6.771   5.642   5.926  2.1661 -0.1409  3.6512
  505MOL0     H68132   6.744   5.824   5.918 -0.7810  0.9337 -0.0208
  505MOL0     H68133   6.598   5.604   6.091  1.7204  1.4609 -0.4002
  505MOL0     H68134   6.530   5.663   5.927 -0.8880  1.9988 -0.5272
  505MOL0     H68135   6.362   5.550   5.998 -1.1824 -1.6412 -0.5089
  505MOL0     H68136   6.097   5.422   6.072 -0.4754 -0.5900 -0.4947
  505MOL0     H68137   6.005   5.519   5.948  0.2285 -0.0280 -0.7838
  505MOL0     H68138   6.172   5.458   5.915  0.6919  0.6388 -0.8717
  505MOL0     H68139   5.666   5.710   6.035 -1.5533 -0.7095  0.8197
  505MOL0     H68140   5.425   5.784   6.092  0.6527 -2.4607  2.4011
  505MOL0     H68141   5.337   6.076   6.055 -0.6256  1.1103 -0.2833
  505MOL0     H68142   5.270   5.913   6.068  3.2068 -2.1602  2.3775
  505MOL0     H68143   5.153   6.146   6.238  0.7033 -1.2373  1.4348
  505MOL0     H68144   5.104   6.123   6.066  0.7885  1.3336  0.4844
  505MOL0     H68145   5.092   5.918   6.281 -1.8602  3.7862  3.6392
  505MOL0     H68146   5.014   5.909   6.113 -2.4572 -1.0744  1.5776
  505MOL0     H68147   4.839   5.924   6.278  0.5512  0.5172 -2.3004
  505MOL0     H68148   4.921   6.061   6.359 -1.2858 -0.1172  0.0647
  505MOL0     H68149   4.762   6.059   6.100  0.1927 -2.0163  0.6552
  505MOL0     H68150   4.886   6.189   6.136  1.5449 -0.1293  3.1446
  505MOL0     H68151   4.668   6.117   6.302  0.2062 -0.3728 -0.1746
  505MOL0     H68152   4.787   6.248   6.343 -1.3621 -0.4543  1.8042
  505MOL0     H68153   4.631   6.262   6.080  1.0309 -1.5942  0.3059
  505MOL0     H68154   4.727   6.387   6.156 -0.0213  0.4624  1.0787
  505MOL0     H68155   4.436   6.301   6.236  1.2335 -2.5250 -1.6148
  505MOL0     H68156   4.478   6.455   6.164 -0.5975 -1.1835  0.0201
  505MOL0     H68157   5.570   6.078   6.360  0.3801 -2.1124  2.4061
  505MOL0     H68158   5.793   5.999   6.328 -1.1952  0.7096  0.7859
  505MOL0     H68159   6.104   5.916   6.215  1.6136  1.9988 -2.0194
  505MOL0     H68160   6.334   5.945   6.174 -1.3916  0.3666 -0.4981
  505MOL0     H68161   8.173   6.194   5.741 -0.5748  0.7862  1.9540
  505MOL0     H68162   8.403   6.306   5.720  3.8786 -0.4669  0.1763
  505MOL0     H68163   8.986   6.061   5.970  0.2800 -0.1038 -0.7916
  505MOL0     H68164   9.191   6.158   5.918  0.0869 -0.6177  0.0247
  505MOL0     H68165   9.206   6.547   5.712  1.7484  3.6402 -0.4913
  505MOL0     H68166   9.289   6.566   5.871 -0.5981  2.5737 -1.2623
  505MOL0     H68167   9.459   6.597   5.720 -2.3439  0.1004  0.8124
  505MOL0     H68168   9.416   6.445   5.621  0.2950 -1.3712 -0.3767
  505MOL0     H68169   9.485   6.298   5.793  0.2911  0.5478  1.0555
  505MOL0     H68170   9.505   6.431   5.908 -0.3788  0.3189  0.2373
  505MOL0     H68171   9.684   6.520   5.745 -1.1801 -0.6749  1.6958
  505MOL0     H68172   9.661   6.378   5.640 -0.0180 -0.4479  0.0977
  505MOL0     H68173   9.934   6.228   5.912  1.3832  1.2792 -2.1553
  505MOL0     H68174   9.006   6.494   5.743  0.9700 -0.2363  1.0931
  505MOL0     H68175   8.782   6.409   5.809  1.4820  1.7597  0.7016
  506MOL0     O68176   0.934   8.536   6.941  0.0457  0.5811  0.0180
  506MOL0     C68177   0.964   8.630   7.016 -0.1482  0.0763 -0.4582
  506MOL0     O68178   0.871   8.718   7.074  0.1137 -0.0365  0.0706
  506MOL0     C68179   0.734   8.694   7.056  0.3803 -0.4704  0.1172
  506MOL0     C68180   0.673   8.737   6.937  0.5745 -0.7153 -0.5284
  506MOL0     C68181   0.531   8.731   6.917  0.4320  0.1332 -0.1664
  506MOL0     C68182   0.450   8.681   7.023  0.3767  0.2046 -0.5853
  506MOL0     O68183   0.317   8.668   6.998  0.0559  0.1980 -0.7938
  506MOL0     C68184   0.231   8.642   7.103  0.5923  0.2740 -1.1745
  506MOL0     C68185   0.092   8.659   7.051  0.4354  0.7238 -0.9297
  506MOL0     C68186  -0.018   8.683   7.165 -0.2344  0.2329  0.3134
  506MOL0     C68187  -0.034   8.564   7.261  0.0962  0.4228  0.4002
  506MOL0     C68188  -0.162   8.580   7.353 -0.6221 -0.2756 -0.5037
  506MOL0     C68189  -0.301   8.577   7.280 -0.1167 -0.1341  0.4702
  506MOL0     C68190  -0.429   8.550   7.362 -0.5388 -0.2555 -0.2397
  506MOL0     C68191  -0.434   8.605   7.511  0.6289 -0.0604 -0.7605
  506MOL0     N68192  -0.556   8.566   7.582  0.1717  0.4083 -0.1957
  506MOL0     C68193  -0.631   8.450   7.565 -0.3847  0.6726  0.1387
  506MOL0     C68194  -0.738   8.474   7.639 -0.3688  0.0849 -0.3394
  506MOL0     C68195  -0.866   8.391   7.648  0.3201  0.1141  0.1851
  506MOL0     C68196  -0.921   8.356   7.785 -0.1247 -0.4937 -0.2031
  506MOL0     C68197  -1.056   8.310   7.769  0.9287  0.9778  0.0254
  506MOL0     C68198  -1.095   8.231   7.893  0.3941 -0.2538 -0.1282
  506MOL0     O68199  -1.226   8.188   7.869  0.0718  0.1661 -0.4631
  506MOL0     C68200  -1.304   8.101   7.943 -0.4997  0.1240 -1.0659
  506MOL0     C68201  -1.281   8.082   8.079 -0.2356 -0.7082 -0.4056
  506MOL0     C68202  -1.362   8.009   8.171 -0.6037  1.3963  0.8454
  506MOL0     C68203  -1.335   8.023   8.317 -0.3116  0.1883 -0.1913
  506MOL0     C68204  -1.473   7.943   8.114  0.0985  0.7396 -0.2879
  506MOL0     C68205  -1.586   7.883   8.196  0.2629  0.4592 -0.5713
  506MOL0     O68206  -1.704   7.858   8.132  0.0587 -0.3080  0.0718
  506MOL0     C68207  -1.796   7.778   8.201  0.2467 -0.3630 -0.2579
  506MOL0     C68208  -1.777   7.642   8.234  0.7256  0.5819 -0.4930
  506MOL0     C68209  -1.881   7.564   8.309 -0.1498  1.0323 -0.0207
  506MOL0     C68210  -1.991   7.635   8.361 -0.0201  0.6702  1.2019
  506MOL0     O68211  -2.083   7.566   8.446 -0.0267  0.3133  0.5369
  506MOL0     C68212  -2.023   7.469   8.541  0.3212 -0.0995  0.2841
  506MOL0     C68213  -2.114   7.442   8.660  0.6902  0.3979 -0.1201
  506MOL0     C68214  -2.054   7.347   8.759 -0.0931  1.0848 -0.3342
  506MOL0     C68215  -2.155   7.300   8.857  0.4862 -0.5518 -0.6550
  506MOL0     C68216  -2.111   7.178   8.935  0.8071  0.5744 -0.2604
  506MOL0     C68217  -2.214   7.136   9.044  0.8700  0.0184 -0.8037
  506MOL0     C68218  -2.169   7.027   9.137 -0.0837  0.5732 -0.1978
  506MOL0     C68219  -2.255   7.011   9.253 -0.3237  0.5028  0.0539
  506MOL0    Cl68220  -2.418   6.968   9.211  0.1443 -0.2088 -0.0458
  506MOL0     C68221  -2.011   7.765   8.325 -0.5404 -0.5533 -0.9088
  506MOL0     C68222  -1.917   7.839   8.244  0.0072  0.9444 -0.2962
  506MOL0     O68223  -1.566   7.874   8.318 -0.0489  0.2644  0.3875
  506MOL0     C68224  -1.495   7.953   7.975  0.8360 -0.3490 -0.3345
  506MOL0     C68225  -1.411   8.026   7.897  0.2106  0.0230  0.0313
  506MOL0     N68226  -0.734   8.602   7.692 -0.5301 -0.6436 -0.4331
  506MOL0     N68227  -0.620   8.653   7.665 -0.0664  1.0335  0.1632
  506MOL0     C68228   0.510   8.645   7.146  0.6174  0.1039  0.4218
  506MOL0     C68229   0.649   8.650   7.153 -0.3615  0.3707  0.2413
  506MOL0     C68230   1.109   8.668   7.036  1.2324  0.2649  0.0199
  506MOL0     C68231   1.151   8.766   7.131 -0.0332 -0.3646  0.4585
  506MOL0     C68232   1.286   8.806   7.139 -0.1553 -0.3717  0.3283
  506MOL0     C68233   1.383   8.741   7.062  0.7207 -0.6732 -0.1976
  506MOL0     O68234   1.520   8.763   7.078 -0.1453 -1.1569  0.1138
  506MOL0     C68235   1.572   8.899   7.073 -0.0340 -0.0455  0.0802
  506MOL0     C68236   1.577   8.973   7.211 -0.8367  0.5865 -0.4783
  506MOL0     C68237   1.612   8.889   7.338 -0.0267  0.3014  0.8396
  506MOL0     C68238   1.633   8.972   7.467  0.4832  0.8460 -0.2920
  506MOL0     C68239   1.752   9.071   7.457  0.5032 -0.1064  0.3510
  506MOL0     C68240   1.848   9.142   7.452  0.7654 -0.0730 -0.2182
  506MOL0     C68241   1.344   8.636   6.970 -0.3119 -0.1694  0.0028
  506MOL0     C68242   1.209   8.601   6.963  0.1072 -0.2534 -0.4253
  506MOL0     H68243   0.735   8.776   6.857  0.8920 -2.2688 -1.0832
  506MOL0     H68244   0.488   8.742   6.818  0.1542 -1.4706 -0.2494
  506MOL0     H68245   0.254   8.537   7.123  2.1689  0.9417  0.8912
  506MOL0     H68246   0.248   8.717   7.180  2.4746  1.4700 -2.6542
  506MOL0     H68247   0.085   8.745   6.984 -1.2321 -0.1803 -1.9799
  506MOL0     H68248   0.069   8.566   6.998  2.9695 -0.7826  0.4092
  506MOL0     H68249   0.006   8.777   7.215  0.7375  0.7948 -1.1200
  506MOL0     H68250  -0.114   8.704   7.115  0.0860  0.0398 -0.4031
  506MOL0     H68251  -0.047   8.470   7.206 -0.7820  0.2686  0.8665
  506MOL0     H68252   0.056   8.542   7.320  1.4475 -0.2347 -1.7431
  506MOL0     H68253  -0.170   8.494   7.420 -1.2160  0.1638 -0.0016
  506MOL0     H68254  -0.151   8.668   7.416 -1.5890 -1.8420  1.9878
  506MOL0     H68255  -0.317   8.676   7.236 -1.1319 -0.4792  0.0251
  506MOL0     H68256  -0.296   8.505   7.198 -1.6936 -0.6475  0.7746
  506MOL0     H68257  -0.516   8.599   7.318  0.3701 -0.5463 -2.4873
  506MOL0     H68258  -0.434   8.441   7.357  0.2969 -0.2783 -0.9500
  506MOL0     H68259  -0.428   8.714   7.512  0.4133  0.0086  1.9963
  506MOL0     H68260  -0.350   8.557   7.564  0.2224 -0.6774 -0.6661
  506MOL0     H68261  -0.617   8.361   7.503  0.2732 -0.8168  2.3002
  506MOL0     H68262  -0.938   8.457   7.600  0.4154  0.1208  0.0487
  506MOL0     H68263  -0.852   8.299   7.590  1.4500 -0.5839  1.5205
  506MOL0     H68264  -0.923   8.447   7.845 -1.1232 -1.8161  1.8936
  506MOL0     H68265  -0.868   8.274   7.835 -0.2927  0.0277  0.8474
  506MOL0     H68266  -1.067   8.235   7.690  2.4764  1.1353 -0.3752
  506MOL0     H68267  -1.123   8.394   7.749 -0.7303 -0.9623 -3.6115
  506MOL0     H68268  -1.078   8.286   7.987  2.3867 -4.6986  2.4266
  506MOL0     H68269  -1.028   8.145   7.902  0.0305 -0.7683 -1.9220
  506MOL0     H68270  -1.197   8.130   8.127 -1.1386  1.4586 -0.8478
  506MOL0     H68271  -1.421   8.047   8.380 -0.9533 -0.7926 -0.6580
  506MOL0     H68272  -1.293   7.935   8.368  4.1124  2.3352  0.3268
  506MOL0     H68273  -1.261   8.100   8.339 -0.5385 -0.2011  2.1324
  506MOL0     H68274  -1.683   7.603   8.195 -1.0281 -1.8333 -2.5737
  506MOL0     H68275  -1.869   7.457   8.324 -1.7651  0.6619 -1.1998
  506MOL0     H68276  -2.011   7.377   8.483 -1.6627 -0.4345  0.3267
  506MOL0     H68277  -1.930   7.498   8.592  1.4286  1.8805 -2.6111
  506MOL0     H68278  -2.141   7.532   8.716 -0.0117  0.5803 -0.7186
  506MOL0     H68279  -2.214   7.412   8.627  0.9798  1.6972 -2.4697
  506MOL0     H68280  -1.967   7.400   8.799  0.3352 -0.4012  0.8471
  506MOL0     H68281  -2.019   7.257   8.707 -2.2523  0.3404 -0.6138
  506MOL0     H68282  -2.168   7.386   8.923  3.4414  1.2559 -2.2203
  506MOL0     H68283  -2.253   7.288   8.810 -1.6923  1.4374  2.9123
  506MOL0     H68284  -2.014   7.197   8.981  0.3226  0.8879  0.6644
  506MOL0     H68285  -2.090   7.101   8.860  1.5693  0.1405  0.3907
  506MOL0     H68286  -2.253   7.223   9.096  0.2350  1.0582 -2.8859
  506MOL0     H68287  -2.295   7.092   8.985 -0.8686 -1.1797  2.2370
  506MOL0     H68288  -2.069   7.055   9.172  0.4413 -2.1483  0.7079
  506MOL0     H68289  -2.157   6.935   9.078  0.3616 -2.1774  3.7568
  506MOL0     H68290  -2.259   7.107   9.305 -2.1000  0.7651 -0.5039
  506MOL0     H68291  -2.215   6.927   9.310  0.2164 -1.4850 -3.0249
  506MOL0     H68292  -2.098   7.811   8.370 -1.1640 -1.4699 -1.1487
  506MOL0     H68293  -1.937   7.944   8.226  1.8517  1.5008  0.6492
  506MOL0     H68294  -1.587   7.912   7.935 -1.1008  2.0294  1.3898
  506MOL0     H68295  -1.447   8.029   7.794  1.7080 -0.7786 -0.5464
  506MOL0     H68296   0.449   8.612   7.230 -3.4528  2.1455 -1.4275
  506MOL0     H68297   0.707   8.622   7.240  0.3440 -0.6881 -0.5581
  506MOL0     H68298   1.076   8.806   7.199  0.3800 -0.0747  0.7434
  506MOL0     H68299   1.321   8.888   7.200  4.4080 -1.6723 -0.1775
  506MOL0     H68300   1.673   8.892   7.033 -0.1680  0.5330 -0.3742
  506MOL0     H68301   1.521   8.965   7.002  0.3084  0.0460 -0.0800
  506MOL0     H68302   1.485   9.031   7.217  0.1395  2.8090 -4.2437
  506MOL0     H68303   1.655   9.049   7.203 -1.4829  1.1751 -1.3175
  506MOL0     H68304   1.701   8.826   7.327 -1.8794 -2.2320 -0.7123
  506MOL0     H68305   1.530   8.819   7.356  0.1063  0.1033  0.6851
  506MOL0     H68306   1.631   8.894   7.544 -2.3971  0.9883 -0.1192
  506MOL0     H68307   1.544   9.033   7.483  0.4045  0.8547 -0.7524
  506MOL0     H68308   1.939   9.197   7.442 -1.0856  2.9028 -2.0872
  506MOL0     H68309   1.420   8.587   6.910  0.3490 -1.2802  1.6701
  506MOL0     H68310   1.194   8.516   6.898  0.2517 -0.1616 -0.5825
  507MOL0     O68311   1.146   1.391   5.731 -0.7218  0.2922  0.3361
  507MOL0     C68312   1.210   1.441   5.634 -0.6374 -0.4852 -0.1141
  507MOL0     O68313   1.158   1.466   5.512  0.2011  0.0372  0.2684
  507MOL0     C68314   1.020   1.451   5.502  0.0707 -0.3963  0.9560
  507MOL0     C68315   0.932   1.564   5.484 -0.2231  1.0913 -0.5312
  507MOL0     C68316   0.796   1.557   5.478 -0.0805  0.5928 -0.9920
  507MOL0     C68317   0.728   1.435   5.479 -0.4111 -0.7060  0.3823
  507MOL0     O68318   0.590   1.438   5.473 -0.1189 -0.4540 -0.2962
  507MOL0     C68319   0.517   1.318   5.494 -0.3338 -0.0326 -0.3621
  507MOL0     C68320   0.499   1.293   5.648 -0.5915 -1.0270 -0.0513
  507MOL0     C68321   0.350   1.273   5.663  0.2629 -0.3916  0.7880
  507MOL0     C68322   0.319   1.255   5.813 -0.5319 -0.2676  0.1700
  507MOL0     C68323   0.171   1.260   5.857 -0.8015 -0.3863  0.5379
  507MOL0     C68324   0.156   1.221   6.008  0.3914 -0.4374 -0.6009
  507MOL0     C68325   0.011   1.211   6.060 -0.7410  0.5462  0.0637
  507MOL0     C68326  -0.073   1.338   6.039  0.1761  1.0307 -0.7777
  507MOL0     N68327  -0.216   1.301   6.064 -0.0752 -0.0984 -0.0494
  507MOL0     C68328  -0.291   1.322   6.182  0.4231  0.8687  0.1326
  507MOL0     C68329  -0.421   1.295   6.149  0.5573  0.4788 -0.1907
  507MOL0     C68330  -0.533   1.290   6.243 -0.5662  0.6745 -0.1971
  507MOL0     C68331  -0.543   1.157   6.310 -0.3411 -0.2311 -0.2283
  507MOL0     C68332  -0.660   1.144   6.412  0.0647 -0.3776 -0.4888
  507MOL0     C68333  -0.802   1.148   6.355  0.0508 -0.5694 -0.5346
  507MOL0     O68334  -0.823   1.013   6.310  0.4205 -0.5830  0.4714
  507MOL0     C68335  -0.939   1.001   6.237 -0.3782  0.2868  0.6123
  507MOL0     C68336  -0.945   0.897   6.153 -0.3093  0.7442 -0.0387
  507MOL0     C68337  -1.052   0.867   6.072 -0.9243  0.9521  0.1583
  507MOL0     C68338  -1.040   0.756   5.970  0.1353 -0.5116 -0.7271
  507MOL0     C68339  -1.166   0.942   6.090  0.4168  0.3733  0.4996
  507MOL0     C68340  -1.286   0.938   6.001  0.9941 -0.0077 -0.2843
  507MOL0     O68341  -1.270   0.934   5.866  0.2975 -0.2678  0.1006
  507MOL0     C68342  -1.381   0.922   5.793 -0.0226  0.3163 -0.1310
  507MOL0     C68343  -1.401   0.796   5.733  0.0423 -0.1609  0.2883
  507MOL0     C68344  -1.527   0.772   5.677 -0.2837 -0.0109 -0.9573
  507MOL0     C68345  -1.629   0.864   5.669  1.0516 -0.3971 -0.2978
  507MOL0     O68346  -1.746   0.829   5.615  0.0124  0.6665  0.5218
  507MOL0     C68347  -1.868   0.908   5.613  0.5031  0.3369 -0.5631
  507MOL0     C68348  -1.991   0.844   5.542  0.1988 -0.4760  0.6983
  507MOL0     C68349  -2.118   0.927   5.566 -0.0722  0.8831 -0.5998
  507MOL0     C68350  -2.110   1.075   5.518 -0.0890 -0.6623 -0.0830
  507MOL0     C68351  -2.248   1.136   5.495  0.4871  0.2950  0.3429
  507MOL0     C68352  -2.324   1.085   5.364  0.7169  0.3564  0.0145
  507MOL0     C68353  -2.478   1.107   5.381  0.1833 -0.6506 -0.2085
  507MOL0     C68354  -2.562   1.085   5.256  0.4916  0.0344 -0.5881
  507MOL0    Cl68355  -2.575   0.901   5.222 -0.0316 -0.5124 -0.0160
  507MOL0     C68356  -1.604   0.984   5.736  0.0498 -0.2021 -0.0682
  507MOL0     C68357  -1.482   1.013   5.796 -0.0434 -0.4734 -0.2527
  507MOL0     O68358  -1.396   0.926   6.064 -0.1518 -0.5731 -0.7574
  507MOL0     C68359  -1.167   1.050   6.182 -0.3113  0.7781  0.4303
  507MOL0     C68360  -1.052   1.081   6.256 -0.0812 -0.8892 -0.9261
  507MOL0     N68361  -0.422   1.257   6.016  0.0057 -0.1351  0.2260
  507MOL0     N68362  -0.299   1.260   5.963 -0.7488 -0.2975 -0.1954
  507MOL0     C68363   0.805   1.318   5.489 -0.1489  0.0908 -0.1928
  507MOL0     C68364   0.957   1.325   5.505  0.7207 -0.4512  0.0574
  507MOL0     C68365   1.352   1.468   5.642 -0.7836 -0.0172 -0.1613
  507MOL0     C68366   1.416   1.546   5.546 -1.0084  0.1836  0.3095
  507MOL0     C68367   1.554   1.576   5.554  0.4702  0.3934  0.2838
  507MOL0     C68368   1.629   1.507   5.641 -0.6129  0.5270 -0.3633
  507MOL0     O68369   1.759   1.518   5.646  0.3975  0.1753 -1.1147
  507MOL0     C68370   1.823   1.554   5.517  0.3384 -0.9351 -0.3226
  507MOL0     C68371   1.976   1.524   5.538  0.0692  0.0084 -0.6174
  507MOL0     C68372   1.998   1.367   5.564 -0.2181  0.0447 -0.4301
  507MOL0     C68373   2.136   1.342   5.635  0.4388 -0.3634  0.2235
  507MOL0     C68374   2.170   1.204   5.618 -0.0984  0.2707  0.3382
  507MOL0     C68375   2.203   1.085   5.615 -0.3423  0.3752  0.7260
  507MOL0     C68376   1.570   1.435   5.738 -0.9199 -0.3397 -1.1342
  507MOL0     C68377   1.430   1.405   5.737 -0.1083  0.3811 -0.8990
  507MOL0     H68378   0.988   1.657   5.479 -3.0757  3.0267  0.7566
  507MOL0     H68379   0.755   1.653   5.450 -1.6345  0.3744  0.4120
  507MOL0     H68380   0.423   1.328   5.439 -0.3046  1.1843 -0.2354
  507MOL0     H68381   0.566   1.241   5.434 -1.7097  1.2299 -3.3244
  507MOL0     H68382   0.561   1.211   5.686 -0.9766 -1.8254 -1.0708
  507MOL0     H68383   0.517   1.381   5.710 -1.8531 -0.7852 -0.0145
  507MOL0     H68384   0.307   1.361   5.615  1.4384  0.1949  0.7682
  507MOL0     H68385   0.326   1.178   5.614 -1.4997 -0.3785  1.5782
  507MOL0     H68386   0.370   1.171   5.861  0.7774  1.7729  2.5912
  507MOL0     H68387   0.357   1.345   5.862 -2.8136  0.8769 -0.0503
  507MOL0     H68388   0.129   1.359   5.836 -3.3740 -1.4457  0.3785
  507MOL0     H68389   0.109   1.196   5.794 -3.0378  0.9012  1.3361
  507MOL0     H68390   0.201   1.123   6.027 -1.5763 -1.1167  0.8398
  507MOL0     H68391   0.214   1.288   6.073  0.1818 -3.4475  2.9699
  507MOL0     H68392  -0.039   1.126   6.013  1.4594 -0.4641 -0.5719
  507MOL0     H68393   0.016   1.186   6.167  2.7575  0.2194 -0.0651
  507MOL0     H68394  -0.057   1.375   5.937  3.1393 -1.5300 -1.4188
  507MOL0     H68395  -0.050   1.416   6.111  1.5031 -0.0406  0.0051
  507MOL0     H68396  -0.253   1.355   6.278 -0.8569  3.8566 -0.2841
  507MOL0     H68397  -0.514   1.372   6.313 -1.5117 -0.8847  2.0166
  507MOL0     H68398  -0.627   1.315   6.194 -1.1384  0.6015  0.8441
  507MOL0     H68399  -0.451   1.148   6.368 -0.5985 -2.6123 -0.1035
  507MOL0     H68400  -0.541   1.077   6.235  3.9034 -2.0481  1.4924
  507MOL0     H68401  -0.642   1.238   6.465  1.6474 -0.8694 -0.1056
  507MOL0     H68402  -0.644   1.068   6.489  0.1434  0.8359  0.7373
  507MOL0     H68403  -0.825   1.225   6.281 -0.5114 -1.7985 -1.6852
  507MOL0     H68404  -0.873   1.176   6.433  0.7536 -0.1827 -0.0196
  507MOL0     H68405  -0.846   0.854   6.139  0.2521  2.2411 -0.8138
  507MOL0     H68406  -0.991   0.670   6.016  1.7568  1.2166  0.9429
  507MOL0     H68407  -1.135   0.729   5.923  1.8080 -0.8622 -4.2574
  507MOL0     H68408  -0.986   0.786   5.879  1.8746 -0.3681  0.3115
  507MOL0     H68409  -1.334   0.711   5.745 -1.6427 -1.7965 -1.1739
  507MOL0     H68410  -1.541   0.680   5.622  1.0100  0.0773 -1.4671
  507MOL0     H68411  -1.898   0.929   5.716  1.1111  2.1635 -0.7303
  507MOL0     H68412  -1.849   1.004   5.565  2.7202 -0.7067 -1.9579
  507MOL0     H68413  -1.971   0.849   5.435 -3.1509  2.0964  0.0665
  507MOL0     H68414  -1.999   0.737   5.567  2.6860 -1.2209 -1.1810
  507MOL0     H68415  -2.145   0.918   5.671  2.5958  0.2779  0.1005
  507MOL0     H68416  -2.208   0.886   5.520 -1.0282 -0.5431  2.2923
  507MOL0     H68417  -2.069   1.140   5.596 -2.2493  2.4902 -1.3738
  507MOL0     H68418  -2.050   1.076   5.427  0.4094 -3.2263  0.1406
  507MOL0     H68419  -2.236   1.241   5.467  2.4862 -0.7458 -3.4809
  507MOL0     H68420  -2.307   1.127   5.587 -1.8905 -0.3339 -1.1559
  507MOL0     H68421  -2.283   1.139   5.278  3.2976 -2.7775 -0.8944
  507MOL0     H68422  -2.300   0.979   5.350 -2.6108 -0.8891  2.3955
  507MOL0     H68423  -2.505   1.208   5.415  2.9191  0.4185 -0.9095
  507MOL0     H68424  -2.509   1.038   5.460  2.5632 -3.0330 -1.1936
  507MOL0     H68425  -2.515   1.133   5.169  1.8123 -1.1759 -0.5835
  507MOL0     H68426  -2.665   1.122   5.264  0.8231  0.9250 -0.3327
  507MOL0     H68427  -1.678   1.063   5.737 -0.7685 -0.7940 -2.8347
  507MOL0     H68428  -1.482   1.112   5.840  0.0169 -0.9911  0.9547
  507MOL0     H68429  -1.259   1.103   6.200 -0.8433 -0.1147  0.4068
  507MOL0     H68430  -1.075   1.157   6.330  0.2170 -1.1922 -0.5166
  507MOL0     H68431   0.761   1.219   5.487  3.3269 -1.6067  0.8389
  507MOL0     H68432   1.010   1.231   5.518  2.2502  0.2796 -0.6822
  507MOL0     H68433   1.360   1.597   5.468  0.5804  3.8814  1.4163
  507MOL0     H68434   1.595   1.640   5.476  1.0710  0.2027  0.4374
  507MOL0     H68435   1.787   1.493   5.435  0.7572  1.1283 -2.1358
  507MOL0     H68436   1.806   1.661   5.501  1.6588 -0.7595 -0.7164
  507MOL0     H68437   2.000   1.585   5.625 -0.9136 -0.9037  0.3235
  507MOL0     H68438   2.031   1.558   5.450  0.8497 -1.5196 -0.7521
  507MOL0     H68439   2.003   1.313   5.468  0.7285 -0.5353 -0.0782
  507MOL0     H68440   1.915   1.318   5.615  0.3699 -0.8484 -0.2950
  507MOL0     H68441   2.119   1.367   5.740 -1.2796 -1.7403  0.3317
  507MOL0     H68442   2.209   1.403   5.582  1.1675 -2.2027 -1.0190
  507MOL0     H68443   2.231   0.982   5.606  2.7448  0.9652  2.2881
  507MOL0     H68444   1.634   1.379   5.807 -2.9171 -1.3589 -0.0224
  507MOL0     H68445   1.396   1.328   5.805  1.1088  0.9963  0.4576
  508MOL0     O68446   2.153   2.381   6.269  0.0495 -0.0177  0.1134
  508MOL0     C68447   2.132   2.343   6.151 -0.9883 -0.2680 -0.2008
  508MOL0     O68448   2.078   2.225   6.118 -0.2251 -0.0661 -0.8212
  508MOL0     C68449   1.989   2.157   6.202 -0.2092  0.4656 -0.5215
  508MOL0     C68450   1.865   2.126   6.149 -0.4508 -0.3196  0.2683
  508MOL0     C68451   1.787   2.049   6.229 -0.1572 -0.3051 -0.0445
  508MOL0     C68452   1.826   2.007   6.357 -0.1268  0.2724 -0.2883
  508MOL0     O68453   1.741   1.924   6.420 -0.7522  0.5491  0.2133
  508MOL0     C68454   1.757   1.889   6.558 -0.1433  0.0686 -0.0023
  508MOL0     C68455   1.647   1.784   6.601 -0.6744 -0.7101  0.2415
  508MOL0     C68456   1.505   1.846   6.622  0.1979  0.6827 -0.2432
  508MOL0     C68457   1.393   1.740   6.642 -0.2412 -0.3285 -0.2324
  508MOL0     C68458   1.263   1.805   6.614  0.1738 -0.1220 -0.3513
  508MOL0     C68459   1.233   1.926   6.694  0.0767 -0.0130  0.3445
  508MOL0     C68460   1.091   2.001   6.673  0.3376 -0.7550  0.2570
  508MOL0     C68461   0.976   1.907   6.642  0.2536 -0.6082 -0.4982
  508MOL0     N68462   0.853   1.982   6.613 -0.1674 -0.6128  0.0702
  508MOL0     C68463   0.753   2.042   6.691 -0.7584 -0.1375 -1.4386
  508MOL0     C68464   0.684   2.128   6.612 -0.2554  0.4006 -0.8630
  508MOL0     C68465   0.569   2.210   6.661 -0.9308  0.4660  0.9971
  508MOL0     C68466   0.440   2.132   6.635  0.5971  1.1195  0.0619
  508MOL0     C68467   0.411   2.097   6.488 -0.4742  0.2683  0.3388
  508MOL0     C68468   0.302   1.988   6.460  0.0008  0.5820 -0.6459
  508MOL0     O68469   0.188   2.028   6.542  0.3835 -0.2518 -0.5432
  508MOL0     C68470   0.083   1.939   6.552  0.2184 -0.2639  0.4097
  508MOL0     C68471  -0.007   1.955   6.656  0.9683  0.4158  0.0478
  508MOL0     C68472  -0.133   1.886   6.657  0.7708 -0.2971 -0.6830
  508MOL0     C68473  -0.222   1.931   6.768  0.3662  0.7347 -0.0316
  508MOL0     C68474  -0.161   1.798   6.556  0.0409 -0.4507 -0.7067
  508MOL0     C68475  -0.280   1.708   6.561  0.7359 -0.0809 -0.3989
  508MOL0     O68476  -0.393   1.743   6.631  0.4690  0.3452  0.3080
  508MOL0     C68477  -0.505   1.659   6.610  0.3607 -1.0062 -0.0950
  508MOL0     C68478  -0.563   1.637   6.483  0.9819  1.0146 -0.2510
  508MOL0     C68479  -0.676   1.555   6.469 -0.2299 -0.4801  0.1331
  508MOL0     C68480  -0.748   1.514   6.582  0.6785  0.7475  0.3191
  508MOL0     O68481  -0.865   1.433   6.566  0.4042 -0.1756  0.2001
  508MOL0     C68482  -0.942   1.413   6.686  0.1412 -0.5580 -1.0286
  508MOL0     C68483  -1.079   1.347   6.666  0.3239 -0.4100  0.6022
  508MOL0     C68484  -1.158   1.438   6.570  0.1244  0.2710 -0.3746
  508MOL0     C68485  -1.174   1.385   6.432 -0.2125 -0.2804 -0.5420
  508MOL0     C68486  -1.273   1.472   6.346 -0.2021 -0.0416 -1.1353
  508MOL0     C68487  -1.302   1.396   6.221  0.4891  0.7146  0.2386
  508MOL0     C68488  -1.372   1.483   6.115  0.4155  0.6789  0.0848
  508MOL0     C68489  -1.396   1.399   5.982  0.5206  0.7584  0.2529
  508MOL0    Cl68490  -1.254   1.307   5.936  0.0559  0.2918  0.4228
  508MOL0     C68491  -0.699   1.546   6.713 -0.4757 -0.1750  0.2946
  508MOL0     C68492  -0.573   1.613   6.725  0.3199  0.7088  0.1198
  508MOL0     O68493  -0.263   1.596   6.507 -0.1634  0.1626 -0.5673
  508MOL0     C68494  -0.059   1.768   6.463 -0.0184  0.3943  0.1673
  508MOL0     C68495   0.058   1.838   6.460 -0.8594 -0.0720 -1.1413
  508MOL0     N68496   0.750   2.127   6.493  0.0294  0.6728  1.0815
  508MOL0     N68497   0.839   2.034   6.489  0.2766 -0.0459  0.1039
  508MOL0     C68498   1.953   2.045   6.415 -0.4746  0.1441 -0.0197
  508MOL0     C68499   2.033   2.122   6.332  0.4036  0.5471 -0.1795
  508MOL0     C68500   2.187   2.421   6.039  0.3576 -0.5665  1.0589
  508MOL0     C68501   2.236   2.553   6.057  0.5697 -0.2042 -0.2554
  508MOL0     C68502   2.293   2.618   5.949  0.8130 -0.4548 -0.6554
  508MOL0     C68503   2.300   2.551   5.825  0.0789 -0.5173  0.4141
  508MOL0     O68504   2.359   2.615   5.720  0.7067 -0.1308  0.0250
  508MOL0     C68505   2.496   2.637   5.748 -0.9320  0.2555  0.2468
  508MOL0     C68506   2.569   2.649   5.613 -0.1941  0.2165  0.9103
  508MOL0     C68507   2.543   2.547   5.513 -0.2536 -0.5596 -0.0158
  508MOL0     C68508   2.446   2.572   5.405 -0.2708  0.0495 -0.3239
  508MOL0     C68509   2.463   2.460   5.311 -0.6461 -0.1711 -0.7378
  508MOL0     C68510   2.480   2.359   5.240  0.2099 -0.1508 -0.4185
  508MOL0     C68511   2.243   2.428   5.801  0.3627  0.5209 -0.4652
  508MOL0     C68512   2.198   2.358   5.913  0.1044 -0.8523 -0.0268
  508MOL0     H68513   1.844   2.165   6.050 -4.1002 -0.9206  0.6437
  508MOL0     H68514   1.686   2.032   6.195  0.2172 -3.9932  0.2763
  508MOL0     H68515   1.857   1.845   6.565 -0.6996 -1.6482 -1.8276
  508MOL0     H68516   1.754   1.979   6.620 -0.5814  0.8070 -1.0642
  508MOL0     H68517   1.636   1.704   6.528 -4.2767 -2.6853  2.6446
  508MOL0     H68518   1.683   1.735   6.692 -0.3012  1.1034  1.1199
  508MOL0     H68519   1.508   1.902   6.715 -1.0187 -1.5595  1.2534
  508MOL0     H68520   1.485   1.920   6.544  2.0936  2.8745  1.2586
  508MOL0     H68521   1.408   1.661   6.568 -0.3309  0.7478 -1.4402
  508MOL0     H68522   1.396   1.695   6.742  0.7615  0.5824  0.1776
  508MOL0     H68523   1.264   1.826   6.507  0.1524  0.8810 -0.1718
  508MOL0     H68524   1.178   1.737   6.625 -1.7854  2.3905  1.2241
  508MOL0     H68525   1.233   1.893   6.798 -2.1416 -0.7958  0.1442
  508MOL0     H68526   1.313   2.001   6.684 -1.6586  1.9845  0.7915
  508MOL0     H68527   1.052   2.066   6.751 -2.9006 -2.0346 -0.0974
  508MOL0     H68528   1.114   2.076   6.596 -0.9314 -2.4752 -1.9444
  508MOL0     H68529   0.955   1.844   6.730 -2.3321 -0.3399 -0.8410
  508MOL0     H68530   0.993   1.848   6.552 -0.2384  0.7078 -1.4678
  508MOL0     H68531   0.742   2.035   6.799  0.4333  2.1050 -1.1022
  508MOL0     H68532   0.576   2.236   6.767  1.8381  0.2914  0.9315
  508MOL0     H68533   0.561   2.303   6.605  0.5581  0.2401  0.3557
  508MOL0     H68534   0.354   2.172   6.691 -0.4773 -0.3009 -0.5135
  508MOL0     H68535   0.442   2.031   6.677 -0.5085  0.5838 -1.1149
  508MOL0     H68536   0.498   2.050   6.439 -1.1799 -1.7636  0.9310
  508MOL0     H68537   0.381   2.191   6.441  0.8838  0.0913 -0.9774
  508MOL0     H68538   0.341   1.890   6.487  0.3716  0.7822 -0.4372
  508MOL0     H68539   0.286   1.992   6.352  3.7433 -0.8054 -1.4048
  508MOL0     H68540   0.022   2.032   6.728  1.1437 -0.1264  0.5665
  508MOL0     H68541  -0.312   1.981   6.730  1.1744  2.5407  0.2896
  508MOL0     H68542  -0.256   1.850   6.833 -0.7162 -0.6507 -2.1985
  508MOL0     H68543  -0.169   1.993   6.842  2.0521  0.8317 -1.2579
  508MOL0     H68544  -0.519   1.680   6.393  0.9980  0.5802 -0.4555
  508MOL0     H68545  -0.720   1.532   6.373 -0.2805  1.1515 -0.2718
  508MOL0     H68546  -0.883   1.351   6.754  1.4411  1.1803 -0.5000
  508MOL0     H68547  -0.960   1.507   6.739  0.5827 -0.9956 -0.0689
  508MOL0     H68548  -1.067   1.245   6.627 -2.4590  0.0785 -1.8107
  508MOL0     H68549  -1.140   1.334   6.756 -2.1541  0.7582 -0.8328
  508MOL0     H68550  -1.114   1.538   6.575  1.4331 -0.3200  0.3562
  508MOL0     H68551  -1.251   1.461   6.623  0.4643  6.0818 -1.6742
  508MOL0     H68552  -1.072   1.386   6.392 -0.3732 -0.2782 -0.9540
  508MOL0     H68553  -1.221   1.286   6.440  0.1853 -0.4534 -0.3502
  508MOL0     H68554  -1.234   1.571   6.323 -3.1310  1.8869  1.5226
  508MOL0     H68555  -1.366   1.479   6.404  0.0177  1.6210 -0.9553
  508MOL0     H68556  -1.205   1.361   6.184  0.1233 -0.9184  0.7251
  508MOL0     H68557  -1.362   1.308   6.249  3.0753 -0.3839  2.7766
  508MOL0     H68558  -1.313   1.574   6.102  0.7827  0.8391  2.4183
  508MOL0     H68559  -1.460   1.521   6.167  1.3898  0.2639  2.1597
  508MOL0     H68560  -1.420   1.458   5.894  3.1095  0.7342 -0.5536
  508MOL0     H68561  -1.479   1.332   6.008  1.0426  0.4709  1.2311
  508MOL0     H68562  -0.747   1.513   6.804 -3.4982 -1.0781 -1.4996
  508MOL0     H68563  -0.530   1.629   6.823  1.1690 -3.5257  0.6212
  508MOL0     H68564  -0.081   1.683   6.400  0.2418 -1.2993  2.2483
  508MOL0     H68565   0.129   1.822   6.380  1.3217  2.4503  0.1066
  508MOL0     H68566   1.989   2.012   6.511 -0.4690 -1.1651 -0.4479
  508MOL0     H68567   2.136   2.137   6.362  0.2993 -0.6137  0.8550
  508MOL0     H68568   2.231   2.599   6.155  1.1685 -0.4762 -0.0936
  508MOL0     H68569   2.339   2.715   5.961 -2.0370  1.2484 -2.2034
  508MOL0     H68570   2.512   2.728   5.806  1.2929 -0.4339  0.8165
  508MOL0     H68571   2.534   2.563   5.818  1.0128  1.9105  1.0280
  508MOL0     H68572   2.676   2.654   5.639 -0.4570 -0.9363  2.3031
  508MOL0     H68573   2.553   2.743   5.559 -0.9590  0.9752  2.3800
  508MOL0     H68574   2.512   2.459   5.571 -1.1555 -1.5396 -1.8802
  508MOL0     H68575   2.644   2.527   5.476  1.3182  0.8512  3.1579
  508MOL0     H68576   2.474   2.660   5.347  2.0199 -0.2847  0.1872
  508MOL0     H68577   2.349   2.593   5.451  0.4949  0.4540  1.1632
  508MOL0     H68578   2.484   2.285   5.162  1.8103  2.3198 -2.8928
  508MOL0     H68579   2.233   2.382   5.703 -1.9988  0.9784 -0.5076
  508MOL0     H68580   2.159   2.258   5.894  2.8953 -1.5503 -3.0652
  509MOL0     O68581   2.403   4.779   1.166 -0.2844 -0.5130 -0.1449
  509MOL0     C68582   2.395   4.682   1.233  0.5657 -0.2372 -0.0114
  509MOL0     O68583   2.285   4.649   1.308 -0.2556 -0.4098 -0.3369
  509MOL0     C68584   2.171   4.721   1.300 -0.1859  0.3101 -0.1826
  509MOL0     C68585   2.064   4.686   1.214  0.7767  0.2005  0.9928
  509MOL0     C68586   1.945   4.762   1.225  0.2949  0.3346  0.7931
  509MOL0     C68587   1.924   4.870   1.310  0.4616 -0.1329  0.4900
  509MOL0     O68588   1.801   4.940   1.313 -0.4061  0.8365  0.0480
  509MOL0     C68589   1.774   5.042   1.411 -1.0062  0.5349  0.0248
  509MOL0     C68590   1.631   5.086   1.391 -0.0224  0.6068 -0.3644
  509MOL0     C68591   1.559   5.112   1.527 -0.2254 -0.0788  0.0213
  509MOL0     C68592   1.420   5.164   1.492 -0.4187  0.3128  0.4262
  509MOL0     C68593   1.347   5.209   1.619  0.3750 -0.5119 -0.5665
  509MOL0     C68594   1.210   5.263   1.581  0.4057  0.4685  0.2101
  509MOL0     C68595   1.119   5.323   1.685 -0.5156 -0.0803  0.8381
  509MOL0     C68596   1.108   5.229   1.809 -0.2777  0.3297 -0.8976
  509MOL0     N68597   0.971   5.252   1.874 -0.2919 -0.1341  0.7928
  509MOL0     C68598   0.860   5.184   1.841  0.0861  0.3242  0.5731
  509MOL0     C68599   0.757   5.264   1.890  0.2654  0.3298 -0.2312
  509MOL0     C68600   0.615   5.226   1.904  0.0124  0.5691 -0.2339
  509MOL0     C68601   0.591   5.073   1.945 -0.8032 -0.4636 -0.2271
  509MOL0     C68602   0.445   5.025   1.928  0.2926  0.3262  0.1174
  509MOL0     C68603   0.431   4.881   1.977 -0.4076  0.3003  0.0307
  509MOL0     O68604   0.301   4.837   1.935  0.4969 -0.2892 -0.0787
  509MOL0     C68605   0.247   4.722   1.985  0.9298 -0.5411 -0.6983
  509MOL0     C68606   0.300   4.636   2.085 -0.6740  0.6727  0.1736
  509MOL0     C68607   0.226   4.523   2.132 -1.3068  0.1426  0.3826
  509MOL0     C68608   0.299   4.439   2.237  0.0998  0.2087 -0.1301
  509MOL0     C68609   0.102   4.482   2.076  0.1615  0.6903  0.0671
  509MOL0     C68610   0.023   4.354   2.103  1.0353 -1.1876 -0.0098
  509MOL0     O68611  -0.100   4.341   2.037 -0.0956  0.5128 -0.0371
  509MOL0     C68612  -0.163   4.220   2.043  0.1747 -0.3214  0.2849
  509MOL0     C68613  -0.131   4.110   1.960 -0.1633 -0.6970  0.4663
  509MOL0     C68614  -0.218   4.003   1.952 -0.0497 -0.3362 -1.0364
  509MOL0     C68615  -0.346   4.000   2.015  0.0577  0.5430  0.1882
  509MOL0     O68616  -0.452   3.905   2.001 -0.5903  0.2465  0.0672
  509MOL0     C68617  -0.456   3.804   1.906 -0.5933  0.8905  0.6119
  509MOL0     C68618  -0.569   3.703   1.942  0.0714 -0.4029  0.1154
  509MOL0     C68619  -0.526   3.636   2.074  0.7183 -0.1150  0.2867
  509MOL0     C68620  -0.438   3.522   2.048  0.0944 -0.9182  0.7080
  509MOL0     C68621  -0.366   3.470   2.169 -0.1337 -0.5311  0.9208
  509MOL0     C68622  -0.221   3.494   2.163 -0.3186  0.9046  0.5043
  509MOL0     C68623  -0.149   3.408   2.053 -0.0817 -0.0345  0.4137
  509MOL0     C68624  -0.007   3.393   2.087 -0.5891 -0.8917  0.2816
  509MOL0    Cl68625   0.071   3.281   1.961 -0.2623 -0.3208  0.2001
  509MOL0     C68626  -0.373   4.117   2.091 -0.3000 -0.7164 -0.7252
  509MOL0     C68627  -0.276   4.213   2.118  0.4003 -0.3228 -0.5040
  509MOL0     O68628   0.069   4.275   2.187  0.3870  0.0939  0.1375
  509MOL0     C68629   0.043   4.580   1.982 -0.3744  0.8769 -0.5558
  509MOL0     C68630   0.120   4.691   1.939  0.9478 -0.2059 -0.6141
  509MOL0     N68631   0.812   5.382   1.928 -0.3001  0.2820 -0.4684
  509MOL0     N68632   0.938   5.380   1.917  0.2101 -0.0985  0.1593
  509MOL0     C68633   2.035   4.904   1.395  0.3763  0.0022 -0.1937
  509MOL0     C68634   2.156   4.830   1.391  0.0333  0.5731 -0.1657
  509MOL0     C68635   2.515   4.610   1.252  0.8938  0.0238 -0.4797
  509MOL0     C68636   2.632   4.639   1.185 -0.0375  0.2197 -0.1935
  509MOL0     C68637   2.753   4.574   1.214 -0.3250  0.2748  0.1699
  509MOL0     C68638   2.763   4.484   1.321 -1.0886  0.4978 -0.5400
  509MOL0     O68639   2.890   4.429   1.352 -0.4201  1.0904  0.3137
  509MOL0     C68640   2.879   4.302   1.420 -0.5252 -0.7937  0.1526
  509MOL0     C68641   3.015   4.237   1.411  0.3476 -0.4609  0.8200
  509MOL0     C68642   2.994   4.094   1.454 -0.8327 -0.4515  1.0504
  509MOL0     C68643   3.119   4.004   1.432  0.1148  0.4157  0.7892
  509MOL0     C68644   3.245   4.071   1.469 -0.0571  0.0168  0.6031
  509MOL0     C68645   3.347   4.126   1.501 -0.3925 -0.4594  0.4024
  509MOL0     C68646   2.651   4.457   1.398  0.4801 -0.4060  0.2864
  509MOL0     C68647   2.524   4.515   1.361 -0.2440 -0.1090  0.6743
  509MOL0     H68648   2.073   4.598   1.150  2.4566  0.8449  0.2772
  509MOL0     H68649   1.865   4.735   1.156 -1.1179  3.8203  0.8722
  509MOL0     H68650   1.777   4.994   1.509 -3.0237  0.1297 -0.0640
  509MOL0     H68651   1.847   5.123   1.422 -0.9626  0.2115  2.7261
  509MOL0     H68652   1.629   5.180   1.335 -0.0494  1.6075  1.2837
  509MOL0     H68653   1.573   5.010   1.338 -1.4000 -0.8182  2.9062
  509MOL0     H68654   1.557   5.018   1.585 -1.9853  0.0618  0.2490
  509MOL0     H68655   1.619   5.190   1.576 -0.6934 -0.9986  2.2188
  509MOL0     H68656   1.442   5.250   1.428  1.3595  1.3367  2.3014
  509MOL0     H68657   1.354   5.093   1.441  0.5485 -2.1918  2.4270
  509MOL0     H68658   1.333   5.121   1.682  2.4478 -0.0782  0.5775
  509MOL0     H68659   1.404   5.278   1.681  0.1810 -0.3429 -0.5742
  509MOL0     H68660   1.230   5.345   1.512 -1.4983  1.0950  0.3327
  509MOL0     H68661   1.152   5.188   1.525  0.5906  0.3321  0.2004
  509MOL0     H68662   1.159   5.418   1.724 -1.2805 -0.0938  1.6688
  509MOL0     H68663   1.019   5.328   1.642 -0.8340 -0.4163  1.5379
  509MOL0     H68664   1.187   5.253   1.881  0.4199 -0.5977 -1.3468
  509MOL0     H68665   1.112   5.120   1.799  1.0281 -0.0588  2.4992
  509MOL0     H68666   0.855   5.097   1.777 -1.1347  2.6516 -2.7994
  509MOL0     H68667   0.565   5.284   1.981 -0.5336 -0.4278  0.1768
  509MOL0     H68668   0.554   5.251   1.816 -0.7547 -1.1930 -0.2523
  509MOL0     H68669   0.609   5.063   2.053 -1.0584 -0.6369 -0.1996
  509MOL0     H68670   0.660   5.018   1.880 -0.4526  2.8542 -2.8669
  509MOL0     H68671   0.427   5.040   1.821 -0.1044 -1.6091 -0.1259
  509MOL0     H68672   0.373   5.089   1.980  0.1470  0.8066 -0.6686
  509MOL0     H68673   0.449   4.869   2.084 -2.8449 -0.2022  0.4527
  509MOL0     H68674   0.510   4.818   1.936  1.1113 -0.0623  3.2280
  509MOL0     H68675   0.391   4.665   2.137 -0.4772  0.5293 -0.0890
  509MOL0     H68676   0.240   4.442   2.329  0.9386 -0.6297  0.4608
  509MOL0     H68677   0.315   4.344   2.186  2.1122  0.1125  0.5649
  509MOL0     H68678   0.403   4.465   2.259  1.0496 -2.2926 -1.2623
  509MOL0     H68679  -0.040   4.111   1.901 -1.2651 -1.6492 -1.3084
  509MOL0     H68680  -0.201   3.902   1.914 -2.4264 -0.9039 -0.7354
  509MOL0     H68681  -0.479   3.847   1.809 -0.8130 -2.0400 -0.7608
  509MOL0     H68682  -0.357   3.761   1.887 -1.0123  0.4776 -0.7619
  509MOL0     H68683  -0.661   3.761   1.946 -0.0187 -0.1385 -3.0004
  509MOL0     H68684  -0.574   3.620   1.871  2.3083 -0.2781 -0.2635
  509MOL0     H68685  -0.615   3.613   2.134 -0.2472 -1.3784 -1.5426
  509MOL0     H68686  -0.460   3.700   2.133  1.1052 -2.1609  2.2048
  509MOL0     H68687  -0.496   3.436   2.014 -0.0438 -1.1440  1.4847
  509MOL0     H68688  -0.364   3.538   1.969 -1.7232 -1.7156 -1.2571
  509MOL0     H68689  -0.380   3.362   2.182  1.9863 -0.8241  1.1383
  509MOL0     H68690  -0.389   3.533   2.255  0.5109  1.1351 -0.0869
  509MOL0     H68691  -0.190   3.598   2.147  0.2020  0.4300 -2.0945
  509MOL0     H68692  -0.176   3.458   2.256 -1.0969 -1.0342  0.1796
  509MOL0     H68693  -0.139   3.465   1.960  2.1382 -0.3531  0.3875
  509MOL0     H68694  -0.198   3.313   2.030  0.5376 -0.2389 -0.1062
  509MOL0     H68695   0.003   3.363   2.192  1.5650  0.1429  0.4182
  509MOL0     H68696   0.045   3.489   2.089  2.2981 -2.3495  1.0827
  509MOL0     H68697  -0.469   4.118   2.142 -0.3467 -1.3744 -0.7908
  509MOL0     H68698  -0.298   4.297   2.184 -1.2201 -0.2006 -1.1492
  509MOL0     H68699  -0.054   4.559   1.937  1.0614  0.7488 -3.8290
  509MOL0     H68700   0.074   4.748   1.858 -1.9723 -2.0751 -0.4327
  509MOL0     H68701   2.033   4.991   1.460  3.1033 -0.8652  1.1599
  509MOL0     H68702   2.243   4.858   1.449 -0.5375  2.5113 -0.1853
  509MOL0     H68703   2.622   4.712   1.104  0.4682 -1.0623 -1.4507
  509MOL0     H68704   2.842   4.590   1.154 -0.6685  0.5541 -0.2640
  509MOL0     H68705   2.838   4.323   1.520 -1.9205  1.2304 -0.7625
  509MOL0     H68706   2.812   4.237   1.362  1.7934  0.0855 -3.9173
  509MOL0     H68707   3.080   4.285   1.484 -0.9729  0.9380  1.1053
  509MOL0     H68708   3.058   4.248   1.310  0.1778  3.8096  1.0374
  509MOL0     H68709   2.912   4.039   1.406  1.5680 -1.2661 -2.4862
  509MOL0     H68710   2.970   4.101   1.561 -0.7833  0.6691  1.0037
  509MOL0     H68711   3.115   3.965   1.329 -1.9716 -0.3210  1.1136
  509MOL0     H68712   3.126   3.912   1.490  1.1365 -0.1428 -0.1641
  509MOL0     H68713   3.436   4.183   1.512 -0.6052 -0.2827  1.3731
  509MOL0     H68714   2.634   4.382   1.475 -4.5080  0.5517  0.4200
  509MOL0     H68715   2.432   4.496   1.414  0.0573 -1.5973  0.7048
  510MOL0     O68716   1.404   2.846   6.242  0.2912 -0.1672 -0.4654
  510MOL0     C68717   1.433   2.952   6.297  0.1594  0.5129  0.8393
  510MOL0     O68718   1.382   2.987   6.425  0.2842  0.7516  0.5639
  510MOL0     C68719   1.314   2.897   6.503 -0.3275 -0.1224  1.0599
  510MOL0     C68720   1.368   2.770   6.532  0.3070 -0.2503 -0.9495
  510MOL0     C68721   1.304   2.684   6.624 -0.1842  0.4940 -0.3588
  510MOL0     C68722   1.176   2.728   6.684 -0.5914  0.0362  0.5320
  510MOL0     O68723   1.095   2.654   6.763 -0.1579  0.7228  0.4329
  510MOL0     C68724   1.101   2.508   6.766 -0.8711 -0.3131  0.0364
  510MOL0     C68725   0.966   2.450   6.812  0.5791 -0.3909  0.2579
  510MOL0     C68726   0.859   2.457   6.700 -0.9167  0.1345 -0.6140
  510MOL0     C68727   0.813   2.591   6.652  0.1660 -0.1003  0.7534
  510MOL0     C68728   0.744   2.672   6.764  0.3993 -0.1476 -0.2980
  510MOL0     C68729   0.690   2.811   6.714 -0.6478  0.7282 -0.0037
  510MOL0     C68730   0.610   2.868   6.831 -0.5731  0.0177  0.3808
  510MOL0     C68731   0.494   2.940   6.784 -0.2547 -0.1607  0.2835
  510MOL0     N68732   0.461   3.035   6.886 -0.5098  0.6943 -0.1258
  510MOL0     C68733   0.418   3.157   6.861  0.2559 -0.5577  0.2523
  510MOL0     C68734   0.356   3.208   6.965  0.1896 -0.4204 -0.1627
  510MOL0     C68735   0.280   3.343   6.971  0.3718  0.7553  1.2103
  510MOL0     C68736   0.128   3.320   6.977 -0.1906  0.0357  0.2702
  510MOL0     C68737   0.053   3.456   6.987 -0.0292  0.3241 -0.2748
  510MOL0     C68738  -0.087   3.428   6.958 -0.9111  1.0782  0.2352
  510MOL0     O68739  -0.170   3.545   6.972 -0.2090 -0.4540  0.3409
  510MOL0     C68740  -0.312   3.536   6.982  0.5738 -0.0849  0.7082
  510MOL0     C68741  -0.383   3.417   6.963  0.6151  0.2166 -0.0847
  510MOL0     C68742  -0.523   3.401   6.989 -0.5811  0.1360 -0.9565
  510MOL0     C68743  -0.582   3.264   6.983 -0.5899  0.0428  0.2741
  510MOL0     C68744  -0.588   3.518   7.035 -0.0244 -0.0952 -0.0004
  510MOL0     C68745  -0.729   3.513   7.068  0.9058 -0.2933  0.7331
  510MOL0     O68746  -0.766   3.626   7.131 -0.2679 -0.2721  0.2690
  510MOL0     C68747  -0.895   3.659   7.140  0.1230 -0.0491  0.6915
  510MOL0     C68748  -0.965   3.724   7.037 -0.5889 -1.2065 -0.6528
  510MOL0     C68749  -1.109   3.735   7.044 -0.1670 -1.5374  0.2360
  510MOL0     C68750  -1.179   3.713   7.160 -0.3883 -0.1808  0.1485
  510MOL0     O68751  -1.313   3.746   7.180 -0.2032 -0.1559  0.3488
  510MOL0     C68752  -1.384   3.810   7.074  1.3182 -0.0141  0.0624
  510MOL0     C68753  -1.528   3.794   7.109  0.3132 -0.8768  0.1135
  510MOL0     C68754  -1.624   3.859   7.002 -0.4354  0.0095 -0.8010
  510MOL0     C68755  -1.773   3.824   7.011  0.6142  0.2994  0.4811
  510MOL0     C68756  -1.852   3.851   6.870  0.7790  0.2940 -0.7420
  510MOL0     C68757  -2.009   3.843   6.873  0.0452 -0.2264  0.0067
  510MOL0     C68758  -2.065   3.869   6.733 -0.1808  0.0571  0.2741
  510MOL0     C68759  -2.212   3.884   6.728 -0.1013  0.4124  0.2861
  510MOL0    Cl68760  -2.273   4.017   6.830  0.0552  0.6004  0.2236
  510MOL0     C68761  -1.112   3.662   7.269  0.7456 -0.6082  0.1143
  510MOL0     C68762  -0.971   3.627   7.259  0.1065 -0.3819  0.0684
  510MOL0     O68763  -0.808   3.419   7.049  0.0193  0.7902  0.5978
  510MOL0     C68764  -0.512   3.634   7.063 -0.2371 -0.0468  0.6695
  510MOL0     C68765  -0.380   3.647   7.030  0.4278  0.2194  0.0524
  510MOL0     N68766   0.379   3.116   7.069 -0.1842  0.3917 -0.1055
  510MOL0     N68767   0.439   3.007   7.019  0.4776  0.0537 -0.6098
  510MOL0     C68768   1.124   2.849   6.649  0.1004 -0.7522  0.4039
  510MOL0     C68769   1.201   2.943   6.570  0.3161 -0.6955 -0.5290
  510MOL0     C68770   1.530   3.043   6.230  0.0530 -0.4461 -0.1773
  510MOL0     C68771   1.563   3.166   6.291  0.4596  0.1144  0.0928
  510MOL0     C68772   1.644   3.254   6.226 -0.1845 -0.9983  0.4540
  510MOL0     C68773   1.697   3.224   6.099 -0.2163 -0.6057  0.2771
  510MOL0     O68774   1.773   3.322   6.037 -0.2226  0.0773  0.0197
  510MOL0     C68775   1.846   3.315   5.912 -0.2013  0.6191  0.5303
  510MOL0     C68776   1.751   3.342   5.790  0.8486 -0.3506 -0.5659
  510MOL0     C68777   1.828   3.375   5.659  0.1430  0.7766 -0.2449
  510MOL0     C68778   1.907   3.262   5.595 -0.9020  0.8198 -0.4321
  510MOL0     C68779   1.827   3.142   5.579  0.3890  0.1086 -0.4750
  510MOL0     C68780   1.737   3.059   5.580 -0.1750  0.5265 -0.2512
  510MOL0     C68781   1.666   3.101   6.041 -0.5913  0.1469  0.5535
  510MOL0     C68782   1.589   3.008   6.104 -0.2595  0.2260 -0.2689
  510MOL0     H68783   1.459   2.732   6.487 -0.5570 -2.0474 -1.2874
  510MOL0     H68784   1.337   2.587   6.660 -3.5834  0.1837  2.4695
  510MOL0     H68785   1.116   2.475   6.663 -0.6272 -0.8900  0.2525
  510MOL0     H68786   1.186   2.476   6.828  0.3959  1.3082 -0.7581
  510MOL0     H68787   0.975   2.344   6.839  2.1290 -0.7464 -1.3925
  510MOL0     H68788   0.929   2.507   6.897 -0.2190  0.1548 -0.4482
  510MOL0     H68789   0.889   2.395   6.615  1.2794  2.4379 -1.6496
  510MOL0     H68790   0.772   2.409   6.745 -1.2342  1.0612 -0.2014
  510MOL0     H68791   0.892   2.650   6.605 -0.0021  0.1622  0.7944
  510MOL0     H68792   0.740   2.573   6.572  2.4249 -1.2405 -1.1858
  510MOL0     H68793   0.671   2.608   6.815 -1.7756 -0.4056 -3.4552
  510MOL0     H68794   0.822   2.704   6.834 -1.1028  0.0369  1.3798
  510MOL0     H68795   0.771   2.881   6.690  0.2643  0.0871  1.1302
  510MOL0     H68796   0.635   2.789   6.622  2.3927  0.0790 -1.8047
  510MOL0     H68797   0.575   2.796   6.905 -1.5695 -2.3260 -2.2101
  510MOL0     H68798   0.668   2.947   6.881 -2.7406  0.9450  1.5821
  510MOL0     H68799   0.406   2.877   6.772 -2.3547  2.4181  1.1360
  510MOL0     H68800   0.504   2.988   6.686 -2.6107 -0.9314 -0.3849
  510MOL0     H68801   0.425   3.201   6.762 -1.0747  2.4568  1.3836
  510MOL0     H68802   0.322   3.391   7.060  0.5868  0.5819  1.2036
  510MOL0     H68803   0.301   3.409   6.886  1.7795  1.6545  2.2008
  510MOL0     H68804   0.114   3.261   7.067  2.3279 -1.2289 -0.0696
  510MOL0     H68805   0.086   3.260   6.896 -1.3579 -0.5016  1.2430
  510MOL0     H68806   0.087   3.524   6.908 -1.9377 -2.3361 -3.6829
  510MOL0     H68807   0.073   3.482   7.091 -0.3893 -1.6199  0.3080
  510MOL0     H68808  -0.115   3.357   7.037 -0.6127  0.6534 -0.0370
  510MOL0     H68809  -0.102   3.373   6.865 -2.1937  1.1201  0.3934
  510MOL0     H68810  -0.322   3.333   6.930  0.5374  1.1975 -3.1181
  510MOL0     H68811  -0.625   3.232   7.078  0.6485  0.1627  0.8971
  510MOL0     H68812  -0.651   3.263   6.898 -0.3744 -2.1334  0.0724
  510MOL0     H68813  -0.501   3.194   6.957  1.3392  3.0000 -2.5401
  510MOL0     H68814  -0.911   3.750   6.947 -2.1981 -0.3857 -1.4299
  510MOL0     H68815  -1.155   3.780   6.956  0.1675  0.0247  0.8281
  510MOL0     H68816  -1.364   3.917   7.061 -0.6132  0.3082 -0.5615
  510MOL0     H68817  -1.368   3.764   6.976 -0.4978 -0.4865 -0.0530
  510MOL0     H68818  -1.547   3.687   7.120 -0.7100 -0.6317  0.9445
  510MOL0     H68819  -1.544   3.834   7.210  0.8020 -0.4272  0.0134
  510MOL0     H68820  -1.598   3.827   6.901 -1.7876 -0.5257 -0.9994
  510MOL0     H68821  -1.609   3.967   7.010 -1.7321  0.0737  2.0107
  510MOL0     H68822  -1.793   3.720   7.040  2.4180  0.3703  2.1221
  510MOL0     H68823  -1.817   3.881   7.093  1.6932  1.4948  0.2469
  510MOL0     H68824  -1.817   3.774   6.801 -1.0981 -1.0485 -0.2628
  510MOL0     H68825  -1.825   3.946   6.822 -1.6865 -0.7104 -4.5296
  510MOL0     H68826  -2.047   3.749   6.912  2.3321 -1.6720 -0.9871
  510MOL0     H68827  -2.045   3.928   6.932 -1.6857  0.9764 -2.5908
  510MOL0     H68828  -2.035   3.791   6.662 -2.6492  0.5955 -1.4789
  510MOL0     H68829  -2.014   3.959   6.697  2.3324 -1.3285  0.1073
  510MOL0     H68830  -2.261   3.793   6.764 -0.0242 -0.7199 -2.2422
  510MOL0     H68831  -2.255   3.900   6.628 -0.7988 -2.7755 -0.0479
  510MOL0     H68832  -1.160   3.656   7.366 -0.7686  1.2096 -0.4839
  510MOL0     H68833  -0.925   3.589   7.349  1.8771  0.4717 -0.4258
  510MOL0     H68834  -0.556   3.727   7.097  0.4849  0.0682  1.3073
  510MOL0     H68835  -0.324   3.736   7.058 -0.1845 -0.1235  2.6171
  510MOL0     H68836   1.025   2.878   6.683 -0.5185 -0.0167 -1.8473
  510MOL0     H68837   1.162   3.044   6.565 -2.5157 -1.5272  1.9833
  510MOL0     H68838   1.508   3.208   6.375 -0.5440  3.3547 -1.9782
  510MOL0     H68839   1.650   3.356   6.264 -1.5654 -0.6419 -0.2113
  510MOL0     H68840   1.908   3.405   5.909 -0.0769  0.5324  0.4618
  510MOL0     H68841   1.905   3.223   5.906 -4.4280 -2.2907 -1.8301
  510MOL0     H68842   1.687   3.430   5.801 -1.1174 -1.0372 -4.5645
  510MOL0     H68843   1.675   3.265   5.774 -1.8796  1.5417  2.1845
  510MOL0     H68844   1.897   3.459   5.671  0.8448  0.5399 -2.1779
  510MOL0     H68845   1.759   3.414   5.583 -0.6004 -1.6689 -0.9234
  510MOL0     H68846   1.988   3.243   5.667  0.4694  1.1038 -1.8556
  510MOL0     H68847   1.960   3.286   5.503  3.3764  1.0144  1.8088
  510MOL0     H68848   1.667   2.977   5.575  1.3372 -0.7944 -0.7632
  510MOL0     H68849   1.733   3.081   5.958 -0.6168  1.8817  0.0673
  510MOL0     H68850   1.566   2.919   6.047  1.3712 -0.6711  0.3800
  511MOL0     O68851   7.934  10.039   3.266  0.4014  0.5269 -0.2819
  511MOL0     C68852   7.937  10.165   3.278  0.7629  0.0681  0.1941
  511MOL0     O68853   7.873  10.238   3.369 -0.0488 -0.4382  0.3821
  511MOL0     C68854   7.782  10.193   3.461 -0.1927 -0.6010  0.2400
  511MOL0     C68855   7.731  10.068   3.483  0.3599 -0.0607  0.2747
  511MOL0     C68856   7.624  10.032   3.571  0.0044 -0.4248 -0.1925
  511MOL0     C68857   7.557  10.135   3.635 -0.0317 -0.1773 -0.5096
  511MOL0     O68858   7.441  10.105   3.708 -0.3924 -0.4063 -0.2980
  511MOL0     C68859   7.322  10.185   3.690  0.4337  0.8878  0.2097
  511MOL0     C68860   7.205  10.111   3.747  0.1514  0.7517 -1.0889
  511MOL0     C68861   7.074  10.184   3.733  1.2042 -0.2295  0.6168
  511MOL0     C68862   6.978  10.099   3.814  1.0125  0.2942  0.0640
  511MOL0     C68863   6.848  10.175   3.826 -0.1410 -0.3275  0.2890
  511MOL0     C68864   6.848  10.289   3.929  0.3585 -0.6812 -0.6296
  511MOL0     C68865   6.736  10.391   3.895  0.3969 -0.3898  0.3124
  511MOL0     C68866   6.602  10.315   3.910  0.0004 -0.0518  0.4273
  511MOL0     N68867   6.485  10.396   3.911  0.1027 -0.5122 -0.0314
  511MOL0     C68868   6.443  10.484   3.809  0.0422  0.4689 -0.6081
  511MOL0     C68869   6.342  10.549   3.870 -0.0703  0.8834  0.0136
  511MOL0     C68870   6.262  10.671   3.817 -0.0696 -0.2151  0.1539
  511MOL0     C68871   6.175  10.725   3.935  0.3922 -0.4025 -0.3897
  511MOL0     C68872   6.092  10.847   3.891 -0.4031 -0.3548 -0.1942
  511MOL0     C68873   6.009  10.902   4.009  0.2887  0.9199 -0.6449
  511MOL0     O68874   5.893  10.961   3.945 -0.7464 -0.0715 -0.8125
  511MOL0     C68875   5.774  10.955   4.009 -0.3466 -1.0226 -0.1073
  511MOL0     C68876   5.666  11.001   3.942 -0.1727 -0.2847 -0.2895
  511MOL0     C68877   5.539  10.988   3.986  0.3816 -0.2994  0.5357
  511MOL0     C68878   5.433  11.023   3.892 -0.0036  0.5984  0.5423
  511MOL0     C68879   5.513  10.925   4.106  0.3210  0.4871  0.2098
  511MOL0     C68880   5.383  10.893   4.160 -0.0122  0.5704 -0.3038
  511MOL0     O68881   5.381  10.902   4.293  0.1162 -0.1228  0.3751
  511MOL0     C68882   5.267  10.863   4.364  0.9055  1.4078  0.1559
  511MOL0     C68883   5.216  10.734   4.357 -0.6519  0.3958 -0.4353
  511MOL0     C68884   5.104  10.701   4.424  0.6668  0.1666 -0.4583
  511MOL0     C68885   5.042  10.783   4.515 -0.1269  0.6780 -0.4360
  511MOL0     O68886   4.931  10.730   4.567  0.0266 -0.9593 -0.7160
  511MOL0     C68887   4.891  10.781   4.698  0.0267  1.1084  0.1451
  511MOL0     C68888   4.761  10.712   4.729  0.3773  0.3858  0.0169
  511MOL0     C68889   4.695  10.783   4.850 -0.5716 -0.4248  0.3132
  511MOL0     C68890   4.600  10.697   4.929  1.2086  0.1335  0.0266
  511MOL0     C68891   4.459  10.685   4.864 -1.0781 -0.6775  0.0121
  511MOL0     C68892   4.370  10.608   4.964 -0.6542 -0.2581 -0.4061
  511MOL0     C68893   4.227  10.633   4.932 -0.0725 -0.0926 -0.0972
  511MOL0     C68894   4.129  10.603   5.047 -0.4568  0.1268 -0.1324
  511MOL0    Cl68895   4.162  10.719   5.177 -0.0983 -0.4259 -0.2549
  511MOL0     C68896   5.102  10.911   4.535  0.2407  0.0377  0.6117
  511MOL0     C68897   5.207  10.955   4.458  0.7874 -0.1722  0.1428
  511MOL0     O68898   5.283  10.863   4.090  0.3447 -0.8457  0.1809
  511MOL0     C68899   5.621  10.878   4.180 -0.4681  0.4625 -0.3180
  511MOL0     C68900   5.753  10.911   4.146  0.0084  0.1869 -0.4931
  511MOL0     N68901   6.323  10.486   3.996 -0.4205  0.4379  0.1647
  511MOL0     N68902   6.409  10.395   4.021  0.6976  0.5255  0.3760
  511MOL0     C68903   7.595  10.263   3.603 -0.5837 -0.5789  0.2333
  511MOL0     C68904   7.705  10.295   3.528  0.0136 -0.1197  0.8862
  511MOL0     C68905   8.038  10.239   3.200 -0.0368  0.9541 -0.1858
  511MOL0     C68906   8.086  10.364   3.247 -0.1674 -0.4161 -0.6624
  511MOL0     C68907   8.198  10.429   3.188 -0.7326  0.1375 -0.1741
  511MOL0     C68908   8.275  10.366   3.090 -0.2903 -0.0881 -0.3821
  511MOL0     O68909   8.388  10.429   3.025  0.1497  0.9655  0.1435
  511MOL0     C68910   8.350  10.502   2.910 -0.5360 -0.0520  0.4422
  511MOL0     C68911   8.310  10.640   2.943 -0.5000  0.0201  0.0117
  511MOL0     C68912   8.337  10.738   2.821 -0.0393 -0.5509 -0.4728
  511MOL0     C68913   8.483  10.772   2.789 -0.1396  0.9781 -0.0060
  511MOL0     C68914   8.568  10.810   2.907 -0.1181 -0.3847  0.1481
  511MOL0     C68915   8.635  10.834   3.008 -0.0186  0.9337  0.3633
  511MOL0     C68916   8.219  10.251   3.032 -0.0267 -0.5865 -0.3007
  511MOL0     C68917   8.109  10.182   3.088  0.3586  0.2549 -0.1425
  511MOL0     H68918   7.780   9.983   3.436  0.2487 -2.0002  3.4002
  511MOL0     H68919   7.599   9.928   3.590  0.2449 -0.9487 -2.4615
  511MOL0     H68920   7.341  10.274   3.750  0.0480 -0.0990  1.8538
  511MOL0     H68921   7.295  10.217   3.589 -0.3141  0.2202  0.1917
  511MOL0     H68922   7.192  10.011   3.705 -1.2068  0.5949 -0.3641
  511MOL0     H68923   7.224  10.094   3.854  1.5223  1.0105 -1.2764
  511MOL0     H68924   7.087  10.284   3.776 -0.3110  0.6721 -0.8957
  511MOL0     H68925   7.038  10.187   3.630  0.9016  0.8986  0.7403
  511MOL0     H68926   6.950  10.018   3.747  0.6741  1.2155 -0.9397
  511MOL0     H68927   7.021  10.063   3.908 -1.3478  1.0977  1.5317
  511MOL0     H68928   6.823  10.216   3.727 -0.9513 -2.1030 -0.2731
  511MOL0     H68929   6.770  10.104   3.852 -0.0697 -1.2238 -1.7412
  511MOL0     H68930   6.841  10.251   4.031 -2.4634 -2.4263 -1.3410
  511MOL0     H68931   6.934  10.357   3.929 -1.7767  2.2536 -1.7296
  511MOL0     H68932   6.733  10.473   3.967 -1.0572  0.2572 -0.4322
  511MOL0     H68933   6.746  10.438   3.797 -0.9833 -0.4147  0.1381
  511MOL0     H68934   6.613  10.271   4.009  1.5810  0.7836  0.6651
  511MOL0     H68935   6.591  10.236   3.835 -3.8748 -0.2857  1.0743
  511MOL0     H68936   6.488  10.482   3.710 -1.8984 -3.9727 -1.7033
  511MOL0     H68937   6.335  10.750   3.796  1.4481 -0.8032  2.8136
  511MOL0     H68938   6.198  10.653   3.730  0.2725  0.7796 -0.3078
  511MOL0     H68939   6.233  10.759   4.021 -0.9168  0.4017  0.2131
  511MOL0     H68940   6.103  10.648   3.967 -0.1212 -0.3738 -1.4442
  511MOL0     H68941   6.025  10.812   3.811 -0.6773 -1.1053  0.3492
  511MOL0     H68942   6.152  10.930   3.854 -1.5525 -0.6755 -3.0949
  511MOL0     H68943   6.062  10.983   4.060  0.1773  0.9066 -0.5090
  511MOL0     H68944   5.983  10.823   4.080  0.5716  0.9560 -0.5006
  511MOL0     H68945   5.691  11.039   3.843 -0.4038 -1.1268 -0.6788
  511MOL0     H68946   5.375  10.934   3.868 -0.4268  0.4227  2.1140
  511MOL0     H68947   5.369  11.109   3.913  0.1021  0.4477  1.5145
  511MOL0     H68948   5.471  11.044   3.791  1.1660  4.3259  1.5957
  511MOL0     H68949   5.264  10.659   4.295  1.3989 -1.1718  2.7706
  511MOL0     H68950   5.062  10.601   4.415 -0.2228  0.6635 -2.3216
  511MOL0     H68951   4.966  10.758   4.774 -0.2711 -2.1368 -0.3664
  511MOL0     H68952   4.868  10.888   4.691  0.7506  1.3160  0.8290
  511MOL0     H68953   4.687  10.705   4.649  1.0418  0.5206 -0.6185
  511MOL0     H68954   4.786  10.608   4.749  0.9671  0.2140 -1.4458
  511MOL0     H68955   4.656  10.881   4.821  0.1256 -0.1016  0.4466
  511MOL0     H68956   4.777  10.801   4.919  0.5788  0.4493 -1.2160
  511MOL0     H68957   4.655  10.607   4.958 -1.1264 -0.1772  4.2342
  511MOL0     H68958   4.589  10.749   5.024 -0.4674 -0.9510  0.4762
  511MOL0     H68959   4.457  10.617   4.778 -1.8048 -0.0161 -0.5078
  511MOL0     H68960   4.417  10.785   4.853 -1.4537 -0.6507  1.4526
  511MOL0     H68961   4.396  10.502   4.963 -3.9023 -1.1475 -1.0108
  511MOL0     H68962   4.389  10.652   5.063 -2.3583  0.9114 -0.5461
  511MOL0     H68963   4.203  10.579   4.840 -4.1076 -0.3978  0.9654
  511MOL0     H68964   4.209  10.737   4.905  0.4775  0.3327  1.1050
  511MOL0     H68965   4.151  10.502   5.083  3.7985  1.3261  1.2779
  511MOL0     H68966   4.025  10.612   5.014 -0.4765  0.8143  0.1045
  511MOL0     H68967   5.063  10.976   4.614  1.9616  0.0970  1.4496
  511MOL0     H68968   5.253  11.053   4.469  2.6678 -0.8966 -0.7815
  511MOL0     H68969   5.611  10.829   4.277  0.5992  0.5769 -0.1333
  511MOL0     H68970   5.832  10.887   4.216 -1.1363  1.4668  1.3199
  511MOL0     H68971   7.545  10.347   3.651 -2.1850 -0.9131 -0.7930
  511MOL0     H68972   7.721  10.397   3.496 -1.3518 -0.6333 -1.6599
  511MOL0     H68973   8.042  10.415   3.332  1.2142 -0.1740 -0.0665
  511MOL0     H68974   8.234  10.522   3.232  0.5458  0.1878 -1.2838
  511MOL0     H68975   8.447  10.514   2.859 -0.6069 -0.7908  0.1348
  511MOL0     H68976   8.276  10.448   2.851  0.3747 -1.7451  0.7866
  511MOL0     H68977   8.375  10.674   3.024  1.0270  1.0275 -1.5609
  511MOL0     H68978   8.205  10.654   2.969 -1.2524 -3.4354 -0.6655
  511MOL0     H68979   8.284  10.826   2.857 -0.1340 -1.1381  0.8447
  511MOL0     H68980   8.284  10.704   2.731 -0.4856 -1.3283  0.0751
  511MOL0     H68981   8.479  10.855   2.718 -3.2898 -2.2395 -4.1325
  511MOL0     H68982   8.537  10.694   2.734  0.4761  2.2589 -1.2794
  511MOL0     H68983   8.687  10.857   3.098 -1.3285  1.4328  1.0131
  511MOL0     H68984   8.271  10.209   2.947  0.3369  0.1841 -0.4688
  511MOL0     H68985   8.095  10.085   3.042  2.2292  0.8258 -2.0926
  512MOL0     O68986   4.151   4.467   4.578 -0.3757  0.2059 -0.3804
  512MOL0     C68987   4.196   4.582   4.561  0.2206  0.9257  0.3004
  512MOL0     O68988   4.162   4.676   4.457 -0.3954  0.1917 -0.1658
  512MOL0     C68989   4.070   4.639   4.361 -0.1172 -0.0050  0.7334
  512MOL0     C68990   3.954   4.567   4.386 -0.1603  0.1037 -0.6537
  512MOL0     C68991   3.862   4.547   4.283  0.3833 -0.7312  0.4240
  512MOL0     C68992   3.875   4.610   4.155  0.4347 -0.3501 -0.0032
  512MOL0     O68993   3.805   4.573   4.040  0.3844 -0.2778 -0.4564
  512MOL0     C68994   3.767   4.440   4.024  0.0335 -0.0132 -0.1159
  512MOL0     C68995   3.655   4.426   3.915 -1.0694  0.5451 -0.1974
  512MOL0     C68996   3.520   4.495   3.948 -0.6603  0.5980 -0.0622
  512MOL0     C68997   3.395   4.442   3.868 -0.4682 -0.2041  0.4478
  512MOL0     C68998   3.262   4.511   3.924 -0.1623 -1.1619 -0.1142
  512MOL0     C68999   3.137   4.470   3.840 -0.1608  0.1805  0.9465
  512MOL0     C69000   3.021   4.565   3.876 -0.2625 -1.5641  0.1791
  512MOL0     C69001   2.894   4.516   3.807 -0.3239 -0.3903 -0.0127
  512MOL0     N69002   2.762   4.574   3.851  0.4077 -0.0009  0.3614
  512MOL0     C69003   2.643   4.508   3.847  0.1396 -0.2987  0.3511
  512MOL0     C69004   2.555   4.571   3.928  0.3415 -0.3984 -0.3176
  512MOL0     C69005   2.410   4.538   3.960 -0.3621 -0.0310  0.7449
  512MOL0     C69006   2.328   4.650   4.036 -0.3635 -0.5983  0.6988
  512MOL0     C69007   2.304   4.767   3.942 -0.5633 -0.0116  0.0664
  512MOL0     C69008   2.190   4.858   3.987 -0.9510 -0.0002 -0.9504
  512MOL0     O69009   2.067   4.789   3.971  0.3416  0.2521  0.3371
  512MOL0     C69010   1.960   4.857   3.986 -0.2497  0.1484 -0.5061
  512MOL0     C69011   1.943   4.993   3.967  0.3822  0.4518  0.0325
  512MOL0     C69012   1.820   5.048   3.954  0.1286 -0.3576  0.1293
  512MOL0     C69013   1.811   5.189   3.890  0.5050 -0.4657  0.3279
  512MOL0     C69014   1.704   4.972   3.979 -0.2265  0.4534 -0.3095
  512MOL0     C69015   1.571   5.024   3.968 -0.0186 -0.8411 -0.5856
  512MOL0     O69016   1.508   4.981   3.860  0.6382  0.1683 -0.0476
  512MOL0     C69017   1.375   4.994   3.837  1.0164 -0.7710 -1.0010
  512MOL0     C69018   1.332   5.001   3.706  0.5934  0.0933  0.4799
  512MOL0     C69019   1.200   5.017   3.665 -0.0126 -0.0847  0.8117
  512MOL0     C69020   1.103   5.019   3.760 -0.5253 -0.0430 -0.0997
  512MOL0     O69021   0.967   5.020   3.732 -0.0601  0.0994  0.3574
  512MOL0     C69022   0.927   4.978   3.594 -0.3072  0.0435 -0.4773
  512MOL0     C69023   0.779   4.953   3.582 -0.3274 -0.0582  0.1946
  512MOL0     C69024   0.732   4.833   3.660  0.4973  0.2168 -0.2840
  512MOL0     C69025   0.589   4.837   3.691 -0.8290  0.4389 -0.1846
  512MOL0     C69026   0.529   4.693   3.706  0.7064 -0.3315  0.2669
  512MOL0     C69027   0.605   4.605   3.800  0.3707 -0.2243 -0.3953
  512MOL0     C69028   0.517   4.485   3.841  0.7254  0.0877  0.2147
  512MOL0     C69029   0.608   4.363   3.867  0.2686  0.0653 -1.2736
  512MOL0    Cl69030   0.696   4.315   3.729 -0.1777 -0.3869  0.0671
  512MOL0     C69031   1.136   5.003   3.893 -0.5799 -0.0607 -0.9588
  512MOL0     C69032   1.273   4.995   3.934 -0.6840  0.0444 -0.5500
  512MOL0     O69033   1.530   5.110   4.050  0.1547 -0.0906  0.1688
  512MOL0     C69034   1.716   4.839   4.000 -0.0087  0.0906 -0.0293
  512MOL0     C69035   1.840   4.778   4.008 -0.0698  1.0134 -0.9469
  512MOL0     N69036   2.621   4.681   3.975 -0.2018 -0.1324 -0.2076
  512MOL0     N69037   2.746   4.673   3.941 -0.2749  0.3932 -0.1816
  512MOL0     C69038   3.995   4.685   4.131 -0.2264  1.0687 -0.5103
  512MOL0     C69039   4.086   4.697   4.234 -0.7367 -0.3963 -0.0268
  512MOL0     C69040   4.306   4.609   4.650 -0.0782 -0.1872  0.2836
  512MOL0     C69041   4.309   4.550   4.784  0.2379  0.1849  0.1029
  512MOL0     C69042   4.422   4.561   4.866  0.5841 -0.1531 -0.4342
  512MOL0     C69043   4.531   4.643   4.825  0.2743  0.3623 -0.3385
  512MOL0     O69044   4.633   4.671   4.913  0.2348  0.3807  0.6482
  512MOL0     C69045   4.762   4.612   4.888  0.4469 -1.2353  0.3984
  512MOL0     C69046   4.825   4.591   5.019  0.5752 -1.4031  0.2580
  512MOL0     C69047   4.755   4.473   5.091  0.3058  0.1406  0.0597
  512MOL0     C69048   4.840   4.398   5.198  0.8745 -0.4577 -0.5607
  512MOL0     C69049   4.912   4.289   5.141 -0.9240  0.6474  0.2340
  512MOL0     C69050   4.965   4.187   5.096  0.6433  1.0334  1.4334
  512MOL0     C69051   4.518   4.715   4.709  0.0451 -0.5991 -0.2904
  512MOL0     C69052   4.411   4.699   4.617  0.5704  0.5270 -0.2059
  512MOL0     H69053   3.923   4.515   4.476 -2.6500  2.2787 -0.1382
  512MOL0     H69054   3.777   4.480   4.291 -2.4547  2.6482  0.8467
  512MOL0     H69055   3.847   4.373   3.993  0.8725  0.4371  1.0025
  512MOL0     H69056   3.742   4.396   4.121 -0.1137  2.7998  1.2252
  512MOL0     H69057   3.686   4.466   3.817 -1.0135  1.6960  0.2722
  512MOL0     H69058   3.632   4.322   3.893 -0.3682  0.2772  0.2940
  512MOL0     H69059   3.505   4.479   4.055  0.6881 -1.1983 -0.0902
  512MOL0     H69060   3.537   4.601   3.931  0.6322  0.7653  1.9659
  512MOL0     H69061   3.411   4.460   3.761  2.1226  2.2260  1.1297
  512MOL0     H69062   3.383   4.333   3.876 -1.4623 -0.0445  1.4057
  512MOL0     H69063   3.241   4.474   4.025  0.9867 -1.5793 -0.0188
  512MOL0     H69064   3.271   4.620   3.927 -0.9509 -1.1087  0.6705
  512MOL0     H69065   3.154   4.477   3.732 -0.3258  1.0669  0.9706
  512MOL0     H69066   3.108   4.366   3.859 -1.2526  0.0818 -0.9715
  512MOL0     H69067   3.013   4.575   3.985 -1.0502 -2.3446  0.2067
  512MOL0     H69068   3.044   4.665   3.838 -1.5057 -1.9428 -1.7483
  512MOL0     H69069   2.896   4.407   3.817 -1.4474 -0.3535  0.9560
  512MOL0     H69070   2.910   4.536   3.701 -0.7962 -1.1895 -0.2448
  512MOL0     H69071   2.616   4.419   3.791 -3.4905 -0.4533  2.0419
  512MOL0     H69072   2.342   4.518   3.877  0.2700  1.0541 -0.0594
  512MOL0     H69073   2.414   4.448   4.022  3.3009 -0.4562  0.1073
  512MOL0     H69074   2.374   4.690   4.127  0.9375  2.2430 -1.0593
  512MOL0     H69075   2.232   4.604   4.063  0.1572 -2.1627 -0.0023
  512MOL0     H69076   2.275   4.722   3.846 -0.3315 -1.9922  0.8791
  512MOL0     H69077   2.398   4.823   3.928 -0.0529  0.1039  3.3438
  512MOL0     H69078   2.192   4.934   3.908 -0.8954 -0.9595 -1.9045
  512MOL0     H69079   2.201   4.905   4.085 -0.7485  0.0373 -0.9917
  512MOL0     H69080   2.031   5.052   3.943 -1.3087  2.0401 -2.7788
  512MOL0     H69081   1.731   5.197   3.816  2.0096  0.9232 -1.2425
  512MOL0     H69082   1.779   5.267   3.959 -2.3224  1.5546 -2.9508
  512MOL0     H69083   1.908   5.218   3.849  0.5864 -0.1830  0.7193
  512MOL0     H69084   1.405   5.006   3.626  1.3930  0.9495  1.2331
  512MOL0     H69085   1.178   5.035   3.560  2.0644  3.9303  0.8904
  512MOL0     H69086   0.955   5.052   3.519  2.0589 -1.3366 -1.0439
  512MOL0     H69087   0.978   4.890   3.553  0.1535 -0.5876  1.3416
  512MOL0     H69088   0.728   5.044   3.614 -0.2515 -0.1670  0.6367
  512MOL0     H69089   0.747   4.938   3.478  0.5942  5.6045 -1.2369
  512MOL0     H69090   0.792   4.828   3.751  0.6196  0.0504 -0.3701
  512MOL0     H69091   0.744   4.744   3.596 -1.4169  0.1322 -0.5665
  512MOL0     H69092   0.561   4.896   3.779 -1.7386  2.1170 -1.5277
  512MOL0     H69093   0.539   4.889   3.609 -0.6072 -0.5097 -0.9304
  512MOL0     H69094   0.513   4.650   3.607  3.5871 -0.9181 -0.0193
  512MOL0     H69095   0.431   4.715   3.749  1.1441 -2.7257  2.7682
  512MOL0     H69096   0.700   4.577   3.753 -0.1425  0.1977 -1.7129
  512MOL0     H69097   0.625   4.649   3.899 -0.2042 -0.2627 -0.2625
  512MOL0     H69098   0.462   4.452   3.753  0.4064  0.4121  0.2889
  512MOL0     H69099   0.452   4.504   3.927  0.6443  1.5195 -0.1243
  512MOL0     H69100   0.545   4.280   3.901 -0.0772  0.9610  0.4092
  512MOL0     H69101   0.678   4.368   3.952 -2.2211  0.7547  0.8778
  512MOL0     H69102   1.058   5.004   3.969 -0.2102 -0.2777 -0.5702
  512MOL0     H69103   1.310   4.986   4.035  1.8347 -0.2550 -1.4224
  512MOL0     H69104   1.634   4.769   4.009 -0.1631  0.3942  1.1191
  512MOL0     H69105   1.852   4.675   4.040 -0.0874  2.0991  3.0745
  512MOL0     H69106   4.007   4.723   4.030 -1.1231 -1.3176 -1.5939
  512MOL0     H69107   4.172   4.762   4.220 -1.0894  0.1954  0.4937
  512MOL0     H69108   4.229   4.489   4.823  0.7334  0.4232  1.5559
  512MOL0     H69109   4.426   4.518   4.965 -1.6181  1.3089  0.3801
  512MOL0     H69110   4.756   4.517   4.833 -2.2885 -2.7793  3.0201
  512MOL0     H69111   4.812   4.683   4.821  1.6129  0.0595  2.5530
  512MOL0     H69112   4.824   4.680   5.082  0.3146 -0.1296 -1.4579
  512MOL0     H69113   4.928   4.563   4.996  0.5380 -0.1113 -1.7500
  512MOL0     H69114   4.712   4.401   5.020 -1.8764  1.5169 -0.1096
  512MOL0     H69115   4.664   4.505   5.142 -1.0440 -2.3776 -0.6059
  512MOL0     H69116   4.778   4.355   5.276  2.8260  0.6418  1.7203
  512MOL0     H69117   4.920   4.460   5.240  0.9310 -0.5445 -0.5398
  512MOL0     H69118   5.027   4.107   5.060  1.6415  1.9977  0.9403
  512MOL0     H69119   4.605   4.770   4.675  0.1437 -1.1111 -0.8861
  512MOL0     H69120   4.436   4.750   4.524  5.2208 -1.5783 -0.3680
  513MOL0     O69121   2.438   7.439   3.363 -0.0859  0.9343  0.0434
  513MOL0     C69122   2.479   7.345   3.292  0.3013 -0.0596  0.5749
  513MOL0     O69123   2.444   7.325   3.160 -0.7693 -0.0149 -0.4769
  513MOL0     C69124   2.327   7.384   3.118 -0.9838  1.1142  0.0963
  513MOL0     C69125   2.324   7.425   2.984 -0.5906 -0.3682  0.5026
  513MOL0     C69126   2.201   7.475   2.932 -0.9418 -0.1823  0.1702
  513MOL0     C69127   2.081   7.481   3.004  0.0924  0.1137 -0.9720
  513MOL0     O69128   1.982   7.560   2.955  0.0063  0.6082  0.4521
  513MOL0     C69129   1.851   7.528   3.008 -0.6005  0.5269  0.4331
  513MOL0     C69130   1.756   7.582   2.907 -0.2147  0.5546 -1.3229
  513MOL0     C69131   1.609   7.544   2.950 -0.4129 -0.4522  0.3176
  513MOL0     C69132   1.504   7.632   2.878  0.2171 -0.4359  0.5483
  513MOL0     C69133   1.364   7.584   2.876 -0.1035  0.1942 -0.0900
  513MOL0     C69134   1.286   7.687   2.788 -0.8719  0.3798 -0.2376
  513MOL0     C69135   1.135   7.643   2.789 -0.4307  0.3093 -0.4764
  513MOL0     C69136   1.054   7.740   2.882  0.3009  0.7485 -0.5877
  513MOL0     N69137   0.913   7.686   2.908 -0.5254 -1.0654  0.7402
  513MOL0     C69138   0.832   7.604   2.829  0.5538  0.1463 -0.2232
  513MOL0     C69139   0.723   7.578   2.908 -0.6715  0.1028  0.6790
  513MOL0     C69140   0.602   7.496   2.862 -0.4415 -0.3281 -0.4463
  513MOL0     C69141   0.648   7.357   2.805 -0.4115  0.1036  0.4304
  513MOL0     C69142   0.526   7.281   2.751  0.5910 -0.1514 -0.7000
  513MOL0     C69143   0.552   7.146   2.682  0.1769  0.0546  0.2527
  513MOL0     O69144   0.446   7.048   2.704  0.5821  0.3937  0.0020
  513MOL0     C69145   0.319   7.088   2.654 -1.3002  0.2493 -0.4317
  513MOL0     C69146   0.293   7.195   2.559 -0.3362  0.4518 -0.4129
  513MOL0     C69147   0.170   7.232   2.513  0.0910  0.2588  0.2785
  513MOL0     C69148   0.158   7.342   2.401 -0.9980 -0.2906 -0.1751
  513MOL0     C69149   0.057   7.150   2.562  0.6355 -0.0298  1.2724
  513MOL0     C69150  -0.093   7.182   2.522  0.1364  0.4289  0.0038
  513MOL0     O69151  -0.173   7.068   2.524  0.2980 -0.4297 -0.1675
  513MOL0     C69152  -0.308   7.071   2.506 -0.1647  1.2997 -0.2170
  513MOL0     C69153  -0.372   6.964   2.560 -0.1196  0.7763 -0.0108
  513MOL0     C69154  -0.506   6.945   2.535  0.0563  0.3267 -0.3495
  513MOL0     C69155  -0.586   7.040   2.463 -0.5069  0.3351 -0.5622
  513MOL0     O69156  -0.721   7.011   2.452  0.1950 -0.7091 -0.6213
  513MOL0     C69157  -0.805   7.116   2.399  0.2124 -0.6535 -0.3353
  513MOL0     C69158  -0.949   7.099   2.432  0.3342  1.0289  0.0247
  513MOL0     C69159  -1.027   7.203   2.358  0.2753  0.4362 -0.2659
  513MOL0     C69160  -1.180   7.183   2.349  0.2172 -0.0699 -0.0234
  513MOL0     C69161  -1.240   7.270   2.240  0.5916  0.1277 -0.7100
  513MOL0     C69162  -1.395   7.257   2.251  0.3715 -0.8198  0.1188
  513MOL0     C69163  -1.459   7.341   2.147  0.5164 -0.6985  0.2709
  513MOL0     C69164  -1.604   7.379   2.178  0.2208  0.0263 -0.3180
  513MOL0    Cl69165  -1.691   7.411   2.031  0.1114 -0.0019 -0.1565
  513MOL0     C69166  -0.518   7.149   2.407 -0.2626  0.3289  0.6958
  513MOL0     C69167  -0.381   7.162   2.430  0.2413  0.3196 -0.6015
  513MOL0     O69168  -0.126   7.297   2.489  0.0492 -0.1832  0.2776
  513MOL0     C69169   0.077   7.047   2.656  0.0427 -0.0396 -0.1465
  513MOL0     C69170   0.204   7.023   2.699 -0.0374  0.6670  0.6115
  513MOL0     N69171   0.734   7.657   3.019  0.9027  0.1227  0.0032
  513MOL0     N69172   0.840   7.726   3.013  0.2373 -0.4119 -0.4846
  513MOL0     C69173   2.085   7.436   3.139  0.5059  0.4233  0.0454
  513MOL0     C69174   2.209   7.393   3.194 -0.0029  0.2000  0.4119
  513MOL0     C69175   2.580   7.256   3.351  0.2464  0.7695 -0.0438
  513MOL0     C69176   2.657   7.296   3.454  0.1882 -0.1932 -0.3747
  513MOL0     C69177   2.756   7.213   3.514 -0.1392 -1.2485 -0.4214
  513MOL0     C69178   2.774   7.081   3.475 -0.1685  0.2032  0.1729
  513MOL0     O69179   2.866   6.996   3.536  0.3135  0.1271  0.2329
  513MOL0     C69180   2.997   7.036   3.508  1.3736 -0.0987  0.3872
  513MOL0     C69181   3.100   6.931   3.549  0.0046 -0.8898 -0.3488
  513MOL0     C69182   3.250   6.979   3.529  0.6233  0.8046 -0.6046
  513MOL0     C69183   3.341   6.854   3.543  0.0096 -0.2429  0.7191
  513MOL0     C69184   3.483   6.900   3.558  0.1114 -0.1711  0.4992
  513MOL0     C69185   3.596   6.942   3.568 -0.5159  0.0129  0.9171
  513MOL0     C69186   2.699   7.040   3.361 -0.1459 -0.2142  0.0233
  513MOL0     C69187   2.601   7.125   3.308 -0.1614  0.2395 -0.4241
  513MOL0     H69188   2.412   7.390   2.932 -2.4238 -1.5518 -2.0114
  513MOL0     H69189   2.205   7.512   2.829 -0.4634  2.0245  0.9130
  513MOL0     H69190   1.838   7.420   3.019 -1.5081  0.4590 -0.9942
  513MOL0     H69191   1.841   7.568   3.109 -1.5829 -0.0002  0.5588
  513MOL0     H69192   1.776   7.689   2.907  0.6700  0.4136 -0.0900
  513MOL0     H69193   1.780   7.533   2.812  0.6327  0.4594 -1.0670
  513MOL0     H69194   1.605   7.440   2.915 -1.5419  0.3002 -2.0229
  513MOL0     H69195   1.602   7.547   3.059  3.4941  0.3349  0.6820
  513MOL0     H69196   1.495   7.729   2.928 -0.0808  0.1222 -0.5550
  513MOL0     H69197   1.536   7.640   2.774 -2.3233  0.7299 -0.2509
  513MOL0     H69198   1.353   7.480   2.845 -1.8231  0.6885 -1.2174
  513MOL0     H69199   1.331   7.586   2.981  1.5715  0.1310  0.4742
  513MOL0     H69200   1.302   7.791   2.817  0.8692  0.6400 -1.9028
  513MOL0     H69201   1.330   7.679   2.688 -0.3777  0.5410 -0.0370
  513MOL0     H69202   1.097   7.638   2.686  2.9144  0.7952 -1.8746
  513MOL0     H69203   1.131   7.542   2.830 -1.8018  0.2852 -0.5951
  513MOL0     H69204   1.044   7.836   2.831  0.4580  0.2757 -1.5351
  513MOL0     H69205   1.109   7.760   2.975 -0.2341  1.9124 -0.5015
  513MOL0     H69206   0.842   7.571   2.726 -2.6820 -2.1441  0.0415
  513MOL0     H69207   0.528   7.477   2.940  0.9345 -2.4544  0.4498
  513MOL0     H69208   0.554   7.550   2.780  1.0706  0.8225 -0.6364
  513MOL0     H69209   0.696   7.305   2.888 -0.9511 -0.3713  0.4499
  513MOL0     H69210   0.717   7.358   2.719  0.6690 -1.6003  1.2254
  513MOL0     H69211   0.466   7.352   2.692  1.1911 -0.3148 -1.5211
  513MOL0     H69212   0.475   7.262   2.846  0.7780 -0.5080 -0.6728
  513MOL0     H69213   0.639   7.103   2.733  1.3621 -0.7410 -2.2585
  513MOL0     H69214   0.581   7.148   2.577 -1.1615  0.9210 -0.1254
  513MOL0     H69215   0.369   7.247   2.500 -1.5010  1.7200 -0.8599
  513MOL0     H69216   0.238   7.343   2.326 -1.5383  2.1653 -0.7897
  513MOL0     H69217   0.064   7.331   2.345 -0.8518 -0.2019 -0.4414
  513MOL0     H69218   0.173   7.434   2.457 -2.6197 -2.4999  4.3656
  513MOL0     H69219  -0.312   6.884   2.603 -1.0718  0.7327  1.2922
  513MOL0     H69220  -0.563   6.864   2.579 -1.3466  2.2603  1.6523
  513MOL0     H69221  -0.768   7.205   2.451 -2.6882  0.8531 -0.6353
  513MOL0     H69222  -0.775   7.126   2.294  3.3509 -2.0010  0.3165
  513MOL0     H69223  -0.984   7.002   2.396 -0.0308  0.7636  1.0638
  513MOL0     H69224  -0.956   7.095   2.541  2.6429 -1.9142  0.1858
  513MOL0     H69225  -0.984   7.213   2.258  1.5861  2.8686  0.4624
  513MOL0     H69226  -1.014   7.298   2.412 -0.5367  0.5424 -0.2347
  513MOL0     H69227  -1.203   7.078   2.331  0.0650 -0.3194  1.5259
  513MOL0     H69228  -1.232   7.203   2.444  1.7763  0.4439  0.7533
  513MOL0     H69229  -1.210   7.228   2.143 -1.0508 -0.1903 -1.1111
  513MOL0     H69230  -1.204   7.372   2.252  2.2449 -0.6459  1.6498
  513MOL0     H69231  -1.420   7.152   2.233 -1.1477 -0.2530 -1.3772
  513MOL0     H69232  -1.425   7.289   2.351  1.2056 -1.4679  0.5938
  513MOL0     H69233  -1.449   7.297   2.047  1.6811 -0.8882  0.4607
  513MOL0     H69234  -1.407   7.437   2.144  0.4464 -0.6610 -2.6783
  513MOL0     H69235  -1.615   7.460   2.251  0.4156  0.6312 -0.9587
  513MOL0     H69236  -1.648   7.295   2.232 -2.4094  3.4127  3.3661
  513MOL0     H69237  -0.562   7.233   2.354 -0.8360 -1.7742 -2.4618
  513MOL0     H69238  -0.337   7.253   2.391 -3.4585  2.6991  0.2393
  513MOL0     H69239  -0.006   6.983   2.685 -0.7194  1.4815  1.1686
  513MOL0     H69240   0.224   6.940   2.767  0.9520 -0.6881 -1.2385
  513MOL0     H69241   1.999   7.444   3.205 -0.0311  4.0842 -0.8312
  513MOL0     H69242   2.213   7.363   3.298 -0.3554 -0.6140  0.1919
  513MOL0     H69243   2.637   7.393   3.498  0.8459  0.4518 -1.4514
  513MOL0     H69244   2.804   7.253   3.603  0.0791  1.3389 -1.6182
  513MOL0     H69245   3.010   7.041   3.400  1.2484 -0.3744  0.3569
  513MOL0     H69246   3.025   7.131   3.553 -0.1872  0.8567 -0.5897
  513MOL0     H69247   3.082   6.853   3.474  0.4486 -0.1219 -1.2652
  513MOL0     H69248   3.084   6.886   3.648 -1.3223 -0.3750 -0.3048
  513MOL0     H69249   3.275   7.044   3.613 -0.1575  0.7739 -0.3416
  513MOL0     H69250   3.277   7.022   3.432 -0.4130 -0.6599 -1.6008
  513MOL0     H69251   3.353   6.798   3.450  3.2221 -0.2381  1.0346
  513MOL0     H69252   3.312   6.786   3.624  3.8385 -1.7145  1.0313
  513MOL0     H69253   3.693   6.981   3.590 -0.3174 -0.4181  0.8081
  513MOL0     H69254   2.719   6.946   3.310 -0.4515  0.3470 -1.1566
  513MOL0     H69255   2.538   7.079   3.233 -1.0463 -2.2055  1.6525
  514MOL0     O69256   4.478   2.712   6.263 -0.9290 -0.2489  0.0902
  514MOL0     C69257   4.473   2.665   6.380 -0.2163 -0.4902 -0.1142
  514MOL0     O69258   4.368   2.592   6.432 -1.0359  0.3807 -0.3435
  514MOL0     C69259   4.242   2.617   6.381 -0.0769  0.0778 -0.1533
  514MOL0     C69260   4.148   2.505   6.386  0.6508 -0.3445  1.0611
  514MOL0     C69261   4.025   2.529   6.337 -0.8802  0.4482 -0.5294
  514MOL0     C69262   3.978   2.658   6.306  0.1730  0.7917  0.1461
  514MOL0     O69263   3.847   2.678   6.274 -0.4379 -0.5119  0.2137
  514MOL0     C69264   3.780   2.800   6.328 -0.4937  0.2121  0.1945
  514MOL0     C69265   3.780   2.816   6.473 -0.2788 -0.2057  0.4106
  514MOL0     C69266   3.649   2.841   6.543  0.4239 -0.7078  0.4699
  514MOL0     C69267   3.605   2.986   6.521 -0.3364  0.1829  0.5220
  514MOL0     C69268   3.475   3.024   6.598 -0.2644 -0.3023 -0.3444
  514MOL0     C69269   3.421   3.169   6.579  0.0498  0.7702  0.2246
  514MOL0     C69270   3.307   3.220   6.663  0.0594 -0.5206 -0.4730
  514MOL0     C69271   3.296   3.373   6.631  0.1601 -0.1766  0.3318
  514MOL0     N69272   3.174   3.432   6.698 -0.4268  0.2730  0.1947
  514MOL0     C69273   3.161   3.471   6.829 -0.2625 -0.1257 -0.6468
  514MOL0     C69274   3.041   3.525   6.840  0.0914 -0.7931  0.6147
  514MOL0     C69275   2.964   3.575   6.958  0.0860 -0.2558  0.2985
  514MOL0     C69276   3.056   3.655   7.046  0.1345  0.0310 -0.1302
  514MOL0     C69277   2.957   3.703   7.155 -0.5115 -0.2886 -0.2747
  514MOL0     C69278   3.024   3.782   7.260 -0.1911 -0.1531  0.1057
  514MOL0     O69279   2.960   3.762   7.384  0.2639  0.0436 -0.4187
  514MOL0     C69280   2.869   3.852   7.423  0.1060 -0.5500  0.2797
  514MOL0     C69281   2.827   3.830   7.551  0.1011  0.1753 -0.2997
  514MOL0     C69282   2.725   3.894   7.611  0.2441  0.6912 -0.5111
  514MOL0     C69283   2.695   3.849   7.751 -0.0491 -0.3158 -0.2032
  514MOL0     C69284   2.655   3.994   7.549 -0.9272 -0.8381  0.1310
  514MOL0     C69285   2.542   4.076   7.608 -0.2704 -0.4275 -0.5938
  514MOL0     O69286   2.483   4.164   7.528 -0.6686  0.2113  0.0549
  514MOL0     C69287   2.386   4.242   7.566 -0.0530  0.5276  0.0816
  514MOL0     C69288   2.407   4.379   7.580  0.8510 -0.0799 -0.8286
  514MOL0     C69289   2.297   4.455   7.603  0.3143 -1.3116 -0.5812
  514MOL0     C69290   2.173   4.403   7.641 -0.3804  0.1433  1.1864
  514MOL0     O69291   2.089   4.502   7.677 -0.0560  0.4822  0.2753
  514MOL0     C69292   1.995   4.460   7.770 -0.5457 -0.1362  0.7823
  514MOL0     C69293   1.919   4.585   7.818  0.0162 -0.5653 -0.2357
  514MOL0     C69294   1.837   4.572   7.945  0.1639  0.5628 -0.4706
  514MOL0     C69295   1.744   4.448   7.951  0.4240  0.3766  0.5446
  514MOL0     C69296   1.655   4.422   7.830 -0.0969 -0.3409 -0.5797
  514MOL0     C69297   1.568   4.529   7.765 -0.3337  1.1699 -0.3953
  514MOL0     C69298   1.480   4.596   7.867 -0.4088  0.1983 -0.5934
  514MOL0     C69299   1.399   4.701   7.793 -0.8808  0.3019 -0.1380
  514MOL0    Cl69300   1.279   4.775   7.903  0.1989  0.0187  0.1616
  514MOL0     C69301   2.149   4.269   7.624  0.2834  0.2593  0.6362
  514MOL0     C69302   2.256   4.189   7.577  0.4544  0.7654 -0.4142
  514MOL0     O69303   2.514   4.061   7.725 -0.2783 -0.9232  0.2237
  514MOL0     C69304   2.702   4.025   7.419 -0.2741 -0.3273 -0.1687
  514MOL0     C69305   2.802   3.953   7.352  0.6045 -0.7166  0.0691
  514MOL0     N69306   2.974   3.518   6.714 -0.4752  0.0552  0.7049
  514MOL0     N69307   3.060   3.462   6.631 -0.8143  0.4314 -0.9227
  514MOL0     C69308   4.067   2.760   6.304 -0.3354  0.6101 -0.2970
  514MOL0     C69309   4.202   2.739   6.337 -0.6384 -0.1921  0.5645
  514MOL0     C69310   4.600   2.663   6.470 -0.9796  0.3091  0.3015
  514MOL0     C69311   4.609   2.569   6.573 -0.4960 -0.1167 -0.5924
  514MOL0     C69312   4.724   2.554   6.648 -0.6712  0.0474  0.1271
  514MOL0     C69313   4.840   2.632   6.615  0.6400  0.7109  0.6412
  514MOL0     O69314   4.958   2.618   6.669  0.2853  0.2858 -1.2742
  514MOL0     C69315   4.981   2.531   6.780 -0.3270 -0.7661 -0.6086
  514MOL0     C69316   5.124   2.544   6.820 -0.5153  0.0722 -0.3720
  514MOL0     C69317   5.160   2.464   6.945 -0.4318  0.4777  0.4810
  514MOL0     C69318   5.311   2.437   6.965 -0.9204 -0.4845 -0.1906
  514MOL0     C69319   5.386   2.386   6.853  0.3524  0.5842  0.4386
  514MOL0     C69320   5.452   2.314   6.779  0.0216  0.6013 -0.0896
  514MOL0     C69321   4.835   2.712   6.506  0.2972 -0.5095 -0.6508
  514MOL0     C69322   4.717   2.734   6.427 -0.6411  0.3560 -0.2984
  514MOL0     H69323   4.184   2.407   6.414 -1.2218 -0.9209  1.5814
  514MOL0     H69324   3.968   2.437   6.324 -0.1473 -0.4707  2.2325
  514MOL0     H69325   3.810   2.890   6.273  0.1822  0.8649  1.5903
  514MOL0     H69326   3.678   2.785   6.292 -0.0586  3.5531 -3.0284
  514MOL0     H69327   3.817   2.724   6.517  1.1608  0.1971  0.1149
  514MOL0     H69328   3.852   2.894   6.503  1.1015 -1.4921  0.5508
  514MOL0     H69329   3.566   2.781   6.504  0.2441 -0.3176  0.2404
  514MOL0     H69330   3.668   2.831   6.650  1.7190  3.8865  0.9081
  514MOL0     H69331   3.682   3.056   6.554 -0.6159 -0.6274  3.1335
  514MOL0     H69332   3.596   3.007   6.414  1.3621  0.4507  0.4031
  514MOL0     H69333   3.381   2.973   6.572 -2.0654  2.1446  0.9683
  514MOL0     H69334   3.488   2.997   6.703  1.2342 -1.7983 -0.8707
  514MOL0     H69335   3.497   3.247   6.591 -0.4342  2.1952 -4.1614
  514MOL0     H69336   3.392   3.170   6.473  0.0255  2.8351  0.2176
  514MOL0     H69337   3.212   3.171   6.639  0.7022 -1.3063 -1.5560
  514MOL0     H69338   3.332   3.190   6.765  0.1080 -2.8645 -1.0944
  514MOL0     H69339   3.280   3.395   6.525 -2.6830  0.1034  0.7330
  514MOL0     H69340   3.382   3.422   6.677  0.0350  0.5322 -0.1771
  514MOL0     H69341   3.233   3.467   6.910 -2.8658 -2.0307  1.7288
  514MOL0     H69342   2.881   3.637   6.922  0.1849  0.2968  1.0032
  514MOL0     H69343   2.919   3.492   7.014 -0.4935 -1.4379 -1.8194
  514MOL0     H69344   3.100   3.738   6.989  0.8907  0.7257  1.4001
  514MOL0     H69345   3.133   3.590   7.088 -0.1062 -0.8146 -0.9394
  514MOL0     H69346   2.915   3.617   7.206  3.0584 -0.7016  2.3657
  514MOL0     H69347   2.877   3.770   7.121 -0.2235 -0.2967 -1.0083
  514MOL0     H69348   3.039   3.888   7.236  1.8894 -0.1120  1.3466
  514MOL0     H69349   3.126   3.747   7.276 -0.7318 -1.7185  0.2909
  514MOL0     H69350   2.885   3.753   7.601 -0.2690 -0.8941 -1.4726
  514MOL0     H69351   2.732   3.927   7.818 -0.2486  1.4681 -2.0901
  514MOL0     H69352   2.588   3.838   7.771  0.0165 -3.6757 -1.0844
  514MOL0     H69353   2.746   3.757   7.784 -0.0031  0.0132  0.6768
  514MOL0     H69354   2.501   4.426   7.554 -0.8330  3.6022 -0.8077
  514MOL0     H69355   2.311   4.562   7.613 -3.5417 -0.4440 -2.3204
  514MOL0     H69356   1.924   4.385   7.735  0.0401 -1.1315  1.6769
  514MOL0     H69357   2.040   4.420   7.861  0.9762  0.6683  0.4227
  514MOL0     H69358   1.987   4.671   7.811 -0.2236  0.1247  3.5720
  514MOL0     H69359   1.847   4.606   7.739 -0.9037  0.1517  0.7669
  514MOL0     H69360   1.776   4.662   7.950 -2.1755 -0.9687  2.6069
  514MOL0     H69361   1.911   4.563   8.026  1.0509 -0.7011 -1.3760
  514MOL0     H69362   1.808   4.362   7.973  3.2772  1.9338 -1.1560
  514MOL0     H69363   1.672   4.474   8.030 -0.7979  1.8538 -0.9855
  514MOL0     H69364   1.594   4.336   7.859 -1.1458  0.7865  0.7027
  514MOL0     H69365   1.716   4.388   7.746  1.1716  1.3771 -0.4131
  514MOL0     H69366   1.619   4.606   7.707 -0.3546  0.6045 -1.1864
  514MOL0     H69367   1.511   4.482   7.684 -0.8241  0.1791  0.5061
  514MOL0     H69368   1.541   4.649   7.941 -2.6885  0.3025  1.3297
  514MOL0     H69369   1.416   4.520   7.913 -0.9150  0.0312 -1.5530
  514MOL0     H69370   1.343   4.655   7.711 -0.2916 -0.0106 -0.3633
  514MOL0     H69371   1.460   4.788   7.767 -0.0562  0.4264  2.0125
  514MOL0     H69372   2.057   4.217   7.648 -0.3372  1.3009  0.5937
  514MOL0     H69373   2.232   4.089   7.541  2.6847  0.4759 -1.2431
  514MOL0     H69374   2.653   4.110   7.374  0.2812  1.9382  3.1353
  514MOL0     H69375   2.818   3.969   7.246 -0.3321 -1.4682 -0.2011
  514MOL0     H69376   4.043   2.865   6.289  0.8444  1.4526  2.8770
  514MOL0     H69377   4.274   2.819   6.344  2.6420 -2.8698 -0.1415
  514MOL0     H69378   4.522   2.509   6.597 -0.7703  0.5582  0.1312
  514MOL0     H69379   4.727   2.483   6.730 -0.5338 -2.7727 -2.1586
  514MOL0     H69380   4.909   2.560   6.857 -1.0906  0.2748 -1.6846
  514MOL0     H69381   4.971   2.426   6.751 -3.0052 -0.4218 -1.1063
  514MOL0     H69382   5.145   2.651   6.830  1.4769 -0.4121  1.3644
  514MOL0     H69383   5.181   2.502   6.737  2.3222  0.8955  1.0476
  514MOL0     H69384   5.111   2.367   6.935  1.0182 -0.0282 -3.1253
  514MOL0     H69385   5.123   2.504   7.040 -4.1049 -1.8625  0.2664
  514MOL0     H69386   5.335   2.362   7.041 -0.4511 -0.2854 -0.1424
  514MOL0     H69387   5.355   2.528   7.007 -0.5864 -0.6173 -0.2493
  514MOL0     H69388   5.484   2.239   6.709 -1.3679  0.2618 -0.3963
  514MOL0     H69389   4.918   2.778   6.481  0.7070 -1.1328 -0.9479
  514MOL0     H69390   4.707   2.809   6.349 -2.5369  0.7108  0.2414
  515MOL0     O69391   9.708   3.412   8.481 -0.2041  0.2231  0.1646
  515MOL0     C69392   9.706   3.396   8.356  0.4136 -0.6480 -0.4214
  515MOL0     O69393   9.592   3.418   8.273  0.1504  0.1576 -0.2173
  515MOL0     C69394   9.486   3.496   8.314  0.2365 -0.2061  0.2185
  515MOL0     C69395   9.356   3.441   8.300 -0.1277  0.0784 -0.5265
  515MOL0     C69396   9.246   3.524   8.330  0.1932  0.1771  0.0937
  515MOL0     C69397   9.264   3.650   8.385  0.1029  0.6074  0.0140
  515MOL0     O69398   9.166   3.732   8.418  0.4271  0.9402  0.0134
  515MOL0     C69399   9.049   3.712   8.344 -0.3676 -0.8967  0.9883
  515MOL0     C69400   8.950   3.826   8.381  0.6633  0.0301 -0.1546
  515MOL0     C69401   8.993   3.973   8.376 -1.1849  0.2937  0.1117
  515MOL0     C69402   8.885   4.078   8.413 -0.5589  0.0654 -0.5240
  515MOL0     C69403   8.773   4.093   8.309  0.2997 -0.0916  0.3667
  515MOL0     C69404   8.677   4.209   8.350 -0.5719 -0.2024 -1.0629
  515MOL0     C69405   8.571   4.222   8.240  0.6740 -0.1529  0.6588
  515MOL0     C69406   8.476   4.336   8.270 -0.0282  0.5325 -0.0151
  515MOL0     N69407   8.349   4.344   8.202 -0.5678 -1.0265 -0.3177
  515MOL0     C69408   8.254   4.438   8.233 -0.3522  0.4599 -0.1440
  515MOL0     C69409   8.142   4.403   8.166 -0.3548  0.1372  0.7016
  515MOL0     C69410   8.006   4.471   8.177 -0.0956 -0.1656 -0.1174
  515MOL0     C69411   7.960   4.515   8.042 -0.4125  0.3453 -0.4812
  515MOL0     C69412   8.045   4.632   7.985 -0.4935 -0.7980 -0.4093
  515MOL0     C69413   7.981   4.706   7.866  0.5119 -0.1303  0.0955
  515MOL0     O69414   7.873   4.782   7.921  0.1077 -0.5735  0.1607
  515MOL0     C69415   7.772   4.828   7.834  0.3099  0.0229  0.8124
  515MOL0     C69416   7.694   4.937   7.871  0.6302  0.0382  0.3794
  515MOL0     C69417   7.585   4.978   7.791  0.7031 -0.0109 -0.3453
  515MOL0     C69418   7.524   5.102   7.850 -0.1526 -0.5890 -0.3770
  515MOL0     C69419   7.557   4.920   7.661  0.3282  0.8368 -0.1160
  515MOL0     C69420   7.440   4.951   7.572  0.4957 -0.4175  0.0635
  515MOL0     O69421   7.435   4.893   7.445 -0.2724  0.2423  0.2965
  515MOL0     C69422   7.316   4.917   7.376  0.8122  0.4537 -0.4688
  515MOL0     C69423   7.321   5.011   7.272  0.1763 -0.1751  0.5977
  515MOL0     C69424   7.204   5.035   7.199 -0.0466  0.3220 -1.1421
  515MOL0     C69425   7.083   4.968   7.231  0.0422 -0.8649  0.3554
  515MOL0     O69426   6.964   4.990   7.165  0.1342  0.0812 -0.0283
  515MOL0     C69427   6.959   5.125   7.109 -0.1338 -0.2922 -0.3636
  515MOL0     C69428   6.817   5.167   7.098 -0.2042  0.4258 -0.2494
  515MOL0     C69429   6.741   5.074   7.004 -0.4104  0.2408  0.4423
  515MOL0     C69430   6.585   5.093   7.018  0.6333 -0.5447  0.0871
  515MOL0     C69431   6.521   5.069   6.881  0.0280  0.2989 -0.4095
  515MOL0     C69432   6.372   5.032   6.891  0.1135 -0.0445 -0.2766
  515MOL0     C69433   6.283   5.139   6.954  0.3128  0.2715 -0.1574
  515MOL0     C69434   6.129   5.118   6.956  0.4096  0.7835 -0.0411
  515MOL0    Cl69435   6.048   5.183   6.808 -0.1546  0.0909 -0.5444
  515MOL0     C69436   7.081   4.875   7.330  0.9889  0.3389  0.3539
  515MOL0     C69437   7.199   4.845   7.400  0.5069  1.2627 -0.4358
  515MOL0     O69438   7.368   5.043   7.617  0.6162 -0.0150  0.5313
  515MOL0     C69439   7.636   4.806   7.634  0.6353 -0.2962  0.2278
  515MOL0     C69440   7.737   4.763   7.716  0.5596 -0.5551  0.0052
  515MOL0     N69441   8.178   4.295   8.086  0.1287 -0.2908 -0.2805
  515MOL0     N69442   8.300   4.258   8.114  0.4097 -0.0068 -0.6988
  515MOL0     C69443   9.398   3.698   8.401  0.7697  0.2067  0.0979
  515MOL0     C69444   9.508   3.618   8.369  0.3938  0.1160  0.3626
  515MOL0     C69445   9.831   3.367   8.286  0.2251  0.1838  0.5517
  515MOL0     C69446   9.951   3.386   8.346 -0.2323  0.2736 -1.1850
  515MOL0     C69447  10.069   3.354   8.285  0.3209  0.6831  1.2749
  515MOL0     C69448  10.073   3.320   8.149  0.2194  0.4168 -0.5892
  515MOL0     O69449  10.201   3.297   8.095  0.8405  0.3318 -0.1117
  515MOL0     C69450  10.217   3.217   7.980  0.3058  0.8227 -0.1522
  515MOL0     C69451  10.296   3.091   8.019 -0.4451 -0.3958 -1.1839
  515MOL0     C69452  10.432   3.127   8.077  0.5931  0.4913  0.7483
  515MOL0     C69453  10.533   3.014   8.064  0.6107  0.0126  0.7280
  515MOL0     C69454  10.670   3.073   8.080 -0.4449 -0.1013 -0.0559
  515MOL0     C69455  10.784   3.110   8.082 -0.2456 -0.0194  0.3396
  515MOL0     C69456   9.949   3.290   8.093 -0.3950 -0.1830 -0.0046
  515MOL0     C69457   9.825   3.307   8.161 -0.5065 -0.1563 -0.3595
  515MOL0     H69458   9.349   3.336   8.275 -0.0309 -0.8730  2.9359
  515MOL0     H69459   9.146   3.490   8.303  0.1086  0.8653 -0.4929
  515MOL0     H69460   9.065   3.720   8.236  1.6730  3.1967  1.4322
  515MOL0     H69461   9.003   3.616   8.371 -2.9417  0.1365  0.6084
  515MOL0     H69462   8.867   3.808   8.312  1.4002 -0.7707 -0.8539
  515MOL0     H69463   8.913   3.813   8.483 -2.9287 -0.1632 -1.3276
  515MOL0     H69464   9.072   3.981   8.450 -0.5147 -1.1771 -0.3902
  515MOL0     H69465   9.016   3.996   8.271 -3.5926  0.6384 -0.4248
  515MOL0     H69466   8.838   4.045   8.507  1.2168  0.9561  0.7274
  515MOL0     H69467   8.936   4.171   8.439 -0.7675 -0.2230  1.0345
  515MOL0     H69468   8.816   4.123   8.214  1.9617  2.3007  1.7762
  515MOL0     H69469   8.723   3.996   8.296  0.0637  0.1440 -0.5108
  515MOL0     H69470   8.642   4.170   8.447 -0.1489 -0.2310 -0.9205
  515MOL0     H69471   8.727   4.303   8.373 -2.2112  0.2703  0.8552
  515MOL0     H69472   8.629   4.252   8.152  0.0454  3.8018  1.3723
  515MOL0     H69473   8.522   4.126   8.223 -0.7209  0.8890 -1.5209
  515MOL0     H69474   8.530   4.430   8.260  1.3796 -0.3562 -1.2881
  515MOL0     H69475   8.455   4.313   8.375  0.9023  0.7351  0.2220
  515MOL0     H69476   8.260   4.529   8.292 -0.0349  0.9145 -0.8606
  515MOL0     H69477   7.937   4.401   8.225 -1.8431  2.0536  0.8225
  515MOL0     H69478   8.016   4.560   8.241  0.1209 -0.3414  0.0932
  515MOL0     H69479   7.864   4.566   8.058  0.4227  1.8497 -0.0766
  515MOL0     H69480   7.947   4.432   7.973  1.0947 -0.7771  0.5204
  515MOL0     H69481   8.141   4.587   7.956  0.6246  1.3376 -0.1950
  515MOL0     H69482   8.062   4.711   8.058 -0.5706  0.9659 -2.2113
  515MOL0     H69483   7.950   4.625   7.799 -1.3771  1.1693 -0.6897
  515MOL0     H69484   8.052   4.771   7.815  0.5860 -0.8982 -0.8197
  515MOL0     H69485   7.728   5.000   7.952  0.9087  1.8002 -1.0531
  515MOL0     H69486   7.544   5.101   7.958 -0.7564 -1.1362 -0.2629
  515MOL0     H69487   7.553   5.193   7.797 -2.2424  0.6751  0.5218
  515MOL0     H69488   7.415   5.111   7.851  0.0009  2.2592  0.2595
  515MOL0     H69489   7.413   5.067   7.257 -0.5603  1.1435  0.8314
  515MOL0     H69490   7.206   5.106   7.117  0.2422  2.6981  0.8125
  515MOL0     H69491   7.013   5.197   7.171 -0.1195  2.3039 -3.1374
  515MOL0     H69492   7.000   5.132   7.008  2.5929 -0.6490  0.6238
  515MOL0     H69493   6.764   5.169   7.194  1.7806 -0.3068  0.9113
  515MOL0     H69494   6.813   5.269   7.057 -0.1462  0.2950 -0.5732
  515MOL0     H69495   6.763   4.969   7.024  1.2840  0.6715  1.0157
  515MOL0     H69496   6.781   5.095   6.905 -0.3223  1.2997  0.6872
  515MOL0     H69497   6.549   5.031   7.100 -0.9065  2.2388  1.6594
  515MOL0     H69498   6.559   5.183   7.074 -1.2258 -1.2446  0.4366
  515MOL0     H69499   6.570   4.989   6.825 -0.0284  1.4163 -2.1305
  515MOL0     H69500   6.532   5.160   6.821 -2.0444 -0.0307 -1.3582
  515MOL0     H69501   6.336   5.014   6.789 -0.4363  3.0994 -0.7547
  515MOL0     H69502   6.357   4.936   6.940 -0.9585 -0.0256 -0.5357
  515MOL0     H69503   6.305   5.227   6.894 -1.2661 -1.3634 -3.3340
  515MOL0     H69504   6.311   5.160   7.058 -0.6809 -1.5509  0.5359
  515MOL0     H69505   6.091   5.172   7.043  0.7143 -1.6814  1.7177
  515MOL0     H69506   6.117   5.009   6.958  2.2710  0.4171 -2.8997
  515MOL0     H69507   6.999   4.810   7.360  1.4955 -0.6327 -0.2968
  515MOL0     H69508   7.208   4.772   7.480 -0.3798 -1.8746 -3.0249
  515MOL0     H69509   7.621   4.744   7.546 -1.1537 -0.1284  0.3824
  515MOL0     H69510   7.784   4.671   7.683 -1.5445 -1.4582 -0.6176
  515MOL0     H69511   9.408   3.794   8.452 -0.0049  0.3016  0.0864
  515MOL0     H69512   9.608   3.655   8.389  0.6754  0.9483 -2.2068
  515MOL0     H69513   9.954   3.426   8.447 -0.1459  2.1568 -1.8910
  515MOL0     H69514  10.166   3.377   8.328  0.0285 -0.9670  2.9746
  515MOL0     H69515  10.127   3.187   7.926  1.1616 -0.0112 -1.1656
  515MOL0     H69516  10.282   3.262   7.904  0.4538  1.9186  0.5999
  515MOL0     H69517  10.322   3.033   7.931  1.2202  1.4249 -1.9677
  515MOL0     H69518  10.242   3.031   8.093 -1.0115  0.2301 -1.0761
  515MOL0     H69519  10.426   3.159   8.182 -0.3581 -2.3808  1.6367
  515MOL0     H69520  10.480   3.207   8.018  0.6789  2.3411  3.1594
  515MOL0     H69521  10.525   2.972   7.963  0.5054 -1.6044  1.3885
  515MOL0     H69522  10.506   2.934   8.133  0.9376  0.5545  1.5058
  515MOL0     H69523  10.886   3.141   8.087  0.7686 -2.8321 -0.6316
  515MOL0     H69524   9.952   3.253   7.991  1.3438  2.7506 -1.1599
  515MOL0     H69525   9.732   3.278   8.114 -0.6316 -0.3023 -0.0223
  516MOL0     O69526   8.708   4.705   4.538 -0.2226 -0.4991 -0.3278
  516MOL0     C69527   8.698   4.829   4.557  0.7303  0.3299  0.0810
  516MOL0     O69528   8.575   4.892   4.579  0.6225 -0.4224  0.8234
  516MOL0     C69529   8.456   4.823   4.553 -0.4435  1.0092 -1.2390
  516MOL0     C69530   8.360   4.876   4.469  0.2470  0.1961 -0.4241
  516MOL0     C69531   8.242   4.802   4.441 -0.0804 -0.2759 -0.1743
  516MOL0     C69532   8.221   4.675   4.488  0.2950 -0.4193 -0.2263
  516MOL0     O69533   8.094   4.619   4.467 -0.0737 -0.4762 -0.2731
  516MOL0     C69534   8.053   4.498   4.532  0.4803 -0.0780 -0.4124
  516MOL0     C69535   7.930   4.448   4.461  0.5647 -0.1488 -0.3910
  516MOL0     C69536   7.824   4.565   4.436  0.2485  0.0222  0.4517
  516MOL0     C69537   7.733   4.510   4.330 -0.2051  0.4325 -0.2315
  516MOL0     C69538   7.622   4.598   4.274  0.0082 -0.2606 -0.2741
  516MOL0     C69539   7.516   4.621   4.368  0.3470 -0.5996  0.4609
  516MOL0     C69540   7.419   4.735   4.328 -0.5589 -0.7798  0.3322
  516MOL0     C69541   7.474   4.875   4.328 -0.9925  0.1966 -0.5833
  516MOL0     N69542   7.372   4.963   4.276  0.2757 -0.2721  0.4970
  516MOL0     C69543   7.334   4.967   4.146  0.4475 -0.2512  0.4138
  516MOL0     C69544   7.231   5.061   4.133  0.1588  0.1539 -0.4316
  516MOL0     C69545   7.151   5.103   4.016 -0.3206 -0.6257 -0.2660
  516MOL0     C69546   7.046   5.007   3.967  0.5071 -0.0452 -0.3170
  516MOL0     C69547   6.925   5.078   3.907 -0.0695  0.2400  0.1335
  516MOL0     C69548   6.810   4.979   3.878 -0.0366 -0.4104 -0.4441
  516MOL0     O69549   6.701   5.058   3.815 -0.4644 -0.2841  0.1540
  516MOL0     C69550   6.593   4.992   3.768 -0.0699  0.4222 -0.0368
  516MOL0     C69551   6.485   5.068   3.719  0.4351  0.5904 -0.7381
  516MOL0     C69552   6.364   5.011   3.676 -0.1587 -0.2183  1.1084
  516MOL0     C69553   6.267   5.103   3.606  0.5086 -0.5089  0.2161
  516MOL0     C69554   6.347   4.871   3.675 -1.1424 -0.5960  0.6948
  516MOL0     C69555   6.215   4.810   3.637  0.2967 -0.1442  0.1134
  516MOL0     O69556   6.101   4.872   3.653  0.1100  0.3361 -0.9506
  516MOL0     C69557   5.976   4.810   3.622 -0.6619 -0.0656  0.5962
  516MOL0     C69558   5.879   4.868   3.532  0.3660 -0.3485 -0.1032
  516MOL0     C69559   5.752   4.810   3.515  0.1492 -0.2376 -0.0107
  516MOL0     C69560   5.728   4.689   3.582  0.3082 -0.0817  0.5549
  516MOL0     O69561   5.602   4.636   3.563  0.3770 -0.1269 -0.1001
  516MOL0     C69562   5.572   4.494   3.606 -0.6786  0.1459 -0.8422
  516MOL0     C69563   5.426   4.461   3.605 -0.0008 -0.2449  0.3551
  516MOL0     C69564   5.342   4.537   3.707 -0.1609 -0.4240 -0.6475
  516MOL0     C69565   5.197   4.501   3.671  0.8856 -0.0475 -1.0592
  516MOL0     C69566   5.108   4.584   3.763  0.3464 -0.9194  0.5463
  516MOL0     C69567   4.956   4.547   3.738 -0.8809  0.2568  0.1560
  516MOL0     C69568   4.868   4.558   3.861  0.8143 -0.6673  0.0301
  516MOL0     C69569   4.730   4.530   3.833 -0.0183 -0.2545  0.5859
  516MOL0    Cl69570   4.640   4.663   3.751 -0.0139 -0.0995  0.2408
  516MOL0     C69571   5.824   4.635   3.658  0.3734  0.1500 -0.3096
  516MOL0     C69572   5.935   4.698   3.697 -0.4932 -0.2038 -0.0897
  516MOL0     O69573   6.226   4.699   3.582 -0.1931 -0.0166 -0.1352
  516MOL0     C69574   6.451   4.796   3.734  0.1251  0.3539 -0.1572
  516MOL0     C69575   6.579   4.851   3.769  0.1861  0.6319 -0.4327
  516MOL0     N69576   7.201   5.101   4.259  0.6588  0.0835  1.6130
  516MOL0     N69577   7.274   5.039   4.338 -0.2841 -0.0247 -0.1773
  516MOL0     C69578   8.320   4.627   4.580  0.0377 -0.7483 -0.5531
  516MOL0     C69579   8.432   4.698   4.623  0.1566  0.2095 -0.1663
  516MOL0     C69580   8.821   4.905   4.558  0.5767 -0.3203 -0.1986
  516MOL0     C69581   8.823   5.030   4.619  0.4632 -0.1730 -0.2979
  516MOL0     C69582   8.934   5.117   4.594 -0.5246 -0.2045  0.1160
  516MOL0     C69583   9.055   5.071   4.548  0.0953  0.3770 -0.0576
  516MOL0     O69584   9.160   5.160   4.526 -0.5560 -0.0040  0.2353
  516MOL0     C69585   9.282   5.118   4.460 -0.7169 -0.5298 -0.0649
  516MOL0     C69586   9.380   5.242   4.439  0.3787 -0.8427 -0.1736
  516MOL0     C69587   9.521   5.190   4.443 -0.0482 -0.4634  0.4393
  516MOL0     C69588   9.565   5.106   4.321 -0.7693 -0.3035 -0.1095
  516MOL0     C69589   9.601   5.201   4.212  0.8766  0.6030 -0.0956
  516MOL0     C69590   9.636   5.265   4.118  0.3336  0.0511  0.1183
  516MOL0     C69591   9.060   4.933   4.521  0.6499  0.1674  0.1916
  516MOL0     C69592   8.941   4.851   4.516 -0.5626  0.3851  0.9618
  516MOL0     H69593   8.362   4.979   4.434 -0.9610  0.6421  0.7723
  516MOL0     H69594   8.170   4.849   4.375  0.2081  1.2792  0.5666
  516MOL0     H69595   8.130   4.421   4.524 -0.8914 -1.5134 -0.3346
  516MOL0     H69596   8.041   4.520   4.639 -0.0768 -1.7384 -0.0983
  516MOL0     H69597   7.969   4.402   4.369  2.2093  1.6769 -0.6805
  516MOL0     H69598   7.880   4.375   4.524 -0.2258  0.5776 -0.1484
  516MOL0     H69599   7.771   4.588   4.528 -0.8130  0.3849 -0.2324
  516MOL0     H69600   7.863   4.664   4.409  0.0633  0.2280  0.9344
  516MOL0     H69601   7.799   4.472   4.252  0.4567 -0.5152  0.7509
  516MOL0     H69602   7.685   4.419   4.368 -0.4521  0.0081 -1.5373
  516MOL0     H69603   7.666   4.692   4.239  0.9986 -0.0066  1.5301
  516MOL0     H69604   7.574   4.544   4.191  2.4834 -3.5152  0.2012
  516MOL0     H69605   7.460   4.527   4.379  0.3813 -0.5986  0.6563
  516MOL0     H69606   7.559   4.636   4.468  2.3992 -2.2379 -0.1180
  516MOL0     H69607   7.385   4.718   4.226  0.7800  0.1414 -0.2895
  516MOL0     H69608   7.332   4.732   4.395  0.1966  1.4244  1.5229
  516MOL0     H69609   7.567   4.886   4.271  1.0989  0.2212  2.5792
  516MOL0     H69610   7.515   4.903   4.425  0.2178  0.1150 -1.0440
  516MOL0     H69611   7.378   4.931   4.054 -0.5293 -1.1873  0.2853
  516MOL0     H69612   7.102   5.198   4.037 -2.5525 -1.2309 -2.2492
  516MOL0     H69613   7.219   5.129   3.935  0.5884 -1.2099  0.2926
  516MOL0     H69614   7.010   4.949   4.052 -0.1347 -1.7028 -1.6563
  516MOL0     H69615   7.089   4.945   3.888 -0.9433 -1.8539  0.2587
  516MOL0     H69616   6.946   5.115   3.807 -1.3321  0.1777 -0.1752
  516MOL0     H69617   6.879   5.155   3.971 -3.6622 -0.6742 -1.1178
  516MOL0     H69618   6.771   4.937   3.972 -1.9607  3.5527  0.7428
  516MOL0     H69619   6.858   4.908   3.810  4.4073  0.0788  1.8337
  516MOL0     H69620   6.511   5.173   3.721  1.0474  0.4342 -0.0279
  516MOL0     H69621   6.177   5.123   3.664  1.6897 -1.6872  2.6199
  516MOL0     H69622   6.305   5.199   3.570 -3.7968  1.6071  0.6913
  516MOL0     H69623   6.237   5.044   3.519 -0.1834 -0.2917  0.3058
  516MOL0     H69624   5.906   4.968   3.499 -1.7107  0.6348  0.9723
  516MOL0     H69625   5.680   4.860   3.451 -0.3551  0.9184  1.3943
  516MOL0     H69626   5.621   4.432   3.530 -1.0959 -1.1311 -0.0969
  516MOL0     H69627   5.624   4.468   3.698 -0.2415 -1.6839 -1.5601
  516MOL0     H69628   5.393   4.473   3.502  2.4817  0.6355 -0.3992
  516MOL0     H69629   5.416   4.355   3.632  0.5875 -0.3599  0.1450
  516MOL0     H69630   5.351   4.645   3.696  2.5657 -0.4178  0.7733
  516MOL0     H69631   5.376   4.504   3.805 -1.0154 -3.4830 -1.2713
  516MOL0     H69632   5.187   4.540   3.569 -0.1890  0.8029 -0.6392
  516MOL0     H69633   5.184   4.392   3.671 -0.9010  0.1060  1.1418
  516MOL0     H69634   5.131   4.691   3.756  0.7231 -1.1026 -2.7642
  516MOL0     H69635   5.127   4.555   3.867 -1.2098 -0.5110  0.9721
  516MOL0     H69636   4.924   4.605   3.652 -0.4976 -0.2740 -0.3548
  516MOL0     H69637   4.956   4.442   3.707  0.5107  0.5464 -0.9086
  516MOL0     H69638   4.878   4.657   3.906  0.6131 -0.3400 -0.6290
  516MOL0     H69639   4.895   4.485   3.938  0.6850 -1.8494 -1.0126
  516MOL0     H69640   4.672   4.512   3.924 -1.3069  3.4119  0.6837
  516MOL0     H69641   4.724   4.449   3.760  1.7280  0.9529 -1.0006
  516MOL0     H69642   5.804   4.541   3.707 -0.0582  0.7592  0.7040
  516MOL0     H69643   6.006   4.651   3.765  2.5836  2.1838 -1.3811
  516MOL0     H69644   6.425   4.692   3.748 -0.2768  0.4676 -0.0428
  516MOL0     H69645   6.658   4.788   3.810 -0.5260 -0.0539 -0.0970
  516MOL0     H69646   8.312   4.535   4.637  2.3329 -0.6864 -0.0522
  516MOL0     H69647   8.502   4.658   4.695  0.3373  1.7682  0.5760
  516MOL0     H69648   8.729   5.074   4.651 -0.5483 -1.4099 -1.4712
  516MOL0     H69649   8.914   5.223   4.590 -0.6147 -0.1414 -4.8925
  516MOL0     H69650   9.329   5.041   4.522 -0.8476 -0.6512 -0.1166
  516MOL0     H69651   9.258   5.069   4.366 -1.5203 -2.1399  0.9230
  516MOL0     H69652   9.363   5.313   4.520  1.0001 -2.2233  1.2237
  516MOL0     H69653   9.349   5.299   4.351 -1.1788 -1.4873 -0.0883
  516MOL0     H69654   9.516   5.123   4.530 -0.3667  1.4582  1.9702
  516MOL0     H69655   9.594   5.269   4.463 -1.1865  0.2186  2.1090
  516MOL0     H69656   9.483   5.047   4.280  0.1843  0.3176 -3.1190
  516MOL0     H69657   9.652   5.048   4.353  0.7885  1.8598 -0.1915
  516MOL0     H69658   9.681   5.328   4.043  0.4903 -2.3338 -1.9193
  516MOL0     H69659   9.149   4.883   4.485 -1.5698 -4.0406 -0.0354
  516MOL0     H69660   8.946   4.749   4.478  1.5314 -0.0943  2.3560
  517MOL0     O69661   8.150   7.285   9.086  0.0216  0.6905 -0.2557
  517MOL0     C69662   8.167   7.177   9.141  0.0622 -0.2023  0.3430
  517MOL0     O69663   8.072   7.081   9.161 -0.2726  0.1842 -0.1248
  517MOL0     C69664   7.949   7.105   9.114  0.2047  0.1287  0.3643
  517MOL0     C69665   7.862   7.139   9.215 -0.3254 -0.3374  0.3707
  517MOL0     C69666   7.730   7.157   9.178  1.0854  0.2931 -0.4060
  517MOL0     C69667   7.675   7.136   9.046 -0.4023  0.2250 -0.7605
  517MOL0     O69668   7.544   7.156   9.009  0.3101 -0.0581 -0.0286
  517MOL0     C69669   7.453   7.163   9.122  0.5155  0.7281  0.3335
  517MOL0     C69670   7.312   7.172   9.057 -0.1181 -0.6506 -0.1109
  517MOL0     C69671   7.205   7.124   9.163  0.5364  0.1346  0.1876
  517MOL0     C69672   7.069   7.181   9.120 -0.2751  0.4470  0.1463
  517MOL0     C69673   6.963   7.124   9.208  0.8959 -0.2908  0.6258
  517MOL0     C69674   6.836   7.198   9.183 -0.0474 -1.1775  0.2908
  517MOL0     C69675   6.714   7.143   9.245 -0.4370 -0.3373 -0.5584
  517MOL0     C69676   6.721   7.134   9.400 -0.9946 -0.1645  0.6914
  517MOL0     N69677   6.590   7.109   9.464  0.2536 -0.5488  0.0178
  517MOL0     C69678   6.533   7.196   9.560 -0.1394  0.0174 -0.5877
  517MOL0     C69679   6.428   7.125   9.619 -0.4346 -0.3162 -0.2092
  517MOL0     C69680   6.327   7.179   9.718  1.1442 -0.6580  0.0459
  517MOL0     C69681   6.256   7.298   9.659 -0.7919  0.6490 -0.1349
  517MOL0     C69682   6.160   7.358   9.760 -0.5074  0.0700 -0.4863
  517MOL0     C69683   6.031   7.283   9.801  0.0910  0.6104  0.4743
  517MOL0     O69684   5.953   7.248   9.687  0.6838 -0.4662 -0.0310
  517MOL0     C69685   5.824   7.221   9.707  0.5871  0.3536  0.0279
  517MOL0     C69686   5.735   7.203   9.599 -0.9748  0.4573 -0.4875
  517MOL0     C69687   5.597   7.183   9.615  0.0167 -0.3258 -0.0645
  517MOL0     C69688   5.503   7.190   9.498 -0.2807 -0.6842 -0.2946
  517MOL0     C69689   5.547   7.157   9.744 -0.3043  0.1552 -0.3351
  517MOL0     C69690   5.405   7.123   9.774 -0.4540  0.0204  0.4053
  517MOL0     O69691   5.305   7.191   9.707 -0.1981 -0.1258 -0.0507
  517MOL0     C69692   5.193   7.210   9.784  0.5255 -0.5178  0.2937
  517MOL0     C69693   5.068   7.184   9.726  0.0842  0.4095 -0.1868
  517MOL0     C69694   4.948   7.198   9.797  0.3400  0.2406  0.0517
  517MOL0     C69695   4.949   7.222   9.933  0.5507 -0.5003  0.0034
  517MOL0     O69696   4.832   7.206  10.003  0.9519 -0.6518 -0.1365
  517MOL0     C69697   4.834   7.230  10.150 -0.3195  0.4751  0.7558
  517MOL0     C69698   4.698   7.229  10.213  0.1605  0.2240 -0.2141
  517MOL0     C69699   4.593   7.338  10.164 -0.1028 -0.3444  0.6786
  517MOL0     C69700   4.465   7.302  10.229  0.6374 -0.0755 -0.3638
  517MOL0     C69701   4.348   7.389  10.179  0.4619 -0.1984 -0.3959
  517MOL0     C69702   4.213   7.332  10.228  0.0953  0.0698 -0.8058
  517MOL0     C69703   4.096   7.428  10.191 -0.1456  0.3867  0.2473
  517MOL0     C69704   3.956   7.369  10.226  0.2919  0.2708 -0.8757
  517MOL0    Cl69705   3.833   7.485  10.165  0.1041 -0.3522 -0.1761
  517MOL0     C69706   5.075   7.251   9.991 -0.6783  0.9457  0.1887
  517MOL0     C69707   5.195   7.243   9.921  0.1714  1.2396  1.1969
  517MOL0     O69708   5.387   7.039   9.862 -0.0895  0.1472  0.0580
  517MOL0     C69709   5.634   7.164   9.852 -0.7782  0.7006 -0.4841
  517MOL0     C69710   5.773   7.194   9.834  0.3181 -0.7029  0.3597
  517MOL0     N69711   6.428   6.998   9.560 -0.0027 -0.4049 -0.4923
  517MOL0     N69712   6.523   6.991   9.468  0.3870  0.4917  0.4295
  517MOL0     C69713   7.763   7.099   8.948 -0.0261 -0.7532 -0.0112
  517MOL0     C69714   7.902   7.075   8.982  1.1139 -0.2030  0.4413
  517MOL0     C69715   8.297   7.163   9.212  1.3655 -0.9397  0.3153
  517MOL0     C69716   8.326   7.033   9.258 -0.1624 -0.3422  0.2130
  517MOL0     C69717   8.432   7.007   9.337 -0.1818  0.2394  0.3134
  517MOL0     C69718   8.523   7.105   9.365 -0.3188  0.0594  0.1565
  517MOL0     O69719   8.644   7.061   9.411 -0.3474  0.5450  0.5757
  517MOL0     C69720   8.739   7.144   9.480 -0.6383 -0.3176  0.4022
  517MOL0     C69721   8.803   7.058   9.591  0.5380  0.2305  0.5576
  517MOL0     C69722   8.880   7.143   9.690  0.2541 -0.1162  0.6015
  517MOL0     C69723   8.915   7.064   9.821  0.4093  0.0092 -0.5445
  517MOL0     C69724   9.007   7.134   9.912  0.6483 -0.3366  0.0797
  517MOL0     C69725   9.087   7.182   9.989 -0.5623 -1.1830 -0.7144
  517MOL0     C69726   8.486   7.243   9.334 -0.8628  0.3910  0.3776
  517MOL0     C69727   8.374   7.271   9.257 -1.2458 -0.5303  0.5065
  517MOL0     H69728   7.893   7.148   9.319 -1.4693 -1.9620  0.9027
  517MOL0     H69729   7.662   7.189   9.256 -0.8635  0.9513 -2.2833
  517MOL0     H69730   7.476   7.082   9.191  0.2265  1.8871  1.8355
  517MOL0     H69731   7.472   7.255   9.179  2.5669 -0.7070  2.1212
  517MOL0     H69732   7.291   7.277   9.037  0.5970 -0.0375  2.0749
  517MOL0     H69733   7.307   7.113   8.965  2.8415  2.1974 -2.3229
  517MOL0     H69734   7.201   7.015   9.165  2.6524 -0.0214 -1.2302
  517MOL0     H69735   7.229   7.157   9.265  0.2620  0.8709  0.0248
  517MOL0     H69736   7.085   7.289   9.114  1.6296  0.1786 -0.0062
  517MOL0     H69737   7.046   7.137   9.023 -1.7893 -2.3364  1.6339
  517MOL0     H69738   6.940   7.019   9.187  1.7654 -0.8805  2.3629
  517MOL0     H69739   6.997   7.148   9.309  1.8075 -0.1844  0.3080
  517MOL0     H69740   6.850   7.298   9.224  2.2240 -1.1090 -0.4686
  517MOL0     H69741   6.824   7.205   9.074 -0.9599 -0.5880  0.4192
  517MOL0     H69742   6.634   7.213   9.221  0.1636  1.2219  1.6724
  517MOL0     H69743   6.694   7.043   9.205  3.6641 -1.2263 -0.8594
  517MOL0     H69744   6.773   7.223   9.437 -0.8652  1.2521 -2.5775
  517MOL0     H69745   6.782   7.047   9.423  0.9115  0.2318 -2.3742
  517MOL0     H69746   6.552   7.302   9.576 -0.3420 -0.4803  5.0451
  517MOL0     H69747   6.259   7.096   9.740 -1.8808  1.9295  1.1635
  517MOL0     H69748   6.380   7.211   9.808  2.8304 -3.9798  0.3978
  517MOL0     H69749   6.200   7.277   9.567 -1.6309 -1.8012  0.8432
  517MOL0     H69750   6.335   7.372   9.647  2.7504 -2.7628  0.2457
  517MOL0     H69751   6.116   7.444   9.709 -1.9417 -0.6721 -0.5708
  517MOL0     H69752   6.215   7.389   9.849  2.2315 -5.8374  0.3597
  517MOL0     H69753   5.976   7.350   9.868  1.2550  1.9475  0.1523
  517MOL0     H69754   6.054   7.190   9.854 -1.9506  0.3405  0.9865
  517MOL0     H69755   5.773   7.228   9.500  1.2652 -2.3345 -0.4369
  517MOL0     H69756   5.450   7.097   9.479 -1.2364  0.0584 -1.4418
  517MOL0     H69757   5.430   7.270   9.514  0.6489 -0.0281  0.8933
  517MOL0     H69758   5.562   7.215   9.410  0.4770 -0.0299  0.3786
  517MOL0     H69759   5.066   7.172   9.618 -0.0024 -0.4566 -0.0940
  517MOL0     H69760   4.851   7.174   9.753 -1.1196 -0.1232  3.1726
  517MOL0     H69761   4.898   7.161  10.205  0.9468  1.8069  1.0244
  517MOL0     H69762   4.876   7.329  10.170  1.7032 -0.2538  0.3906
  517MOL0     H69763   4.658   7.128  10.201 -1.4141  0.7345  0.4503
  517MOL0     H69764   4.710   7.234  10.322 -2.2188 -0.0824  0.1254
  517MOL0     H69765   4.580   7.324  10.056 -0.0929 -0.9692  0.7592
  517MOL0     H69766   4.623   7.440  10.192  0.8002 -0.5153  0.3828
  517MOL0     H69767   4.436   7.198  10.215 -0.6535  0.1281  0.6059
  517MOL0     H69768   4.462   7.314  10.338  0.3561  0.4893 -0.4323
  517MOL0     H69769   4.346   7.391  10.069  1.9885  0.8842 -0.4300
  517MOL0     H69770   4.367   7.492  10.210 -1.0946  1.4195 -4.1621
  517MOL0     H69771   4.209   7.232  10.184  3.8533  0.1825 -1.7680
  517MOL0     H69772   4.209   7.327  10.337 -3.2990  3.2600 -0.5666
  517MOL0     H69773   4.100   7.450  10.084  1.9250 -2.2540 -0.3029
  517MOL0     H69774   4.119   7.518  10.250  3.8947 -0.2123 -0.1398
  517MOL0     H69775   3.961   7.361  10.335  0.3131  2.0532 -0.7167
  517MOL0     H69776   3.942   7.267  10.190  0.8974 -0.1579  0.0682
  517MOL0     H69777   5.091   7.263  10.097  2.8141  1.7346 -0.3063
  517MOL0     H69778   5.282   7.270   9.980 -0.0928 -0.5352  2.4866
  517MOL0     H69779   5.602   7.141   9.953 -2.2973 -0.5083 -1.2074
  517MOL0     H69780   5.839   7.198   9.920 -0.8447 -2.6756  1.4376
  517MOL0     H69781   7.726   7.092   8.846  2.2826  0.2877 -1.0191
  517MOL0     H69782   7.970   7.030   8.912 -0.5784 -1.8240 -0.2315
  517MOL0     H69783   8.253   6.955   9.242 -0.7256 -0.1386  1.6072
  517MOL0     H69784   8.455   6.901   9.351 -2.2709 -0.3845 -0.6687
  517MOL0     H69785   8.808   7.190   9.409 -2.4133 -0.9466 -1.8629
  517MOL0     H69786   8.684   7.227   9.526 -0.0497 -0.0695  0.6718
  517MOL0     H69787   8.869   6.982   9.549  1.7817  0.6192  1.7334
  517MOL0     H69788   8.718   7.011   9.642 -0.4054 -0.1080 -1.2552
  517MOL0     H69789   8.823   7.232   9.720  0.0103 -0.3371  0.7934
  517MOL0     H69790   8.973   7.182   9.647  0.2244  0.2066  0.8282
  517MOL0     H69791   8.960   6.966   9.803  0.3416  0.2874 -2.3854
  517MOL0     H69792   8.825   7.043   9.881  1.4626 -2.2316  0.3668
  517MOL0     H69793   9.159   7.233  10.049  1.8892 -0.9684 -3.6375
  517MOL0     H69794   8.550   7.325   9.365  1.5332 -1.4020  0.4463
  517MOL0     H69795   8.342   7.367   9.218  0.1924 -0.3336 -0.2705
  518MOL0     O69796   0.495   5.862   7.383 -0.7021 -0.1439  0.3315
  518MOL0     C69797   0.578   5.900   7.287  0.3285  0.9571 -0.9054
  518MOL0     O69798   0.537   5.903   7.157 -0.4407 -1.5580 -0.3566
  518MOL0     C69799   0.423   5.851   7.115  1.0009  1.0889  0.5894
  518MOL0     C69800   0.296   5.870   7.169 -0.7601  1.0939 -0.2449
  518MOL0     C69801   0.186   5.826   7.111 -0.0794 -0.2453  0.0628
  518MOL0     C69802   0.179   5.780   6.979 -0.1850  0.4794 -0.3921
  518MOL0     O69803   0.066   5.742   6.912  0.0415 -0.0960 -0.2409
  518MOL0     C69804  -0.060   5.799   6.946 -0.5843  0.2411  0.0625
  518MOL0     C69805  -0.124   5.848   6.825  0.5644 -0.7842 -0.7915
  518MOL0     C69806  -0.276   5.892   6.844 -1.0071 -0.3758  0.2138
  518MOL0     C69807  -0.318   5.955   6.713  1.0214 -0.0621  0.1687
  518MOL0     C69808  -0.463   5.994   6.713  0.2318  0.1633  0.0570
  518MOL0     C69809  -0.513   6.093   6.612 -0.1117  0.8487  0.3913
  518MOL0     C69810  -0.657   6.119   6.629  0.2016 -0.3886  0.6507
  518MOL0     C69811  -0.697   6.242   6.548  0.5814 -0.4298  0.2929
  518MOL0     N69812  -0.836   6.249   6.519  0.6545 -0.1708  0.2595
  518MOL0     C69813  -0.915   6.148   6.473  0.1882 -0.8006  0.9061
  518MOL0     C69814  -1.034   6.199   6.456 -0.0841  0.5893  1.0077
  518MOL0     C69815  -1.163   6.131   6.414 -0.4819 -0.2643 -0.2872
  518MOL0     C69816  -1.249   6.214   6.320  0.6875 -0.2569  0.4907
  518MOL0     C69817  -1.390   6.149   6.297 -0.0842  0.0172  0.9005
  518MOL0     C69818  -1.485   6.152   6.414 -0.0219  0.4811 -0.3772
  518MOL0     O69819  -1.551   6.282   6.434 -1.0280  0.7452 -0.2903
  518MOL0     C69820  -1.685   6.288   6.412  0.4727 -0.0085  0.0535
  518MOL0     C69821  -1.727   6.263   6.289 -0.6840  0.3861 -0.0304
  518MOL0     C69822  -1.860   6.291   6.246  0.0104 -0.1513 -1.0380
  518MOL0     C69823  -1.886   6.271   6.105  0.0937  0.1992 -0.6928
  518MOL0     C69824  -1.955   6.333   6.346 -0.0609 -1.1252 -0.3661
  518MOL0     C69825  -2.097   6.363   6.312 -0.0313  0.8329 -0.0669
  518MOL0     O69826  -2.166   6.429   6.407 -0.0745 -0.0236  0.0976
  518MOL0     C69827  -2.301   6.424   6.435 -0.2439  0.4503  0.5230
  518MOL0     C69828  -2.352   6.539   6.502 -0.4972 -0.1771  0.6048
  518MOL0     C69829  -2.484   6.559   6.523 -0.0102 -0.1065  0.3088
  518MOL0     C69830  -2.576   6.460   6.481 -0.3359  0.3509  0.1398
  518MOL0     O69831  -2.713   6.475   6.504 -0.0121  0.3182 -0.4119
  518MOL0     C69832  -2.804   6.361   6.517 -0.5673  0.1713  0.4400
  518MOL0     C69833  -2.931   6.369   6.599 -0.1516  0.1411  0.7347
  518MOL0     C69834  -2.921   6.406   6.738 -1.2195 -0.2326 -0.2268
  518MOL0     C69835  -2.894   6.555   6.763 -0.8728 -0.0482  0.3945
  518MOL0     C69836  -2.905   6.598   6.911  0.6746  0.1027 -0.3853
  518MOL0     C69837  -2.789   6.558   7.001 -0.2380 -0.1570  0.1676
  518MOL0     C69838  -2.825   6.613   7.147  0.1755  0.3115  0.2574
  518MOL0     C69839  -2.732   6.543   7.249 -0.0277 -0.5669  0.9229
  518MOL0    Cl69840  -2.764   6.615   7.412  0.0313 -0.2544 -0.1237
  518MOL0     C69841  -2.527   6.340   6.427 -0.2527 -0.4846  0.5299
  518MOL0     C69842  -2.389   6.316   6.411 -0.2987  0.0365 -0.5747
  518MOL0     O69843  -2.152   6.305   6.217  0.3203  0.6386 -0.7345
  518MOL0     C69844  -1.907   6.358   6.481  0.0880  0.1344 -0.1343
  518MOL0     C69845  -1.771   6.341   6.508  0.0475  0.8161 -0.7706
  518MOL0     N69846  -1.030   6.329   6.509 -0.6869  0.2684  1.1660
  518MOL0     N69847  -0.909   6.358   6.548  0.1049 -0.2123 -0.2903
  518MOL0     C69848   0.302   5.764   6.919 -0.3226 -0.1961 -0.7120
  518MOL0     C69849   0.421   5.798   6.984  0.4517  0.2846  0.0557
  518MOL0     C69850   0.715   5.942   7.318 -0.5654  0.1763  0.8347
  518MOL0     C69851   0.787   6.018   7.224 -0.0286 -0.3796 -0.2083
  518MOL0     C69852   0.924   6.048   7.245  0.9280  0.3617  0.3681
  518MOL0     C69853   0.989   5.993   7.364 -0.0122  0.1539 -0.2773
  518MOL0     O69854   1.122   6.004   7.401  0.3759  0.5150  0.2883
  518MOL0     C69855   1.212   6.077   7.316 -0.3097  0.3105  0.0246
  518MOL0     C69856   1.206   6.232   7.344  0.3590  0.2254  0.1671
  518MOL0     C69857   1.348   6.297   7.315 -0.6099 -0.1575 -0.1131
  518MOL0     C69858   1.362   6.430   7.392  0.6230  0.3413 -0.4474
  518MOL0     C69859   1.491   6.495   7.367  0.3540 -0.9761  0.0543
  518MOL0     C69860   1.602   6.541   7.343  0.3638 -1.1336  0.0037
  518MOL0     C69861   0.913   5.932   7.459 -0.0778  0.6793 -0.5064
  518MOL0     C69862   0.777   5.897   7.434 -0.0076 -0.6616 -1.4399
  518MOL0     H69863   0.281   5.915   7.267 -0.1238  4.2213 -1.4650
  518MOL0     H69864   0.087   5.844   7.152  0.2573  0.1208  0.7227
  518MOL0     H69865  -0.125   5.717   6.978  0.5053 -0.9612 -0.7158
  518MOL0     H69866  -0.063   5.874   7.026  2.8215  0.2616  0.3250
  518MOL0     H69867  -0.071   5.935   6.784  0.7044 -1.1937 -1.5009
  518MOL0     H69868  -0.117   5.770   6.749  1.0065 -1.6720  0.1317
  518MOL0     H69869  -0.329   5.801   6.873  0.2640 -0.8745  1.0546
  518MOL0     H69870  -0.273   5.969   6.921  0.4282  0.3419 -0.5121
  518MOL0     H69871  -0.259   6.045   6.694  0.0622  0.9467  1.7325
  518MOL0     H69872  -0.296   5.880   6.636  0.3698  1.3721 -1.4706
  518MOL0     H69873  -0.508   5.896   6.695  2.1170 -0.8829  0.6880
  518MOL0     H69874  -0.484   6.026   6.815  0.1552 -1.8544  0.7195
  518MOL0     H69875  -0.466   6.191   6.621  0.8481  0.6690 -2.0350
  518MOL0     H69876  -0.509   6.061   6.508 -0.9742  1.0015  0.3018
  518MOL0     H69877  -0.710   6.029   6.596 -1.3334 -0.6289  3.4843
  518MOL0     H69878  -0.682   6.134   6.734  1.3450 -0.2115  0.9145
  518MOL0     H69879  -0.645   6.241   6.452  2.8394 -1.0057  1.4410
  518MOL0     H69880  -0.669   6.334   6.600 -0.5262  1.2468 -1.9196
  518MOL0     H69881  -0.890   6.045   6.450 -2.0784 -1.1021 -0.5095
  518MOL0     H69882  -1.138   6.040   6.359 -4.1588 -0.7283 -1.4449
  518MOL0     H69883  -1.224   6.103   6.501  0.2107  2.7669  1.3185
  518MOL0     H69884  -1.193   6.239   6.230 -0.0464  1.2450  0.4321
  518MOL0     H69885  -1.258   6.312   6.368  2.2899 -0.5857  1.5586
  518MOL0     H69886  -1.370   6.044   6.273 -2.9041 -0.6037  0.9362
  518MOL0     H69887  -1.437   6.200   6.213  0.6177  1.6662  1.4631
  518MOL0     H69888  -1.435   6.127   6.508 -0.8864 -1.6837 -0.4371
  518MOL0     H69889  -1.562   6.078   6.390  0.0218  0.7865 -1.4788
  518MOL0     H69890  -1.658   6.216   6.220 -0.6757 -1.0133  0.9033
  518MOL0     H69891  -1.939   6.359   6.068 -1.7836  0.4976  2.3177
  518MOL0     H69892  -1.792   6.261   6.051  0.3511 -2.1547  0.0863
  518MOL0     H69893  -1.948   6.184   6.082 -1.8984  1.8779 -1.9504
  518MOL0     H69894  -2.279   6.614   6.533 -0.5012  0.7603 -1.4789
  518MOL0     H69895  -2.522   6.649   6.571 -0.5601  1.0074 -2.0511
  518MOL0     H69896  -2.820   6.332   6.413  0.6247  1.0842 -0.0201
  518MOL0     H69897  -2.749   6.279   6.563  0.2759  1.9783  2.8897
  518MOL0     H69898  -2.999   6.428   6.538  0.0508 -0.9218 -0.5793
  518MOL0     H69899  -2.977   6.269   6.594  0.8414 -0.2890 -0.0938
  518MOL0     H69900  -2.831   6.359   6.779 -1.9073 -0.3164  1.2367
  518MOL0     H69901  -3.005   6.369   6.796  0.3516  0.0207  2.3813
  518MOL0     H69902  -2.804   6.600   6.719  0.1454 -0.6648  1.8041
  518MOL0     H69903  -2.975   6.610   6.713  0.2583  2.2701  0.9337
  518MOL0     H69904  -3.002   6.560   6.947 -0.2042  3.3733  1.0393
  518MOL0     H69905  -2.903   6.707   6.908  3.9461  0.1247 -0.6969
  518MOL0     H69906  -2.772   6.450   7.003  2.5523  0.2316  1.7359
  518MOL0     H69907  -2.701   6.605   6.956 -1.1559 -0.3404 -1.9813
  518MOL0     H69908  -2.930   6.600   7.173  0.4212 -0.1100  1.0708
  518MOL0     H69909  -2.815   6.722   7.143 -1.1253  0.4202 -0.6979
  518MOL0     H69910  -2.628   6.541   7.213 -0.6869  1.9289 -1.4578
  518MOL0     H69911  -2.757   6.436   7.254  1.6662 -1.2919 -2.6971
  518MOL0     H69912  -2.597   6.265   6.395 -1.8663  1.5473 -0.9739
  518MOL0     H69913  -2.366   6.214   6.381 -5.1145 -1.8498  1.2021
  518MOL0     H69914  -1.971   6.395   6.561 -1.0122 -0.4516 -0.7204
  518MOL0     H69915  -1.724   6.368   6.602 -1.3483 -0.6150  0.4066
  518MOL0     H69916   0.306   5.744   6.812 -1.0526  0.6130 -0.9046
  518MOL0     H69917   0.521   5.796   6.940  0.8919  0.5961  1.0058
  518MOL0     H69918   0.752   6.045   7.125 -1.2113  2.1889  0.8322
  518MOL0     H69919   0.979   6.092   7.163  2.1923  0.5670  1.2834
  518MOL0     H69920   1.313   6.040   7.334 -0.1339  0.2652 -0.9850
  518MOL0     H69921   1.201   6.059   7.208 -0.8875  0.8769 -0.0162
  518MOL0     H69922   1.191   6.232   7.453 -1.5124 -3.0318  0.0307
  518MOL0     H69923   1.119   6.273   7.292 -1.1275 -2.1122  0.6744
  518MOL0     H69924   1.365   6.307   7.207  0.1810 -0.0224  0.0196
  518MOL0     H69925   1.429   6.231   7.347 -0.2730 -0.8085 -2.1699
  518MOL0     H69926   1.363   6.419   7.501  1.8476 -0.1421 -0.4884
  518MOL0     H69927   1.285   6.501   7.361  0.0844 -0.0548 -0.0432
  518MOL0     H69928   1.698   6.587   7.331  0.1896 -1.2011 -1.8270
  518MOL0     H69929   0.944   5.905   7.559  2.9830  1.2385 -1.1975
  518MOL0     H69930   0.733   5.850   7.521  1.4037  3.4395  1.8538
  519MOL0     O69931   6.287   8.291   2.602 -0.4486  0.2819  0.8450
  519MOL0     C69932   6.379   8.209   2.616 -0.5507 -0.1797  0.6182
  519MOL0     O69933   6.360   8.069   2.637 -0.5109 -0.5333  0.0825
  519MOL0     C69934   6.241   8.029   2.686  0.3696 -0.2940  0.1645
  519MOL0     C69935   6.155   8.099   2.764  0.3282 -0.4198 -0.1865
  519MOL0     C69936   6.043   8.039   2.814  0.8097  0.6456  0.1791
  519MOL0     C69937   5.998   7.910   2.782 -0.0461 -0.0697  0.2823
  519MOL0     O69938   5.881   7.866   2.827 -0.4153 -0.2395  0.5602
  519MOL0     C69939   5.838   7.739   2.782  0.9580 -0.4081  0.3162
  519MOL0     C69940   5.681   7.723   2.800 -0.3289 -0.0548  0.5178
  519MOL0     C69941   5.623   7.719   2.943 -0.2165  0.5542  0.3449
  519MOL0     C69942   5.473   7.720   2.954 -0.2403  0.4427 -0.1869
  519MOL0     C69943   5.417   7.715   3.099 -0.5873 -0.0406  0.3292
  519MOL0     C69944   5.267   7.714   3.101  0.7680  0.2067  0.4439
  519MOL0     C69945   5.212   7.768   3.236  0.4683  0.5207 -0.6620
  519MOL0     C69946   5.057   7.779   3.250 -0.1352  0.6998 -0.4016
  519MOL0     N69947   5.028   7.910   3.179  0.2474  0.4786  0.1693
  519MOL0     C69948   4.987   7.922   3.052 -0.2467  0.5746  0.6322
  519MOL0     C69949   4.917   8.042   3.046 -0.1082  0.0730 -0.1925
  519MOL0     C69950   4.850   8.101   2.919  0.4772 -0.2896 -0.5450
  519MOL0     C69951   4.697   8.105   2.934  0.1543  0.3984 -0.1101
  519MOL0     C69952   4.625   7.970   2.955 -0.1324  0.0967  0.1608
  519MOL0     C69953   4.477   7.990   2.929 -0.4496  0.2931  0.3934
  519MOL0     O69954   4.460   8.001   2.783 -0.0032  0.2872 -0.4018
  519MOL0     C69955   4.337   7.988   2.732  0.3156 -0.6960 -0.9879
  519MOL0     C69956   4.321   7.999   2.593  0.4064  0.5525 -0.2895
  519MOL0     C69957   4.198   7.978   2.531  0.6476  0.7037  0.7728
  519MOL0     C69958   4.191   8.003   2.377 -0.2890  0.2541  0.2107
  519MOL0     C69959   4.083   7.940   2.610  0.8333  0.5009  0.3033
  519MOL0     C69960   3.937   7.939   2.564  0.8405 -0.1356 -0.1772
  519MOL0     O69961   3.849   7.862   2.643  0.4023 -0.1457 -0.1155
  519MOL0     C69962   3.725   7.845   2.588 -1.0263 -0.2850  0.5683
  519MOL0     C69963   3.696   7.786   2.467 -0.6526 -0.3037 -0.0899
  519MOL0     C69964   3.566   7.771   2.425 -0.2198 -0.0770  0.0947
  519MOL0     C69965   3.464   7.822   2.498 -0.9146  0.9260  0.0179
  519MOL0     O69966   3.337   7.809   2.458  0.6602  0.4796  0.4851
  519MOL0     C69967   3.295   7.715   2.356  0.4431  0.3473 -0.0359
  519MOL0     C69968   3.147   7.688   2.365  0.1921  0.0548  0.0877
  519MOL0     C69969   3.060   7.819   2.353  0.8892  0.8459 -0.3621
  519MOL0     C69970   2.907   7.785   2.341  1.0236  0.2307  0.6298
  519MOL0     C69971   2.859   7.697   2.460 -0.8800 -1.1713  0.2064
  519MOL0     C69972   2.710   7.687   2.479 -1.0697 -0.0468  0.5377
  519MOL0     C69973   2.674   7.583   2.587 -0.3099 -0.2296  0.2193
  519MOL0     C69974   2.652   7.646   2.725  0.1311 -0.8736 -0.5252
  519MOL0    Cl69975   2.528   7.785   2.726  0.1455 -0.5566  0.3110
  519MOL0     C69976   3.488   7.890   2.613  0.0925  0.2432  0.6088
  519MOL0     C69977   3.622   7.903   2.662 -0.2523 -0.3155 -0.3393
  519MOL0     O69978   3.904   8.004   2.462 -0.0385 -0.1178 -0.6223
  519MOL0     C69979   4.106   7.916   2.750  0.1631 -0.2123 -0.0521
  519MOL0     C69980   4.229   7.936   2.809  0.1607  0.0846 -0.7793
  519MOL0     N69981   4.914   8.096   3.174  0.1517 -0.3217  0.1359
  519MOL0     N69982   4.981   8.021   3.249 -0.6313  0.0179 -0.5899
  519MOL0     C69983   6.088   7.832   2.702 -1.0621 -0.0314  0.3069
  519MOL0     C69984   6.203   7.899   2.650 -0.0011  0.3295  0.4288
  519MOL0     C69985   6.525   8.254   2.582  0.6504 -0.6683  0.2964
  519MOL0     C69986   6.623   8.157   2.567 -0.6656 -0.0910 -0.5870
  519MOL0     C69987   6.760   8.190   2.550 -0.2663  0.4067 -0.4041
  519MOL0     C69988   6.795   8.324   2.532 -0.5535  0.2191  0.4665
  519MOL0     O69989   6.920   8.372   2.504  0.7565 -0.3389  0.2005
  519MOL0     C69990   7.026   8.281   2.479 -0.9503 -0.3586  0.0961
  519MOL0     C69991   7.143   8.358   2.413 -0.4976  0.3611  0.1768
  519MOL0     C69992   7.265   8.275   2.383  0.4868  0.4025  0.2624
  519MOL0     C69993   7.381   8.345   2.462  0.0516  0.3544  0.7307
  519MOL0     C69994   7.509   8.282   2.430 -0.3930 -0.1506  0.0549
  519MOL0     C69995   7.621   8.224   2.426  0.5395 -0.3890  0.0349
  519MOL0     C69996   6.695   8.417   2.554  0.3080  0.2230  0.7109
  519MOL0     C69997   6.560   8.387   2.566  0.1436 -0.3036 -0.6209
  519MOL0     H69998   6.175   8.199   2.804 -4.1338  0.4325  0.4239
  519MOL0     H69999   5.989   8.102   2.884  1.9521  1.1679  0.6164
  519MOL0     H70000   5.851   7.726   2.674 -2.4129  0.6819 -0.3211
  519MOL0     H70001   5.882   7.663   2.847  1.8495  0.1923  0.4293
  519MOL0     H70002   5.628   7.800   2.743 -0.5292  1.1742  2.2824
  519MOL0     H70003   5.663   7.626   2.753  0.5852 -0.0571  0.1453
  519MOL0     H70004   5.658   7.621   2.976  0.3222 -0.2338 -2.2786
  519MOL0     H70005   5.665   7.797   3.008 -1.5621  0.9022  0.8114
  519MOL0     H70006   5.439   7.816   2.915 -2.4336 -0.3399 -0.3105
  519MOL0     H70007   5.427   7.643   2.892 -1.3777 -0.2528  1.4446
  519MOL0     H70008   5.462   7.621   3.132  2.0133  1.3517  1.0870
  519MOL0     H70009   5.470   7.793   3.154  4.3721 -2.1696 -0.8485
  519MOL0     H70010   5.231   7.772   3.016  0.1716 -2.2305 -1.0639
  519MOL0     H70011   5.236   7.610   3.085  0.1569  0.0970  2.1605
  519MOL0     H70012   5.242   7.700   3.316 -1.0277  2.5082  1.7004
  519MOL0     H70013   5.260   7.864   3.255 -0.9823  1.1553 -0.0684
  519MOL0     H70014   5.038   7.799   3.355  2.7615 -0.3155  0.4060
  519MOL0     H70015   4.989   7.696   3.228  2.2104 -0.8935 -2.2305
  519MOL0     H70016   5.014   7.847   2.978 -0.5342  0.2804  0.8224
  519MOL0     H70017   4.890   8.201   2.902  0.4977 -0.6420 -2.9957
  519MOL0     H70018   4.876   8.035   2.835 -0.3061 -1.2141 -0.0878
  519MOL0     H70019   4.672   8.150   2.838  0.3601 -0.2356 -0.4643
  519MOL0     H70020   4.672   8.175   3.014 -0.2028  2.1341 -1.6780
  519MOL0     H70021   4.638   7.936   3.059 -6.2761 -2.0684  0.6160
  519MOL0     H70022   4.656   7.896   2.881  1.5155  2.3484 -1.5492
  519MOL0     H70023   4.430   8.075   2.979 -0.0198  1.6948 -1.4615
  519MOL0     H70024   4.426   7.897   2.955  0.8308 -1.9182 -3.9745
  519MOL0     H70025   4.407   8.009   2.528  1.7035 -1.7922  0.9434
  519MOL0     H70026   4.154   8.105   2.362 -1.3589 -0.4811 -2.7463
  519MOL0     H70027   4.290   7.984   2.336 -0.2583  1.4024 -0.2851
  519MOL0     H70028   4.122   7.939   2.321  1.1568 -0.6421 -0.6093
  519MOL0     H70029   3.772   7.735   2.410  2.1747  2.8585  0.5338
  519MOL0     H70030   3.550   7.727   2.327  0.1487  2.6187 -1.2808
  519MOL0     H70031   3.320   7.751   2.255 -0.9206 -0.1204 -0.5611
  519MOL0     H70032   3.356   7.625   2.365 -1.6114 -1.1571 -0.3109
  519MOL0     H70033   3.125   7.626   2.277  0.5334  0.6042 -0.3967
  519MOL0     H70034   3.119   7.644   2.461  0.7350 -1.5513 -0.4584
  519MOL0     H70035   3.083   7.873   2.261  1.1068  1.9830  0.3432
  519MOL0     H70036   3.082   7.891   2.432  2.1378  1.0940 -0.9018
  519MOL0     H70037   2.847   7.876   2.342  1.0020  0.2138  0.9844
  519MOL0     H70038   2.885   7.744   2.242  2.5247 -0.0375  0.3877
  519MOL0     H70039   2.908   7.745   2.546 -0.5224  1.5110 -1.3746
  519MOL0     H70040   2.894   7.594   2.451  1.2024 -0.5547  0.5687
  519MOL0     H70041   2.673   7.786   2.507 -1.7126  0.0624 -0.6105
  519MOL0     H70042   2.667   7.667   2.380 -0.7780  1.0077  0.1860
  519MOL0     H70043   2.757   7.513   2.600  1.3313  1.6672  0.4572
  519MOL0     H70044   2.589   7.523   2.553  0.2086 -0.0994 -1.3694
  519MOL0     H70045   2.745   7.676   2.775 -1.0334 -1.2294  2.0216
  519MOL0     H70046   2.616   7.566   2.791 -0.8931 -0.2371 -0.3058
  519MOL0     H70047   3.402   7.922   2.670  0.3942  0.8118  0.7492
  519MOL0     H70048   3.656   7.953   2.753 -2.5997  1.1395 -0.1864
  519MOL0     H70049   4.019   7.881   2.804 -2.9173  2.5220 -2.8416
  519MOL0     H70050   4.224   7.935   2.917 -2.2304  3.5065 -0.7074
  519MOL0     H70051   6.078   7.725   2.685  2.0571 -0.0571 -2.3559
  519MOL0     H70052   6.261   7.833   2.586 -0.4579  0.0584  0.2863
  519MOL0     H70053   6.591   8.056   2.590 -0.7870  0.0026 -0.3309
  519MOL0     H70054   6.826   8.104   2.551 -0.8554 -0.0856  2.0725
  519MOL0     H70055   7.061   8.244   2.576 -1.6419  1.2430  0.9997
  519MOL0     H70056   7.000   8.193   2.420 -3.8516  0.4583 -0.0045
  519MOL0     H70057   7.164   8.442   2.480  0.5798 -0.2275  0.6004
  519MOL0     H70058   7.094   8.391   2.321 -1.0964 -2.1815 -0.5036
  519MOL0     H70059   7.287   8.273   2.276  2.3296 -0.7986  0.6076
  519MOL0     H70060   7.239   8.172   2.410 -0.4185  0.7170  0.6403
  519MOL0     H70061   7.357   8.332   2.568  1.4808  1.5941  1.2428
  519MOL0     H70062   7.385   8.450   2.430  0.4684 -0.0054 -0.4449
  519MOL0     H70063   7.710   8.166   2.414  0.9438  0.4628 -1.2333
  519MOL0     H70064   6.720   8.523   2.558  0.0910  0.2597  1.0947
  519MOL0     H70065   6.479   8.457   2.577  0.2058 -0.1371 -1.1567
  520MOL0     O70066   8.208   2.096   2.314 -0.2092 -0.3490 -1.1936
  520MOL0     C70067   8.236   2.106   2.436  0.4121  0.0274  0.0715
  520MOL0     O70068   8.146   2.106   2.538  0.3092 -0.1567 -0.4668
  520MOL0     C70069   8.014   2.092   2.510  0.3443 -0.7546  0.8872
  520MOL0     C70070   7.928   2.193   2.562  0.4884  0.2096 -0.4883
  520MOL0     C70071   7.787   2.189   2.532 -0.3563 -0.3844  0.1230
  520MOL0     C70072   7.734   2.086   2.447 -1.0958  0.2040  0.0348
  520MOL0     O70073   7.598   2.093   2.436 -0.1930 -0.1976  0.0082
  520MOL0     C70074   7.543   1.966   2.391 -0.5276  0.3065 -0.6886
  520MOL0     C70075   7.392   1.954   2.404 -0.3119 -0.5196  0.1248
  520MOL0     C70076   7.325   2.067   2.334  0.6182 -0.0530  1.1689
  520MOL0     C70077   7.177   2.047   2.302 -0.1109  0.3718 -0.0278
  520MOL0     C70078   7.087   2.023   2.432  0.3613 -0.3582  0.5860
  520MOL0     C70079   6.935   2.004   2.399 -0.4768  0.3844 -0.0675
  520MOL0     C70080   6.877   2.119   2.315  0.0526 -0.1889 -1.0675
  520MOL0     C70081   6.899   2.263   2.375 -0.2295  0.5553  0.7318
  520MOL0     N70082   6.812   2.291   2.490 -0.9284  0.6269  0.1278
  520MOL0     C70083   6.678   2.331   2.476  0.4678 -0.5086 -0.4455
  520MOL0     C70084   6.641   2.350   2.602 -0.0321 -0.2043 -0.3989
  520MOL0     C70085   6.506   2.417   2.640 -0.1738 -0.6490  0.4723
  520MOL0     C70086   6.388   2.325   2.605  0.1723  0.0731 -0.1509
  520MOL0     C70087   6.253   2.398   2.637 -0.1923  0.1259  0.7659
  520MOL0     C70088   6.136   2.298   2.646  0.4743 -0.5706 -0.1239
  520MOL0     O70089   6.094   2.263   2.515 -0.2588  0.0946 -0.4581
  520MOL0     C70090   5.963   2.247   2.472  0.6664 -0.0416 -1.0836
  520MOL0     C70091   5.846   2.277   2.541 -0.3666 -0.3509 -0.0928
  520MOL0     C70092   5.715   2.266   2.489  0.4283 -0.9277 -0.0834
  520MOL0     C70093   5.604   2.320   2.582  0.4463  0.4191  0.8616
  520MOL0     C70094   5.700   2.216   2.359 -0.2250 -0.0486  0.1530
  520MOL0     C70095   5.573   2.180   2.288  0.8427 -0.6241  0.3577
  520MOL0     O70096   5.472   2.155   2.374 -0.3044  0.2626  0.6241
  520MOL0     C70097   5.350   2.137   2.320 -0.6472 -0.1167  0.7907
  520MOL0     C70098   5.283   2.019   2.340 -0.1157 -0.4909  0.5140
  520MOL0     C70099   5.152   2.009   2.296 -0.0232 -0.8498 -0.3784
  520MOL0     C70100   5.082   2.113   2.236  0.8002 -0.1213  0.2269
  520MOL0     O70101   4.949   2.109   2.206 -0.4457 -0.0879  0.5417
  520MOL0     C70102   4.872   1.987   2.212 -0.1221 -1.0676 -0.5530
  520MOL0     C70103   4.730   2.047   2.191  0.1756  1.3009 -0.3985
  520MOL0     C70104   4.629   1.928   2.177 -0.4612 -0.3943  0.8885
  520MOL0     C70105   4.489   1.977   2.199 -0.0519  0.0029 -0.8117
  520MOL0     C70106   4.376   1.868   2.182 -0.6391 -0.1160 -0.2349
  520MOL0     C70107   4.240   1.935   2.234  0.4245  0.1491 -0.2153
  520MOL0     C70108   4.110   1.856   2.202 -0.7637 -0.1425  1.2308
  520MOL0     C70109   3.985   1.919   2.270  0.6872 -0.2216 -0.8453
  520MOL0    Cl70110   3.960   2.075   2.214  0.1151  0.4405 -0.0212
  520MOL0     C70111   5.155   2.226   2.207 -0.1297  0.4480 -0.4837
  520MOL0     C70112   5.282   2.244   2.256  0.0883 -0.1528  0.1818
  520MOL0     O70113   5.564   2.165   2.164 -0.7358  0.6448 -0.1765
  520MOL0     C70114   5.816   2.182   2.288  0.0382  0.3629 -0.8118
  520MOL0     C70115   5.943   2.191   2.343 -0.8502 -0.7248 -0.3046
  520MOL0     N70116   6.742   2.307   2.690  0.0172  0.2480 -0.4072
  520MOL0     N70117   6.835   2.257   2.614  0.3027 -0.1191 -0.7089
  520MOL0     C70118   7.825   1.997   2.395 -0.3574  0.1763  0.2471
  520MOL0     C70119   7.963   2.003   2.419 -0.6561  0.1117  0.2654
  520MOL0     C70120   8.382   2.126   2.471 -0.7700 -0.1086 -0.2000
  520MOL0     C70121   8.419   2.176   2.594  0.1002 -0.3586  0.1326
  520MOL0     C70122   8.555   2.182   2.632 -1.1808 -0.6319 -0.1472
  520MOL0     C70123   8.655   2.138   2.535  0.8548  0.6312 -0.2749
  520MOL0     O70124   8.783   2.148   2.572 -0.0070  0.2297  0.0491
  520MOL0     C70125   8.884   2.145   2.465  0.0083  0.8550 -0.1431
  520MOL0     C70126   9.023   2.185   2.519  0.1520 -0.3447  0.1309
  520MOL0     C70127   9.079   2.104   2.640 -0.3474 -0.4168 -0.9323
  520MOL0     C70128   9.209   2.173   2.689  0.3384 -0.3829  0.2149
  520MOL0     C70129   9.311   2.178   2.582 -0.6629  1.3033  0.3103
  520MOL0     C70130   9.393   2.161   2.493  0.0996  0.7616 -0.3602
  520MOL0     C70131   8.612   2.069   2.419  0.7046 -0.7541 -0.4121
  520MOL0     C70132   8.474   2.079   2.379 -0.1782 -0.2628  0.0233
  520MOL0     H70133   7.967   2.271   2.626  0.8641  0.0573 -0.5288
  520MOL0     H70134   7.716   2.265   2.563  0.7260  0.1354  1.3968
  520MOL0     H70135   7.567   1.947   2.286  1.2164 -0.2316 -0.2303
  520MOL0     H70136   7.577   1.883   2.453 -0.4008  1.2975  0.6103
  520MOL0     H70137   7.347   1.864   2.362 -0.2245  0.3207 -1.8940
  520MOL0     H70138   7.378   1.966   2.511  1.8023  0.6275  0.3376
  520MOL0     H70139   7.319   2.162   2.388  0.1323  0.6797 -0.1151
  520MOL0     H70140   7.368   2.072   2.233  3.0055 -0.5149  2.1017
  520MOL0     H70141   7.152   2.150   2.272  2.2356  1.1581  0.4626
  520MOL0     H70142   7.157   1.982   2.216 -3.2823  2.2133 -0.8563
  520MOL0     H70143   7.125   1.935   2.485  1.4960  0.7198  1.6246
  520MOL0     H70144   7.097   2.112   2.495 -0.6512  0.7099 -0.7141
  520MOL0     H70145   6.918   1.912   2.342  0.9016 -1.4462  2.2815
  520MOL0     H70146   6.877   1.988   2.490 -0.1927 -1.6237 -0.1882
  520MOL0     H70147   6.921   2.119   2.215  3.6610 -0.7976  0.3586
  520MOL0     H70148   6.769   2.113   2.303 -0.1156  1.0704 -0.3964
  520MOL0     H70149   6.870   2.341   2.303  1.2995  1.9687  1.5667
  520MOL0     H70150   7.001   2.280   2.409 -0.0985  0.2705  0.4891
  520MOL0     H70151   6.627   2.369   2.388 -0.0129  1.4906  0.6202
  520MOL0     H70152   6.510   2.453   2.743  0.2090 -1.0539  0.5952
  520MOL0     H70153   6.488   2.501   2.571 -1.5883 -0.8194  0.5970
  520MOL0     H70154   6.399   2.235   2.665 -2.9858 -1.5043 -1.6673
  520MOL0     H70155   6.386   2.301   2.498  2.7073  1.5297 -0.6139
  520MOL0     H70156   6.227   2.480   2.570  0.6591  0.4998  0.8705
  520MOL0     H70157   6.261   2.441   2.738 -0.2310  1.4671  0.2082
  520MOL0     H70158   6.060   2.343   2.710  2.3295  1.2841  0.9429
  520MOL0     H70159   6.184   2.215   2.698  3.5778  1.0882 -0.0825
  520MOL0     H70160   5.855   2.296   2.647 -1.5686 -1.4876  0.2462
  520MOL0     H70161   5.540   2.383   2.520 -0.3898  0.3920  1.6753
  520MOL0     H70162   5.548   2.236   2.625  1.0373  0.8695  2.6198
  520MOL0     H70163   5.646   2.374   2.667  1.2650 -1.7188  1.8934
  520MOL0     H70164   5.327   1.938   2.396 -0.2927 -0.1451  1.1594
  520MOL0     H70165   5.094   1.921   2.321 -2.4275  0.4121 -1.1668
  520MOL0     H70166   4.897   1.913   2.136 -1.3096 -2.3252  0.2210
  520MOL0     H70167   4.872   1.950   2.315 -0.0783 -2.5618 -1.0592
  520MOL0     H70168   4.706   2.084   2.291  1.9282 -0.8222  0.9098
  520MOL0     H70169   4.724   2.129   2.118  0.3147  0.0637 -1.8600
  520MOL0     H70170   4.660   1.849   2.245  2.9292 -2.2832 -2.5117
  520MOL0     H70171   4.639   1.886   2.077  4.1391 -1.4431  1.5953
  520MOL0     H70172   4.476   2.014   2.301  0.9916  1.5929 -1.2359
  520MOL0     H70173   4.473   2.061   2.131  1.9229  0.1134 -1.1812
  520MOL0     H70174   4.399   1.780   2.242 -1.4600  1.8870  3.3011
  520MOL0     H70175   4.365   1.838   2.077  0.8280 -0.8611 -0.2023
  520MOL0     H70176   4.240   1.961   2.340 -2.8900  1.9859 -0.5521
  520MOL0     H70177   4.234   2.027   2.176  1.3546 -0.7621 -1.8459
  520MOL0     H70178   4.118   1.752   2.234 -3.6702 -0.9693 -0.3746
  520MOL0     H70179   4.088   1.848   2.095 -1.3091  0.8795  1.2439
  520MOL0     H70180   4.008   1.927   2.377  0.2253 -1.8267 -0.5860
  520MOL0     H70181   3.901   1.850   2.258 -0.0294  0.3887  0.4714
  520MOL0     H70182   5.102   2.315   2.174 -1.1640  0.9005  2.1193
  520MOL0     H70183   5.342   2.331   2.230 -3.5093  1.9951 -1.6981
  520MOL0     H70184   5.809   2.164   2.181  1.2242  0.2869 -0.8937
  520MOL0     H70185   6.026   2.182   2.274  0.2481  4.5057 -0.0613
  520MOL0     H70186   7.802   1.910   2.335 -0.2461 -1.4122  2.3778
  520MOL0     H70187   8.029   1.925   2.382  1.6336  1.3560  1.5245
  520MOL0     H70188   8.341   2.203   2.665  0.2167 -0.3944  0.2763
  520MOL0     H70189   8.589   2.235   2.720 -1.3043  0.3359 -0.6682
  520MOL0     H70190   8.893   2.043   2.427  1.0759  1.9713 -3.1772
  520MOL0     H70191   8.854   2.200   2.375 -0.2983  0.4293 -0.3037
  520MOL0     H70192   9.024   2.291   2.543  3.2116 -0.2269 -0.1870
  520MOL0     H70193   9.080   2.170   2.427 -2.8463 -1.1168 -1.7675
  520MOL0     H70194   9.097   1.996   2.629 -0.9301 -0.8491  1.7061
  520MOL0     H70195   9.007   2.103   2.723  1.6248 -2.3739  0.9086
  520MOL0     H70196   9.246   2.106   2.767 -3.4060 -1.3606  1.3595
  520MOL0     H70197   9.191   2.273   2.729  1.7311 -0.4119  0.9857
  520MOL0     H70198   9.467   2.154   2.416 -0.6964 -0.4467 -1.0650
  520MOL0     H70199   8.680   2.012   2.358  0.9240 -0.4471 -0.4538
  520MOL0     H70200   8.444   2.046   2.280 -2.0278  3.2032 -0.7474
  521MOL0     O70201   1.197  11.059   1.899 -0.6820 -0.2585  0.1826
  521MOL0     C70202   1.242  11.095   2.007  0.4415  0.6159 -0.8325
  521MOL0     O70203   1.178  11.147   2.112 -0.1077 -0.2199 -0.1948
  521MOL0     C70204   1.040  11.163   2.084  0.2429  0.3335  0.2863
  521MOL0     C70205   0.997  11.267   2.000  0.2002 -0.0032 -0.4398
  521MOL0     C70206   0.855  11.281   1.993 -0.2283 -1.2923 -0.4161
  521MOL0     C70207   0.765  11.213   2.068  0.5556 -0.0949  0.2492
  521MOL0     O70208   0.627  11.242   2.046 -0.5420 -0.3875 -0.3779
  521MOL0     C70209   0.537  11.152   2.123  0.4124  0.3440 -0.7203
  521MOL0     C70210   0.397  11.154   2.068  0.2554  0.0060 -0.2566
  521MOL0     C70211   0.312  11.094   2.172 -0.1019  0.2243  0.1940
  521MOL0     C70212   0.170  11.058   2.128 -0.2026 -0.3954  0.1538
  521MOL0     C70213   0.067  11.031   2.240  0.1770  0.5543  0.1929
  521MOL0     C70214   0.029  11.162   2.306 -0.3065 -0.3400  0.0929
  521MOL0     C70215  -0.037  11.273   2.211  0.1747 -0.2168  0.0972
  521MOL0     C70216  -0.156  11.229   2.121 -0.0861  0.1117 -1.2846
  521MOL0     N70217  -0.275  11.263   2.198  1.0317  0.5428 -0.4138
  521MOL0     C70218  -0.312  11.240   2.327  0.0084 -0.1766  0.7524
  521MOL0     C70219  -0.447  11.272   2.334  0.1467 -0.4906  0.2850
  521MOL0     C70220  -0.542  11.256   2.451  0.0628 -0.1576  0.1736
  521MOL0     C70221  -0.615  11.123   2.451  0.3404  0.0760  0.2874
  521MOL0     C70222  -0.696  11.114   2.575  0.7639  0.4513 -0.2356
  521MOL0     C70223  -0.826  11.208   2.574 -0.7001 -0.4132 -0.8213
  521MOL0     O70224  -0.880  11.192   2.701 -0.0755  0.6055  0.2117
  521MOL0     C70225  -1.009  11.222   2.704 -0.5714  0.4639  0.5656
  521MOL0     C70226  -1.070  11.331   2.650 -0.4024 -0.3837  0.3034
  521MOL0     C70227  -1.200  11.352   2.678 -0.5606 -0.2287 -0.7557
  521MOL0     C70228  -1.259  11.464   2.602 -0.5033 -0.7880 -0.1417
  521MOL0     C70229  -1.275  11.266   2.761  0.4589  0.9259  0.0295
  521MOL0     C70230  -1.420  11.293   2.797 -0.4051 -0.2051 -0.7219
  521MOL0     O70231  -1.507  11.193   2.777  0.3847 -0.0806 -0.3807
  521MOL0     C70232  -1.641  11.213   2.767  1.0985 -0.3635  0.2897
  521MOL0     C70233  -1.718  11.109   2.803 -0.1390 -0.1127  0.4573
  521MOL0     C70234  -1.848  11.118   2.824  0.8516  0.5661  0.0950
  521MOL0     C70235  -1.910  11.239   2.800  0.4544  0.4848 -0.4455
  521MOL0     O70236  -2.036  11.255   2.842  0.2590  0.7681  0.0812
  521MOL0     C70237  -2.047  11.334   2.959 -0.0643 -0.0190 -0.4296
  521MOL0     C70238  -2.160  11.282   3.046 -0.2101  0.5523  0.2139
  521MOL0     C70239  -2.287  11.241   2.971  0.2505 -0.4858  1.0924
  521MOL0     C70240  -2.399  11.191   3.062  0.1127 -0.3037 -0.1802
  521MOL0     C70241  -2.531  11.184   2.980 -0.5281 -0.7720  0.5653
  521MOL0     C70242  -2.642  11.170   3.080  0.8512  0.1121  0.4216
  521MOL0     C70243  -2.782  11.147   3.005  0.5951 -0.0768 -0.6522
  521MOL0     C70244  -2.890  11.075   3.088  0.4926  0.1680  0.1697
  521MOL0    Cl70245  -3.035  11.084   2.995 -0.3438 -0.2045 -0.0075
  521MOL0     C70246  -1.838  11.354   2.758  1.4129  0.2704  1.1034
  521MOL0     C70247  -1.700  11.338   2.736 -0.1125 -1.1125 -0.1453
  521MOL0     O70248  -1.444  11.404   2.854 -0.6072  0.3599  0.1583
  521MOL0     C70249  -1.222  11.145   2.799  0.6135 -0.9220 -0.8799
  521MOL0     C70250  -1.089  11.119   2.767 -0.0718 -0.0784  0.0467
  521MOL0     N70251  -0.485  11.319   2.214  0.8224  0.1193  0.2391
  521MOL0     N70252  -0.382  11.307   2.130  0.3831  0.0195  0.6292
  521MOL0     C70253   0.811  11.119   2.159  0.2777  0.8610 -0.1923
  521MOL0     C70254   0.948  11.089   2.162  0.2580 -0.4796  0.4473
  521MOL0     C70255   1.392  11.087   2.037  0.0127 -0.0795 -0.3903
  521MOL0     C70256   1.482  11.078   1.925  0.1155 -0.6801 -0.0294
  521MOL0     C70257   1.624  11.075   1.948  0.1933 -0.1697 -1.2202
  521MOL0     C70258   1.676  11.093   2.078  0.2811  1.0638 -0.0304
  521MOL0     O70259   1.812  11.083   2.096  0.2932 -0.4275 -0.6274
  521MOL0     C70260   1.889  11.200   2.132 -0.1863  0.4720 -0.0794
  521MOL0     C70261   1.964  11.261   2.012  0.0651  0.0935  0.1402
  521MOL0     C70262   2.058  11.152   1.961 -0.0214  0.0560 -0.0046
  521MOL0     C70263   2.152  11.217   1.850  0.8182 -0.5117 -0.1633
  521MOL0     C70264   2.203  11.114   1.760 -0.6296  0.7638 -0.3645
  521MOL0     C70265   2.232  11.028   1.685  0.0707  0.1930  0.0868
  521MOL0     C70266   1.588  11.085   2.184 -0.3587  0.1051  0.4169
  521MOL0     C70267   1.449  11.083   2.164 -0.6743  0.2343  0.0957
  521MOL0     H70268   1.081  11.315   1.950  1.3698 -0.8652  0.6139
  521MOL0     H70269   0.821  11.350   1.916  1.2369  0.2507  0.2435
  521MOL0     H70270   0.568  11.049   2.107 -1.8625 -0.3339 -1.0385
  521MOL0     H70271   0.538  11.179   2.229  0.4624  0.1725 -0.6770
  521MOL0     H70272   0.360  11.254   2.046  1.2314  0.3373 -0.4499
  521MOL0     H70273   0.393  11.097   1.974 -0.5881 -3.5056  1.7157
  521MOL0     H70274   0.353  10.995   2.192 -3.6687 -1.3796  0.4463
  521MOL0     H70275   0.308  11.156   2.262 -1.1082  0.9328 -0.3222
  521MOL0     H70276   0.118  11.127   2.061  0.0779 -3.0128 -3.0198
  521MOL0     H70277   0.185  10.969   2.065  1.0193 -2.3558  2.9684
  521MOL0     H70278  -0.023  10.985   2.199  0.6531 -0.0001 -0.2451
  521MOL0     H70279   0.107  10.958   2.310  0.6317  1.5042  0.9509
  521MOL0     H70280  -0.041  11.141   2.386  0.0665  2.0899  1.1517
  521MOL0     H70281   0.117  11.205   2.355  0.9728 -2.1431 -0.5317
  521MOL0     H70282  -0.070  11.359   2.270  1.3648  0.7588 -0.5819
  521MOL0     H70283   0.036  11.321   2.145  0.4979  0.4899  0.9383
  521MOL0     H70284  -0.170  11.121   2.111 -4.9766  0.4903 -1.3629
  521MOL0     H70285  -0.160  11.287   2.029  0.5984 -1.1624 -2.1382
  521MOL0     H70286  -0.263  11.196   2.414  0.2164 -0.6693  0.3881
  521MOL0     H70287  -0.481  11.260   2.542 -1.4272  0.4237  1.1955
  521MOL0     H70288  -0.611  11.340   2.438 -0.0336 -0.4868 -1.7499
  521MOL0     H70289  -0.542  11.042   2.450 -1.1439 -1.3102 -0.4478
  521MOL0     H70290  -0.671  11.116   2.358 -0.9250 -0.1346  1.0309
  521MOL0     H70291  -0.632  11.105   2.663 -0.3483 -0.5893  0.4913
  521MOL0     H70292  -0.739  11.014   2.566  1.4461  0.2995 -2.3744
  521MOL0     H70293  -0.889  11.169   2.494  0.5610  0.3189 -2.2330
  521MOL0     H70294  -0.790  11.310   2.555  1.7805 -1.1524 -0.5253
  521MOL0     H70295  -1.009  11.405   2.598 -2.2479  1.8675  1.1753
  521MOL0     H70296  -1.366  11.477   2.618 -0.3261  0.9495 -0.2685
  521MOL0     H70297  -1.221  11.563   2.627 -0.7289 -0.3661 -1.3855
  521MOL0     H70298  -1.248  11.450   2.494 -1.4144 -2.4025 -0.0723
  521MOL0     H70299  -1.678  11.010   2.822 -0.0314 -0.3938 -1.1580
  521MOL0     H70300  -1.904  11.032   2.861 -1.9526  1.4710 -1.6749
  521MOL0     H70301  -1.952  11.327   3.013  0.3934  3.2952 -0.5843
  521MOL0     H70302  -2.060  11.442   2.944  4.1841  0.6409 -0.6868
  521MOL0     H70303  -2.106  11.197   3.089 -0.7122 -2.2034 -3.9423
  521MOL0     H70304  -2.200  11.346   3.126 -0.5462  0.1249  0.3925
  521MOL0     H70305  -2.266  11.172   2.889  4.1418  2.2658 -0.5287
  521MOL0     H70306  -2.329  11.319   2.906 -3.0165 -2.6367  0.3528
  521MOL0     H70307  -2.379  11.102   3.122 -2.0709  0.5915  2.0381
  521MOL0     H70308  -2.408  11.261   3.146  1.0840 -0.2598 -0.0964
  521MOL0     H70309  -2.527  11.102   2.908 -1.8862 -1.1123  0.8590
  521MOL0     H70310  -2.536  11.271   2.913 -1.9359 -2.0670 -1.0978
  521MOL0     H70311  -2.627  11.082   3.143 -0.2472 -0.2569  0.1943
  521MOL0     H70312  -2.647  11.260   3.142 -0.0750  1.8877 -2.0663
  521MOL0     H70313  -2.769  11.099   2.907  0.7094 -1.4360 -0.0010
  521MOL0     H70314  -2.815  11.250   2.989 -1.2236 -0.8710 -2.4097
  521MOL0     H70315  -2.894  11.109   3.192 -0.9141  2.2474 -0.4919
  521MOL0     H70316  -2.872  10.967   3.094  2.0587  0.2415 -2.1127
  521MOL0     H70317  -1.886  11.451   2.749 -0.5808 -0.7736 -0.3032
  521MOL0     H70318  -1.647  11.429   2.707 -1.9653 -0.2349 -0.9275
  521MOL0     H70319  -1.278  11.065   2.846  1.1220 -0.1383  1.1623
  521MOL0     H70320  -1.055  11.023   2.802 -1.1596  0.4237  2.7829
  521MOL0     H70321   0.746  11.059   2.222  2.0747  0.0001  0.9307
  521MOL0     H70322   0.982  11.014   2.232  0.6249 -0.3289  0.4293
  521MOL0     H70323   1.447  11.089   1.823  0.6645  0.8232 -0.0849
  521MOL0     H70324   1.695  11.068   1.867 -0.4961 -1.7980 -1.7285
  521MOL0     H70325   1.818  11.276   2.166  2.5005  1.7694  3.2477
  521MOL0     H70326   1.960  11.191   2.215 -1.5955  3.3780  1.5994
  521MOL0     H70327   2.022  11.349   2.038  0.8832 -0.2415 -0.5140
  521MOL0     H70328   1.889  11.275   1.933  1.7998  1.6816 -1.3073
  521MOL0     H70329   1.987  11.090   1.906 -4.0204  2.3549  2.0780
  521MOL0     H70330   2.122  11.101   2.034 -1.3401 -0.3152  0.9281
  521MOL0     H70331   2.241  11.259   1.899 -0.5223  0.5261  1.5143
  521MOL0     H70332   2.095  11.295   1.799  2.9648  1.8779  0.8412
  521MOL0     H70333   2.251  10.942   1.624 -1.1268 -1.7075  2.2468
  521MOL0     H70334   1.633  11.091   2.283  0.1515  0.1235  0.1872
  521MOL0     H70335   1.389  11.097   2.253 -0.3517  1.5437  0.1219
  522MOL0     O70336   8.737   4.547   9.571 -0.0810 -0.8194 -0.0274
  522MOL0     C70337   8.756   4.600   9.679  0.0388 -0.5211  0.7881
  522MOL0     O70338   8.670   4.686   9.743 -0.3157 -0.8141  0.4482
  522MOL0     C70339   8.550   4.709   9.693  0.0254  0.7737 -0.3318
  522MOL0     C70340   8.443   4.653   9.765  0.1144 -0.5849 -0.0793
  522MOL0     C70341   8.317   4.670   9.724 -0.3709 -0.1584 -0.4720
  522MOL0     C70342   8.289   4.730   9.606  0.3766 -0.1390  0.1234
  522MOL0     O70343   8.163   4.753   9.556  0.2066  0.2310 -0.4199
  522MOL0     C70344   8.057   4.742   9.659  0.0101 -0.5005 -0.0691
  522MOL0     C70345   7.920   4.765   9.582 -0.0007  0.3056  0.6049
  522MOL0     C70346   7.788   4.748   9.668 -0.1639  0.4532  0.1990
  522MOL0     C70347   7.667   4.773   9.585  1.1819  0.1499  0.0496
  522MOL0     C70348   7.546   4.723   9.668  0.4512  0.0509 -0.1134
  522MOL0     C70349   7.425   4.758   9.583 -0.3391 -0.5242  0.0233
  522MOL0     C70350   7.289   4.732   9.658 -0.2321 -0.2154 -0.2542
  522MOL0     C70351   7.165   4.776   9.580  0.4828 -0.2375 -0.0302
  522MOL0     N70352   7.126   4.683   9.478  0.9354  0.5514  0.1793
  522MOL0     C70353   7.093   4.551   9.491 -0.1492  0.3575  0.0033
  522MOL0     C70354   7.082   4.500   9.365 -0.3223 -0.2911  0.0339
  522MOL0     C70355   7.047   4.358   9.325 -0.2082  0.0486  0.0444
  522MOL0     C70356   6.893   4.350   9.302 -0.0856 -0.9712 -0.6493
  522MOL0     C70357   6.844   4.210   9.256  0.2620  0.1381  0.0124
  522MOL0     C70358   6.699   4.223   9.207 -0.1315 -0.0058  0.0170
  522MOL0     O70359   6.650   4.092   9.160  0.0685 -0.0245 -0.1252
  522MOL0     C70360   6.514   4.084   9.134 -0.2799  0.2327 -0.7323
  522MOL0     C70361   6.464   3.972   9.060 -0.0242  0.9464  0.6420
  522MOL0     C70362   6.337   3.952   9.015  0.9907  0.0268  0.3158
  522MOL0     C70363   6.302   3.837   8.915 -0.1941 -0.1887 -0.2272
  522MOL0     C70364   6.241   4.047   9.051 -0.5336  0.3382 -0.8888
  522MOL0     C70365   6.101   4.032   9.031  0.3352  0.1609 -0.7255
  522MOL0     O70366   6.025   4.042   9.146 -0.2535  0.5959  0.0461
  522MOL0     C70367   5.891   4.025   9.119  0.4490 -0.4530 -0.0166
  522MOL0     C70368   5.825   3.900   9.141  0.2568  0.0329 -0.4667
  522MOL0     C70369   5.682   3.900   9.119 -0.3037 -0.7552 -0.1839
  522MOL0     C70370   5.612   4.008   9.067 -0.6028 -0.5971 -1.1006
  522MOL0     O70371   5.478   4.018   9.032 -0.1085 -0.2986  0.3562
  522MOL0     C70372   5.393   3.917   9.072  0.9524  0.2942  0.0399
  522MOL0     C70373   5.367   3.917   9.227  0.0247 -0.4982  0.3774
  522MOL0     C70374   5.287   3.796   9.277  0.5956  0.0845  0.1003
  522MOL0     C70375   5.135   3.817   9.270  0.5390  0.5028  0.1183
  522MOL0     C70376   5.056   3.707   9.347  0.3380  0.2386  0.6674
  522MOL0     C70377   4.905   3.715   9.353  0.2502 -0.3406 -0.1172
  522MOL0     C70378   4.839   3.715   9.211 -0.2974  0.4159  0.2563
  522MOL0     C70379   4.688   3.714   9.215 -0.6441 -0.3976  0.2176
  522MOL0    Cl70380   4.629   3.543   9.244  0.4165 -0.1294 -0.3400
  522MOL0     C70381   5.677   4.129   9.055  0.6603 -0.2950 -0.3465
  522MOL0     C70382   5.818   4.140   9.074 -0.2748  0.3067 -0.2969
  522MOL0     O70383   6.052   4.013   8.919  0.0802  0.1018  0.2621
  522MOL0     C70384   6.283   4.161   9.130  0.1739  0.1706  0.4911
  522MOL0     C70385   6.419   4.184   9.165  0.5390  0.7117  0.4077
  522MOL0     N70386   7.103   4.606   9.275  1.0506  0.1295  0.0089
  522MOL0     N70387   7.119   4.716   9.343  0.6678 -0.4716 -0.3809
  522MOL0     C70388   8.392   4.781   9.524 -0.8110 -0.0594 -1.0448
  522MOL0     C70389   8.522   4.764   9.569 -0.1218 -0.2574  0.3588
  522MOL0     C70390   8.889   4.581   9.735  0.2113 -0.2682 -0.1315
  522MOL0     C70391   8.909   4.568   9.883  0.4820  0.7132  0.2610
  522MOL0     C70392   9.032   4.529   9.939 -0.4893 -0.4563 -0.2978
  522MOL0     C70393   9.139   4.513   9.852  0.6511  0.1336 -0.3549
  522MOL0     O70394   9.259   4.498   9.914 -0.0910  1.1147 -0.8123
  522MOL0     C70395   9.381   4.464   9.847  0.4307  0.6269  0.4344
  522MOL0     C70396   9.508   4.477   9.930 -0.6557 -2.0391 -0.1971
  522MOL0     C70397   9.616   4.401   9.870  0.3652  0.9489 -0.4678
  522MOL0     C70398   9.757   4.426   9.931  1.3021 -0.5607 -0.1865
  522MOL0     C70399   9.854   4.350   9.861  0.0961  0.4225  0.6612
  522MOL0     C70400   9.936   4.295   9.794 -0.1215  1.0075  0.6733
  522MOL0     C70401   9.119   4.511   9.715 -0.0481 -0.3411 -0.0511
  522MOL0     C70402   8.994   4.530   9.661 -0.6642  0.5876 -0.3027
  522MOL0     H70403   8.478   4.592   9.848  4.4479  0.2948 -0.9819
  522MOL0     H70404   8.244   4.629   9.793 -0.0138  0.4734  0.2890
  522MOL0     H70405   8.056   4.643   9.705 -1.2016 -0.6885 -0.4843
  522MOL0     H70406   8.066   4.815   9.740 -1.1394  0.9325 -1.1762
  522MOL0     H70407   7.922   4.871   9.556  1.3346  0.4521  1.1851
  522MOL0     H70408   7.916   4.703   9.492  3.0096  1.3531 -0.3700
  522MOL0     H70409   7.797   4.649   9.715 -2.1300 -0.5784 -1.4253
  522MOL0     H70410   7.780   4.814   9.755 -1.7751 -0.1905  0.5753
  522MOL0     H70411   7.661   4.878   9.558  1.7525 -0.3675 -2.3423
  522MOL0     H70412   7.675   4.712   9.494 -1.4755 -2.3038  1.2748
  522MOL0     H70413   7.563   4.616   9.680  0.4383  0.1267  0.6016
  522MOL0     H70414   7.541   4.768   9.768 -1.7288 -0.9250  0.2781
  522MOL0     H70415   7.432   4.865   9.563  0.6613 -0.4506  0.7227
  522MOL0     H70416   7.426   4.701   9.489  1.4577  1.4503 -1.2429
  522MOL0     H70417   7.284   4.624   9.677  1.6515 -0.0151  1.7551
  522MOL0     H70418   7.300   4.785   9.753 -1.0045  0.0318 -0.2959
  522MOL0     H70419   7.179   4.873   9.532  5.1197 -1.5014 -1.7906
  522MOL0     H70420   7.080   4.785   9.649 -0.5905  0.2617 -1.3579
  522MOL0     H70421   7.092   4.497   9.585  2.2501 -0.9977 -0.6448
  522MOL0     H70422   7.110   4.328   9.240  0.8951 -1.8723  1.4637
  522MOL0     H70423   7.067   4.287   9.406  0.5092 -1.4738 -1.3947
  522MOL0     H70424   6.871   4.419   9.220 -3.1199 -1.8000 -0.6871
  522MOL0     H70425   6.838   4.384   9.390 -0.6911 -0.3389 -1.2592
  522MOL0     H70426   6.839   4.141   9.340 -2.7390  0.7682  0.4657
  522MOL0     H70427   6.916   4.168   9.185  1.9473 -0.6109  2.0799
  522MOL0     H70428   6.696   4.291   9.122 -0.0615  1.4377  1.1383
  522MOL0     H70429   6.637   4.278   9.278 -2.8832 -2.0108 -0.6830
  522MOL0     H70430   6.542   3.901   9.035  0.2220  1.1708  0.7601
  522MOL0     H70431   6.393   3.779   8.901  0.9581  1.2477  0.9904
  522MOL0     H70432   6.213   3.777   8.936 -0.0196 -0.6981 -0.9075
  522MOL0     H70433   6.280   3.887   8.820 -0.5846  0.1372  0.0300
  522MOL0     H70434   5.875   3.808   9.169  4.0802  2.0570  0.0181
  522MOL0     H70435   5.636   3.801   9.120  1.1706 -1.4745  1.0483
  522MOL0     H70436   5.302   3.923   9.012  1.1381 -0.4626 -0.3253
  522MOL0     H70437   5.437   3.821   9.045 -1.1912 -0.5268 -0.8084
  522MOL0     H70438   5.470   3.898   9.258  0.3166  0.7237  0.2003
  522MOL0     H70439   5.331   4.016   9.256  0.1933 -0.3454  0.0645
  522MOL0     H70440   5.316   3.766   9.377 -1.0087 -0.9819  0.2904
  522MOL0     H70441   5.312   3.712   9.212  0.1469  0.6987 -0.8991
  522MOL0     H70442   5.104   3.907   9.324  3.8321  0.7471  1.8595
  522MOL0     H70443   5.104   3.824   9.165  0.6909 -0.2175  0.0241
  522MOL0     H70444   5.100   3.698   9.447 -1.1958 -1.8243  1.2221
  522MOL0     H70445   5.077   3.610   9.302  0.6857  0.5523  0.1400
  522MOL0     H70446   4.874   3.623   9.405  2.7829 -0.6015  1.1014
  522MOL0     H70447   4.874   3.801   9.412 -2.0366 -0.4980 -1.0099
  522MOL0     H70448   4.880   3.635   9.148 -3.3068  0.2773 -1.7223
  522MOL0     H70449   4.848   3.811   9.161 -3.1158 -0.3674 -1.9779
  522MOL0     H70450   4.656   3.746   9.115  1.4410  1.1955 -0.0096
  522MOL0     H70451   4.642   3.782   9.287  2.4889  2.2426 -0.0232
  522MOL0     H70452   5.614   4.213   9.028 -2.0466 -1.1902  2.5623
  522MOL0     H70453   5.870   4.235   9.066  1.7735 -0.8880 -2.5822
  522MOL0     H70454   6.215   4.240   9.157  1.2133  1.1601  0.3202
  522MOL0     H70455   6.446   4.267   9.230 -0.7088  1.3933  0.0925
  522MOL0     H70456   8.369   4.832   9.431 -1.5647  1.4976 -0.0561
  522MOL0     H70457   8.610   4.798   9.515 -1.7990  2.2995 -0.9136
  522MOL0     H70458   8.826   4.595   9.948  0.3362  1.4171 -0.1959
  522MOL0     H70459   9.040   4.516  10.046 -1.3306  2.1632  0.1675
  522MOL0     H70460   9.369   4.356   9.835  0.5312  0.3369  2.5388
  522MOL0     H70461   9.395   4.508   9.748  2.9925  0.7660  0.7995
  522MOL0     H70462   9.493   4.454  10.036  0.0641 -0.5419  0.2570
  522MOL0     H70463   9.522   4.585   9.930 -3.6509 -1.5574 -1.3853
  522MOL0     H70464   9.620   4.420   9.763 -1.1698  2.0693 -0.3634
  522MOL0     H70465   9.594   4.295   9.881  2.8593  0.3295 -0.9226
  522MOL0     H70466   9.758   4.407  10.039  0.2294 -0.2587 -0.1127
  522MOL0     H70467   9.788   4.530   9.921 -0.8996  0.0731 -0.9668
  522MOL0     H70468  10.017   4.238   9.753  0.9058  2.6178  0.3567
  522MOL0     H70469   9.195   4.498   9.639 -1.1815  2.2007 -1.7660
  522MOL0     H70470   8.981   4.510   9.555  3.2748 -1.6456 -0.5414
  523MOL0     O70471   4.046   0.625   5.213  0.3236 -0.1258  0.0994
  523MOL0     C70472   4.139   0.643   5.295 -0.2372  0.3258  0.6715
  523MOL0     O70473   4.134   0.705   5.417  0.1465  0.6271  0.2515
  523MOL0     C70474   4.019   0.740   5.482 -0.9573 -0.2372  0.4664
  523MOL0     C70475   3.900   0.679   5.460  0.8644  0.6265  0.9088
  523MOL0     C70476   3.799   0.695   5.550  0.2259 -1.0304 -0.6847
  523MOL0     C70477   3.817   0.780   5.662 -0.0353  0.2422 -0.0771
  523MOL0     O70478   3.699   0.792   5.737 -0.1376 -0.0770 -0.1601
  523MOL0     C70479   3.721   0.780   5.885 -0.3763 -0.0731 -1.0439
  523MOL0     C70480   3.568   0.788   5.944  0.1413  0.5761 -0.4519
  523MOL0     C70481   3.556   0.817   6.086 -0.1458 -0.1449 -0.3799
  523MOL0     C70482   3.415   0.780   6.153  0.2594  0.2417  1.2304
  523MOL0     C70483   3.415   0.796   6.305 -1.0771 -0.1603  0.7389
  523MOL0     C70484   3.409   0.940   6.345 -0.4807  0.1505 -0.5814
  523MOL0     C70485   3.469   0.969   6.482  0.6244 -0.3784  0.7264
  523MOL0     C70486   3.453   1.119   6.514  0.1666  0.8651  0.3579
  523MOL0     N70487   3.322   1.155   6.555 -0.7938 -0.2244 -0.4683
  523MOL0     C70488   3.245   1.103   6.660  0.6184  0.3229  0.5309
  523MOL0     C70489   3.118   1.150   6.637 -0.7554  0.2029 -0.0613
  523MOL0     C70490   3.004   1.114   6.721  0.7196  0.2422 -0.1659
  523MOL0     C70491   3.005   1.174   6.865 -0.5650  0.1007  0.6598
  523MOL0     C70492   2.924   1.106   6.973 -1.1742 -0.8290 -0.1383
  523MOL0     C70493   2.790   1.040   6.927  0.2460 -0.0786 -0.6409
  523MOL0     O70494   2.679   1.115   6.981 -0.0945  0.5411  0.1068
  523MOL0     C70495   2.550   1.059   6.973  0.3202  0.0841  0.2609
  523MOL0     C70496   2.520   0.950   6.894  0.0945 -1.3447 -0.3829
  523MOL0     C70497   2.389   0.896   6.872  0.0155 -0.7677 -1.2045
  523MOL0     C70498   2.391   0.767   6.800 -0.2731 -0.8716 -0.5960
  523MOL0     C70499   2.277   0.975   6.917  0.3696 -0.2401  0.4589
  523MOL0     C70500   2.133   0.933   6.906  0.0242 -0.0271  1.1883
  523MOL0     O70501   2.049   1.029   6.951 -0.5766 -0.1466  0.4397
  523MOL0     C70502   1.915   1.038   6.913 -0.3831  0.1435 -0.3003
  523MOL0     C70503   1.826   1.124   6.982 -0.0262 -0.1577 -0.1406
  523MOL0     C70504   1.695   1.139   6.937  0.3858  0.0879  0.5756
  523MOL0     C70505   1.651   1.088   6.818  0.4984 -0.6855  0.6029
  523MOL0     O70506   1.530   1.103   6.761  0.3289  0.0982 -0.2733
  523MOL0     C70507   1.458   1.217   6.794 -0.5889  0.2919  0.1152
  523MOL0     C70508   1.343   1.245   6.705 -0.3356  0.3335 -0.5793
  523MOL0     C70509   1.393   1.279   6.569 -0.1711 -0.3351 -0.1031
  523MOL0     C70510   1.371   1.156   6.476  0.4288 -1.0523 -0.7295
  523MOL0     C70511   1.376   1.205   6.324  0.3950 -0.1495  0.4114
  523MOL0     C70512   1.267   1.306   6.285  0.0870  0.5977  0.8591
  523MOL0     C70513   1.255   1.327   6.131 -0.3213  1.0043  0.4096
  523MOL0     C70514   1.158   1.438   6.105  0.1720 -0.8734 -0.4488
  523MOL0    Cl70515   0.996   1.357   6.134  0.1561  0.0466 -0.4046
  523MOL0     C70516   1.739   0.996   6.753 -0.2222 -0.9574 -0.0609
  523MOL0     C70517   1.868   0.977   6.796  0.8742  0.0093 -0.7398
  523MOL0     O70518   2.103   0.824   6.871  0.3193  0.0966 -0.4076
  523MOL0     C70519   2.307   1.085   6.988 -1.2004  0.3688 -0.2243
  523MOL0     C70520   2.435   1.124   7.019 -0.1101  0.1536  0.1121
  523MOL0     N70521   3.115   1.238   6.528 -0.6019  0.1070  0.0648
  523MOL0     N70522   3.237   1.232   6.478 -0.3733  0.1298  0.9207
  523MOL0     C70523   3.931   0.856   5.672 -0.2809  0.0059 -0.0788
  523MOL0     C70524   4.029   0.830   5.584 -0.8952 -0.5999 -0.1505
  523MOL0     C70525   4.269   0.571   5.264  0.7594  1.2151  0.7177
  523MOL0     C70526   4.375   0.563   5.357 -0.9234  0.3282 -0.2629
  523MOL0     C70527   4.493   0.489   5.320  0.1747 -0.4281 -0.0429
  523MOL0     C70528   4.507   0.433   5.192  0.2040 -0.6511  0.1543
  523MOL0     O70529   4.628   0.369   5.166 -0.3575 -0.7473  0.4006
  523MOL0     C70530   4.660   0.316   5.031  0.1556 -0.4238  0.0535
  523MOL0     C70531   4.790   0.239   5.039  0.0395  0.4215  0.7370
  523MOL0     C70532   4.899   0.327   5.081  0.1865 -0.2885 -0.0223
  523MOL0     C70533   5.031   0.281   5.039 -0.2250 -0.6705  0.0688
  523MOL0     C70534   5.139   0.339   5.129  0.6739 -0.2860  0.1950
  523MOL0     C70535   5.219   0.401   5.197 -0.2497 -0.1131  0.1628
  523MOL0     C70536   4.415   0.469   5.092 -0.2182  0.3856  0.0935
  523MOL0     C70537   4.298   0.534   5.126  0.0622 -0.7320 -0.4804
  523MOL0     H70538   3.886   0.603   5.384 -2.1373  0.9715  0.9787
  523MOL0     H70539   3.705   0.642   5.534  0.2520 -1.6680  1.0592
  523MOL0     H70540   3.755   0.680   5.911 -0.1229  0.5539  1.2499
  523MOL0     H70541   3.779   0.863   5.926  1.5727 -0.4446 -2.8955
  523MOL0     H70542   3.497   0.858   5.898 -1.1078  1.9299  3.1750
  523MOL0     H70543   3.519   0.691   5.934 -1.1692  1.1502  0.2055
  523MOL0     H70544   3.624   0.747   6.135 -1.2392 -1.9227 -1.2695
  523MOL0     H70545   3.588   0.919   6.107  2.2455 -0.5701 -1.5843
  523MOL0     H70546   3.341   0.847   6.109  2.3493  1.4826 -0.6070
  523MOL0     H70547   3.394   0.680   6.114 -0.5879  1.3666 -1.4051
  523MOL0     H70548   3.327   0.747   6.347  0.4431 -2.4849  1.4011
  523MOL0     H70549   3.498   0.739   6.348 -0.9480  0.1893  0.9514
  523MOL0     H70550   3.482   0.982   6.276 -0.9280 -0.4574 -1.4460
  523MOL0     H70551   3.313   0.987   6.319 -0.4561  1.1723  1.0655
  523MOL0     H70552   3.416   0.919   6.563 -1.7673  0.0120 -0.5243
  523MOL0     H70553   3.574   0.940   6.491  0.8579  0.0946 -0.2919
  523MOL0     H70554   3.484   1.179   6.428  0.7592  0.4185  0.2507
  523MOL0     H70555   3.520   1.144   6.596  1.0846 -0.4688  0.0565
  523MOL0     H70556   3.280   1.034   6.736 -3.0508 -3.7364 -1.1028
  523MOL0     H70557   2.910   1.144   6.674  0.8759 -2.7584 -2.7645
  523MOL0     H70558   2.995   1.005   6.727 -3.6890  0.4790  1.0584
  523MOL0     H70559   2.993   1.283   6.857 -0.6733  0.0706  0.4104
  523MOL0     H70560   3.110   1.169   6.896  0.3492  1.9548 -1.7275
  523MOL0     H70561   2.912   1.183   7.050  1.1244  0.4403 -0.9831
  523MOL0     H70562   2.990   1.032   7.020  0.3617  1.2227  1.1180
  523MOL0     H70563   2.788   0.934   6.951  1.1001 -0.2346 -1.2000
  523MOL0     H70564   2.784   1.049   6.818  2.0184  1.3323 -0.6729
  523MOL0     H70565   2.601   0.893   6.850 -0.2805 -2.2974  0.1422
  523MOL0     H70566   2.484   0.711   6.813  0.5056  0.7268  1.2015
  523MOL0     H70567   2.308   0.703   6.831 -0.1706 -0.4627  0.5681
  523MOL0     H70568   2.358   0.791   6.698 -1.5473  1.4801  0.2736
  523MOL0     H70569   1.859   1.174   7.072 -3.3321  0.4388  0.8823
  523MOL0     H70570   1.635   1.203   7.002  0.4067  0.0256  0.6564
  523MOL0     H70571   1.425   1.206   6.897  1.8606  1.9270  1.1578
  523MOL0     H70572   1.519   1.307   6.795  1.1939 -0.8618 -0.1602
  523MOL0     H70573   1.280   1.156   6.710  0.9056 -0.8366 -3.6248
  523MOL0     H70574   1.294   1.332   6.749  2.4610  1.5357  0.3835
  523MOL0     H70575   1.499   1.305   6.566 -1.0217  3.9190 -0.7858
  523MOL0     H70576   1.335   1.364   6.530  0.1585 -1.4571 -3.3435
  523MOL0     H70577   1.443   1.076   6.493 -1.5477 -2.8724 -0.4578
  523MOL0     H70578   1.276   1.106   6.500  0.9608 -1.2480  1.1668
  523MOL0     H70579   1.374   1.117   6.258 -0.1633  0.5140 -0.4704
  523MOL0     H70580   1.475   1.248   6.304  1.2170 -1.6068  1.1614
  523MOL0     H70581   1.177   1.262   6.328 -0.7262 -3.0499 -3.8431
  523MOL0     H70582   1.302   1.398   6.332  0.3430  0.0878  1.6919
  523MOL0     H70583   1.231   1.235   6.077  1.6010  1.0124 -0.5506
  523MOL0     H70584   1.351   1.371   6.102 -0.8166  2.7293  1.2633
  523MOL0     H70585   1.169   1.472   6.002 -0.6119  1.1932  0.0920
  523MOL0     H70586   1.182   1.525   6.167 -1.1095  0.7424 -2.0842
  523MOL0     H70587   1.698   0.947   6.665  1.2495  3.1582 -3.4382
  523MOL0     H70588   1.935   0.904   6.752  2.3433 -0.1217  1.5302
  523MOL0     H70589   2.237   1.150   7.041  1.3115  2.8063  0.3204
  523MOL0     H70590   2.448   1.217   7.073 -2.3651  3.0762 -3.8411
  523MOL0     H70591   3.951   0.925   5.753 -0.6864 -0.2936  0.2822
  523MOL0     H70592   4.121   0.882   5.607 -0.5259 -1.2185 -0.2094
  523MOL0     H70593   4.349   0.591   5.459 -5.9583  3.5735 -2.0879
  523MOL0     H70594   4.569   0.465   5.394  1.6582  0.7210 -1.1330
  523MOL0     H70595   4.586   0.245   4.992 -0.4182  1.2463 -2.1564
  523MOL0     H70596   4.654   0.405   4.967 -0.8465 -0.9056 -0.5597
  523MOL0     H70597   4.809   0.204   4.937  0.2640 -0.2463  1.0028
  523MOL0     H70598   4.783   0.144   5.092  3.4106 -0.7614 -0.6666
  523MOL0     H70599   4.897   0.338   5.190 -0.8160 -1.7968  0.1368
  523MOL0     H70600   4.873   0.427   5.046 -1.8083 -0.8917 -0.4277
  523MOL0     H70601   5.054   0.324   4.941 -1.6992 -3.0477 -1.4276
  523MOL0     H70602   5.034   0.171   5.045  1.1681 -0.5974  1.5665
  523MOL0     H70603   5.287   0.462   5.253  0.1570 -1.0490  0.7375
  523MOL0     H70604   4.433   0.452   4.987 -2.6583  1.1028 -0.4879
  523MOL0     H70605   4.219   0.544   5.051 -0.9034 -0.5282  0.5394
  524MOL0     O70606   9.521   4.303   9.566  0.2683  0.3745  0.6708
  524MOL0     C70607   9.595   4.209   9.556 -0.5037  0.3054  0.6753
  524MOL0     O70608   9.573   4.083   9.596  0.1815 -0.2454  0.7162
  524MOL0     C70609   9.448   4.035   9.640 -0.0146  0.2077 -0.4569
  524MOL0     C70610   9.446   3.937   9.743 -0.1809 -1.3490 -0.6518
  524MOL0     C70611   9.327   3.877   9.784 -0.5329 -0.7639 -0.3574
  524MOL0     C70612   9.204   3.925   9.726 -0.4281  0.5578 -0.7952
  524MOL0     O70613   9.107   3.856   9.782 -1.0363  0.0711  0.4098
  524MOL0     C70614   8.992   3.843   9.702 -0.3878  0.3329 -0.1096
  524MOL0     C70615   8.889   3.948   9.727  0.8123 -0.2326  0.3120
  524MOL0     C70616   8.752   3.925   9.660 -0.6195  0.6120 -0.2999
  524MOL0     C70617   8.665   4.052   9.686  1.1190 -0.3305 -0.0178
  524MOL0     C70618   8.527   4.028   9.620  0.7115 -0.1085  0.3293
  524MOL0     C70619   8.453   4.156   9.602 -0.2976 -0.4842 -0.8098
  524MOL0     C70620   8.306   4.131   9.582 -0.0305  0.3073 -0.4882
  524MOL0     C70621   8.238   4.267   9.567 -0.3242 -0.9978 -0.0277
  524MOL0     N70622   8.093   4.268   9.550  0.0359 -0.0182  0.7585
  524MOL0     C70623   8.032   4.284   9.429  0.2419  0.4115  0.1064
  524MOL0     C70624   7.900   4.282   9.470 -0.0549 -0.3445 -0.6136
  524MOL0     C70625   7.783   4.326   9.384  0.2075 -0.3142 -0.1318
  524MOL0     C70626   7.670   4.378   9.474  0.5773  0.0925 -0.5617
  524MOL0     C70627   7.546   4.424   9.397  0.7778 -0.7381 -0.0245
  524MOL0     C70628   7.461   4.303   9.372 -0.4009 -0.6792  0.4052
  524MOL0     O70629   7.523   4.200   9.304  0.1520  0.5970  0.6085
  524MOL0     C70630   7.446   4.092   9.277  0.1779  0.3424  0.8095
  524MOL0     C70631   7.305   4.080   9.289 -0.8271  0.3982  0.2892
  524MOL0     C70632   7.245   3.954   9.276 -0.6082 -0.5939 -0.3772
  524MOL0     C70633   7.096   3.954   9.280 -0.0811 -0.4002 -0.3580
  524MOL0     C70634   7.323   3.843   9.242  0.2667 -0.6440 -0.2692
  524MOL0     C70635   7.253   3.711   9.232 -0.7865  0.2456  0.7468
  524MOL0     O70636   7.307   3.624   9.147 -0.6460 -0.0671  0.0596
  524MOL0     C70637   7.247   3.507   9.111 -0.2993  0.5071  0.4223
  524MOL0     C70638   7.330   3.425   9.024 -0.1354 -1.4375 -0.4502
  524MOL0     C70639   7.267   3.311   8.963 -0.2546 -0.6216  0.2705
  524MOL0     C70640   7.134   3.281   8.983 -0.4241  0.2686 -0.4450
  524MOL0     O70641   7.074   3.168   8.932 -0.3093 -0.1519  0.1299
  524MOL0     C70642   7.137   3.069   8.860  0.4951  0.5443  0.4494
  524MOL0     C70643   7.037   2.958   8.827  0.0671  0.1056  0.5741
  524MOL0     C70644   6.926   3.013   8.738  0.6516  0.6951  0.7177
  524MOL0     C70645   6.827   2.906   8.710  0.5241  0.0848 -0.5175
  524MOL0     C70646   6.717   2.959   8.615 -0.1349 -0.1350 -0.3767
  524MOL0     C70647   6.638   3.079   8.661  0.3855 -0.5347  0.2108
  524MOL0     C70648   6.502   3.104   8.588 -0.7121 -0.0227 -0.4793
  524MOL0     C70649   6.517   3.133   8.431 -0.2067 -0.5328  0.1891
  524MOL0    Cl70650   6.613   3.282   8.411  0.6937  0.2720 -0.8691
  524MOL0     C70651   7.058   3.359   9.067 -0.5114 -0.4678  1.0445
  524MOL0     C70652   7.113   3.467   9.139  0.1352  0.0796  0.9234
  524MOL0     O70653   7.168   3.690   9.319  0.6381  0.7417  0.0385
  524MOL0     C70654   7.465   3.854   9.229 -0.4303 -0.5194 -0.9338
  524MOL0     C70655   7.521   3.976   9.250 -0.3032  0.6961  0.5595
  524MOL0     N70656   7.899   4.240   9.598  0.3631 -0.1561  0.2610
  524MOL0     N70657   8.014   4.233   9.648  0.0436  0.1981 -0.1704
  524MOL0     C70658   9.204   4.029   9.635  0.3801 -0.8534 -0.3578
  524MOL0     C70659   9.325   4.079   9.598 -0.0105  0.6557  0.2755
  524MOL0     C70660   9.730   4.234   9.498  0.8520  0.2318 -0.7847
  524MOL0     C70661   9.754   4.330   9.407  0.0295  0.8936 -0.0073
  524MOL0     C70662   9.884   4.346   9.355 -0.4008  0.3957 -0.1476
  524MOL0     C70663   9.981   4.255   9.383  0.0584  0.7476  0.4896
  524MOL0     O70664  10.096   4.239   9.306 -0.7591  0.1369  0.0495
  524MOL0     C70665  10.150   4.334   9.205  0.0789  0.5486 -0.4286
  524MOL0     C70666  10.306   4.328   9.205 -0.0709  0.2060 -0.4082
  524MOL0     C70667  10.354   4.396   9.336  0.0622 -0.1853 -1.0826
  524MOL0     C70668  10.511   4.411   9.362  1.3624  0.3052 -0.0071
  524MOL0     C70669  10.561   4.498   9.259  0.5838  0.5674 -0.6761
  524MOL0     C70670  10.618   4.549   9.171 -0.1725  0.7115  0.0381
  524MOL0     C70671   9.945   4.146   9.463 -0.3572  0.5742 -0.0308
  524MOL0     C70672   9.828   4.134   9.524 -0.7758 -0.2058  0.8178
  524MOL0     H70673   9.525   3.916   9.813 -0.1865  1.0048  0.1557
  524MOL0     H70674   9.327   3.804   9.864 -3.5678  0.4600  0.8937
  524MOL0     H70675   9.017   3.826   9.597  1.6416  0.2497  0.3319
  524MOL0     H70676   8.948   3.745   9.722  0.3141  0.0574  0.1504
  524MOL0     H70677   8.857   3.960   9.831 -0.7841 -0.1654 -0.1592
  524MOL0     H70678   8.925   4.050   9.711  0.2881  0.1627  1.5166
  524MOL0     H70679   8.770   3.912   9.552  0.7354 -1.3779  0.0935
  524MOL0     H70680   8.706   3.833   9.696 -1.7795  1.1346 -0.4035
  524MOL0     H70681   8.655   4.075   9.792  1.4808 -0.4066  0.0332
  524MOL0     H70682   8.708   4.141   9.637 -0.3608  0.3804 -0.0793
  524MOL0     H70683   8.531   3.983   9.521 -1.5528  1.4185 -0.5284
  524MOL0     H70684   8.468   3.962   9.685 -0.6527  0.3446 -0.4108
  524MOL0     H70685   8.469   4.215   9.692  2.2898  0.8058 -1.9949
  524MOL0     H70686   8.497   4.214   9.520  0.6777  1.4808  1.0241
  524MOL0     H70687   8.292   4.058   9.502 -2.7018 -2.4367  2.1620
  524MOL0     H70688   8.269   4.075   9.669  0.7931 -0.8428 -0.8522
  524MOL0     H70689   8.291   4.320   9.486  1.1774 -0.2362  1.3832
  524MOL0     H70690   8.273   4.341   9.639  0.4544 -0.2203 -1.1627
  524MOL0     H70691   8.064   4.331   9.337 -0.6182 -0.7645 -0.8233
  524MOL0     H70692   7.805   4.412   9.320  1.1004 -0.0840  0.4637
  524MOL0     H70693   7.745   4.247   9.319  2.5700  0.3095 -2.4638
  524MOL0     H70694   7.719   4.460   9.528  1.6877 -2.4700  2.6024
  524MOL0     H70695   7.630   4.305   9.544 -0.8501  2.2706  1.0302
  524MOL0     H70696   7.579   4.478   9.308  0.7413  0.9899  0.9694
  524MOL0     H70697   7.495   4.496   9.462  2.1403  3.6254 -3.3277
  524MOL0     H70698   7.372   4.332   9.315  0.1482  0.4646  0.0977
  524MOL0     H70699   7.420   4.273   9.469 -0.4593 -0.4462  0.4534
  524MOL0     H70700   7.245   4.166   9.317 -0.4707  1.3693 -1.7742
  524MOL0     H70701   7.063   3.888   9.361 -0.1941  0.9191  0.6998
  524MOL0     H70702   7.049   4.052   9.289 -0.4416 -0.3687 -2.2321
  524MOL0     H70703   7.053   3.911   9.189  0.5767 -1.0939 -0.3531
  524MOL0     H70704   7.429   3.457   8.995  0.3136  0.3341  2.6212
  524MOL0     H70705   7.313   3.264   8.877  1.0528  1.5830 -0.3178
  524MOL0     H70706   7.172   3.116   8.768  3.6165  0.3032  1.3924
  524MOL0     H70707   7.223   3.025   8.911  2.4430 -0.0051 -3.0236
  524MOL0     H70708   7.092   2.872   8.787 -0.1493 -0.5350  1.6020
  524MOL0     H70709   6.988   2.931   8.922 -0.3731  0.6410  0.5032
  524MOL0     H70710   6.959   3.035   8.636 -0.1155 -2.6677 -0.4104
  524MOL0     H70711   6.871   3.096   8.782 -0.2649 -1.0590  3.0782
  524MOL0     H70712   6.870   2.813   8.670  0.6303 -0.9680  1.8551
  524MOL0     H70713   6.771   2.877   8.799  0.2640 -1.3001 -1.1008
  524MOL0     H70714   6.647   2.878   8.595  1.2781 -0.9353 -2.4130
  524MOL0     H70715   6.760   2.981   8.517  1.0087  0.1333  0.1729
  524MOL0     H70716   6.621   3.076   8.769 -2.4267 -0.9301 -0.1570
  524MOL0     H70717   6.701   3.166   8.642  2.5617 -2.0836  0.0288
  524MOL0     H70718   6.456   3.190   8.638  0.2888 -1.2561  2.8774
  524MOL0     H70719   6.430   3.024   8.606  1.5051 -1.4557  3.1168
  524MOL0     H70720   6.413   3.143   8.396 -0.8894  0.3156  2.2658
  524MOL0     H70721   6.568   3.048   8.386 -0.4051 -1.6262  1.9343
  524MOL0     H70722   6.953   3.331   9.064 -0.0887 -2.2876  1.7581
  524MOL0     H70723   7.047   3.517   9.209  0.1382 -1.4939  2.0921
  524MOL0     H70724   7.512   3.757   9.218  0.9768  0.2455 -1.9179
  524MOL0     H70725   7.628   3.989   9.261 -0.5709  1.7200  2.6145
  524MOL0     H70726   9.115   4.072   9.592 -0.0671  0.0122  1.3659
  524MOL0     H70727   9.321   4.157   9.522 -0.4065 -0.3218 -0.7284
  524MOL0     H70728   9.667   4.390   9.383 -0.5378 -0.4586 -1.5391
  524MOL0     H70729   9.923   4.426   9.292  3.5752 -0.1834  1.3438
  524MOL0     H70730  10.125   4.293   9.107 -0.4151  0.8207 -0.4230
  524MOL0     H70731  10.113   4.436   9.224  2.4939  1.2859  0.7420
  524MOL0     H70732  10.349   4.369   9.113  0.1012 -1.2492 -1.0100
  524MOL0     H70733  10.337   4.223   9.196  1.2855  0.6755 -1.6455
  524MOL0     H70734  10.311   4.333   9.415  1.6005 -1.8806 -1.5325
  524MOL0     H70735  10.306   4.494   9.344 -1.2225 -0.9185  1.3236
  524MOL0     H70736  10.568   4.319   9.350  2.4603  0.9319  0.2197
  524MOL0     H70737  10.536   4.444   9.463  0.4168  0.1019  0.3019
  524MOL0     H70738  10.669   4.583   9.083  1.1384  0.4157  0.6593
  524MOL0     H70739  10.006   4.056   9.466  1.2545  1.5100 -2.1441
  524MOL0     H70740   9.816   4.045   9.584  1.2733 -1.5273 -0.6112
  525MOL0     O70741   4.454   5.458   3.106 -0.1954  0.3662  0.6851
  525MOL0     C70742   4.516   5.355   3.065 -0.0523 -0.5931 -0.4732
  525MOL0     O70743   4.476   5.274   2.961  0.2180  0.1479 -0.3969
  525MOL0     C70744   4.353   5.312   2.908 -0.5161  0.4920 -0.6330
  525MOL0     C70745   4.224   5.294   2.963 -0.3791 -0.7243 -0.0429
  525MOL0     C70746   4.109   5.344   2.894  0.3309 -0.0507 -0.7722
  525MOL0     C70747   4.127   5.405   2.763  0.4193 -0.4983 -0.2532
  525MOL0     O70748   4.028   5.453   2.684  0.4479  0.8085  0.3462
  525MOL0     C70749   3.893   5.416   2.724  0.8217 -0.0643  0.5653
  525MOL0     C70750   3.809   5.493   2.625 -0.6491 -0.3325 -0.1656
  525MOL0     C70751   3.663   5.489   2.664 -0.3061  0.3293 -0.6418
  525MOL0     C70752   3.558   5.414   2.579 -0.4108  0.3313 -0.1288
  525MOL0     C70753   3.411   5.418   2.632 -0.8092  0.6753  0.3122
  525MOL0     C70754   3.322   5.312   2.565  0.5879  0.1949  0.3190
  525MOL0     C70755   3.184   5.340   2.626 -0.2011 -0.0009 -0.0464
  525MOL0     C70756   3.085   5.228   2.596  0.7176  0.1850  0.0740
  525MOL0     N70757   2.949   5.267   2.642 -0.2723  0.5278  1.1280
  525MOL0     C70758   2.859   5.331   2.559  0.3914 -0.9081  0.5691
  525MOL0     C70759   2.743   5.342   2.632 -0.1494 -0.1860 -0.3572
  525MOL0     C70760   2.598   5.377   2.587 -0.2869  0.0059  0.1586
  525MOL0     C70761   2.567   5.282   2.463 -0.0501  0.3458  0.8349
  525MOL0     C70762   2.435   5.327   2.398 -0.3479  0.3321  0.8124
  525MOL0     C70763   2.386   5.248   2.275  0.2401 -0.5926  1.2003
  525MOL0     O70764   2.238   5.260   2.281 -0.3406  0.2285  0.1588
  525MOL0     C70765   2.167   5.153   2.232  0.4417 -0.2772  0.0658
  525MOL0     C70766   2.035   5.128   2.268 -0.0352 -0.1641  0.2349
  525MOL0     C70767   1.943   5.035   2.211 -0.1102 -0.2883 -1.2553
  525MOL0     C70768   1.802   5.041   2.256 -0.5586  0.2853 -0.2908
  525MOL0     C70769   1.994   4.948   2.118 -0.8578 -0.3204 -0.0450
  525MOL0     C70770   1.917   4.837   2.069  1.2521 -0.3057  0.0022
  525MOL0     O70771   1.900   4.727   2.143  0.3654  0.6698 -0.4042
  525MOL0     C70772   1.818   4.627   2.108 -0.3109 -0.1452  1.2294
  525MOL0     C70773   1.690   4.665   2.079  0.8517  0.1485  0.4191
  525MOL0     C70774   1.606   4.566   2.036 -0.7893 -0.3963 -0.0962
  525MOL0     C70775   1.642   4.433   2.021 -0.3113  0.7049  0.1282
  525MOL0     O70776   1.542   4.341   1.985  0.5241  0.1742 -0.3267
  525MOL0     C70777   1.534   4.227   2.076 -0.3600 -0.0264 -0.2009
  525MOL0     C70778   1.426   4.141   2.017  0.2274 -0.2036  0.5224
  525MOL0     C70779   1.362   4.020   2.087  0.1888 -0.1702 -0.2206
  525MOL0     C70780   1.268   3.947   1.999 -0.1876 -0.1130  0.1681
  525MOL0     C70781   1.221   3.817   2.056  0.0134  0.5034 -0.1123
  525MOL0     C70782   1.119   3.753   1.962  0.6053  0.0941 -0.7475
  525MOL0     C70783   1.076   3.609   2.015 -0.7385 -0.0497 -0.2383
  525MOL0     C70784   0.929   3.580   2.016  0.5399 -0.5517 -0.0765
  525MOL0    Cl70785   0.905   3.408   2.081  0.0211 -0.0541  0.1609
  525MOL0     C70786   1.775   4.401   2.048 -0.2985  0.4228  0.5259
  525MOL0     C70787   1.863   4.498   2.106 -0.1552  0.6508  0.2463
  525MOL0     O70788   1.885   4.845   1.949  0.6476 -0.2076  0.0225
  525MOL0     C70789   2.125   4.968   2.074  0.5021 -0.6929 -0.2091
  525MOL0     C70790   2.209   5.071   2.121  0.2220 -0.3578 -0.0088
  525MOL0     N70791   2.781   5.295   2.759  0.8862 -0.5747 -0.3415
  525MOL0     N70792   2.906   5.257   2.766  0.9409  0.3308  0.1643
  525MOL0     C70793   4.254   5.415   2.712 -0.1703 -0.0310  0.2521
  525MOL0     C70794   4.367   5.367   2.782 -1.0030 -0.0735  0.3704
  525MOL0     C70795   4.640   5.324   3.144 -0.7089  0.5095  1.0760
  525MOL0     C70796   4.735   5.224   3.103 -1.0368 -0.0542 -0.6060
  525MOL0     C70797   4.840   5.189   3.193 -0.7010  0.0196 -0.7059
  525MOL0     C70798   4.862   5.275   3.297  0.3253 -1.2634 -0.0464
  525MOL0     O70799   4.974   5.246   3.374  1.1275 -0.3748 -0.3169
  525MOL0     C70800   4.964   5.139   3.458  0.2026 -0.0844 -0.4948
  525MOL0     C70801   5.092   5.122   3.532 -0.1898 -0.3312 -0.4152
  525MOL0     C70802   5.088   5.004   3.631 -0.2394 -0.4871  0.8162
  525MOL0     C70803   5.015   5.046   3.757  0.6592 -0.5857 -0.5766
  525MOL0     C70804   5.027   4.950   3.867 -0.3840  0.4436  0.7901
  525MOL0     C70805   5.051   4.874   3.962 -0.3112  0.2112 -0.1676
  525MOL0     C70806   4.776   5.381   3.335 -0.1175  0.8932 -0.1140
  525MOL0     C70807   4.659   5.398   3.258  0.8655  0.0989 -0.1293
  525MOL0     H70808   4.222   5.252   3.063 -1.1712 -1.0369 -0.1845
  525MOL0     H70809   4.021   5.334   2.955  0.7684 -0.1914 -0.1565
  525MOL0     H70810   3.867   5.310   2.712  1.6921 -0.6853  3.4223
  525MOL0     H70811   3.874   5.453   2.826  2.6208 -1.1704  1.3591
  525MOL0     H70812   3.854   5.592   2.610 -0.7757 -0.4924 -1.8082
  525MOL0     H70813   3.823   5.433   2.535 -0.2358 -1.3896  0.5844
  525MOL0     H70814   3.656   5.444   2.763  2.0627  1.1439 -0.0435
  525MOL0     H70815   3.630   5.593   2.678  0.3688  0.0816  4.3770
  525MOL0     H70816   3.580   5.457   2.480  0.9738  1.4879  0.6417
  525MOL0     H70817   3.591   5.312   2.559  1.7592  1.7366 -5.4719
  525MOL0     H70818   3.417   5.381   2.735  2.4744  1.5781  0.5485
  525MOL0     H70819   3.370   5.519   2.625 -0.4159  0.8587  0.6116
  525MOL0     H70820   3.324   5.328   2.457  0.5866  0.5721  0.3724
  525MOL0     H70821   3.367   5.217   2.594  1.2944  0.5819  0.5275
  525MOL0     H70822   3.193   5.340   2.735  4.8023 -1.6078 -0.1797
  525MOL0     H70823   3.145   5.436   2.592  1.6490 -0.0310 -2.5162
  525MOL0     H70824   3.125   5.145   2.655  3.9037  0.3967 -1.5338
  525MOL0     H70825   3.090   5.207   2.488  0.9383 -1.1373  0.3247
  525MOL0     H70826   2.866   5.339   2.451  0.2240 -4.6231  0.1411
  525MOL0     H70827   2.517   5.364   2.660 -1.5231  2.4286 -0.6667
  525MOL0     H70828   2.604   5.481   2.553  0.8801  1.6998  4.8557
  525MOL0     H70829   2.561   5.177   2.493 -1.7549  0.4410  0.9255
  525MOL0     H70830   2.648   5.288   2.390 -0.3977 -2.0507  0.1803
  525MOL0     H70831   2.441   5.432   2.367 -1.2803  1.0267  2.7611
  525MOL0     H70832   2.355   5.320   2.473 -0.2669  2.3505  1.1440
  525MOL0     H70833   2.421   5.145   2.285  0.0090 -0.4629  4.7405
  525MOL0     H70834   2.425   5.293   2.183 -0.1052 -2.0013  0.3262
  525MOL0     H70835   2.002   5.194   2.347  0.4761 -0.9091  1.0915
  525MOL0     H70836   1.741   4.971   2.199  0.9837 -0.5382 -1.0028
  525MOL0     H70837   1.782   5.034   2.363  0.6574 -2.0167 -0.1362
  525MOL0     H70838   1.761   5.140   2.238  1.4412  1.6484  2.0176
  525MOL0     H70839   1.650   4.765   2.067  1.8340  0.4527 -0.4538
  525MOL0     H70840   1.505   4.594   2.008 -1.0449  0.7099  1.7602
  525MOL0     H70841   1.623   4.164   2.077 -0.1610  0.2500 -0.5226
  525MOL0     H70842   1.518   4.260   2.180 -2.5453 -3.0641  0.5825
  525MOL0     H70843   1.356   4.217   1.982  1.2650 -0.1796 -1.6893
  525MOL0     H70844   1.479   4.099   1.931  1.5876  4.3406 -1.1761
  525MOL0     H70845   1.305   4.051   2.175 -0.7724 -0.1008 -0.8493
  525MOL0     H70846   1.441   3.954   2.125  0.5246 -0.0052 -0.6228
  525MOL0     H70847   1.183   4.010   1.972  1.0560  0.6335 -2.3224
  525MOL0     H70848   1.323   3.932   1.906  1.2062  0.6242  0.8384
  525MOL0     H70849   1.172   3.839   2.152 -0.1151  0.7160 -0.2272
  525MOL0     H70850   1.301   3.745   2.076 -0.9555 -0.6309 -0.1746
  525MOL0     H70851   1.026   3.809   1.952  0.6357  0.9094  2.4100
  525MOL0     H70852   1.160   3.748   1.860  0.8288 -0.8910 -0.6200
  525MOL0     H70853   1.114   3.584   2.114  1.2695 -1.1188 -1.2189
  525MOL0     H70854   1.128   3.534   1.954  0.4605  0.3216  0.3000
  525MOL0     H70855   0.879   3.588   1.919 -0.6736 -0.0525  0.5622
  525MOL0     H70856   0.870   3.648   2.078  1.5329  1.5569 -1.3627
  525MOL0     H70857   1.803   4.298   2.028 -2.9171 -0.9038  2.9078
  525MOL0     H70858   1.969   4.485   2.122 -0.0189  0.3108 -0.8236
  525MOL0     H70859   2.164   4.892   2.007  0.9835 -0.0475 -0.6772
  525MOL0     H70860   2.307   5.088   2.076 -0.5932  3.1249 -0.7641
  525MOL0     H70861   4.269   5.462   2.616  1.3968  1.0389  0.9731
  525MOL0     H70862   4.470   5.370   2.750  0.0456  0.3645  3.4432
  525MOL0     H70863   4.738   5.149   3.025  1.5795 -0.7969  0.1003
  525MOL0     H70864   4.911   5.108   3.177 -0.6017 -0.2792  1.1103
  525MOL0     H70865   4.886   5.167   3.529 -0.7608 -0.5314 -1.3681
  525MOL0     H70866   4.939   5.049   3.401  0.1335  0.9332 -2.1152
  525MOL0     H70867   5.121   5.210   3.590  0.3909  0.3659 -1.7205
  525MOL0     H70868   5.174   5.097   3.464  0.3058 -1.7047  0.6300
  525MOL0     H70869   5.188   4.969   3.657  0.7105  0.9297 -0.6973
  525MOL0     H70870   5.037   4.916   3.591 -0.4805  0.6866 -1.6749
  525MOL0     H70871   4.909   5.064   3.734  1.2451  1.6241 -1.8158
  525MOL0     H70872   5.059   5.143   3.782 -0.3998 -0.3456  0.4758
  525MOL0     H70873   5.073   4.801   4.038 -0.2872  0.9336  0.5407
  525MOL0     H70874   4.791   5.436   3.427 -0.0591 -0.6354  0.8158
  525MOL0     H70875   4.596   5.479   3.292  0.6094 -1.2071  2.8806
  526MOL0     O70876   8.030   4.977   3.605  0.1273  0.3764 -0.2323
  526MOL0     C70877   8.094   5.082   3.593  0.3336 -0.4385  0.3630
  526MOL0     O70878   8.069   5.180   3.500  0.8430 -0.9468 -0.0592
  526MOL0     C70879   7.940   5.182   3.453  0.4581 -0.1835  0.6809
  526MOL0     C70880   7.922   5.196   3.317 -0.2081  0.3260  0.1633
  526MOL0     C70881   7.792   5.202   3.256 -0.0671  0.1007 -0.2655
  526MOL0     C70882   7.672   5.183   3.326  0.4353 -0.4370  0.6547
  526MOL0     O70883   7.557   5.207   3.254  0.1721 -0.0138 -0.0945
  526MOL0     C70884   7.449   5.161   3.320 -0.3931  0.1971  0.0971
  526MOL0     C70885   7.325   5.157   3.233 -1.1238  0.0963 -1.1579
  526MOL0     C70886   7.210   5.096   3.315 -0.0258  0.4018  0.2088
  526MOL0     C70887   7.074   5.093   3.235 -0.0950 -0.3922  0.7828
  526MOL0     C70888   6.958   5.048   3.323  0.2768  0.8810  0.7870
  526MOL0     C70889   6.833   5.053   3.238 -0.0589 -0.9583  0.1856
  526MOL0     C70890   6.714   4.968   3.304 -1.1443 -0.2794 -0.1145
  526MOL0     C70891   6.679   5.010   3.447 -0.3788  0.3183  0.3821
  526MOL0     N70892   6.665   5.153   3.450  0.6497 -0.2106  0.1314
  526MOL0     C70893   6.574   5.225   3.370  0.8037 -0.2534 -0.5362
  526MOL0     C70894   6.590   5.349   3.397  0.3411  0.0551 -0.0979
  526MOL0     C70895   6.516   5.471   3.352  0.5083  0.2325  0.4185
  526MOL0     C70896   6.371   5.479   3.404 -0.1456 -0.0905 -0.1120
  526MOL0     C70897   6.308   5.609   3.366  0.0995 -0.2222  0.2443
  526MOL0     C70898   6.160   5.589   3.363 -0.8404  0.3002  0.1985
  526MOL0     O70899   6.134   5.494   3.258  0.1615 -0.4230  0.8241
  526MOL0     C70900   5.999   5.495   3.227  0.1613 -0.2130  0.8706
  526MOL0     C70901   5.972   5.505   3.095 -0.2013 -1.1832 -0.5902
  526MOL0     C70902   5.839   5.515   3.043  0.2478 -0.3455  0.1558
  526MOL0     C70903   5.820   5.531   2.896  0.4329  0.7921  0.0135
  526MOL0     C70904   5.731   5.510   3.146 -0.6250 -0.3860  0.4442
  526MOL0     C70905   5.588   5.515   3.108 -0.0192  0.8253 -0.7535
  526MOL0     O70906   5.504   5.425   3.159  0.1277  0.0590  0.5986
  526MOL0     C70907   5.399   5.370   3.081 -0.2752 -0.0937 -0.0118
  526MOL0     C70908   5.415   5.268   2.996  0.0548  1.2453 -0.9779
  526MOL0     C70909   5.300   5.208   2.939 -0.7330  0.2427 -0.1138
  526MOL0     C70910   5.174   5.246   2.977 -0.1715  0.1168  0.2298
  526MOL0     O70911   5.061   5.205   2.915  0.0198 -0.0654  0.2168
  526MOL0     C70912   5.069   5.122   2.797 -0.2289 -0.1594 -0.2465
  526MOL0     C70913   4.919   5.096   2.744 -0.1214  0.5299 -0.8740
  526MOL0     C70914   4.829   5.222   2.721 -0.4694  0.3169 -0.8076
  526MOL0     C70915   4.703   5.188   2.653 -0.1807  0.9039  0.2610
  526MOL0     C70916   4.730   5.130   2.520 -0.1256 -0.0239  0.2240
  526MOL0     C70917   4.623   5.163   2.410  0.0128 -0.1170 -0.3141
  526MOL0     C70918   4.650   5.088   2.283  0.2120 -0.0372  0.0064
  526MOL0     C70919   4.567   5.147   2.162 -0.2132 -0.0373  0.6064
  526MOL0    Cl70920   4.387   5.153   2.182 -0.1130  0.0259 -0.3291
  526MOL0     C70921   5.153   5.355   3.056 -0.4710  0.5388 -0.1806
  526MOL0     C70922   5.271   5.413   3.116  0.4893  0.3991  0.2636
  526MOL0     O70923   5.552   5.594   3.022 -1.0808  0.1385 -0.0617
  526MOL0     C70924   5.770   5.490   3.278  0.0318  0.0064  0.7871
  526MOL0     C70925   5.896   5.478   3.321 -0.5044  1.2356 -0.2141
  526MOL0     N70926   6.683   5.355   3.505  0.4336 -1.0185 -0.0992
  526MOL0     N70927   6.734   5.242   3.527  0.2494  0.2630 -0.0692
  526MOL0     C70928   7.684   5.161   3.463  0.0854 -0.0607 -0.6325
  526MOL0     C70929   7.815   5.160   3.525  0.1222  0.1026  0.2480
  526MOL0     C70930   8.198   5.119   3.691 -0.1972  0.6031  0.3915
  526MOL0     C70931   8.257   5.253   3.698 -0.2701 -0.0862  0.2993
  526MOL0     C70932   8.347   5.291   3.801  0.3373 -0.7485  1.2043
  526MOL0     C70933   8.385   5.191   3.893 -0.6120  0.1413 -0.2794
  526MOL0     O70934   8.475   5.208   3.992 -0.3433  0.0332  0.1189
  526MOL0     C70935   8.556   5.328   4.007  0.9124  0.4189 -0.6507
  526MOL0     C70936   8.657   5.307   4.133 -0.1529 -0.4279 -0.3430
  526MOL0     C70937   8.787   5.243   4.075 -0.5839  0.7041 -0.0211
  526MOL0     C70938   8.887   5.184   4.186 -0.0818  0.4985 -0.2920
  526MOL0     C70939   8.933   5.290   4.281  1.0245  0.0337  0.2169
  526MOL0     C70940   8.958   5.374   4.364 -0.0249  0.1826 -0.1800
  526MOL0     C70941   8.323   5.067   3.887  0.4515  0.6986 -1.0146
  526MOL0     C70942   8.234   5.028   3.786 -0.4833  0.1077 -0.7751
  526MOL0     H70943   8.009   5.216   3.256  0.2162  0.3792  0.7850
  526MOL0     H70944   7.782   5.211   3.149  1.8211 -2.2402 -0.7303
  526MOL0     H70945   7.466   5.058   3.351 -1.6494 -0.2667 -0.6680
  526MOL0     H70946   7.426   5.219   3.410  2.0335 -2.3460  2.5530
  526MOL0     H70947   7.311   5.261   3.200 -0.6113  0.7544  0.5894
  526MOL0     H70948   7.343   5.096   3.143  1.5964 -2.6161  1.0171
  526MOL0     H70949   7.247   4.997   3.342  0.7172  0.5114 -0.3699
  526MOL0     H70950   7.187   5.158   3.402 -0.6443 -1.5264  1.4984
  526MOL0     H70951   7.054   5.197   3.206  0.4261 -0.5842 -0.3300
  526MOL0     H70952   7.084   5.032   3.144  1.7829  0.9784  0.0109
  526MOL0     H70953   6.977   4.942   3.341  0.0446  0.3413 -1.6619
  526MOL0     H70954   6.955   5.114   3.410 -1.7070  0.8806  0.7584
  526MOL0     H70955   6.811   5.159   3.230  0.4261 -0.8667  0.0530
  526MOL0     H70956   6.866   5.018   3.140  1.7881  2.8497 -0.7043
  526MOL0     H70957   6.620   4.979   3.249 -1.8298  1.9122  1.3629
  526MOL0     H70958   6.739   4.862   3.310 -1.0176 -0.2094  0.7303
  526MOL0     H70959   6.759   4.987   3.517  0.0154  1.6021  0.3895
  526MOL0     H70960   6.586   4.961   3.477  0.5608  0.2845  3.5757
  526MOL0     H70961   6.501   5.194   3.296 -2.2996 -0.8675  2.5193
  526MOL0     H70962   6.582   5.555   3.375 -2.9252  3.4393 -0.4546
  526MOL0     H70963   6.506   5.468   3.243 -0.3050  2.5065  0.3652
  526MOL0     H70964   6.348   5.460   3.509  0.8230  2.0382  0.5416
  526MOL0     H70965   6.322   5.395   3.353 -1.2372 -0.9181  2.1726
  526MOL0     H70966   6.340   5.642   3.266 -0.8102 -0.7738 -0.2417
  526MOL0     H70967   6.335   5.678   3.446  0.9280  0.7553 -0.8502
  526MOL0     H70968   6.120   5.689   3.344  0.8830  1.0402  0.2442
  526MOL0     H70969   6.131   5.549   3.461 -2.0841 -0.0939 -0.3090
  526MOL0     H70970   6.056   5.522   3.029 -0.9323  2.0780 -0.8276
  526MOL0     H70971   5.750   5.457   2.854 -0.3636  0.5822  1.6546
  526MOL0     H70972   5.780   5.632   2.881  0.5405  0.8346  0.0088
  526MOL0     H70973   5.907   5.525   2.829  0.2824  0.7315 -0.1789
  526MOL0     H70974   5.514   5.237   2.964 -0.3626 -0.6684 -0.5468
  526MOL0     H70975   5.314   5.125   2.870 -1.8949  1.2323 -1.5971
  526MOL0     H70976   5.119   5.173   2.714 -1.8613  0.2647 -1.0089
  526MOL0     H70977   5.126   5.030   2.817 -0.3276 -0.0116  0.7832
  526MOL0     H70978   4.928   5.033   2.655 -0.7521  0.2682 -0.7624
  526MOL0     H70979   4.868   5.024   2.809 -1.0657 -0.3548 -2.5229
  526MOL0     H70980   4.887   5.295   2.664 -1.2008 -0.6117 -2.8265
  526MOL0     H70981   4.814   5.263   2.822  0.0220 -1.7124  0.1273
  526MOL0     H70982   4.633   5.129   2.712  0.0330  0.7833  0.3953
  526MOL0     H70983   4.662   5.286   2.624  0.9809  1.4373  0.3646
  526MOL0     H70984   4.728   5.021   2.524 -1.2218  0.0095  1.1408
  526MOL0     H70985   4.830   5.154   2.483 -0.0451  3.2229  2.1805
  526MOL0     H70986   4.527   5.120   2.441 -1.3091  1.2803 -2.2346
  526MOL0     H70987   4.616   5.269   2.385  1.0940 -0.1657 -0.8778
  526MOL0     H70988   4.638   4.980   2.294 -1.1460  0.1809  0.9598
  526MOL0     H70989   4.755   5.104   2.256  1.0657 -2.7599  1.3275
  526MOL0     H70990   4.602   5.101   2.069  0.7789  2.7136 -0.5002
  526MOL0     H70991   4.612   5.244   2.141 -0.0465 -0.3761 -0.7119
  526MOL0     H70992   5.054   5.395   3.076 -0.6413 -0.0943  0.2891
  526MOL0     H70993   5.269   5.493   3.189  2.2000  0.8910 -0.1852
  526MOL0     H70994   5.689   5.497   3.349 -0.8207  0.7049 -0.2273
  526MOL0     H70995   5.914   5.461   3.427  0.7071 -0.1928 -0.6127
  526MOL0     H70996   7.602   5.140   3.530  2.5613 -3.8253  1.6383
  526MOL0     H70997   7.818   5.128   3.628  3.6082 -0.5596  0.0613
  526MOL0     H70998   8.229   5.329   3.626  2.1080  0.6084  0.0146
  526MOL0     H70999   8.388   5.391   3.807  1.5971 -1.2316  0.8208
  526MOL0     H71000   8.612   5.352   3.916 -0.1752 -0.7185 -1.6695
  526MOL0     H71001   8.492   5.414   4.027  1.9639  0.8417  1.1038
  526MOL0     H71002   8.602   5.249   4.208  1.5571 -0.5228  0.9131
  526MOL0     H71003   8.683   5.404   4.176  1.3685 -0.5871 -0.8347
  526MOL0     H71004   8.837   5.326   4.024 -0.8392 -0.1117 -1.6591
  526MOL0     H71005   8.763   5.164   4.003 -0.6862 -1.8424  2.6458
  526MOL0     H71006   8.970   5.130   4.138 -1.7411 -1.6765 -0.8961
  526MOL0     H71007   8.836   5.108   4.246  3.5690 -0.9999  1.2371
  526MOL0     H71008   8.986   5.448   4.436  0.5189 -1.6045  1.5032
  526MOL0     H71009   8.355   4.993   3.960 -2.0047  0.0443 -0.5123
  526MOL0     H71010   8.184   4.933   3.774 -1.3535  0.3411  0.7343
  527MOL0     O71011   3.530   8.351   8.979  0.3102  0.3989 -0.1237
  527MOL0     C71012   3.516   8.270   8.894  0.6235 -0.5249  0.0429
  527MOL0     O71013   3.619   8.216   8.818  0.0078  0.4633 -0.1085
  527MOL0     C71014   3.743   8.256   8.850  0.0894 -0.9928  0.1825
  527MOL0     C71015   3.811   8.187   8.955  0.5992 -0.2658  0.0135
  527MOL0     C71016   3.949   8.219   8.978 -0.6168 -0.4598  0.1002
  527MOL0     C71017   4.007   8.333   8.910 -0.2086 -0.7210 -0.3824
  527MOL0     O71018   4.139   8.376   8.939  0.6140  0.0804 -0.0912
  527MOL0     C71019   4.234   8.283   8.987  0.4586 -0.0985 -0.2295
  527MOL0     C71020   4.376   8.343   8.976 -0.2296  0.2832 -0.4620
  527MOL0     C71021   4.414   8.354   8.827  0.5450  0.4930 -1.0949
  527MOL0     C71022   4.537   8.442   8.820  0.2314  0.0656  0.2066
  527MOL0     C71023   4.580   8.461   8.674  0.5805 -0.4264  0.7087
  527MOL0     C71024   4.725   8.507   8.659  0.3790 -0.2929 -0.3450
  527MOL0     C71025   4.766   8.648   8.698  0.6487 -0.2994  0.6110
  527MOL0     C71026   4.911   8.662   8.694 -0.2377  0.1401  0.2333
  527MOL0     N71027   4.960   8.803   8.699  0.6280  0.6018  0.5330
  527MOL0     C71028   5.035   8.863   8.596 -0.2613 -0.2151 -0.2318
  527MOL0     C71029   5.042   8.991   8.630 -0.3548 -1.5016 -0.0932
  527MOL0     C71030   5.097   9.109   8.553 -0.5630  0.2561  0.5106
  527MOL0     C71031   5.005   9.226   8.522  0.3403  0.8324  0.3573
  527MOL0     C71032   4.904   9.188   8.421  0.0819  0.2181  0.1614
  527MOL0     C71033   4.776   9.275   8.446 -0.0619 -0.2267 -0.3633
  527MOL0     O71034   4.659   9.212   8.382 -0.1106  0.0354 -0.1727
  527MOL0     C71035   4.545   9.274   8.338 -0.0727 -0.1736 -1.0670
  527MOL0     C71036   4.514   9.406   8.364  0.7406 -1.0317 -1.1843
  527MOL0     C71037   4.396   9.473   8.325  0.5101 -0.0998 -0.1267
  527MOL0     C71038   4.372   9.608   8.389 -0.9742 -0.1199  0.7551
  527MOL0     C71039   4.300   9.393   8.252 -0.7782 -0.6280 -0.5720
  527MOL0     C71040   4.168   9.444   8.211  0.2329 -0.0355 -0.2400
  527MOL0     O71041   4.128   9.566   8.268  0.5643  0.0879 -0.1087
  527MOL0     C71042   3.995   9.597   8.268  0.0114 -0.0971  0.8402
  527MOL0     C71043   3.927   9.632   8.153  0.0755 -0.3161 -0.8633
  527MOL0     C71044   3.782   9.627   8.154  0.6149  0.3750  0.2872
  527MOL0     C71045   3.708   9.596   8.274 -0.2061 -0.4696 -0.3157
  527MOL0     O71046   3.570   9.594   8.288  0.2653 -0.1348 -0.0993
  527MOL0     C71047   3.498   9.583   8.164 -0.2731  0.6134 -0.3400
  527MOL0     C71048   3.350   9.548   8.186  0.1498  0.0660  0.0704
  527MOL0     C71049   3.268   9.542   8.060 -0.2245  0.2431  0.7482
  527MOL0     C71050   3.119   9.532   8.075  0.1674  0.0801  0.6304
  527MOL0     C71051   3.042   9.510   7.945 -0.6360 -0.2426 -0.6022
  527MOL0     C71052   2.895   9.521   7.969 -0.2974 -0.0500 -0.4805
  527MOL0     C71053   2.818   9.501   7.838 -0.8747  0.5508  0.2461
  527MOL0     C71054   2.680   9.423   7.848 -0.1060  0.2396 -0.2018
  527MOL0    Cl71055   2.722   9.250   7.886  0.1054 -0.2172 -0.1550
  527MOL0     C71056   3.781   9.578   8.392 -1.1502 -1.2315 -0.4031
  527MOL0     C71057   3.920   9.577   8.386 -0.1359  0.0622 -0.0105
  527MOL0     O71058   4.097   9.376   8.131  0.0067 -0.2448  0.3582
  527MOL0     C71059   4.330   9.262   8.223 -0.7318  0.8295  0.2632
  527MOL0     C71060   4.451   9.209   8.263 -0.8775  0.0602 -0.1449
  527MOL0     N71061   5.000   9.011   8.765 -0.2663  1.0490  0.6160
  527MOL0     N71062   4.937   8.895   8.802 -0.1842  0.2041  0.3520
  527MOL0     C71063   3.935   8.394   8.808 -0.1768 -0.4438  0.0433
  527MOL0     C71064   3.800   8.358   8.778  0.3429 -0.0271 -0.4326
  527MOL0     C71065   3.373   8.246   8.860 -0.4090 -0.5403  0.5947
  527MOL0     C71066   3.345   8.176   8.738  0.2189  0.3274  0.7015
  527MOL0     C71067   3.216   8.172   8.687 -0.4425  0.8932  0.8554
  527MOL0     C71068   3.109   8.245   8.742 -0.0808 -0.2573  0.6564
  527MOL0     O71069   2.990   8.255   8.681  0.0646 -0.3100 -0.2332
  527MOL0     C71070   2.938   8.179   8.573 -1.0603  0.4782  0.5834
  527MOL0     C71071   2.784   8.187   8.570 -0.0574 -0.5222  0.1076
  527MOL0     C71072   2.719   8.107   8.454 -1.4281 -0.4698 -0.2529
  527MOL0     C71073   2.562   8.090   8.473 -0.0103  0.2771  0.7007
  527MOL0     C71074   2.485   8.057   8.352  0.0487 -0.8361 -0.1587
  527MOL0     C71075   2.408   8.051   8.259  0.3585  0.0659  0.1255
  527MOL0     C71076   3.130   8.316   8.859 -0.5412  0.5770 -0.0317
  527MOL0     C71077   3.262   8.323   8.906 -0.5739 -0.3372 -0.7689
  527MOL0     H71078   3.752   8.108   9.001 -2.5962  0.5980 -2.2486
  527MOL0     H71079   3.989   8.155   9.056 -4.4948  0.8091  3.4856
  527MOL0     H71080   4.204   8.273   9.092 -2.1943 -0.3982 -0.9286
  527MOL0     H71081   4.218   8.193   8.927 -1.1147  1.4967 -2.3726
  527MOL0     H71082   4.382   8.441   9.024 -0.2662 -0.3452  0.8621
  527MOL0     H71083   4.450   8.282   9.029 -0.9979 -0.7253 -0.5133
  527MOL0     H71084   4.435   8.255   8.786 -1.0171 -0.3513  0.0564
  527MOL0     H71085   4.333   8.407   8.777  1.7076  0.6112 -2.9333
  527MOL0     H71086   4.533   8.533   8.880  0.1288  0.0208  0.2671
  527MOL0     H71087   4.615   8.375   8.857  0.5550 -0.7254 -1.7887
  527MOL0     H71088   4.565   8.362   8.629 -2.9876  0.5315 -0.5498
  527MOL0     H71089   4.508   8.520   8.617  0.8784  0.1680  0.9409
  527MOL0     H71090   4.773   8.427   8.717 -1.6346 -0.4470  1.2236
  527MOL0     H71091   4.759   8.487   8.557  1.2273  1.5527 -0.4742
  527MOL0     H71092   4.726   8.735   8.645  2.2074  0.6265  0.8941
  527MOL0     H71093   4.729   8.672   8.798  1.1001 -1.3249  1.0419
  527MOL0     H71094   4.956   8.604   8.613 -3.4185 -1.4369 -0.5439
  527MOL0     H71095   4.956   8.611   8.780  0.1129  1.1375  0.6688
  527MOL0     H71096   5.070   8.827   8.500 -2.5544  0.3106 -1.3471
  527MOL0     H71097   5.177   9.146   8.618  1.8861 -1.4605 -1.2997
  527MOL0     H71098   5.142   9.067   8.462 -0.1100  0.7109  0.5167
  527MOL0     H71099   5.063   9.314   8.493  1.2975  0.0909 -0.0242
  527MOL0     H71100   4.954   9.254   8.614 -1.8534 -1.3651 -0.0957
  527MOL0     H71101   4.877   9.082   8.427  0.8227  0.0859  1.5672
  527MOL0     H71102   4.932   9.214   8.318  0.3389  0.8928  0.3955
  527MOL0     H71103   4.798   9.378   8.414 -0.5260  0.2514  0.7942
  527MOL0     H71104   4.755   9.289   8.552  1.4051 -1.5859  0.1400
  527MOL0     H71105   4.588   9.447   8.432 -0.5031 -1.1837  0.3178
  527MOL0     H71106   4.464   9.654   8.426 -0.0915 -2.5587  1.8179
  527MOL0     H71107   4.327   9.669   8.310 -2.1439 -2.2155 -0.2824
  527MOL0     H71108   4.307   9.604   8.477  0.4803  0.2016  1.8840
  527MOL0     H71109   3.982   9.650   8.061 -2.0331  4.3157 -1.5032
  527MOL0     H71110   3.739   9.660   8.059 -1.6429 -2.6607  0.1017
  527MOL0     H71111   3.505   9.681   8.114 -0.1649  0.0556 -1.4617
  527MOL0     H71112   3.549   9.500   8.113 -1.9411 -2.9971  3.3268
  527MOL0     H71113   3.338   9.446   8.223 -0.6001 -0.5416 -1.7407
  527MOL0     H71114   3.305   9.609   8.266  0.4931 -1.4624  1.4843
  527MOL0     H71115   3.312   9.471   7.989 -2.0307 -0.3224  0.1500
  527MOL0     H71116   3.284   9.637   8.008  0.6391  0.3328  1.1638
  527MOL0     H71117   3.101   9.449   8.144 -0.4568 -0.4203 -0.1169
  527MOL0     H71118   3.080   9.622   8.125 -1.1667  0.4537 -0.9911
  527MOL0     H71119   3.069   9.411   7.908  2.9905 -0.0028  1.0127
  527MOL0     H71120   3.066   9.591   7.875 -0.0683  1.0973  1.0478
  527MOL0     H71121   2.861   9.440   8.034  2.2982 -0.3492  0.6323
  527MOL0     H71122   2.876   9.620   8.011  1.1451  0.2416 -0.4755
  527MOL0     H71123   2.882   9.439   7.774 -1.0194 -0.3466  0.9364
  527MOL0     H71124   2.794   9.596   7.790 -0.0376 -0.8571 -3.2047
  527MOL0     H71125   2.636   9.419   7.748  0.6446  0.7049 -0.5657
  527MOL0     H71126   2.611   9.468   7.919  0.0278  3.1491 -1.7457
  527MOL0     H71127   3.731   9.558   8.486 -0.2908  1.2700  0.6806
  527MOL0     H71128   3.972   9.532   8.470 -0.8453  0.1954  0.5091
  527MOL0     H71129   4.267   9.196   8.164  1.4154 -1.4549  0.3523
  527MOL0     H71130   4.487   9.114   8.226 -1.7128  0.2456 -1.4848
  527MOL0     H71131   3.972   8.481   8.754 -2.4827  1.0136  0.6481
  527MOL0     H71132   3.734   8.406   8.706 -0.8452 -0.8756  0.0589
  527MOL0     H71133   3.430   8.123   8.695  1.2112  1.2390  1.4671
  527MOL0     H71134   3.207   8.106   8.601 -0.5185  1.4474  0.4312
  527MOL0     H71135   2.961   8.225   8.477 -4.5296  0.2349 -0.5048
  527MOL0     H71136   2.969   8.074   8.579 -0.6597  0.5962  0.5800
  527MOL0     H71137   2.759   8.294   8.571  1.4243 -0.1316 -0.8042
  527MOL0     H71138   2.743   8.156   8.666 -3.2097  2.6416 -0.0121
  527MOL0     H71139   2.773   8.015   8.433 -0.0823  0.3863 -0.7085
  527MOL0     H71140   2.736   8.158   8.358 -3.1990 -1.3935 -1.1004
  527MOL0     H71141   2.511   8.176   8.518 -1.2275 -1.0138  1.9039
  527MOL0     H71142   2.543   8.005   8.540  1.5310  0.9081  1.9950
  527MOL0     H71143   2.335   8.046   8.181  0.7798 -0.3638 -0.2452
  527MOL0     H71144   3.043   8.373   8.892 -1.6950 -1.3417  0.3655
  527MOL0     H71145   3.273   8.390   8.991 -2.8380 -0.1274 -0.5950
  528MOL0     O71146   6.313   8.497   3.646  0.1045  0.1874 -0.0159
  528MOL0     C71147   6.361   8.398   3.708  0.2248  0.2586 -1.1043
  528MOL0     O71148   6.312   8.337   3.815 -0.3925 -0.0123 -0.0891
  528MOL0     C71149   6.204   8.388   3.883  1.4400  0.0393  0.7831
  528MOL0     C71150   6.104   8.303   3.933 -0.7078 -0.3805 -0.4179
  528MOL0     C71151   5.992   8.357   4.006  0.1215  0.4621 -0.0747
  528MOL0     C71152   5.982   8.499   4.029  0.2850 -0.9170  0.0948
  528MOL0     O71153   5.876   8.564   4.086 -0.0495  0.8295  0.8472
  528MOL0     C71154   5.783   8.487   4.166  0.0795 -0.2429 -0.3386
  528MOL0     C71155   5.685   8.576   4.250 -0.9283  0.4619 -0.6245
  528MOL0     C71156   5.582   8.495   4.341 -0.1218  0.3573 -0.6691
  528MOL0     C71157   5.467   8.585   4.407  0.2373  0.3549 -0.1742
  528MOL0     C71158   5.362   8.500   4.467 -0.3414  0.1295 -0.0320
  528MOL0     C71159   5.234   8.571   4.483  0.0220 -0.3276  0.8288
  528MOL0     C71160   5.117   8.497   4.553  0.0167 -0.8865 -0.5415
  528MOL0     C71161   4.988   8.579   4.554 -0.1265  0.1328 -0.4328
  528MOL0     N71162   4.886   8.499   4.624  0.2365 -1.0089 -0.5467
  528MOL0     C71163   4.840   8.378   4.574 -0.0988 -0.0256 -0.0468
  528MOL0     C71164   4.765   8.337   4.677  0.0515 -0.3215 -0.1464
  528MOL0     C71165   4.718   8.198   4.686 -0.3010  0.6033 -1.1087
  528MOL0     C71166   4.602   8.163   4.588  0.2226  0.3299 -0.6132
  528MOL0     C71167   4.509   8.283   4.562  0.0294 -0.1824  0.2896
  528MOL0     C71168   4.398   8.249   4.471 -0.0443 -0.2758  0.6906
  528MOL0     O71169   4.309   8.359   4.469  0.8629 -0.4705  0.0437
  528MOL0     C71170   4.174   8.338   4.437  0.4946 -0.5333 -0.5268
  528MOL0     C71171   4.114   8.222   4.391 -0.3590  0.7527  0.2532
  528MOL0     C71172   3.980   8.213   4.354 -0.4856  0.6647  0.1164
  528MOL0     C71173   3.939   8.087   4.271 -0.6476  0.3486 -0.3338
  528MOL0     C71174   3.900   8.326   4.385  0.4223  0.5065  0.5019
  528MOL0     C71175   3.762   8.337   4.344 -0.2429 -0.3622  0.8314
  528MOL0     O71176   3.713   8.462   4.311 -0.2436  0.0055 -0.1008
  528MOL0     C71177   3.585   8.468   4.270  0.8155 -0.3040  0.1830
  528MOL0     C71178   3.544   8.416   4.147  0.5795 -0.5609  0.5724
  528MOL0     C71179   3.402   8.415   4.119 -0.7990  0.9198  0.3568
  528MOL0     C71180   3.307   8.468   4.206 -0.0311 -0.2641 -0.3063
  528MOL0     O71181   3.178   8.457   4.182  0.3777  0.0580 -0.1348
  528MOL0     C71182   3.138   8.464   4.041 -1.0722  0.6660 -0.4435
  528MOL0     C71183   3.015   8.540   4.019  0.1941  0.6053  0.3251
  528MOL0     C71184   2.897   8.476   4.083  0.0141  0.1581 -0.2989
  528MOL0     C71185   2.765   8.545   4.044 -0.8583  0.7871  0.8952
  528MOL0     C71186   2.650   8.518   4.145 -0.6585  0.3963  0.4154
  528MOL0     C71187   2.518   8.565   4.100 -1.1738 -0.0389  0.8049
  528MOL0     C71188   2.407   8.471   4.147  0.6366 -0.5006  1.1767
  528MOL0     C71189   2.273   8.517   4.087 -0.5472  0.0566  0.6749
  528MOL0    Cl71190   2.214   8.661   4.154  0.1276  0.3326 -0.1914
  528MOL0     C71191   3.350   8.531   4.319  0.1022  0.3921  0.1769
  528MOL0     C71192   3.487   8.532   4.357  0.0743 -0.6185  0.0259
  528MOL0     O71193   3.695   8.236   4.333  0.5700  0.0207 -0.5909
  528MOL0     C71194   3.955   8.442   4.433  0.3218 -0.5722 -0.3469
  528MOL0     C71195   4.090   8.452   4.453  0.4298 -0.0447  0.2335
  528MOL0     N71196   4.759   8.432   4.781  0.2230 -0.5266 -0.2392
  528MOL0     N71197   4.828   8.536   4.741 -0.0371  0.1113 -0.7102
  528MOL0     C71198   6.093   8.577   3.989  0.9570 -0.3262  0.0045
  528MOL0     C71199   6.187   8.522   3.904  0.4220 -0.1611  0.0427
  528MOL0     C71200   6.496   8.366   3.656 -0.1173 -0.1041 -0.3679
  528MOL0     C71201   6.547   8.422   3.537  0.1621  0.8741 -0.5613
  528MOL0     C71202   6.679   8.390   3.494  0.1920  0.8079 -0.2434
  528MOL0     C71203   6.747   8.289   3.559 -0.9654  0.8941 -0.0156
  528MOL0     O71204   6.878   8.256   3.524  0.0172 -0.0771 -0.2234
  528MOL0     C71205   6.931   8.254   3.387 -0.3763  0.5205 -0.2019
  528MOL0     C71206   7.084   8.272   3.394 -0.1113 -0.2738 -0.2867
  528MOL0     C71207   7.145   8.147   3.440 -0.3872 -0.1181 -0.5886
  528MOL0     C71208   7.161   8.031   3.326  1.5234 -0.3279 -0.8819
  528MOL0     C71209   7.262   8.072   3.227 -0.5142  0.5503  0.7018
  528MOL0     C71210   7.364   8.101   3.162 -0.9670  0.3868 -0.3434
  528MOL0     C71211   6.694   8.237   3.682  0.3255  0.6314  0.3473
  528MOL0     C71212   6.575   8.280   3.736  0.0529 -0.6214  0.6370
  528MOL0     H71213   6.103   8.195   3.926  0.4095 -0.2954 -2.6742
  528MOL0     H71214   5.917   8.289   4.043 -0.8654  1.2403 -0.5998
  528MOL0     H71215   5.725   8.423   4.099 -1.8383  0.5131  0.5163
  528MOL0     H71216   5.838   8.416   4.229 -0.5214 -1.0890 -0.7520
  528MOL0     H71217   5.752   8.650   4.296  0.5247  1.4652 -4.0046
  528MOL0     H71218   5.629   8.630   4.173 -0.9597 -0.3403 -1.1726
  528MOL0     H71219   5.543   8.416   4.276  1.8204 -1.2170 -0.0107
  528MOL0     H71220   5.637   8.448   4.423 -1.3307  0.1825  0.0635
  528MOL0     H71221   5.499   8.658   4.481  0.5638 -0.3954  0.4429
  528MOL0     H71222   5.431   8.644   4.322  1.0668  2.1865  0.7082
  528MOL0     H71223   5.354   8.412   4.402  1.3165 -1.0546  1.2693
  528MOL0     H71224   5.395   8.473   4.568 -2.2868 -1.5761  0.2124
  528MOL0     H71225   5.249   8.661   4.543 -0.7828  0.2358  0.2012
  528MOL0     H71226   5.204   8.608   4.385  2.9657  1.0427  0.3369
  528MOL0     H71227   5.112   8.406   4.493 -1.1966 -0.0972 -1.6664
  528MOL0     H71228   5.151   8.483   4.656 -3.0250  2.1740  1.0648
  528MOL0     H71229   4.956   8.610   4.454 -2.4296 -2.4705 -0.6184
  528MOL0     H71230   5.006   8.678   4.596  0.6806 -0.0910 -0.2398
  528MOL0     H71231   4.862   8.341   4.475 -2.1273  2.1227 -1.4046
  528MOL0     H71232   4.805   8.135   4.667 -3.0195 -2.4876 -5.3762
  528MOL0     H71233   4.690   8.178   4.790  1.6913  1.5159 -0.3490
  528MOL0     H71234   4.546   8.090   4.647  2.3531  0.5605  1.8938
  528MOL0     H71235   4.645   8.123   4.496 -0.4122 -0.2933 -0.6433
  528MOL0     H71236   4.562   8.367   4.516  0.5744 -0.8558 -0.3381
  528MOL0     H71237   4.462   8.319   4.654 -0.0770  1.5114 -0.3947
  528MOL0     H71238   4.344   8.164   4.516 -1.7459 -0.1074 -0.9105
  528MOL0     H71239   4.436   8.221   4.373  2.0382 -1.6737  1.8127
  528MOL0     H71240   4.178   8.136   4.375  0.3031  1.1401  0.7600
  528MOL0     H71241   4.028   8.029   4.245  1.1553  3.0843 -0.6791
  528MOL0     H71242   3.874   8.018   4.327  0.8941 -1.6767 -0.9173
  528MOL0     H71243   3.899   8.129   4.179  0.6181 -0.9911 -1.5504
  528MOL0     H71244   3.624   8.362   4.097 -0.2264 -1.0537 -0.2027
  528MOL0     H71245   3.375   8.365   4.027  0.9339 -0.1597  0.3881
  528MOL0     H71246   3.214   8.512   3.980 -0.9623  1.9052  0.6190
  528MOL0     H71247   3.122   8.359   4.017  0.9868  0.1673  0.2117
  528MOL0     H71248   3.022   8.643   4.055  2.6739  0.4725  0.4033
  528MOL0     H71249   2.994   8.541   3.912 -0.1993 -3.5896  0.2222
  528MOL0     H71250   2.906   8.481   4.192 -4.2277  3.1559  0.1548
  528MOL0     H71251   2.886   8.371   4.054 -1.3729  0.2551 -0.1975
  528MOL0     H71252   2.777   8.654   4.041 -0.6087  0.7370 -0.5853
  528MOL0     H71253   2.743   8.529   3.938  1.8822  1.5008  0.1445
  528MOL0     H71254   2.656   8.563   4.244  0.1518 -1.0658  1.0658
  528MOL0     H71255   2.652   8.408   4.146  1.4799  0.3905  0.0775
  528MOL0     H71256   2.515   8.669   4.135  1.9914 -0.9285  4.3279
  528MOL0     H71257   2.520   8.560   3.990 -0.9834 -0.2520  0.8174
  528MOL0     H71258   2.402   8.478   4.256 -1.1070  0.5022  1.0854
  528MOL0     H71259   2.428   8.369   4.114  0.6107 -0.4768  1.0868
  528MOL0     H71260   2.196   8.443   4.111 -0.0619 -0.0220  2.0728
  528MOL0     H71261   2.287   8.527   3.979 -5.4175  2.1785 -0.0111
  528MOL0     H71262   3.287   8.578   4.394 -1.8629 -0.6804 -0.7319
  528MOL0     H71263   3.514   8.577   4.452 -0.7203  1.2236 -0.5689
  528MOL0     H71264   3.900   8.535   4.435 -1.3026 -1.3797 -2.7584
  528MOL0     H71265   4.118   8.550   4.489 -1.7430 -0.1673  2.4965
  528MOL0     H71266   6.092   8.683   4.009  4.3104  0.0442 -1.1474
  528MOL0     H71267   6.271   8.587   3.881  0.8587 -0.4505  0.7929
  528MOL0     H71268   6.479   8.483   3.478 -2.8963 -0.5600  1.2186
  528MOL0     H71269   6.719   8.435   3.404 -0.5760  0.9239 -0.5341
  528MOL0     H71270   6.905   8.157   3.343  3.1025  0.0851 -1.6561
  528MOL0     H71271   6.899   8.330   3.315 -0.6146  0.1364 -0.5035
  528MOL0     H71272   7.102   8.354   3.464  1.6794  0.5154 -1.6014
  528MOL0     H71273   7.121   8.309   3.298 -0.8003 -2.5097 -1.4812
  528MOL0     H71274   7.091   8.104   3.525 -0.0459  0.1722 -0.2196
  528MOL0     H71275   7.242   8.174   3.483 -0.7551 -0.2733  0.3761
  528MOL0     H71276   7.063   8.030   3.277  1.4786  0.4908 -0.8263
  528MOL0     H71277   7.187   7.935   3.373 -0.1510  0.0920  1.0307
  528MOL0     H71278   7.449   8.145   3.114 -0.1452 -0.6840  0.0971
  528MOL0     H71279   6.745   8.156   3.733 -0.4227  0.5139  0.9070
  528MOL0     H71280   6.542   8.231   3.828 -1.0698  2.0215  1.7627
  529MOL0     O71281   0.787   6.306   4.644 -0.2237  0.2353 -0.7011
  529MOL0     C71282   0.856   6.215   4.691  0.3521  0.4622 -0.5490
  529MOL0     O71283   0.814   6.081   4.698 -0.8895 -0.9921 -0.5310
  529MOL0     C71284   0.704   6.061   4.618 -0.2367  0.1472  0.3978
  529MOL0     C71285   0.581   6.072   4.661 -0.3263 -1.0393 -0.4304
  529MOL0     C71286   0.471   6.074   4.578 -0.1224  0.1799  0.4558
  529MOL0     C71287   0.488   6.060   4.441  0.9189 -0.9753  0.3428
  529MOL0     O71288   0.380   6.058   4.356  0.5411  0.6008  0.0581
  529MOL0     C71289   0.246   6.068   4.406 -1.2039 -0.4268 -1.2726
  529MOL0     C71290   0.142   6.050   4.297 -0.2203  0.0615 -0.0633
  529MOL0     C71291   0.142   6.169   4.200 -0.4105 -1.0987 -0.1961
  529MOL0     C71292   0.043   6.168   4.081 -0.1444  0.6806  0.4902
  529MOL0     C71293  -0.104   6.200   4.114 -0.4529  0.0024 -0.7425
  529MOL0     C71294  -0.106   6.341   4.171 -0.1678  0.2554 -0.6310
  529MOL0     C71295  -0.242   6.406   4.168  0.3832 -0.2691  0.2224
  529MOL0     C71296  -0.226   6.557   4.173 -0.9278 -0.4915 -0.1232
  529MOL0     N71297  -0.349   6.633   4.159  0.5084  0.9472  0.6590
  529MOL0     C71298  -0.426   6.679   4.258 -0.3192 -0.9383 -0.0269
  529MOL0     C71299  -0.541   6.729   4.195 -1.0333  0.0400 -0.5427
  529MOL0     C71300  -0.644   6.805   4.275 -0.0741 -0.3372  0.2857
  529MOL0     C71301  -0.779   6.732   4.285  0.0168 -0.2454 -0.5532
  529MOL0     C71302  -0.880   6.815   4.361 -0.6269 -0.0586 -0.7854
  529MOL0     C71303  -1.025   6.777   4.329  0.5885 -0.4658 -0.4717
  529MOL0     O71304  -1.120   6.879   4.388  0.1676 -0.4690  0.0115
  529MOL0     C71305  -1.255   6.870   4.344 -0.9676  0.3092 -0.2092
  529MOL0     C71306  -1.302   6.760   4.272  0.2287 -0.1438  0.0783
  529MOL0     C71307  -1.433   6.752   4.217  0.0765 -0.1127 -0.0369
  529MOL0     C71308  -1.469   6.626   4.139  0.3099 -0.5368  0.0585
  529MOL0     C71309  -1.526   6.861   4.245 -0.0691  0.4611  0.2960
  529MOL0     C71310  -1.676   6.858   4.215  0.1792 -0.2040 -0.0309
  529MOL0     O71311  -1.747   6.960   4.270 -0.0416 -0.0216  0.4000
  529MOL0     C71312  -1.882   6.994   4.254 -0.1931  0.3787 -0.4881
  529MOL0     C71313  -1.989   6.922   4.185 -0.1338 -0.4408 -0.3225
  529MOL0     C71314  -2.119   6.987   4.187  0.1185 -0.1509  0.4927
  529MOL0     C71315  -2.145   7.109   4.257 -0.4355 -0.2830 -0.2739
  529MOL0     O71316  -2.261   7.169   4.283  1.2705  0.6144 -0.3959
  529MOL0     C71317  -2.379   7.112   4.232 -0.3768 -0.8100 -0.2555
  529MOL0     C71318  -2.495   7.169   4.320 -0.4702 -0.0058  1.0612
  529MOL0     C71319  -2.643   7.152   4.272  0.0012  0.1171 -0.4233
  529MOL0     C71320  -2.689   7.001   4.280  0.0825 -0.2938 -0.4632
  529MOL0     C71321  -2.834   6.969   4.245 -0.1292  0.2555  0.1056
  529MOL0     C71322  -2.883   7.031   4.115  0.5862  0.2662  0.1421
  529MOL0     C71323  -2.820   6.963   3.989 -0.1070 -0.5693  0.0156
  529MOL0     C71324  -2.926   6.964   3.882  1.0545  0.5110 -0.1539
  529MOL0    Cl71325  -3.075   6.868   3.943 -0.2636  0.2849 -0.0884
  529MOL0     C71326  -2.039   7.170   4.319  0.2737 -0.6197  0.0181
  529MOL0     C71327  -1.912   7.123   4.315  0.2971  0.2804 -1.6958
  529MOL0     O71328  -1.725   6.757   4.155  0.3819 -0.4697 -0.3522
  529MOL0     C71329  -1.478   6.962   4.326 -0.3382  0.6480 -0.2140
  529MOL0     C71330  -1.346   6.962   4.379  0.5945  0.3387  0.9641
  529MOL0     N71331  -0.527   6.706   4.064  0.0099  0.3235  0.5667
  529MOL0     N71332  -0.414   6.644   4.040  0.4033  0.2179  0.3805
  529MOL0     C71333   0.617   6.032   4.394  0.5025 -0.3730  0.2755
  529MOL0     C71334   0.721   6.022   4.484 -0.0722  0.1085  0.1589
  529MOL0     C71335   0.992   6.247   4.735  0.1589 -0.0656 -0.5846
  529MOL0     C71336   1.072   6.142   4.779 -0.7697  0.5414  0.7819
  529MOL0     C71337   1.199   6.169   4.833 -0.3506  0.0800 -0.2969
  529MOL0     C71338   1.243   6.303   4.844  0.2265 -0.9263  0.6471
  529MOL0     O71339   1.370   6.314   4.891 -0.1776  0.9309  0.2971
  529MOL0     C71340   1.442   6.437   4.876  0.6658 -0.3477 -0.8133
  529MOL0     C71341   1.503   6.473   4.738  0.3996  0.3609  0.2830
  529MOL0     C71342   1.605   6.367   4.697  0.0172 -0.6977 -0.2553
  529MOL0     C71343   1.539   6.234   4.651  0.2938 -1.0853  0.4386
  529MOL0     C71344   1.420   6.264   4.565  0.0812 -0.2233  0.5693
  529MOL0     C71345   1.327   6.270   4.488  0.5394  0.4780 -0.4680
  529MOL0     C71346   1.162   6.407   4.808 -0.3301  0.7832  0.0032
  529MOL0     C71347   1.040   6.378   4.745  0.0197 -0.1434 -0.6748
  529MOL0     H71348   0.582   6.098   4.766 -0.7327  5.0547 -1.5719
  529MOL0     H71349   0.371   6.085   4.620 -0.1985 -0.7297  0.5317
  529MOL0     H71350   0.227   5.995   4.485  0.0714 -0.9217 -1.3917
  529MOL0     H71351   0.240   6.170   4.443  2.7899  0.4937 -2.5917
  529MOL0     H71352   0.145   5.955   4.243  2.3419  0.7164 -1.2448
  529MOL0     H71353   0.041   6.048   4.338  0.9088 -1.9492  2.9634
  529MOL0     H71354   0.125   6.262   4.255 -0.2691 -0.5581 -1.0471
  529MOL0     H71355   0.244   6.166   4.161 -0.7662 -2.7443 -1.0732
  529MOL0     H71356   0.082   6.222   3.995  2.5472 -0.1697  1.0791
  529MOL0     H71357   0.049   6.065   4.045  1.5574  1.2190 -0.8709
  529MOL0     H71358  -0.163   6.184   4.023  0.7113 -0.3892 -1.4382
  529MOL0     H71359  -0.145   6.125   4.182  3.0134 -2.8708 -1.5978
  529MOL0     H71360  -0.070   6.334   4.274 -0.5666 -1.2356 -0.5618
  529MOL0     H71361  -0.037   6.410   4.121 -1.2520  0.8015 -1.4240
  529MOL0     H71362  -0.272   6.380   4.066  2.7662 -1.7619 -0.1940
  529MOL0     H71363  -0.319   6.369   4.237 -0.1389  0.1143 -0.1438
  529MOL0     H71364  -0.154   6.592   4.098  0.7206  1.7370  2.3058
  529MOL0     H71365  -0.192   6.585   4.273  0.1311  0.4154 -0.7174
  529MOL0     H71366  -0.392   6.701   4.359  0.7894  3.0106 -1.0849
  529MOL0     H71367  -0.596   6.805   4.373 -0.8962 -1.0402  0.7065
  529MOL0     H71368  -0.651   6.910   4.246  0.2158 -0.1141  1.0230
  529MOL0     H71369  -0.768   6.634   4.332 -0.8511 -1.2667 -2.3723
  529MOL0     H71370  -0.815   6.698   4.187  1.4741 -0.2861 -1.0960
  529MOL0     H71371  -0.860   6.916   4.326  1.4354 -0.5709 -1.2625
  529MOL0     H71372  -0.858   6.793   4.467  1.4845 -0.3624 -1.2378
  529MOL0     H71373  -1.044   6.677   4.370 -1.1447  0.2137  0.4788
  529MOL0     H71374  -1.043   6.774   4.221 -3.4715 -1.2069  0.0593
  529MOL0     H71375  -1.236   6.675   4.262  0.0838 -0.1908 -0.4787
  529MOL0     H71376  -1.554   6.576   4.188  0.8813  1.0142  2.8084
  529MOL0     H71377  -1.499   6.654   4.037 -1.3295  1.9112  1.1269
  529MOL0     H71378  -1.387   6.554   4.130  1.3124  0.7808 -2.0339
  529MOL0     H71379  -1.970   6.829   4.134 -0.1934  0.3686 -1.8995
  529MOL0     H71380  -2.201   6.932   4.144  0.9892  0.8971 -2.7929
  529MOL0     H71381  -2.395   7.139   4.127  3.4393  3.9281 -0.0111
  529MOL0     H71382  -2.382   7.007   4.262  3.7984 -0.6865  1.2252
  529MOL0     H71383  -2.482   7.129   4.421  6.1139 -0.6786  0.3811
  529MOL0     H71384  -2.479   7.277   4.326 -1.3696  0.1391  0.9438
  529MOL0     H71385  -2.656   7.196   4.173  0.3952  0.2677 -0.4118
  529MOL0     H71386  -2.695   7.208   4.351 -2.3644  0.5216 -2.1669
  529MOL0     H71387  -2.628   6.946   4.207 -0.5264 -0.2803 -0.9956
  529MOL0     H71388  -2.672   6.953   4.376 -0.2684 -4.9698 -2.4731
  529MOL0     H71389  -2.880   7.005   4.338  2.4704  0.7063  1.3013
  529MOL0     H71390  -2.842   6.860   4.245 -2.4219  0.3596  0.8298
  529MOL0     H71391  -2.990   7.016   4.126  0.5798 -0.8221 -1.1405
  529MOL0     H71392  -2.856   7.136   4.108  1.1503  0.0970 -0.3592
  529MOL0     H71393  -2.787   6.859   3.998 -0.4025 -0.6392  0.2881
  529MOL0     H71394  -2.741   7.031   3.956 -0.6268  0.3165  0.5464
  529MOL0     H71395  -2.885   6.918   3.792 -0.5606 -0.1853 -0.5670
  529MOL0     H71396  -2.956   7.064   3.852 -0.2432  0.4423  0.8063
  529MOL0     H71397  -2.061   7.260   4.375 -0.4624 -0.7356 -0.0672
  529MOL0     H71398  -1.833   7.182   4.361  0.7756 -0.9247 -0.9230
  529MOL0     H71399  -1.538   7.049   4.351  1.1185  1.0627  2.2854
  529MOL0     H71400  -1.302   7.036   4.445  0.5388 -0.1087  1.5116
  529MOL0     H71401   0.624   6.016   4.287 -1.3947 -4.3358  0.5368
  529MOL0     H71402   0.822   6.009   4.447  0.9718  3.9101  1.1473
  529MOL0     H71403   1.036   6.041   4.761  0.2634  0.7363 -3.5674
  529MOL0     H71404   1.268   6.095   4.870 -2.8237 -1.1528  2.1928
  529MOL0     H71405   1.388   6.524   4.913 -1.7160 -1.1678 -2.1225
  529MOL0     H71406   1.528   6.421   4.942  0.8320  1.0952 -0.6591
  529MOL0     H71407   1.567   6.560   4.750  2.1485 -0.8891  0.4301
  529MOL0     H71408   1.431   6.498   4.659 -2.0293 -0.6718  2.0320
  529MOL0     H71409   1.673   6.347   4.780  0.2171 -1.7260 -0.6475
  529MOL0     H71410   1.664   6.407   4.614  0.7824 -0.9810  0.1415
  529MOL0     H71411   1.509   6.164   4.730  0.8230 -1.7942  0.0177
  529MOL0     H71412   1.613   6.181   4.592 -0.3993 -2.1323  0.4867
  529MOL0     H71413   1.232   6.280   4.439 -1.6863 -0.2456  3.3347
  529MOL0     H71414   1.213   6.502   4.813  0.7948  0.4922 -3.3474
  529MOL0     H71415   0.996   6.458   4.685 -1.9237 -0.9788 -0.4262
  530MOL0     O71416   6.006   9.169   3.892  0.0900  0.1212 -0.4099
  530MOL0     C71417   6.029   9.044   3.891 -0.3394 -0.1379  0.4409
  530MOL0     O71418   5.960   8.951   3.960  0.3791 -0.3121 -0.7380
  530MOL0     C71419   5.869   8.998   4.049 -0.6454 -0.7620  0.3676
  530MOL0     C71420   5.764   9.091   4.022  0.0450  0.5150 -0.3136
  530MOL0     C71421   5.665   9.126   4.110 -0.3649 -0.7318  0.2962
  530MOL0     C71422   5.669   9.064   4.232 -0.6104  0.6024 -0.0253
  530MOL0     O71423   5.582   9.117   4.325  0.3997 -0.0618 -0.6019
  530MOL0     C71424   5.491   9.021   4.376 -0.0721  0.7584  0.0255
  530MOL0     C71425   5.347   9.059   4.343 -0.2938 -0.3090  0.0498
  530MOL0     C71426   5.251   8.966   4.418 -1.0296 -0.7913 -0.0246
  530MOL0     C71427   5.129   9.052   4.445  0.1624  0.2083 -0.2470
  530MOL0     C71428   5.007   8.966   4.488 -0.0070 -0.4297  0.2984
  530MOL0     C71429   4.877   9.045   4.473  0.1993  0.9968  0.3259
  530MOL0     C71430   4.764   8.957   4.514 -0.1770 -1.0691  0.3631
  530MOL0     C71431   4.709   8.875   4.400 -0.0582 -0.1393 -0.5415
  530MOL0     N71432   4.578   8.821   4.441  0.1675 -0.0329 -0.3131
  530MOL0     C71433   4.557   8.726   4.541 -1.1483  0.7073 -1.3153
  530MOL0     C71434   4.425   8.727   4.565  0.2417 -0.1205  0.2599
  530MOL0     C71435   4.350   8.638   4.664 -0.1009 -0.0399 -0.8623
  530MOL0     C71436   4.239   8.701   4.741  0.3331 -0.7567 -0.0346
  530MOL0     C71437   4.170   8.593   4.834  0.0358  0.0052  0.3980
  530MOL0     C71438   4.035   8.650   4.875 -0.0601  0.0428  0.1442
  530MOL0     O71439   3.943   8.669   4.770 -0.3525  1.1309 -0.5820
  530MOL0     C71440   3.817   8.617   4.770  0.3112 -0.8144  0.0214
  530MOL0     C71441   3.704   8.704   4.750  0.1239  0.2799  0.3506
  530MOL0     C71442   3.573   8.655   4.742  0.8656 -0.5358  0.0216
  530MOL0     C71443   3.463   8.763   4.736  0.6989 -0.5561  0.0125
  530MOL0     C71444   3.552   8.515   4.737  0.1751 -0.5464  0.8270
  530MOL0     C71445   3.417   8.448   4.727  0.5407 -0.2304  0.3571
  530MOL0     O71446   3.398   8.338   4.798  0.2236 -0.2660 -1.3824
  530MOL0     C71447   3.286   8.262   4.768 -0.9147 -0.9543  0.3217
  530MOL0     C71448   3.281   8.191   4.648  0.3507  0.1382  0.2076
  530MOL0     C71449   3.168   8.105   4.630  0.6487  0.0687 -0.3499
  530MOL0     C71450   3.068   8.098   4.728  0.8207  0.4756 -0.0946
  530MOL0     O71451   2.954   8.008   4.735  0.0973  0.3256 -0.0763
  530MOL0     C71452   2.955   7.887   4.659  0.2766 -1.2202 -0.1241
  530MOL0     C71453   2.843   7.797   4.707  0.9020 -0.1681  0.8802
  530MOL0     C71454   2.711   7.858   4.658 -0.0676  0.4005 -0.1755
  530MOL0     C71455   2.598   7.760   4.670  0.1303  0.3742 -0.5025
  530MOL0     C71456   2.482   7.806   4.757  0.4959  0.5774 -0.0277
  530MOL0     C71457   2.356   7.718   4.751 -0.6252  0.8361 -0.2345
  530MOL0     C71458   2.289   7.691   4.609 -0.7264 -0.7748 -0.1818
  530MOL0     C71459   2.215   7.810   4.563 -0.2854 -0.6274  1.7173
  530MOL0    Cl71460   2.096   7.764   4.424 -0.2198 -0.3184  0.4359
  530MOL0     C71461   3.084   8.177   4.841  0.5549  0.4839  0.5306
  530MOL0     C71462   3.186   8.259   4.861 -2.0302 -0.2126  0.3449
  530MOL0     O71463   3.340   8.498   4.643  0.6578  0.1077 -0.1300
  530MOL0     C71464   3.668   8.438   4.749  0.4154  0.2550 -0.5238
  530MOL0     C71465   3.795   8.481   4.773 -0.4788 -0.1218 -0.3389
  530MOL0     N71466   4.368   8.820   4.479  0.0124 -0.5565  0.7693
  530MOL0     N71467   4.462   8.880   4.415 -0.1594 -0.2539 -0.3502
  530MOL0     C71468   5.752   8.953   4.259 -0.2901  0.0379 -0.1726
  530MOL0     C71469   5.853   8.925   4.168  0.1535 -0.2014 -0.0790
  530MOL0     C71470   6.143   8.999   3.805 -0.2764  0.6040  0.8297
  530MOL0     C71471   6.161   8.865   3.758  0.6474 -0.7816 -1.0567
  530MOL0     C71472   6.279   8.840   3.687 -0.1626  0.5268 -0.3798
  530MOL0     C71473   6.388   8.924   3.669 -0.2381 -0.6566  0.1079
  530MOL0     O71474   6.508   8.899   3.608 -0.2645  0.2475  0.2974
  530MOL0     C71475   6.541   8.762   3.581  0.1318 -0.2280  0.2518
  530MOL0     C71476   6.682   8.764   3.521 -0.0727  0.2835  0.0260
  530MOL0     C71477   6.786   8.729   3.626 -0.1481  0.0601 -0.2085
  530MOL0     C71478   6.934   8.738   3.583  0.5212  0.0868 -0.3987
  530MOL0     C71479   6.951   8.683   3.448 -0.5839  0.8109  0.4544
  530MOL0     C71480   6.972   8.632   3.344 -0.9721  0.2277  1.0857
  530MOL0     C71481   6.373   9.049   3.719  0.7331  1.0322 -0.1750
  530MOL0     C71482   6.255   9.088   3.792 -0.3491 -0.7991  0.1554
  530MOL0     H71483   5.760   9.131   3.922 -0.8326  1.4894  0.0897
  530MOL0     H71484   5.598   9.209   4.089  0.0486 -0.7861 -1.4094
  530MOL0     H71485   5.515   8.921   4.338 -0.9128  1.3523 -2.1692
  530MOL0     H71486   5.508   9.014   4.484  0.9888 -2.2904 -0.2249
  530MOL0     H71487   5.331   9.164   4.367  0.8442 -0.1658  0.2320
  530MOL0     H71488   5.336   9.041   4.236  2.6810  1.3499 -0.6271
  530MOL0     H71489   5.227   8.881   4.353  0.1977 -0.2274 -1.2931
  530MOL0     H71490   5.301   8.917   4.502  2.6768  1.9516 -0.3612
  530MOL0     H71491   5.150   9.127   4.522  2.0588 -1.4137  0.9004
  530MOL0     H71492   5.106   9.111   4.355 -2.4878 -1.9289 -1.0871
  530MOL0     H71493   5.011   8.868   4.440 -0.1294 -0.9268  1.2717
  530MOL0     H71494   5.021   8.936   4.592 -1.0287  0.3266  0.6735
  530MOL0     H71495   4.885   9.130   4.542 -0.6467  1.6839 -0.3886
  530MOL0     H71496   4.869   9.103   4.380 -1.0353  1.2424  0.5696
  530MOL0     H71497   4.781   8.899   4.605  0.1967  1.2021  1.8082
  530MOL0     H71498   4.684   9.026   4.543 -0.5678 -1.0757 -0.6578
  530MOL0     H71499   4.772   8.790   4.373  1.9788 -0.4434  4.1591
  530MOL0     H71500   4.696   8.934   4.309  1.6485  0.7360 -0.2722
  530MOL0     H71501   4.631   8.667   4.594  2.1347  4.1647 -1.6324
  530MOL0     H71502   4.303   8.555   4.609 -0.7299  0.0758 -0.5027
  530MOL0     H71503   4.422   8.593   4.733 -2.8188 -0.5656  1.8282
  530MOL0     H71504   4.172   8.758   4.676  0.4678 -1.5514 -0.8975
  530MOL0     H71505   4.285   8.782   4.799  0.3110 -2.1745  2.0614
  530MOL0     H71506   4.228   8.578   4.926  1.3751 -0.9996 -0.5580
  530MOL0     H71507   4.166   8.499   4.777  2.6579 -0.2801  0.5608
  530MOL0     H71508   4.056   8.750   4.915  2.7166 -0.3055 -0.2379
  530MOL0     H71509   3.992   8.586   4.952  0.8706 -3.2418 -1.8612
  530MOL0     H71510   3.726   8.809   4.763  2.8283 -0.4386  2.3740
  530MOL0     H71511   3.435   8.757   4.630 -1.8507  0.1173  0.5788
  530MOL0     H71512   3.374   8.734   4.792  0.7837 -0.4951  0.1767
  530MOL0     H71513   3.504   8.858   4.771  1.3403 -0.4501 -0.9934
  530MOL0     H71514   3.370   8.182   4.588 -0.1433 -1.4370 -0.3398
  530MOL0     H71515   3.161   8.028   4.554  1.8577 -0.9367  0.5074
  530MOL0     H71516   2.953   7.906   4.551  2.5480 -3.1375 -0.5838
  530MOL0     H71517   3.050   7.837   4.681  1.3718  0.9857  0.3998
  530MOL0     H71518   2.848   7.695   4.666 -2.5550  0.0552 -0.4662
  530MOL0     H71519   2.845   7.799   4.816  1.3357 -1.2381  0.9019
  530MOL0     H71520   2.711   7.892   4.554  0.6168 -2.9986 -1.4452
  530MOL0     H71521   2.693   7.943   4.724  1.1123 -1.6420  3.0049
  530MOL0     H71522   2.561   7.737   4.570 -1.0475 -2.2657  0.4156
  530MOL0     H71523   2.628   7.671   4.727 -3.2570  0.6412  2.0812
  530MOL0     H71524   2.456   7.908   4.728  1.3478  1.3794  1.8739
  530MOL0     H71525   2.514   7.813   4.861 -0.1779 -2.9238  0.5250
  530MOL0     H71526   2.391   7.620   4.784 -0.7706  0.0633 -2.2126
  530MOL0     H71527   2.281   7.749   4.824 -2.1496  1.1785 -1.8737
  530MOL0     H71528   2.209   7.617   4.622 -0.3327 -1.3659 -1.0348
  530MOL0     H71529   2.357   7.644   4.537 -0.4534 -0.7840  0.0766
  530MOL0     H71530   2.278   7.874   4.500  0.1254 -1.1875  1.5590
  530MOL0     H71531   2.181   7.878   4.642  1.0680  1.2673  0.7510
  530MOL0     H71532   3.011   8.168   4.921 -0.5724 -0.6481 -0.5879
  530MOL0     H71533   3.204   8.318   4.951 -1.8419  0.4964 -0.1537
  530MOL0     H71534   3.645   8.334   4.727 -0.7779 -0.2035  2.5091
  530MOL0     H71535   3.878   8.414   4.796 -1.2345 -0.8752  0.2796
  530MOL0     H71536   5.753   8.908   4.358 -0.8158 -2.3225 -1.1797
  530MOL0     H71537   5.920   8.841   4.187  0.3279 -0.4493 -1.6179
  530MOL0     H71538   6.088   8.787   3.778 -2.4336  2.3856  1.4061
  530MOL0     H71539   6.283   8.746   3.633 -2.2005  1.0915 -1.6221
  530MOL0     H71540   6.528   8.697   3.668 -1.1364  0.0530  0.2878
  530MOL0     H71541   6.470   8.729   3.506 -0.5884  2.1203 -0.2002
  530MOL0     H71542   6.711   8.862   3.483 -1.3125  0.6863  0.0924
  530MOL0     H71543   6.681   8.689   3.441 -1.6057  0.7568 -0.4190
  530MOL0     H71544   6.757   8.629   3.660 -3.0888  0.7944 -0.2420
  530MOL0     H71545   6.775   8.797   3.711 -0.1397 -0.4440  0.2029
  530MOL0     H71546   6.999   8.679   3.648 -0.8835 -0.6380  0.4022
  530MOL0     H71547   6.966   8.842   3.590 -2.5115  0.9873  2.2365
  530MOL0     H71548   6.981   8.582   3.249  0.1893  2.7951 -0.2513
  530MOL0     H71549   6.466   9.105   3.720  2.4958 -1.6543 -1.4643
  530MOL0     H71550   6.254   9.188   3.832 -1.0148 -1.9387  3.2829
  531MOL0     O71551   0.225  10.168   5.646 -0.1649 -0.8364  0.4105
  531MOL0     C71552   0.291  10.169   5.749 -0.4071  0.1672  0.1232
  531MOL0     O71553   0.246  10.133   5.869  0.4809  0.7347  0.5403
  531MOL0     C71554   0.106  10.115   5.887 -0.7155  0.2857  0.7975
  531MOL0     C71555   0.060  10.000   5.946 -1.1923 -0.1019 -0.0299
  531MOL0     C71556  -0.075   9.979   5.970 -0.0142 -0.0063  0.1635
  531MOL0     C71557  -0.169  10.078   5.930 -0.1922  0.2968 -0.2391
  531MOL0     O71558  -0.297  10.063   5.960  0.1740  0.1180 -0.6815
  531MOL0     C71559  -0.314  10.102   6.103  0.4947 -0.3775  0.7808
  531MOL0     C71560  -0.463  10.117   6.139  0.4709 -1.3127  0.6247
  531MOL0     C71561  -0.538   9.989   6.128 -0.1943  0.9523 -0.3863
  531MOL0     C71562  -0.633   9.979   6.005  0.0738 -0.2367 -0.2898
  531MOL0     C71563  -0.723   9.856   6.010 -0.0892  0.6278  0.0097
  531MOL0     C71564  -0.823   9.841   5.881 -0.3492  0.4222 -0.4697
  531MOL0     C71565  -0.941   9.757   5.916  0.6759  0.0943  0.2244
  531MOL0     C71566  -1.049   9.833   5.988  1.0767 -0.6293  0.4925
  531MOL0     N71567  -1.146   9.731   6.020  0.4304 -0.3089  0.2313
  531MOL0     C71568  -1.140   9.645   6.128  0.2889 -0.0746  0.2525
  531MOL0     C71569  -1.257   9.580   6.116  0.6070  0.1873 -0.5022
  531MOL0     C71570  -1.306   9.475   6.216 -0.3422  0.4785  0.5791
  531MOL0     C71571  -1.448   9.489   6.259 -0.1609  0.0388 -0.5988
  531MOL0     C71572  -1.494   9.382   6.356  0.0444 -0.4816 -0.7060
  531MOL0     C71573  -1.611   9.430   6.442  0.4011  0.5909  0.1973
  531MOL0     O71574  -1.657   9.326   6.536  0.0101  0.0206  0.1591
  531MOL0     C71575  -1.745   9.368   6.639 -0.3092 -0.0925 -0.0287
  531MOL0     C71576  -1.766   9.499   6.687 -0.0484 -0.2238 -0.0124
  531MOL0     C71577  -1.845   9.535   6.797 -0.7973  0.6925  0.7263
  531MOL0     C71578  -1.874   9.682   6.821  0.5350 -0.2458  0.2629
  531MOL0     C71579  -1.893   9.430   6.878 -0.0282  0.3614 -0.5458
  531MOL0     C71580  -1.971   9.444   7.006 -0.1768  0.2880 -0.2005
  531MOL0     O71581  -1.944   9.355   7.108 -0.7409 -0.5294  0.2029
  531MOL0     C71582  -2.027   9.368   7.219  0.2661 -0.5781  0.9420
  531MOL0     C71583  -2.116   9.255   7.243  0.7258 -1.0162  0.4591
  531MOL0     C71584  -2.219   9.272   7.340 -0.1970 -0.8098  0.9044
  531MOL0     C71585  -2.213   9.394   7.417  0.4160 -0.2302  0.4823
  531MOL0     O71586  -2.305   9.403   7.521 -0.1931  0.6649 -0.0978
  531MOL0     C71587  -2.419   9.479   7.490  0.7011 -0.2469  0.1894
  531MOL0     C71588  -2.506   9.513   7.616  0.3239 -0.4496 -0.8551
  531MOL0     C71589  -2.585   9.390   7.672  0.6467 -0.5339 -0.3994
  531MOL0     C71590  -2.677   9.426   7.796 -0.5813  0.7662 -0.0426
  531MOL0     C71591  -2.779   9.518   7.752 -0.1247 -0.4494  0.1521
  531MOL0     C71592  -2.868   9.567   7.875 -0.1594 -0.2109  0.2353
  531MOL0     C71593  -2.985   9.651   7.818 -0.7088  0.3295 -0.4903
  531MOL0     C71594  -3.066   9.715   7.928 -1.1323 -0.8918  0.0290
  531MOL0    Cl71595  -2.971   9.860   7.980  0.3873  0.1437 -0.3512
  531MOL0     C71596  -2.127   9.503   7.386 -0.1539  0.1985  0.1395
  531MOL0     C71597  -2.026   9.479   7.301 -0.9200 -0.3085 -0.0111
  531MOL0     O71598  -2.051   9.533   7.008 -0.2972  0.2427  0.0325
  531MOL0     C71599  -1.868   9.297   6.838 -0.4583  0.7062  0.3287
  531MOL0     C71600  -1.800   9.269   6.721  1.3324  0.1217 -0.6432
  531MOL0     N71601  -1.333   9.623   6.010  0.2074 -0.5355  0.0938
  531MOL0     N71602  -1.267   9.720   5.957  0.6965 -0.5485  0.0242
  531MOL0     C71603  -0.123  10.195   5.868  0.3523  0.9130 -0.2793
  531MOL0     C71604   0.013  10.209   5.845 -0.0564 -0.0418  0.4612
  531MOL0     C71605   0.433  10.191   5.743 -0.0883 -0.0694  0.4886
  531MOL0     C71606   0.504  10.169   5.617 -0.6994 -0.8734 -0.5966
  531MOL0     C71607   0.647  10.203   5.620  0.5512  0.4047 -0.8948
  531MOL0     C71608   0.719  10.246   5.731  0.2274 -0.2959  0.0313
  531MOL0     O71609   0.857  10.253   5.715 -0.7885  0.2501  0.6931
  531MOL0     C71610   0.947  10.289   5.820 -0.6433  0.9074 -0.4260
  531MOL0     C71611   1.012  10.176   5.901  0.2935  0.2679 -0.6543
  531MOL0     C71612   1.095  10.204   6.022  0.2446 -0.9149  0.2621
  531MOL0     C71613   1.159  10.096   6.089 -0.0168  0.4152  0.4618
  531MOL0     C71614   1.226   9.999   5.995 -0.0387 -0.1180  0.1381
  531MOL0     C71615   1.285   9.916   5.929  0.1884 -0.2681  0.1372
  531MOL0     C71616   0.645  10.272   5.848 -0.0873  0.0474  0.0088
  531MOL0     C71617   0.505  10.246   5.854 -0.1621  0.1897  0.2155
  531MOL0     H71618   0.134   9.924   5.970 -2.3617 -0.4276  2.8309
  531MOL0     H71619  -0.097   9.887   6.024  3.1521 -0.3525  1.0415
  531MOL0     H71620  -0.271  10.025   6.168 -2.9262 -2.8291  0.3852
  531MOL0     H71621  -0.291  10.207   6.121 -3.7536  0.9232 -0.1922
  531MOL0     H71622  -0.470  10.159   6.240 -0.0525  0.3348 -0.0673
  531MOL0     H71623  -0.511  10.195   6.079 -1.6599 -1.0126  2.6275
  531MOL0     H71624  -0.467   9.906   6.120 -1.0166  0.2198 -0.1446
  531MOL0     H71625  -0.587   9.964   6.222  2.2134 -0.1291  0.6605
  531MOL0     H71626  -0.701  10.063   6.018  0.3957 -0.2777  2.2585
  531MOL0     H71627  -0.576   9.999   5.913  0.3708  4.4941  0.6778
  531MOL0     H71628  -0.666   9.764   6.025 -1.2201  0.2072  2.1404
  531MOL0     H71629  -0.784   9.865   6.100  0.4261 -0.5169  0.5001
  531MOL0     H71630  -0.855   9.936   5.837  0.7607  1.1345  0.2216
  531MOL0     H71631  -0.768   9.788   5.803  3.9072  2.5693  0.7886
  531MOL0     H71632  -0.976   9.726   5.817  1.1719  1.4118 -0.3918
  531MOL0     H71633  -0.904   9.675   5.978  1.2497  0.2418  0.0859
  531MOL0     H71634  -1.090   9.915   5.929  1.6884 -0.9726 -0.4172
  531MOL0     H71635  -1.017   9.888   6.077 -2.6691  1.4616  0.7387
  531MOL0     H71636  -1.055   9.624   6.194  1.0930  0.3458 -0.6327
  531MOL0     H71637  -1.287   9.379   6.166 -1.2444  1.1553 -1.1422
  531MOL0     H71638  -1.235   9.490   6.299  2.3710 -0.0372 -1.4972
  531MOL0     H71639  -1.505   9.471   6.167  1.2280 -0.8120 -1.3293
  531MOL0     H71640  -1.471   9.589   6.296  0.6445 -0.4746  1.3840
  531MOL0     H71641  -1.408   9.352   6.417  0.8659  1.3445 -0.8727
  531MOL0     H71642  -1.529   9.292   6.305 -0.0288 -0.7259 -0.2272
  531MOL0     H71643  -1.697   9.460   6.382  0.6860  0.5111 -0.2534
  531MOL0     H71644  -1.567   9.516   6.493  0.4215 -0.2253  1.6123
  531MOL0     H71645  -1.722   9.575   6.623  2.5318 -0.9065  0.8378
  531MOL0     H71646  -1.846   9.695   6.926 -1.1665  2.0442  0.5033
  531MOL0     H71647  -1.834   9.754   6.750 -1.7986  0.3781 -0.5212
  531MOL0     H71648  -1.981   9.703   6.812  0.9055  3.0155  1.8790
  531MOL0     H71649  -2.117   9.164   7.185 -1.6316 -1.8499  1.6591
  531MOL0     H71650  -2.287   9.190   7.361 -0.5944  0.0852  3.5152
  531MOL0     H71651  -2.385   9.576   7.454  0.2131 -0.5939 -1.2523
  531MOL0     H71652  -2.476   9.436   7.408  3.8416 -0.3935 -2.0934
  531MOL0     H71653  -2.447   9.557   7.697 -1.9283 -0.3625  0.8279
  531MOL0     H71654  -2.574   9.594   7.589 -0.9942 -0.6973  1.4188
  531MOL0     H71655  -2.506   9.324   7.710  0.8705  1.7107  3.5257
  531MOL0     H71656  -2.647   9.346   7.594 -2.3817  2.4463  0.0846
  531MOL0     H71657  -2.710   9.333   7.844  3.8975  1.3379  5.0592
  531MOL0     H71658  -2.627   9.479   7.877 -2.3644 -1.4391  2.7206
  531MOL0     H71659  -2.835   9.459   7.679 -1.0195 -1.7730  1.8415
  531MOL0     H71660  -2.739   9.599   7.691 -4.1966 -0.5421 -3.0729
  531MOL0     H71661  -2.905   9.486   7.938 -2.1013  0.2713 -0.2340
  531MOL0     H71662  -2.806   9.633   7.937  1.0292 -0.5869 -0.5210
  531MOL0     H71663  -3.055   9.583   7.769  0.3698 -1.2294  0.0706
  531MOL0     H71664  -2.935   9.725   7.755 -0.7031  1.5256  0.8619
  531MOL0     H71665  -3.082   9.645   8.011 -1.5421 -0.9990 -0.1404
  531MOL0     H71666  -3.151   9.756   7.873  1.0476 -0.1027 -2.9850
  531MOL0     H71667  -2.135   9.586   7.455  0.0024 -0.8596  1.4667
  531MOL0     H71668  -1.961   9.564   7.285 -0.3696 -0.4314  1.4202
  531MOL0     H71669  -1.915   9.215   6.892 -1.4636  0.4333 -0.9315
  531MOL0     H71670  -1.791   9.162   6.708  0.9271  0.0018 -0.0180
  531MOL0     H71671  -0.191  10.275   5.842 -0.7007  0.8714  2.1286
  531MOL0     H71672   0.046  10.307   5.814  0.1138  0.5579  2.3919
  531MOL0     H71673   0.450  10.154   5.524  0.8659 -1.2277 -1.4836
  531MOL0     H71674   0.684  10.193   5.518 -0.7257  1.7263 -1.5314
  531MOL0     H71675   1.032  10.335   5.769 -0.5962 -0.2698 -1.4608
  531MOL0     H71676   0.891  10.367   5.873  2.0421  3.6568 -1.3334
  531MOL0     H71677   1.062  10.115   5.826  1.3652  0.8052 -0.3913
  531MOL0     H71678   0.927  10.111   5.925  0.6806 -0.6907 -1.8217
  531MOL0     H71679   1.039  10.262   6.096  0.2975 -0.3750 -0.1070
  531MOL0     H71680   1.170  10.275   5.986  0.1975 -1.0790 -0.1662
  531MOL0     H71681   1.094  10.038   6.155  0.3413 -1.2411 -0.5656
  531MOL0     H71682   1.239  10.142   6.148 -0.0481  0.5887  0.3675
  531MOL0     H71683   1.350   9.854   5.870 -0.2948 -0.5918 -0.0632
  531MOL0     H71684   0.689  10.327   5.931  0.6562  2.1883 -1.7041
  531MOL0     H71685   0.445  10.281   5.937 -0.4755  4.1067 -1.4151
  532MOL0     O71686   6.113   0.827   2.450  0.4406 -0.8361  0.0070
  532MOL0     C71687   6.111   0.885   2.559  0.2727 -0.0457  0.8802
  532MOL0     O71688   6.011   0.875   2.657  0.6769 -0.4184  0.0528
  532MOL0     C71689   5.912   0.784   2.628  0.1976 -0.4400  0.4384
  532MOL0     C71690   5.939   0.649   2.646  0.4424 -0.2309 -0.9034
  532MOL0     C71691   5.831   0.554   2.631 -0.2897  0.1795  0.6890
  532MOL0     C71692   5.698   0.595   2.595  0.9178 -1.2064 -0.2581
  532MOL0     O71693   5.597   0.500   2.576  0.0045  0.4474 -0.4437
  532MOL0     C71694   5.482   0.548   2.513  1.0280 -1.0481  0.2345
  532MOL0     C71695   5.384   0.440   2.460 -0.8837 -0.2560  0.2700
  532MOL0     C71696   5.353   0.326   2.562  1.0077  0.4499  0.9986
  532MOL0     C71697   5.284   0.203   2.494  0.2013 -0.4346 -0.6491
  532MOL0     C71698   5.201   0.124   2.606 -0.2860 -0.1271 -0.2810
  532MOL0     C71699   5.137  -0.002   2.552 -0.4144  0.1226  0.7131
  532MOL0     C71700   5.046  -0.062   2.659 -0.9934 -0.6563  0.5252
  532MOL0     C71701   5.006  -0.202   2.634 -0.5630  0.8750  0.7576
  532MOL0     N71702   4.933  -0.218   2.510 -0.1587 -0.4066 -0.2321
  532MOL0     C71703   4.820  -0.148   2.479  0.0694  0.7212  0.3392
  532MOL0     C71704   4.800  -0.175   2.345 -0.5945 -0.0594 -0.1020
  532MOL0     C71705   4.685  -0.115   2.266 -0.4928 -0.2834  0.4193
  532MOL0     C71706   4.568  -0.216   2.264 -1.0689 -0.9657 -0.6029
  532MOL0     C71707   4.471  -0.177   2.377  0.4166  0.7424  0.0676
  532MOL0     C71708   4.325  -0.220   2.359 -0.6054 -0.4387  0.0994
  532MOL0     O71709   4.245  -0.215   2.484  0.0753  0.0714  0.5334
  532MOL0     C71710   4.104  -0.221   2.463 -0.0390 -0.5086 -0.0936
  532MOL0     C71711   4.041  -0.280   2.355 -0.1311 -0.4313  0.5841
  532MOL0     C71712   3.901  -0.293   2.356 -1.0462  0.1194 -0.3402
  532MOL0     C71713   3.847  -0.358   2.229 -0.0928 -0.0598  0.5384
  532MOL0     C71714   3.817  -0.254   2.469  0.1239  0.8339  0.1477
  532MOL0     C71715   3.670  -0.274   2.472 -0.3256  0.1681 -0.0704
  532MOL0     O71716   3.598  -0.209   2.564 -0.2178 -0.6031 -0.2092
  532MOL0     C71717   3.466  -0.240   2.595 -0.1084  2.0630 -0.1225
  532MOL0     C71718   3.421  -0.365   2.660 -0.3263 -0.6033  0.6849
  532MOL0     C71719   3.279  -0.387   2.685 -0.3090  0.5361  0.6134
  532MOL0     C71720   3.186  -0.293   2.647 -0.4332  0.1906 -0.7135
  532MOL0     O71721   3.051  -0.311   2.661 -0.1304 -0.2591  0.3408
  532MOL0     C71722   2.998  -0.415   2.751  0.2782 -0.0520 -0.1501
  532MOL0     C71723   2.848  -0.400   2.748  0.2293  1.5877  0.3448
  532MOL0     C71724   2.779  -0.527   2.798  0.4369  0.2433  0.1953
  532MOL0     C71725   2.801  -0.557   2.945  0.3956  0.0952  0.0671
  532MOL0     C71726   2.711  -0.465   3.025  0.0237  0.4234 -0.1735
  532MOL0     C71727   2.675  -0.532   3.157 -1.0131  0.5404 -0.2436
  532MOL0     C71728   2.792  -0.578   3.239 -0.4654 -0.5468 -0.2424
  532MOL0     C71729   2.746  -0.683   3.341  0.2984  0.3842 -0.6021
  532MOL0    Cl71730   2.883  -0.741   3.440  0.0620 -0.0636 -0.1545
  532MOL0     C71731   3.226  -0.172   2.590 -0.3799 -0.1469  0.7232
  532MOL0     C71732   3.363  -0.149   2.566 -0.5588 -0.5628 -0.7565
  532MOL0     O71733   3.620  -0.349   2.389  0.0625 -0.1633 -0.3043
  532MOL0     C71734   3.879  -0.191   2.578  0.6136  0.3764 -0.3054
  532MOL0     C71735   4.023  -0.170   2.577 -0.5489  0.8093  0.4929
  532MOL0     N71736   4.904  -0.253   2.295  0.7727 -0.0310 -0.1693
  532MOL0     N71737   4.978  -0.288   2.394 -0.1459  0.0846 -0.7592
  532MOL0     C71738   5.684   0.734   2.591  0.2786 -0.6937  0.1386
  532MOL0     C71739   5.784   0.823   2.610  1.2141  0.3021 -0.0974
  532MOL0     C71740   6.232   0.968   2.588 -0.4174  0.5756 -0.6558
  532MOL0     C71741   6.272   0.991   2.722  0.1489  0.0346  0.0729
  532MOL0     C71742   6.391   1.057   2.743 -1.0771  0.2233 -0.6902
  532MOL0     C71743   6.473   1.104   2.641 -0.0312 -0.5132 -0.5668
  532MOL0     O71744   6.585   1.176   2.658  0.7204  0.4081 -0.0433
  532MOL0     C71745   6.618   1.217   2.793  0.4247  0.8764 -0.8163
  532MOL0     C71746   6.752   1.273   2.792  0.2819  0.2200  0.2941
  532MOL0     C71747   6.803   1.333   2.927 -0.2234 -0.1028 -0.1460
  532MOL0     C71748   6.932   1.407   2.906  0.6059 -0.2613  0.6405
  532MOL0     C71749   7.023   1.381   3.017  0.0878 -0.2725  0.4400
  532MOL0     C71750   7.084   1.356   3.117 -0.7157  0.1057 -0.7585
  532MOL0     C71751   6.429   1.085   2.509  0.0307  0.3982 -0.4352
  532MOL0     C71752   6.305   1.019   2.482 -0.1963 -0.2756 -0.4646
  532MOL0     H71753   6.036   0.606   2.668  0.1226 -0.2408  0.5654
  532MOL0     H71754   5.836   0.448   2.651  0.6998  0.2148  0.6835
  532MOL0     H71755   5.415   0.614   2.568 -0.9826 -1.3263 -1.7533
  532MOL0     H71756   5.517   0.601   2.424  1.1922 -0.5058  0.6168
  532MOL0     H71757   5.291   0.483   2.422  0.4358  3.3739  0.7303
  532MOL0     H71758   5.433   0.399   2.372  0.9433  2.1485  0.0556
  532MOL0     H71759   5.450   0.299   2.604  2.0944  1.0504 -1.0149
  532MOL0     H71760   5.286   0.375   2.634 -0.0622  0.6492 -0.1052
  532MOL0     H71761   5.209   0.232   2.420  0.8073 -1.6852 -1.7820
  532MOL0     H71762   5.347   0.135   2.437  0.0487 -3.2107  2.2051
  532MOL0     H71763   5.272   0.088   2.680 -0.7048  2.0506  1.2704
  532MOL0     H71764   5.126   0.193   2.646 -0.9836 -1.8642  1.5182
  532MOL0     H71765   5.067   0.013   2.469  0.7819 -0.7400 -0.4851
  532MOL0     H71766   5.211  -0.072   2.513  0.2956  0.6679  1.0638
  532MOL0     H71767   5.089  -0.059   2.759 -2.3668 -2.0081  1.2068
  532MOL0     H71768   4.957   0.002   2.664 -1.7209 -1.3202 -2.3089
  532MOL0     H71769   4.932  -0.240   2.706  1.4128 -1.7985  1.5095
  532MOL0     H71770   5.092  -0.269   2.633 -1.6140 -0.6070 -2.6026
  532MOL0     H71771   4.766  -0.095   2.557  0.5156  1.3600  0.2205
  532MOL0     H71772   4.655  -0.022   2.315  0.2802 -0.5408  1.4223
  532MOL0     H71773   4.715  -0.087   2.165  1.5315 -1.8028  0.5302
  532MOL0     H71774   4.596  -0.321   2.264 -1.0773 -0.9831 -1.7191
  532MOL0     H71775   4.507  -0.196   2.175 -1.0779 -0.7712 -0.5548
  532MOL0     H71776   4.471  -0.068   2.388  1.9113  0.6811  0.9513
  532MOL0     H71777   4.501  -0.221   2.472  2.5205  0.1097 -0.8474
  532MOL0     H71778   4.323  -0.322   2.321 -2.3186 -0.9506  1.4421
  532MOL0     H71779   4.278  -0.153   2.286 -1.7608 -0.3396  0.9091
  532MOL0     H71780   4.087  -0.330   2.270 -2.3320  1.1216 -1.6484
  532MOL0     H71781   3.922  -0.375   2.152 -1.6184  1.8771 -1.5093
  532MOL0     H71782   3.796  -0.451   2.258 -3.1256  1.0872 -0.6637
  532MOL0     H71783   3.766  -0.300   2.184  1.1672 -0.7276 -2.8333
  532MOL0     H71784   3.501  -0.433   2.687  0.6693  1.3434  2.8918
  532MOL0     H71785   3.239  -0.474   2.736 -0.6710 -1.1476 -2.2879
  532MOL0     H71786   3.030  -0.515   2.721  0.5890 -0.5755  1.7459
  532MOL0     H71787   3.032  -0.385   2.851 -1.8229  0.8614  0.3524
  532MOL0     H71788   2.819  -0.313   2.808  1.4447  1.4659  1.1451
  532MOL0     H71789   2.825  -0.379   2.643  0.0459 -0.5806 -0.1047
  532MOL0     H71790   2.817  -0.609   2.736  0.0087 -0.3317  0.6776
  532MOL0     H71791   2.671  -0.522   2.778  0.0458 -1.1681  1.7025
  532MOL0     H71792   2.771  -0.660   2.969  2.0559 -0.6319 -0.8076
  532MOL0     H71793   2.905  -0.543   2.972 -0.4549  2.0738  2.7326
  532MOL0     H71794   2.614  -0.458   2.976  0.2266  3.3012 -0.3250
  532MOL0     H71795   2.757  -0.367   3.040 -0.2110  0.5158 -0.0556
  532MOL0     H71796   2.623  -0.450   3.208  0.5630  0.2057  2.0945
  532MOL0     H71797   2.607  -0.617   3.146  0.3161 -0.9327  2.0113
  532MOL0     H71798   2.833  -0.495   3.297 -0.5807  0.0422 -0.9754
  532MOL0     H71799   2.880  -0.612   3.185  0.6963 -0.6014  1.6233
  532MOL0     H71800   2.693  -0.763   3.288 -0.8421  2.0812 -2.1359
  532MOL0     H71801   2.670  -0.645   3.409  0.9941 -0.0182  0.4279
  532MOL0     H71802   3.150  -0.097   2.572  0.1659  0.1896 -0.2613
  532MOL0     H71803   3.386  -0.055   2.516 -1.3141  0.0461 -0.0030
  532MOL0     H71804   3.821  -0.160   2.664 -1.2637 -2.4147 -0.4284
  532MOL0     H71805   4.076  -0.130   2.663  1.7701  4.0879 -2.2111
  532MOL0     H71806   5.589   0.778   2.561 -0.1715 -0.7881  1.3846
  532MOL0     H71807   5.763   0.929   2.608 -0.3662  0.0721  1.2903
  532MOL0     H71808   6.210   0.953   2.803  3.7825 -2.6742  1.9450
  532MOL0     H71809   6.408   1.071   2.849  0.7163 -2.0421 -0.5968
  532MOL0     H71810   6.552   1.293   2.836  2.0937  1.8475  0.1426
  532MOL0     H71811   6.623   1.127   2.856 -1.2113 -0.3415 -2.3032
  532MOL0     H71812   6.764   1.346   2.712 -1.6926 -0.6542 -0.8779
  532MOL0     H71813   6.820   1.189   2.772 -0.9050 -0.4233 -1.1904
  532MOL0     H71814   6.822   1.247   2.992 -1.2987 -0.4378 -0.2506
  532MOL0     H71815   6.735   1.401   2.980 -1.1840 -0.4401 -0.9275
  532MOL0     H71816   6.911   1.514   2.906  0.1092 -0.3498 -0.4525
  532MOL0     H71817   6.983   1.399   2.809 -1.3458 -0.9804 -0.3687
  532MOL0     H71818   7.154   1.318   3.189  0.7007  1.3991 -1.3953
  532MOL0     H71819   6.497   1.122   2.433 -0.2269  1.2748 -0.2431
  532MOL0     H71820   6.287   1.007   2.375  1.1738  0.9303 -0.8701
  533MOL0     O71821  10.168  10.686   3.543  0.0813  0.2238 -0.0838
  533MOL0     C71822  10.220  10.790   3.580  0.0889  0.2242 -0.6332
  533MOL0     O71823  10.159  10.897   3.623 -0.3674 -0.0009  0.7869
  533MOL0     C71824  10.029  10.897   3.646  0.5655  1.1337  0.0198
  533MOL0     C71825   9.969  10.809   3.742  0.4102  0.1442 -0.3788
  533MOL0     C71826   9.838  10.842   3.791 -0.8518 -0.8639 -0.0559
  533MOL0     C71827   9.764  10.946   3.729  0.5363 -0.2137  0.4186
  533MOL0     O71828   9.634  10.971   3.762 -1.0134 -0.3896  0.4638
  533MOL0     C71829   9.552  10.863   3.805  0.3317 -1.7450  0.3718
  533MOL0     C71830   9.412  10.917   3.822  0.3657  0.2059  0.8050
  533MOL0     C71831   9.409  11.035   3.919  0.4226  0.6451  0.1778
  533MOL0     C71832   9.262  11.094   3.935  0.3021 -0.1866  0.3219
  533MOL0     C71833   9.236  11.193   4.043  0.9921 -0.8560 -0.0466
  533MOL0     C71834   9.091  11.222   4.053 -0.0377  0.2482 -0.4406
  533MOL0     C71835   9.020  11.293   3.933  0.2151  0.3975 -0.5186
  533MOL0     C71836   8.874  11.321   3.970 -0.2619 -0.5897  0.2091
  533MOL0     N71837   8.769  11.352   3.872 -0.0039  0.4958 -0.5896
  533MOL0     C71838   8.760  11.476   3.806 -0.1943  0.4920 -0.5083
  533MOL0     C71839   8.647  11.468   3.735  0.1270 -0.4447  0.7818
  533MOL0     C71840   8.586  11.579   3.656 -0.6212 -0.1997  0.4054
  533MOL0     C71841   8.528  11.691   3.748  0.8155 -0.5502 -0.3294
  533MOL0     C71842   8.461  11.789   3.659  0.0839  1.6488  0.2237
  533MOL0     C71843   8.316  11.735   3.629 -0.4120 -0.8035  0.4145
  533MOL0     O71844   8.245  11.831   3.548 -0.2826 -0.6289 -0.3339
  533MOL0     C71845   8.112  11.822   3.539 -0.5999 -0.3410  0.2356
  533MOL0     C71846   8.032  11.727   3.607 -0.3979 -0.0907 -0.4172
  533MOL0     C71847   7.895  11.730   3.598  0.1886 -0.6696  0.6014
  533MOL0     C71848   7.814  11.642   3.687  0.2575  0.2994  0.3494
  533MOL0     C71849   7.830  11.824   3.514 -0.3562 -0.6515 -0.4111
  533MOL0     C71850   7.686  11.852   3.495 -0.0761  0.6148 -0.7631
  533MOL0     O71851   7.654  11.981   3.449 -0.2906  0.3930  0.0255
  533MOL0     C71852   7.536  12.012   3.388 -0.8872 -0.1622 -0.7032
  533MOL0     C71853   7.538  12.082   3.265  0.3281 -0.2406 -0.0725
  533MOL0     C71854   7.416  12.121   3.209 -0.7935  0.1790  0.4661
  533MOL0     C71855   7.292  12.103   3.276  0.3738 -0.4431  0.1107
  533MOL0     O71856   7.166  12.169   3.243  0.0329 -0.1556  0.2232
  533MOL0     C71857   7.170  12.270   3.136  1.2130 -0.5602 -0.5593
  533MOL0     C71858   7.022  12.308   3.093 -1.7078  1.0451  0.6689
  533MOL0     C71859   6.945  12.179   3.052 -0.3988 -0.6294  0.5166
  533MOL0     C71860   6.806  12.194   2.992 -0.3591 -0.6934 -0.3189
  533MOL0     C71861   6.771  12.065   2.912  0.3284  0.6098 -0.1117
  533MOL0     C71862   6.631  12.077   2.847 -0.1118 -0.4613 -0.5259
  533MOL0     C71863   6.594  11.957   2.756  0.1285 -0.1734  0.8961
  533MOL0     C71864   6.469  11.991   2.688  0.4039  0.3048  0.0744
  533MOL0    Cl71865   6.422  11.851   2.586 -0.1236 -0.2801  0.2644
  533MOL0     C71866   7.291  12.028   3.391  0.5176  0.4779  0.2460
  533MOL0     C71867   7.411  11.990   3.447  0.3097 -0.3691  0.5176
  533MOL0     O71868   7.606  11.759   3.505 -0.3175 -0.1026 -0.3387
  533MOL0     C71869   7.923  11.908   3.434 -0.1641  0.3500  0.1100
  533MOL0     C71870   8.056  11.914   3.450  0.1026 -0.2983  0.3358
  533MOL0     N71871   8.591  11.344   3.746 -0.5656 -0.0279 -0.1296
  533MOL0     N71872   8.660  11.281   3.842  0.0473 -0.2797 -0.0522
  533MOL0     C71873   9.824  11.028   3.637 -1.1200 -0.1060  0.3975
  533MOL0     C71874   9.953  11.001   3.598 -0.1625 -0.4618  0.5357
  533MOL0     C71875  10.369  10.803   3.556  0.6130  0.4506 -0.5042
  533MOL0     C71876  10.439  10.922   3.537  0.5373  0.8925  0.2389
  533MOL0     C71877  10.576  10.922   3.509  0.1054  0.6013 -0.4677
  533MOL0     C71878  10.649  10.800   3.497 -0.3298  0.0445  0.0232
  533MOL0     O71879  10.789  10.790   3.493  0.0365  0.0826 -0.3683
  533MOL0     C71880  10.871  10.914   3.504  1.1405  0.2962  0.0745
  533MOL0     C71881  11.018  10.891   3.520 -0.6960  0.3202 -0.3413
  533MOL0     C71882  11.086  10.818   3.400 -0.1489  0.2851 -0.7629
  533MOL0     C71883  11.188  10.712   3.438  0.5750  0.2305  0.2199
  533MOL0     C71884  11.293  10.770   3.516 -0.9462  0.4198  0.1597
  533MOL0     C71885  11.394  10.812   3.569 -0.0072 -0.0507 -0.5996
  533MOL0     C71886  10.583  10.680   3.523  0.6207  0.2127 -0.1493
  533MOL0     C71887  10.445  10.681   3.547  0.3049 -0.1353  0.1792
  533MOL0     H71888  10.029  10.731   3.787  0.6017  2.0131  2.9200
  533MOL0     H71889   9.785  10.790   3.871 -1.1989 -0.6222 -0.1243
  533MOL0     H71890   9.555  10.781   3.734 -2.4441 -0.9479 -0.7954
  533MOL0     H71891   9.575  10.839   3.909 -0.3671 -0.7193  0.7860
  533MOL0     H71892   9.371  10.939   3.723 -0.3099 -0.5123  0.9142
  533MOL0     H71893   9.353  10.832   3.859  0.7851 -0.7893 -0.7073
  533MOL0     H71894   9.440  10.992   4.015 -0.7168 -2.6056 -0.8009
  533MOL0     H71895   9.468  11.123   3.890  0.0245  0.4828 -1.1708
  533MOL0     H71896   9.245  11.136   3.835  3.9044 -0.5114 -0.5842
  533MOL0     H71897   9.200  11.007   3.960 -0.1548  0.1568  0.3971
  533MOL0     H71898   9.267  11.144   4.136 -0.6714  1.0169  1.5851
  533MOL0     H71899   9.290  11.287   4.031  0.5983 -0.8105 -1.7261
  533MOL0     H71900   9.036  11.130   4.073 -2.5222  1.8238  0.5442
  533MOL0     H71901   9.069  11.279   4.144 -0.4714 -1.3699  0.5011
  533MOL0     H71902   9.072  11.380   3.893  1.5686  0.4464  1.2351
  533MOL0     H71903   9.020  11.219   3.851  0.2124 -0.4608  0.2411
  533MOL0     H71904   8.868  11.406   4.039  2.0561 -1.5792  1.7545
  533MOL0     H71905   8.829  11.238   4.025 -3.8337  1.0888  0.0885
  533MOL0     H71906   8.817  11.566   3.825  0.1128 -0.3179  3.1537
  533MOL0     H71907   8.662  11.624   3.591 -0.3649  0.7637  1.3373
  533MOL0     H71908   8.512  11.532   3.592  0.5586  0.9654 -1.9372
  533MOL0     H71909   8.614  11.733   3.800  1.0776 -0.7724 -0.5781
  533MOL0     H71910   8.457  11.652   3.821  0.7822  0.3834  0.1527
  533MOL0     H71911   8.513  11.794   3.563 -3.4483  2.6477 -1.8574
  533MOL0     H71912   8.450  11.893   3.692 -2.2674  3.0882 -4.2137
  533MOL0     H71913   8.266  11.721   3.725  0.2568 -1.9114  0.6108
  533MOL0     H71914   8.316  11.636   3.584 -0.6106 -0.8706  0.5575
  533MOL0     H71915   8.069  11.656   3.680 -0.8010  1.0754  0.9771
  533MOL0     H71916   7.752  11.701   3.756 -0.0867  0.9867 -0.5240
  533MOL0     H71917   7.749  11.583   3.622 -1.5419  1.0787  1.3635
  533MOL0     H71918   7.874  11.573   3.748 -2.2569 -0.4555  2.1356
  533MOL0     H71919   7.632  12.095   3.213  0.3369  1.0885  0.2291
  533MOL0     H71920   7.408  12.175   3.115 -1.6760  0.7440  0.8593
  533MOL0     H71921   7.221  12.364   3.159  2.1331 -0.4879 -2.6209
  533MOL0     H71922   7.216  12.221   3.049 -0.3566 -0.9023 -1.2236
  533MOL0     H71923   6.975  12.367   3.171  0.0007  2.0370  1.0086
  533MOL0     H71924   7.023  12.367   3.000 -2.4113 -1.8749 -1.3492
  533MOL0     H71925   6.935  12.122   3.144  0.9186 -1.6196  0.0806
  533MOL0     H71926   6.997  12.111   2.985 -1.9260 -1.6789  0.3560
  533MOL0     H71927   6.733  12.208   3.072  0.2978 -1.4851  0.4389
  533MOL0     H71928   6.806  12.280   2.925 -0.4631 -2.4525 -2.7265
  533MOL0     H71929   6.775  11.986   2.987 -0.1664  0.6123 -0.0758
  533MOL0     H71930   6.843  12.040   2.834 -0.6459  0.8644 -1.1306
  533MOL0     H71931   6.549  12.100   2.915 -2.9662 -3.8343 -2.4394
  533MOL0     H71932   6.639  12.169   2.789  0.0245 -0.2149 -0.1162
  533MOL0     H71933   6.574  11.875   2.826 -0.2901  0.5717  1.6696
  533MOL0     H71934   6.672  11.929   2.685 -1.1395 -0.9562 -0.2509
  533MOL0     H71935   6.463  12.081   2.627  0.9267  0.9545  0.9593
  533MOL0     H71936   6.408  12.016   2.776  0.2701  1.2566 -0.2819
  533MOL0     H71937   7.199  12.000   3.442 -0.2859  1.3811 -0.6675
  533MOL0     H71938   7.392  11.953   3.547 -1.6142  4.4606  2.2643
  533MOL0     H71939   7.874  11.973   3.362 -1.5511 -0.9378 -0.1862
  533MOL0     H71940   8.114  11.993   3.405 -1.5187  2.0430  2.1224
  533MOL0     H71941   9.768  11.109   3.593  0.4807  1.9065  1.8539
  533MOL0     H71942  10.005  11.054   3.518  1.1342 -2.7792 -0.2432
  533MOL0     H71943  10.396  11.022   3.525  0.2656  0.8601  0.8586
  533MOL0     H71944  10.622  11.021   3.514  0.1617  0.5245  1.1782
  533MOL0     H71945  10.860  10.975   3.414 -0.2149 -0.7447 -0.4927
  533MOL0     H71946  10.844  10.989   3.580  3.1808 -0.0722  1.2283
  533MOL0     H71947  11.032  10.834   3.612  1.5570  2.1516  0.5822
  533MOL0     H71948  11.062  10.990   3.538 -2.0030  1.0303 -0.9250
  533MOL0     H71949  11.137  10.884   3.329 -1.8498  1.0655 -1.2929
  533MOL0     H71950  11.010  10.767   3.341  0.2237  1.1445 -2.0126
  533MOL0     H71951  11.241  10.670   3.352 -2.7273 -1.3343 -1.2131
  533MOL0     H71952  11.136  10.628   3.484 -0.5114  0.4825 -0.5064
  533MOL0     H71953  11.477  10.869   3.605  1.8674 -3.1305  0.2490
  533MOL0     H71954  10.643  10.591   3.517 -0.2866 -0.5394  1.3126
  533MOL0     H71955  10.402  10.582   3.555  1.0676 -0.4399  0.6745
  534MOL0     O71956   9.352   3.882   7.612  0.3075 -0.2559 -0.9089
  534MOL0     C71957   9.417   3.816   7.534  0.7298 -0.0559  0.2736
  534MOL0     O71958   9.362   3.768   7.408 -0.6834  0.2379 -1.2199
  534MOL0     C71959   9.229   3.772   7.377  0.8593 -0.4474  1.1459
  534MOL0     C71960   9.198   3.745   7.240  0.7728  0.4693  0.7711
  534MOL0     C71961   9.068   3.751   7.196  0.0821 -0.1357  0.9200
  534MOL0     C71962   8.963   3.804   7.276  0.4442 -0.6605 -0.7527
  534MOL0     O71963   8.824   3.814   7.242  0.0929  1.4968  0.9944
  534MOL0     C71964   8.785   3.737   7.117 -1.0078 -0.6746 -0.3506
  534MOL0     C71965   8.752   3.840   7.011 -0.3863  0.0906  0.2429
  534MOL0     C71966   8.719   3.767   6.885 -0.3670  1.0277 -0.2977
  534MOL0     C71967   8.592   3.671   6.889  0.2276  0.6559  0.0097
  534MOL0     C71968   8.547   3.617   6.741  0.5481 -0.3394 -0.0146
  534MOL0     C71969   8.456   3.496   6.759 -1.0512  0.6122 -0.0378
  534MOL0     C71970   8.425   3.421   6.625  0.5100  0.6293 -0.7337
  534MOL0     C71971   8.319   3.309   6.661  0.3945  0.0516 -0.4265
  534MOL0     N71972   8.256   3.244   6.557 -0.2663  0.2722  0.1582
  534MOL0     C71973   8.149   3.291   6.488 -0.2598  0.7132  0.1551
  534MOL0     C71974   8.116   3.184   6.414 -0.2481 -0.6983  0.5054
  534MOL0     C71975   7.986   3.193   6.332 -0.0721  0.4013 -0.0061
  534MOL0     C71976   8.008   3.237   6.187 -0.1516 -0.2674  0.7077
  534MOL0     C71977   7.874   3.285   6.127 -0.3948 -0.3023 -0.6529
  534MOL0     C71978   7.769   3.166   6.132 -0.1675 -0.5709 -0.4495
  534MOL0     O71979   7.660   3.207   6.045  0.5016 -0.2785  0.1672
  534MOL0     C71980   7.541   3.233   6.096 -0.1999 -0.2754 -0.1792
  534MOL0     C71981   7.508   3.340   6.185  0.3462 -0.8918  0.5315
  534MOL0     C71982   7.382   3.366   6.236  0.1614 -0.3371  0.5946
  534MOL0     C71983   7.368   3.464   6.349 -0.2394 -0.7193  0.2345
  534MOL0     C71984   7.277   3.295   6.177  0.0023  0.7854 -0.5250
  534MOL0     C71985   7.142   3.332   6.198  0.6107  0.3427  0.0452
  534MOL0     O71986   7.054   3.233   6.157 -0.0517 -0.1769  0.4260
  534MOL0     C71987   6.926   3.274   6.144 -0.4157 -0.4777 -1.0987
  534MOL0     C71988   6.840   3.280   6.255 -0.0660 -0.4984  0.0515
  534MOL0     C71989   6.705   3.318   6.232  0.3312  0.6458 -0.7873
  534MOL0     C71990   6.663   3.354   6.105  0.2015  0.8050  0.6820
  534MOL0     O71991   6.532   3.384   6.089  0.4011  0.6585  0.1525
  534MOL0     C71992   6.495   3.485   5.996  0.0324  0.0885  0.7334
  534MOL0     C71993   6.424   3.402   5.886  0.7255 -0.0478  0.0763
  534MOL0     C71994   6.293   3.332   5.937 -0.2007 -0.3428 -0.4018
  534MOL0     C71995   6.172   3.426   5.925 -0.3612 -0.2901 -0.5440
  534MOL0     C71996   6.051   3.370   5.987  0.4873 -0.1494 -0.1075
  534MOL0     C71997   6.056   3.373   6.141 -0.5543  0.7610 -0.0309
  534MOL0     C71998   5.923   3.304   6.194  0.0132  0.0291  0.2518
  534MOL0     C71999   5.867   3.370   6.311 -0.2898 -0.6561  0.4559
  534MOL0    Cl72000   5.718   3.284   6.364 -0.0506 -0.2051 -0.5456
  534MOL0     C72001   6.756   3.355   5.998  0.8758  0.6551  0.7375
  534MOL0     C72002   6.888   3.306   6.021  0.9264  1.7172  0.1604
  534MOL0     O72003   7.107   3.437   6.256 -0.6415  0.0716  0.1135
  534MOL0     C72004   7.307   3.183   6.093  0.2150 -0.2206 -0.9174
  534MOL0     C72005   7.438   3.153   6.054  0.0661 -0.3432 -0.1969
  534MOL0     N72006   8.211   3.090   6.432 -0.3820  0.7939  0.5230
  534MOL0     N72007   8.295   3.126   6.524 -0.6743  0.0623  0.3796
  534MOL0     C72008   8.995   3.845   7.405  0.0478  0.7226 -0.4623
  534MOL0     C72009   9.120   3.828   7.454  0.1942  0.2651  0.5437
  534MOL0     C72010   9.564   3.809   7.560  0.0868 -0.1067 -0.3779
  534MOL0     C72011   9.661   3.754   7.477  0.0972  0.1361  0.3254
  534MOL0     C72012   9.792   3.776   7.507 -0.2001 -0.2743 -0.3754
  534MOL0     C72013   9.841   3.832   7.626  0.0719 -0.8470  0.4763
  534MOL0     O72014   9.980   3.835   7.653  0.3195 -0.9043 -0.2298
  534MOL0     C72015  10.032   3.836   7.786  0.8494  0.2451  0.0295
  534MOL0     C72016  10.177   3.785   7.781 -0.8509  0.2809 -0.1253
  534MOL0     C72017  10.198   3.652   7.849  0.3081 -0.8557 -0.5947
  534MOL0     C72018  10.297   3.562   7.771  0.3012 -0.4317  0.0305
  534MOL0     C72019  10.421   3.629   7.739  0.4416  0.1729  0.6237
  534MOL0     C72020  10.523   3.667   7.706  0.2802 -0.2126 -1.0536
  534MOL0     C72021   9.743   3.867   7.717  0.1602  0.8620  0.1417
  534MOL0     C72022   9.610   3.859   7.689  0.2805 -0.4129  0.1402
  534MOL0     H72023   9.261   3.684   7.177 -0.6073  0.3508 -0.5455
  534MOL0     H72024   9.057   3.714   7.095  0.1416 -1.2760  1.3227
  534MOL0     H72025   8.854   3.657   7.088  0.1351  0.2456 -0.2074
  534MOL0     H72026   8.695   3.684   7.150  0.0333 -1.2951  1.6341
  534MOL0     H72027   8.660   3.895   7.031  0.0924  1.5425 -1.2686
  534MOL0     H72028   8.828   3.918   6.996  0.4007 -0.7141 -0.0170
  534MOL0     H72029   8.701   3.836   6.802 -1.7103 -0.7452 -1.5742
  534MOL0     H72030   8.803   3.704   6.853 -0.9162 -0.4795  1.1143
  534MOL0     H72031   8.618   3.581   6.946  1.6924  0.5540 -0.7832
  534MOL0     H72032   8.503   3.727   6.921 -0.4520  1.7741 -3.3605
  534MOL0     H72033   8.505   3.700   6.682 -0.3607 -1.6783 -1.3181
  534MOL0     H72034   8.634   3.591   6.680  0.3670 -1.0620  0.0252
  534MOL0     H72035   8.505   3.432   6.833  2.3136  1.3117 -1.4357
  534MOL0     H72036   8.364   3.537   6.800  1.1005  2.3527  3.4377
  534MOL0     H72037   8.390   3.494   6.552 -0.4213 -0.9453 -1.9248
  534MOL0     H72038   8.514   3.376   6.580  2.6996  2.5859  1.3119
  534MOL0     H72039   8.246   3.355   6.728 -1.0071 -0.3680 -1.6217
  534MOL0     H72040   8.369   3.235   6.724  0.3135  0.6754  0.3786
  534MOL0     H72041   8.093   3.383   6.503  0.7292  1.3584  0.0020
  534MOL0     H72042   7.941   3.093   6.321  1.2757 -0.4199  1.5145
  534MOL0     H72043   7.915   3.259   6.382 -0.2825 -1.1632  1.8532
  534MOL0     H72044   8.059   3.155   6.135 -3.1282 -1.3371 -0.7481
  534MOL0     H72045   8.075   3.322   6.178 -1.6254  0.7661 -1.1656
  534MOL0     H72046   7.884   3.317   6.023  0.7741 -1.4244 -0.9175
  534MOL0     H72047   7.834   3.373   6.177  0.9873 -0.8994  1.6546
  534MOL0     H72048   7.738   3.153   6.237 -1.2762 -1.8300 -0.9041
  534MOL0     H72049   7.807   3.072   6.093  0.3151 -0.6481  0.1890
  534MOL0     H72050   7.584   3.397   6.237 -2.5014  2.1886  1.6202
  534MOL0     H72051   7.466   3.501   6.380  0.4742 -1.2098 -1.3280
  534MOL0     H72052   7.325   3.555   6.305  2.1487  1.1264  1.4607
  534MOL0     H72053   7.314   3.431   6.438 -1.8570  3.1154  0.8686
  534MOL0     H72054   6.881   3.266   6.354 -1.4667 -1.2412  0.5649
  534MOL0     H72055   6.634   3.329   6.313  0.7535  0.1690 -0.3411
  534MOL0     H72056   6.423   3.554   6.041  0.4013  2.9906 -2.6129
  534MOL0     H72057   6.579   3.539   5.952 -0.7726  1.5067  0.8903
  534MOL0     H72058   6.407   3.460   5.795  0.8942  0.9756  0.6771
  534MOL0     H72059   6.486   3.316   5.861  1.2079  0.0607  0.8653
  534MOL0     H72060   6.303   3.290   6.037  0.2181 -1.6180 -0.9602
  534MOL0     H72061   6.265   3.248   5.873 -1.1557 -0.8097  0.5871
  534MOL0     H72062   6.192   3.521   5.975  0.6791 -0.8623  0.1706
  534MOL0     H72063   6.154   3.441   5.818 -0.3129 -1.3933 -0.7160
  534MOL0     H72064   6.034   3.267   5.953  2.3161 -0.6017  0.2525
  534MOL0     H72065   5.965   3.430   5.955  1.3249  0.7146 -0.7910
  534MOL0     H72066   6.146   3.322   6.177 -1.9508 -0.7033  1.5880
  534MOL0     H72067   6.067   3.474   6.182 -0.6933  0.5250  0.5923
  534MOL0     H72068   5.932   3.197   6.214 -1.2294  0.0774  1.2093
  534MOL0     H72069   5.846   3.307   6.117  2.6258  2.1333 -2.5295
  534MOL0     H72070   5.832   3.473   6.297 -2.1252 -1.0824  1.5498
  534MOL0     H72071   5.937   3.367   6.396 -0.0012  0.6819  0.2906
  534MOL0     H72072   6.716   3.361   5.898  0.8936  0.5564  0.7243
  534MOL0     H72073   6.960   3.291   5.941 -1.0244  0.5095 -1.4878
  534MOL0     H72074   7.237   3.117   6.042  0.2509  1.9608 -4.1077
  534MOL0     H72075   7.471   3.064   6.003  1.8092 -1.9418  3.3721
  534MOL0     H72076   8.918   3.874   7.475 -2.2000 -4.2055 -0.4679
  534MOL0     H72077   9.123   3.864   7.556 -1.4155  2.6044 -0.1360
  534MOL0     H72078   9.640   3.727   7.374 -1.8170  3.7201 -0.3856
  534MOL0     H72079   9.864   3.747   7.431 -0.2807  1.6998 -1.2452
  534MOL0     H72080  10.029   3.928   7.845 -0.7227  0.3373 -0.1649
  534MOL0     H72081   9.966   3.771   7.844  1.7636 -0.7830 -0.0482
  534MOL0     H72082  10.240   3.864   7.823 -0.2214 -0.6143  0.6624
  534MOL0     H72083  10.205   3.776   7.675 -4.0140 -0.0678 -1.0388
  534MOL0     H72084  10.097   3.612   7.861  0.0653  0.4316  2.6660
  534MOL0     H72085  10.254   3.656   7.943  0.1729 -4.1961 -0.2449
  534MOL0     H72086  10.231   3.522   7.693 -3.9241  1.4312  2.3408
  534MOL0     H72087  10.328   3.475   7.829  0.4479 -0.2580  0.2127
  534MOL0     H72088  10.613   3.709   7.664  1.0809 -0.7937  0.0103
  534MOL0     H72089   9.752   3.913   7.815 -1.4671  0.5895  0.4477
  534MOL0     H72090   9.535   3.889   7.761 -0.5566 -2.0201 -0.0250
  535MOL0     O72091  10.226   9.523   5.062  0.0288 -0.0067  0.1727
  535MOL0     C72092  10.151   9.625   5.079 -0.5883  0.1390  0.4711
  535MOL0     O72093  10.093   9.700   4.977 -0.3524  0.7639 -0.0699
  535MOL0     C72094  10.090   9.651   4.848  0.3621 -0.2804  0.3343
  535MOL0     C72095   9.972   9.668   4.783 -0.2328  0.6523  0.4876
  535MOL0     C72096   9.954   9.614   4.653  0.5204  0.4067 -0.4002
  535MOL0     C72097  10.057   9.568   4.573 -0.5441 -0.1767 -0.4997
  535MOL0     O72098  10.052   9.542   4.439 -0.3582 -0.0071 -0.3928
  535MOL0     C72099   9.927   9.509   4.364  0.3791  0.5838 -0.1245
  535MOL0     C72100   9.866   9.380   4.426  0.5797  0.2512 -0.4670
  535MOL0     C72101   9.774   9.309   4.324 -0.3790  0.1312 -0.9574
  535MOL0     C72102   9.680   9.209   4.391  0.9631  0.4788  0.1353
  535MOL0     C72103   9.590   9.248   4.504 -0.0702  0.0505  0.6779
  535MOL0     C72104   9.537   9.397   4.491  0.3730  0.5320 -0.1687
  535MOL0     C72105   9.426   9.426   4.597 -0.7032  0.1762 -0.8449
  535MOL0     C72106   9.392   9.576   4.595 -0.0029 -0.0803 -0.0752
  535MOL0     N72107   9.479   9.660   4.675  0.6781 -0.1007  0.2785
  535MOL0     C72108   9.472   9.682   4.810  0.1452  0.4644  0.9648
  535MOL0     C72109   9.571   9.772   4.829  0.4464  0.1590  0.1800
  535MOL0     C72110   9.606   9.829   4.970  0.1941 -0.0240 -0.1234
  535MOL0     C72111   9.728   9.930   4.972  0.0435  0.2256 -0.1881
  535MOL0     C72112   9.715  10.048   5.078 -0.4214  0.4104 -0.3450
  535MOL0     C72113   9.725  10.007   5.221  0.5224 -0.8282 -0.1416
  535MOL0     O72114   9.707  10.117   5.316 -0.1756 -0.5340  0.2090
  535MOL0     C72115   9.811  10.200   5.360  0.0487  0.7025 -0.0829
  535MOL0     C72116   9.790  10.288   5.463  0.0040  0.0453 -0.6662
  535MOL0     C72117   9.887  10.386   5.503 -1.0354 -0.4837 -0.2213
  535MOL0     C72118   9.852  10.482   5.610  0.3662 -0.0075 -0.2411
  535MOL0     C72119  10.015  10.391   5.436  1.0481 -0.0165 -0.0142
  535MOL0     C72120  10.133  10.469   5.471  0.2077  0.2055 -2.3321
  535MOL0     O72121  10.218  10.510   5.377  0.1247  0.2789  0.2795
  535MOL0     C72122  10.341  10.570   5.403 -0.1007 -0.3330  0.2280
  535MOL0     C72123  10.388  10.678   5.318  0.0640  0.1042 -0.5781
  535MOL0     C72124  10.521  10.727   5.324  0.5775  0.1179  0.0939
  535MOL0     C72125  10.612  10.658   5.406 -0.1595 -0.7070 -0.3789
  535MOL0     O72126  10.747  10.689   5.417  1.1609  0.2980 -0.0408
  535MOL0     C72127  10.780  10.823   5.404 -0.5023 -0.4177 -0.3536
  535MOL0     C72128  10.839  10.864   5.272  0.3065 -0.7711 -0.3132
  535MOL0     C72129  10.975  10.807   5.228 -1.0528  0.3043 -0.3391
  535MOL0     C72130  11.093  10.812   5.332 -0.9527 -0.1501 -0.3426
  535MOL0     C72131  11.231  10.781   5.267  0.0910 -0.2237  0.2637
  535MOL0     C72132  11.356  10.784   5.359  0.4037  0.3077  0.2128
  535MOL0     C72133  11.481  10.802   5.273 -0.2302 -0.4345 -0.6563
  535MOL0     C72134  11.613  10.758   5.342 -0.0650 -0.0817 -0.4010
  535MOL0    Cl72135  11.766  10.800   5.247  0.1186 -0.7551 -0.2673
  535MOL0     C72136  10.565  10.555   5.486 -0.1505 -0.7598  0.5530
  535MOL0     C72137  10.436  10.507   5.481 -0.0198  0.4266 -0.3772
  535MOL0     O72138  10.157  10.485   5.592  0.2528 -0.4667 -0.3667
  535MOL0     C72139  10.024  10.296   5.330  0.0993  0.0230 -0.5493
  535MOL0     C72140   9.927  10.200   5.293 -0.0532 -0.2598 -0.7294
  535MOL0     N72141   9.639   9.795   4.713  0.9569  0.7316 -0.6091
  535MOL0     N72142   9.589   9.722   4.624 -0.4269  0.3642 -0.5979
  535MOL0     C72143  10.185   9.564   4.637  0.3355 -0.4787  0.1103
  535MOL0     C72144  10.205   9.608   4.773  0.9954  0.8829  0.2397
  535MOL0     C72145  10.126   9.679   5.216 -0.6929 -0.0678 -0.1686
  535MOL0     C72146  10.088   9.812   5.233 -0.2649 -0.1241  0.0805
  535MOL0     C72147  10.092   9.874   5.360  0.0580  0.0670 -0.3176
  535MOL0     C72148  10.120   9.792   5.476  0.8653  1.0175 -0.4800
  535MOL0     O72149  10.122   9.834   5.609  0.4563 -0.1711  0.7849
  535MOL0     C72150  10.050   9.954   5.645 -1.2100  0.3822  0.3313
  535MOL0     C72151   9.898   9.942   5.611 -0.0365 -1.6313 -0.0939
  535MOL0     C72152   9.816   9.856   5.717  0.3200 -0.2786  0.0425
  535MOL0     C72153   9.668   9.879   5.712 -0.2242 -0.2744 -0.6017
  535MOL0     C72154   9.609   9.823   5.590  0.4484 -0.0381 -0.3952
  535MOL0     C72155   9.567   9.771   5.487  0.7274 -0.2036 -0.3526
  535MOL0     C72156  10.166   9.658   5.456 -0.1117 -0.4577  0.0632
  535MOL0     C72157  10.172   9.602   5.328 -0.2430 -0.3257 -0.4015
  535MOL0     H72158   9.892   9.728   4.826  0.4623  2.5184 -0.6928
  535MOL0     H72159   9.854   9.618   4.612  0.4884  3.6338 -0.2861
  535MOL0     H72160   9.861   9.597   4.362 -1.1023 -0.4129  1.6821
  535MOL0     H72161   9.957   9.480   4.263 -1.2419 -2.7776  0.2281
  535MOL0     H72162   9.945   9.312   4.458  0.5661  0.9882  1.2085
  535MOL0     H72163   9.808   9.413   4.513 -1.9210 -0.8154 -1.6239
  535MOL0     H72164   9.712   9.390   4.285 -1.3760 -0.3311 -0.3809
  535MOL0     H72165   9.828   9.263   4.240  0.9749 -0.7466  0.3554
  535MOL0     H72166   9.609   9.190   4.310 -1.0362 -0.1031  1.9590
  535MOL0     H72167   9.736   9.118   4.416 -0.0985 -0.9553 -2.2788
  535MOL0     H72168   9.507   9.177   4.513 -1.2740  1.5503  1.8583
  535MOL0     H72169   9.651   9.237   4.595 -0.2998 -1.0056  0.7206
  535MOL0     H72170   9.614   9.473   4.506 -0.8245  1.5184  1.2083
  535MOL0     H72171   9.491   9.410   4.392  1.0267  0.3490 -0.5045
  535MOL0     H72172   9.331   9.378   4.571 -2.1260  0.3951  3.1950
  535MOL0     H72173   9.444   9.386   4.698 -2.9201 -0.3226 -0.5930
  535MOL0     H72174   9.287   9.599   4.615 -0.0228  0.2405 -0.5326
  535MOL0     H72175   9.420   9.602   4.492  0.3926  1.7630  0.4457
  535MOL0     H72176   9.393   9.649   4.877 -3.2333 -0.4319 -3.0232
  535MOL0     H72177   9.514   9.879   5.002 -0.1200 -1.2069  0.9331
  535MOL0     H72178   9.610   9.744   5.040 -0.8274  0.5738  0.6889
  535MOL0     H72179   9.744   9.972   4.873  1.1958 -1.4758 -0.7677
  535MOL0     H72180   9.829   9.895   4.996 -0.4453  0.5631  2.7807
  535MOL0     H72181   9.619  10.100   5.074 -0.4392  0.4323  0.1935
  535MOL0     H72182   9.800  10.116   5.066 -0.6840  1.1905  1.7225
  535MOL0     H72183   9.818   9.952   5.238  0.3384 -0.6591  1.6163
  535MOL0     H72184   9.646   9.932   5.231  0.5553 -0.9267 -0.6319
  535MOL0     H72185   9.697  10.281   5.519  1.4071  0.3380  1.8230
  535MOL0     H72186   9.929  10.513   5.681 -1.2180  0.8638  1.1511
  535MOL0     H72187   9.802  10.571   5.570 -2.3733 -2.0400 -1.6571
  535MOL0     H72188   9.780  10.439   5.679 -0.7835  2.0733 -0.0656
  535MOL0     H72189  10.327  10.723   5.240  1.1473 -2.0768 -2.7920
  535MOL0     H72190  10.555  10.802   5.252 -0.4301  0.0438 -0.4725
  535MOL0     H72191  10.698  10.888   5.436 -0.3717 -1.3651  2.1219
  535MOL0     H72192  10.860  10.843   5.476 -0.0451  1.9538 -1.4375
  535MOL0     H72193  10.766  10.839   5.195 -1.2245  2.6317 -0.1646
  535MOL0     H72194  10.832  10.973   5.269  0.3347 -0.7267  0.6885
  535MOL0     H72195  11.021  10.846   5.137  0.9634 -1.3263 -0.0982
  535MOL0     H72196  10.953  10.710   5.183  0.0853  1.0136 -2.5518
  535MOL0     H72197  11.096  10.916   5.366 -3.3598  0.1502 -0.8777
  535MOL0     H72198  11.079  10.742   5.414  1.6828 -0.3185  0.0538
  535MOL0     H72199  11.249  10.851   5.184 -4.8690 -2.2098 -2.9207
  535MOL0     H72200  11.231  10.689   5.208  0.9785 -0.0514 -0.0266
  535MOL0     H72201  11.337  10.854   5.440  0.3391 -0.5548  0.9636
  535MOL0     H72202  11.355  10.690   5.416  1.7669 -0.6957 -1.3241
  535MOL0     H72203  11.490  10.907   5.244 -0.0970 -0.5900 -1.1796
  535MOL0     H72204  11.469  10.748   5.179  0.1016 -3.1503  0.7500
  535MOL0     H72205  11.605  10.653   5.372  2.4771  0.2296  1.7848
  535MOL0     H72206  11.632  10.818   5.432  2.8577 -1.6937  0.1893
  535MOL0     H72207  10.635  10.504   5.552 -0.0196 -0.6750  0.4810
  535MOL0     H72208  10.402  10.419   5.537  0.5836 -0.4864 -1.4148
  535MOL0     H72209  10.117  10.294   5.275 -1.1446 -0.0007 -2.8122
  535MOL0     H72210   9.949  10.122   5.221  0.7221  0.0897 -0.8800
  535MOL0     H72211  10.264   9.530   4.571  1.4842  1.8908  0.1550
  535MOL0     H72212  10.302   9.613   4.822  1.0326 -1.7879  0.6104
  535MOL0     H72213  10.069   9.885   5.154  0.3062  1.5608  1.4374
  535MOL0     H72214  10.069   9.980   5.364  3.1535  0.9349 -2.1250
  535MOL0     H72215  10.054   9.975   5.753  0.1918 -1.2758  0.6581
  535MOL0     H72216  10.093  10.036   5.587 -1.6028 -1.0545 -2.0984
  535MOL0     H72217   9.877   9.916   5.507 -0.9042  0.0090 -0.3669
  535MOL0     H72218   9.865  10.047   5.617  0.8332 -1.1970 -2.0593
  535MOL0     H72219   9.858   9.882   5.814 -1.9110  0.0468  0.9726
  535MOL0     H72220   9.836   9.748   5.716  0.6540 -0.2264 -1.5030
  535MOL0     H72221   9.634   9.983   5.717 -1.2262 -0.5915 -0.4323
  535MOL0     H72222   9.623   9.821   5.794  1.5738 -1.4163 -0.3746
  535MOL0     H72223   9.524   9.729   5.398 -0.7852 -1.1551  0.7694
  535MOL0     H72224  10.202   9.599   5.540 -0.6277  0.1555  0.7299
  535MOL0     H72225  10.211   9.503   5.312  3.4049  0.1365  3.7237
  536MOL0     O72226   3.484   6.898   9.288 -0.0572  0.0393  0.3324
  536MOL0     C72227   3.505   6.783   9.331 -0.9241 -0.7791  0.2953
  536MOL0     O72228   3.411   6.701   9.397 -0.5626 -0.4120 -0.4152
  536MOL0     C72229   3.290   6.757   9.412  0.3647  0.3110 -1.2707
  536MOL0     C72230   3.199   6.773   9.305  0.0227  0.3728 -0.2778
  536MOL0     C72231   3.070   6.829   9.329  0.0179 -0.3642  0.2777
  536MOL0     C72232   3.028   6.862   9.459  0.6097 -0.1224  0.8683
  536MOL0     O72233   2.914   6.933   9.483  0.1657  0.5226  0.5333
  536MOL0     C72234   2.806   6.831   9.493  0.0088  0.2781  0.7102
  536MOL0     C72235   2.775   6.804   9.638  0.0324 -0.1961  0.1436
  536MOL0     C72236   2.756   6.941   9.718  0.0824 -0.3947 -0.8009
  536MOL0     C72237   2.612   6.990   9.713  0.7849 -0.2467 -0.8549
  536MOL0     C72238   2.580   7.106   9.815  0.4243 -0.2874 -0.1651
  536MOL0     C72239   2.664   7.227   9.805  0.1914 -0.0408  0.0299
  536MOL0     C72240   2.676   7.280   9.657 -0.1456 -0.4611 -0.0436
  536MOL0     C72241   2.713   7.430   9.653  0.0122  0.1865  0.4005
  536MOL0     N72242   2.598   7.521   9.673  0.9618 -0.2401  0.0668
  536MOL0     C72243   2.584   7.588   9.790  0.5039 -0.2492  0.7440
  536MOL0     C72244   2.496   7.687   9.765  0.3745  0.1617 -0.6612
  536MOL0     C72245   2.426   7.761   9.872  0.6458 -0.2195 -0.3727
  536MOL0     C72246   2.272   7.719   9.878 -0.7244 -1.1293  0.0866
  536MOL0     C72247   2.188   7.784   9.767 -0.4055  1.1041  0.3722
  536MOL0     C72248   2.051   7.721   9.782 -0.1875 -0.1098 -0.3863
  536MOL0     O72249   1.972   7.787   9.882  1.1860 -0.1213  0.1563
  536MOL0     C72250   1.850   7.723   9.917 -0.2119  0.1241  0.2068
  536MOL0     C72251   1.831   7.649  10.037 -0.1250 -0.8174 -0.2186
  536MOL0     C72252   1.712   7.586  10.073  0.6921  0.1152 -0.0793
  536MOL0     C72253   1.699   7.501  10.197  0.4073  0.0271 -0.4220
  536MOL0     C72254   1.599   7.614   9.994 -0.4592  0.1449  0.8644
  536MOL0     C72255   1.459   7.562  10.017 -0.9007 -0.3308  0.0716
  536MOL0     O72256   1.358   7.646   9.988 -0.0648 -0.3484  0.4082
  536MOL0     C72257   1.226   7.613  10.018 -0.0861  0.1536  0.1776
  536MOL0     C72258   1.165   7.495   9.972 -0.1271  0.0721  0.1039
  536MOL0     C72259   1.032   7.466   9.989  0.6455  0.2423 -0.0101
  536MOL0     C72260   0.950   7.565  10.049  1.1261  0.3540  0.1611
  536MOL0     O72261   0.813   7.530  10.072 -0.2789  0.7744  0.2112
  536MOL0     C72262   0.713   7.627  10.085 -0.1755 -1.3044  0.0607
  536MOL0     C72263   0.572   7.575  10.057 -0.0524  0.2685 -0.3364
  536MOL0     C72264   0.459   7.684  10.080 -0.3925 -0.3357  0.5934
  536MOL0     C72265   0.323   7.615  10.039 -0.5087  0.0401  0.0001
  536MOL0     C72266   0.212   7.709  10.061 -0.1815  0.1011  0.1981
  536MOL0     C72267   0.072   7.654  10.026  0.3654 -1.4469  0.0798
  536MOL0     C72268   0.064   7.594   9.889 -0.2120 -0.0830 -0.3247
  536MOL0     C72269  -0.072   7.553   9.840  0.0185 -0.5779  1.7720
  536MOL0    Cl72270  -0.156   7.441   9.959  0.1214 -0.2127  0.1095
  536MOL0     C72271   1.007   7.675  10.105  0.3043 -1.1219  0.6351
  536MOL0     C72272   1.144   7.703  10.079  0.0005 -0.0643 -0.6602
  536MOL0     O72273   1.450   7.449  10.058 -0.4597 -0.4917 -0.0544
  536MOL0     C72274   1.611   7.688   9.871  0.0486  0.2835  0.0636
  536MOL0     C72275   1.738   7.741   9.837 -0.4182  0.6930 -0.7699
  536MOL0     N72276   2.475   7.692   9.628 -0.9543  0.4169  0.2164
  536MOL0     N72277   2.536   7.590   9.576  0.4073 -0.0189  0.3905
  536MOL0     C72278   3.116   6.839   9.559 -0.0610  0.6793 -0.4192
  536MOL0     C72279   3.242   6.783   9.535 -0.3197  0.1368  0.3166
  536MOL0     C72280   3.642   6.732   9.310 -0.2784  1.2959 -0.2673
  536MOL0     C72281   3.669   6.594   9.334  0.4656 -0.3421  0.2824
  536MOL0     C72282   3.800   6.545   9.313  0.0223  0.4892  0.8392
  536MOL0     C72283   3.904   6.633   9.279  0.4995 -0.0546 -0.2495
  536MOL0     O72284   4.028   6.585   9.261 -0.7655 -0.3994 -0.4247
  536MOL0     C72285   4.115   6.634   9.367  0.1001 -0.4194  0.6877
  536MOL0     C72286   4.244   6.547   9.356  0.3860 -0.4204 -0.2678
  536MOL0     C72287   4.312   6.568   9.216 -0.1736  0.0573  0.0398
  536MOL0     C72288   4.452   6.508   9.232 -0.2607 -0.4723  1.5613
  536MOL0     C72289   4.549   6.581   9.323  1.0060  0.0306  0.3926
  536MOL0     C72290   4.620   6.654   9.390  0.2936 -0.0218 -0.0483
  536MOL0     C72291   3.875   6.763   9.250  0.3245  0.0155  0.3526
  536MOL0     C72292   3.746   6.813   9.263 -0.3328  0.3559 -0.5902
  536MOL0     H72293   3.223   6.743   9.203 -2.1013  1.7628 -1.2390
  536MOL0     H72294   3.011   6.849   9.240  2.7842  2.5073 -1.1073
  536MOL0     H72295   2.715   6.876   9.453 -0.1034  0.0218  0.6757
  536MOL0     H72296   2.836   6.745   9.431 -2.4043  2.1372 -3.4374
  536MOL0     H72297   2.694   6.732   9.646  2.0748 -2.8005 -0.9106
  536MOL0     H72298   2.855   6.742   9.679 -1.2010 -3.2560 -1.7850
  536MOL0     H72299   2.783   6.928   9.823  0.7527  1.1734 -0.7490
  536MOL0     H72300   2.824   7.023   9.696 -0.8298  1.3547  2.3443
  536MOL0     H72301   2.592   7.025   9.611  1.6409 -0.2175 -1.0219
  536MOL0     H72302   2.540   6.912   9.740 -0.7607  1.2668 -0.4394
  536MOL0     H72303   2.476   7.137   9.799 -0.0671 -1.2594  0.9717
  536MOL0     H72304   2.591   7.065   9.915 -0.8952  0.7928  0.4632
  536MOL0     H72305   2.624   7.305   9.870  1.5506 -0.7442  1.8078
  536MOL0     H72306   2.759   7.197   9.852 -0.0631 -0.1675  0.4703
  536MOL0     H72307   2.761   7.231   9.608  0.5164 -0.3552  0.9716
  536MOL0     H72308   2.584   7.257   9.604  0.6969 -2.9716 -0.5829
  536MOL0     H72309   2.750   7.438   9.551 -0.5184 -2.0393 -0.0295
  536MOL0     H72310   2.799   7.452   9.717  0.9406 -2.4276  0.1649
  536MOL0     H72311   2.626   7.564   9.888  1.6297  1.2637  0.6704
  536MOL0     H72312   2.469   7.728   9.966  0.3273 -0.8704 -0.4505
  536MOL0     H72313   2.436   7.870   9.861 -1.2265 -0.2160 -3.2416
  536MOL0     H72314   2.231   7.746   9.976 -0.7644  0.8789 -0.4437
  536MOL0     H72315   2.277   7.611   9.863  1.0140 -1.8947  4.6605
  536MOL0     H72316   2.224   7.759   9.667  2.6901 -3.4871  2.2875
  536MOL0     H72317   2.183   7.891   9.789  1.4329  1.5375 -1.0970
  536MOL0     H72318   2.062   7.615   9.809 -0.1128  0.4157  1.8940
  536MOL0     H72319   1.995   7.719   9.688 -3.3860 -1.4994  1.3621
  536MOL0     H72320   1.918   7.646  10.103  1.3296 -3.2098 -2.0818
  536MOL0     H72321   1.673   7.397  10.175 -1.4242 -0.0818  1.8550
  536MOL0     H72322   1.781   7.508  10.269  0.2081 -2.1897  0.0943
  536MOL0     H72323   1.615   7.542  10.253  1.1041 -2.5506  2.8150
  536MOL0     H72324   1.231   7.430   9.915  3.4460  2.1186  1.5867
  536MOL0     H72325   0.997   7.373   9.943  0.9537  0.4383 -0.6529
  536MOL0     H72326   0.712   7.679  10.181  0.7602 -0.7048 -0.2323
  536MOL0     H72327   0.733   7.702  10.007 -0.0459 -0.8943  0.4845
  536MOL0     H72328   0.578   7.533   9.956  3.5964  0.5593 -0.3793
  536MOL0     H72329   0.545   7.492  10.123  2.5089 -2.3103 -2.2905
  536MOL0     H72330   0.470   7.775  10.020 -1.6876 -1.5774 -1.6491
  536MOL0     H72331   0.447   7.718  10.184 -1.7338  2.4519 -0.3612
  536MOL0     H72332   0.328   7.590   9.933 -2.2866  2.4936 -0.7435
  536MOL0     H72333   0.311   7.525  10.100 -3.2894  1.8149  2.3721
  536MOL0     H72334   0.240   7.794   9.997  1.0343 -1.7640 -1.8907
  536MOL0     H72335   0.218   7.738  10.166 -2.0135  2.5961 -0.2779
  536MOL0     H72336   0.062   7.563  10.087 -1.9849 -1.1220  0.2709
  536MOL0     H72337  -0.006   7.726  10.052 -0.5634 -2.1684 -0.5991
  536MOL0     H72338   0.133   7.509   9.897  0.4563  0.6178  1.8441
  536MOL0     H72339   0.108   7.670   9.823  0.7365 -1.1538 -0.9629
  536MOL0     H72340  -0.056   7.504   9.743 -1.3514 -1.2163  1.8524
  536MOL0     H72341  -0.135   7.639   9.816  0.4436  0.3608  3.8299
  536MOL0     H72342   0.930   7.739  10.148  1.2767 -0.1179  0.9542
  536MOL0     H72343   1.194   7.791  10.118  0.4366 -0.6936  0.2260
  536MOL0     H72344   1.522   7.714   9.814  0.4828 -1.0247 -1.2670
  536MOL0     H72345   1.755   7.805   9.751  0.8480 -1.8178 -2.5037
  536MOL0     H72346   3.081   6.869   9.657 -1.2215 -0.2961 -0.5195
  536MOL0     H72347   3.303   6.761   9.622  0.6469  0.3158 -0.3019
  536MOL0     H72348   3.593   6.525   9.368 -1.7450  1.8534  0.0955
  536MOL0     H72349   3.819   6.439   9.329 -1.1517  0.1319 -0.0000
  536MOL0     H72350   4.141   6.739   9.346 -0.4299  0.0006  1.9934
  536MOL0     H72351   4.062   6.634   9.463 -1.6299 -0.5861 -0.2390
  536MOL0     H72352   4.218   6.440   9.362 -0.1982 -0.3091 -0.6727
  536MOL0     H72353   4.317   6.574   9.433  0.0431  0.7932 -0.3532
  536MOL0     H72354   4.318   6.667   9.169 -1.7739 -0.1467 -0.6634
  536MOL0     H72355   4.254   6.503   9.150 -0.5352  3.0754 -2.8608
  536MOL0     H72356   4.498   6.492   9.134 -1.0329 -0.4876  1.1974
  536MOL0     H72357   4.443   6.405   9.270 -1.1558 -1.0386 -0.0831
  536MOL0     H72358   4.676   6.716   9.457 -1.4836  1.8775 -0.2266
  536MOL0     H72359   3.961   6.823   9.222  0.6766 -0.0504  1.2660
  536MOL0     H72360   3.735   6.917   9.235  0.3584  0.4686 -0.4473
  537MOL0     O72361   3.076   2.328   1.329  0.4875 -0.2859 -0.6056
  537MOL0     C72362   3.090   2.316   1.212 -0.2326  0.4520  0.0274
  537MOL0     O72363   2.993   2.292   1.119  0.2197 -0.3582 -0.2587
  537MOL0     C72364   2.859   2.297   1.151  0.3830  0.3874  0.0226
  537MOL0     C72365   2.781   2.195   1.104  0.0237 -0.0778  0.3235
  537MOL0     C72366   2.646   2.191   1.137  0.5895 -0.6557 -0.5816
  537MOL0     C72367   2.587   2.283   1.218  1.1608  0.5234 -0.5771
  537MOL0     O72368   2.458   2.270   1.263 -0.2117  0.3930  0.0361
  537MOL0     C72369   2.449   2.185   1.374  0.0216  0.0143  0.0052
  537MOL0     C72370   2.312   2.200   1.445  0.7875  0.5103  0.1213
  537MOL0     C72371   2.264   2.341   1.469 -0.8133 -0.4794 -0.0160
  537MOL0     C72372   2.166   2.339   1.593  0.0388 -0.5866  0.9551
  537MOL0     C72373   2.101   2.472   1.607  1.0111 -0.0791 -0.3558
  537MOL0     C72374   2.006   2.484   1.733  0.5248  0.5315  0.8542
  537MOL0     C72375   1.924   2.615   1.724  0.3223  0.1110 -0.8058
  537MOL0     C72376   1.848   2.632   1.858 -0.4239 -0.0596 -1.1839
  537MOL0     N72377   1.768   2.758   1.867  0.6414 -0.8868  0.4094
  537MOL0     C72378   1.669   2.798   1.774 -0.3259  0.3495 -1.1901
  537MOL0     C72379   1.618   2.921   1.817 -0.1461 -0.4427  0.0746
  537MOL0     C72380   1.518   3.007   1.746 -0.0214  0.7147 -0.1066
  537MOL0     C72381   1.378   2.953   1.753  0.1312 -0.0606  0.5389
  537MOL0     C72382   1.269   3.021   1.667 -0.4205 -1.2145 -0.1105
  537MOL0     C72383   1.133   2.942   1.676  0.1879  0.0283  0.2021
  537MOL0     O72384   1.074   2.953   1.803 -0.1879  0.2742 -0.2981
  537MOL0     C72385   0.943   2.931   1.817 -0.5455  0.0772 -0.0391
  537MOL0     C72386   0.893   2.967   1.944 -0.0770  0.7684  0.2518
  537MOL0     C72387   0.760   2.935   1.983  0.4737  0.1773  0.7141
  537MOL0     C72388   0.710   2.986   2.120 -0.1991 -0.6894 -0.0345
  537MOL0     C72389   0.676   2.860   1.894 -0.6956 -0.1759 -0.0195
  537MOL0     C72390   0.531   2.818   1.923  0.7274  0.5008 -0.5293
  537MOL0     O72391   0.462   2.883   2.017 -1.1182 -0.3205 -0.3559
  537MOL0     C72392   0.341   2.835   2.055 -0.1392  0.5218  0.1960
  537MOL0     C72393   0.305   2.703   2.085 -0.7933  0.9317 -0.4744
  537MOL0     C72394   0.174   2.667   2.117 -0.0175 -0.8713 -0.0116
  537MOL0     C72395   0.068   2.759   2.116 -0.5511 -0.7154  0.2550
  537MOL0     O72396  -0.065   2.735   2.139  0.3696 -0.5514 -0.3009
  537MOL0     C72397  -0.084   2.632   2.234  1.0641 -0.0046  0.2391
  537MOL0     C72398  -0.227   2.650   2.273 -0.0801  0.8799  0.0587
  537MOL0     C72399  -0.278   2.504   2.303  0.4176  0.1661 -0.7511
  537MOL0     C72400  -0.421   2.495   2.338 -0.2605 -0.3670 -0.0923
  537MOL0     C72401  -0.462   2.341   2.370  0.5548 -0.7709 -0.0192
  537MOL0     C72402  -0.418   2.300   2.501  0.8222 -0.8606 -1.0329
  537MOL0     C72403  -0.484   2.169   2.533 -0.5457  0.1092 -0.1516
  537MOL0     C72404  -0.468   2.133   2.682  0.0439 -0.1219  0.3918
  537MOL0    Cl72405  -0.531   1.965   2.698 -0.0556  0.0808 -0.0338
  537MOL0     C72406   0.108   2.895   2.094 -0.8607 -0.8585 -0.1966
  537MOL0     C72407   0.239   2.933   2.056  0.0866  0.3129 -0.1663
  537MOL0     O72408   0.486   2.726   1.853  0.7037 -0.1372 -0.2332
  537MOL0     C72409   0.733   2.828   1.771  0.1967  0.3578  0.1252
  537MOL0     C72410   0.865   2.866   1.727  0.4717  0.5029  0.2187
  537MOL0     N72411   1.681   2.949   1.937  0.1916 -0.2447 -0.0520
  537MOL0     N72412   1.763   2.859   1.960 -0.3528  0.4069 -0.1105
  537MOL0     C72413   2.666   2.378   1.265 -0.3529  0.0449 -0.1914
  537MOL0     C72414   2.804   2.389   1.242 -0.4040 -0.1121 -0.1119
  537MOL0     C72415   3.233   2.297   1.159 -0.5219  0.1600 -0.3879
  537MOL0     C72416   3.258   2.288   1.016  0.1820 -0.3941 -0.6030
  537MOL0     C72417   3.381   2.263   0.960  0.5195 -0.8765  0.4307
  537MOL0     C72418   3.488   2.248   1.055  0.7241 -0.0054 -0.0210
  537MOL0     O72419   3.616   2.235   1.017 -0.2180 -1.2658  0.5990
  537MOL0     C72420   3.655   2.279   0.888  0.4279 -0.4241  0.9573
  537MOL0     C72421   3.805   2.277   0.864  0.2832  0.9143 -0.0267
  537MOL0     C72422   3.860   2.132   0.871 -0.0861  0.3525 -0.1754
  537MOL0     C72423   4.017   2.127   0.859  0.6306  0.3013 -0.1200
  537MOL0     C72424   4.057   1.983   0.859 -0.2595 -0.9391  0.1565
  537MOL0     C72425   4.106   1.870   0.873 -0.2770  0.8509 -0.4049
  537MOL0     C72426   3.459   2.259   1.195  0.3300 -0.3736  0.5312
  537MOL0     C72427   3.334   2.277   1.249 -0.2145  0.2822 -0.3189
  537MOL0     H72428   2.831   2.121   1.041 -1.0804  1.1305 -2.1139
  537MOL0     H72429   2.598   2.102   1.099  2.0818 -1.3537 -0.8894
  537MOL0     H72430   2.479   2.084   1.346  2.5603  1.2985 -2.3516
  537MOL0     H72431   2.531   2.210   1.443  0.6319  4.4597 -1.9881
  537MOL0     H72432   2.234   2.148   1.388 -1.2965  0.9126  2.4159
  537MOL0     H72433   2.335   2.144   1.536  2.8930  0.0201 -0.6684
  537MOL0     H72434   2.353   2.399   1.496 -1.4140  1.9739 -2.8098
  537MOL0     H72435   2.230   2.386   1.375  0.9433 -0.0931 -0.5113
  537MOL0     H72436   2.091   2.263   1.570 -1.2006  0.6256  0.8317
  537MOL0     H72437   2.219   2.297   1.679  2.2375 -2.2331 -1.0533
  537MOL0     H72438   2.173   2.553   1.596  0.1547  0.5387 -1.7471
  537MOL0     H72439   2.040   2.478   1.516 -0.6390  0.7034  0.7572
  537MOL0     H72440   1.941   2.397   1.742  0.2881  0.6561  0.3913
  537MOL0     H72441   2.074   2.486   1.819 -0.0863 -1.2997  1.4165
  537MOL0     H72442   1.986   2.702   1.701  4.6063 -1.8094  2.3444
  537MOL0     H72443   1.847   2.603   1.647 -0.8278  1.4780  0.0717
  537MOL0     H72444   1.915   2.624   1.944 -2.1185  1.2647  0.3356
  537MOL0     H72445   1.778   2.548   1.865 -0.0480 -0.7402 -4.2436
  537MOL0     H72446   1.634   2.744   1.686 -1.5378  0.2016 -0.6452
  537MOL0     H72447   1.515   3.105   1.795 -1.7981 -1.0967  3.8375
  537MOL0     H72448   1.546   3.025   1.642  1.8207 -1.3673 -0.0343
  537MOL0     H72449   1.348   2.961   1.858  0.7849  1.6790  0.6336
  537MOL0     H72450   1.373   2.849   1.720 -2.4580  0.5177 -1.2156
  537MOL0     H72451   1.304   3.019   1.563 -0.0947  1.1382 -0.1120
  537MOL0     H72452   1.259   3.123   1.706 -0.8834 -0.9949 -0.8025
  537MOL0     H72453   1.153   2.841   1.639 -2.4424 -0.5482  0.1225
  537MOL0     H72454   1.061   2.979   1.602 -0.8188 -0.1963  1.0297
  537MOL0     H72455   0.957   3.025   2.010 -1.2091  2.2172  0.1350
  537MOL0     H72456   0.791   3.030   2.180 -2.1251  1.0829  1.4197
  537MOL0     H72457   0.647   3.071   2.093  1.6897  1.9969  3.1954
  537MOL0     H72458   0.654   2.904   2.166 -0.7726 -0.7276 -0.7833
  537MOL0     H72459   0.381   2.625   2.087  0.5663  2.2173 -0.1366
  537MOL0     H72460   0.148   2.564   2.139  0.0416 -0.4578  2.2661
  537MOL0     H72461  -0.085   2.541   2.173 -0.6490 -0.7138  1.2566
  537MOL0     H72462  -0.013   2.636   2.316  2.1517  0.6981 -0.7001
  537MOL0     H72463  -0.241   2.724   2.352 -0.5346  2.9136 -1.8370
  537MOL0     H72464  -0.289   2.682   2.188  0.4634  0.3662 -0.5465
  537MOL0     H72465  -0.220   2.476   2.392 -2.0531 -1.0856  0.5591
  537MOL0     H72466  -0.255   2.430   2.225  4.6380 -0.2855  0.6442
  537MOL0     H72467  -0.444   2.550   2.429 -1.4383 -4.2672  2.1865
  537MOL0     H72468  -0.479   2.519   2.248 -0.8610  0.9150  0.6086
  537MOL0     H72469  -0.413   2.274   2.299  3.2284  1.9957 -1.0261
  537MOL0     H72470  -0.571   2.339   2.362  0.2359  1.3077  2.4276
  537MOL0     H72471  -0.312   2.275   2.502  0.9523 -0.3289 -0.2809
  537MOL0     H72472  -0.447   2.374   2.577 -1.0823 -0.6344 -1.9188
  537MOL0     H72473  -0.431   2.093   2.474 -0.2677  0.7552 -0.7497
  537MOL0     H72474  -0.591   2.164   2.510 -0.4969 -1.9339 -0.1677
  537MOL0     H72475  -0.522   2.210   2.737  0.7461  2.3178 -2.0495
  537MOL0     H72476  -0.360   2.136   2.699  0.0452 -1.3657  0.7343
  537MOL0     H72477   0.037   2.977   2.099 -0.8790 -0.8636 -0.3535
  537MOL0     H72478   0.270   3.037   2.046 -1.3238  1.0429  2.3645
  537MOL0     H72479   0.662   2.788   1.699 -0.2955  2.8492 -0.8919
  537MOL0     H72480   0.895   2.831   1.628 -2.3901 -0.6980 -0.3104
  537MOL0     H72481   2.620   2.451   1.331  2.2882  2.8569 -1.2382
  537MOL0     H72482   2.862   2.470   1.286 -0.9339 -0.6271  1.6161
  537MOL0     H72483   3.181   2.296   0.941 -0.6417 -2.7444 -0.0990
  537MOL0     H72484   3.380   2.247   0.853 -0.7746  3.2764 -0.3566
  537MOL0     H72485   3.609   2.221   0.808  2.8818  5.4065 -5.6697
  537MOL0     H72486   3.627   2.383   0.873  1.8974 -0.2899 -1.3820
  537MOL0     H72487   3.865   2.326   0.941 -1.4069  1.3623  1.0337
  537MOL0     H72488   3.822   2.312   0.762 -0.6026  0.2674 -0.4138
  537MOL0     H72489   3.809   2.065   0.801  1.4168  0.0452 -1.0272
  537MOL0     H72490   3.844   2.084   0.968  1.7176 -2.4789 -1.1333
  537MOL0     H72491   4.065   2.179   0.942 -1.7593  2.0268  0.2675
  537MOL0     H72492   4.041   2.183   0.768  0.2307  1.0532  0.2354
  537MOL0     H72493   4.138   1.767   0.879  5.1920  2.3459  2.0965
  537MOL0     H72494   3.551   2.260   1.252  2.0336 -0.3105 -2.0307
  537MOL0     H72495   3.312   2.267   1.355 -1.7330  0.9979 -0.5274
  538MOL0     O72496   6.633   6.346   1.576  0.6667  0.0162  0.4334
  538MOL0     C72497   6.684   6.254   1.515 -0.0865  0.1182 -0.0982
  538MOL0     O72498   6.632   6.198   1.405  0.2685  0.0630  0.4752
  538MOL0     C72499   6.524   6.258   1.341  0.0050  0.1736  0.0737
  538MOL0     C72500   6.530   6.317   1.215 -0.4342 -0.5018  0.8256
  538MOL0     C72501   6.409   6.361   1.149 -0.5567 -0.2038 -0.5769
  538MOL0     C72502   6.286   6.353   1.213  0.3062  0.3546  0.8095
  538MOL0     O72503   6.170   6.376   1.147  0.1925  0.3127  0.8626
  538MOL0     C72504   6.053   6.404   1.229  0.0401 -0.1472 -0.0792
  538MOL0     C72505   5.935   6.442   1.140 -0.6435 -0.3191  0.2388
  538MOL0     C72506   5.800   6.473   1.205  1.0800  0.1937  0.3242
  538MOL0     C72507   5.796   6.588   1.311  0.2708  0.4060  0.7162
  538MOL0     C72508   5.649   6.621   1.328  0.1819 -0.2309  0.1589
  538MOL0     C72509   5.628   6.702   1.451  0.8370 -0.8872  0.2654
  538MOL0     C72510   5.477   6.758   1.453  0.0392 -0.3617  0.1807
  538MOL0     C72511   5.456   6.828   1.595  0.1792 -0.4596  0.3073
  538MOL0     N72512   5.310   6.837   1.610  0.8589 -0.7820  0.3290
  538MOL0     C72513   5.225   6.736   1.635  0.0188 -0.5443  0.2783
  538MOL0     C72514   5.100   6.783   1.630  0.1568 -0.2558 -0.0205
  538MOL0     C72515   4.966   6.708   1.649  0.1299 -0.3191 -0.0386
  538MOL0     C72516   4.884   6.673   1.525  0.1540  0.1065 -0.7662
  538MOL0     C72517   4.741   6.608   1.555  0.6050  0.1682  0.4273
  538MOL0     C72518   4.667   6.591   1.425  0.6130  0.2140  0.3886
  538MOL0     O72519   4.559   6.508   1.462 -0.0880  0.1942 -0.0600
  538MOL0     C72520   4.461   6.482   1.368 -0.0277  0.7767  0.6486
  538MOL0     C72521   4.401   6.352   1.365  0.0047  0.1046  0.1187
  538MOL0     C72522   4.308   6.314   1.269 -0.3918  0.5048 -0.7045
  538MOL0     C72523   4.261   6.167   1.280 -0.2015 -0.2725 -0.2084
  538MOL0     C72524   4.258   6.406   1.180  0.5535 -0.1033 -0.0057
  538MOL0     C72525   4.156   6.372   1.085 -0.4657  0.1863  0.3018
  538MOL0     O72526   4.174   6.432   0.957 -0.0423  0.1073  0.3845
  538MOL0     C72527   4.060   6.462   0.878 -0.0629 -0.4964 -0.0974
  538MOL0     C72528   3.957   6.367   0.850  0.1458 -0.0422 -0.8346
  538MOL0     C72529   3.845   6.401   0.763 -0.2382  0.5664 -0.6709
  538MOL0     C72530   3.851   6.524   0.696 -0.2155  0.6500  0.2431
  538MOL0     O72531   3.731   6.553   0.632 -0.9321  0.2909  0.7536
  538MOL0     C72532   3.720   6.687   0.576  0.5538 -0.4969  0.1251
  538MOL0     C72533   3.614   6.684   0.471  0.7822  0.1038  0.0806
  538MOL0     C72534   3.615   6.817   0.380 -0.1144  0.4688  0.0715
  538MOL0     C72535   3.502   6.797   0.280  0.0888  0.1676 -0.7183
  538MOL0     C72536   3.473   6.918   0.207 -0.2232 -0.1149  0.0311
  538MOL0     C72537   3.360   6.892   0.103 -1.0896 -0.0023 -1.0941
  538MOL0     C72538   3.327   7.008   0.012 -0.8596 -0.5245 -0.4005
  538MOL0     C72539   3.229   6.957  -0.084 -0.0036  0.1115  0.0943
  538MOL0    Cl72540   3.202   7.075  -0.214 -0.5557  0.4457 -0.2545
  538MOL0     C72541   3.952   6.613   0.729  0.4677 -0.3097 -0.2649
  538MOL0     C72542   4.048   6.586   0.820  0.4298  0.4036 -0.0431
  538MOL0     O72543   4.065   6.298   1.124 -0.0246 -0.0387  0.2863
  538MOL0     C72544   4.306   6.543   1.191 -0.4036 -0.1446  0.0627
  538MOL0     C72545   4.416   6.576   1.272 -0.0794  0.1986 -0.6793
  538MOL0     N72546   5.111   6.914   1.597 -0.2129  0.9049  0.2410
  538MOL0     N72547   5.241   6.952   1.589 -0.4296  1.1508  0.0539
  538MOL0     C72548   6.286   6.306   1.336 -0.3988  0.4583 -0.6758
  538MOL0     C72549   6.398   6.252   1.397  0.3115 -0.0199 -0.0545
  538MOL0     C72550   6.814   6.192   1.560 -0.9413  0.3359 -0.1208
  538MOL0     C72551   6.873   6.236   1.681  0.5109 -0.0259 -0.0676
  538MOL0     C72552   6.991   6.177   1.729  0.3448 -0.5526  0.5561
  538MOL0     C72553   7.063   6.081   1.649 -0.2872 -0.9765  0.3764
  538MOL0     O72554   7.163   6.019   1.707 -0.3322  0.3174  0.2673
  538MOL0     C72555   7.284   5.999   1.639 -0.1410  0.0065 -0.0723
  538MOL0     C72556   7.354   5.869   1.699  0.0303 -0.9791 -0.6438
  538MOL0     C72557   7.498   5.849   1.648 -0.2825  0.3640  0.0017
  538MOL0     C72558   7.591   5.968   1.692  0.5425  0.3230  0.6336
  538MOL0     C72559   7.718   5.950   1.629 -1.4152 -0.5745  0.0083
  538MOL0     C72560   7.827   5.935   1.583 -0.7735  0.4533 -0.4434
  538MOL0     C72561   7.013   6.040   1.526 -0.0186 -0.0452  0.2540
  538MOL0     C72562   6.892   6.097   1.481  0.1722  0.0788  0.9121
  538MOL0     H72563   6.628   6.309   1.169 -1.7462 -4.7284 -1.8449
  538MOL0     H72564   6.418   6.406   1.051  1.1498  3.3343  1.0160
  538MOL0     H72565   6.014   6.315   1.280 -0.4579  0.9456  1.5502
  538MOL0     H72566   6.076   6.480   1.305 -0.3538 -1.9505  1.9584
  538MOL0     H72567   5.971   6.530   1.088 -0.7383  0.0115  0.7285
  538MOL0     H72568   5.905   6.359   1.075 -3.5296 -0.4128  1.5311
  538MOL0     H72569   5.733   6.487   1.120  0.4695 -1.9572  0.4023
  538MOL0     H72570   5.767   6.385   1.260  0.4688  2.2318  3.4333
  538MOL0     H72571   5.843   6.551   1.403  2.3748  2.0103  0.3719
  538MOL0     H72572   5.860   6.670   1.276 -0.1227  0.7618  0.8243
  538MOL0     H72573   5.619   6.681   1.241 -1.8136  1.6748  2.0247
  538MOL0     H72574   5.590   6.529   1.339 -0.0893  0.0560  1.2362
  538MOL0     H72575   5.657   6.641   1.537  1.4646 -2.1500 -0.7962
  538MOL0     H72576   5.692   6.791   1.445  3.8142 -2.9150 -0.5305
  538MOL0     H72577   5.461   6.816   1.361  2.9665  0.1074 -0.1233
  538MOL0     H72578   5.405   6.676   1.450 -0.8292  0.3409  1.0485
  538MOL0     H72579   5.496   6.930   1.590  0.5272 -0.6605 -3.4807
  538MOL0     H72580   5.508   6.783   1.680 -1.1642 -0.7278  1.0183
  538MOL0     H72581   5.270   6.639   1.651  2.7019  0.5491 -0.1523
  538MOL0     H72582   4.996   6.610   1.689  2.9818 -0.9909 -3.3331
  538MOL0     H72583   4.913   6.772   1.720  2.1444 -0.4521  1.6931
  538MOL0     H72584   4.946   6.610   1.460 -1.0534 -0.4393 -1.4452
  538MOL0     H72585   4.863   6.768   1.474 -1.2376  0.5416  0.5345
  538MOL0     H72586   4.682   6.660   1.631  1.3313 -0.2488  1.2982
  538MOL0     H72587   4.768   6.512   1.599  0.7142 -0.7581 -1.5892
  538MOL0     H72588   4.722   6.531   1.351 -1.2769 -0.4988 -0.5087
  538MOL0     H72589   4.648   6.692   1.387  1.5753  0.5331  0.7145
  538MOL0     H72590   4.431   6.283   1.443 -1.9195 -1.3829 -0.3796
  538MOL0     H72591   4.263   6.124   1.179  0.2298  1.1489 -0.8222
  538MOL0     H72592   4.324   6.108   1.348  1.1140  3.6133  2.2537
  538MOL0     H72593   4.163   6.179   1.328 -0.4105 -1.0512 -0.4147
  538MOL0     H72594   3.949   6.272   0.901  1.4498 -1.1108 -2.5208
  538MOL0     H72595   3.757   6.338   0.748 -0.6882  1.4622 -1.9638
  538MOL0     H72596   3.700   6.766   0.649 -1.2829  0.8774 -1.7567
  538MOL0     H72597   3.810   6.709   0.519  0.0484 -2.2179 -1.4646
  538MOL0     H72598   3.619   6.603   0.397 -0.6585 -1.5069  1.6370
  538MOL0     H72599   3.519   6.680   0.524 -0.0585  0.3040 -1.3706
  538MOL0     H72600   3.705   6.842   0.323 -1.1209  1.4178 -1.1451
  538MOL0     H72601   3.597   6.905   0.442 -2.0608  1.0661 -1.2539
  538MOL0     H72602   3.529   6.711   0.218  0.3772 -0.5982  0.4324
  538MOL0     H72603   3.413   6.774   0.340 -0.3470  1.7234 -0.7385
  538MOL0     H72604   3.557   6.946   0.142 -1.5503  0.2291 -1.5994
  538MOL0     H72605   3.442   7.000   0.272 -1.4784  0.5986 -1.4218
  538MOL0     H72606   3.391   6.810   0.038 -0.5375 -0.4622 -0.2669
  538MOL0     H72607   3.270   6.880   0.163  0.0125  1.4677  0.9673
  538MOL0     H72608   3.422   7.029  -0.038 -0.6445 -0.2458  0.1210
  538MOL0     H72609   3.295   7.101   0.061  1.3246  1.6150 -2.7380
  538MOL0     H72610   3.136   6.935  -0.031 -0.8119 -1.2646 -1.8200
  538MOL0     H72611   3.262   6.862  -0.127 -1.3266 -0.2028 -0.2485
  538MOL0     H72612   3.966   6.711   0.683  1.9495 -0.9040 -1.1728
  538MOL0     H72613   4.129   6.655   0.841  1.1598 -0.1562 -0.9354
  538MOL0     H72614   4.258   6.614   1.125 -2.1790 -1.2681  0.0961
  538MOL0     H72615   4.456   6.675   1.258  0.0806  0.3138  0.4925
  538MOL0     H72616   6.195   6.302   1.396  0.8017 -0.0880  1.2023
  538MOL0     H72617   6.383   6.215   1.498  1.0210  3.2918  1.4082
  538MOL0     H72618   6.825   6.312   1.742  1.9108  0.1164  0.9015
  538MOL0     H72619   7.042   6.197   1.823 -1.1667  0.8270  1.1296
  538MOL0     H72620   7.283   5.993   1.530  4.3527  1.7562 -0.4321
  538MOL0     H72621   7.353   6.082   1.658  0.0810  0.3885 -2.2763
  538MOL0     H72622   7.304   5.778   1.663  0.0690  0.0435 -3.5903
  538MOL0     H72623   7.347   5.872   1.808  3.2995  5.4392 -0.1589
  538MOL0     H72624   7.498   5.829   1.541  1.7358 -0.4627  0.1080
  538MOL0     H72625   7.550   5.763   1.692  0.5277  1.6080  1.6039
  538MOL0     H72626   7.601   5.979   1.800 -2.0642  1.2566  0.8456
  538MOL0     H72627   7.552   6.064   1.655  0.0114 -0.0603  0.1857
  538MOL0     H72628   7.924   5.915   1.544 -0.1356  1.2934  0.6274
  538MOL0     H72629   7.067   5.968   1.466  0.9694  0.4934  0.4736
  538MOL0     H72630   6.843   6.078   1.386  1.8741 -0.0121  0.0199
  539MOL0     O72631   0.729   1.011   5.828  1.2354  0.3030 -0.1586
  539MOL0     C72632   0.841   1.043   5.872 -0.0621  0.0044 -0.2381
  539MOL0     O72633   0.867   1.078   6.006  1.1479  0.2065  1.0259
  539MOL0     C72634   0.763   1.088   6.098  0.3506 -0.1521  0.0344
  539MOL0     C72635   0.753   0.989   6.190 -0.7742  0.7293  0.1530
  539MOL0     C72636   0.640   0.980   6.273 -0.6228 -0.4964  0.3629
  539MOL0     C72637   0.546   1.077   6.265  0.6591  0.1366 -0.0775
  539MOL0     O72638   0.435   1.072   6.340  0.1709  0.6799 -0.1470
  539MOL0     C72639   0.361   0.952   6.340 -0.1637 -0.6103  0.0923
  539MOL0     C72640   0.218   0.974   6.383  0.3781  0.7849 -0.1972
  539MOL0     C72641   0.129   0.856   6.358  0.3095  0.7810  0.3163
  539MOL0     C72642  -0.018   0.897   6.333  0.5316  0.1597  0.1482
  539MOL0     C72643  -0.112   0.787   6.383  0.0744 -0.0739 -0.3847
  539MOL0     C72644  -0.252   0.840   6.388  0.3921 -0.1065  0.6931
  539MOL0     C72645  -0.354   0.746   6.444  0.3521 -0.2413 -0.1192
  539MOL0     C72646  -0.486   0.817   6.454  0.3493 -0.1732 -0.7566
  539MOL0     N72647  -0.589   0.752   6.540  0.1709 -0.8083  0.5350
  539MOL0     C72648  -0.617   0.618   6.546 -0.5988  0.1583 -0.2349
  539MOL0     C72649  -0.683   0.591   6.659 -0.3984  0.3637 -0.4283
  539MOL0     C72650  -0.722   0.456   6.703  0.7253  0.1779 -0.2905
  539MOL0     C72651  -0.805   0.377   6.596 -0.4075 -0.2640 -0.0392
  539MOL0     C72652  -0.910   0.268   6.634  0.6200  0.0314 -0.0595
  539MOL0     C72653  -1.022   0.333   6.719 -0.5025 -0.1889  0.6766
  539MOL0     O72654  -1.122   0.233   6.751 -0.4893 -0.4103 -0.0603
  539MOL0     C72655  -1.243   0.231   6.687 -1.2912 -0.1648  0.5158
  539MOL0     C72656  -1.342   0.153   6.741 -0.2059 -0.0476 -0.1508
  539MOL0     C72657  -1.472   0.147   6.688  0.3636 -0.3419 -0.0277
  539MOL0     C72658  -1.563   0.052   6.758  0.1931 -0.5141  0.1034
  539MOL0     C72659  -1.501   0.234   6.577  0.1410  0.6333 -0.5540
  539MOL0     C72660  -1.633   0.225   6.497 -1.2448  1.6918  0.4927
  539MOL0     O72661  -1.639   0.294   6.367  0.5280  0.7347  0.0323
  539MOL0     C72662  -1.763   0.280   6.303 -0.3831 -0.1262  0.4727
  539MOL0     C72663  -1.879   0.339   6.360 -0.1357 -0.1590 -0.3988
  539MOL0     C72664  -2.001   0.347   6.287  0.2177 -0.4449  0.4248
  539MOL0     C72665  -1.999   0.289   6.156  0.4141  0.1640 -0.4589
  539MOL0     O72666  -2.104   0.300   6.072  0.0613  0.3164 -0.3102
  539MOL0     C72667  -2.233   0.350   6.115  0.2690  0.3345  0.2332
  539MOL0     C72668  -2.345   0.341   6.007  0.4542  0.5810 -0.7786
  539MOL0     C72669  -2.395   0.193   5.986  0.6570  0.1563 -1.0097
  539MOL0     C72670  -2.410   0.146   5.842 -0.2196  0.4203 -0.2909
  539MOL0     C72671  -2.532   0.215   5.774 -0.3616  1.0079 -0.1067
  539MOL0     C72672  -2.555   0.162   5.634  0.1964 -0.2152  0.7011
  539MOL0     C72673  -2.692   0.200   5.576  0.4894  0.4415  0.2409
  539MOL0     C72674  -2.731   0.129   5.450  0.3854 -0.3063  0.7398
  539MOL0    Cl72675  -2.767  -0.041   5.478 -0.1317  0.0338 -0.1136
  539MOL0     C72676  -1.889   0.230   6.103 -0.1838  0.1158 -0.1727
  539MOL0     C72677  -1.767   0.221   6.171 -1.0796 -0.0829 -0.7411
  539MOL0     O72678  -1.725   0.166   6.553 -0.3105 -0.4433 -0.1476
  539MOL0     C72679  -1.399   0.316   6.528 -0.6564  0.3133 -0.0940
  539MOL0     C72680  -1.271   0.322   6.581  0.1286 -0.1280 -0.9591
  539MOL0     N72681  -0.699   0.707   6.728 -0.5898 -0.2251  0.6609
  539MOL0     N72682  -0.625   0.797   6.665  0.7314 -0.6948 -0.7507
  539MOL0     C72683   0.554   1.180   6.169  0.0550 -0.4333 -0.0853
  539MOL0     C72684   0.663   1.180   6.081  0.3831 -1.0036 -0.7534
  539MOL0     C72685   0.959   1.026   5.781  0.3803 -0.5946 -0.3882
  539MOL0     C72686   0.951   0.986   5.646  0.3511 -0.6296 -0.1590
  539MOL0     C72687   1.064   0.975   5.561  0.0501 -0.2378 -0.3524
  539MOL0     C72688   1.188   1.009   5.620 -0.2563  0.8938 -0.6334
  539MOL0     O72689   1.302   0.988   5.541  0.1281 -0.2240  0.1738
  539MOL0     C72690   1.432   1.000   5.606 -0.4929  0.5612  0.4043
  539MOL0     C72691   1.530   1.028   5.492 -0.0043  0.7731 -0.3155
  539MOL0     C72692   1.600   1.161   5.497  0.9332 -0.9823 -0.2066
  539MOL0     C72693   1.727   1.163   5.412 -0.5640 -0.4354 -0.5137
  539MOL0     C72694   1.817   1.047   5.427 -0.0887 -0.2905 -0.4690
  539MOL0     C72695   1.887   0.954   5.434 -0.7036  0.1359  0.8248
  539MOL0     C72696   1.197   1.054   5.751  0.6234 -0.1937 -0.6484
  539MOL0     C72697   1.081   1.061   5.834 -0.9747  0.7379 -0.0108
  539MOL0     H72698   0.838   0.921   6.190 -0.1533  1.4894 -0.0370
  539MOL0     H72699   0.641   0.895   6.340  2.0019 -2.2790 -1.7247
  539MOL0     H72700   0.355   0.915   6.237 -2.0795  0.0287 -0.0684
  539MOL0     H72701   0.407   0.871   6.398 -0.0306 -1.1167 -0.6901
  539MOL0     H72702   0.214   0.999   6.490 -0.8335 -1.0506  0.2410
  539MOL0     H72703   0.181   1.063   6.332 -1.2809  0.7230  0.8331
  539MOL0     H72704   0.175   0.789   6.285 -2.2229 -1.4452  0.6215
  539MOL0     H72705   0.124   0.794   6.448 -3.2250 -1.2953 -1.1018
  539MOL0     H72706  -0.049   0.994   6.372 -2.9999 -1.2776  1.3111
  539MOL0     H72707  -0.036   0.905   6.225  0.2907  0.5893  0.2162
  539MOL0     H72708  -0.091   0.695   6.327  0.2920  0.1484 -0.6701
  539MOL0     H72709  -0.086   0.771   6.488 -2.0810 -0.7912  0.0994
  539MOL0     H72710  -0.253   0.930   6.450 -1.7744  0.4836 -0.1097
  539MOL0     H72711  -0.289   0.865   6.288 -0.5158 -0.8995  0.8177
  539MOL0     H72712  -0.370   0.650   6.395  1.9663 -0.0769 -1.0401
  539MOL0     H72713  -0.324   0.725   6.547 -1.2613  1.7708  0.8520
  539MOL0     H72714  -0.522   0.830   6.352 -1.4153  1.0348 -0.0223
  539MOL0     H72715  -0.468   0.913   6.502  3.6753 -2.0587  2.3254
  539MOL0     H72716  -0.594   0.546   6.469  2.0915  0.6602  0.0102
  539MOL0     H72717  -0.633   0.395   6.722 -0.6920 -1.6782  0.6374
  539MOL0     H72718  -0.781   0.468   6.794 -0.6620  2.1254 -1.3591
  539MOL0     H72719  -0.735   0.329   6.527 -1.1757 -0.2411 -0.8507
  539MOL0     H72720  -0.854   0.451   6.532  1.0201  0.3499 -0.4708
  539MOL0     H72721  -0.857   0.187   6.685 -2.1728 -0.4216  2.3918
  539MOL0     H72722  -0.958   0.246   6.537  2.8611  2.4725 -1.8714
  539MOL0     H72723  -1.058   0.433   6.694  0.0993  1.1879  4.7071
  539MOL0     H72724  -0.981   0.356   6.818  3.4094  1.8483 -1.1785
  539MOL0     H72725  -1.309   0.094   6.826  3.9214  2.3754  0.2319
  539MOL0     H72726  -1.509   0.010   6.844 -1.8732  0.8969  2.2211
  539MOL0     H72727  -1.652   0.108   6.788  1.1582  1.2265 -0.1697
  539MOL0     H72728  -1.610  -0.023   6.694  0.5690 -1.4626  0.9087
  539MOL0     H72729  -1.874   0.377   6.461 -0.8539  0.1488 -0.4676
  539MOL0     H72730  -2.086   0.393   6.337 -0.9031 -1.6226 -0.3370
  539MOL0     H72731  -2.262   0.293   6.204 -1.0913 -1.5043 -1.3075
  539MOL0     H72732  -2.223   0.458   6.129  1.6800  0.5197 -1.7805
  539MOL0     H72733  -2.433   0.395   6.044  1.8899  1.6032  1.3562
  539MOL0     H72734  -2.305   0.383   5.914  0.0305 -2.9518 -2.7155
  539MOL0     H72735  -2.496   0.201   6.027  1.0228  2.0426 -0.4199
  539MOL0     H72736  -2.330   0.121   6.037  1.0008  0.3881 -1.1197
  539MOL0     H72737  -2.319   0.161   5.784 -1.4408 -1.6588 -2.9332
  539MOL0     H72738  -2.422   0.038   5.830 -0.4395  0.4696 -0.5445
  539MOL0     H72739  -2.516   0.323   5.773 -0.7778  1.0767 -1.3527
  539MOL0     H72740  -2.620   0.199   5.838 -1.1246  2.3884 -0.7595
  539MOL0     H72741  -2.474   0.202   5.572 -1.2603  0.9233 -0.5678
  539MOL0     H72742  -2.535   0.055   5.635  0.1532 -0.2321  0.2901
  539MOL0     H72743  -2.700   0.309   5.569 -0.5088  0.3317 -0.6942
  539MOL0     H72744  -2.768   0.164   5.646 -0.2526  1.6846  0.0821
  539MOL0     H72745  -2.657   0.149   5.372  0.4486  0.4252  0.9849
  539MOL0     H72746  -2.826   0.167   5.412  1.3093  0.5333 -0.8241
  539MOL0     H72747  -1.891   0.189   6.003  1.6558  0.7034 -0.4809
  539MOL0     H72748  -1.682   0.179   6.117 -2.0656 -1.8718 -0.9979
  539MOL0     H72749  -1.402   0.379   6.440  3.5513 -0.9142 -1.3639
  539MOL0     H72750  -1.192   0.386   6.542 -0.1252  0.2920 -0.7837
  539MOL0     H72751   0.482   1.260   6.156 -0.3159 -0.8139 -0.3688
  539MOL0     H72752   0.682   1.260   6.010 -0.0344 -0.5841 -0.3988
  539MOL0     H72753   0.856   0.966   5.598  0.9563 -2.5556 -0.6249
  539MOL0     H72754   1.063   0.953   5.455 -0.5609 -1.8280 -0.0465
  539MOL0     H72755   1.442   1.076   5.684 -1.2085 -0.4267  1.4970
  539MOL0     H72756   1.454   0.911   5.665  0.3932  1.4805  1.5126
  539MOL0     H72757   1.481   1.022   5.394 -1.1296 -0.5534  0.2928
  539MOL0     H72758   1.590   0.936   5.497 -1.9684 -0.6728 -1.6500
  539MOL0     H72759   1.616   1.183   5.602  0.4012 -0.1159 -0.2987
  539MOL0     H72760   1.537   1.244   5.462  0.1632 -0.1875  2.8338
  539MOL0     H72761   1.784   1.256   5.421  1.0724 -1.2531 -1.8999
  539MOL0     H72762   1.698   1.174   5.307 -0.7145  0.3083 -0.4012
  539MOL0     H72763   1.947   0.866   5.424  2.2088  2.0751 -0.2635
  539MOL0     H72764   1.291   1.087   5.794  1.1529  0.7141 -2.4041
  539MOL0     H72765   1.096   1.099   5.935  0.8960 -1.1531  0.4964
  540MOL0     O72766   3.262   4.872   3.920  0.1888 -0.3148  0.6406
  540MOL0     C72767   3.369   4.927   3.924  0.2675 -0.3056  0.9133
  540MOL0     O72768   3.466   4.916   4.026  0.4181 -0.2904  0.1061
  540MOL0     C72769   3.443   4.827   4.131 -0.2586 -0.2480  0.0420
  540MOL0     C72770   3.317   4.793   4.191 -0.3557  0.0771 -0.4581
  540MOL0     C72771   3.310   4.700   4.295  0.7156 -0.1959 -0.1611
  540MOL0     C72772   3.416   4.625   4.342 -0.7354  0.1155  0.4145
  540MOL0     O72773   3.426   4.531   4.449 -0.1439  0.2178  0.2997
  540MOL0     C72774   3.297   4.482   4.503 -0.1731  0.3718 -0.1876
  540MOL0     C72775   3.221   4.376   4.410  0.1474 -1.0156 -0.0516
  540MOL0     C72776   3.094   4.332   4.477 -0.0016 -0.7743  0.1657
  540MOL0     C72777   3.051   4.197   4.418  0.2427  0.7241 -0.0679
  540MOL0     C72778   2.950   4.116   4.496 -0.4067 -0.3169 -0.0670
  540MOL0     C72779   2.832   4.197   4.550 -0.8118  0.3740 -0.2469
  540MOL0     C72780   2.710   4.112   4.594  0.0562 -0.1605 -0.0902
  540MOL0     C72781   2.600   4.209   4.647 -0.1503 -0.5690 -1.3110
  540MOL0     N72782   2.489   4.127   4.694  0.1874 -0.4922  0.0663
  540MOL0     C72783   2.386   4.078   4.613  0.0155  0.8905 -0.1358
  540MOL0     C72784   2.321   3.978   4.690  0.6899  0.4657 -0.2925
  540MOL0     C72785   2.216   3.873   4.650 -0.5452  0.6158  0.3430
  540MOL0     C72786   2.088   3.897   4.716  0.3630  0.0012  0.0569
  540MOL0     C72787   1.965   3.837   4.643 -0.6730  0.6633 -0.0087
  540MOL0     C72788   1.831   3.891   4.699 -0.6897 -0.0873 -0.6379
  540MOL0     O72789   1.827   3.903   4.849 -0.6156 -0.4092  0.3888
  540MOL0     C72790   1.704   3.893   4.914  0.0063 -0.5372  0.9062
  540MOL0     C72791   1.583   3.892   4.844  0.0184 -0.6137 -0.3106
  540MOL0     C72792   1.462   3.873   4.907  0.1321 -0.4855 -0.6287
  540MOL0     C72793   1.336   3.883   4.819 -0.8997  0.6227  0.9288
  540MOL0     C72794   1.454   3.873   5.047  0.4794 -0.1703  0.3216
  540MOL0     C72795   1.331   3.855   5.134  0.9562 -1.0126  0.7164
  540MOL0     O72796   1.340   3.891   5.263 -0.2347 -0.1558 -0.4290
  540MOL0     C72797   1.265   3.844   5.369  0.0995  0.0575 -0.1755
  540MOL0     C72798   1.145   3.911   5.402  0.5747 -0.1842  0.5682
  540MOL0     C72799   1.080   3.885   5.520  0.2198 -0.1241  0.1762
  540MOL0     C72800   1.118   3.775   5.598  1.0141  0.2723  0.0864
  540MOL0     O72801   1.047   3.753   5.711  0.1823  0.0073  0.8612
  540MOL0     C72802   1.064   3.636   5.788  0.1093 -0.1239 -0.6773
  540MOL0     C72803   0.945   3.609   5.890 -0.4558  0.4275 -0.3397
  540MOL0     C72804   0.970   3.696   6.019  0.3609  0.3362  0.0443
  540MOL0     C72805   0.897   3.646   6.137 -0.0357  0.7501  0.0217
  540MOL0     C72806   0.738   3.650   6.118 -0.4031 -0.2251 -0.2606
  540MOL0     C72807   0.671   3.588   6.248 -0.1400  0.1220 -0.3393
  540MOL0     C72808   0.519   3.608   6.233  0.6471 -0.0010  0.0842
  540MOL0     C72809   0.450   3.519   6.116 -0.1885 -0.1790  0.2217
  540MOL0    Cl72810   0.507   3.353   6.111 -0.0387 -0.2191  0.5505
  540MOL0     C72811   1.227   3.702   5.559  0.4752 -0.4747  0.7173
  540MOL0     C72812   1.310   3.740   5.450  0.3814  0.2762  0.8042
  540MOL0     O72813   1.245   3.785   5.089 -0.0494  0.6509 -0.8079
  540MOL0     C72814   1.575   3.900   5.117 -0.7088 -0.1130  0.1717
  540MOL0     C72815   1.697   3.903   5.050  0.6595  0.0773 -0.3916
  540MOL0     N72816   2.393   3.966   4.809  0.3392  0.2247  0.1024
  540MOL0     N72817   2.494   4.050   4.809 -0.0332  0.3249 -0.2762
  540MOL0     C72818   3.538   4.655   4.282  0.2204 -0.7913  0.4747
  540MOL0     C72819   3.551   4.757   4.180  0.0024 -0.3959  0.0754
  540MOL0     C72820   3.400   5.019   3.811 -0.0088  0.7203  0.2705
  540MOL0     C72821   3.519   5.095   3.802 -0.9094  0.9673  0.4876
  540MOL0     C72822   3.553   5.163   3.689  0.0821  1.2796 -0.0017
  540MOL0     C72823   3.459   5.179   3.581 -0.8486  0.2691 -0.2901
  540MOL0     O72824   3.481   5.268   3.483 -0.4973  0.0969  0.1172
  540MOL0     C72825   3.508   5.404   3.518 -0.2005 -0.1641  0.9985
  540MOL0     C72826   3.572   5.467   3.402  0.8503  0.0577 -0.4323
  540MOL0     C72827   3.724   5.421   3.400 -0.1955 -0.0019 -0.2880
  540MOL0     C72828   3.799   5.452   3.280 -0.4920 -0.1729  0.1133
  540MOL0     C72829   3.930   5.395   3.277  0.1685  0.7494  0.2356
  540MOL0     C72830   4.041   5.353   3.264 -0.3316  0.7265  0.0761
  540MOL0     C72831   3.339   5.119   3.590  0.2343  0.2222  0.6287
  540MOL0     C72832   3.305   5.041   3.706 -0.7765 -0.4715 -0.0575
  540MOL0     H72833   3.232   4.850   4.153 -1.2552 -0.9753 -0.0752
  540MOL0     H72834   3.215   4.696   4.348  0.7804  1.4227  0.1103
  540MOL0     H72835   3.318   4.441   4.603 -2.1333 -3.7481 -1.2578
  540MOL0     H72836   3.230   4.564   4.528  0.1927  0.4604  0.5328
  540MOL0     H72837   3.204   4.419   4.311  0.6289 -0.6999  0.0009
  540MOL0     H72838   3.280   4.284   4.400 -0.7487 -1.7068  0.7662
  540MOL0     H72839   3.113   4.299   4.580 -2.6616 -0.7124  0.7602
  540MOL0     H72840   3.013   4.405   4.466 -2.2234 -3.2423 -0.7371
  540MOL0     H72841   3.015   4.221   4.318  2.3673 -1.5774 -1.5160
  540MOL0     H72842   3.137   4.129   4.406  0.3989  1.2420 -2.3759
  540MOL0     H72843   2.917   4.029   4.439 -2.3561  0.1135  0.3193
  540MOL0     H72844   3.000   4.068   4.580  1.4879  0.5273 -0.6648
  540MOL0     H72845   2.870   4.258   4.632 -0.0120 -0.4576  0.0175
  540MOL0     H72846   2.806   4.256   4.462 -4.7420 -1.0467 -0.2778
  540MOL0     H72847   2.672   4.044   4.516 -0.0243 -0.1783 -0.0349
  540MOL0     H72848   2.746   4.061   4.684  2.0914  0.9279 -0.2301
  540MOL0     H72849   2.566   4.283   4.573 -2.6201 -0.8165 -0.5227
  540MOL0     H72850   2.641   4.257   4.735 -1.9315  0.7196 -1.1174
  540MOL0     H72851   2.357   4.101   4.511  0.6699  3.0679  0.1121
  540MOL0     H72852   2.198   3.881   4.542 -0.7957  0.3682  0.3661
  540MOL0     H72853   2.242   3.769   4.673  1.9954  0.9715 -0.5562
  540MOL0     H72854   2.075   4.005   4.720 -0.9890 -0.0115 -2.4617
  540MOL0     H72855   2.087   3.860   4.819 -0.0420 -0.1657 -0.0044
  540MOL0     H72856   1.974   3.728   4.652  1.6888  0.6879 -1.3717
  540MOL0     H72857   1.958   3.871   4.540 -0.8392  1.1580  0.1621
  540MOL0     H72858   1.758   3.818   4.661 -0.6040  0.0632 -1.0997
  540MOL0     H72859   1.807   3.990   4.661 -0.5417  0.4429  0.6273
  540MOL0     H72860   1.596   3.900   4.737 -1.4571  0.3046 -0.4598
  540MOL0     H72861   1.289   3.784   4.821  1.0034 -0.5224 -2.7715
  540MOL0     H72862   1.266   3.964   4.842  2.3938  3.4205  1.8350
  540MOL0     H72863   1.367   3.902   4.716 -1.3604 -4.3489 -0.3737
  540MOL0     H72864   1.105   3.987   5.335  0.8858  0.6499  1.2979
  540MOL0     H72865   0.987   3.928   5.557  0.0559 -2.4614  2.7636
  540MOL0     H72866   1.071   3.554   5.715  3.0290 -0.5360 -0.0220
  540MOL0     H72867   1.160   3.643   5.838  1.8318 -3.9972 -2.9611
  540MOL0     H72868   0.845   3.639   5.855 -0.0804  3.8780  1.1474
  540MOL0     H72869   0.951   3.502   5.914 -1.7451  0.4247  0.0541
  540MOL0     H72870   0.957   3.801   5.992  1.5241  1.1525  2.3312
  540MOL0     H72871   1.075   3.700   6.050  0.2223  2.7249  0.4043
  540MOL0     H72872   0.932   3.543   6.145 -2.5019 -0.2395 -1.1180
  540MOL0     H72873   0.925   3.701   6.228  2.0088 -0.6257  0.2851
  540MOL0     H72874   0.713   3.595   6.026 -0.8193 -0.3719 -0.0615
  540MOL0     H72875   0.714   3.756   6.113 -0.3795 -0.2175 -0.2132
  540MOL0     H72876   0.712   3.486   6.251  1.6666  0.8219 -0.2025
  540MOL0     H72877   0.684   3.646   6.340  0.0347  0.3609 -0.5143
  540MOL0     H72878   0.506   3.714   6.210  3.8913  0.3012 -0.8393
  540MOL0     H72879   0.468   3.595   6.329  0.7103  0.6226  0.2077
  540MOL0     H72880   0.476   3.566   6.020  0.9309 -1.1967  0.0007
  540MOL0     H72881   0.341   3.523   6.120 -0.2626  2.0757 -1.6699
  540MOL0     H72882   1.266   3.621   5.620  1.5919 -0.8478 -0.4503
  540MOL0     H72883   1.405   3.691   5.433 -0.3600 -1.1225  0.5488
  540MOL0     H72884   1.572   3.911   5.224  2.9763  0.0772  0.4039
  540MOL0     H72885   1.782   3.907   5.116 -0.6023  1.5576  1.2405
  540MOL0     H72886   3.610   4.586   4.326  0.3648 -3.2365 -3.1722
  540MOL0     H72887   3.651   4.764   4.141 -0.2477  0.6560 -0.4061
  540MOL0     H72888   3.593   5.093   3.881  0.3886 -0.0783 -0.6801
  540MOL0     H72889   3.644   5.222   3.689  1.2026 -0.3812 -0.7427
  540MOL0     H72890   3.412   5.456   3.527  1.7495  4.1807 -0.5369
  540MOL0     H72891   3.553   5.419   3.616  2.1418 -1.2413  0.1847
  540MOL0     H72892   3.567   5.575   3.421 -1.7770 -0.0554 -0.1914
  540MOL0     H72893   3.530   5.423   3.312  1.1759 -0.2231 -0.4492
  540MOL0     H72894   3.737   5.314   3.416 -0.2313  0.3241  2.4062
  540MOL0     H72895   3.770   5.464   3.490 -0.9072 -2.0783  1.1324
  540MOL0     H72896   3.797   5.560   3.263 -1.0412 -0.4412 -1.7393
  540MOL0     H72897   3.747   5.408   3.194  2.1170  2.8963 -3.4039
  540MOL0     H72898   4.141   5.318   3.249  1.0171  3.0257  2.6552
  540MOL0     H72899   3.269   5.137   3.509  1.7159 -0.0937 -0.7712
  540MOL0     H72900   3.210   4.991   3.719 -1.2873  1.1069  3.6349
  541MOL0     O72901   4.802   5.788   6.561 -0.0516 -0.7063 -0.3103
  541MOL0     C72902   4.898   5.869   6.581  0.3097 -0.0094  0.8256
  541MOL0     O72903   4.886   5.997   6.624  0.5048  0.3919  0.1129
  541MOL0     C72904   4.766   6.050   6.672 -0.0788  0.7876  0.3093
  541MOL0     C72905   4.688   5.984   6.762 -0.0078 -0.0737 -0.1308
  541MOL0     C72906   4.580   6.054   6.818 -0.4263 -0.6987 -0.3684
  541MOL0     C72907   4.540   6.183   6.767 -0.0560  0.2473 -0.1511
  541MOL0     O72908   4.434   6.246   6.821 -0.2233  0.0877 -0.2763
  541MOL0     C72909   4.311   6.179   6.825  0.6815 -0.0094  0.3140
  541MOL0     C72910   4.206   6.278   6.875 -0.1642  0.1088  0.4765
  541MOL0     C72911   4.069   6.213   6.923 -0.1657  0.3251  0.8694
  541MOL0     C72912   4.017   6.289   7.048  1.1758  0.7473 -0.1358
  541MOL0     C72913   3.905   6.215   7.123 -1.1184 -0.4443  0.2544
  541MOL0     C72914   3.893   6.250   7.270  0.3694 -0.3268  0.4610
  541MOL0     C72915   3.800   6.149   7.342 -0.2746 -0.5513 -0.3724
  541MOL0     C72916   3.765   6.194   7.487 -0.3970  0.2534  0.3081
  541MOL0     N72917   3.686   6.099   7.562 -0.6597 -0.0477  0.0563
  541MOL0     C72918   3.550   6.094   7.558  0.0985 -0.2532  0.6620
  541MOL0     C72919   3.514   5.983   7.633 -0.3672  0.0559  0.2662
  541MOL0     C72920   3.373   5.929   7.650 -0.0802  0.8166  0.0747
  541MOL0     C72921   3.317   5.846   7.535 -0.0542  0.5102 -1.0699
  541MOL0     C72922   3.373   5.701   7.535  0.6389  0.3884  0.1091
  541MOL0     C72923   3.401   5.642   7.394  0.2864 -0.0406 -0.4999
  541MOL0     O72924   3.287   5.673   7.311 -0.5203  0.7800 -0.2931
  541MOL0     C72925   3.173   5.604   7.342  0.1279  1.1094 -0.0777
  541MOL0     C72926   3.153   5.464   7.352 -0.6466  0.4503  0.2817
  541MOL0     C72927   3.029   5.412   7.400 -0.3288 -0.1895 -0.2575
  541MOL0     C72928   3.027   5.252   7.409  0.5685  0.2090  0.0079
  541MOL0     C72929   2.926   5.494   7.446  0.1935 -0.3330  0.3124
  541MOL0     C72930   2.807   5.445   7.513  0.1487 -0.6393 -0.5378
  541MOL0     O72931   2.764   5.529   7.607  0.1786  0.1454  0.3413
  541MOL0     C72932   2.634   5.535   7.651  0.1941  0.6522  0.1526
  541MOL0     C72933   2.531   5.514   7.556  1.3824  0.0399 -0.3553
  541MOL0     C72934   2.399   5.542   7.600  0.2566  0.2872  0.1700
  541MOL0     C72935   2.357   5.574   7.730 -0.2048 -0.1258  0.4113
  541MOL0     O72936   2.234   5.593   7.776  0.4304  0.1684  0.1501
  541MOL0     C72937   2.119   5.570   7.689 -0.2758  0.4204 -0.5727
  541MOL0     C72938   1.981   5.607   7.763  0.5191 -0.3254 -0.1665
  541MOL0     C72939   1.914   5.484   7.814 -1.0204  0.3079  0.2636
  541MOL0     C72940   1.778   5.518   7.857  0.1365  0.3783 -0.6414
  541MOL0     C72941   1.716   5.413   7.949  1.1955 -0.0631 -0.3941
  541MOL0     C72942   1.566   5.444   7.972 -0.6372 -0.0353 -0.0056
  541MOL0     C72943   1.502   5.339   8.052 -0.3176 -0.0281  0.5722
  541MOL0     C72944   1.351   5.373   8.071 -0.0690  0.1382  0.0548
  541MOL0    Cl72945   1.298   5.387   8.246  0.4105  0.5004  0.3222
  541MOL0     C72946   2.462   5.604   7.817  0.1128  0.3775 -0.2786
  541MOL0     C72947   2.596   5.578   7.777 -0.2628  0.3985 -0.6380
  541MOL0     O72948   2.749   5.336   7.481  0.1174 -0.3176  0.3503
  541MOL0     C72949   2.944   5.635   7.434 -0.1588  0.4800 -0.8081
  541MOL0     C72950   3.063   5.684   7.385  0.5561 -0.2060  0.5966
  541MOL0     N72951   3.629   5.924   7.681 -0.2976  1.1683  0.4424
  541MOL0     N72952   3.730   5.991   7.643 -0.4204 -0.6705  0.5898
  541MOL0     C72953   4.608   6.238   6.667  0.0970 -0.2425  1.1442
  541MOL0     C72954   4.729   6.177   6.629  0.2088 -0.3206  0.3521
  541MOL0     C72955   5.031   5.814   6.560 -0.0143  1.0042  0.5589
  541MOL0     C72956   5.144   5.879   6.618  0.4525 -0.2258  0.2998
  541MOL0     C72957   5.268   5.811   6.594 -0.0714 -0.1860 -0.0583
  541MOL0     C72958   5.282   5.696   6.514 -0.1090  0.6054 -0.2157
  541MOL0     O72959   5.414   5.663   6.473  0.1617 -0.1851 -0.3156
  541MOL0     C72960   5.422   5.586   6.355  0.4083 -0.3895  0.0516
  541MOL0     C72961   5.562   5.532   6.335  0.3177  0.2754  0.4892
  541MOL0     C72962   5.572   5.443   6.207  0.5907  0.9361  0.2409
  541MOL0     C72963   5.477   5.318   6.198  0.6314  0.4551  0.0908
  541MOL0     C72964   5.481   5.218   6.301 -0.6954  0.0915  0.7385
  541MOL0     C72965   5.486   5.125   6.382 -0.8645  0.1189 -0.1512
  541MOL0     C72966   5.171   5.642   6.467  0.0900 -0.8535  0.2658
  541MOL0     C72967   5.046   5.695   6.483 -1.0937 -1.4142 -0.0593
  541MOL0     H72968   4.715   5.886   6.799  2.4509  0.8364  0.7267
  541MOL0     H72969   4.529   6.012   6.904  1.3757 -0.4509  0.8733
  541MOL0     H72970   4.286   6.138   6.727  0.5093  3.1743 -1.1039
  541MOL0     H72971   4.309   6.087   6.885 -2.4440 -0.4129 -0.2483
  541MOL0     H72972   4.257   6.311   6.966  1.4998 -3.9414  1.2239
  541MOL0     H72973   4.189   6.365   6.810  2.0552  0.5514  0.4142
  541MOL0     H72974   4.006   6.228   6.835  1.5650  3.1831 -0.0436
  541MOL0     H72975   4.079   6.106   6.943 -2.2728 -0.6222 -2.3555
  541MOL0     H72976   4.106   6.303   7.110  0.1821 -0.4206  1.6632
  541MOL0     H72977   3.984   6.391   7.025 -3.2236  0.1380  2.3058
  541MOL0     H72978   3.811   6.244   7.075 -0.9192 -2.1033 -1.2914
  541MOL0     H72979   3.924   6.107   7.118 -1.5239 -0.6162  1.8674
  541MOL0     H72980   3.989   6.254   7.321 -0.9790 -3.1194  3.5083
  541MOL0     H72981   3.860   6.354   7.277  0.5769 -0.1824 -0.5464
  541MOL0     H72982   3.700   6.147   7.296 -0.3832  2.8442 -0.5489
  541MOL0     H72983   3.846   6.050   7.345  1.2124  0.1250 -0.3837
  541MOL0     H72984   3.714   6.292   7.488 -0.0412  0.4789 -1.0258
  541MOL0     H72985   3.861   6.211   7.536 -0.0971  1.8773 -0.7502
  541MOL0     H72986   3.487   6.160   7.499  0.6180  0.4476  0.8787
  541MOL0     H72987   3.364   5.864   7.738 -3.0418 -0.1491 -0.8059
  541MOL0     H72988   3.298   6.008   7.653 -0.4582  0.4894 -0.4480
  541MOL0     H72989   3.345   5.896   7.442  0.2527 -0.0668 -1.2970
  541MOL0     H72990   3.209   5.856   7.544  0.1675  2.4069  0.1837
  541MOL0     H72991   3.296   5.642   7.588  0.8462  0.9055  1.0045
  541MOL0     H72992   3.467   5.687   7.590 -1.3516 -4.1315  3.0200
  541MOL0     H72993   3.424   5.535   7.401  1.3928  0.0734 -2.0577
  541MOL0     H72994   3.489   5.693   7.355  0.9225 -0.9841 -0.3146
  541MOL0     H72995   3.233   5.393   7.331  1.2643  1.9698  2.0180
  541MOL0     H72996   3.030   5.216   7.512  3.4621 -0.9937 -0.4121
  541MOL0     H72997   2.949   5.203   7.349  1.1969 -2.1315  1.0198
  541MOL0     H72998   3.119   5.217   7.360  0.1856 -0.5088 -0.2122
  541MOL0     H72999   2.554   5.493   7.452  1.4332 -0.3945 -0.2603
  541MOL0     H73000   2.319   5.532   7.528 -2.0954  1.3806  2.4921
  541MOL0     H73001   2.118   5.646   7.610 -1.5082  1.0142 -0.0185
  541MOL0     H73002   2.128   5.464   7.663  0.5754 -0.2624  2.1246
  541MOL0     H73003   1.986   5.691   7.832 -2.4971  1.4107 -1.8554
  541MOL0     H73004   1.913   5.651   7.689  0.3056  1.4713  1.0394
  541MOL0     H73005   1.978   5.447   7.895  1.1675 -2.3533 -2.4251
  541MOL0     H73006   1.919   5.406   7.737  0.3409  1.6976 -1.1363
  541MOL0     H73007   1.766   5.613   7.909  2.7565 -0.1580  1.0956
  541MOL0     H73008   1.714   5.523   7.768  0.0965  1.3333 -0.5730
  541MOL0     H73009   1.770   5.399   8.043 -1.0201 -0.4489  0.8878
  541MOL0     H73010   1.728   5.315   7.902  0.9257 -1.1488  1.6822
  541MOL0     H73011   1.568   5.544   8.016  0.8764 -1.0372  2.4719
  541MOL0     H73012   1.511   5.471   7.881 -3.0636  2.2979  1.9798
  541MOL0     H73013   1.550   5.332   8.150  2.2755 -0.2812 -0.6169
  541MOL0     H73014   1.501   5.239   8.008 -1.2436  0.1959  0.0684
  541MOL0     H73015   1.296   5.293   8.020  0.7461 -0.4542  0.0979
  541MOL0     H73016   1.317   5.468   8.027 -3.2813 -0.9505 -0.1100
  541MOL0     H73017   2.452   5.649   7.916  0.8429 -3.5136  1.7534
  541MOL0     H73018   2.682   5.595   7.841 -1.8520  0.2222  1.7120
  541MOL0     H73019   2.864   5.701   7.467 -0.5022  0.0900 -0.8442
  541MOL0     H73020   3.059   5.793   7.390  0.2554 -0.0931 -1.4427
  541MOL0     H73021   4.576   6.334   6.629 -0.4368 -1.0704 -0.6632
  541MOL0     H73022   4.797   6.224   6.558 -1.2801 -0.4135 -1.2142
  541MOL0     H73023   5.137   5.973   6.672  2.4814  1.0165 -1.4162
  541MOL0     H73024   5.357   5.849   6.643  0.2372 -1.2738  0.2491
  541MOL0     H73025   5.364   5.496   6.381 -0.4275  0.5074  1.4211
  541MOL0     H73026   5.362   5.630   6.275  0.1756  0.3656  0.6331
  541MOL0     H73027   5.585   5.472   6.423  0.8517  0.3944  0.4371
  541MOL0     H73028   5.640   5.609   6.330  1.0527 -0.5271 -0.9998
  541MOL0     H73029   5.675   5.404   6.206  0.6320  1.0232 -1.5988
  541MOL0     H73030   5.559   5.510   6.122  4.1858  2.2957  0.5561
  541MOL0     H73031   5.491   5.264   6.104 -1.4221  0.8639 -0.5125
  541MOL0     H73032   5.372   5.349   6.199  0.1072 -1.1577 -0.5548
  541MOL0     H73033   5.472   5.035   6.438 -0.2816  0.4179  0.4807
  541MOL0     H73034   5.169   5.558   6.398 -1.8777 -1.4106  0.9417
  541MOL0     H73035   4.970   5.636   6.433 -0.4160 -1.2057 -1.3975
  542MOL0     O73036   3.758   0.099   3.873 -0.9095 -0.2706 -0.2255
  542MOL0     C73037   3.779   0.030   3.774 -0.4746  0.5983  0.3520
  542MOL0     O73038   3.687  -0.024   3.686 -0.4116  0.6383 -0.1045
  542MOL0     C73039   3.554   0.016   3.695  0.2223 -0.0703  0.3837
  542MOL0     C73040   3.460  -0.070   3.657  0.3401  0.3127  0.5330
  542MOL0     C73041   3.321  -0.036   3.652 -0.2014  0.4478 -0.5210
  542MOL0     C73042   3.281   0.092   3.677 -0.4285  0.4805  0.2053
  542MOL0     O73043   3.152   0.138   3.676  0.5442  0.2398 -0.0828
  542MOL0     C73044   3.042   0.065   3.619  0.2891 -0.6378  0.4688
  542MOL0     C73045   2.918   0.151   3.636 -1.1192 -0.7195  0.3154
  542MOL0     C73046   2.786   0.100   3.582  0.0786 -0.5520 -0.4579
  542MOL0     C73047   2.666   0.188   3.624 -0.1219  0.0476 -0.0539
  542MOL0     C73048   2.536   0.123   3.582 -0.2152  0.0613 -0.0657
  542MOL0     C73049   2.430   0.220   3.627  0.4491  0.4447  0.3129
  542MOL0     C73050   2.300   0.186   3.561  0.0777 -0.2424 -0.3575
  542MOL0     C73051   2.177   0.252   3.631  0.5333  0.0311  0.8354
  542MOL0     N73052   2.049   0.198   3.592 -0.3665  0.6578 -0.7681
  542MOL0     C73053   1.952   0.252   3.519 -0.8982  0.3596  0.1886
  542MOL0     C73054   1.845   0.170   3.527 -0.1578  0.0883 -0.0702
  542MOL0     C73055   1.710   0.173   3.461 -0.3676  0.3160 -0.2742
  542MOL0     C73056   1.721   0.095   3.327  0.2012  0.0963 -0.8368
  542MOL0     C73057   1.584   0.048   3.265  0.7287 -0.3138 -0.4697
  542MOL0     C73058   1.600  -0.029   3.135 -1.0119 -0.0133 -0.3088
  542MOL0     O73059   1.500  -0.004   3.043 -0.3182 -0.6960  0.6495
  542MOL0     C73060   1.374  -0.056   3.061  0.1951 -0.1302  0.8333
  542MOL0     C73061   1.285  -0.037   2.950  0.6822  0.7872  0.5843
  542MOL0     C73062   1.151  -0.077   2.953  0.0491 -0.2326  0.3790
  542MOL0     C73063   1.057  -0.030   2.846  0.2613 -0.3298 -0.7859
  542MOL0     C73064   1.097  -0.142   3.062  0.0392 -0.1220 -0.0313
  542MOL0     C73065   0.955  -0.179   3.078  0.5001  0.3554  0.9618
  542MOL0     O73066   0.912  -0.182   3.207  0.2068 -0.0602 -0.1071
  542MOL0     C73067   0.783  -0.222   3.225  0.2991  0.0092  0.0028
  542MOL0     C73068   0.743  -0.356   3.250 -0.5670 -0.1861 -0.4760
  542MOL0     C73069   0.609  -0.399   3.241 -0.3505 -0.7295  0.5539
  542MOL0     C73070   0.507  -0.308   3.227  0.1280  0.3427 -1.1165
  542MOL0     O73071   0.386  -0.369   3.216  0.5471  1.1629 -0.1504
  542MOL0     C73072   0.263  -0.287   3.199 -0.8436  0.0903  0.4290
  542MOL0     C73073   0.149  -0.390   3.168  0.3802 -0.7034 -0.2431
  542MOL0     C73074   0.018  -0.327   3.111 -0.2637  0.3451 -0.9270
  542MOL0     C73075  -0.074  -0.426   3.034  0.2884 -0.6950  0.4909
  542MOL0     C73076  -0.205  -0.363   2.994  0.4493 -0.2535  0.8000
  542MOL0     C73077  -0.304  -0.471   2.941 -0.4363  0.1584  0.7630
  542MOL0     C73078  -0.270  -0.543   2.813 -0.6966  0.2618 -0.2513
  542MOL0     C73079  -0.279  -0.462   2.686  0.3083  0.1649  0.2438
  542MOL0    Cl73080  -0.452  -0.424   2.659  0.6615 -0.4190  0.6778
  542MOL0     C73081   0.543  -0.169   3.221 -0.4894  0.9456 -0.0780
  542MOL0     C73082   0.675  -0.126   3.216  0.5314  0.5901  0.9756
  542MOL0     O73083   0.888  -0.217   2.982  0.5439 -0.2083 -0.4157
  542MOL0     C73084   1.193  -0.173   3.167  0.1257 -0.3364  0.1224
  542MOL0     C73085   1.319  -0.125   3.169 -0.5256 -0.8985  0.6258
  542MOL0     N73086   1.881   0.056   3.607  0.3020 -0.5289  0.3696
  542MOL0     N73087   2.000   0.083   3.650 -0.0219  0.4341 -0.0010
  542MOL0     C73088   3.382   0.184   3.707 -0.1973 -0.3982 -0.3933
  542MOL0     C73089   3.516   0.149   3.713 -0.0442 -0.8334  0.3342
  542MOL0     C73090   3.922   0.009   3.722 -0.7060  0.7168  1.0461
  542MOL0     C73091   4.032   0.060   3.793  0.1137  0.5667  0.1143
  542MOL0     C73092   4.164   0.039   3.736 -0.3910 -1.0344  0.3792
  542MOL0     C73093   4.196  -0.027   3.619  1.4531 -0.1666 -0.0872
  542MOL0     O73094   4.321  -0.034   3.573 -0.7904  0.2424 -0.9282
  542MOL0     C73095   4.351  -0.046   3.435 -0.4147  0.3825  1.2084
  542MOL0     C73096   4.347  -0.193   3.386  0.1241  0.1919  0.6852
  542MOL0     C73097   4.473  -0.265   3.430 -0.4799  0.2635 -0.3891
  542MOL0     C73098   4.460  -0.417   3.435  0.2532 -0.2613  0.4734
  542MOL0     C73099   4.417  -0.458   3.562  0.1337 -0.1097 -0.1669
  542MOL0     C73100   4.388  -0.494   3.677  0.6089  0.0417  0.1730
  542MOL0     C73101   4.084  -0.084   3.554 -0.5032 -0.2957 -0.7212
  542MOL0     C73102   3.952  -0.061   3.601 -0.3159  0.0656  0.4260
  542MOL0     H73103   3.495  -0.169   3.627  2.1167  0.3222  2.3276
  542MOL0     H73104   3.258  -0.113   3.609  0.4248 -0.2934 -0.1432
  542MOL0     H73105   3.061   0.050   3.512  1.0399  1.4836  0.2435
  542MOL0     H73106   3.024  -0.030   3.669 -0.0203 -0.1788  1.2420
  542MOL0     H73107   2.900   0.176   3.741  0.5462 -1.9272  0.9288
  542MOL0     H73108   2.933   0.245   3.582  2.3805 -0.8110  0.9163
  542MOL0     H73109   2.791   0.085   3.473  2.1380 -3.0807 -0.1042
  542MOL0     H73110   2.771  -0.000   3.624 -1.6057  0.5637  1.7589
  542MOL0     H73111   2.660   0.208   3.731 -0.5899 -2.7770  0.5414
  542MOL0     H73112   2.691   0.282   3.574  2.8646 -0.7964 -0.3666
  542MOL0     H73113   2.533   0.101   3.475  0.0122  0.4132 -0.1458
  542MOL0     H73114   2.524   0.026   3.632 -2.7064 -0.1621 -0.9346
  542MOL0     H73115   2.415   0.227   3.735 -0.4251 -1.5607  0.3801
  542MOL0     H73116   2.457   0.316   3.583 -2.2657  0.8854 -0.6324
  542MOL0     H73117   2.302   0.223   3.458  2.0532 -1.2473 -0.7328
  542MOL0     H73118   2.288   0.077   3.572  2.3126 -0.5729 -0.8226
  542MOL0     H73119   2.179   0.359   3.608 -1.2465  0.1195  0.9214
  542MOL0     H73120   2.183   0.252   3.740 -1.6997  0.1311  1.0107
  542MOL0     H73121   1.958   0.341   3.458  0.2636 -0.2498 -0.6241
  542MOL0     H73122   1.648   0.112   3.527 -1.4416  1.0056 -0.6027
  542MOL0     H73123   1.669   0.273   3.440 -3.8652 -0.9371 -0.1862
  542MOL0     H73124   1.765  -0.001   3.354 -3.4041 -1.0953  1.3963
  542MOL0     H73125   1.778   0.152   3.252 -2.4103  3.3996 -0.5845
  542MOL0     H73126   1.518   0.129   3.234  1.1921 -0.0009 -0.6358
  542MOL0     H73127   1.536  -0.008   3.346  1.4663  0.8751  0.8281
  542MOL0     H73128   1.614  -0.135   3.157  0.1296  0.0982 -0.4478
  542MOL0     H73129   1.695   0.013   3.101  0.1807 -2.5825 -0.3292
  542MOL0     H73130   1.320   0.006   2.857  0.4500  0.7847  0.4957
  542MOL0     H73131   1.014  -0.111   2.787  1.0843  0.2121 -2.1629
  542MOL0     H73132   0.976   0.033   2.885  1.8074  1.4519 -0.3016
  542MOL0     H73133   1.110   0.024   2.768  3.6104 -0.5430  1.1428
  542MOL0     H73134   0.823  -0.427   3.268  2.0625  2.6214 -0.3258
  542MOL0     H73135   0.585  -0.505   3.239  0.2823 -1.0114  3.6448
  542MOL0     H73136   0.233  -0.217   3.278  0.8653  1.3347  0.0564
  542MOL0     H73137   0.277  -0.223   3.111 -0.7101 -0.6903 -0.1320
  542MOL0     H73138   0.201  -0.459   3.101  3.4620 -1.1446  2.3392
  542MOL0     H73139   0.134  -0.434   3.266 -1.9606 -1.8197 -1.0278
  542MOL0     H73140   0.062  -0.253   3.042  0.4716 -0.3848 -1.2607
  542MOL0     H73141  -0.028  -0.264   3.188  0.0614  2.2095 -2.1805
  542MOL0     H73142  -0.027  -0.458   2.940  1.5769  0.6219  0.6583
  542MOL0     H73143  -0.098  -0.512   3.097  0.1743 -1.1997 -0.2210
  542MOL0     H73144  -0.190  -0.291   2.913 -0.4203 -1.2884 -0.3170
  542MOL0     H73145  -0.256  -0.319   3.080  2.6686  3.1627  0.5320
  542MOL0     H73146  -0.309  -0.549   3.017 -1.1126 -1.7951 -1.1891
  542MOL0     H73147  -0.399  -0.420   2.923  0.7578  2.1816 -0.2113
  542MOL0     H73148  -0.336  -0.630   2.801 -1.3351  0.6200  0.6095
  542MOL0     H73149  -0.169  -0.586   2.810 -0.8618 -0.1013 -1.9739
  542MOL0     H73150  -0.247  -0.527   2.604 -0.2314  0.8734 -0.5497
  542MOL0     H73151  -0.210  -0.378   2.678  0.6417 -0.2658 -2.6821
  542MOL0     H73152   0.456  -0.104   3.226 -1.2410 -0.1398  3.2648
  542MOL0     H73153   0.695  -0.020   3.213  0.3849  0.6000 -0.8062
  542MOL0     H73154   1.159  -0.221   3.258 -1.7482  3.8159  1.8622
  542MOL0     H73155   1.368  -0.138   3.265 -1.8518 -1.5258  1.2444
  542MOL0     H73156   3.358   0.288   3.728  0.6472 -0.6067  1.8408
  542MOL0     H73157   3.589   0.224   3.744  0.1888 -0.8468 -0.1836
  542MOL0     H73158   4.024   0.118   3.885 -2.1092 -2.4789  2.0404
  542MOL0     H73159   4.250   0.086   3.782 -0.3910  0.6748 -1.2395
  542MOL0     H73160   4.283   0.021   3.381  1.0356  1.7742  1.0295
  542MOL0     H73161   4.453  -0.010   3.420 -1.1892  1.7962 -1.2010
  542MOL0     H73162   4.346  -0.187   3.277 -1.5846 -0.2522  0.6520
  542MOL0     H73163   4.260  -0.249   3.423  0.5363 -1.0191 -0.1190
  542MOL0     H73164   4.511  -0.222   3.523  1.8741  1.0265 -1.6281
  542MOL0     H73165   4.561  -0.252   3.366  2.7645 -2.8689  2.9691
  542MOL0     H73166   4.559  -0.459   3.415  1.6174  2.3858  1.2054
  542MOL0     H73167   4.401  -0.467   3.358  0.8923  3.0839 -2.4643
  542MOL0     H73168   4.377  -0.528   3.778 -0.3144 -0.1736  0.0040
  542MOL0     H73169   4.096  -0.120   3.452  0.4648  2.8626 -1.8418
  542MOL0     H73170   3.865  -0.091   3.542  0.8662  0.1154 -1.4317
  543MOL0     O73171   0.969   6.687   9.210  0.5284 -0.6375  0.8491
  543MOL0     C73172   0.957   6.562   9.206 -0.9773 -0.0523 -0.7039
  543MOL0     O73173   0.847   6.487   9.178 -0.4504  0.4040  0.2947
  543MOL0     C73174   0.744   6.557   9.133  0.2209  0.9407  0.1488
  543MOL0     C73175   0.662   6.624   9.223  0.3572 -0.1418 -0.4140
  543MOL0     C73176   0.536   6.683   9.177  0.1620  0.6643 -0.4398
  543MOL0     C73177   0.500   6.670   9.039 -0.1188  0.0941 -0.5621
  543MOL0     O73178   0.380   6.715   8.998 -0.1570  0.6433 -0.2256
  543MOL0     C73179   0.279   6.619   9.001 -0.1803 -0.6062 -0.2662
  543MOL0     C73180   0.146   6.690   8.967  0.1690 -0.0789  0.4614
  543MOL0     C73181   0.026   6.586   8.967 -0.1491  0.4987  0.0128
  543MOL0     C73182   0.004   6.526   8.827 -0.5861  0.9002 -0.1648
  543MOL0     C73183  -0.134   6.466   8.806 -0.0239  0.7326  0.4080
  543MOL0     C73184  -0.143   6.326   8.867  0.3414  0.4575 -0.2970
  543MOL0     C73185  -0.281   6.256   8.867  0.4953 -0.4661  0.8824
  543MOL0     C73186  -0.272   6.109   8.926  0.3862  0.0721  0.9753
  543MOL0     N73187  -0.398   6.035   8.882  0.1446  0.4999  0.1818
  543MOL0     C73188  -0.410   5.983   8.759  0.0926  0.0343  0.8241
  543MOL0     C73189  -0.536   5.931   8.761  0.1225  0.3624 -0.3025
  543MOL0     C73190  -0.579   5.853   8.641  0.7272  0.4352 -0.6076
  543MOL0     C73191  -0.725   5.791   8.650  0.3433  0.0205 -0.1850
  543MOL0     C73192  -0.743   5.686   8.769 -0.4625 -0.1552  0.1404
  543MOL0     C73193  -0.880   5.615   8.764 -0.6345  0.7365 -0.2840
  543MOL0     O73194  -0.989   5.705   8.768  0.0378  0.7439  0.9528
  543MOL0     C73195  -1.113   5.659   8.723  0.2827 -0.1844 -0.0318
  543MOL0     C73196  -1.136   5.524   8.685  0.5640 -0.3400  0.3595
  543MOL0     C73197  -1.256   5.491   8.623 -0.5341  0.0348  0.4869
  543MOL0     C73198  -1.269   5.362   8.559  0.3261  0.1635  1.1500
  543MOL0     C73199  -1.365   5.592   8.618 -0.2912  0.2607 -1.3144
  543MOL0     C73200  -1.502   5.579   8.558  0.3786  0.4340 -0.1424
  543MOL0     O73201  -1.566   5.694   8.517  0.0440 -0.9330 -0.0138
  543MOL0     C73202  -1.689   5.676   8.466  0.0619 -0.4578 -0.5149
  543MOL0     C73203  -1.793   5.738   8.532 -0.5929  0.1732 -0.5192
  543MOL0     C73204  -1.916   5.738   8.478 -0.0709 -0.1935 -0.3368
  543MOL0     C73205  -1.946   5.676   8.362  0.6574 -0.1982 -0.0671
  543MOL0     O73206  -2.072   5.653   8.312 -0.2644  0.1594 -0.3118
  543MOL0     C73207  -2.149   5.771   8.294 -0.5477  0.0739  0.3205
  543MOL0     C73208  -2.285   5.736   8.228  0.4061  0.5147  0.8163
  543MOL0     C73209  -2.277   5.651   8.097  0.7478 -0.4844 -0.9770
  543MOL0     C73210  -2.216   5.758   7.994 -0.4960  0.5683 -1.0249
  543MOL0     C73211  -2.196   5.699   7.855 -0.4751 -0.4226 -0.5335
  543MOL0     C73212  -2.105   5.794   7.784  0.4251  0.1425  0.2584
  543MOL0     C73213  -2.111   5.793   7.633  0.8119 -0.1000  0.4529
  543MOL0     C73214  -1.986   5.850   7.569 -0.1340 -0.2780 -0.0288
  543MOL0    Cl73215  -1.954   6.021   7.632  0.2858  0.1038 -0.0190
  543MOL0     C73216  -1.845   5.611   8.298  0.7126 -0.0977 -0.0924
  543MOL0     C73217  -1.720   5.611   8.347 -0.0823 -0.5740  0.0291
  543MOL0     O73218  -1.549   5.465   8.558  0.0232 -0.0052  0.5510
  543MOL0     C73219  -1.343   5.726   8.668  0.2897  0.8489  0.1237
  543MOL0     C73220  -1.214   5.761   8.720  0.0372 -0.2033  0.1841
  543MOL0     N73221  -0.603   5.963   8.875  0.6230  0.0736 -0.5122
  543MOL0     N73222  -0.519   6.024   8.955 -0.0505 -0.5233  0.3728
  543MOL0     C73223   0.592   6.625   8.948  0.0787 -0.1416  0.1667
  543MOL0     C73224   0.714   6.566   8.991  0.1375 -0.2525 -0.3279
  543MOL0     C73225   1.077   6.490   9.218  0.1265 -0.1757  0.6874
  543MOL0     C73226   1.086   6.351   9.186  0.7056  0.0764  0.7781
  543MOL0     C73227   1.215   6.286   9.186 -0.0830 -0.4845  0.3837
  543MOL0     C73228   1.325   6.356   9.238 -1.2906 -0.2206  0.2337
  543MOL0     O73229   1.446   6.283   9.240  0.1715 -0.5101 -1.0141
  543MOL0     C73230   1.558   6.348   9.304 -0.2747 -0.2771  0.0430
  543MOL0     C73231   1.675   6.270   9.235 -0.7036  0.3172 -0.5977
  543MOL0     C73232   1.819   6.307   9.276 -0.4951 -0.0472 -0.5155
  543MOL0     C73233   1.876   6.244   9.401 -0.6179  1.0743  0.3351
  543MOL0     C73234   1.814   6.290   9.523 -0.3722  0.2466  0.2728
  543MOL0     C73235   1.742   6.317   9.613  0.3228  0.1768 -0.2988
  543MOL0     C73236   1.318   6.491   9.270  0.3030 -0.1199  0.0083
  543MOL0     C73237   1.197   6.558   9.262  0.1528  0.2079  0.6751
  543MOL0     H73238   0.679   6.629   9.330  0.2346  1.5476 -0.4521
  543MOL0     H73239   0.480   6.730   9.258 -1.1514  1.4794 -1.7595
  543MOL0     H73240   0.304   6.542   8.927 -0.5075 -1.8874  0.9072
  543MOL0     H73241   0.256   6.582   9.101 -2.2443  3.1655  0.8315
  543MOL0     H73242   0.113   6.781   9.017 -1.6640 -0.6866  0.4586
  543MOL0     H73243   0.169   6.718   8.864 -0.0685  0.6067  0.5906
  543MOL0     H73244   0.047   6.509   9.041  2.3443  2.3860  1.4631
  543MOL0     H73245  -0.061   6.642   9.003 -0.2019  0.0420  0.5979
  543MOL0     H73246   0.025   6.605   8.755 -0.3359  1.1159  0.1421
  543MOL0     H73247   0.075   6.449   8.795 -2.2419 -1.2622  1.1531
  543MOL0     H73248  -0.213   6.527   8.852 -1.9630 -0.5326 -1.0552
  543MOL0     H73249  -0.149   6.464   8.698  0.1334  1.3157  0.3758
  543MOL0     H73250  -0.068   6.259   8.825  1.0230  1.3467 -0.5290
  543MOL0     H73251  -0.116   6.344   8.972  2.2854  1.0538 -0.8565
  543MOL0     H73252  -0.353   6.310   8.930  1.4267  0.0946  1.4883
  543MOL0     H73253  -0.314   6.253   8.763 -2.2890 -1.7038  1.6887
  543MOL0     H73254  -0.258   6.111   9.034  1.5439  0.2439  0.8332
  543MOL0     H73255  -0.180   6.064   8.888  0.7186  2.1622 -0.9270
  543MOL0     H73256  -0.344   5.991   8.673 -0.9737  2.1704  0.1255
  543MOL0     H73257  -0.577   5.919   8.554 -1.0184  0.5161 -0.6129
  543MOL0     H73258  -0.525   5.760   8.619  1.2166  0.8585 -1.2440
  543MOL0     H73259  -0.741   5.754   8.549  0.7589  2.4046 -1.1975
  543MOL0     H73260  -0.795   5.875   8.664  1.3390  0.7045  0.8123
  543MOL0     H73261  -0.729   5.742   8.862 -1.5132  0.4987 -0.0850
  543MOL0     H73262  -0.660   5.615   8.763 -2.2573 -2.3356 -0.2630
  543MOL0     H73263  -0.888   5.551   8.853 -0.4146  0.8970 -0.1481
  543MOL0     H73264  -0.881   5.541   8.683  1.2322 -1.6757  1.7177
  543MOL0     H73265  -1.058   5.450   8.692  0.4072 -0.3271  3.3277
  543MOL0     H73266  -1.337   5.297   8.615  0.8262 -2.2242 -0.8176
  543MOL0     H73267  -1.303   5.378   8.456 -1.4127 -2.7330  1.1613
  543MOL0     H73268  -1.166   5.324   8.567  0.6889  1.2989  2.0989
  543MOL0     H73269  -1.773   5.781   8.630  3.1637 -2.9554  0.3527
  543MOL0     H73270  -1.992   5.777   8.545 -0.6259  3.4549 -2.7995
  543MOL0     H73271  -2.159   5.811   8.396 -0.2401  2.8940 -0.6709
  543MOL0     H73272  -2.082   5.847   8.253 -0.4871  0.8777  1.8391
  543MOL0     H73273  -2.335   5.675   8.303  2.0626 -1.7675  0.1701
  543MOL0     H73274  -2.334   5.829   8.198  0.6685  0.4339  0.1090
  543MOL0     H73275  -2.377   5.626   8.060 -0.8018  2.2588  0.9663
  543MOL0     H73276  -2.226   5.556   8.113 -2.6693 -1.9244  4.1334
  543MOL0     H73277  -2.279   5.848   7.995 -3.2912 -0.9279  4.9276
  543MOL0     H73278  -2.116   5.780   8.032  0.7948 -0.7956 -3.4217
  543MOL0     H73279  -2.294   5.700   7.807 -0.4819  2.0383 -0.5928
  543MOL0     H73280  -2.159   5.597   7.844  1.1957 -0.0106  0.8854
  543MOL0     H73281  -2.130   5.896   7.814 -1.7533 -0.3009  0.0974
  543MOL0     H73282  -2.002   5.778   7.817  0.7175  1.3588 -0.0190
  543MOL0     H73283  -2.200   5.851   7.605  0.4870  0.9446  3.2940
  543MOL0     H73284  -2.114   5.690   7.597  1.9602 -0.4820  1.3768
  543MOL0     H73285  -2.006   5.864   7.462  1.1623  2.0906 -0.0119
  543MOL0     H73286  -1.900   5.784   7.579 -0.5244 -0.8654 -0.4738
  543MOL0     H73287  -1.873   5.557   8.209 -3.0925  1.8850 -0.3209
  543MOL0     H73288  -1.648   5.552   8.292 -1.5254 -4.2797  1.8011
  543MOL0     H73289  -1.425   5.796   8.659  0.1950  1.5489  4.2563
  543MOL0     H73290  -1.192   5.865   8.743 -1.3357  0.1506  0.0050
  543MOL0     H73291   0.568   6.618   8.842  0.2045 -1.4936  0.2089
  543MOL0     H73292   0.779   6.518   8.920 -1.3400 -0.0754 -1.8515
  543MOL0     H73293   0.993   6.307   9.151  0.5135 -0.2329  1.6348
  543MOL0     H73294   1.232   6.186   9.148 -0.6427  0.1472 -1.6431
  543MOL0     H73295   1.571   6.454   9.281  0.4827 -0.2061  0.7600
  543MOL0     H73296   1.557   6.334   9.412 -0.0443 -0.4573  0.0230
  543MOL0     H73297   1.659   6.281   9.127 -1.7870 -1.7918 -0.7088
  543MOL0     H73298   1.669   6.163   9.256 -1.1514  0.7022  1.4944
  543MOL0     H73299   1.844   6.413   9.280  1.0808 -0.3943  3.5789
  543MOL0     H73300   1.888   6.265   9.203  2.0635  1.6237  0.8079
  543MOL0     H73301   1.984   6.252   9.390 -0.5378 -2.1137 -2.9589
  543MOL0     H73302   1.852   6.137   9.404 -1.0615  1.1186 -1.1427
  543MOL0     H73303   1.671   6.331   9.692 -1.9244  1.4780 -2.4087
  543MOL0     H73304   1.404   6.544   9.312 -1.0915  1.1580  1.3636
  543MOL0     H73305   1.189   6.656   9.308 -0.8030 -0.0273  1.0233
  544MOL0     O73306   5.005   5.793   6.949 -0.6643  0.1422  0.4493
  544MOL0     C73307   5.025   5.715   7.039 -0.4647 -0.1389  0.0921
  544MOL0     O73308   4.932   5.681   7.138  0.0005 -0.7340  0.0172
  544MOL0     C73309   4.805   5.720   7.114 -0.5873 -0.5599 -0.4236
  544MOL0     C73310   4.717   5.635   7.051 -0.1553 -0.4230  0.1513
  544MOL0     C73311   4.583   5.666   7.021  0.2353  0.8614 -0.2531
  544MOL0     C73312   4.532   5.783   7.070  0.2521  0.6644  0.0101
  544MOL0     O73313   4.404   5.827   7.062  0.3964  0.3716 -0.2092
  544MOL0     C73314   4.304   5.763   7.138  0.2474 -0.3555 -0.1653
  544MOL0     C73315   4.175   5.841   7.156 -0.2486  0.1083 -0.2100
  544MOL0     C73316   4.181   5.940   7.272  0.7378  0.1825  0.8250
  544MOL0     C73317   4.195   5.881   7.410 -0.2948  0.1622  0.0099
  544MOL0     C73318   4.133   5.962   7.519  0.2407 -0.0682 -0.5703
  544MOL0     C73319   4.185   6.101   7.524  0.5677  0.7706 -0.4786
  544MOL0     C73320   4.146   6.180   7.654  0.3985  0.3077  0.6135
  544MOL0     C73321   4.250   6.144   7.761 -0.4491 -1.0623 -0.8628
  544MOL0     N73322   4.213   6.224   7.880  0.2069  0.4750  1.0405
  544MOL0     C73323   4.087   6.248   7.924  0.5566  0.1910  0.2929
  544MOL0     C73324   4.105   6.337   8.024  0.9443  0.0369  0.3303
  544MOL0     C73325   4.011   6.413   8.109  0.0893 -0.4067 -0.1608
  544MOL0     C73326   3.935   6.517   8.028  0.2139 -0.3734 -0.6791
  544MOL0     C73327   3.857   6.626   8.113 -0.6556 -0.4961 -0.2201
  544MOL0     C73328   3.710   6.596   8.133  0.5957  0.7355 -0.1528
  544MOL0     O73329   3.633   6.701   8.200 -0.0459 -0.4100 -0.1567
  544MOL0     C73330   3.505   6.674   8.242 -0.3752  0.1823  0.1491
  544MOL0     C73331   3.448   6.760   8.329  0.1681 -0.6038 -0.1407
  544MOL0     C73332   3.314   6.740   8.374  0.3715  0.6823  0.0111
  544MOL0     C73333   3.266   6.841   8.487 -0.9076 -0.4435 -0.0729
  544MOL0     C73334   3.242   6.619   8.332 -0.0181 -0.4090  0.6066
  544MOL0     C73335   3.098   6.594   8.354 -0.4034 -0.8566 -0.2929
  544MOL0     O73336   3.018   6.698   8.387  0.6789  0.3790 -0.7212
  544MOL0     C73337   2.887   6.669   8.391 -0.2325  0.1867 -0.0225
  544MOL0     C73338   2.814   6.647   8.271 -0.3032  0.8461  0.0797
  544MOL0     C73339   2.674   6.616   8.283 -0.2607  0.3634  0.5049
  544MOL0     C73340   2.612   6.590   8.405 -0.5578  1.2404  0.7759
  544MOL0     O73341   2.488   6.540   8.396 -0.1229 -0.1331  0.5634
  544MOL0     C73342   2.393   6.555   8.495  0.2850  0.2937 -0.3283
  544MOL0     C73343   2.366   6.699   8.533 -0.0726  0.3190 -0.0366
  544MOL0     C73344   2.279   6.704   8.655 -0.1368  0.5610 -0.5656
  544MOL0     C73345   2.230   6.841   8.701  0.5564 -0.0799  0.1064
  544MOL0     C73346   2.109   6.845   8.789  0.7258 -0.7318 -0.1037
  544MOL0     C73347   2.070   6.972   8.863  0.1276 -0.0304 -0.0142
  544MOL0     C73348   1.960   6.951   8.960  0.5224  0.0163 -0.1789
  544MOL0     C73349   1.907   7.078   9.018  0.0098 -0.1422 -1.0232
  544MOL0    Cl73350   1.776   7.037   9.123 -0.1916  0.2303  0.0841
  544MOL0     C73351   2.684   6.617   8.519  0.5501 -0.5686 -0.7515
  544MOL0     C73352   2.821   6.659   8.507  0.1536 -0.0309 -0.0156
  544MOL0     O73353   3.065   6.479   8.345 -0.6331  0.5354  0.1611
  544MOL0     C73354   3.316   6.533   8.243  0.7873  0.4629 -0.7625
  544MOL0     C73355   3.440   6.562   8.202  0.2750  0.7714 -0.2178
  544MOL0     N73356   4.238   6.360   8.033 -0.3318 -0.0448  0.7975
  544MOL0     N73357   4.303   6.288   7.951 -0.3527  0.5765  1.1029
  544MOL0     C73358   4.622   5.877   7.136  0.5899  0.1995 -0.1159
  544MOL0     C73359   4.757   5.841   7.154 -0.1135 -1.0256  0.5072
  544MOL0     C73360   5.167   5.670   7.046  0.9900 -0.1624  0.5527
  544MOL0     C73361   5.269   5.732   6.971 -0.0554  0.0403  0.3265
  544MOL0     C73362   5.406   5.702   7.002  0.6499  0.3142  0.6897
  544MOL0     C73363   5.442   5.606   7.097 -0.4601  0.6178  0.1954
  544MOL0     O73364   5.580   5.589   7.109 -0.1728 -0.4703  0.6327
  544MOL0     C73365   5.622   5.482   7.192 -0.1502  0.1763 -0.6454
  544MOL0     C73366   5.776   5.495   7.184  0.1772  1.1768 -0.2310
  544MOL0     C73367   5.824   5.409   7.063  0.9053 -0.2007 -0.0932
  544MOL0     C73368   5.963   5.465   7.021 -0.2446 -0.4769  0.0503
  544MOL0     C73369   6.077   5.453   7.119 -0.3399 -0.4051  0.2554
  544MOL0     C73370   6.164   5.436   7.207  0.5893 -0.2773  0.2889
  544MOL0     C73371   5.338   5.539   7.171  0.4079 -0.2280  0.9798
  544MOL0     C73372   5.206   5.576   7.146  0.3375 -0.8916  1.0795
  544MOL0     H73373   4.763   5.539   7.032  0.4341 -0.3356  1.0311
  544MOL0     H73374   4.526   5.585   6.978  0.8745 -0.2373  0.8918
  544MOL0     H73375   4.267   5.674   7.088 -1.5129  0.2945 -0.0973
  544MOL0     H73376   4.353   5.736   7.233  0.1561  0.3897  0.1052
  544MOL0     H73377   4.155   5.885   7.058 -1.7411 -1.9057 -0.8848
  544MOL0     H73378   4.091   5.773   7.176 -0.1654  0.1769  0.3966
  544MOL0     H73379   4.267   6.003   7.249 -0.2306  1.0690 -0.5500
  544MOL0     H73380   4.092   6.002   7.259  1.7499  1.5360  0.1015
  544MOL0     H73381   4.149   5.782   7.407  0.3822 -0.1984  1.2202
  544MOL0     H73382   4.300   5.869   7.436 -0.9353 -1.9946  1.9002
  544MOL0     H73383   4.026   5.962   7.496  0.8029 -0.4761 -3.6102
  544MOL0     H73384   4.144   5.913   7.616 -1.2791 -0.1014 -0.3879
  544MOL0     H73385   4.295   6.101   7.523  0.5727  1.5324 -0.2140
  544MOL0     H73386   4.152   6.155   7.435 -3.7960  0.0809  0.4867
  544MOL0     H73387   4.139   6.287   7.631 -0.0699 -0.1066 -1.3439
  544MOL0     H73388   4.047   6.153   7.690  1.2028 -2.5780  0.9122
  544MOL0     H73389   4.354   6.165   7.732 -0.7234 -1.6156 -2.3554
  544MOL0     H73390   4.255   6.038   7.786  0.5426 -0.8788 -0.2124
  544MOL0     H73391   3.993   6.205   7.892  0.3294 -0.3323  1.6010
  544MOL0     H73392   3.945   6.343   8.161  0.6573 -1.4602 -0.8267
  544MOL0     H73393   4.064   6.461   8.192 -2.4616 -0.8989  1.9184
  544MOL0     H73394   3.864   6.473   7.958 -0.1511 -0.6524 -0.1436
  544MOL0     H73395   4.010   6.561   7.962  1.0897 -2.0072 -0.8528
  544MOL0     H73396   3.868   6.720   8.058 -1.4498  0.8535  1.8196
  544MOL0     H73397   3.897   6.640   8.214  0.4009 -0.6950 -0.5969
  544MOL0     H73398   3.706   6.505   8.193  0.5923 -1.4839 -3.2279
  544MOL0     H73399   3.670   6.565   8.035  3.2933  0.0533 -1.1485
  544MOL0     H73400   3.509   6.844   8.361 -0.3944  0.2854 -1.3286
  544MOL0     H73401   3.228   6.795   8.578  0.8616  3.3153  2.8246
  544MOL0     H73402   3.345   6.915   8.503 -0.1349 -1.2194 -0.2309
  544MOL0     H73403   3.189   6.908   8.447 -0.0511  1.9958  2.0902
  544MOL0     H73404   2.874   6.657   8.181  2.7495  1.1746  1.9903
  544MOL0     H73405   2.609   6.587   8.200 -2.5591  0.4241  2.1893
  544MOL0     H73406   2.297   6.508   8.469  0.1665 -0.2556  1.0142
  544MOL0     H73407   2.427   6.501   8.583  0.0296  1.8419  0.7646
  544MOL0     H73408   2.462   6.746   8.557  0.3827 -0.4797 -0.2528
  544MOL0     H73409   2.320   6.745   8.445  0.6847 -2.3744 -1.9537
  544MOL0     H73410   2.322   6.657   8.744  0.1644 -0.4073 -1.2147
  544MOL0     H73411   2.187   6.646   8.641  0.2392 -0.8748  2.1150
  544MOL0     H73412   2.306   6.891   8.761 -0.5629  2.4981 -0.5073
  544MOL0     H73413   2.209   6.895   8.608  2.0417 -2.2186 -1.5991
  544MOL0     H73414   2.129   6.773   8.869  1.2868 -1.3825 -0.8139
  544MOL0     H73415   2.028   6.826   8.718 -0.2036  2.7219 -0.1524
  544MOL0     H73416   2.158   7.009   8.917 -0.5030 -0.3308  1.2661
  544MOL0     H73417   2.041   7.043   8.785  0.7112 -0.1069 -0.3033
  544MOL0     H73418   2.012   6.882   9.026  1.0976 -1.3936 -2.0385
  544MOL0     H73419   1.880   6.898   8.910  0.9066 -0.1640 -0.6065
  544MOL0     H73420   1.875   7.161   8.953  2.0245  1.2888 -0.2934
  544MOL0     H73421   1.992   7.120   9.072 -1.2597  1.6027 -0.2777
  544MOL0     H73422   2.629   6.613   8.612 -2.6349 -0.2885 -2.5058
  544MOL0     H73423   2.888   6.677   8.590  0.8165 -0.5322 -0.4322
  544MOL0     H73424   3.279   6.443   8.194 -1.6334  0.9914 -0.0830
  544MOL0     H73425   3.483   6.489   8.135 -3.2606 -0.6695 -1.0865
  544MOL0     H73426   4.576   5.970   7.167 -0.2191  0.7546 -2.7037
  544MOL0     H73427   4.835   5.902   7.201  2.0256 -0.8511 -2.9370
  544MOL0     H73428   5.236   5.808   6.902 -0.4870 -1.4020 -1.1171
  544MOL0     H73429   5.475   5.747   6.932  0.2263  0.4211  0.3414
  544MOL0     H73430   5.576   5.502   7.289  0.8282  1.9226 -0.4928
  544MOL0     H73431   5.591   5.382   7.160  0.3598 -0.4011  0.5762
  544MOL0     H73432   5.816   5.453   7.277  0.2321  0.7960 -0.4267
  544MOL0     H73433   5.813   5.598   7.179  3.4323  0.0983 -0.9307
  544MOL0     H73434   5.762   5.409   6.972  0.4380 -2.7421  0.1556
  544MOL0     H73435   5.833   5.304   7.089  3.1224 -0.1588 -0.5247
  544MOL0     H73436   5.968   5.569   6.988  1.1330 -0.6444 -0.3505
  544MOL0     H73437   6.002   5.420   6.930  0.4601  1.3962 -0.6335
  544MOL0     H73438   6.237   5.423   7.284 -0.1842  1.5531  1.4006
  544MOL0     H73439   5.362   5.470   7.251  0.7947 -2.6953 -1.1239
  544MOL0     H73440   5.129   5.539   7.213 -1.3716 -0.5385 -0.5808
  545MOL0     O73441   1.520   4.680  10.240 -1.0991  0.1194 -0.4803
  545MOL0     C73442   1.611   4.735  10.302 -0.1928 -0.6260 -0.8045
  545MOL0     O73443   1.598   4.814  10.413 -0.0129  0.1674  0.2785
  545MOL0     C73444   1.471   4.841  10.460 -0.5731  0.5463  0.4758
  545MOL0     C73445   1.407   4.960  10.433  0.4333 -0.2681  0.2880
  545MOL0     C73446   1.279   4.980  10.481  0.0309 -0.7865  0.2226
  545MOL0     C73447   1.229   4.909  10.582 -0.3848 -0.3401 -0.0948
  545MOL0     O73448   1.107   4.941  10.639 -0.3228  0.2649  0.0402
  545MOL0     C73449   1.071   4.881  10.763  0.1508  0.5768 -0.3350
  545MOL0     C73450   0.949   4.958  10.822  0.1138 -0.3767 -0.3377
  545MOL0     C73451   0.977   5.115  10.828 -0.1984  0.5324  0.8653
  545MOL0     C73452   0.848   5.186  10.854  0.0643 -0.2381  0.4809
  545MOL0     C73453   0.876   5.338  10.836 -0.4257 -0.3147  0.1541
  545MOL0     C73454   0.743   5.414  10.803 -0.5260  0.0913  0.4388
  545MOL0     C73455   0.651   5.407  10.919  0.8043 -0.1249  0.5745
  545MOL0     C73456   0.546   5.516  10.908  0.5717 -0.0954 -0.0209
  545MOL0     N73457   0.470   5.524  11.032 -0.3851 -0.7608 -0.0924
  545MOL0     C73458   0.400   5.424  11.086  0.0007 -0.1088 -0.6536
  545MOL0     C73459   0.333   5.487  11.190 -0.1796 -0.5529 -0.7090
  545MOL0     C73460   0.238   5.413  11.284 -1.4321 -0.1855 -0.3769
  545MOL0     C73461   0.097   5.389  11.229  0.7794 -0.1802 -0.5631
  545MOL0     C73462   0.029   5.523  11.189  0.0925  0.7433  0.3368
  545MOL0     C73463  -0.107   5.491  11.132  0.4849 -0.7088  0.5858
  545MOL0     O73464  -0.179   5.609  11.137 -0.3540 -0.6132  0.0767
  545MOL0     C73465  -0.309   5.612  11.109 -0.1428 -0.0653  0.0008
  545MOL0     C73466  -0.385   5.719  11.156  0.0245  0.0084  0.0676
  545MOL0     C73467  -0.527   5.722  11.134 -0.2640  0.1602 -0.8736
  545MOL0     C73468  -0.598   5.837  11.191 -0.5525 -0.7276  0.7748
  545MOL0     C73469  -0.600   5.618  11.077 -0.3660  0.1281 -0.6919
  545MOL0     C73470  -0.748   5.619  11.052  0.2657 -0.1353  0.4910
  545MOL0     O73471  -0.788   5.487  11.034 -0.2586  0.1177 -0.4414
  545MOL0     C73472  -0.919   5.464  10.997  0.2886 -0.0802  0.3661
  545MOL0     C73473  -1.031   5.500  11.079 -0.3016  0.0818  0.0783
  545MOL0     C73474  -1.164   5.457  11.057 -0.3385 -0.8986  0.0582
  545MOL0     C73475  -1.190   5.382  10.947 -0.8055 -0.2164  0.5784
  545MOL0     O73476  -1.325   5.348  10.924  0.3601 -0.0038 -0.3448
  545MOL0     C73477  -1.370   5.289  10.802  0.4409  0.5370 -0.4151
  545MOL0     C73478  -1.514   5.329  10.765 -0.4776  0.0965  0.0761
  545MOL0     C73479  -1.516   5.413  10.635 -0.3468  0.0052  0.0996
  545MOL0     C73480  -1.660   5.469  10.623 -0.4604  0.0525 -0.3125
  545MOL0     C73481  -1.689   5.528  10.489  0.0144  0.6549 -0.4998
  545MOL0     C73482  -1.838   5.564  10.479  0.3383  0.4089  0.0545
  545MOL0     C73483  -1.862   5.611  10.333 -0.0551  0.1694 -0.4192
  545MOL0     C73484  -2.015   5.615  10.319 -0.0677  0.1229 -0.6131
  545MOL0    Cl73485  -2.052   5.667  10.148 -0.3899  0.0886  0.2456
  545MOL0     C73486  -1.082   5.354  10.862  0.5637 -0.2827 -0.6180
  545MOL0     C73487  -0.946   5.384  10.888  0.2300 -0.4792 -0.7326
  545MOL0     O73488  -0.817   5.720  11.049  0.8818  0.4492 -0.2867
  545MOL0     C73489  -0.522   5.510  11.024 -0.9338 -1.1134  0.1938
  545MOL0     C73490  -0.381   5.504  11.046  0.2809  0.5480 -0.6065
  545MOL0     N73491   0.343   5.622  11.193  0.0003  0.2288  0.3118
  545MOL0     N73492   0.427   5.643  11.095 -0.2434 -0.7014  0.0025
  545MOL0     C73493   1.287   4.792  10.610  0.0982  1.0411 -0.1355
  545MOL0     C73494   1.408   4.750  10.551  1.1776  0.2243 -0.6901
  545MOL0     C73495   1.747   4.698  10.260  0.9034 -0.1370 -0.1464
  545MOL0     C73496   1.854   4.734  10.339 -0.0860 -0.8860 -0.3585
  545MOL0     C73497   1.980   4.699  10.290  0.1997 -0.7242 -0.9701
  545MOL0     C73498   2.003   4.629  10.172 -0.1183  0.8498 -0.6519
  545MOL0     O73499   2.127   4.598  10.119 -0.2639 -0.6005 -0.2410
  545MOL0     C73500   2.200   4.722  10.086  0.5517 -0.5170 -0.1713
  545MOL0     C73501   2.313   4.689   9.984 -0.1057 -0.5468 -0.9786
  545MOL0     C73502   2.381   4.812   9.953  0.3905 -0.0425  0.2826
  545MOL0     C73503   2.520   4.764   9.908 -1.2086  0.0822  0.5670
  545MOL0     C73504   2.610   4.873   9.871 -0.6865  0.0559 -0.4481
  545MOL0     C73505   2.696   4.950   9.845  0.4193 -0.2200  0.3391
  545MOL0     C73506   1.894   4.589  10.101 -0.7138 -0.2279 -0.3727
  545MOL0     C73507   1.766   4.628  10.144 -0.1335  0.7742 -0.0216
  545MOL0     H73508   1.460   5.026  10.365 -0.4224  1.6199  1.3651
  545MOL0     H73509   1.225   5.069  10.451 -2.9844 -2.1405  1.2716
  545MOL0     H73510   1.029   4.781  10.751 -1.1561  1.3294 -2.5274
  545MOL0     H73511   1.160   4.874  10.827 -0.7125  1.6282  1.0486
  545MOL0     H73512   0.862   4.940  10.758  0.2290 -1.0076 -0.3190
  545MOL0     H73513   0.922   4.915  10.919  0.3441  1.3630  0.5515
  545MOL0     H73514   1.048   5.140  10.908 -1.5238 -1.5860  2.8504
  545MOL0     H73515   1.017   5.139  10.730 -0.9103 -1.9950 -0.1329
  545MOL0     H73516   0.774   5.151  10.782  2.1274  2.6799 -3.4252
  545MOL0     H73517   0.803   5.163  10.951 -1.4538 -0.9110 -0.3407
  545MOL0     H73518   0.920   5.387  10.923  0.2592  0.8266 -0.8002
  545MOL0     H73519   0.946   5.344  10.752  1.5532  2.5076  1.8639
  545MOL0     H73520   0.769   5.515  10.769  0.0420 -0.5309 -1.0405
  545MOL0     H73521   0.690   5.366  10.720  0.9761 -2.5018  0.8851
  545MOL0     H73522   0.594   5.315  10.907 -1.4871  1.5331 -3.1930
  545MOL0     H73523   0.697   5.413  11.018  0.3932 -0.2369  0.7740
  545MOL0     H73524   0.471   5.500  10.831  0.2687  1.7222 -0.1454
  545MOL0     H73525   0.598   5.610  10.888  3.1882 -1.4404 -0.0866
  545MOL0     H73526   0.422   5.319  11.067  2.5435 -0.2577  2.2791
  545MOL0     H73527   0.284   5.315  11.306 -1.6838 -1.1227 -3.6170
  545MOL0     H73528   0.229   5.473  11.375 -0.6203 -1.7174  0.7695
  545MOL0     H73529   0.033   5.352  11.310 -1.7100  0.3154 -2.2294
  545MOL0     H73530   0.103   5.309  11.155  3.3992  0.1805 -0.8297
  545MOL0     H73531   0.086   5.579  11.114  1.9496 -2.2430 -0.6422
  545MOL0     H73532   0.009   5.582  11.279 -0.7994  0.2335  0.4789
  545MOL0     H73533  -0.149   5.418  11.203 -1.7537  1.3913  1.5665
  545MOL0     H73534  -0.101   5.457  11.028  0.4687  0.8580  0.0504
  545MOL0     H73535  -0.341   5.803  11.208 -0.9916  0.4225  0.2752
  545MOL0     H73536  -0.687   5.807  11.248 -0.1465  0.2007  1.9252
  545MOL0     H73537  -0.537   5.898  11.258 -1.1578  0.7142  0.0558
  545MOL0     H73538  -0.629   5.897  11.105  1.0378 -0.7941  0.1276
  545MOL0     H73539  -1.018   5.551  11.174 -0.2123  3.4239 -1.5913
  545MOL0     H73540  -1.232   5.470  11.140  0.2105 -1.1752  0.5670
  545MOL0     H73541  -1.305   5.320  10.720 -1.2010 -0.7509 -2.2931
  545MOL0     H73542  -1.378   5.180  10.798 -1.2022  0.5406 -6.1508
  545MOL0     H73543  -1.580   5.242  10.758 -1.7071  1.0827 -1.5311
  545MOL0     H73544  -1.554   5.389  10.847  1.0890  0.9613  0.2470
  545MOL0     H73545  -1.500   5.342  10.554  1.3110  0.8028 -0.3059
  545MOL0     H73546  -1.449   5.500  10.630  1.3426 -1.3128 -1.0437
  545MOL0     H73547  -1.729   5.385  10.636 -1.0107  0.5932  0.3835
  545MOL0     H73548  -1.690   5.532  10.707 -2.1223 -1.8753  0.6414
  545MOL0     H73549  -1.658   5.460  10.409  0.3279  1.6742 -1.2690
  545MOL0     H73550  -1.629   5.620  10.483  0.8559  0.3644  2.3240
  545MOL0     H73551  -1.898   5.475  10.500 -1.3595  1.8441  1.6021
  545MOL0     H73552  -1.873   5.632  10.557 -1.1367 -2.8779  2.4869
  545MOL0     H73553  -1.826   5.524  10.277  1.4050 -0.9231  2.0375
  545MOL0     H73554  -1.813   5.704  10.300 -0.2877 -0.1029 -1.5877
  545MOL0     H73555  -2.068   5.676  10.393  0.8181 -2.4420  2.3750
  545MOL0     H73556  -2.061   5.518  10.341 -1.5893  0.2642 -2.8310
  545MOL0     H73557  -1.098   5.300  10.770 -0.5238  1.1498 -1.3061
  545MOL0     H73558  -0.866   5.345  10.827 -0.9506 -5.0070  0.2368
  545MOL0     H73559  -0.560   5.429  10.963  0.4531 -1.1602 -0.6445
  545MOL0     H73560  -0.334   5.421  10.995 -0.5347 -0.8514  0.8233
  545MOL0     H73561   1.249   4.723  10.685  2.2318  0.4744  0.5048
  545MOL0     H73562   1.451   4.657  10.585  2.1670  1.0667  0.4321
  545MOL0     H73563   1.844   4.787  10.434 -1.8116 -0.9356 -0.4779
  545MOL0     H73564   2.061   4.730  10.356 -2.3517 -0.1728  2.1429
  545MOL0     H73565   2.133   4.796  10.040 -0.3885 -1.1111  0.2165
  545MOL0     H73566   2.247   4.766  10.174  1.3751  0.7752 -1.2169
  545MOL0     H73567   2.275   4.647   9.891  0.4652  0.4874 -1.7016
  545MOL0     H73568   2.385   4.625  10.036  3.1356  1.9678 -2.0494
  545MOL0     H73569   2.386   4.876  10.042  2.3366 -0.9172  0.8586
  545MOL0     H73570   2.336   4.864   9.868  0.2845  0.4195  0.6197
  545MOL0     H73571   2.522   4.693   9.825  0.6686 -0.8120  1.3254
  545MOL0     H73572   2.571   4.704   9.983  0.7260 -2.5792 -2.5963
  545MOL0     H73573   2.769   5.026   9.824 -0.1827  0.5953  1.0903
  545MOL0     H73574   1.907   4.528  10.012  0.4338 -2.5392  1.2835
  545MOL0     H73575   1.681   4.588  10.091  0.8522 -2.2691  0.4971
  546MOL0     O73576   0.852   8.148   6.342 -0.9836  1.2779 -0.1894
  546MOL0     C73577   0.866   8.248   6.272 -0.1570  0.8237  0.9112
  546MOL0     O73578   0.766   8.308   6.203 -0.1114 -0.6568 -0.6499
  546MOL0     C73579   0.642   8.252   6.192  0.1649  0.1752 -0.1025
  546MOL0     C73580   0.614   8.112   6.204 -1.3770 -0.8939  0.6393
  546MOL0     C73581   0.484   8.067   6.216 -0.0933  0.0749 -0.6232
  546MOL0     C73582   0.379   8.156   6.208  0.3580  0.5174  0.1680
  546MOL0     O73583   0.258   8.096   6.225 -0.0698 -0.2176  0.3323
  546MOL0     C73584   0.136   8.178   6.234  0.0326  0.3837 -0.1404
  546MOL0     C73585   0.023   8.078   6.225 -0.4141  0.2927  0.3842
  546MOL0     C73586  -0.119   8.142   6.244  0.0832  0.1767 -0.7705
  546MOL0     C73587  -0.217   8.056   6.157 -0.2330  0.3131  0.0956
  546MOL0     C73588  -0.358   8.103   6.182  0.0603 -0.2961 -0.3321
  546MOL0     C73589  -0.450   8.034   6.085  0.1338  0.1872  0.3491
  546MOL0     C73590  -0.569   8.116   6.016  0.4752 -0.1398  0.4415
  546MOL0     C73591  -0.686   8.030   5.981 -0.0533 -0.8264 -0.1284
  546MOL0     N73592  -0.803   8.117   5.939 -0.1324 -0.1678  0.0067
  546MOL0     C73593  -0.818   8.182   5.821  0.6003 -0.7693 -0.1922
  546MOL0     C73594  -0.941   8.234   5.818  0.7493  1.5027 -0.2779
  546MOL0     C73595  -1.007   8.310   5.709  0.5764  0.4769  0.3225
  546MOL0     C73596  -1.059   8.445   5.756 -0.1146 -0.2136  0.2834
  546MOL0     C73597  -1.118   8.532   5.648  0.0604 -0.5382 -0.3134
  546MOL0     C73598  -1.189   8.656   5.702 -0.0022  1.0173 -0.2629
  546MOL0     O73599  -1.231   8.738   5.589 -0.4299  0.4941  0.2873
  546MOL0     C73600  -1.358   8.718   5.542  0.8692 -0.1695 -0.1525
  546MOL0     C73601  -1.408   8.796   5.438 -0.1928  0.8932  0.4158
  546MOL0     C73602  -1.531   8.782   5.370  0.0872 -0.2187  0.3367
  546MOL0     C73603  -1.561   8.855   5.237  0.1831 -0.2858  0.2243
  546MOL0     C73604  -1.620   8.687   5.424 -0.4357 -0.4343 -0.5605
  546MOL0     C73605  -1.754   8.663   5.374 -0.3552 -0.6420  0.1820
  546MOL0     O73606  -1.801   8.542   5.380  0.1870  0.2866 -0.5409
  546MOL0     C73607  -1.910   8.518   5.299 -0.1979  0.4693  1.3562
  546MOL0     C73608  -1.887   8.506   5.161 -0.2337  1.0936 -0.6725
  546MOL0     C73609  -1.991   8.468   5.068 -0.9961 -1.0255  0.1288
  546MOL0     C73610  -2.123   8.455   5.110  0.5465  0.1630 -0.2792
  546MOL0     O73611  -2.224   8.408   5.030  0.0170 -0.2965  0.4731
  546MOL0     C73612  -2.196   8.361   4.896 -0.7227  0.3472  0.1307
  546MOL0     C73613  -2.144   8.214   4.912  0.3460  0.7832  0.1221
  546MOL0     C73614  -2.254   8.130   4.975  0.3990 -0.2716 -0.0695
  546MOL0     C73615  -2.211   8.023   5.063 -0.1275  0.2595 -0.2142
  546MOL0     C73616  -2.303   7.970   5.171 -0.0377 -0.6016 -0.3641
  546MOL0     C73617  -2.401   7.860   5.133  0.4606  0.0425 -0.0804
  546MOL0     C73618  -2.475   7.798   5.255 -0.1216  0.2357  0.4180
  546MOL0     C73619  -2.586   7.705   5.203 -0.4703  0.3725  0.0225
  546MOL0    Cl73620  -2.698   7.662   5.338 -0.0261 -0.4014 -0.3084
  546MOL0     C73621  -2.145   8.474   5.249  0.0669  0.1570 -0.4095
  546MOL0     C73622  -2.044   8.505   5.343  0.1056 -0.3036  0.2133
  546MOL0     O73623  -1.816   8.763   5.341  0.1563 -0.2181  0.2082
  546MOL0     C73624  -1.575   8.598   5.516  0.3341  0.5317 -0.1003
  546MOL0     C73625  -1.446   8.608   5.571  0.2489  0.0133  0.4330
  546MOL0     N73626  -0.995   8.215   5.945  0.5439 -0.1371 -0.2912
  546MOL0     N73627  -0.913   8.142   6.012  0.3119  0.2950 -0.0493
  546MOL0     C73628   0.406   8.294   6.173  0.8191  0.5742  0.1361
  546MOL0     C73629   0.538   8.337   6.171 -0.3858 -0.1078  0.2470
  546MOL0     C73630   1.002   8.298   6.252  0.5508  0.4456  0.3711
  546MOL0     C73631   1.025   8.407   6.167  0.4790 -0.1875 -0.0715
  546MOL0     C73632   1.159   8.455   6.154  0.3579 -0.5567  0.1529
  546MOL0     C73633   1.270   8.399   6.219  0.7997 -0.1156  0.1855
  546MOL0     O73634   1.385   8.474   6.208  0.1908 -0.4502 -0.1067
  546MOL0     C73635   1.501   8.428   6.272 -0.1274  0.0877  0.3938
  546MOL0     C73636   1.627   8.509   6.224  0.6246  0.7567  0.1236
  546MOL0     C73637   1.755   8.489   6.319  0.2661  0.8715  0.4324
  546MOL0     C73638   1.869   8.580   6.269 -0.0499 -0.0618  0.9336
  546MOL0     C73639   1.871   8.713   6.328  0.0948 -0.7726 -0.3857
  546MOL0     C73640   1.866   8.818   6.386 -0.8689  0.5085 -0.3859
  546MOL0     C73641   1.239   8.287   6.300  0.1540  0.0444  0.4583
  546MOL0     C73642   1.116   8.230   6.307  1.4728 -0.0099  0.4050
  546MOL0     H73643   0.691   8.036   6.208 -1.7933 -1.3061  0.8118
  546MOL0     H73644   0.463   7.961   6.221  1.7467 -0.3116 -0.6936
  546MOL0     H73645   0.128   8.229   6.330 -0.6326 -1.3953  0.8113
  546MOL0     H73646   0.133   8.248   6.150  2.3850 -0.4842 -1.0380
  546MOL0     H73647   0.039   8.019   6.135 -1.6179  0.8630 -0.2331
  546MOL0     H73648   0.037   8.011   6.310 -0.2972  0.2971  0.3682
  546MOL0     H73649  -0.155   8.130   6.347 -0.9596 -0.3276 -1.1869
  546MOL0     H73650  -0.133   8.249   6.224  0.5297  0.0176 -1.9702
  546MOL0     H73651  -0.183   8.073   6.055 -1.8961  2.5484 -0.1637
  546MOL0     H73652  -0.211   7.950   6.185 -4.5791 -0.3579 -0.7137
  546MOL0     H73653  -0.395   8.084   6.283 -1.2935  0.6037 -0.6313
  546MOL0     H73654  -0.354   8.211   6.164  2.0029  0.4366  3.5594
  546MOL0     H73655  -0.389   7.995   6.003  0.4264 -1.5106  1.3264
  546MOL0     H73656  -0.489   7.946   6.136 -2.7837  1.3927  0.4381
  546MOL0     H73657  -0.597   8.206   6.071  1.1856 -0.2650  1.0234
  546MOL0     H73658  -0.522   8.152   5.924  1.1344 -0.4235  0.6631
  546MOL0     H73659  -0.722   7.975   6.068  0.6054 -1.1444 -0.0506
  546MOL0     H73660  -0.660   7.960   5.902  1.9907  1.3522 -1.5290
  546MOL0     H73661  -0.748   8.192   5.738  0.7519 -0.0136  0.0159
  546MOL0     H73662  -0.935   8.325   5.627  0.0165 -2.7353 -0.8844
  546MOL0     H73663  -1.087   8.248   5.667  0.4557  0.0507  1.1801
  546MOL0     H73664  -0.969   8.507   5.769 -0.8479  0.7724  0.7454
  546MOL0     H73665  -1.121   8.435   5.845 -0.1510  2.0297  0.5564
  546MOL0     H73666  -1.197   8.488   5.585 -0.4783  1.7087 -1.2827
  546MOL0     H73667  -1.040   8.581   5.590 -0.9364  0.2286 -1.0342
  546MOL0     H73668  -1.117   8.705   5.768  1.7580  0.4322 -1.6748
  546MOL0     H73669  -1.275   8.626   5.763  0.4986 -0.2200 -0.1464
  546MOL0     H73670  -1.346   8.878   5.403 -1.5236  2.5340  1.6986
  546MOL0     H73671  -1.608   8.792   5.160 -1.8627 -1.4309  2.2796
  546MOL0     H73672  -1.620   8.943   5.264  0.1838 -0.0510 -0.5197
  546MOL0     H73673  -1.471   8.892   5.186 -0.6147 -0.8402 -1.7015
  546MOL0     H73674  -1.789   8.527   5.120  0.4551 -0.6678 -0.0207
  546MOL0     H73675  -1.959   8.458   4.965 -1.3367  0.6939 -0.1742
  546MOL0     H73676  -2.290   8.353   4.839  0.0411  0.1348 -1.1317
  546MOL0     H73677  -2.147   8.433   4.830 -1.1331  2.2668  1.8063
  546MOL0     H73678  -2.125   8.185   4.808  0.8242 -0.2562  0.4958
  546MOL0     H73679  -2.051   8.215   4.969  1.5882 -3.5289 -1.4815
  546MOL0     H73680  -2.325   8.092   4.901  0.0772  1.0869 -0.4874
  546MOL0     H73681  -2.328   8.189   5.031 -0.9212 -0.9156 -1.0865
  546MOL0     H73682  -2.177   7.940   5.001 -0.0028  0.7379 -0.7955
  546MOL0     H73683  -2.119   8.056   5.112  2.3477 -0.9330 -3.6873
  546MOL0     H73684  -2.356   8.054   5.218  1.3094  0.2129 -0.2238
  546MOL0     H73685  -2.236   7.941   5.253  1.4254  2.1550 -0.4503
  546MOL0     H73686  -2.477   7.911   5.074  0.7861  0.5846 -0.0475
  546MOL0     H73687  -2.348   7.783   5.076  1.2106  0.8968 -0.5559
  546MOL0     H73688  -2.526   7.875   5.314 -2.1190 -1.6354  1.2615
  546MOL0     H73689  -2.401   7.744   5.313  0.7932  1.2405  0.2108
  546MOL0     H73690  -2.529   7.620   5.165  3.6725  3.0334 -0.3668
  546MOL0     H73691  -2.636   7.751   5.118  0.6547  1.3451 -0.1265
  546MOL0     H73692  -2.246   8.455   5.282 -0.8983 -1.7250 -3.9544
  546MOL0     H73693  -2.068   8.527   5.447 -2.1876 -1.6529  0.0394
  546MOL0     H73694  -1.635   8.518   5.557  1.6834 -0.7887 -0.6037
  546MOL0     H73695  -1.421   8.536   5.648  1.6610 -1.4719 -1.3293
  546MOL0     H73696   0.328   8.367   6.153 -0.8341 -0.9270  0.7889
  546MOL0     H73697   0.551   8.444   6.158 -0.8540 -0.0029  0.6300
  546MOL0     H73698   0.949   8.462   6.113  1.8256 -1.0940 -3.1286
  546MOL0     H73699   1.167   8.546   6.095 -0.2293 -0.2565  0.5269
  546MOL0     H73700   1.492   8.429   6.381  2.1168  0.2471  0.6187
  546MOL0     H73701   1.521   8.324   6.245 -0.3560 -0.7943  3.2749
  546MOL0     H73702   1.603   8.614   6.203 -0.4581  0.0133 -2.8447
  546MOL0     H73703   1.636   8.459   6.128 -0.5624  1.7878 -0.5544
  546MOL0     H73704   1.794   8.387   6.312  1.9712  1.5589 -0.8869
  546MOL0     H73705   1.730   8.514   6.423 -2.6970 -0.0752  0.0163
  546MOL0     H73706   1.858   8.589   6.160 -1.7323  1.2902  1.1800
  546MOL0     H73707   1.962   8.530   6.299  0.4173  0.2233 -0.0032
  546MOL0     H73708   1.862   8.904   6.449  1.2414  1.2267 -1.1679
  546MOL0     H73709   1.319   8.242   6.358  2.4296  0.5780 -2.0688
  546MOL0     H73710   1.102   8.141   6.368 -3.4551  1.7989  2.4061
  547MOL0     O73711   4.494   0.880   2.563 -0.4163 -0.2188  0.8889
  547MOL0     C73712   4.533   0.937   2.456  0.2936  0.0971 -0.0496
  547MOL0     O73713   4.462   0.925   2.335 -0.0381  0.2442  0.2672
  547MOL0     C73714   4.354   0.839   2.316  0.5828 -0.0116 -0.3106
  547MOL0     C73715   4.329   0.803   2.185  0.4293  0.2653 -0.3859
  547MOL0     C73716   4.201   0.783   2.135  0.5469  0.6549  0.2339
  547MOL0     C73717   4.095   0.765   2.230 -1.1066  0.4484  0.0285
  547MOL0     O73718   3.968   0.728   2.207 -0.2136 -0.9183  0.0789
  547MOL0     C73719   3.925   0.671   2.092 -0.3973  0.2607  1.0050
  547MOL0     C73720   3.786   0.625   2.124  0.5904  0.3804 -0.0419
  547MOL0     C73721   3.694   0.616   2.006  0.0200  0.6176  0.4896
  547MOL0     C73722   3.547   0.627   2.046 -1.0348  0.1516  0.6295
  547MOL0     C73723   3.465   0.681   1.932 -0.3869 -0.3511 -0.3304
  547MOL0     C73724   3.468   0.829   1.897 -0.1186 -0.0705  0.5364
  547MOL0     C73725   3.366   0.870   1.782 -0.4045  0.0594  0.2327
  547MOL0     C73726   3.374   1.022   1.757 -0.6424  0.7596  0.1561
  547MOL0     N73727   3.265   1.071   1.676 -0.3692  0.7796 -0.3216
  547MOL0     C73728   3.136   1.119   1.720 -0.1141 -0.3182 -0.3047
  547MOL0     C73729   3.066   1.126   1.607 -0.4680  0.4713 -0.3490
  547MOL0     C73730   2.919   1.174   1.593 -0.0849  0.1145  0.9072
  547MOL0     C73731   2.815   1.067   1.583 -0.2991  0.4946 -0.3103
  547MOL0     C73732   2.736   1.028   1.702  0.4663 -0.3126 -1.1472
  547MOL0     C73733   2.640   1.129   1.757  0.3702 -0.6322  0.1187
  547MOL0     O73734   2.574   1.086   1.875 -0.0456  0.6755  0.4378
  547MOL0     C73735   2.442   1.036   1.869  0.6732  0.8864  0.0913
  547MOL0     C73736   2.377   1.015   1.994 -0.3735 -0.2369 -0.4383
  547MOL0     C73737   2.246   0.975   2.012  0.5402  0.1533 -0.1704
  547MOL0     C73738   2.202   0.959   2.150  0.5251 -0.5974 -0.7288
  547MOL0     C73739   2.171   0.946   1.898  0.7623  0.4486 -1.0724
  547MOL0     C73740   2.031   0.900   1.901 -0.2016  0.2904 -0.0392
  547MOL0     O73741   1.990   0.837   1.780 -0.5395 -0.3732  0.0502
  547MOL0     C73742   1.863   0.799   1.752 -0.5037 -0.4214 -1.2337
  547MOL0     C73743   1.813   0.798   1.624  0.0554  0.2563 -0.0834
  547MOL0     C73744   1.679   0.764   1.593 -0.2563 -0.4716 -0.0977
  547MOL0     C73745   1.594   0.745   1.701 -0.6393 -0.0381 -0.1450
  547MOL0     O73746   1.467   0.704   1.666 -0.4274  0.1918 -0.0250
  547MOL0     C73747   1.364   0.709   1.774 -0.3062 -0.0034  0.5343
  547MOL0     C73748   1.230   0.685   1.725  0.2704 -0.6485  0.5381
  547MOL0     C73749   1.123   0.721   1.827 -0.1290 -0.5341 -0.5795
  547MOL0     C73750   0.980   0.722   1.775  0.4330  0.1940  0.6395
  547MOL0     C73751   0.886   0.758   1.889  0.4482 -0.1077  0.0895
  547MOL0     C73752   0.741   0.789   1.824 -0.6498 -0.2660 -0.9651
  547MOL0     C73753   0.633   0.781   1.922 -0.3574 -0.0482  0.0414
  547MOL0     C73754   0.491   0.786   1.866 -0.2989  0.5130  0.1435
  547MOL0    Cl73755   0.429   0.949   1.842 -0.5223  0.3066  0.2619
  547MOL0     C73756   1.638   0.751   1.831  0.6240  0.1875 -0.0292
  547MOL0     C73757   1.771   0.765   1.852 -0.2905 -0.2874  0.0124
  547MOL0     O73758   1.956   0.932   1.993  0.2642  0.4710  0.7304
  547MOL0     C73759   2.237   0.950   1.772  0.3074  0.5927  0.1508
  547MOL0     C73760   2.369   0.996   1.758 -0.4432 -0.0579 -0.4053
  547MOL0     N73761   3.141   1.081   1.500 -0.5447  0.3014 -0.0778
  547MOL0     N73762   3.259   1.049   1.544 -0.2564  0.1613  0.0774
  547MOL0     C73763   4.125   0.779   2.363 -0.7743  0.5684 -0.9371
  547MOL0     C73764   4.251   0.812   2.406  0.1373 -0.3690 -0.7490
  547MOL0     C73765   4.653   1.024   2.466 -0.1683  1.2993  0.0426
  547MOL0     C73766   4.718   1.055   2.588  0.1204 -0.2164 -0.1243
  547MOL0     C73767   4.827   1.138   2.587  0.0080 -0.6007 -0.1813
  547MOL0     C73768   4.892   1.184   2.474 -0.4398 -0.5974 -0.3838
  547MOL0     O73769   4.988   1.282   2.484  0.5462 -0.8726 -0.2437
  547MOL0     C73770   5.101   1.277   2.392  0.3213 -0.1555  0.2236
  547MOL0     C73771   5.235   1.282   2.459  0.0992  0.3155 -0.1579
  547MOL0     C73772   5.253   1.403   2.556  0.5514 -0.1706  0.2795
  547MOL0     C73773   5.375   1.402   2.647  0.2790  0.0798  0.8821
  547MOL0     C73774   5.504   1.426   2.578  0.0905 -0.2110  0.7114
  547MOL0     C73775   5.602   1.448   2.510 -0.3171  0.2081 -0.0154
  547MOL0     C73776   4.835   1.150   2.353 -0.8127  0.1328 -0.2582
  547MOL0     C73777   4.715   1.074   2.346  0.5956 -1.1554  0.4527
  547MOL0     H73778   4.413   0.808   2.117  1.1637  3.4247  0.5789
  547MOL0     H73779   4.180   0.778   2.029  0.3459 -2.1541  0.3440
  547MOL0     H73780   3.927   0.748   2.014  3.7408 -0.5531  0.0415
  547MOL0     H73781   3.992   0.591   2.060 -0.6458  1.4928 -3.1486
  547MOL0     H73782   3.785   0.528   2.174 -1.3503  0.1401 -0.4390
  547MOL0     H73783   3.738   0.687   2.200  0.6030  0.6428 -0.2445
  547MOL0     H73784   3.723   0.701   1.944 -0.1838  0.9342  0.8243
  547MOL0     H73785   3.706   0.521   1.952 -1.4797 -0.7397  2.3722
  547MOL0     H73786   3.511   0.530   2.082  1.2519 -0.1279  2.3490
  547MOL0     H73787   3.547   0.698   2.129 -0.0924 -0.0640  0.8191
  547MOL0     H73788   3.483   0.625   1.840  0.1726 -2.0065  0.7421
  547MOL0     H73789   3.362   0.659   1.961 -1.0108 -1.1925 -2.9190
  547MOL0     H73790   3.442   0.886   1.987  0.0249  0.7178  0.0930
  547MOL0     H73791   3.573   0.848   1.875  0.6091 -2.3705  1.7559
  547MOL0     H73792   3.389   0.818   1.688  2.4702  0.8621  0.3943
  547MOL0     H73793   3.263   0.850   1.812 -0.9456  0.3889 -1.3200
  547MOL0     H73794   3.469   1.043   1.707 -0.0424 -2.7344 -0.4714
  547MOL0     H73795   3.363   1.079   1.849 -0.6656  0.8747  0.0826
  547MOL0     H73796   3.088   1.138   1.815 -0.4561  0.3976 -0.6141
  547MOL0     H73797   2.899   1.246   1.673 -2.7290  0.3055  0.1555
  547MOL0     H73798   2.920   1.234   1.501 -1.4599  1.5291  1.7680
  547MOL0     H73799   2.870   0.976   1.557  1.7297  0.7392  2.6109
  547MOL0     H73800   2.754   1.088   1.496  0.4098 -1.1436 -1.2421
  547MOL0     H73801   2.804   0.995   1.781 -3.2349 -0.2780  2.4339
  547MOL0     H73802   2.679   0.937   1.679  0.6393  0.0652 -3.2310
  547MOL0     H73803   2.570   1.148   1.675 -3.6935 -3.2799  2.5877
  547MOL0     H73804   2.693   1.221   1.780 -0.8763 -0.2264  1.4975
  547MOL0     H73805   2.441   1.041   2.078 -0.6084  2.6101 -1.0533
  547MOL0     H73806   2.290   0.930   2.208 -1.6481 -0.0591  3.2092
  547MOL0     H73807   2.173   1.056   2.190 -0.2527 -0.7715 -0.8581
  547MOL0     H73808   2.112   0.899   2.163  0.8585 -0.9306  0.0871
  547MOL0     H73809   1.879   0.824   1.541  1.7945 -2.8035  0.1687
  547MOL0     H73810   1.650   0.764   1.489 -2.0526  2.8172  0.2594
  547MOL0     H73811   1.377   0.623   1.840  3.7492 -2.1638 -2.5516
  547MOL0     H73812   1.367   0.809   1.818  0.2476  0.3763 -0.3246
  547MOL0     H73813   1.216   0.744   1.634  2.6788 -1.3529 -0.3487
  547MOL0     H73814   1.203   0.583   1.697 -3.2390  1.1600 -4.0826
  547MOL0     H73815   1.153   0.819   1.866  0.2515 -0.3560 -1.3035
  547MOL0     H73816   1.128   0.644   1.905  2.7153 -0.1281 -0.2255
  547MOL0     H73817   0.974   0.795   1.694  0.7097  1.5152  1.7792
  547MOL0     H73818   0.948   0.625   1.735 -0.1943  0.5438  0.2573
  547MOL0     H73819   0.919   0.841   1.952 -0.6534  0.4424 -0.0327
  547MOL0     H73820   0.877   0.661   1.938 -0.1636 -1.1218 -1.9177
  547MOL0     H73821   0.742   0.888   1.777 -0.5391  0.6962  0.9598
  547MOL0     H73822   0.721   0.708   1.753 -0.8640 -3.2245  2.2263
  547MOL0     H73823   0.640   0.858   2.000  1.6028 -0.0492 -0.0926
  547MOL0     H73824   0.645   0.687   1.975  1.5296  1.3333  2.2655
  547MOL0     H73825   0.421   0.746   1.940 -0.3354 -1.9762 -1.1047
  547MOL0     H73826   0.482   0.725   1.776 -0.3791  1.6117 -0.6108
  547MOL0     H73827   1.579   0.735   1.921 -0.8444 -4.5953 -1.5398
  547MOL0     H73828   1.797   0.750   1.956  1.2716  0.0882 -0.2977
  547MOL0     H73829   2.191   0.914   1.681  2.4088  1.0036 -1.1282
  547MOL0     H73830   2.429   1.001   1.667 -0.7270  0.3698 -0.5722
  547MOL0     H73831   4.047   0.757   2.435 -1.1319 -0.6156 -1.6670
  547MOL0     H73832   4.279   0.830   2.510  1.8878  1.2532 -1.4435
  547MOL0     H73833   4.681   1.020   2.684  0.5628  0.1545  0.1850
  547MOL0     H73834   4.870   1.189   2.672 -1.2025  2.6748 -1.3801
  547MOL0     H73835   5.097   1.180   2.341  2.3045 -1.5375  2.4945
  547MOL0     H73836   5.085   1.368   2.332 -1.6718  0.7151  1.9530
  547MOL0     H73837   5.317   1.281   2.387 -0.4483 -2.4436 -0.8553
  547MOL0     H73838   5.245   1.186   2.510 -1.7805 -0.5576 -1.3330
  547MOL0     H73839   5.159   1.421   2.609  0.0205 -2.0246  0.0142
  547MOL0     H73840   5.268   1.481   2.480 -0.0255  0.4190  0.7515
  547MOL0     H73841   5.384   1.300   2.686  0.0648 -0.0545  0.5884
  547MOL0     H73842   5.375   1.477   2.727 -0.5560 -0.1514  1.1018
  547MOL0     H73843   5.686   1.476   2.450 -1.1378  0.8304 -0.9013
  547MOL0     H73844   4.858   1.205   2.262 -0.0135 -0.6971 -0.5742
  547MOL0     H73845   4.664   1.072   2.250  1.3796  0.6984 -0.0437
  548MOL0     O73846   3.398   1.669   0.104 -0.6942 -0.2939 -1.1914
  548MOL0     C73847   3.433   1.732   0.005 -0.6162  0.6776 -0.0161
  548MOL0     O73848   3.356   1.804  -0.074  0.0774 -0.0247 -0.0888
  548MOL0     C73849   3.212   1.788  -0.075 -1.4751 -0.1674  0.6623
  548MOL0     C73850   3.157   1.662  -0.044 -0.3644  0.0011 -0.2910
  548MOL0     C73851   3.023   1.638  -0.061  0.5110 -0.4657 -0.1978
  548MOL0     C73852   2.932   1.740  -0.099 -0.8718 -0.6466  0.3995
  548MOL0     O73853   2.803   1.703  -0.107  0.1047 -0.3017  0.1260
  548MOL0     C73854   2.704   1.799  -0.154  0.4911 -0.2008  0.2279
  548MOL0     C73855   2.562   1.735  -0.183  0.1963  0.5815  0.5697
  548MOL0     C73856   2.455   1.838  -0.224 -0.2680 -0.7711 -0.0223
  548MOL0     C73857   2.339   1.779  -0.300  1.5601  0.6041 -1.0547
  548MOL0     C73858   2.203   1.833  -0.248 -0.5202 -0.1290 -0.0159
  548MOL0     C73859   2.074   1.758  -0.297 -0.8314  0.1530 -0.2624
  548MOL0     C73860   1.986   1.717  -0.187  0.7392 -0.3042 -0.1432
  548MOL0     C73861   1.909   1.838  -0.129  0.5546 -1.3310  0.0544
  548MOL0     N73862   1.779   1.858  -0.200 -0.5004 -0.0552 -0.3368
  548MOL0     C73863   1.731   1.957  -0.277  0.2451  0.1678  0.3588
  548MOL0     C73864   1.597   1.923  -0.305 -0.5532 -0.3054 -0.1993
  548MOL0     C73865   1.513   2.018  -0.376 -0.1403  0.7047  0.3732
  548MOL0     C73866   1.403   2.075  -0.293 -0.7100  0.1105  0.4053
  548MOL0     C73867   1.297   1.986  -0.231  0.4434 -1.3700  0.3722
  548MOL0     C73868   1.215   1.895  -0.329  0.1571 -0.0011 -0.1283
  548MOL0     O73869   1.124   1.963  -0.421 -0.2100 -0.0908  0.1407
  548MOL0     C73870   1.027   1.900  -0.486 -0.2344 -0.1319 -0.3278
  548MOL0     C73871   0.985   1.769  -0.467  0.1609  0.5270  0.4666
  548MOL0     C73872   0.869   1.722  -0.537 -0.5313 -0.7049 -0.3959
  548MOL0     C73873   0.806   1.592  -0.490  0.2273 -0.1430  0.2610
  548MOL0     C73874   0.809   1.804  -0.641 -0.2977 -0.4517 -0.3997
  548MOL0     C73875   0.695   1.767  -0.724  0.6131 -0.4402 -0.3823
  548MOL0     O73876   0.622   1.654  -0.692 -0.0826  0.5440  0.0892
  548MOL0     C73877   0.519   1.612  -0.779 -0.1121 -0.3806  0.0758
  548MOL0     C73878   0.403   1.686  -0.795  0.1803  0.1399 -0.2581
  548MOL0     C73879   0.303   1.647  -0.892  0.0349  0.1892  0.2738
  548MOL0     C73880   0.334   1.544  -0.982  0.0088  0.1082  0.1471
  548MOL0     O73881   0.247   1.527  -1.083  0.6593  0.8741  0.2415
  548MOL0     C73882   0.277   1.572  -1.218  0.3379  0.1791 -0.0059
  548MOL0     C73883   0.273   1.453  -1.308 -0.5001 -0.0497 -0.1303
  548MOL0     C73884   0.131   1.418  -1.341 -0.5665  0.2803 -0.0217
  548MOL0     C73885   0.119   1.292  -1.437  0.3925  0.3084 -0.2471
  548MOL0     C73886  -0.003   1.293  -1.534 -0.4462  0.0156 -0.0238
  548MOL0     C73887  -0.136   1.313  -1.472 -0.3572 -0.2481 -0.1572
  548MOL0     C73888  -0.240   1.339  -1.589  1.0029 -0.2836  0.5247
  548MOL0     C73889  -0.381   1.293  -1.550  0.5166 -0.0012  1.1952
  548MOL0    Cl73890  -0.454   1.429  -1.447 -0.0600  0.1513  0.3062
  548MOL0     C73891   0.448   1.471  -0.970  0.1974  0.0186 -0.2876
  548MOL0     C73892   0.538   1.508  -0.871 -0.0866  0.2714  0.1709
  548MOL0     O73893   0.686   1.826  -0.831  0.1473 -0.4545  0.3191
  548MOL0     C73894   0.867   1.934  -0.661 -0.7871 -0.4678 -0.2992
  548MOL0     C73895   0.969   1.981  -0.577 -0.0244 -0.4439 -0.1895
  548MOL0     N73896   1.581   1.804  -0.250  0.4669  0.5154 -0.0320
  548MOL0     N73897   1.684   1.762  -0.185  0.6234  0.0979  0.5543
  548MOL0     C73898   2.996   1.872  -0.124  0.1726  0.5715 -0.5142
  548MOL0     C73899   3.137   1.891  -0.113 -0.1043 -0.3721  0.5096
  548MOL0     C73900   3.581   1.725  -0.015  0.0680 -0.1218  0.8541
  548MOL0     C73901   3.653   1.754  -0.129  0.0886 -0.0468  0.3798
  548MOL0     C73902   3.790   1.747  -0.140 -1.1840 -0.0446 -0.2256
  548MOL0     C73903   3.865   1.688  -0.044  0.1874 -0.3080  0.2567
  548MOL0     O73904   4.002   1.657  -0.035 -0.1277 -0.3333 -0.1850
  548MOL0     C73905   4.076   1.691  -0.154  0.4039  0.0271 -0.2887
  548MOL0     C73906   4.122   1.838  -0.150 -0.0040  0.3942 -1.0125
  548MOL0     C73907   4.217   1.860  -0.265 -0.9353  0.7391  0.2726
  548MOL0     C73908   4.285   2.001  -0.284  0.2248 -0.1847 -0.6856
  548MOL0     C73909   4.352   2.009  -0.415  0.0134 -0.2587 -0.1069
  548MOL0     C73910   4.424   2.002  -0.517 -0.7972  0.3393  0.4666
  548MOL0     C73911   3.800   1.644   0.071  0.6470 -0.1794  0.0566
  548MOL0     C73912   3.661   1.667   0.088 -0.0631  0.3595  0.3013
  548MOL0     H73913   3.213   1.572  -0.023 -0.7868  0.0214  1.0658
  548MOL0     H73914   3.004   1.539  -0.023  4.0134 -1.5180 -0.7722
  548MOL0     H73915   2.688   1.883  -0.085 -0.1888  0.4422 -0.6891
  548MOL0     H73916   2.745   1.840  -0.246 -1.5689 -1.0324 -1.1388
  548MOL0     H73917   2.576   1.656  -0.258  0.4630 -0.9235  2.1345
  548MOL0     H73918   2.534   1.686  -0.089  0.5199 -1.6785 -0.4405
  548MOL0     H73919   2.416   1.891  -0.136  0.3089 -0.6768  0.1806
  548MOL0     H73920   2.500   1.916  -0.286  2.0831 -0.7593  1.5689
  548MOL0     H73921   2.356   1.800  -0.406 -0.1039  0.6838 -1.3374
  548MOL0     H73922   2.336   1.673  -0.275 -2.3343  0.8811  0.2659
  548MOL0     H73923   2.206   1.824  -0.139  0.2162  0.1216 -0.0108
  548MOL0     H73924   2.203   1.936  -0.285  2.6298 -0.5357 -1.4585
  548MOL0     H73925   2.017   1.818  -0.369  0.6651  1.3517 -0.4990
  548MOL0     H73926   2.114   1.667  -0.342 -0.9179 -0.2432  0.4512
  548MOL0     H73927   1.912   1.639  -0.207  1.0911 -0.7730  0.3488
  548MOL0     H73928   2.043   1.683  -0.099  1.1643  3.1911  1.1062
  548MOL0     H73929   1.958   1.935  -0.142 -3.5864  1.4577  2.7346
  548MOL0     H73930   1.891   1.825  -0.022  0.9473 -1.0405  0.1565
  548MOL0     H73931   1.789   2.045  -0.301  0.3597 -0.0227 -0.0824
  548MOL0     H73932   1.580   2.096  -0.413  1.8210 -1.7921 -1.7592
  548MOL0     H73933   1.473   1.968  -0.466 -0.5599  0.3765  0.7328
  548MOL0     H73934   1.356   2.161  -0.342 -0.1179 -0.0605 -0.4820
  548MOL0     H73935   1.452   2.125  -0.209 -3.1349  1.4638  1.1177
  548MOL0     H73936   1.227   2.051  -0.178  2.0662  0.3164  0.5457
  548MOL0     H73937   1.352   1.922  -0.161  1.5208 -2.2036 -1.1912
  548MOL0     H73938   1.165   1.825  -0.261  0.5330 -0.8811 -0.7520
  548MOL0     H73939   1.281   1.832  -0.389  1.6057  2.3457 -1.1271
  548MOL0     H73940   1.029   1.703  -0.393  2.0406  1.2342  0.0312
  548MOL0     H73941   0.850   1.549  -0.399  0.4860 -1.5819 -0.5150
  548MOL0     H73942   0.698   1.607  -0.477  0.0836  1.6144 -2.2436
  548MOL0     H73943   0.821   1.515  -0.565 -1.8745 -1.0552  0.6928
  548MOL0     H73944   0.385   1.771  -0.730 -2.3814 -1.2116  0.9496
  548MOL0     H73945   0.216   1.709  -0.912  0.7119  1.3896  0.9183
  548MOL0     H73946   0.195   1.638  -1.249 -1.9664 -2.2576  0.5134
  548MOL0     H73947   0.376   1.619  -1.224  0.9256 -0.5580  2.6165
  548MOL0     H73948   0.324   1.466  -1.404 -1.4357 -2.5314 -1.0531
  548MOL0     H73949   0.335   1.376  -1.262  0.4009  0.2888 -0.7697
  548MOL0     H73950   0.090   1.505  -1.393 -2.5426  0.0230  0.9854
  548MOL0     H73951   0.065   1.401  -1.255 -3.3209 -2.8692 -2.4881
  548MOL0     H73952   0.211   1.265  -1.488  0.9948 -0.8518  1.3679
  548MOL0     H73953   0.109   1.208  -1.369  2.5815 -1.3833 -1.8658
  548MOL0     H73954  -0.004   1.200  -1.592  0.7167  1.3605 -2.3774
  548MOL0     H73955   0.010   1.377  -1.604  0.0505 -0.9092 -1.0898
  548MOL0     H73956  -0.157   1.224  -1.412 -0.2843  0.7056  1.3392
  548MOL0     H73957  -0.124   1.402  -1.411 -0.2470  0.5467 -1.3034
  548MOL0     H73958  -0.218   1.289  -1.683  0.1757 -0.1197  0.2363
  548MOL0     H73959  -0.238   1.446  -1.614  3.4371 -0.7603 -1.8248
  548MOL0     H73960  -0.379   1.201  -1.491 -1.2671 -2.1314 -1.7354
  548MOL0     H73961  -0.442   1.264  -1.636 -0.5190  1.4264  1.4089
  548MOL0     H73962   0.479   1.391  -1.036  0.6240  1.8743 -2.4894
  548MOL0     H73963   0.624   1.442  -0.863  0.2395  0.4450 -1.6084
  548MOL0     H73964   0.843   1.998  -0.746  2.9378  0.9373 -0.5235
  548MOL0     H73965   0.998   2.085  -0.592 -0.2082  0.0333  2.3918
  548MOL0     H73966   2.939   1.961  -0.145  3.2600  3.0545  0.7793
  548MOL0     H73967   3.172   1.991  -0.137  0.4593 -0.8960 -1.0180
  548MOL0     H73968   3.590   1.800  -0.204 -0.4593  0.5446  1.1863
  548MOL0     H73969   3.852   1.780  -0.223 -0.5397  1.0240  0.6392
  548MOL0     H73970   4.164   1.625  -0.157 -0.1347 -0.7598  0.6566
  548MOL0     H73971   4.020   1.663  -0.244 -0.3762  1.4259 -0.2644
  548MOL0     H73972   4.181   1.850  -0.058 -1.5098 -1.2780  0.2371
  548MOL0     H73973   4.045   1.915  -0.150  0.2028  0.6192 -1.8632
  548MOL0     H73974   4.147   1.838  -0.347 -1.5334 -0.2263  1.0204
  548MOL0     H73975   4.299   1.787  -0.261 -0.6050  1.1334  0.6849
  548MOL0     H73976   4.368   2.019  -0.214 -0.0896  1.0437 -0.6243
  548MOL0     H73977   4.217   2.086  -0.286 -1.8698 -1.8011 -1.0787
  548MOL0     H73978   4.493   2.000  -0.598 -0.8186  1.1705  0.4257
  548MOL0     H73979   3.868   1.600   0.143  2.7891  0.0853 -1.6655
  548MOL0     H73980   3.619   1.641   0.184  0.3535 -0.8553  0.1730
  549MOL0     O73981   2.534   4.835  10.872  0.3615 -0.3412 -0.0146
  549MOL0     C73982   2.617   4.757  10.828  0.9977  0.6800 -0.4298
  549MOL0     O73983   2.584   4.634  10.782 -0.0299  0.2283  0.5402
  549MOL0     C73984   2.447   4.600  10.772 -0.4064 -0.0526 -0.2099
  549MOL0     C73985   2.362   4.537  10.868  0.1509 -0.7577 -0.2846
  549MOL0     C73986   2.226   4.531  10.851  0.6289 -0.0120 -0.5808
  549MOL0     C73987   2.164   4.594  10.744  1.0262  0.1285 -0.0776
  549MOL0     O73988   2.027   4.606  10.724  0.2386 -0.6758 -0.0769
  549MOL0     C73989   1.942   4.598  10.840  0.5310 -0.3010 -0.4565
  549MOL0     C73990   1.795   4.626  10.794 -0.4529  0.2645 -0.1674
  549MOL0     C73991   1.690   4.616  10.913 -0.2995  0.2157  0.1720
  549MOL0     C73992   1.547   4.663  10.872 -0.3242  0.1675 -0.7970
  549MOL0     C73993   1.448   4.689  10.985  0.3259  0.5737 -0.8345
  549MOL0     C73994   1.423   4.571  11.081  0.4792  0.0434  0.3446
  549MOL0     C73995   1.389   4.438  11.015  0.0519 -0.5615  0.3166
  549MOL0     C73996   1.256   4.434  10.935 -0.4396 -0.6432 -0.6648
  549MOL0     N73997   1.134   4.482  11.009  0.4125  1.2155 -0.7789
  549MOL0     C73998   1.070   4.402  11.108  0.4008  0.2073  0.3438
  549MOL0     C73999   0.966   4.475  11.150  1.0438  0.3564  0.1347
  549MOL0     C74000   0.855   4.436  11.236 -0.4890  1.0237  0.5483
  549MOL0     C74001   0.911   4.413  11.374  0.6865 -0.2689 -0.6312
  549MOL0     C74002   0.806   4.416  11.488  0.2418 -0.5268  0.0597
  549MOL0     C74003   0.683   4.328  11.470  0.0607 -0.4294  0.7621
  549MOL0     O74004   0.618   4.315  11.596  0.0822 -0.3344  0.5810
  549MOL0     C74005   0.492   4.260  11.604  0.0171  0.1733 -0.1623
  549MOL0     C74006   0.452   4.248  11.734  0.1686 -0.3682  0.2657
  549MOL0     C74007   0.331   4.189  11.764  0.0057  0.3864  0.7126
  549MOL0     C74008   0.296   4.171  11.910  0.0620 -0.4732 -0.9615
  549MOL0     C74009   0.251   4.135  11.653 -0.1376 -0.1355 -0.3401
  549MOL0     C74010   0.127   4.043  11.669  0.5880 -0.0260  0.1342
  549MOL0     O74011   0.086   3.991  11.555  0.2112  0.0721  0.1332
  549MOL0     C74012  -0.044   3.943  11.538 -0.5993 -0.3656  0.1795
  549MOL0     C74013  -0.142   4.034  11.503 -0.2142  0.4873 -0.0516
  549MOL0     C74014  -0.270   3.981  11.468 -0.9458  0.0472  0.1611
  549MOL0     C74015  -0.304   3.844  11.481 -0.2670 -0.2530 -0.2365
  549MOL0     O74016  -0.424   3.815  11.430 -0.1579 -0.3921 -0.0998
  549MOL0     C74017  -0.472   3.683  11.458 -0.6124 -0.5480 -0.4695
  549MOL0     C74018  -0.610   3.654  11.389  0.3883 -0.2155  0.7074
  549MOL0     C74019  -0.732   3.718  11.458 -0.2369 -0.5171  1.6186
  549MOL0     C74020  -0.745   3.678  11.601  0.1804 -0.4243  0.2531
  549MOL0     C74021  -0.889   3.724  11.654 -0.8274 -0.0653 -0.8400
  549MOL0     C74022  -1.010   3.629  11.619  0.4648  0.6069  0.4283
  549MOL0     C74023  -1.137   3.718  11.600 -0.2023  0.0774 -0.1092
  549MOL0     C74024  -1.257   3.635  11.554 -0.0582 -0.1526 -0.6761
  549MOL0    Cl74025  -1.396   3.756  11.561 -0.1175 -0.2102 -0.2897
  549MOL0     C74026  -0.209   3.763  11.546 -0.2400 -0.3402  0.3920
  549MOL0     C74027  -0.083   3.813  11.571  0.1596  0.0104 -0.3581
  549MOL0     O74028   0.072   4.028  11.780  0.0781 -0.1416  0.0186
  549MOL0     C74029   0.290   4.161  11.518 -0.5366 -0.2914 -0.1685
  549MOL0     C74030   0.411   4.223  11.497  0.3452  0.4066 -0.5130
  549MOL0     N74031   0.953   4.593  11.076  0.0302 -0.4172  0.3914
  549MOL0     N74032   1.059   4.597  10.994 -0.2328  0.2338 -0.2713
  549MOL0     C74033   2.248   4.647  10.645  0.3155  0.9877  0.1797
  549MOL0     C74034   2.385   4.657  10.662 -0.0457  0.7944 -0.6932
  549MOL0     C74035   2.754   4.795  10.835  0.4580  0.7094 -0.6760
  549MOL0     C74036   2.795   4.899  10.916 -0.2443  0.6694 -0.0277
  549MOL0     C74037   2.933   4.942  10.921 -0.2281  0.3424  0.4509
  549MOL0     C74038   3.028   4.881  10.833  0.8337  0.0216 -0.2415
  549MOL0     O74039   3.155   4.916  10.818  0.4570  0.5777 -0.2724
  549MOL0     C74040   3.220   4.987  10.927  0.8241  0.5168  0.6486
  549MOL0     C74041   3.371   4.988  10.887 -0.1945  0.4783  0.6370
  549MOL0     C74042   3.383   5.098  10.780 -0.1671  0.5553  0.1481
  549MOL0     C74043   3.529   5.103  10.726  0.5559 -0.0120 -0.9810
  549MOL0     C74044   3.635   5.093  10.834 -0.1488 -0.0381 -0.6403
  549MOL0     C74045   3.720   5.089  10.924 -0.7097  0.5364  0.1974
  549MOL0     C74046   2.983   4.782  10.743  0.2930  0.3188 -0.2166
  549MOL0     C74047   2.851   4.732  10.751 -0.6973 -0.7867 -0.1886
  549MOL0     H74048   2.409   4.498  10.958 -0.4917  1.0000  0.8663
  549MOL0     H74049   2.169   4.469  10.920  0.8562 -0.1684 -0.5342
  549MOL0     H74050   1.948   4.499  10.885 -3.1413 -1.6830 -2.6097
  549MOL0     H74051   1.970   4.667  10.920  2.1893 -1.4270 -0.0246
  549MOL0     H74052   1.797   4.723  10.743  0.7092  0.6844  0.6334
  549MOL0     H74053   1.765   4.551  10.721  0.7349 -1.6618  1.2214
  549MOL0     H74054   1.706   4.513  10.947  2.3624  0.7556  0.7888
  549MOL0     H74055   1.718   4.680  10.997 -0.6015 -1.1568  1.3470
  549MOL0     H74056   1.556   4.760  10.820  1.1233 -1.1653 -3.1998
  549MOL0     H74057   1.498   4.594  10.802 -0.9445  0.4228 -0.6274
  549MOL0     H74058   1.485   4.775  11.042 -1.6758  0.3697  0.8967
  549MOL0     H74059   1.352   4.717  10.942 -0.1320  0.4522  0.0873
  549MOL0     H74060   1.516   4.548  11.134  0.9004  1.3395  0.1970
  549MOL0     H74061   1.337   4.587  11.146 -0.0993  0.8546 -0.5962
  549MOL0     H74062   1.473   4.407  10.952  1.6881  0.9791  1.6251
  549MOL0     H74063   1.372   4.366  11.096 -0.1141  0.7484  1.4822
  549MOL0     H74064   1.251   4.336  10.888  0.4054 -1.6351  1.2189
  549MOL0     H74065   1.262   4.514  10.860 -0.9457 -0.3907 -0.4422
  549MOL0     H74066   1.093   4.307  11.155 -0.4231  0.2780  0.9278
  549MOL0     H74067   0.785   4.519  11.234  0.2786  1.6813  0.2608
  549MOL0     H74068   0.805   4.342  11.211 -0.2133  0.5983  1.5293
  549MOL0     H74069   0.980   4.494  11.401 -2.4424  2.5175 -0.2890
  549MOL0     H74070   0.977   4.327  11.364 -1.1477 -1.4627 -4.3798
  549MOL0     H74071   0.771   4.519  11.504  0.6908 -0.0248 -1.9647
  549MOL0     H74072   0.857   4.388  11.581 -3.4941 -0.2542  2.3987
  549MOL0     H74073   0.696   4.229  11.425 -0.2394  0.0519 -0.4098
  549MOL0     H74074   0.619   4.372  11.393  1.2008  0.7916  0.4745
  549MOL0     H74075   0.511   4.289  11.815 -0.5379  0.5668  0.3237
  549MOL0     H74076   0.191   4.196  11.928  0.5754  1.4704 -0.3430
  549MOL0     H74077   0.315   4.067  11.938 -1.9150 -0.9625 -1.2793
  549MOL0     H74078   0.355   4.227  11.984 -1.2801 -1.3513  0.8539
  549MOL0     H74079  -0.124   4.140  11.488 -1.0101  0.4538 -1.5028
  549MOL0     H74080  -0.331   4.054  11.416  0.1860  0.0463 -1.2350
  549MOL0     H74081  -0.399   3.611  11.420  1.2221  0.1080  1.6367
  549MOL0     H74082  -0.475   3.670  11.566 -2.0482 -0.7924 -0.5159
  549MOL0     H74083  -0.600   3.694  11.288 -0.9959  2.5151  1.5635
  549MOL0     H74084  -0.617   3.545  11.386 -2.4513 -0.1250  1.5499
  549MOL0     H74085  -0.819   3.694  11.396  0.0800  1.5228  0.2654
  549MOL0     H74086  -0.732   3.827  11.446 -0.1643 -0.8609 -4.1098
  549MOL0     H74087  -0.742   3.570  11.617  1.0735 -0.3476  0.6382
  549MOL0     H74088  -0.665   3.724  11.659 -2.2753  1.4752  2.3939
  549MOL0     H74089  -0.907   3.823  11.614  0.8126  1.4162  1.7456
  549MOL0     H74090  -0.883   3.739  11.763 -2.3201 -3.5906 -0.1403
  549MOL0     H74091  -0.998   3.573  11.526  0.9762  0.5490  0.5297
  549MOL0     H74092  -1.016   3.568  11.709  0.5085  0.2807  0.2132
  549MOL0     H74093  -1.116   3.795  11.524  1.8230  0.6843  1.0049
  549MOL0     H74094  -1.171   3.761  11.694 -0.3613 -1.8956  0.7802
  549MOL0     H74095  -1.274   3.550  11.621  1.4628 -2.1244 -2.6512
  549MOL0     H74096  -1.246   3.594  11.454 -1.8798 -1.8025 -0.2577
  549MOL0     H74097  -0.222   3.661  11.581  0.5022 -1.2745 -1.8738
  549MOL0     H74098  -0.013   3.740  11.613  2.3843 -0.5451 -4.5082
  549MOL0     H74099   0.251   4.113  11.429  0.0029 -1.3349  0.1423
  549MOL0     H74100   0.438   4.224  11.391 -0.7275 -0.1341 -0.8120
  549MOL0     H74101   2.201   4.692  10.558 -0.9830  3.6059  2.1072
  549MOL0     H74102   2.444   4.700  10.582  0.5511  0.2646 -0.5551
  549MOL0     H74103   2.720   4.936  10.984  0.8315  0.7832  1.1400
  549MOL0     H74104   2.950   5.019  10.995  0.3103 -1.1167  1.9215
  549MOL0     H74105   3.181   5.088  10.940  1.1779  0.5244  1.8307
  549MOL0     H74106   3.203   4.933  11.021 -2.7636 -0.2292 -0.2775
  549MOL0     H74107   3.400   4.886  10.861 -1.9005  0.3439 -0.9617
  549MOL0     H74108   3.428   5.007  10.978 -0.4099 -2.4516  1.5139
  549MOL0     H74109   3.347   5.196  10.814 -0.5851  0.3935  0.1747
  549MOL0     H74110   3.318   5.077  10.695 -0.2204  0.7037  0.1512
  549MOL0     H74111   3.554   5.199  10.679  0.3236  0.4581 -0.1718
  549MOL0     H74112   3.548   5.024  10.654  0.0264  0.2594 -1.4251
  549MOL0     H74113   3.775   5.075  11.015  1.3021  0.1732 -1.0144
  549MOL0     H74114   3.048   4.737  10.668  0.7978  0.2058  0.2820
  549MOL0     H74115   2.815   4.655  10.683 -1.0678 -0.9268  0.1609
  550MOL0     O74116   2.906   5.881   8.288  0.4636 -0.8174 -0.9015
  550MOL0     C74117   2.989   5.962   8.326 -0.3430 -1.1752 -0.9779
  550MOL0     O74118   2.963   6.080   8.397  0.2825  0.2921  0.1005
  550MOL0     C74119   2.834   6.111   8.416 -0.0660 -0.2422  0.4398
  550MOL0     C74120   2.744   6.039   8.492  0.2812 -0.1855  0.2423
  550MOL0     C74121   2.601   6.075   8.498 -0.4954 -0.0296  0.4109
  550MOL0     C74122   2.554   6.178   8.407  0.7326 -0.2263  0.7358
  550MOL0     O74123   2.415   6.200   8.401  0.0019 -0.6501 -0.2885
  550MOL0     C74124   2.334   6.141   8.505 -0.5941 -0.1348 -0.1708
  550MOL0     C74125   2.196   6.192   8.476  0.0063  0.2290 -1.5500
  550MOL0     C74126   2.093   6.133   8.580  0.2203  1.3379  0.3828
  550MOL0     C74127   1.957   6.153   8.515  0.3636 -0.6881  0.2171
  550MOL0     C74128   1.849   6.068   8.593 -0.2365  0.0243  0.2501
  550MOL0     C74129   1.715   6.074   8.525  0.6801 -0.8150  0.7410
  550MOL0     C74130   1.613   6.007   8.617  0.1461  0.2417 -0.0436
  550MOL0     C74131   1.475   5.987   8.556  1.2069 -0.0523 -0.7446
  550MOL0     N74132   1.373   5.962   8.662 -0.0190  0.1563 -0.0051
  550MOL0     C74133   1.301   6.056   8.737 -1.1568  0.2600  0.1628
  550MOL0     C74134   1.219   5.986   8.810 -0.8517  0.7889 -0.4705
  550MOL0     C74135   1.110   6.056   8.891  1.0591  0.0517 -0.0497
  550MOL0     C74136   0.967   5.993   8.858  0.4000  0.5170  1.0530
  550MOL0     C74137   0.841   6.083   8.881  0.2656 -0.2848 -0.3502
  550MOL0     C74138   0.717   5.996   8.846 -0.5405 -0.5101  0.9209
  550MOL0     O74139   0.599   6.057   8.898 -0.1152  0.1059  0.3768
  550MOL0     C74140   0.472   6.027   8.843 -1.1679 -0.2447 -0.7933
  550MOL0     C74141   0.458   5.921   8.764  0.4032  0.5594 -0.8503
  550MOL0     C74142   0.343   5.912   8.690  0.7889  0.0638 -0.7456
  550MOL0     C74143   0.325   5.780   8.621 -0.5137 -0.3847  0.3036
  550MOL0     C74144   0.235   6.003   8.699 -0.7281  0.4566  0.3066
  550MOL0     C74145   0.111   6.002   8.612 -0.0151  0.3648 -0.1313
  550MOL0     O74146   0.130   5.948   8.486  0.5202  0.0066  0.0513
  550MOL0     C74147   0.020   5.897   8.419 -0.1546 -0.5343  0.2010
  550MOL0     C74148   0.003   5.930   8.289 -0.1023  1.1034  0.7218
  550MOL0     C74149  -0.116   5.877   8.222  0.2181 -0.7770  0.9433
  550MOL0     C74150  -0.200   5.784   8.286  0.7470  0.4436 -0.5064
  550MOL0     O74151  -0.314   5.723   8.233 -0.0467 -0.1450 -0.4129
  550MOL0     C74152  -0.376   5.784   8.128  0.1500 -1.3669 -0.0373
  550MOL0     C74153  -0.515   5.721   8.091  0.2372  0.1574  0.0213
  550MOL0     C74154  -0.607   5.711   8.220  0.1920 -0.5868 -0.1889
  550MOL0     C74155  -0.742   5.653   8.171 -0.0878  0.0996  0.3883
  550MOL0     C74156  -0.859   5.634   8.269  0.2012 -1.0731 -0.7266
  550MOL0     C74157  -0.932   5.776   8.285 -0.7471  0.0991 -0.3950
  550MOL0     C74158  -1.034   5.761   8.404 -0.2287 -0.4183  0.1043
  550MOL0     C74159  -1.148   5.869   8.384 -0.5796 -0.2445 -0.4675
  550MOL0    Cl74160  -1.136   6.027   8.455  0.4816 -0.0222 -0.1352
  550MOL0     C74161  -0.174   5.754   8.418 -0.1098  1.4054 -0.0578
  550MOL0     C74162  -0.062   5.816   8.476 -0.1104  0.1452 -0.0958
  550MOL0     O74163   0.008   6.042   8.662 -0.0024  0.3240 -0.4401
  550MOL0     C74164   0.249   6.110   8.791 -0.4934 -0.5055 -0.2526
  550MOL0     C74165   0.369   6.123   8.865 -0.4713  0.2854  0.8088
  550MOL0     N74166   1.229   5.854   8.769 -0.1049 -0.1608  0.2231
  550MOL0     N74167   1.323   5.838   8.685  0.3166 -0.2166 -0.3040
  550MOL0     C74168   2.646   6.254   8.329  0.2258  0.0198  0.3748
  550MOL0     C74169   2.784   6.223   8.339 -0.0068  0.4237 -0.1223
  550MOL0     C74170   3.137   5.935   8.310  0.0648 -0.2702 -0.0194
  550MOL0     C74171   3.191   5.831   8.235 -0.5842  0.9816 -0.2642
  550MOL0     C74172   3.328   5.811   8.211  0.0335  0.2882 -0.5034
  550MOL0     C74173   3.415   5.900   8.273  0.9461 -0.1331 -0.3249
  550MOL0     O74174   3.540   5.885   8.243 -0.5438 -0.4251 -0.8392
  550MOL0     C74175   3.592   5.988   8.159  0.6424  0.5906  0.2898
  550MOL0     C74176   3.736   5.941   8.122  0.4095 -0.3479 -1.9227
  550MOL0     C74177   3.790   6.019   8.003  0.1813  0.4886  0.8830
  550MOL0     C74178   3.892   5.937   7.930 -0.1176 -0.5191 -0.2236
  550MOL0     C74179   4.014   5.907   8.006  0.0909 -0.3724  0.2175
  550MOL0     C74180   4.108   5.876   8.071  0.1126 -0.6308  0.0554
  550MOL0     C74181   3.369   5.999   8.359 -0.0647  0.0616 -0.2998
  550MOL0     C74182   3.230   6.017   8.379 -0.0807 -0.3460 -0.0336
  550MOL0     H74183   2.787   5.966   8.560  0.8301  0.8601  1.0498
  550MOL0     H74184   2.529   6.016   8.553  0.1688 -2.2269 -0.9172
  550MOL0     H74185   2.333   6.031   8.501  2.9777 -0.2913  0.5399
  550MOL0     H74186   2.370   6.167   8.605 -4.0602 -0.2635  1.2598
  550MOL0     H74187   2.200   6.301   8.485  0.1119  0.0516  1.6769
  550MOL0     H74188   2.169   6.176   8.371 -0.1692  2.6833 -1.9530
  550MOL0     H74189   2.121   6.028   8.595 -2.3536  0.0933 -2.4036
  550MOL0     H74190   2.093   6.187   8.675 -1.1731  0.7380  0.7630
  550MOL0     H74191   1.931   6.259   8.521  0.0844 -0.7759  0.5689
  550MOL0     H74192   1.937   6.133   8.409 -2.8617  1.5321  0.2612
  550MOL0     H74193   1.896   5.970   8.602  2.4787  1.3597  2.0728
  550MOL0     H74194   1.837   6.102   8.696  0.3696 -0.3180  0.4386
  550MOL0     H74195   1.688   6.177   8.500  1.7954 -0.1963  1.9978
  550MOL0     H74196   1.693   6.019   8.433 -4.1505  2.7538 -0.6908
  550MOL0     H74197   1.651   5.909   8.648  0.9698  0.8820  1.0485
  550MOL0     H74198   1.602   6.081   8.696 -0.2876  1.2147 -0.9883
  550MOL0     H74199   1.481   5.903   8.486  0.2526  0.2734 -1.2348
  550MOL0     H74200   1.432   6.074   8.504 -3.4272  0.1128  2.7048
  550MOL0     H74201   1.300   6.163   8.719 -0.2398 -0.0223 -1.8067
  550MOL0     H74202   1.123   6.060   8.999 -2.2609 -0.4663  0.4927
  550MOL0     H74203   1.096   6.160   8.860  0.9180 -0.0922 -0.4831
  550MOL0     H74204   0.956   5.912   8.930  0.1784  1.3930  2.0368
  550MOL0     H74205   0.965   5.947   8.759 -0.5075  1.6446  0.5253
  550MOL0     H74206   0.852   6.177   8.826  1.0296  0.4659  1.0447
  550MOL0     H74207   0.844   6.115   8.985  2.8952  2.0446 -1.0245
  550MOL0     H74208   0.731   5.891   8.874  4.8055 -1.5962 -3.9911
  550MOL0     H74209   0.704   6.005   8.738  1.6509 -1.5907  0.5087
  550MOL0     H74210   0.533   5.844   8.748  0.6536  1.0212 -2.0024
  550MOL0     H74211   0.391   5.705   8.665  1.3104 -0.3317 -2.1413
  550MOL0     H74212   0.222   5.746   8.634 -0.4128 -0.3694  1.2199
  550MOL0     H74213   0.339   5.792   8.513  0.3451  2.4965  0.6315
  550MOL0     H74214   0.084   5.981   8.238  1.5133 -1.7284  0.1995
  550MOL0     H74215  -0.127   5.890   8.114 -1.9610 -1.9291  0.9826
  550MOL0     H74216  -0.384   5.891   8.147 -0.0810 -1.5046  0.6893
  550MOL0     H74217  -0.307   5.758   8.047  1.0594 -0.0861  0.2898
  550MOL0     H74218  -0.568   5.785   8.021  0.3178  2.1035  1.6384
  550MOL0     H74219  -0.492   5.620   8.055  3.1936  1.4068 -2.0130
  550MOL0     H74220  -0.625   5.801   8.279 -2.0848 -0.6805 -0.6698
  550MOL0     H74221  -0.562   5.632   8.280  1.0214 -0.7008 -0.9349
  550MOL0     H74222  -0.783   5.719   8.094 -1.1579  0.0207  0.8728
  550MOL0     H74223  -0.719   5.559   8.119 -2.9132  0.8304 -2.4689
  550MOL0     H74224  -0.832   5.598   8.369 -2.5414 -1.2262  0.0427
  550MOL0     H74225  -0.942   5.576   8.227  0.7150 -1.2443 -1.5321
  550MOL0     H74226  -0.857   5.850   8.317  2.6988 -2.7575 -1.2822
  550MOL0     H74227  -0.984   5.806   8.193  1.6594  0.7608 -1.6191
  550MOL0     H74228  -0.981   5.765   8.500  0.8560  1.3051 -0.5203
  550MOL0     H74229  -1.083   5.663   8.400 -2.0414  0.4257  0.3216
  550MOL0     H74230  -1.251   5.838   8.405 -0.2682 -0.8804  0.1632
  550MOL0     H74231  -1.135   5.897   8.279  0.7235  2.4262  0.3036
  550MOL0     H74232  -0.238   5.682   8.469 -0.2659  0.9010 -0.9255
  550MOL0     H74233  -0.047   5.805   8.583  0.7405  3.5039  0.2553
  550MOL0     H74234   0.169   6.180   8.813  0.8876  1.1728 -0.4028
  550MOL0     H74235   0.388   6.204   8.934  1.2434 -0.9355  1.8352
  550MOL0     H74236   2.601   6.332   8.269 -2.0534 -0.5891  1.1884
  550MOL0     H74237   2.853   6.291   8.290  1.7835 -0.8504  0.5157
  550MOL0     H74238   3.122   5.769   8.178 -0.6492  0.1116  0.7261
  550MOL0     H74239   3.361   5.723   8.157 -0.8940  0.3148 -1.1222
  550MOL0     H74240   3.524   5.987   8.074 -0.7511 -1.4055  1.3472
  550MOL0     H74241   3.588   6.083   8.213 -1.5755  0.6824  0.0617
  550MOL0     H74242   3.736   5.832   8.111  0.0531 -0.8342  1.7840
  550MOL0     H74243   3.802   5.957   8.208 -0.8642  0.5571 -1.0859
  550MOL0     H74244   3.819   6.121   8.031  2.7932 -0.2521  1.2207
  550MOL0     H74245   3.721   6.018   7.919  1.8499 -1.6748 -0.5816
  550MOL0     H74246   3.909   5.994   7.838 -1.0287  2.6707  1.4506
  550MOL0     H74247   3.842   5.843   7.902  1.1110 -0.8821 -1.3146
  550MOL0     H74248   4.199   5.869   8.126  0.1923 -1.1386 -0.1358
  550MOL0     H74249   3.447   6.058   8.406  1.3879 -1.5821 -0.5275
  550MOL0     H74250   3.198   6.098   8.444  1.9824  0.0349  0.6075
  551MOL0     O74251  10.558   3.597   3.003  0.0206 -0.1363  0.1897
  551MOL0     C74252  10.489   3.511   2.959 -0.2076  1.1856 -0.7079
  551MOL0     O74253  10.378   3.449   3.022  0.6780 -0.4980  0.1316
  551MOL0     C74254  10.333   3.510   3.136 -0.4288 -0.4208  0.4987
  551MOL0     C74255  10.365   3.459   3.265  0.7531 -0.7960  0.0705
  551MOL0     C74256  10.325   3.530   3.384  0.8789  0.0408 -0.6261
  551MOL0     C74257  10.231   3.641   3.368 -0.3286  0.1853  0.0971
  551MOL0     O74258  10.157   3.709   3.465 -0.0023 -0.2663 -0.5443
  551MOL0     C74259  10.196   3.683   3.601 -0.5722 -0.4888  0.3259
  551MOL0     C74260  10.087   3.734   3.702 -0.0383  0.6247  0.1407
  551MOL0     C74261   9.957   3.655   3.688  0.2501  0.3143  0.8726
  551MOL0     C74262   9.854   3.683   3.799 -0.0681  0.0130 -0.7226
  551MOL0     C74263   9.711   3.617   3.785 -1.0719 -0.1632  0.7389
  551MOL0     C74264   9.622   3.653   3.905  0.6820 -0.4779 -0.8017
  551MOL0     C74265   9.474   3.628   3.908  0.5707  0.4751 -0.2719
  551MOL0     C74266   9.447   3.478   3.897 -0.7602  0.2716  0.3319
  551MOL0     N74267   9.316   3.439   3.934  0.4486 -0.3651  0.3179
  551MOL0     C74268   9.222   3.401   3.840 -0.7261  0.0628  0.5918
  551MOL0     C74269   9.102   3.383   3.911 -0.8258 -0.5703  1.0951
  551MOL0     C74270   8.981   3.355   3.843  0.0268 -0.0335 -0.5901
  551MOL0     C74271   8.858   3.410   3.924 -0.3148 -0.1814 -0.2513
  551MOL0     C74272   8.723   3.397   3.846  0.5828 -0.4970  0.0109
  551MOL0     C74273   8.616   3.495   3.898  0.4770  0.0782  0.2709
  551MOL0     O74274   8.570   3.433   4.020 -0.3927 -0.0279  0.4796
  551MOL0     C74275   8.451   3.471   4.064  0.0891 -0.2395  0.2145
  551MOL0     C74276   8.390   3.595   4.036  0.5811 -0.3385 -0.1741
  551MOL0     C74277   8.263   3.628   4.089 -0.8952  0.0605  0.5607
  551MOL0     C74278   8.211   3.766   4.057  0.2188 -0.4418 -0.2489
  551MOL0     C74279   8.199   3.526   4.168  0.1348 -1.0303  0.1078
  551MOL0     C74280   8.063   3.544   4.218  0.2239 -0.5854  0.4420
  551MOL0     O74281   7.993   3.655   4.193 -0.7202 -0.0855  0.2206
  551MOL0     C74282   7.859   3.662   4.228 -0.4240  0.6763  0.2404
  551MOL0     C74283   7.815   3.752   4.324 -0.1253  0.3068  0.0380
  551MOL0     C74284   7.689   3.746   4.363  0.2546  0.1276 -0.1307
  551MOL0     C74285   7.594   3.664   4.302 -0.0421  0.3738 -0.8107
  551MOL0     O74286   7.458   3.668   4.322 -0.5994  0.2438 -0.7968
  551MOL0     C74287   7.399   3.747   4.425 -0.5897  0.0479  0.4950
  551MOL0     C74288   7.280   3.823   4.373  0.1950  0.2502  0.2213
  551MOL0     C74289   7.166   3.721   4.324 -0.7102  0.7446 -0.4541
  551MOL0     C74290   7.051   3.805   4.284 -0.4436  0.3259 -0.1924
  551MOL0     C74291   6.935   3.717   4.232 -0.6791 -0.0227  0.1707
  551MOL0     C74292   6.829   3.803   4.170 -0.0810 -0.1594  0.1696
  551MOL0     C74293   6.717   3.724   4.097  0.6239 -0.5475 -0.2895
  551MOL0     C74294   6.594   3.815   4.055  0.7462 -0.4839 -0.5741
  551MOL0    Cl74295   6.643   3.949   3.932  0.0966  0.3586 -0.0012
  551MOL0     C74296   7.628   3.588   4.195 -0.3331  0.6573  0.2802
  551MOL0     C74297   7.763   3.584   4.169 -0.3111 -1.2410  0.3724
  551MOL0     O74298   8.014   3.452   4.289 -0.0089 -0.3637  0.5033
  551MOL0     C74299   8.263   3.413   4.198 -0.0788  1.3564  0.1510
  551MOL0     C74300   8.381   3.376   4.142  0.6648 -0.5578 -0.5350
  551MOL0     N74301   9.136   3.406   4.045 -0.4096 -0.0464 -0.3786
  551MOL0     N74302   9.258   3.448   4.060  0.3118 -0.0402 -0.1868
  551MOL0     C74303  10.207   3.694   3.240  0.0058  0.0496 -0.0134
  551MOL0     C74304  10.256   3.628   3.126 -0.0848  1.0516  0.5973
  551MOL0     C74305  10.540   3.435   2.841  0.0252 -0.3596 -0.2238
  551MOL0     C74306  10.454   3.344   2.769  0.3530 -0.7202  0.2812
  551MOL0     C74307  10.512   3.261   2.667  0.2957 -0.2666 -0.3356
  551MOL0     C74308  10.643   3.272   2.622  0.1768 -0.2758 -0.0952
  551MOL0     O74309  10.698   3.203   2.518  0.1071 -0.7015  0.3428
  551MOL0     C74310  10.600   3.136   2.439 -0.0801 -0.3812 -0.5338
  551MOL0     C74311  10.671   3.089   2.302 -0.0993 -0.6625 -0.4308
  551MOL0     C74312  10.785   3.000   2.340 -0.2550 -1.3036  0.2237
  551MOL0     C74313  10.845   2.959   2.204  0.0022 -0.3474 -0.1012
  551MOL0     C74314  10.979   3.012   2.212 -1.0279  0.3170  0.4998
  551MOL0     C74315  11.086   3.064   2.244 -0.4388 -0.2229 -0.5358
  551MOL0     C74316  10.720   3.365   2.683  0.1530  0.2720  0.6256
  551MOL0     C74317  10.669   3.446   2.791 -0.8165  0.0234  0.2721
  551MOL0     H74318  10.428   3.371   3.265  0.7796 -0.7787 -0.4885
  551MOL0     H74319  10.351   3.486   3.480 -2.2907 -3.5718 -1.1407
  551MOL0     H74320  10.216   3.577   3.620  1.1341 -0.4576 -1.0948
  551MOL0     H74321  10.290   3.732   3.626 -0.8746  0.0406  0.4541
  551MOL0     H74322  10.130   3.730   3.802  1.0953  0.5782 -0.3406
  551MOL0     H74323  10.060   3.838   3.679 -1.2584  0.3528  0.2419
  551MOL0     H74324   9.920   3.686   3.590  1.2251  2.3058  1.1040
  551MOL0     H74325   9.980   3.548   3.678  2.3562  0.9129 -2.1850
  551MOL0     H74326   9.900   3.647   3.892  0.7919  3.4317  0.3432
  551MOL0     H74327   9.840   3.791   3.813  2.5924  0.1893  1.4971
  551MOL0     H74328   9.666   3.661   3.695 -0.4674  0.4956  0.7427
  551MOL0     H74329   9.716   3.510   3.764  0.2868 -0.3128  1.7516
  551MOL0     H74330   9.662   3.594   3.988 -0.4120 -0.4586 -0.2320
  551MOL0     H74331   9.637   3.757   3.935  0.0020 -0.9362  1.3836
  551MOL0     H74332   9.429   3.674   3.996 -1.7643 -1.0036 -0.6177
  551MOL0     H74333   9.422   3.664   3.819 -0.0160  1.4111  0.4442
  551MOL0     H74334   9.517   3.424   3.962 -2.0598 -1.2304  0.5516
  551MOL0     H74335   9.472   3.445   3.796  0.4104  1.0092  0.3648
  551MOL0     H74336   9.244   3.381   3.736 -0.3221  1.3302  0.4058
  551MOL0     H74337   8.975   3.399   3.743 -0.8600  1.9673  0.2973
  551MOL0     H74338   8.978   3.246   3.833  0.1679  0.0829 -2.0820
  551MOL0     H74339   8.865   3.519   3.934 -0.1216  0.2533 -3.9082
  551MOL0     H74340   8.859   3.363   4.023  0.3121 -0.6198 -0.4531
  551MOL0     H74341   8.678   3.299   3.862 -2.5752  0.7627 -0.3904
  551MOL0     H74342   8.747   3.431   3.744  0.4885  3.6266  1.1625
  551MOL0     H74343   8.536   3.517   3.826  1.0739 -0.6619 -0.6398
  551MOL0     H74344   8.655   3.597   3.911 -2.5117  1.1963  1.3345
  551MOL0     H74345   8.436   3.662   3.963 -4.1028  1.1064 -2.2188
  551MOL0     H74346   8.292   3.834   4.030 -0.0238  1.0289  2.3521
  551MOL0     H74347   8.147   3.773   3.968 -0.5934  1.0005  0.4047
  551MOL0     H74348   8.174   3.811   4.150  0.7594  3.4503 -1.7227
  551MOL0     H74349   7.889   3.822   4.360  0.3005  1.2469 -2.4594
  551MOL0     H74350   7.667   3.816   4.443  1.5707  1.6122 -1.0293
  551MOL0     H74351   7.379   3.684   4.512 -1.1302 -0.6633 -0.1426
  551MOL0     H74352   7.458   3.825   4.475 -0.1494 -1.3668  2.2902
  551MOL0     H74353   7.241   3.882   4.456 -0.8444  0.2518 -0.2440
  551MOL0     H74354   7.312   3.891   4.294 -1.7476  0.4051 -0.5055
  551MOL0     H74355   7.135   3.647   4.397 -0.2841 -0.3596 -1.3691
  551MOL0     H74356   7.202   3.658   4.242 -0.1063 -1.9543  1.7289
  551MOL0     H74357   7.019   3.863   4.371  0.7311 -2.4695  2.2712
  551MOL0     H74358   7.078   3.884   4.214  1.5011  1.2369  1.4750
  551MOL0     H74359   6.891   3.655   4.310 -1.2219 -1.3864 -1.1558
  551MOL0     H74360   6.969   3.644   4.157 -2.6402 -0.8160 -0.0231
  551MOL0     H74361   6.778   3.843   4.258  0.2643 -1.5571  1.0324
  551MOL0     H74362   6.874   3.876   4.102 -0.0086  0.1727  0.5694
  551MOL0     H74363   6.667   3.657   4.168 -1.6177  2.2730  0.9417
  551MOL0     H74364   6.763   3.678   4.008  0.9091  0.9308 -0.9325
  551MOL0     H74365   6.552   3.854   4.148  4.9287  1.2766  0.7805
  551MOL0     H74366   6.518   3.757   4.000  0.0018 -0.7236  0.6594
  551MOL0     H74367   7.550   3.531   4.145 -0.6188 -0.3547  1.8217
  551MOL0     H74368   7.796   3.520   4.087 -1.1514  0.9043 -1.7482
  551MOL0     H74369   8.223   3.330   4.255 -0.5947  0.7823 -1.0030
  551MOL0     H74370   8.430   3.281   4.159  1.6256  0.1019  0.5707
  551MOL0     H74371  10.153   3.787   3.228  2.2282  1.6059  1.2669
  551MOL0     H74372  10.239   3.667   3.026 -1.1558  1.4790  0.9264
  551MOL0     H74373  10.347   3.341   2.792 -0.7749  1.4385 -3.7757
  551MOL0     H74374  10.442   3.194   2.618 -1.0615 -0.0571  1.2227
  551MOL0     H74375  10.573   3.045   2.494 -0.7297 -0.4152 -0.9076
  551MOL0     H74376  10.515   3.198   2.412 -2.0814 -2.8133 -0.2326
  551MOL0     H74377  10.711   3.178   2.254 -3.0715  0.4221 -1.0867
  551MOL0     H74378  10.607   3.030   2.235  1.3506  0.0522 -2.5346
  551MOL0     H74379  10.751   2.910   2.393  1.4550 -0.5813  2.7147
  551MOL0     H74380  10.848   3.051   2.414  0.6835 -1.4980 -0.4192
  551MOL0     H74381  10.790   2.996   2.117  2.3314  0.2022 -1.4336
  551MOL0     H74382  10.864   2.851   2.199  1.4076 -0.0724 -1.8913
  551MOL0     H74383  11.175   3.121   2.262 -0.4568  0.1706 -1.6225
  551MOL0     H74384  10.827   3.370   2.666  0.7226  1.0411  3.8102
  551MOL0     H74385  10.752   3.496   2.840 -0.5588 -0.5345  0.4265
  552MOL0     O74386   1.934   5.497   3.902 -0.9356 -0.6155  1.1539
  552MOL0     C74387   1.976   5.542   4.009  0.1379 -0.4084 -0.6217
  552MOL0     O74388   1.896   5.604   4.110 -0.1743  0.2301 -0.1201
  552MOL0     C74389   1.765   5.576   4.124  0.2752  1.1272 -0.3870
  552MOL0     C74390   1.727   5.471   4.206  0.0205  0.0140 -0.6710
  552MOL0     C74391   1.602   5.437   4.231  0.7851 -0.1975 -0.0736
  552MOL0     C74392   1.501   5.515   4.171  0.2434  0.4945  0.2156
  552MOL0     O74393   1.367   5.490   4.196 -0.2280  0.6085 -0.6485
  552MOL0     C74394   1.314   5.389   4.125 -0.0921 -0.0914  0.1318
  552MOL0     C74395   1.165   5.394   4.154 -1.0711 -0.2864 -0.0613
  552MOL0     C74396   1.098   5.273   4.085  0.0940  0.4131 -0.9720
  552MOL0     C74397   0.953   5.297   4.106 -0.2211  0.3655 -0.0161
  552MOL0     C74398   0.873   5.173   4.064 -0.0154  0.7742  0.1883
  552MOL0     C74399   0.726   5.179   4.100  0.3199 -0.0719 -0.1925
  552MOL0     C74400   0.633   5.110   3.997  0.3970 -0.1083 -0.4046
  552MOL0     C74401   0.485   5.156   4.026  0.4626 -0.2464 -0.4446
  552MOL0     N74402   0.392   5.088   3.939 -0.4602 -0.5672 -0.7215
  552MOL0     C74403   0.271   5.036   3.979  0.3360 -0.2876 -0.5110
  552MOL0     C74404   0.212   5.005   3.860  0.6472  0.2124 -0.8118
  552MOL0     C74405   0.061   4.968   3.851  0.6814 -0.5740  0.1418
  552MOL0     C74406   0.038   4.826   3.906 -0.9786  0.1535  0.1172
  552MOL0     C74407  -0.098   4.829   3.983  0.1676 -0.2491  0.2408
  552MOL0     C74408  -0.214   4.854   3.884  0.1465  0.3611 -0.0860
  552MOL0     O74409  -0.237   4.738   3.803 -0.7786 -0.4351  0.0635
  552MOL0     C74410  -0.362   4.684   3.793  0.7809  0.3018  0.3364
  552MOL0     C74411  -0.374   4.548   3.758  0.1412 -0.8047 -0.9100
  552MOL0     C74412  -0.492   4.472   3.762  0.4586 -0.3580  0.1937
  552MOL0     C74413  -0.485   4.330   3.719 -0.8813  0.2046  0.3221
  552MOL0     C74414  -0.613   4.547   3.769  0.5806  0.6661  0.1022
  552MOL0     C74415  -0.750   4.482   3.754 -0.3809 -0.0607 -0.1275
  552MOL0     O74416  -0.854   4.552   3.812  0.1339  0.0705 -0.5781
  552MOL0     C74417  -0.968   4.477   3.840 -0.7365  0.2288 -0.0081
  552MOL0     C74418  -0.982   4.413   3.969  1.0572  0.6553  0.9213
  552MOL0     C74419  -1.101   4.351   4.007 -0.1357  0.3036  0.2344
  552MOL0     C74420  -1.213   4.364   3.928 -0.5214  1.1056 -0.0892
  552MOL0     O74421  -1.330   4.320   3.984  0.0479 -0.5596  0.3548
  552MOL0     C74422  -1.449   4.387   3.937  0.1574  0.9790  0.0227
  552MOL0     C74423  -1.573   4.351   4.018  0.1446 -0.1608 -0.5018
  552MOL0     C74424  -1.689   4.437   3.969  0.0673  0.0113 -0.5373
  552MOL0     C74425  -1.817   4.426   4.061 -0.4365 -0.2349  0.1701
  552MOL0     C74426  -1.943   4.467   3.982 -0.5575  0.6381 -0.3866
  552MOL0     C74427  -2.038   4.545   4.075 -0.0892 -0.7154 -0.0697
  552MOL0     C74428  -2.119   4.460   4.174  0.3127 -0.4069  0.2573
  552MOL0     C74429  -2.206   4.542   4.257 -0.2384 -0.7747  0.2517
  552MOL0    Cl74430  -2.374   4.499   4.200  0.0603  0.0938 -0.2521
  552MOL0     C74431  -1.195   4.423   3.800  0.7263  0.0833 -0.3092
  552MOL0     C74432  -1.078   4.489   3.757 -0.5632  0.4568 -0.5388
  552MOL0     O74433  -0.763   4.372   3.700 -0.1086 -0.8145  0.3291
  552MOL0     C74434  -0.607   4.677   3.813  0.4346  0.0949 -0.3196
  552MOL0     C74435  -0.485   4.752   3.817 -0.2083 -0.6753  0.4697
  552MOL0     N74436   0.288   5.049   3.759 -0.5128  0.1892  0.0611
  552MOL0     N74437   0.400   5.101   3.806  0.1642 -0.7648  0.3702
  552MOL0     C74438   1.532   5.626   4.090  1.2014  0.0746 -0.2002
  552MOL0     C74439   1.666   5.656   4.066  0.0148  0.6167 -0.2924
  552MOL0     C74440   2.125   5.552   4.024 -0.2745 -0.0797 -0.0426
  552MOL0     C74441   2.170   5.623   4.120 -0.4045 -0.4228  0.6336
  552MOL0     C74442   2.297   5.671   4.125 -0.1655 -0.0509  0.2078
  552MOL0     C74443   2.393   5.613   4.044 -0.0223 -0.1512 -0.4950
  552MOL0     O74444   2.519   5.654   4.063 -0.0299  0.5127  0.4201
  552MOL0     C74445   2.607   5.676   3.947  0.7068  0.1242 -0.0699
  552MOL0     C74446   2.732   5.754   3.993  0.0630 -0.1326 -0.4333
  552MOL0     C74447   2.862   5.710   3.921  0.9730  0.3625 -1.1534
  552MOL0     C74448   2.984   5.727   4.003  0.2342  0.4414 -0.5110
  552MOL0     C74449   2.989   5.630   4.110  0.4134  1.0990 -0.0629
  552MOL0     C74450   3.000   5.539   4.189  0.4324 -0.5899  0.0820
  552MOL0     C74451   2.347   5.527   3.940 -0.1572 -0.5229 -0.3908
  552MOL0     C74452   2.211   5.498   3.928  0.0907 -0.3316 -0.1185
  552MOL0     H74453   1.802   5.411   4.257 -0.5111  1.3493  1.8419
  552MOL0     H74454   1.567   5.367   4.306 -2.2519  2.7326  1.5408
  552MOL0     H74455   1.336   5.392   4.018  1.2525  2.1839  0.3906
  552MOL0     H74456   1.355   5.294   4.160  0.0402 -0.1346 -0.1362
  552MOL0     H74457   1.158   5.396   4.263  0.5802  0.3313  0.0550
  552MOL0     H74458   1.125   5.492   4.127 -0.5474 -0.1225 -0.2500
  552MOL0     H74459   1.123   5.262   3.979 -2.9676  0.8245 -1.8540
  552MOL0     H74460   1.128   5.184   4.142  0.1258  0.5159 -0.8292
  552MOL0     H74461   0.922   5.329   4.206 -1.4906 -1.3282  0.1751
  552MOL0     H74462   0.932   5.381   4.040  0.9374  0.6496 -0.0441
  552MOL0     H74463   0.896   5.158   3.958  0.9645  1.2307  0.3322
  552MOL0     H74464   0.910   5.082   4.111  0.1379  0.3362 -0.7498
  552MOL0     H74465   0.710   5.142   4.201 -2.1764  0.1137 -0.4618
  552MOL0     H74466   0.707   5.286   4.102 -1.0034 -0.3031  0.7166
  552MOL0     H74467   0.658   5.146   3.897  2.1218 -2.4826 -0.9110
  552MOL0     H74468   0.647   5.002   4.003  0.5193 -0.0428  0.6254
  552MOL0     H74469   0.479   5.265   4.018 -0.4187 -0.2742 -0.2611
  552MOL0     H74470   0.457   5.126   4.128  1.6665  0.8841  0.2540
  552MOL0     H74471   0.230   5.029   4.079  1.0586  0.1155 -0.1829
  552MOL0     H74472   0.005   5.036   3.916 -3.3833 -3.7403  0.3391
  552MOL0     H74473   0.018   4.976   3.751  0.3596 -0.7266  0.2655
  552MOL0     H74474   0.114   4.795   3.978 -1.0162 -2.2249 -0.7890
  552MOL0     H74475   0.047   4.747   3.832 -2.5487 -0.3792  0.4453
  552MOL0     H74476  -0.094   4.909   4.058  1.2216 -0.3188  0.2763
  552MOL0     H74477  -0.115   4.735   4.035  0.1444 -1.1740 -1.3750
  552MOL0     H74478  -0.209   4.942   3.819  1.5886  1.2051  1.0956
  552MOL0     H74479  -0.293   4.879   3.955  1.6585 -0.8897  2.1793
  552MOL0     H74480  -0.278   4.499   3.743  0.4632 -0.1205 -1.1344
  552MOL0     H74481  -0.524   4.269   3.801  0.5333  1.3713  1.9359
  552MOL0     H74482  -0.535   4.304   3.626 -0.2214 -2.4481  0.6292
  552MOL0     H74483  -0.383   4.295   3.701 -2.2376 -3.0416 -2.0765
  552MOL0     H74484  -0.901   4.421   4.041 -0.8634  0.6007  3.2018
  552MOL0     H74485  -1.107   4.291   4.097 -2.5212  0.8087  0.4771
  552MOL0     H74486  -1.426   4.493   3.952  0.8859  0.7935  0.2397
  552MOL0     H74487  -1.459   4.376   3.829  0.0724 -0.7783  0.1915
  552MOL0     H74488  -1.597   4.246   4.002 -0.0804  0.1852 -2.6520
  552MOL0     H74489  -1.554   4.364   4.125 -2.7740  2.8236 -0.1811
  552MOL0     H74490  -1.723   4.413   3.868 -0.4330 -4.6141  0.4720
  552MOL0     H74491  -1.663   4.543   3.969  1.4146 -0.1647  3.0389
  552MOL0     H74492  -1.827   4.319   4.082  1.4044 -0.4653  0.0282
  552MOL0     H74493  -1.798   4.483   4.152  2.8809 -1.7518  0.5897
  552MOL0     H74494  -1.987   4.373   3.946  0.8146 -1.1676  2.2546
  552MOL0     H74495  -1.914   4.529   3.897  0.0492 -2.3841 -2.5543
  552MOL0     H74496  -1.972   4.615   4.126  0.8631  0.6035 -2.9254
  552MOL0     H74497  -2.118   4.597   4.020 -0.2583  0.8121  1.5568
  552MOL0     H74498  -2.048   4.410   4.241  0.2008  1.3454  1.7820
  552MOL0     H74499  -2.167   4.375   4.125  0.1023 -1.6854  2.5253
  552MOL0     H74500  -2.191   4.646   4.225  2.9887 -0.8338  1.2995
  552MOL0     H74501  -2.181   4.544   4.363  0.0831  1.2310  0.1826
  552MOL0     H74502  -1.287   4.428   3.742  0.7811 -0.3477 -0.4347
  552MOL0     H74503  -1.068   4.538   3.660  0.1525 -0.6756 -1.0589
  552MOL0     H74504  -0.695   4.739   3.824  1.1661  1.2693 -0.8421
  552MOL0     H74505  -0.483   4.857   3.843 -1.4383 -0.6706  0.5946
  552MOL0     H74506   1.443   5.673   4.049  0.3906 -0.7822  0.5381
  552MOL0     H74507   1.706   5.743   4.015  1.7420 -0.3429 -0.6487
  552MOL0     H74508   2.099   5.670   4.188  0.1966  3.2073 -0.9982
  552MOL0     H74509   2.319   5.747   4.199 -0.8214 -1.1689  1.6093
  552MOL0     H74510   2.644   5.577   3.920 -0.5453 -0.6315  0.8594
  552MOL0     H74511   2.557   5.720   3.860  0.8271 -1.0708 -0.7565
  552MOL0     H74512   2.747   5.737   4.100  0.4382  2.4882  0.0146
  552MOL0     H74513   2.711   5.861   3.979  1.0234 -0.0377 -1.2666
  552MOL0     H74514   2.871   5.784   3.841 -0.3819  1.6476 -0.1856
  552MOL0     H74515   2.851   5.610   3.880 -0.3876  0.4862 -1.1657
  552MOL0     H74516   2.999   5.827   4.044 -1.6444  1.3529 -1.8631
  552MOL0     H74517   3.068   5.700   3.939  0.2418 -1.1848  0.1239
  552MOL0     H74518   3.019   5.466   4.265  1.3843  1.8664  2.3291
  552MOL0     H74519   2.422   5.487   3.873  0.4839  2.0706 -1.3285
  552MOL0     H74520   2.173   5.424   3.859 -0.6493  0.2067 -0.3104
  553MOL0     O74521   6.777   5.773   5.631 -0.0473 -0.7709  0.0397
  553MOL0     C74522   6.812   5.678   5.566 -0.8467 -0.8408  0.2109
  553MOL0     O74523   6.727   5.590   5.500 -0.1822  0.0239  0.2209
  553MOL0     C74524   6.595   5.601   5.533 -0.0996  0.3690 -0.0507
  553MOL0     C74525   6.554   5.548   5.654 -0.4858 -0.6118  0.4173
  553MOL0     C74526   6.423   5.575   5.702  0.4593  0.6834  0.0929
  553MOL0     C74527   6.336   5.650   5.619  0.1377  0.1457 -0.6277
  553MOL0     O74528   6.205   5.644   5.663 -1.0405  0.4134  0.2265
  553MOL0     C74529   6.127   5.756   5.624  0.3188 -0.7003 -0.7178
  553MOL0     C74530   5.995   5.757   5.705  0.0519 -0.2446  0.0026
  553MOL0     C74531   5.885   5.828   5.618  1.0565 -0.4146 -0.9374
  553MOL0     C74532   5.737   5.808   5.682  0.1154 -0.1109 -0.0859
  553MOL0     C74533   5.625   5.898   5.634 -0.2289  0.2144 -0.5509
  553MOL0     C74534   5.490   5.868   5.692  0.1819 -0.6748 -0.2669
  553MOL0     C74535   5.377   5.961   5.655  0.0376  0.1574 -0.4004
  553MOL0     C74536   5.245   5.928   5.709  0.3464 -0.1815 -0.3106
  553MOL0     N74537   5.136   6.025   5.716  0.5634  0.7518  0.6271
  553MOL0     C74538   5.120   6.142   5.645 -0.2137  0.1306  0.3563
  553MOL0     C74539   5.007   6.193   5.704 -0.2553  0.4785 -1.2872
  553MOL0     C74540   4.925   6.317   5.688 -0.3536  0.1070  0.3763
  553MOL0     C74541   4.806   6.289   5.588  0.0554 -0.9676 -0.4162
  553MOL0     C74542   4.705   6.188   5.640 -0.0863  0.3249 -0.1196
  553MOL0     C74543   4.633   6.220   5.769 -0.0205  0.3066  0.2440
  553MOL0     O74544   4.564   6.338   5.768 -0.1426  0.6348 -0.5722
  553MOL0     C74545   4.429   6.331   5.787  0.0757 -0.1031  0.1024
  553MOL0     C74546   4.342   6.237   5.728 -0.3736  0.2256 -0.7547
  553MOL0     C74547   4.214   6.228   5.780  0.3489 -0.0730  0.1786
  553MOL0     C74548   4.124   6.132   5.712 -0.0747  0.0939  0.5368
  553MOL0     C74549   4.163   6.321   5.876 -0.2033 -0.0134 -0.3098
  553MOL0     C74550   4.012   6.322   5.924  0.6532 -0.7568  0.2279
  553MOL0     O74551   3.958   6.445   5.925 -0.3755 -0.9792  0.2300
  553MOL0     C74552   3.831   6.462   5.974  0.2813 -0.6071 -0.3265
  553MOL0     C74553   3.737   6.496   5.878 -0.2287  0.1940 -0.2804
  553MOL0     C74554   3.601   6.513   5.909  0.2758 -0.1976 -0.0980
  553MOL0     C74555   3.557   6.496   6.046 -0.8318  0.0189 -0.4548
  553MOL0     O74556   3.432   6.516   6.098 -0.0664  0.7540 -0.3022
  553MOL0     C74557   3.327   6.536   6.001 -0.2155  0.5817 -0.4098
  553MOL0     C74558   3.198   6.551   6.086 -0.3538  0.2310  0.0493
  553MOL0     C74559   3.073   6.541   5.994  0.4396  0.2726 -0.2463
  553MOL0     C74560   2.941   6.552   6.074 -0.1936 -0.7334  0.2765
  553MOL0     C74561   2.826   6.492   5.996 -0.1798  0.9277  0.5683
  553MOL0     C74562   2.697   6.526   6.060  0.0628 -0.3359  0.1841
  553MOL0     C74563   2.582   6.497   5.965 -0.3964 -0.1778  0.5566
  553MOL0     C74564   2.439   6.506   6.016 -0.2440  0.2720 -0.6890
  553MOL0    Cl74565   2.424   6.664   6.086  0.3011 -0.1250  0.1615
  553MOL0     C74566   3.659   6.459   6.143  0.7331 -0.2164 -0.0122
  553MOL0     C74567   3.795   6.446   6.111  0.2708  0.4377  0.3643
  553MOL0     O74568   3.969   6.220   5.974 -0.4245 -0.9100  0.3878
  553MOL0     C74569   4.246   6.418   5.918 -0.1716  0.0913 -0.3125
  553MOL0     C74570   4.380   6.429   5.875  0.7041 -0.3466  0.4156
  553MOL0     N74571   4.970   6.115   5.812  0.0285 -0.0859  0.3358
  553MOL0     N74572   5.046   6.017   5.821  0.1407  0.3354 -0.0549
  553MOL0     C74573   6.386   5.703   5.499  0.5449  0.0950 -0.4144
  553MOL0     C74574   6.515   5.685   5.457  0.3312 -0.1874 -0.7169
  553MOL0     C74575   6.964   5.661   5.544 -0.1267  0.2751 -0.0179
  553MOL0     C74576   7.002   5.537   5.479 -0.8361 -0.1590 -0.2912
  553MOL0     C74577   7.142   5.521   5.455  0.2037  0.0663  0.5827
  553MOL0     C74578   7.238   5.616   5.498  0.1821  0.0895 -0.3232
  553MOL0     O74579   7.375   5.608   5.491  0.4255  0.3333 -0.2506
  553MOL0     C74580   7.417   5.476   5.472 -0.4865 -0.1526  0.3295
  553MOL0     C74581   7.569   5.481   5.502  0.1107 -0.0096  0.2051
  553MOL0     C74582   7.631   5.356   5.556  0.5473  0.1981 -0.1178
  553MOL0     C74583   7.749   5.301   5.473 -0.4193  0.0059  0.0198
  553MOL0     C74584   7.857   5.393   5.431  0.6044 -0.0056  0.8591
  553MOL0     C74585   7.928   5.488   5.397  0.3902  0.4175  0.7854
  553MOL0     C74586   7.190   5.731   5.563  0.3210  0.3667 -0.9496
  553MOL0     C74587   7.053   5.758   5.575  0.4190  0.6245 -0.0889
  553MOL0     H74588   6.608   5.485   5.725 -1.6675  1.1746  3.0494
  553MOL0     H74589   6.393   5.535   5.798 -1.1574  1.8272  0.0971
  553MOL0     H74590   6.176   5.845   5.663 -1.5261 -0.1579  0.5142
  553MOL0     H74591   6.110   5.755   5.515 -2.7459  1.1362 -0.3655
  553MOL0     H74592   5.956   5.658   5.728 -1.4442  0.2134 -0.4833
  553MOL0     H74593   6.017   5.806   5.801 -1.6832 -0.9643  0.7954
  553MOL0     H74594   5.901   5.936   5.611 -0.0787 -0.0499  1.1165
  553MOL0     H74595   5.890   5.789   5.516 -0.1605 -1.5375 -0.5939
  553MOL0     H74596   5.709   5.703   5.670 -1.5330  0.2590  0.2657
  553MOL0     H74597   5.756   5.825   5.789  0.9800 -0.5561 -0.1648
  553MOL0     H74598   5.659   5.999   5.659  1.6636 -0.6174  0.4940
  553MOL0     H74599   5.615   5.887   5.526 -0.5428  0.0888 -0.5093
  553MOL0     H74600   5.467   5.765   5.665  0.1120 -1.2764  1.9483
  553MOL0     H74601   5.501   5.856   5.800  4.0753 -3.7248 -0.8009
  553MOL0     H74602   5.392   6.059   5.701  2.1065 -0.2115 -0.1770
  553MOL0     H74603   5.391   5.964   5.546  5.2460 -0.1453 -0.0080
  553MOL0     H74604   5.268   5.879   5.804  0.5056 -3.9208 -2.0995
  553MOL0     H74605   5.202   5.859   5.637 -0.8589  1.3523 -1.1178
  553MOL0     H74606   5.172   6.184   5.559  1.6716 -0.1940  1.2750
  553MOL0     H74607   4.886   6.352   5.784  0.9453  1.6981  0.3677
  553MOL0     H74608   4.990   6.392   5.641  0.1819 -0.3232  0.4115
  553MOL0     H74609   4.841   6.249   5.492 -1.8962  0.6722 -1.9072
  553MOL0     H74610   4.762   6.385   5.559  1.0039 -0.0704  0.9899
  553MOL0     H74611   4.749   6.088   5.641  0.0029  0.3654  0.1950
  553MOL0     H74612   4.627   6.177   5.564 -0.6305  0.6198  0.3849
  553MOL0     H74613   4.714   6.214   5.842 -0.2075 -0.1909  0.4151
  553MOL0     H74614   4.562   6.138   5.787 -0.7700  0.4309 -1.8044
  553MOL0     H74615   4.387   6.168   5.658 -0.8684  0.1666 -1.0140
  553MOL0     H74616   4.051   6.189   5.654 -0.3281  1.0351  1.7313
  553MOL0     H74617   4.169   6.062   5.642 -0.2997  1.2286 -0.7918
  553MOL0     H74618   4.078   6.074   5.792 -1.1585 -0.1373 -0.2447
  553MOL0     H74619   3.778   6.490   5.778 -1.5064 -1.1314 -0.7672
  553MOL0     H74620   3.527   6.532   5.833 -0.0930  0.2447  0.3643
  553MOL0     H74621   3.344   6.626   5.940 -1.3552  1.6735  0.8039
  553MOL0     H74622   3.328   6.445   5.940  1.8438 -0.0063  0.4422
  553MOL0     H74623   3.203   6.467   6.157  0.9269 -0.4989 -0.8696
  553MOL0     H74624   3.191   6.641   6.147 -0.7739 -0.7061  1.4328
  553MOL0     H74625   3.077   6.434   5.971  1.9586 -0.3144  2.3564
  553MOL0     H74626   3.085   6.603   5.905 -1.3855 -1.4313 -1.7709
  553MOL0     H74627   2.959   6.491   6.163 -1.7444  0.0602  1.1808
  553MOL0     H74628   2.928   6.659   6.096  0.6976 -0.6203  0.3022
  553MOL0     H74629   2.832   6.383   5.979  1.0404  0.9955  0.4243
  553MOL0     H74630   2.822   6.542   5.898 -0.9963 -1.0495 -0.4720
  553MOL0     H74631   2.690   6.482   6.160  0.8535 -0.0470  0.3810
  553MOL0     H74632   2.704   6.631   6.088  3.5435 -0.9586  2.2582
  553MOL0     H74633   2.598   6.401   5.914  2.3449  1.6146 -2.3481
  553MOL0     H74634   2.589   6.575   5.889 -1.3018 -0.8866 -0.2723
  553MOL0     H74635   2.426   6.427   6.090  1.2258  0.1722 -0.5049
  553MOL0     H74636   2.361   6.488   5.942 -0.6550  0.9200 -0.4099
  553MOL0     H74637   3.631   6.442   6.247  0.8264  2.2091  0.4557
  553MOL0     H74638   3.867   6.427   6.190  0.3549 -1.3141 -0.0953
  553MOL0     H74639   4.205   6.482   5.996 -0.6727  1.1982 -1.4507
  553MOL0     H74640   4.441   6.515   5.903 -1.5608  0.9961  1.5156
  553MOL0     H74641   6.311   5.752   5.436  0.4572 -0.1447 -0.4993
  553MOL0     H74642   6.558   5.716   5.362  0.9783 -3.4223 -1.6036
  553MOL0     H74643   6.928   5.463   5.451 -3.0101  1.0026  1.9999
  553MOL0     H74644   7.174   5.443   5.387  2.6225  3.5389 -2.6882
  553MOL0     H74645   7.363   5.411   5.541 -1.2846  2.1875  2.0499
  553MOL0     H74646   7.404   5.434   5.372 -3.3285  1.1800  0.0387
  553MOL0     H74647   7.595   5.545   5.587 -2.4229 -3.2969  3.8163
  553MOL0     H74648   7.618   5.522   5.413 -3.8865  4.2829 -0.4562
  553MOL0     H74649   7.548   5.284   5.563  0.3715  0.3908 -0.2133
  553MOL0     H74650   7.671   5.370   5.657  0.4475 -3.2660  0.5367
  553MOL0     H74651   7.710   5.270   5.376  1.5311  3.8025 -2.2217
  553MOL0     H74652   7.793   5.213   5.522 -0.6068 -0.3744 -0.4738
  553MOL0     H74653   8.001   5.565   5.385 -0.4062  1.2836  1.3998
  553MOL0     H74654   7.260   5.806   5.600  0.7408 -0.3117 -0.3393
  553MOL0     H74655   7.017   5.854   5.608  0.4004  0.7965 -0.6042
  554MOL0     O74656   6.480   7.723   2.555 -0.4917  0.5000 -0.0464
  554MOL0     C74657   6.588   7.748   2.611 -0.5301 -0.4609  0.2908
  554MOL0     O74658   6.614   7.750   2.745 -0.0941  0.2872 -0.4708
  554MOL0     C74659   6.506   7.715   2.822  0.4067  0.7380 -0.1218
  554MOL0     C74660   6.435   7.821   2.889 -0.0867 -0.3526 -0.9205
  554MOL0     C74661   6.323   7.799   2.960 -0.0391  0.7297  0.0008
  554MOL0     C74662   6.283   7.664   2.991 -0.1652 -0.5442 -0.0930
  554MOL0     O74663   6.186   7.631   3.075  0.6416  0.1298 -0.1003
  554MOL0     C74664   6.146   7.740   3.160 -0.4133 -0.4242  0.1111
  554MOL0     C74665   6.085   7.681   3.284 -0.1867  0.5547 -0.2584
  554MOL0     C74666   5.954   7.613   3.251  0.3158  0.9187  0.1250
  554MOL0     C74667   5.862   7.586   3.372  1.2593  0.3422 -0.5437
  554MOL0     C74668   5.720   7.541   3.324 -0.0101 -0.0990 -1.1390
  554MOL0     C74669   5.640   7.509   3.457 -0.0876 -0.1614  0.0280
  554MOL0     C74670   5.500   7.459   3.424  0.6177  0.1314  0.5792
  554MOL0     C74671   5.430   7.403   3.550 -0.1243  1.3799  0.1637
  554MOL0     N74672   5.290   7.388   3.543 -0.1105  0.2220  0.7934
  554MOL0     C74673   5.211   7.370   3.655 -0.1086  0.2970  0.4920
  554MOL0     C74674   5.081   7.396   3.617  0.2268  0.4464 -0.8218
  554MOL0     C74675   4.957   7.391   3.704 -0.8785  0.1796 -0.0806
  554MOL0     C74676   4.842   7.311   3.638 -0.5230 -0.1719  0.2248
  554MOL0     C74677   4.721   7.310   3.724 -0.0465  0.5535  0.9102
  554MOL0     C74678   4.602   7.248   3.656 -0.3394 -0.4022 -0.0006
  554MOL0     O74679   4.542   7.350   3.578  0.0831 -0.0987 -0.0454
  554MOL0     C74680   4.409   7.325   3.549  0.5503 -0.5408 -0.1330
  554MOL0     C74681   4.330   7.214   3.591  0.5612 -0.2032  0.8370
  554MOL0     C74682   4.188   7.201   3.564 -0.9518 -0.7995  1.2012
  554MOL0     C74683   4.107   7.087   3.626 -0.4200 -0.3703 -0.2534
  554MOL0     C74684   4.131   7.299   3.471 -0.1377  0.0554  0.0826
  554MOL0     C74685   3.989   7.287   3.418 -0.1675 -0.7827 -0.3265
  554MOL0     O74686   3.888   7.278   3.507  0.1257 -0.5561 -0.0943
  554MOL0     C74687   3.758   7.319   3.486 -0.4653  0.1123 -0.4581
  554MOL0     C74688   3.719   7.410   3.387 -0.8269  0.6902  0.3390
  554MOL0     C74689   3.582   7.431   3.364  0.2082 -0.1875  1.1984
  554MOL0     C74690   3.483   7.374   3.445 -0.1965  0.2783 -0.0317
  554MOL0     O74691   3.346   7.384   3.436  0.6884 -0.0196  0.3186
  554MOL0     C74692   3.284   7.464   3.333 -0.1365 -0.0908 -0.0771
  554MOL0     C74693   3.139   7.445   3.341 -0.2304 -0.3137  0.4391
  554MOL0     C74694   3.059   7.528   3.238  0.5003 -1.5563  0.0497
  554MOL0     C74695   2.912   7.532   3.262 -0.1487  0.1013  0.9636
  554MOL0     C74696   2.828   7.620   3.161 -0.2445 -0.2367  0.2360
  554MOL0     C74697   2.688   7.637   3.215  0.0087  0.4515  0.5718
  554MOL0     C74698   2.607   7.704   3.092 -0.3843  0.2344 -0.2609
  554MOL0     C74699   2.472   7.756   3.140 -0.1304  0.0137  0.2852
  554MOL0    Cl74700   2.494   7.911   3.229 -0.3974 -0.0671  0.5248
  554MOL0     C74701   3.524   7.306   3.556 -0.5793 -0.9088 -0.0121
  554MOL0     C74702   3.663   7.278   3.575  1.1267 -0.2205 -0.4319
  554MOL0     O74703   3.978   7.297   3.299  0.3366 -0.3375  0.2616
  554MOL0     C74704   4.216   7.400   3.421 -0.1604 -1.0395  0.7519
  554MOL0     C74705   4.345   7.416   3.464 -0.2522  0.6571  0.0503
  554MOL0     N74706   5.080   7.424   3.484 -0.2452  0.6209  0.1055
  554MOL0     N74707   5.206   7.420   3.438 -1.1222 -0.7211  0.3577
  554MOL0     C74708   6.349   7.559   2.926 -0.2245 -0.4125 -0.3391
  554MOL0     C74709   6.454   7.583   2.834 -0.0111  0.0421 -0.1635
  554MOL0     C74710   6.707   7.783   2.521 -0.9832 -0.7742  0.4873
  554MOL0     C74711   6.831   7.834   2.579 -0.1174 -0.8157 -0.6889
  554MOL0     C74712   6.930   7.891   2.487  0.2980 -0.7142 -0.1989
  554MOL0     C74713   6.918   7.883   2.350  0.3884 -0.3603 -0.5400
  554MOL0     O74714   7.018   7.947   2.283 -0.1744  0.0716  0.6248
  554MOL0     C74715   6.995   7.965   2.142  0.1884 -0.2732 -0.2831
  554MOL0     C74716   7.108   8.048   2.088 -0.0339 -0.3586 -0.3512
  554MOL0     C74717   7.095   8.092   1.944 -0.1145 -0.5639  0.3976
  554MOL0     C74718   7.207   8.173   1.867  0.2869 -0.2636  0.4112
  554MOL0     C74719   7.223   8.305   1.944 -0.6254  0.5730  0.4344
  554MOL0     C74720   7.233   8.403   2.010  0.3310 -0.6195 -0.0272
  554MOL0     C74721   6.804   7.821   2.299  0.2403  1.0303 -0.3953
  554MOL0     C74722   6.705   7.775   2.385  0.7031  0.7204 -0.5520
  554MOL0     H74723   6.464   7.925   2.882 -0.4264 -0.1874  0.0303
  554MOL0     H74724   6.276   7.884   3.009  0.2070  0.6717  0.3423
  554MOL0     H74725   6.234   7.795   3.195  0.7010 -1.2560 -1.2678
  554MOL0     H74726   6.085   7.817   3.112  0.5411  1.8454  2.3042
  554MOL0     H74727   6.145   7.604   3.334 -1.1573  1.0998  1.8423
  554MOL0     H74728   6.068   7.751   3.366  1.8622 -0.9725  1.5801
  554MOL0     H74729   5.897   7.659   3.170  1.2050  1.3864 -0.2506
  554MOL0     H74730   5.984   7.518   3.206 -0.6188  0.8298 -0.3308
  554MOL0     H74731   5.904   7.506   3.434  0.2059 -0.2665 -0.6032
  554MOL0     H74732   5.847   7.681   3.424  0.1312 -0.2779  0.3027
  554MOL0     H74733   5.676   7.621   3.265 -1.2883 -1.5270 -2.2060
  554MOL0     H74734   5.734   7.450   3.264 -1.6993 -1.4355  0.3768
  554MOL0     H74735   5.700   7.431   3.505 -0.4652  1.3928  3.3621
  554MOL0     H74736   5.618   7.591   3.526 -1.6408 -1.2015  0.8241
  554MOL0     H74737   5.443   7.547   3.394 -0.7343 -0.2719  1.8006
  554MOL0     H74738   5.496   7.385   3.344 -2.2827  0.0665  0.6660
  554MOL0     H74739   5.445   7.472   3.633 -2.5087  0.8369  1.1047
  554MOL0     H74740   5.484   7.315   3.587  0.6601  0.9605 -1.8239
  554MOL0     H74741   5.248   7.348   3.755  1.5258 -0.6438 -0.2735
  554MOL0     H74742   4.979   7.347   3.802  0.1286  3.0472  1.0880
  554MOL0     H74743   4.927   7.495   3.719 -0.1739  0.1762  1.5838
  554MOL0     H74744   4.876   7.208   3.624 -0.5575 -0.1140 -0.3300
  554MOL0     H74745   4.796   7.349   3.546 -1.7512 -2.0224  0.0221
  554MOL0     H74746   4.683   7.409   3.753 -0.1139  0.8807 -0.2660
  554MOL0     H74747   4.750   7.257   3.815 -1.1110  1.0426  1.5644
  554MOL0     H74748   4.543   7.207   3.739 -1.0483  0.6503  0.0230
  554MOL0     H74749   4.622   7.159   3.595 -1.4060 -1.8612  1.6738
  554MOL0     H74750   4.362   7.133   3.655 -1.5600  0.7213  3.2732
  554MOL0     H74751   4.002   7.095   3.595 -0.3068  0.8263 -0.3685
  554MOL0     H74752   4.153   6.992   3.597 -1.3045 -1.0955  0.6224
  554MOL0     H74753   4.106   7.086   3.736  0.6586 -0.4261 -0.2411
  554MOL0     H74754   3.802   7.445   3.325  0.1020 -4.4520 -1.8587
  554MOL0     H74755   3.558   7.489   3.275  0.3592 -3.9045 -1.4852
  554MOL0     H74756   3.310   7.568   3.353  1.9879 -0.7741  1.0394
  554MOL0     H74757   3.314   7.430   3.233 -0.1944  1.9806 -0.8374
  554MOL0     H74758   3.126   7.342   3.308  1.4103 -0.0116 -1.3779
  554MOL0     H74759   3.092   7.471   3.436 -1.2760  4.2056 -1.0275
  554MOL0     H74760   3.079   7.486   3.139 -1.6833  0.5623 -1.3856
  554MOL0     H74761   3.086   7.634   3.239 -0.9489 -0.8843 -4.9651
  554MOL0     H74762   2.881   7.430   3.239  0.8208 -0.2027  0.9578
  554MOL0     H74763   2.897   7.568   3.365  2.0902 -0.5903  1.5864
  554MOL0     H74764   2.832   7.569   3.064 -2.6594 -0.6642  0.2985
  554MOL0     H74765   2.879   7.714   3.141  0.5432 -0.5095  0.9080
  554MOL0     H74766   2.647   7.538   3.237 -1.5028  0.8395 -0.4035
  554MOL0     H74767   2.687   7.703   3.302  1.2558  1.7303 -0.3445
  554MOL0     H74768   2.585   7.621   3.024 -1.8276 -1.4783  2.1214
  554MOL0     H74769   2.666   7.779   3.039 -0.8651  1.3048  0.6874
  554MOL0     H74770   2.419   7.682   3.201 -0.4649  2.2464  2.8776
  554MOL0     H74771   2.407   7.771   3.053 -0.6185 -1.2542  0.4038
  554MOL0     H74772   3.448   7.275   3.627 -0.9504  1.1414  0.5557
  554MOL0     H74773   3.689   7.206   3.652 -0.8547 -0.8210 -0.2557
  554MOL0     H74774   4.177   7.475   3.353  0.5628  1.0923  2.5758
  554MOL0     H74775   4.403   7.496   3.419  2.9291 -1.9653 -0.9216
  554MOL0     H74776   6.324   7.457   2.956  0.1528 -0.1576  0.8841
  554MOL0     H74777   6.509   7.498   2.793 -0.9429 -1.0032  0.6630
  554MOL0     H74778   6.834   7.850   2.686 -1.6534 -0.4543 -0.6762
  554MOL0     H74779   7.017   7.938   2.531  1.8032 -1.2491 -2.4661
  554MOL0     H74780   6.999   7.868   2.092 -2.0065 -0.6963  0.2874
  554MOL0     H74781   6.895   8.001   2.117  0.3897  0.5599  0.0676
  554MOL0     H74782   7.204   7.996   2.099 -0.7403 -2.1556 -2.1977
  554MOL0     H74783   7.116   8.142   2.143 -2.5948  0.8723 -1.9012
  554MOL0     H74784   7.004   8.153   1.942  0.1132 -0.1615  1.5531
  554MOL0     H74785   7.073   8.005   1.881 -0.5441  0.4320 -0.8761
  554MOL0     H74786   7.175   8.201   1.766  0.3123  2.2033  1.0038
  554MOL0     H74787   7.303   8.121   1.866  0.6275  0.3397 -1.0345
  554MOL0     H74788   7.230   8.487   2.077  0.6772 -0.0238 -0.7343
  554MOL0     H74789   6.778   7.821   2.194 -2.0309 -0.4359  0.0949
  554MOL0     H74790   6.614   7.726   2.349 -1.0619  3.0823  0.4276
  555MOL0     O74791   6.027   9.717   1.308  0.5038 -0.4634  0.3702
  555MOL0     C74792   6.123   9.795   1.311  0.0378 -0.7190  1.0493
  555MOL0     O74793   6.120   9.913   1.376 -0.1399  0.6189  0.2902
  555MOL0     C74794   6.033   9.930   1.480 -0.1389  0.0088 -0.4517
  555MOL0     C74795   6.073   9.913   1.614 -0.4713  0.1148 -0.3977
  555MOL0     C74796   5.984   9.912   1.716  0.3027 -0.0998 -0.0257
  555MOL0     C74797   5.844   9.928   1.692  1.0741 -0.0449  0.1628
  555MOL0     O74798   5.755   9.918   1.796 -0.2092  0.1102  0.0762
  555MOL0     C74799   5.621   9.962   1.780  1.0189 -0.3311  1.0091
  555MOL0     C74800   5.547   9.829   1.735  0.4534 -0.7565  0.1278
  555MOL0     C74801   5.540   9.740   1.855  0.3789  0.9560 -0.4629
  555MOL0     C74802   5.465   9.614   1.824 -0.5570  0.1824 -0.1188
  555MOL0     C74803   5.494   9.517   1.943  0.2353  0.0833  0.8590
  555MOL0     C74804   5.402   9.390   1.918 -0.5801  0.5393  0.2894
  555MOL0     C74805   5.323   9.344   2.036 -0.0812 -0.0733  0.3212
  555MOL0     C74806   5.419   9.286   2.142  0.2692 -0.5300  0.1624
  555MOL0     N74807   5.359   9.192   2.236  0.1563 -0.0787  0.1752
  555MOL0     C74808   5.265   9.093   2.200 -0.0450 -0.0822  0.2182
  555MOL0     C74809   5.220   9.038   2.317  0.0508 -0.1168 -0.5594
  555MOL0     C74810   5.120   8.919   2.329 -0.2490 -0.2094  0.2919
  555MOL0     C74811   4.985   8.956   2.267  0.6890  0.0682  0.3725
  555MOL0     C74812   4.899   8.840   2.306  0.7466  0.7602 -0.3041
  555MOL0     C74813   4.750   8.847   2.263 -0.6344 -0.5359  0.2553
  555MOL0     O74814   4.655   8.889   2.355 -0.4881 -0.4963 -0.7803
  555MOL0     C74815   4.526   8.868   2.332 -0.2856 -0.4593  0.1138
  555MOL0     C74816   4.472   8.862   2.201 -0.5662 -0.1003 -0.2754
  555MOL0     C74817   4.341   8.840   2.162  0.4040 -0.3459  0.2936
  555MOL0     C74818   4.308   8.845   2.019  0.1048 -0.2355  0.1868
  555MOL0     C74819   4.246   8.828   2.264 -0.7849  0.2522 -0.4973
  555MOL0     C74820   4.093   8.820   2.247 -0.5940 -0.1742 -0.6178
  555MOL0     O74821   4.027   8.812   2.374  0.0800 -0.0300 -0.5732
  555MOL0     C74822   3.890   8.805   2.377  0.5963  0.4024 -0.0298
  555MOL0     C74823   3.817   8.692   2.431 -0.1538 -0.2677  0.1109
  555MOL0     C74824   3.677   8.691   2.434 -0.1175  0.0409  0.0463
  555MOL0     C74825   3.601   8.792   2.375 -0.5844  0.3845 -0.0750
  555MOL0     O74826   3.461   8.780   2.367 -0.0525 -0.7674 -0.0757
  555MOL0     C74827   3.388   8.880   2.442  0.1222  0.1403  0.1914
  555MOL0     C74828   3.238   8.859   2.423  0.4197  0.4232 -0.2630
  555MOL0     C74829   3.192   8.705   2.422 -0.5551  0.1525 -0.4280
  555MOL0     C74830   3.042   8.707   2.452 -0.3189 -0.6835 -0.2810
  555MOL0     C74831   2.974   8.566   2.440  0.0484 -0.5831  0.7988
  555MOL0     C74832   2.825   8.564   2.475 -0.1625  0.3801 -0.1982
  555MOL0     C74833   2.778   8.415   2.465 -0.0615 -0.3919 -0.3246
  555MOL0     C74834   2.630   8.397   2.438  0.7152  0.2696 -0.0109
  555MOL0    Cl74835   2.535   8.488   2.558 -0.1928  0.1614  0.1765
  555MOL0     C74836   3.676   8.903   2.323 -0.5609 -0.4881 -0.4463
  555MOL0     C74837   3.815   8.918   2.331 -0.1296  0.5325 -0.4175
  555MOL0     O74838   4.039   8.840   2.141 -0.3014  0.1406 -0.1011
  555MOL0     C74839   4.298   8.833   2.399  0.0311 -0.4193 -0.1476
  555MOL0     C74840   4.433   8.854   2.431  0.0676  0.5420 -0.7463
  555MOL0     N74841   5.274   9.098   2.421  0.4816 -0.4254  0.1504
  555MOL0     N74842   5.365   9.182   2.369  0.0737 -0.7333 -0.2297
  555MOL0     C74843   5.803   9.931   1.557  0.5856  0.3296  0.2039
  555MOL0     C74844   5.897   9.933   1.454  0.4381 -0.1696  0.2591
  555MOL0     C74845   6.244   9.769   1.236 -0.0721  0.4433 -0.6345
  555MOL0     C74846   6.286   9.640   1.214 -0.2196 -0.0073 -0.6981
  555MOL0     C74847   6.413   9.613   1.156 -0.7458 -0.6433  0.2394
  555MOL0     C74848   6.496   9.724   1.120 -0.1224  0.8450  0.1198
  555MOL0     O74849   6.612   9.712   1.046 -0.5664 -0.0957  0.2158
  555MOL0     C74850   6.684   9.587   1.031 -0.6469  0.6712 -0.0199
  555MOL0     C74851   6.655   9.525   0.890  0.3328 -0.5670 -0.1292
  555MOL0     C74852   6.686   9.620   0.772 -0.7513 -1.0922 -0.1603
  555MOL0     C74853   6.617   9.557   0.650 -0.1671 -0.0406 -1.0884
  555MOL0     C74854   6.625   9.631   0.524 -0.2382  0.0807  0.2613
  555MOL0     C74855   6.632   9.680   0.418  0.8468  0.1111  0.7345
  555MOL0     C74856   6.457   9.851   1.152  0.4065 -0.9701 -0.1574
  555MOL0     C74857   6.340   9.872   1.215 -0.9335  0.8989  0.0451
  555MOL0     H74858   6.179   9.901   1.634 -0.8112  1.3822  2.6931
  555MOL0     H74859   6.011   9.901   1.820 -1.2382 -0.5341  0.3544
  555MOL0     H74860   5.577  10.012   1.867 -0.7271  0.4095 -0.2500
  555MOL0     H74861   5.614  10.042   1.707  1.3912 -0.0955  1.2292
  555MOL0     H74862   5.442   9.844   1.708  0.3332  0.1847  1.0844
  555MOL0     H74863   5.608   9.785   1.655  0.0700 -0.2309 -0.4693
  555MOL0     H74864   5.642   9.712   1.883  0.8178  1.9836 -0.9972
  555MOL0     H74865   5.491   9.787   1.941  3.5802  0.4625  1.8130
  555MOL0     H74866   5.360   9.642   1.821 -0.4439  0.5911 -0.4682
  555MOL0     H74867   5.483   9.568   1.726 -0.0459 -0.5985  0.3284
  555MOL0     H74868   5.599   9.492   1.958  0.5869  2.3393  2.6375
  555MOL0     H74869   5.441   9.562   2.028 -1.7685 -1.1185  0.3132
  555MOL0     H74870   5.326   9.411   1.841 -3.0725 -2.2932  1.7407
  555MOL0     H74871   5.450   9.299   1.880 -0.8483  0.6014 -0.2206
  555MOL0     H74872   5.263   9.425   2.078 -0.8497  0.0753 -0.9874
  555MOL0     H74873   5.253   9.266   2.004 -1.1209  0.8376  0.3369
  555MOL0     H74874   5.477   9.363   2.193 -1.3542 -0.1313  1.4863
  555MOL0     H74875   5.493   9.228   2.084  1.2695 -0.3302  1.2027
  555MOL0     H74876   5.222   9.083   2.101 -2.0568  1.7974  0.8361
  555MOL0     H74877   5.171   8.831   2.288  1.0353 -0.8516  3.0723
  555MOL0     H74878   5.111   8.890   2.434  1.4756  0.2598  0.6009
  555MOL0     H74879   4.986   8.980   2.160 -0.5461  0.1705  0.3734
  555MOL0     H74880   4.951   9.047   2.316 -1.1923 -0.3200 -0.1409
  555MOL0     H74881   4.897   8.829   2.415 -0.9820 -0.7926 -0.4342
  555MOL0     H74882   4.952   8.751   2.273 -0.0506  0.0329  0.3241
  555MOL0     H74883   4.733   8.741   2.237  0.2576 -1.1333  1.9614
  555MOL0     H74884   4.730   8.907   2.174  2.5384  2.5446  1.3962
  555MOL0     H74885   4.530   8.885   2.112 -1.1895 -1.7089 -1.1524
  555MOL0     H74886   4.271   8.942   1.983 -0.7088 -0.6777 -0.1936
  555MOL0     H74887   4.401   8.825   1.964  0.0645  1.5178 -0.5887
  555MOL0     H74888   4.233   8.770   1.992  0.8234 -0.9552  0.1323
  555MOL0     H74889   3.877   8.607   2.460 -2.0656 -1.3977  0.9056
  555MOL0     H74890   3.623   8.612   2.485 -2.0051  1.1848 -0.0964
  555MOL0     H74891   3.418   8.866   2.547  3.4579 -0.3649 -0.7302
  555MOL0     H74892   3.415   8.983   2.416  1.2523 -0.8262 -2.8754
  555MOL0     H74893   3.195   8.909   2.511 -0.1728 -3.0762  1.6252
  555MOL0     H74894   3.200   8.904   2.331 -0.9674  1.0297  0.5674
  555MOL0     H74895   3.248   8.648   2.497  1.3609  1.0792 -1.0691
  555MOL0     H74896   3.206   8.646   2.331 -1.1264 -2.1635  0.9078
  555MOL0     H74897   3.025   8.751   2.550  0.4746 -2.8047  0.8667
  555MOL0     H74898   3.001   8.775   2.377  0.8455  1.6427  1.0838
  555MOL0     H74899   3.036   8.503   2.504  0.3364  0.8157  1.9402
  555MOL0     H74900   2.983   8.533   2.336 -0.4350  0.8154  0.2853
  555MOL0     H74901   2.808   8.595   2.578  0.0885 -1.5466  0.4697
  555MOL0     H74902   2.767   8.629   2.408  0.8268 -2.0607 -3.7408
  555MOL0     H74903   2.790   8.360   2.558  0.8191 -3.3659 -2.0695
  555MOL0     H74904   2.838   8.363   2.390 -0.3792  0.3439 -1.1046
  555MOL0     H74905   2.617   8.290   2.452 -0.6813  0.5485  1.1272
  555MOL0     H74906   2.608   8.438   2.339 -1.4331  2.8346  1.3969
  555MOL0     H74907   3.621   8.986   2.280  0.0235  1.2098  1.8995
  555MOL0     H74908   3.852   9.014   2.298 -0.9587  1.2620  0.7239
  555MOL0     H74909   4.234   8.826   2.486  1.3919 -1.3007  0.8237
  555MOL0     H74910   4.457   8.869   2.535 -0.7543  1.4665 -0.6810
  555MOL0     H74911   5.699   9.951   1.531  0.9035 -0.6165 -2.0180
  555MOL0     H74912   5.861   9.943   1.353  0.6606 -0.0200  0.1956
  555MOL0     H74913   6.230   9.553   1.245 -1.0905  0.4742 -0.8909
  555MOL0     H74914   6.438   9.507   1.146 -0.1253 -0.4721 -0.0917
  555MOL0     H74915   6.792   9.602   1.043 -0.7682  1.0811  0.6010
  555MOL0     H74916   6.654   9.510   1.103  0.3234 -1.0436 -1.3614
  555MOL0     H74917   6.549   9.499   0.879  0.6501 -2.4072  0.7715
  555MOL0     H74918   6.703   9.429   0.866 -0.4173 -1.5599  2.0404
  555MOL0     H74919   6.793   9.615   0.749 -0.5874 -0.0209  0.2720
  555MOL0     H74920   6.656   9.723   0.794 -1.2744 -1.3979  0.6219
  555MOL0     H74921   6.509   9.558   0.667 -0.2030  0.8449 -1.2933
  555MOL0     H74922   6.655   9.457   0.629  1.7037  0.5800 -0.8801
  555MOL0     H74923   6.644   9.730   0.324  0.4734 -1.4080 -0.1593
  555MOL0     H74924   6.526   9.935   1.144 -0.6787 -0.1512 -1.2134
  555MOL0     H74925   6.325   9.971   1.255  1.1992  1.1051  0.4885
  556MOL0     O74926   5.961   1.658   5.745  0.1531  0.2611  0.3074
  556MOL0     C74927   6.052   1.655   5.825 -0.3562  0.5773  0.0174
  556MOL0     O74928   6.047   1.706   5.956 -0.0118 -0.0097  0.2523
  556MOL0     C74929   5.941   1.778   6.001 -0.1315  0.4668 -0.9919
  556MOL0     C74930   5.804   1.748   5.980 -0.2365  0.2448  0.6379
  556MOL0     C74931   5.703   1.820   6.044  0.3764  0.0163  0.5000
  556MOL0     C74932   5.730   1.918   6.142 -0.0636 -0.4923  0.0504
  556MOL0     O74933   5.635   1.988   6.217 -0.2892 -0.8726  0.0960
  556MOL0     C74934   5.520   1.920   6.257 -0.2850  0.2664 -0.4320
  556MOL0     C74935   5.470   1.970   6.387  0.3799  0.3218  0.0608
  556MOL0     C74936   5.455   2.117   6.417  0.2077  0.8858 -0.3138
  556MOL0     C74937   5.309   2.155   6.403  0.8465  0.2871 -0.0857
  556MOL0     C74938   5.283   2.305   6.402  0.2944  0.5222  0.6490
  556MOL0     C74939   5.139   2.354   6.415  0.6419 -0.1590  0.3053
  556MOL0     C74940   5.027   2.290   6.326 -0.7834 -0.6583 -0.8387
  556MOL0     C74941   4.903   2.365   6.363 -0.3622  0.6996  0.1126
  556MOL0     N74942   4.786   2.327   6.289 -0.4140  0.0543 -0.0742
  556MOL0     C74943   4.748   2.370   6.160  0.7373  0.2740  0.6053
  556MOL0     C74944   4.616   2.346   6.151 -0.0859 -0.2941 -0.5182
  556MOL0     C74945   4.523   2.382   6.042 -0.3944  0.1040 -0.6088
  556MOL0     C74946   4.379   2.329   6.050 -0.1768  0.0272  0.3903
  556MOL0     C74947   4.293   2.370   5.930 -0.4094 -0.0460 -0.1548
  556MOL0     C74948   4.202   2.487   5.966 -0.2782 -0.0132 -0.5321
  556MOL0     O74949   4.113   2.519   5.862  0.4860  0.0407  0.3009
  556MOL0     C74950   4.021   2.617   5.860 -0.8588  1.1740 -0.3000
  556MOL0     C74951   3.921   2.617   5.764  0.2947  0.3678 -0.4462
  556MOL0     C74952   3.810   2.713   5.774 -0.1546  0.1597 -1.0197
  556MOL0     C74953   3.709   2.714   5.667 -0.1134 -0.9944  0.4565
  556MOL0     C74954   3.805   2.797   5.884 -0.4634  0.1243 -0.1334
  556MOL0     C74955   3.689   2.887   5.918 -0.1091 -0.5940 -0.1597
  556MOL0     O74956   3.668   2.914   6.053 -0.1020  0.4508  0.4869
  556MOL0     C74957   3.556   2.992   6.077 -0.2718 -0.3469 -0.4656
  556MOL0     C74958   3.430   2.937   6.062 -1.2021 -0.7334 -0.3170
  556MOL0     C74959   3.321   3.021   6.092 -0.2908  0.6942 -0.6530
  556MOL0     C74960   3.335   3.149   6.149 -0.0276  0.0380  0.0692
  556MOL0     O74961   3.215   3.215   6.184 -0.6039 -0.3189 -0.0981
  556MOL0     C74962   3.217   3.352   6.232 -0.0123 -0.3907  0.2750
  556MOL0     C74963   3.075   3.397   6.251  0.7033 -0.9233  0.2313
  556MOL0     C74964   3.070   3.549   6.259  0.5750 -0.1559  0.1709
  556MOL0     C74965   2.934   3.612   6.289 -0.1670  0.3155 -0.1118
  556MOL0     C74966   2.939   3.757   6.337 -0.3054  0.0587 -0.3510
  556MOL0     C74967   2.998   3.846   6.226  0.0640  0.3673  0.3850
  556MOL0     C74968   2.988   3.996   6.255 -0.5868  0.1025 -0.4418
  556MOL0     C74969   3.049   4.073   6.139 -0.7389 -0.3522  0.2534
  556MOL0    Cl74970   3.052   4.246   6.160 -0.2833  0.3940  0.3531
  556MOL0     C74971   3.464   3.193   6.169 -0.8012 -1.5651 -0.1759
  556MOL0     C74972   3.576   3.119   6.134  0.1608 -0.2529  0.6205
  556MOL0     O74973   3.630   2.935   5.818 -0.2570  0.2176 -0.2307
  556MOL0     C74974   3.909   2.795   5.980 -0.7336  0.0883 -0.6669
  556MOL0     C74975   4.023   2.710   5.958  0.5812  0.2959 -0.4593
  556MOL0     N74976   4.577   2.275   6.260  0.5828  0.6891  0.0967
  556MOL0     N74977   4.675   2.259   6.342  0.7063 -0.2089 -0.7325
  556MOL0     C74978   5.868   1.937   6.178  0.0281  0.0190 -0.2182
  556MOL0     C74979   5.970   1.876   6.101 -0.0928  0.9318 -0.2518
  556MOL0     C74980   6.183   1.606   5.781  0.2361 -0.4807  0.1615
  556MOL0     C74981   6.292   1.582   5.868  0.6755  0.9105 -0.3271
  556MOL0     C74982   6.415   1.532   5.822  0.9464  0.4655  0.7250
  556MOL0     C74983   6.440   1.523   5.689 -0.6325 -0.0705 -0.4632
  556MOL0     O74984   6.571   1.474   5.674  1.2351  0.3716 -0.5464
  556MOL0     C74985   6.629   1.487   5.548  1.5334  0.1350  0.0670
  556MOL0     C74986   6.707   1.608   5.541 -0.8259 -0.3157  0.6071
  556MOL0     C74987   6.819   1.614   5.643 -0.0408  0.4953 -0.5155
  556MOL0     C74988   6.900   1.743   5.634 -0.2910  0.0346  0.3795
  556MOL0     C74989   6.817   1.863   5.614  0.3422  0.2729 -0.3305
  556MOL0     C74990   6.745   1.965   5.611  0.1383  0.4955  0.0242
  556MOL0     C74991   6.338   1.557   5.595  0.2129 -0.2923  0.9580
  556MOL0     C74992   6.209   1.590   5.642  0.0739  0.0846 -0.0156
  556MOL0     H74993   5.769   1.667   5.918 -0.6113  1.5249 -0.8806
  556MOL0     H74994   5.602   1.795   6.012  0.0589  0.5974  1.0445
  556MOL0     H74995   5.444   1.947   6.183  1.1182  0.7313 -1.7723
  556MOL0     H74996   5.528   1.811   6.251 -1.2497 -0.0873  2.8196
  556MOL0     H74997   5.371   1.925   6.392  0.9240 -0.7506  3.2737
  556MOL0     H74998   5.532   1.921   6.462  0.7747 -1.3336 -1.2892
  556MOL0     H74999   5.489   2.131   6.520  0.3198  0.3888 -0.2821
  556MOL0     H75000   5.522   2.172   6.350 -0.3364  0.6019 -1.1106
  556MOL0     H75001   5.257   2.117   6.314 -2.8464  2.2160  1.0610
  556MOL0     H75002   5.261   2.116   6.493  2.1125  1.3201  1.0822
  556MOL0     H75003   5.343   2.358   6.477  2.3643  1.8742 -1.8148
  556MOL0     H75004   5.327   2.339   6.308  0.1202 -0.0194  0.3635
  556MOL0     H75005   5.113   2.345   6.521  0.2054  1.2331  0.3370
  556MOL0     H75006   5.144   2.461   6.394 -0.2745  0.2224  1.8584
  556MOL0     H75007   5.054   2.289   6.220  0.2656 -1.6381 -0.5844
  556MOL0     H75008   5.028   2.185   6.358  1.6425 -1.5332 -3.4526
  556MOL0     H75009   4.911   2.474   6.361 -1.8937  0.8270 -0.8510
  556MOL0     H75010   4.876   2.346   6.467 -0.9914  0.8435 -0.0201
  556MOL0     H75011   4.809   2.422   6.088  1.1006 -0.9804 -0.0042
  556MOL0     H75012   4.516   2.491   6.032 -1.2866 -0.1179 -3.3804
  556MOL0     H75013   4.569   2.358   5.946  0.3815 -1.2790  0.0874
  556MOL0     H75014   4.330   2.360   6.142 -0.1090 -0.1070  0.4711
  556MOL0     H75015   4.388   2.220   6.054 -0.1827 -0.0238 -0.7093
  556MOL0     H75016   4.234   2.282   5.907  4.4715 -3.1754 -2.4074
  556MOL0     H75017   4.358   2.384   5.843  0.8461 -0.5129  0.6608
  556MOL0     H75018   4.263   2.578   5.978  2.6275 -1.4512 -3.1113
  556MOL0     H75019   4.156   2.466   6.063  1.6162  1.1640  0.6888
  556MOL0     H75020   3.922   2.553   5.676  2.1423  1.9105 -1.6406
  556MOL0     H75021   3.710   2.624   5.605 -1.9702 -0.2155 -0.7801
  556MOL0     H75022   3.612   2.711   5.716 -0.7175 -2.1933 -0.7432
  556MOL0     H75023   3.731   2.799   5.602  0.1485 -0.3719  1.3335
  556MOL0     H75024   3.433   2.844   6.007  0.8607  0.0998 -1.7602
  556MOL0     H75025   3.224   2.974   6.075  0.1440  0.5884 -3.2913
  556MOL0     H75026   3.277   3.357   6.324 -0.7345 -1.4437  0.8218
  556MOL0     H75027   3.266   3.413   6.156 -0.2263  0.3114  0.6942
  556MOL0     H75028   3.005   3.363   6.174  2.2717 -1.3884 -1.0439
  556MOL0     H75029   3.039   3.355   6.346 -0.1365 -2.1276 -0.5853
  556MOL0     H75030   3.111   3.598   6.170  0.9295  0.0914  0.4635
  556MOL0     H75031   3.130   3.602   6.334 -0.9291  2.4932 -0.3703
  556MOL0     H75032   2.866   3.596   6.205 -2.6823 -0.6158  1.9615
  556MOL0     H75033   2.891   3.555   6.372  1.3520 -1.1180 -0.2578
  556MOL0     H75034   3.010   3.763   6.420  0.3561 -1.8316 -0.7154
  556MOL0     H75035   2.842   3.786   6.377  0.2466 -0.0863  1.1611
  556MOL0     H75036   3.100   3.817   6.197 -0.1422 -0.0650  0.0872
  556MOL0     H75037   2.927   3.831   6.144 -2.4962  2.8879  1.9513
  556MOL0     H75038   3.037   4.020   6.350 -1.7521  1.4605 -0.1450
  556MOL0     H75039   2.879   4.006   6.265 -0.3554  0.7139  2.1559
  556MOL0     H75040   3.000   4.049   6.044  1.3720  0.7949 -1.1892
  556MOL0     H75041   3.151   4.035   6.133 -0.7732 -0.7635  1.9390
  556MOL0     H75042   3.490   3.287   6.216  2.1792 -1.6142 -1.5070
  556MOL0     H75043   3.674   3.163   6.144  0.6816 -0.6380 -1.9204
  556MOL0     H75044   3.909   2.844   6.077  1.1094  0.8243 -0.9924
  556MOL0     H75045   4.095   2.718   6.038 -1.0314  0.3447  1.0668
  556MOL0     H75046   5.896   2.004   6.258 -0.6500  0.8906 -0.6946
  556MOL0     H75047   6.075   1.885   6.126  0.0752  4.7027 -1.6100
  556MOL0     H75048   6.277   1.604   5.974 -3.8936 -0.3031 -0.5039
  556MOL0     H75049   6.494   1.501   5.889 -0.5893 -6.7182 -0.0298
  556MOL0     H75050   6.694   1.401   5.530  1.6646  0.2062  0.2054
  556MOL0     H75051   6.556   1.497   5.467  1.3332  0.5856  0.3016
  556MOL0     H75052   6.639   1.693   5.543  0.2859  0.5755  2.0437
  556MOL0     H75053   6.758   1.614   5.444 -1.0469  0.7313  0.5473
  556MOL0     H75054   6.875   1.524   5.616 -0.4466  0.1954 -0.3648
  556MOL0     H75055   6.774   1.600   5.742  0.5191 -1.1274 -0.4634
  556MOL0     H75056   6.964   1.737   5.545  0.2553  0.8800  0.7006
  556MOL0     H75057   6.968   1.760   5.718  1.1086 -1.0614 -0.4683
  556MOL0     H75058   6.678   2.047   5.623 -1.9598 -1.3727  2.0322
  556MOL0     H75059   6.354   1.542   5.489  1.9776  2.4285  0.7353
  556MOL0     H75060   6.138   1.613   5.563  1.6896 -1.8350 -2.1891
  557MOL0     O75061   2.388   7.348   0.152  0.3299  0.3014  0.4152
  557MOL0     C75062   2.460   7.416   0.081 -0.5782  0.0241  0.0561
  557MOL0     O75063   2.423   7.464  -0.033 -0.2102  0.3363  0.3097
  557MOL0     C75064   2.299   7.442  -0.086  0.0857  0.2794 -1.2985
  557MOL0     C75065   2.302   7.377  -0.207  0.2256 -0.0667 -0.0331
  557MOL0     C75066   2.177   7.366  -0.278 -0.0304  0.3696 -0.2266
  557MOL0     C75067   2.056   7.412  -0.228  0.2722 -0.3397 -0.0268
  557MOL0     O75068   1.944   7.390  -0.309 -0.6178  0.0021 -0.6543
  557MOL0     C75069   1.813   7.393  -0.258  0.0031 -0.3170  0.7183
  557MOL0     C75070   1.715   7.318  -0.347  0.1892  0.7280 -0.2460
  557MOL0     C75071   1.720   7.360  -0.488 -0.2439  0.2107  0.4734
  557MOL0     C75072   1.635   7.279  -0.586 -0.3068  0.3356 -0.3091
  557MOL0     C75073   1.653   7.328  -0.730 -0.4633 -1.3174 -0.0195
  557MOL0     C75074   1.616   7.222  -0.838  0.6495 -0.5533  0.0934
  557MOL0     C75075   1.494   7.132  -0.792  0.2748  0.4642  0.2136
  557MOL0     C75076   1.452   7.028  -0.891 -0.0216  0.1790  0.5812
  557MOL0     N75077   1.315   6.986  -0.855  0.2169  0.2850 -0.3716
  557MOL0     C75078   1.279   6.867  -0.791  0.4233 -0.0522  0.7450
  557MOL0     C75079   1.148   6.886  -0.781  0.2380  0.0694 -0.6637
  557MOL0     C75080   1.044   6.793  -0.729  0.0751  0.0121  0.2744
  557MOL0     C75081   1.072   6.649  -0.768  0.1632  0.2897  0.4181
  557MOL0     C75082   0.966   6.552  -0.700 -0.4810  0.0349  0.1461
  557MOL0     C75083   0.988   6.410  -0.753 -0.2048 -1.0845 -0.6153
  557MOL0     O75084   0.911   6.313  -0.678 -0.1993 -0.4565 -0.0461
  557MOL0     C75085   0.773   6.310  -0.701  0.3975  0.6452  0.4903
  557MOL0     C75086   0.728   6.237  -0.810  0.3137  0.3552 -0.3331
  557MOL0     C75087   0.592   6.224  -0.849  0.1123  0.5061 -1.1035
  557MOL0     C75088   0.575   6.154  -0.981  0.5979 -0.2992  0.0102
  557MOL0     C75089   0.491   6.266  -0.749 -0.9615 -0.4663  0.0247
  557MOL0     C75090   0.345   6.233  -0.759 -0.4696  0.2521 -0.1375
  557MOL0     O75091   0.273   6.302  -0.667 -0.1358  0.1284 -0.3678
  557MOL0     C75092   0.139   6.313  -0.685  0.3385  0.2116  0.8180
  557MOL0     C75093   0.047   6.210  -0.728  0.4735 -0.5501  0.4058
  557MOL0     C75094  -0.090   6.238  -0.737  0.8046  0.4378 -0.0917
  557MOL0     C75095  -0.145   6.356  -0.679  0.0227  0.6655  0.3055
  557MOL0     O75096  -0.281   6.393  -0.678  0.3200 -0.2993 -0.4436
  557MOL0     C75097  -0.372   6.325  -0.766  0.2343  0.7574  0.1272
  557MOL0     C75098  -0.511   6.388  -0.764 -0.4281  0.4425  0.0216
  557MOL0     C75099  -0.615   6.317  -0.847  0.3487 -0.4883 -0.5140
  557MOL0     C75100  -0.742   6.400  -0.851  0.0012 -0.2451 -0.0226
  557MOL0     C75101  -0.850   6.339  -0.926  0.2292  0.0443  0.3871
  557MOL0     C75102  -0.989   6.405  -0.926 -0.3895 -0.5538 -0.2391
  557MOL0     C75103  -1.093   6.343  -1.018  0.6077  0.1554  0.4041
  557MOL0     C75104  -1.209   6.440  -1.028 -0.4209  0.0837  0.2124
  557MOL0    Cl75105  -1.339   6.367  -1.123  0.2149  0.0630  0.2516
  557MOL0     C75106  -0.054   6.448  -0.632 -0.4685  0.0392 -0.1193
  557MOL0     C75107   0.092   6.426  -0.628  0.3463  0.0497  0.9660
  557MOL0     O75108   0.306   6.143  -0.832 -0.4430 -0.1810 -0.6376
  557MOL0     C75109   0.539   6.331  -0.632  0.0864  0.0807  0.0310
  557MOL0     C75110   0.676   6.349  -0.609 -0.1991 -0.0973 -0.3008
  557MOL0     N75111   1.104   7.008  -0.828 -0.9232  0.4643  0.5556
  557MOL0     N75112   1.210   7.070  -0.871 -0.2123 -0.3564  0.6778
  557MOL0     C75113   2.054   7.469  -0.101 -0.5212  0.3539 -0.2070
  557MOL0     C75114   2.175   7.474  -0.029 -0.8764  0.1730 -0.1997
  557MOL0     C75115   2.600   7.424   0.122  1.1009  0.4528 -0.9612
  557MOL0     C75116   2.690   7.502   0.053 -0.0396  0.4902  0.0528
  557MOL0     C75117   2.823   7.503   0.094  0.4908  0.2507  0.2884
  557MOL0     C75118   2.870   7.431   0.205 -0.3422 -0.0487 -0.2321
  557MOL0     O75119   3.006   7.443   0.227 -0.1266  0.6391 -0.4075
  557MOL0     C75120   3.056   7.441   0.363  0.6315 -0.3839  0.2827
  557MOL0     C75121   3.019   7.564   0.452 -0.2909  0.3347  0.3471
  557MOL0     C75122   3.037   7.695   0.373  0.1413 -0.7259  0.0343
  557MOL0     C75123   3.182   7.733   0.361 -0.5268  0.0197 -1.5067
  557MOL0     C75124   3.213   7.867   0.314 -0.4767 -0.4291 -0.3193
  557MOL0     C75125   3.255   7.972   0.272  0.5065 -0.7253 -0.2648
  557MOL0     C75126   2.779   7.357   0.281  0.1877 -0.5749  0.2973
  557MOL0     C75127   2.644   7.357   0.239  0.9282 -0.5460  0.5131
  557MOL0     H75128   2.391   7.341  -0.256  0.7707  1.8379 -0.5075
  557MOL0     H75129   2.179   7.311  -0.372 -3.1666 -0.0870 -0.1349
  557MOL0     H75130   1.813   7.342  -0.162  2.2171 -0.4546  0.6835
  557MOL0     H75131   1.776   7.495  -0.240  1.2237  0.1235  0.7950
  557MOL0     H75132   1.747   7.213  -0.350  0.6964  0.7828  1.8356
  557MOL0     H75133   1.613   7.318  -0.306 -0.4744 -1.5087 -1.6780
  557MOL0     H75134   1.693   7.465  -0.505 -1.6726 -0.4356 -1.5601
  557MOL0     H75135   1.822   7.349  -0.525 -0.0013  3.2085 -0.0431
  557MOL0     H75136   1.666   7.174  -0.585  0.5686  0.5767 -1.0416
  557MOL0     H75137   1.530   7.294  -0.558  0.2607 -0.2791  2.4620
  557MOL0     H75138   1.596   7.421  -0.737  2.3063  0.8443  2.9869
  557MOL0     H75139   1.761   7.343  -0.738 -0.0373 -2.2540  2.9642
  557MOL0     H75140   1.595   7.279  -0.929 -2.1816  1.0113  1.5766
  557MOL0     H75141   1.693   7.147  -0.855 -0.9226 -1.9952 -0.9304
  557MOL0     H75142   1.527   7.085  -0.699  1.6322  1.0178  0.0475
  557MOL0     H75143   1.415   7.202  -0.764  0.6879  1.6044 -1.3252
  557MOL0     H75144   1.521   6.943  -0.880  1.2019  1.1546  0.5792
  557MOL0     H75145   1.451   7.060  -0.996  0.0159  0.6749  0.7334
  557MOL0     H75146   1.331   6.777  -0.761 -0.1915  0.1121  2.4004
  557MOL0     H75147   1.043   6.809  -0.621  1.7430  2.5412 -0.0033
  557MOL0     H75148   0.951   6.825  -0.776  0.5036  0.6022 -0.1796
  557MOL0     H75149   1.170   6.615  -0.733  0.9526  2.9456  1.0136
  557MOL0     H75150   1.070   6.650  -0.877  1.3964 -0.4034  0.3687
  557MOL0     H75151   0.871   6.585  -0.743 -0.0247 -1.1082 -1.8583
  557MOL0     H75152   0.965   6.554  -0.591 -0.6410  0.5380  0.1356
  557MOL0     H75153   1.094   6.384  -0.750  0.0907 -0.0518 -1.5024
  557MOL0     H75154   0.957   6.408  -0.858  1.6733  2.0310 -1.3475
  557MOL0     H75155   0.804   6.215  -0.885 -0.8238  1.0413 -1.7491
  557MOL0     H75156   0.649   6.077  -1.004 -0.0700 -0.3191 -2.3825
  557MOL0     H75157   0.479   6.103  -0.986  0.7196 -0.4235 -2.3234
  557MOL0     H75158   0.569   6.230  -1.060 -1.2197 -1.5904 -1.1641
  557MOL0     H75159   0.090   6.119  -0.770  1.9883  0.3245 -0.0299
  557MOL0     H75160  -0.162   6.171  -0.781  1.2135 -0.1398  0.1108
  557MOL0     H75161  -0.326   6.324  -0.865 -0.0170  2.9391 -0.0636
  557MOL0     H75162  -0.378   6.222  -0.731  2.6041  0.8862  1.0767
  557MOL0     H75163  -0.552   6.382  -0.663  1.2142  0.0290  0.7052
  557MOL0     H75164  -0.506   6.489  -0.807 -0.0656 -0.7100 -2.8441
  557MOL0     H75165  -0.634   6.213  -0.819 -1.0563 -0.1962 -0.3304
  557MOL0     H75166  -0.571   6.313  -0.947  0.0868  0.4220 -0.6765
  557MOL0     H75167  -0.773   6.418  -0.747 -1.8360  2.7604 -0.9716
  557MOL0     H75168  -0.730   6.497  -0.900  0.4824  0.3658  1.2494
  557MOL0     H75169  -0.853   6.231  -0.906 -0.8363  0.1431  0.7902
  557MOL0     H75170  -0.813   6.358  -1.028 -0.5558 -1.1447 -0.1421
  557MOL0     H75171  -1.031   6.394  -0.826 -1.2386  0.3128 -0.4887
  557MOL0     H75172  -0.980   6.511  -0.951  2.3626 -0.8296 -0.7607
  557MOL0     H75173  -1.140   6.249  -0.989 -0.5175  0.0596 -1.6061
  557MOL0     H75174  -1.046   6.321  -1.114  0.0132  0.4245  0.0474
  557MOL0     H75175  -1.170   6.514  -1.098  1.8114 -2.6418 -1.5915
  557MOL0     H75176  -1.250   6.477  -0.933 -1.3103 -0.3097 -0.0037
  557MOL0     H75177  -0.096   6.537  -0.586 -2.6232 -0.6595 -0.6365
  557MOL0     H75178   0.157   6.504  -0.590  0.3695  0.1516  0.7231
  557MOL0     H75179   0.465   6.366  -0.562  0.8949 -0.2259  1.0586
  557MOL0     H75180   0.718   6.405  -0.526 -0.2508 -1.2338  0.5056
  557MOL0     H75181   1.967   7.520  -0.060  0.0208 -0.2181  1.7628
  557MOL0     H75182   2.179   7.516   0.071 -1.5348  2.1170 -0.9528
  557MOL0     H75183   2.658   7.541  -0.043  0.7918 -0.7417 -0.7572
  557MOL0     H75184   2.899   7.550   0.032 -0.6203  2.2023  0.3341
  557MOL0     H75185   3.035   7.344   0.410 -1.2840  0.1560  0.6196
  557MOL0     H75186   3.165   7.436   0.354  0.6464 -1.6318  0.9050
  557MOL0     H75187   3.064   7.565   0.551 -1.3047 -1.2497  0.8673
  557MOL0     H75188   2.911   7.550   0.467 -1.0545  0.7390 -3.7031
  557MOL0     H75189   2.976   7.768   0.427 -1.6609 -2.9615  1.1851
  557MOL0     H75190   2.996   7.684   0.272  2.2785  2.1243 -1.2974
  557MOL0     H75191   3.229   7.670   0.285  4.6697 -0.3947  1.5615
  557MOL0     H75192   3.233   7.702   0.453 -3.9567  3.2388  1.8289
  557MOL0     H75193   3.297   8.066   0.243 -2.2056  1.1738  1.4877
  557MOL0     H75194   2.810   7.300   0.368 -1.0397 -0.9434  0.5121
  557MOL0     H75195   2.571   7.296   0.291 -0.5471  0.5028 -0.2612
  558MOL0     O75196  10.477   1.937   9.779 -0.2461 -0.1050 -0.0098
  558MOL0     C75197  10.573   1.867   9.754  0.1863  0.1578  0.2585
  558MOL0     O75198  10.565   1.738   9.715 -1.0240  0.2186 -0.3419
  558MOL0     C75199  10.446   1.682   9.703  0.4309  0.1065 -0.3864
  558MOL0     C75200  10.396   1.608   9.808 -0.2115  0.3048 -0.2111
  558MOL0     C75201  10.278   1.538   9.814 -0.5365 -0.0300  0.2008
  558MOL0     C75202  10.192   1.556   9.694 -0.2330  0.5913 -0.6180
  558MOL0     O75203  10.071   1.493   9.671 -0.2820 -0.1321  0.3936
  558MOL0     C75204   9.972   1.441   9.775 -0.2681 -0.6841  0.3426
  558MOL0     C75205   9.905   1.308   9.730 -0.3024 -0.7039  0.8160
  558MOL0     C75206   9.794   1.251   9.824  0.0777  1.1806  0.3415
  558MOL0     C75207   9.654   1.288   9.779 -0.0502 -0.7339  0.4213
  558MOL0     C75208   9.539   1.229   9.865  1.0615 -0.8378 -0.0663
  558MOL0     C75209   9.402   1.265   9.810 -0.1621  0.2736  0.1252
  558MOL0     C75210   9.283   1.189   9.857 -0.3860 -0.3032 -0.2250
  558MOL0     C75211   9.158   1.224   9.794 -0.1411 -0.1490  0.4873
  558MOL0     N75212   9.149   1.365   9.736 -0.0678  1.1327  0.7129
  558MOL0     C75213   9.108   1.481   9.807 -0.2149  0.2062 -0.3363
  558MOL0     C75214   9.075   1.560   9.700 -0.3335 -0.0318  0.7345
  558MOL0     C75215   8.998   1.688   9.700  0.1719 -0.6306 -0.4515
  558MOL0     C75216   8.859   1.683   9.649  0.0888  0.4161  0.5538
  558MOL0     C75217   8.778   1.600   9.737 -0.1163 -0.1226 -0.8881
  558MOL0     C75218   8.636   1.566   9.684 -0.5127 -0.0272 -0.1419
  558MOL0     O75219   8.633   1.474   9.576  0.3706 -0.0528  0.0925
  558MOL0     C75220   8.507   1.428   9.547  0.5368  0.2764  1.1182
  558MOL0     C75221   8.386   1.500   9.560  0.3183 -0.6022 -0.6368
  558MOL0     C75222   8.257   1.449   9.524  0.3927 -0.6347  0.4008
  558MOL0     C75223   8.136   1.534   9.565  0.4367 -0.0225  0.3664
  558MOL0     C75224   8.249   1.326   9.463  0.8484 -0.5183  0.1238
  558MOL0     C75225   8.116   1.268   9.412 -0.1434 -0.1659  0.4551
  558MOL0     O75226   7.998   1.334   9.435 -0.0694  1.0126  0.1534
  558MOL0     C75227   7.882   1.307   9.365  0.7197 -1.5039 -0.2786
  558MOL0     C75228   7.836   1.187   9.312  0.1264 -0.5099 -0.2098
  558MOL0     C75229   7.707   1.164   9.261  0.4833 -0.1995 -0.0936
  558MOL0     C75230   7.616   1.271   9.263 -0.1320  0.8156 -0.2331
  558MOL0     O75231   7.484   1.267   9.215 -0.3193  0.1897  0.2513
  558MOL0     C75232   7.447   1.155   9.134 -0.0487 -0.9033  1.7974
  558MOL0     C75233   7.299   1.170   9.093  0.3403 -0.8140 -0.0395
  558MOL0     C75234   7.259   1.076   8.988 -0.2625  0.3075  0.4706
  558MOL0     C75235   7.113   1.098   8.942  0.2357 -0.3164 -0.5622
  558MOL0     C75236   7.085   0.992   8.830 -1.0345 -0.0193 -0.4100
  558MOL0     C75237   6.947   1.017   8.776 -0.0482  0.3337  0.1535
  558MOL0     C75238   6.932   0.957   8.632  0.9546  0.8370 -0.7616
  558MOL0     C75239   6.775   0.929   8.626 -0.0473  0.3187 -0.8644
  558MOL0    Cl75240   6.680   1.076   8.675 -0.1721 -0.1288 -0.0762
  558MOL0     C75241   7.650   1.391   9.317  0.4422  0.2386 -0.2679
  558MOL0     C75242   7.774   1.408   9.381  0.2952 -0.4393  0.4353
  558MOL0     O75243   8.126   1.166   9.342  0.4393  0.1682 -0.7810
  558MOL0     C75244   8.371   1.253   9.454 -0.5029  0.4200  0.2806
  558MOL0     C75245   8.495   1.303   9.490 -0.2115 -0.5054  0.7551
  558MOL0     N75246   9.116   1.516   9.585  0.4663  0.2184 -0.0268
  558MOL0     N75247   9.162   1.398   9.604  1.2867  0.4193  0.2319
  558MOL0     C75248  10.246   1.628   9.585  0.6099  0.1964 -0.7821
  558MOL0     C75249  10.367   1.695   9.589  0.5780 -0.4246  0.2392
  558MOL0     C75250  10.700   1.938   9.740 -0.5816 -0.3968 -0.7366
  558MOL0     C75251  10.726   2.068   9.786 -0.1973 -0.7615  0.2313
  558MOL0     C75252  10.846   2.135   9.785  0.7547  0.0481 -0.5493
  558MOL0     C75253  10.957   2.057   9.733 -0.6452 -0.1452  0.2879
  558MOL0     O75254  11.073   2.129   9.717 -0.6088 -0.2588 -0.3340
  558MOL0     C75255  11.201   2.064   9.707  0.2370  0.7991  0.6617
  558MOL0     C75256  11.254   2.054   9.566 -0.2083  0.0666  1.3110
  558MOL0     C75257  11.286   2.185   9.504  0.4426 -1.0562 -0.1917
  558MOL0     C75258  11.356   2.172   9.368  0.0624  0.0013  0.0081
  558MOL0     C75259  11.267   2.103   9.269  0.3717 -0.5224  0.2972
  558MOL0     C75260  11.187   2.054   9.195  0.3403  0.0301 -0.7117
  558MOL0     C75261  10.939   1.920   9.696 -0.5670  0.0460  0.1970
  558MOL0     C75262  10.814   1.871   9.697  0.7494  0.8689 -0.2499
  558MOL0     H75263  10.466   1.624   9.890 -0.4452  1.3515 -0.2107
  558MOL0     H75264  10.265   1.482   9.906  1.9275 -2.6578 -0.8893
  558MOL0     H75265  10.020   1.432   9.873  1.2303  1.0744 -0.1679
  558MOL0     H75266   9.893   1.514   9.796  1.6312  1.4189  0.6079
  558MOL0     H75267   9.870   1.321   9.628 -0.1984  1.7029  1.0352
  558MOL0     H75268   9.992   1.242   9.729 -0.2674 -0.7902  3.2168
  558MOL0     H75269   9.804   1.142   9.818  1.2483  1.1262  2.4504
  558MOL0     H75270   9.814   1.276   9.929 -0.8751  0.3255  0.7437
  558MOL0     H75271   9.651   1.397   9.781 -0.6912 -0.7275 -0.4195
  558MOL0     H75272   9.636   1.249   9.679 -1.0839 -1.0607  0.7261
  558MOL0     H75273   9.538   1.120   9.854  2.1239 -1.2013  2.6592
  558MOL0     H75274   9.544   1.261   9.970 -0.2142 -1.2820  0.1517
  558MOL0     H75275   9.384   1.371   9.830 -0.3413 -0.0744  2.0434
  558MOL0     H75276   9.414   1.251   9.702  0.7717  2.9669 -0.2032
  558MOL0     H75277   9.297   1.081   9.856 -0.3571 -0.3055 -1.6398
  558MOL0     H75278   9.277   1.216   9.963  0.1919  0.1521 -0.3047
  558MOL0     H75279   9.076   1.206   9.864 -0.5297  0.5945  0.2442
  558MOL0     H75280   9.139   1.148   9.718  0.0858  0.5665 -0.2960
  558MOL0     H75281   9.092   1.498   9.913 -1.4719  0.1612 -0.5076
  558MOL0     H75282   8.981   1.734   9.799 -0.6323 -2.6281  0.3858
  558MOL0     H75283   9.055   1.761   9.642 -0.8534 -0.2918 -1.0399
  558MOL0     H75284   8.858   1.648   9.546 -0.0159  0.0656  0.6744
  558MOL0     H75285   8.811   1.781   9.647  1.6849  1.2320  0.2914
  558MOL0     H75286   8.776   1.655   9.831 -0.0387  0.2470 -1.0980
  558MOL0     H75287   8.836   1.509   9.754  2.1126  1.7108  2.6379
  558MOL0     H75288   8.600   1.664   9.651  0.9370  0.9765  1.1105
  558MOL0     H75289   8.576   1.528   9.766 -0.9074  0.1756 -0.3356
  558MOL0     H75290   8.391   1.601   9.599  0.3256 -0.9108  0.1664
  558MOL0     H75291   8.068   1.476   9.628  2.7399 -2.0296  1.1734
  558MOL0     H75292   8.166   1.625   9.618 -2.0769  1.3857 -0.4876
  558MOL0     H75293   8.082   1.574   9.479 -1.2396 -0.3392  1.2203
  558MOL0     H75294   7.909   1.106   9.306 -1.8344 -2.3965  0.3303
  558MOL0     H75295   7.675   1.068   9.223 -0.4436 -0.1777  0.5806
  558MOL0     H75296   7.509   1.169   9.045 -1.2549 -1.0238  0.9123
  558MOL0     H75297   7.463   1.056   9.175  1.1424 -3.0224 -3.0688
  558MOL0     H75298   7.236   1.162   9.182  0.4893  0.4884  0.1977
  558MOL0     H75299   7.288   1.268   9.046 -1.6850 -1.7959 -1.7810
  558MOL0     H75300   7.278   0.972   9.016  0.1165 -0.1371 -1.2825
  558MOL0     H75301   7.323   1.104   8.903 -0.8152  0.3329  0.0566
  558MOL0     H75302   7.043   1.094   9.026 -0.4099  0.7736 -1.0263
  558MOL0     H75303   7.106   1.202   8.911  0.2057  0.7213  2.5762
  558MOL0     H75304   7.108   0.890   8.861  1.6885  0.4535 -0.6367
  558MOL0     H75305   7.154   1.002   8.746 -3.4194  3.0517 -2.2169
  558MOL0     H75306   6.874   0.975   8.846  1.5559 -2.0113  0.5489
  558MOL0     H75307   6.935   1.125   8.764 -1.2227  0.0440 -1.6489
  558MOL0     H75308   6.984   0.861   8.633  0.5365  0.6004  1.0643
  558MOL0     H75309   6.972   1.029   8.559 -0.3240  2.1062 -0.2475
  558MOL0     H75310   6.753   0.848   8.696  0.2528  0.0507 -1.0751
  558MOL0     H75311   6.747   0.894   8.527  0.2791 -0.8212 -0.5757
  558MOL0     H75312   7.570   1.462   9.336  1.3892  1.4317 -0.6632
  558MOL0     H75313   7.800   1.497   9.436  2.5526 -1.5118  1.2418
  558MOL0     H75314   8.367   1.148   9.429  0.8463  0.3991  0.1209
  558MOL0     H75315   8.585   1.243   9.483 -0.5319 -1.7499  4.7453
  558MOL0     H75316  10.177   1.640   9.502 -2.1867  2.5686  1.6335
  558MOL0     H75317  10.380   1.762   9.505 -4.1769  0.0476 -0.3933
  558MOL0     H75318  10.633   2.110   9.823 -0.4725 -1.7377  0.6864
  558MOL0     H75319  10.859   2.236   9.821  2.3179 -0.6864  1.0683
  558MOL0     H75320  11.261   2.131   9.770  0.2998  0.6098  0.8027
  558MOL0     H75321  11.185   1.967   9.755 -2.9238  1.1580  0.5065
  558MOL0     H75322  11.184   1.994   9.506 -1.2303  0.5846  1.9593
  558MOL0     H75323  11.349   2.001   9.559 -0.0388  0.2438  2.2276
  558MOL0     H75324  11.354   2.246   9.565  1.8109 -1.4064 -1.3331
  558MOL0     H75325  11.194   2.239   9.479  0.1161 -1.3338  0.3922
  558MOL0     H75326  11.443   2.115   9.402 -0.2640 -1.5804 -1.6309
  558MOL0     H75327  11.384   2.271   9.329  0.8986 -1.1868 -2.6313
  558MOL0     H75328  11.129   2.004   9.121  0.2660  0.5576 -1.0078
  558MOL0     H75329  11.017   1.859   9.652 -1.9803 -1.6252 -0.0914
  558MOL0     H75330  10.813   1.766   9.673 -0.9421 -0.2163  3.7324
  559MOL0     O75331   1.857   8.094   5.031 -0.0849  0.2623 -0.0370
  559MOL0     C75332   1.892   8.200   4.983  0.6123 -0.4383  0.5680
  559MOL0     O75333   1.813   8.306   4.945  0.6100  0.0083 -0.1329
  559MOL0     C75334   1.675   8.313   4.953 -0.0109 -0.4860 -0.3430
  559MOL0     C75335   1.584   8.210   4.987  0.5893 -0.0226  0.5657
  559MOL0     C75336   1.445   8.245   4.987 -0.7254  0.3015 -0.5174
  559MOL0     C75337   1.391   8.366   4.955 -0.0425 -0.0794  0.3663
  559MOL0     O75338   1.256   8.384   4.990 -0.5825 -0.7814  0.3360
  559MOL0     C75339   1.203   8.522   4.977  0.1818  0.1934  0.1171
  559MOL0     C75340   1.156   8.572   4.831  0.9093  0.1299  0.0056
  559MOL0     C75341   1.031   8.498   4.786 -0.3082  0.0514 -0.7554
  559MOL0     C75342   0.907   8.570   4.834 -0.4355  0.1322 -0.8759
  559MOL0     C75343   0.777   8.516   4.777  0.4487  0.3106  0.6788
  559MOL0     C75344   0.654   8.582   4.839  0.7548  1.2584  0.7464
  559MOL0     C75345   0.514   8.529   4.772 -1.3218 -0.3465 -0.1532
  559MOL0     C75346   0.406   8.621   4.826 -0.6448  0.4174  0.6553
  559MOL0     N75347   0.267   8.584   4.801  0.8529 -0.0444  0.1148
  559MOL0     C75348   0.185   8.554   4.902 -0.2400  0.2740  0.2520
  559MOL0     C75349   0.057   8.540   4.851  0.1092 -0.3480  0.0282
  559MOL0     C75350  -0.061   8.509   4.932 -0.2120  0.4197  0.3467
  559MOL0     C75351  -0.200   8.528   4.861  0.2685 -0.7522  0.5124
  559MOL0     C75352  -0.226   8.423   4.756  0.6237  0.3268 -0.2330
  559MOL0     C75353  -0.358   8.462   4.693 -1.6938  0.2071 -0.1266
  559MOL0     O75354  -0.470   8.413   4.779  0.0555  0.2237  0.1571
  559MOL0     C75355  -0.595   8.466   4.760 -0.3490 -0.2684 -0.1639
  559MOL0     C75356  -0.647   8.486   4.634 -0.9680 -0.1943 -0.6606
  559MOL0     C75357  -0.777   8.531   4.615  0.0398  0.8776  0.0908
  559MOL0     C75358  -0.833   8.532   4.478 -0.0897  0.5151 -0.1498
  559MOL0     C75359  -0.858   8.568   4.734  0.4708 -0.0020  0.5072
  559MOL0     C75360  -1.010   8.603   4.734 -0.7469 -0.3460  0.4772
  559MOL0     O75361  -1.072   8.614   4.611 -0.0959  0.7768  0.1357
  559MOL0     C75362  -1.198   8.663   4.602  0.2574  0.0489  0.1542
  559MOL0     C75363  -1.220   8.802   4.583  0.3512 -0.2787 -0.3456
  559MOL0     C75364  -1.349   8.843   4.545 -0.2045 -1.1659 -0.0277
  559MOL0     C75365  -1.458   8.751   4.535  0.1140  0.0390  0.1470
  559MOL0     O75366  -1.579   8.806   4.503  0.0805 -0.0572 -0.5163
  559MOL0     C75367  -1.688   8.757   4.573  0.5231  0.3077 -1.0262
  559MOL0     C75368  -1.788   8.709   4.469  0.0813 -0.6561  0.7123
  559MOL0     C75369  -1.856   8.827   4.401  0.3403 -0.6938  0.0796
  559MOL0     C75370  -1.948   8.788   4.285 -0.1491 -0.0648 -0.3063
  559MOL0     C75371  -2.064   8.887   4.257  0.2139 -0.5107  0.1221
  559MOL0     C75372  -2.012   9.029   4.234  0.3646 -0.5634 -0.4265
  559MOL0     C75373  -2.122   9.111   4.161  0.0483 -0.2477  0.5463
  559MOL0     C75374  -2.091   9.259   4.181  0.4985 -0.0285  0.1593
  559MOL0    Cl75375  -2.102   9.309   4.350 -0.1677 -0.2069  0.0806
  559MOL0     C75376  -1.433   8.615   4.562 -0.2934 -0.0522 -0.5427
  559MOL0     C75377  -1.305   8.574   4.583 -0.1578  0.7208  1.1748
  559MOL0     O75378  -1.067   8.620   4.838 -0.0899 -0.9312 -0.3432
  559MOL0     C75379  -0.802   8.547   4.856 -0.0929  0.4495 -0.2886
  559MOL0     C75380  -0.675   8.500   4.864 -0.9530 -0.0503  0.3761
  559MOL0     N75381   0.066   8.565   4.713  1.2131 -1.1217  1.0081
  559MOL0     N75382   0.190   8.589   4.689  0.3099  0.3866  0.0146
  559MOL0     C75383   1.488   8.463   4.909 -0.1039 -0.3192 -0.5110
  559MOL0     C75384   1.622   8.441   4.916  0.2550 -0.1433  0.0728
  559MOL0     C75385   2.038   8.211   4.957  0.7672  0.0730 -0.2339
  559MOL0     C75386   2.096   8.326   4.907  0.4327  0.0174  0.2873
  559MOL0     C75387   2.233   8.329   4.880  0.1703  0.5544  0.5447
  559MOL0     C75388   2.314   8.217   4.908  0.0474  0.1097  0.8087
  559MOL0     O75389   2.446   8.208   4.877 -0.7374  0.3013 -1.0904
  559MOL0     C75390   2.519   8.331   4.860 -0.1786 -0.6406 -0.7807
  559MOL0     C75391   2.655   8.300   4.797 -0.2950  0.4153  0.2797
  559MOL0     C75392   2.718   8.406   4.703  0.1304  0.2796 -0.1537
  559MOL0     C75393   2.868   8.373   4.672 -0.3579  0.5201  0.6954
  559MOL0     C75394   2.944   8.471   4.587 -0.7443 -0.5700 -0.9211
  559MOL0     C75395   3.003   8.545   4.507 -0.3099  0.5944  0.6643
  559MOL0     C75396   2.258   8.103   4.957  0.2119  0.5233  0.3716
  559MOL0     C75397   2.120   8.102   4.986  0.0811 -0.2656 -0.1869
  559MOL0     H75398   1.624   8.112   5.007  0.2531 -0.4446 -0.7738
  559MOL0     H75399   1.379   8.163   5.011 -2.0310  0.6034 -2.7822
  559MOL0     H75400   1.117   8.528   5.044  0.1864 -1.5955  0.3427
  559MOL0     H75401   1.285   8.584   5.014 -0.7529  1.4838  0.0824
  559MOL0     H75402   1.125   8.676   4.848 -0.4592 -0.2916  0.2298
  559MOL0     H75403   1.240   8.564   4.762  0.1586 -1.2510 -0.7798
  559MOL0     H75404   1.034   8.492   4.677  0.3300  0.0776 -0.7436
  559MOL0     H75405   1.040   8.395   4.823  3.1013  0.8346  0.9193
  559MOL0     H75406   0.900   8.557   4.942  2.0090 -1.0405 -0.7871
  559MOL0     H75407   0.908   8.678   4.817 -0.3751  0.7132  2.2538
  559MOL0     H75408   0.776   8.538   4.670  4.0229 -0.0343  0.4228
  559MOL0     H75409   0.756   8.408   4.779 -1.1140  0.4542 -2.0820
  559MOL0     H75410   0.649   8.553   4.944  0.4834  0.5425  0.5412
  559MOL0     H75411   0.665   8.691   4.834 -1.0333  1.4518  0.4321
  559MOL0     H75412   0.517   8.552   4.665  0.8045  0.6498  0.0801
  559MOL0     H75413   0.500   8.422   4.789  1.5178 -0.6757  0.5901
  559MOL0     H75414   0.426   8.713   4.770  3.1166 -0.7186 -0.1650
  559MOL0     H75415   0.430   8.654   4.927  2.6646  3.2262 -0.8225
  559MOL0     H75416   0.217   8.550   5.006  4.2643  0.9603 -0.9067
  559MOL0     H75417  -0.057   8.403   4.957 -1.6688  0.3698  0.4941
  559MOL0     H75418  -0.061   8.575   5.020 -0.8196 -1.0109  1.4665
  559MOL0     H75419  -0.194   8.628   4.818 -1.8325 -1.1338 -0.7901
  559MOL0     H75420  -0.286   8.528   4.929 -3.0449  1.4541 -3.2592
  559MOL0     H75421  -0.228   8.326   4.806 -3.2802  0.7917  0.8246
  559MOL0     H75422  -0.139   8.418   4.690  0.3320 -0.4684 -0.5673
  559MOL0     H75423  -0.360   8.405   4.600 -1.7460  2.4684 -1.5822
  559MOL0     H75424  -0.368   8.569   4.670  2.1925  0.5436 -0.9758
  559MOL0     H75425  -0.587   8.469   4.545 -0.4344 -1.6831 -0.0441
  559MOL0     H75426  -0.932   8.487   4.483 -0.0271  0.3337 -0.5637
  559MOL0     H75427  -0.828   8.630   4.431  2.0795 -0.6634 -2.6213
  559MOL0     H75428  -0.786   8.466   4.405  4.3651  2.5813  0.5107
  559MOL0     H75429  -1.132   8.863   4.602  0.9702 -1.0772 -0.5589
  559MOL0     H75430  -1.358   8.950   4.528 -0.3659 -1.1410  0.1979
  559MOL0     H75431  -1.664   8.680   4.646  2.4734  0.8504 -1.0214
  559MOL0     H75432  -1.735   8.841   4.626  1.3031  1.0515 -1.4727
  559MOL0     H75433  -1.742   8.645   4.393 -1.5137  0.5452 -1.3629
  559MOL0     H75434  -1.874   8.655   4.510 -1.9752  1.5292 -0.4428
  559MOL0     H75435  -1.787   8.894   4.349 -2.6138  0.5886 -2.5106
  559MOL0     H75436  -1.917   8.883   4.472  2.1123  2.4414 -0.6953
  559MOL0     H75437  -1.890   8.777   4.192  0.7575 -1.6983  0.4125
  559MOL0     H75438  -1.991   8.690   4.307 -0.2445 -0.0932 -0.6180
  559MOL0     H75439  -2.131   8.888   4.343 -2.3086  0.1694 -1.7245
  559MOL0     H75440  -2.117   8.846   4.171 -0.8058  1.5075 -0.2911
  559MOL0     H75441  -1.980   9.080   4.326 -0.7590  2.8945 -1.7777
  559MOL0     H75442  -1.923   9.014   4.173  0.7081  1.8686 -0.6522
  559MOL0     H75443  -2.219   9.094   4.208 -1.0743  4.3800  0.3635
  559MOL0     H75444  -2.132   9.083   4.056  1.8816  1.4930 -0.1426
  559MOL0     H75445  -2.162   9.323   4.129 -1.0252 -0.7008  1.3319
  559MOL0     H75446  -1.990   9.274   4.140  0.0897  2.8431 -0.0436
  559MOL0     H75447  -1.515   8.545   4.545 -2.2193  1.6655  1.0429
  559MOL0     H75448  -1.290   8.467   4.595 -2.5361  0.6752  6.5278
  559MOL0     H75449  -0.856   8.570   4.948  0.2101  0.1942 -0.0420
  559MOL0     H75450  -0.640   8.491   4.967  0.8070  3.2818  0.2308
  559MOL0     H75451   1.450   8.554   4.863  1.6135 -0.3384 -2.0922
  559MOL0     H75452   1.697   8.517   4.893  0.5406  0.2806  2.2168
  559MOL0     H75453   2.020   8.402   4.896 -1.5601 -2.1373 -2.7111
  559MOL0     H75454   2.278   8.424   4.852  1.2607 -0.7757 -2.6769
  559MOL0     H75455   2.470   8.396   4.786 -2.1222 -2.7672 -1.4848
  559MOL0     H75456   2.527   8.382   4.956  0.2152  1.2479 -1.7498
  559MOL0     H75457   2.658   8.202   4.749 -0.7949  0.8203 -0.5977
  559MOL0     H75458   2.727   8.291   4.879 -0.8421 -2.3494  0.5407
  559MOL0     H75459   2.708   8.506   4.745 -0.7964 -0.6317  1.9513
  559MOL0     H75460   2.675   8.414   4.603  0.9804 -2.9320 -0.8893
  559MOL0     H75461   2.868   8.276   4.620 -1.7781  0.1053  1.4388
  559MOL0     H75462   2.926   8.347   4.761 -1.3417  2.2089  1.8593
  559MOL0     H75463   3.052   8.600   4.430 -2.6694 -0.2933 -1.6099
  559MOL0     H75464   2.332   8.026   4.976 -1.9011 -1.6386  0.2350
  559MOL0     H75465   2.078   8.009   5.025  1.2016  0.0883  2.0689
  560MOL0     O75466  10.270   5.468  10.037  0.0100 -0.3833  0.3464
  560MOL0     C75467  10.322   5.391  10.119  0.0512 -0.1031 -0.2266
  560MOL0     O75468  10.260   5.290  10.187 -0.4101 -0.4277 -0.1850
  560MOL0     C75469  10.122   5.285  10.198 -0.2645 -0.3682  0.1380
  560MOL0     C75470  10.069   5.155  10.200  0.5872 -0.1175  0.2988
  560MOL0     C75471   9.929   5.148  10.209  0.6194  0.5723  0.1529
  560MOL0     C75472   9.844   5.265  10.206  0.3869 -0.2207  0.2109
  560MOL0     O75473   9.706   5.258  10.212 -0.3950 -0.0541 -0.3034
  560MOL0     C75474   9.654   5.126  10.248  0.3597 -0.2948  0.1432
  560MOL0     C75475   9.497   5.129  10.288 -0.0419  0.2872  0.8959
  560MOL0     C75476   9.432   5.198  10.170  0.3432 -0.3196  0.1566
  560MOL0     C75477   9.278   5.208  10.190 -0.2103 -0.3760 -0.1469
  560MOL0     C75478   9.220   5.315  10.101  0.9203 -0.5180 -0.0394
  560MOL0     C75479   9.069   5.307  10.103 -0.0086  0.1822  0.0052
  560MOL0     C75480   9.001   5.394   9.994 -0.0690 -0.3928 -0.3441
  560MOL0     C75481   8.849   5.406  10.014 -0.9407  0.2728  0.1324
  560MOL0     N75482   8.804   5.516  10.100 -0.1908 -0.3695  0.4105
  560MOL0     C75483   8.824   5.646  10.064 -0.5536 -0.5411 -0.9753
  560MOL0     C75484   8.784   5.712  10.173  0.2506  0.5888 -0.1247
  560MOL0     C75485   8.783   5.861  10.178  0.1006  0.0695 -0.2184
  560MOL0     C75486   8.911   5.902  10.249 -0.3256  0.1850  0.1884
  560MOL0     C75487   8.900   6.047  10.292 -0.0805 -0.1785  0.3418
  560MOL0     C75488   9.018   6.084  10.380 -0.1731 -0.5525 -1.2489
  560MOL0     O75489   9.144   6.053  10.311  0.4057 -0.2289 -0.0551
  560MOL0     C75490   9.257   6.087  10.379 -0.3358  0.4838  0.6727
  560MOL0     C75491   9.378   6.056  10.317 -0.1303  0.4247 -0.1954
  560MOL0     C75492   9.503   6.090  10.372 -0.0856 -0.9726 -0.4287
  560MOL0     C75493   9.624   6.047  10.294  0.4900  0.2064  0.4572
  560MOL0     C75494   9.505   6.157  10.500  0.5033  0.4176  0.7974
  560MOL0     C75495   9.628   6.183  10.569 -0.1092 -0.7231 -0.1181
  560MOL0     O75496   9.639   6.315  10.610 -0.8980 -0.5415 -0.2462
  560MOL0     C75497   9.756   6.352  10.666  0.2218 -0.2320 -0.5383
  560MOL0     C75498   9.867   6.365  10.583  1.3543  0.7631  0.4711
  560MOL0     C75499   9.985   6.399  10.632 -0.1299 -0.5874 -0.4630
  560MOL0     C75500  10.006   6.452  10.759  1.0207 -0.3687 -1.8537
  560MOL0     O75501  10.128   6.492  10.815 -0.0681  0.0076 -0.0359
  560MOL0     C75502  10.248   6.481  10.735 -0.2772  0.0246  0.3251
  560MOL0     C75503  10.375   6.540  10.801 -0.1276 -0.3767 -0.2525
  560MOL0     C75504  10.438   6.445  10.907  0.0639 -0.1815  0.9530
  560MOL0     C75505  10.519   6.334  10.826 -0.3265  1.1076 -0.5981
  560MOL0     C75506  10.482   6.202  10.897 -0.3870 -0.6063 -0.2849
  560MOL0     C75507  10.557   6.080  10.860 -0.6601 -0.2628 -0.5378
  560MOL0     C75508  10.535   6.042  10.710  0.0354  0.1361 -0.0401
  560MOL0     C75509  10.592   5.909  10.672  0.0251  0.9665  0.1632
  560MOL0    Cl75510  10.576   5.890  10.498  0.0013  0.3965  0.1756
  560MOL0     C75511   9.889   6.461  10.838  0.5071 -0.2909 -0.1952
  560MOL0     C75512   9.766   6.416  10.785  0.0135 -1.0803  0.4307
  560MOL0     O75513   9.710   6.088  10.592 -0.1866 -0.2426  0.2017
  560MOL0     C75514   9.389   6.182  10.571 -0.4588 -1.1608  0.7868
  560MOL0     C75515   9.269   6.147  10.509  0.9190 -0.1468  0.1787
  560MOL0     N75516   8.757   5.624  10.271  0.0110  0.1111 -0.2310
  560MOL0     N75517   8.757   5.508  10.229  0.3266  0.2485  0.6905
  560MOL0     C75518   9.897   5.393  10.208  0.0484  0.1249 -0.0024
  560MOL0     C75519  10.038   5.397  10.208  1.0337 -0.8624  1.4822
  560MOL0     C75520  10.464   5.406  10.118  0.3720 -1.1622 -0.6824
  560MOL0     C75521  10.528   5.508  10.040 -0.8850  0.0847  0.3856
  560MOL0     C75522  10.663   5.529  10.042  0.0158 -0.5417  0.4200
  560MOL0     C75523  10.740   5.433  10.100 -0.4371 -0.0382 -0.7088
  560MOL0     O75524  10.883   5.435  10.096  0.7155  0.3948 -0.5805
  560MOL0     C75525  10.939   5.430   9.956 -0.4879 -0.0728 -0.4424
  560MOL0     C75526  11.088   5.402   9.967 -0.5370  0.1202  0.7961
  560MOL0     C75527  11.182   5.528  10.008 -0.0370 -0.1900 -0.4212
  560MOL0     C75528  11.313   5.492  10.091 -0.1709  0.2576  0.5404
  560MOL0     C75529  11.279   5.489  10.229  0.6992  0.8005 -0.6300
  560MOL0     C75530  11.253   5.495  10.352  0.3465  0.0418  0.4208
  560MOL0     C75531  10.684   5.322  10.169 -0.1281  0.5262  0.3355
  560MOL0     C75532  10.546   5.315  10.182  0.9012  0.7211 -0.0226
  560MOL0     H75533  10.125   5.062  10.205 -3.4399 -2.8366 -0.7703
  560MOL0     H75534   9.890   5.047  10.222  1.6570 -0.1784 -2.1479
  560MOL0     H75535   9.657   5.056  10.164 -1.5500 -2.7410  1.9272
  560MOL0     H75536   9.690   5.078  10.340 -0.1180 -1.9832 -0.5149
  560MOL0     H75537   9.470   5.027  10.316  0.0115  0.2785  0.9156
  560MOL0     H75538   9.480   5.201  10.369 -0.2542  1.8279 -0.4684
  560MOL0     H75539   9.473   5.299  10.161  2.7131 -0.8106  3.6096
  560MOL0     H75540   9.460   5.150  10.076 -2.0383 -1.0026 -0.2698
  560MOL0     H75541   9.228   5.113  10.171 -0.3839 -0.5362  1.0458
  560MOL0     H75542   9.250   5.236  10.292 -1.3530 -0.2524 -0.4834
  560MOL0     H75543   9.249   5.413  10.140  1.6132 -0.7583  0.0441
  560MOL0     H75544   9.258   5.299  10.000  3.1154 -0.7916  0.7924
  560MOL0     H75545   9.046   5.201  10.087  0.9121 -0.3761  1.9855
  560MOL0     H75546   9.032   5.331  10.203 -1.4256 -0.6371 -0.2973
  560MOL0     H75547   9.039   5.497  10.007 -1.3063  0.2187 -1.4144
  560MOL0     H75548   9.022   5.356   9.894 -0.4578 -1.4797 -0.0237
  560MOL0     H75549   8.821   5.304  10.044  2.2362 -0.7216  0.1297
  560MOL0     H75550   8.810   5.421   9.913  3.6905  0.3815 -1.8976
  560MOL0     H75551   8.856   5.698   9.974 -1.3799  0.3326 -0.7882
  560MOL0     H75552   8.783   5.905  10.078  0.0979  0.1608 -0.1786
  560MOL0     H75553   8.689   5.880  10.230 -0.3122 -2.2222 -0.0342
  560MOL0     H75554   8.993   5.883  10.179 -2.1694  1.2614 -2.4263
  560MOL0     H75555   8.904   5.838  10.337  0.1189 -0.0365  0.0639
  560MOL0     H75556   8.804   6.064  10.342 -0.0821  0.6311  0.0756
  560MOL0     H75557   8.903   6.111  10.203 -0.1557 -0.4027  0.1760
  560MOL0     H75558   9.014   6.028  10.474  1.1697  2.7141  0.9464
  560MOL0     H75559   9.004   6.191  10.397  0.7964 -0.6363  0.2976
  560MOL0     H75560   9.373   5.993  10.228  0.2314  1.5953 -1.0781
  560MOL0     H75561   9.594   5.986  10.207  0.7698 -0.8586  1.0833
  560MOL0     H75562   9.688   6.129  10.262  0.2644  0.5003  0.7625
  560MOL0     H75563   9.686   5.975  10.349  1.4654 -1.5986 -2.7382
  560MOL0     H75564   9.865   6.331  10.480  0.2260  0.8824  0.4445
  560MOL0     H75565  10.069   6.395  10.564  0.9548 -1.0219  0.8675
  560MOL0     H75566  10.269   6.379  10.701 -2.0569  1.0462 -4.6575
  560MOL0     H75567  10.226   6.544  10.649 -2.0694 -0.0664  0.6742
  560MOL0     H75568  10.436   6.566  10.714 -0.7179  2.2194  0.0390
  560MOL0     H75569  10.345   6.635  10.847 -1.4659  0.2613 -2.3145
  560MOL0     H75570  10.355   6.403  10.964 -1.1807 -0.1507 -0.7365
  560MOL0     H75571  10.505   6.496  10.977 -1.7160  1.5347  1.5195
  560MOL0     H75572  10.495   6.339  10.719 -3.7192  0.2129 -0.0153
  560MOL0     H75573  10.621   6.367  10.847 -0.0256 -0.2008  0.0596
  560MOL0     H75574  10.375   6.183  10.881 -0.2020 -0.7583 -1.4334
  560MOL0     H75575  10.496   6.218  11.004 -0.0985 -1.1275 -0.2404
  560MOL0     H75576  10.663   6.100  10.880 -1.4494  3.1397  0.9155
  560MOL0     H75577  10.527   5.995  10.922 -1.8614  1.2300  1.0310
  560MOL0     H75578  10.600   6.112  10.657  2.6894 -3.6372 -2.2583
  560MOL0     H75579  10.429   6.050  10.683  0.1300  3.6597  0.2216
  560MOL0     H75580  10.545   5.821  10.717  2.1252 -0.7647 -0.8994
  560MOL0     H75581  10.698   5.904  10.695  0.8747 -0.6566 -3.4615
  560MOL0     H75582   9.887   6.491  10.943  1.9047 -0.6448 -0.0545
  560MOL0     H75583   9.675   6.417  10.845 -0.3537 -0.4647 -0.1274
  560MOL0     H75584   9.394   6.224  10.671 -1.1587 -0.0878  0.3882
  560MOL0     H75585   9.177   6.154  10.565  2.5316  1.0339  2.8734
  560MOL0     H75586   9.844   5.488  10.208 -1.3392 -0.5804  1.9317
  560MOL0     H75587  10.089   5.492  10.218 -1.7041  0.6676  1.8329
  560MOL0     H75588  10.466   5.582   9.991 -0.8586  1.1328  1.8558
  560MOL0     H75589  10.711   5.607   9.984 -0.3029 -1.2069 -0.7734
  560MOL0     H75590  10.899   5.350   9.893  1.4224 -0.6768 -0.9297
  560MOL0     H75591  10.926   5.527   9.906 -3.7292  0.1755  0.6732
  560MOL0     H75592  11.129   5.347   9.881  2.3927  1.6425  1.0910
  560MOL0     H75593  11.101   5.331  10.049  3.7503 -1.1464 -0.7017
  560MOL0     H75594  11.120   5.600  10.061  0.3906 -0.2221  0.1359
  560MOL0     H75595  11.218   5.581   9.919 -3.3343  1.8250 -0.7317
  560MOL0     H75596  11.399   5.557  10.073  0.6234 -1.1268 -0.8988
  560MOL0     H75597  11.344   5.393  10.057  0.3075  0.1547  1.2584
  560MOL0     H75598  11.224   5.504  10.454 -0.9600  1.1651 -0.0133
  560MOL0     H75599  10.747   5.247  10.217 -1.3822 -0.6169  0.2709
  560MOL0     H75600  10.498   5.249  10.253  0.7725  0.7414 -0.0924
  561MOL0     O75601   1.903   2.764   4.097  0.1106 -0.3947 -0.2301
  561MOL0     C75602   1.942   2.653   4.122 -0.1963 -0.5364 -0.3635
  561MOL0     O75603   1.872   2.560   4.195 -0.3150 -0.5876  0.2187
  561MOL0     C75604   1.734   2.577   4.217 -0.5072  0.1224  0.2396
  561MOL0     C75605   1.652   2.562   4.105 -1.0566  0.1615 -0.0990
  561MOL0     C75606   1.513   2.581   4.119 -0.7705 -0.4433  0.5059
  561MOL0     C75607   1.457   2.603   4.243  1.0188 -0.3662 -0.0612
  561MOL0     O75608   1.325   2.593   4.244 -0.1505  0.1539  0.3740
  561MOL0     C75609   1.264   2.597   4.368  0.8990 -0.9387  0.2593
  561MOL0     C75610   1.110   2.561   4.358 -0.0781 -0.4646 -0.6400
  561MOL0     C75611   1.097   2.410   4.327  0.2534 -0.0586 -0.3257
  561MOL0     C75612   0.963   2.382   4.266  0.1055  0.5894 -0.1084
  561MOL0     C75613   0.851   2.380   4.364  0.1932  0.1536 -0.0647
  561MOL0     C75614   0.818   2.242   4.424  0.8272  0.4635  0.0578
  561MOL0     C75615   0.930   2.202   4.518  0.4491 -0.1622 -0.1368
  561MOL0     C75616   0.890   2.059   4.579 -0.6922 -0.3976 -0.2862
  561MOL0     N75617   0.821   2.054   4.705  0.6866  0.2108  0.0515
  561MOL0     C75618   0.799   1.945   4.789  0.0798  0.7991 -0.8180
  561MOL0     C75619   0.721   1.985   4.899 -0.5724  0.0263  0.0378
  561MOL0     C75620   0.677   1.897   5.007  0.9331 -0.0917 -1.0201
  561MOL0     C75621   0.692   1.961   5.147  0.6528 -0.2657 -0.0814
  561MOL0     C75622   0.617   1.864   5.247  0.1248  0.4227  0.2533
  561MOL0     C75623   0.625   1.919   5.393  0.3900  0.7406 -0.2465
  561MOL0     O75624   0.587   1.836   5.505  0.4747  0.5708  0.1435
  561MOL0     C75625   0.452   1.805   5.534 -0.8514 -0.7792 -1.0625
  561MOL0     C75626   0.349   1.851   5.450  0.2357 -0.7238  0.4093
  561MOL0     C75627   0.211   1.816   5.472  0.5028 -0.4240 -0.0768
  561MOL0     C75628   0.107   1.870   5.373 -0.6843  0.2449 -0.1482
  561MOL0     C75629   0.182   1.736   5.583 -0.4006 -0.2158 -0.0024
  561MOL0     C75630   0.044   1.703   5.623  0.1537 -0.1265  0.3789
  561MOL0     O75631  -0.052   1.793   5.582  0.9859  0.4551 -0.0527
  561MOL0     C75632  -0.187   1.780   5.596  0.2043 -0.7015 -0.0081
  561MOL0     C75633  -0.258   1.690   5.672 -0.0258  0.1278 -0.2256
  561MOL0     C75634  -0.392   1.697   5.675  0.1850 -0.2502  0.4111
  561MOL0     C75635  -0.466   1.789   5.599  0.5553 -0.9609  0.3589
  561MOL0     O75636  -0.606   1.791   5.610 -0.7978  0.3292  0.4764
  561MOL0     C75637  -0.671   1.675   5.569  0.3032 -1.4493 -0.2813
  561MOL0     C75638  -0.823   1.704   5.564  0.8787 -0.2660 -0.1229
  561MOL0     C75639  -0.912   1.581   5.566  1.0285 -0.1742  0.1873
  561MOL0     C75640  -1.065   1.620   5.571  0.0240 -0.5255  0.1323
  561MOL0     C75641  -1.158   1.501   5.607 -0.2086 -1.0503 -0.9349
  561MOL0     C75642  -1.178   1.414   5.486  0.6799  1.1652  0.3044
  561MOL0     C75643  -1.292   1.312   5.522 -0.0262  0.1329  0.4189
  561MOL0     C75644  -1.314   1.220   5.409  0.6382  1.0292  0.3201
  561MOL0    Cl75645  -1.448   1.114   5.439 -0.0290  0.1590  0.2803
  561MOL0     C75646  -0.404   1.880   5.509 -1.1110  0.1442 -0.1219
  561MOL0     C75647  -0.255   1.878   5.516 -0.0892  0.6652  0.8151
  561MOL0     O75648   0.033   1.615   5.705 -0.0563  0.0282 -0.7344
  561MOL0     C75649   0.286   1.686   5.664 -0.6276 -0.2905 -0.0274
  561MOL0     C75650   0.426   1.718   5.644 -0.3573  0.1153  0.4717
  561MOL0     N75651   0.695   2.121   4.864  0.5147 -0.3216 -0.3330
  561MOL0     N75652   0.739   2.161   4.747 -0.0325  0.0211  0.2050
  561MOL0     C75653   1.548   2.620   4.350  0.3481  0.2742 -0.1341
  561MOL0     C75654   1.682   2.609   4.344 -0.5653 -0.0662 -0.0767
  561MOL0     C75655   2.077   2.634   4.086 -0.6421 -0.2422  0.1237
  561MOL0     C75656   2.133   2.506   4.081 -0.3231 -0.1821  0.4295
  561MOL0     C75657   2.267   2.484   4.031  0.0551 -0.8806 -1.2505
  561MOL0     C75658   2.345   2.594   4.017  0.3648 -0.9985 -0.0899
  561MOL0     O75659   2.477   2.598   4.002  0.0139 -0.0600 -0.0400
  561MOL0     C75660   2.559   2.483   4.038 -0.5109 -0.6899 -0.7357
  561MOL0     C75661   2.588   2.402   3.916  0.4859  0.4221  0.1622
  561MOL0     C75662   2.673   2.474   3.812  0.5344 -0.2442  0.0366
  561MOL0     C75663   2.815   2.515   3.853 -0.0743 -0.4193  0.3759
  561MOL0     C75664   2.924   2.504   3.748  0.1401 -0.0456 -0.0720
  561MOL0     C75665   3.013   2.487   3.669  0.3330 -0.3422 -1.1634
  561MOL0     C75666   2.290   2.723   4.023 -0.9314 -0.2918 -0.4673
  561MOL0     C75667   2.158   2.745   4.051 -0.0002 -0.5749  0.5123
  561MOL0     H75668   1.698   2.541   4.009  1.7144  0.4670  1.0860
  561MOL0     H75669   1.452   2.582   4.029  0.7645  0.5403 -0.5540
  561MOL0     H75670   1.317   2.536   4.441  0.2335  0.9164  2.3928
  561MOL0     H75671   1.263   2.703   4.397  0.5608 -1.3026  1.6052
  561MOL0     H75672   1.063   2.594   4.452 -1.3512 -0.4622 -1.2642
  561MOL0     H75673   1.064   2.614   4.274  0.0207 -0.4719 -0.6984
  561MOL0     H75674   1.176   2.372   4.261  0.8636 -0.7669  0.7919
  561MOL0     H75675   1.115   2.351   4.417 -2.1099 -1.1732 -0.5014
  561MOL0     H75676   0.949   2.455   4.186  2.8065  1.7992  0.4113
  561MOL0     H75677   0.968   2.282   4.221 -1.2057 -0.1476  1.2745
  561MOL0     H75678   0.870   2.450   4.446 -0.8824 -0.5065  0.7689
  561MOL0     H75679   0.761   2.414   4.310 -1.2040  0.4117  2.2841
  561MOL0     H75680   0.721   2.241   4.475  0.2003  0.5555 -1.1091
  561MOL0     H75681   0.809   2.160   4.352  1.8621  0.6012 -0.2304
  561MOL0     H75682   1.018   2.183   4.456 -0.7214 -1.0701 -1.6010
  561MOL0     H75683   0.959   2.271   4.597 -2.6352  2.7713 -1.3278
  561MOL0     H75684   0.980   1.998   4.594 -0.8242 -0.0175  2.5530
  561MOL0     H75685   0.816   2.009   4.516 -0.3300 -0.2565 -0.8292
  561MOL0     H75686   0.853   1.850   4.786  0.1521  0.5956  2.4948
  561MOL0     H75687   0.571   1.875   4.992  0.6623  0.0731  0.5532
  561MOL0     H75688   0.729   1.801   5.004  0.9523 -0.1056 -0.2741
  561MOL0     H75689   0.666   2.067   5.156  3.4207  0.5398 -0.6522
  561MOL0     H75690   0.798   1.958   5.176  0.9265  1.2000 -0.8380
  561MOL0     H75691   0.656   1.762   5.242  0.5996  0.6240 -0.2338
  561MOL0     H75692   0.510   1.869   5.223 -0.1009  3.3167  1.4883
  561MOL0     H75693   0.559   2.006   5.404 -1.5453 -0.7576  0.5843
  561MOL0     H75694   0.728   1.950   5.416  2.4214 -4.2613 -1.3309
  561MOL0     H75695   0.367   1.911   5.361  2.1317 -2.3560 -0.3832
  561MOL0     H75696   0.157   1.929   5.295  0.9103  1.1892  1.4985
  561MOL0     H75697   0.048   1.784   5.339  0.7644 -1.3235  1.1277
  561MOL0     H75698   0.042   1.949   5.411  0.9075  2.0556 -1.0326
  561MOL0     H75699  -0.223   1.616   5.743 -2.1566 -1.0372 -0.2897
  561MOL0     H75700  -0.442   1.627   5.741  2.5439  0.1842  2.8450
  561MOL0     H75701  -0.641   1.653   5.466 -0.0470  2.9358 -1.5379
  561MOL0     H75702  -0.653   1.595   5.642 -2.5274  0.0930  2.3671
  561MOL0     H75703  -0.847   1.768   5.650 -2.8539 -2.0923  0.3904
  561MOL0     H75704  -0.835   1.764   5.473  3.6781  0.9299  0.1857
  561MOL0     H75705  -0.898   1.525   5.659 -0.1518  1.7737  1.6220
  561MOL0     H75706  -0.891   1.517   5.480 -3.1651 -0.5155 -0.7936
  561MOL0     H75707  -1.070   1.707   5.636  2.1068  1.0752 -1.7118
  561MOL0     H75708  -1.097   1.661   5.476 -1.5169 -0.7118  0.5450
  561MOL0     H75709  -1.242   1.562   5.642  1.6754  0.9592  0.3808
  561MOL0     H75710  -1.120   1.441   5.690 -1.0237 -0.7150 -0.3045
  561MOL0     H75711  -1.199   1.467   5.393  4.6152 -0.1210 -1.5625
  561MOL0     H75712  -1.086   1.357   5.469 -0.2755 -0.4024  0.1890
  561MOL0     H75713  -1.390   1.360   5.534 -0.0280  1.2269 -2.8391
  561MOL0     H75714  -1.258   1.251   5.606 -3.4483 -0.1734  1.7615
  561MOL0     H75715  -1.226   1.162   5.379 -0.1558  1.1098 -2.3408
  561MOL0     H75716  -1.352   1.276   5.324  3.5346 -0.4789 -2.1453
  561MOL0     H75717  -0.452   1.948   5.440 -0.7053 -1.3232 -1.9275
  561MOL0     H75718  -0.207   1.942   5.443 -0.4868  0.3374  0.2617
  561MOL0     H75719   0.266   1.628   5.754 -0.4870 -2.0118 -1.0627
  561MOL0     H75720   0.514   1.680   5.694 -0.9196  0.9050  2.1562
  561MOL0     H75721   1.516   2.628   4.454  1.3164 -0.9110  0.2667
  561MOL0     H75722   1.748   2.613   4.430  0.5853 -2.6464 -0.7193
  561MOL0     H75723   2.067   2.421   4.093 -2.5501  1.3411 -0.3229
  561MOL0     H75724   2.305   2.384   4.013 -0.7454 -0.8995 -3.0175
  561MOL0     H75725   2.655   2.518   4.077  0.0971 -2.4242 -0.6177
  561MOL0     H75726   2.513   2.426   4.119 -2.1089  1.4677 -0.0322
  561MOL0     H75727   2.495   2.376   3.864  0.8293  1.2804 -0.9233
  561MOL0     H75728   2.637   2.311   3.952  1.3599  1.5219  1.8770
  561MOL0     H75729   2.610   2.560   3.789 -2.6765 -2.3203  0.4937
  561MOL0     H75730   2.670   2.415   3.720 -0.5906  2.5974 -1.9054
  561MOL0     H75731   2.849   2.442   3.927  2.3741 -0.5601 -0.7694
  561MOL0     H75732   2.821   2.612   3.904 -0.4872  0.6969 -1.5796
  561MOL0     H75733   3.087   2.476   3.592 -0.8783 -1.3545 -2.2498
  561MOL0     H75734   2.343   2.818   4.015 -1.1153 -0.1778 -0.3386
  561MOL0     H75735   2.116   2.845   4.061  1.1141  0.2434 -2.1676
  562MOL0     O75736   1.002   9.930   5.233 -0.2897  0.0186  0.0240
  562MOL0     C75737   1.001  10.034   5.289 -0.5743 -0.3313 -0.1296
  562MOL0     O75738   0.890  10.114   5.314  0.1432  0.3601  0.2945
  562MOL0     C75739   0.765  10.065   5.281 -0.9363 -0.2140 -0.0609
  562MOL0     C75740   0.715   9.969   5.365  0.0990  0.4281 -0.2642
  562MOL0     C75741   0.582   9.913   5.348 -0.6065 -0.1912  0.3896
  562MOL0     C75742   0.503   9.961   5.248 -0.4829  0.1121  0.2530
  562MOL0     O75743   0.380   9.910   5.242 -0.2550  0.4144 -0.2621
  562MOL0     C75744   0.280  10.006   5.218  0.0272  0.2595 -0.2640
  562MOL0     C75745   0.143   9.938   5.245 -0.2279  0.0223 -0.0286
  562MOL0     C75746   0.123   9.867   5.383 -0.3061 -0.3376  0.2394
  562MOL0     C75747  -0.016   9.820   5.409  0.1616 -0.0418 -0.2173
  562MOL0     C75748  -0.044   9.752   5.548  0.5241  0.5745 -0.5948
  562MOL0     C75749  -0.198   9.728   5.542 -0.4202  0.7551 -0.8406
  562MOL0     C75750  -0.259   9.740   5.683 -0.7010  0.2563 -0.4976
  562MOL0     C75751  -0.415   9.756   5.682 -0.2668  0.4260  0.1266
  562MOL0     N75752  -0.466   9.624   5.642  0.2563 -0.2486 -0.5380
  562MOL0     C75753  -0.520   9.537   5.734  0.3709  0.7670  0.4443
  562MOL0     C75754  -0.583   9.445   5.654  0.1942  0.7421  0.9708
  562MOL0     C75755  -0.652   9.331   5.711  0.9127  0.0602 -0.3712
  562MOL0     C75756  -0.794   9.375   5.739  0.2824 -1.0155 -0.3506
  562MOL0     C75757  -0.888   9.260   5.752 -0.2320 -0.5688  1.1330
  562MOL0     C75758  -1.032   9.290   5.799  0.4272  0.4538 -0.0181
  562MOL0     O75759  -1.122   9.178   5.781  0.4937 -0.2096  0.1163
  562MOL0     C75760  -1.248   9.169   5.838 -0.3527 -0.6169  0.7470
  562MOL0     C75761  -1.317   9.050   5.807  0.4032  0.9231 -0.1682
  562MOL0     C75762  -1.454   9.027   5.846  0.4783 -0.6166  0.2891
  562MOL0     C75763  -1.508   8.887   5.817  0.3057 -0.7026  0.3358
  562MOL0     C75764  -1.520   9.140   5.910  0.3887 -0.1573 -0.2769
  562MOL0     C75765  -1.650   9.135   5.972  0.0315 -0.0126  0.0084
  562MOL0     O75766  -1.685   9.240   6.052 -0.3498 -0.0847  0.4386
  562MOL0     C75767  -1.783   9.234   6.146  0.0647  0.4372  0.3549
  562MOL0     C75768  -1.801   9.121   6.230 -0.5941 -0.0813  0.6990
  562MOL0     C75769  -1.906   9.123   6.322 -0.8365 -0.9850  0.0673
  562MOL0     C75770  -1.997   9.226   6.310  0.1772 -0.5322 -0.1619
  562MOL0     O75771  -2.121   9.214   6.370 -0.1472  0.1639  0.3918
  562MOL0     C75772  -2.128   9.249   6.506 -0.4049  0.0301  0.1015
  562MOL0     C75773  -2.258   9.201   6.563 -0.2349 -0.0432 -0.3063
  562MOL0     C75774  -2.263   9.220   6.720  0.5446  0.6824 -0.4376
  562MOL0     C75775  -2.369   9.120   6.777 -0.7260  0.0136 -0.0207
  562MOL0     C75776  -2.379   9.123   6.929  0.5380 -0.0352  0.7084
  562MOL0     C75777  -2.506   9.053   6.976 -0.5551 -0.1225 -0.4762
  562MOL0     C75778  -2.509   9.064   7.134  0.2040 -0.4521  0.8568
  562MOL0     C75779  -2.505   9.198   7.202  0.5517  0.1190 -0.4008
  562MOL0    Cl75780  -2.658   9.288   7.175  0.4707  0.5796 -0.0642
  562MOL0     C75781  -1.978   9.334   6.230 -0.5981  0.3842 -0.0117
  562MOL0     C75782  -1.864   9.344   6.155  0.0824  0.3544  0.8717
  562MOL0     O75783  -1.719   9.036   5.952 -0.0994 -0.2449  0.7465
  562MOL0     C75784  -1.452   9.261   5.923  0.0310 -0.5252  0.3406
  562MOL0     C75785  -1.319   9.269   5.893  0.2579 -0.7088 -1.2200
  562MOL0     N75786  -0.560   9.475   5.519  1.1673 -0.0853  0.1514
  562MOL0     N75787  -0.490   9.579   5.520 -0.8545 -0.1537  0.6096
  562MOL0     C75788   0.553  10.071   5.168  0.0851 -0.1634 -0.6765
  562MOL0     C75789   0.680  10.122   5.183 -0.4385  1.0982  0.2010
  562MOL0     C75790   1.135  10.092   5.312  0.6379 -0.6461  0.7584
  562MOL0     C75791   1.140  10.213   5.385  0.2159 -0.0249 -0.3453
  562MOL0     C75792   1.254  10.279   5.395 -0.9174 -0.4796 -0.2942
  562MOL0     C75793   1.374  10.229   5.352 -1.3623  0.6062 -0.1019
  562MOL0     O75794   1.500  10.298   5.391 -0.0088 -0.1148  0.1000
  562MOL0     C75795   1.611  10.275   5.301 -0.4888  0.8323 -0.6829
  562MOL0     C75796   1.718  10.192   5.370  0.2235  0.5528  0.5018
  562MOL0     C75797   1.770  10.240   5.499 -0.1634 -0.5110  0.1959
  562MOL0     C75798   1.836  10.377   5.502 -1.0714  0.6520  0.2749
  562MOL0     C75799   1.959  10.363   5.418 -0.2923 -0.5384 -0.2049
  562MOL0     C75800   2.065  10.340   5.369  0.4644 -0.4151 -0.5314
  562MOL0     C75801   1.371  10.105   5.291  0.4420 -0.2738 -0.6314
  562MOL0     C75802   1.250  10.039   5.266  0.1442  0.3234  0.2540
  562MOL0     H75803   0.778   9.932   5.446 -0.6845  0.1128  0.2061
  562MOL0     H75804   0.551   9.833   5.414  0.8902  1.3211  3.1270
  562MOL0     H75805   0.291  10.095   5.282 -0.1350  0.7473 -0.9072
  562MOL0     H75806   0.282  10.049   5.118  0.2150  1.5170  0.2573
  562MOL0     H75807   0.068  10.016   5.232  0.2624  0.6852  1.0217
  562MOL0     H75808   0.133   9.860   5.168  2.6235 -2.9339  2.3049
  562MOL0     H75809   0.190   9.781   5.387  0.5431  0.3523  1.8177
  562MOL0     H75810   0.146   9.940   5.461 -1.9378 -0.5959  0.9937
  562MOL0     H75811  -0.071   9.915   5.412  0.3713  0.0725  0.1609
  562MOL0     H75812  -0.053   9.760   5.326 -1.6406 -0.7917  1.0544
  562MOL0     H75813   0.018   9.662   5.557  0.5159  0.5185 -1.0404
  562MOL0     H75814  -0.025   9.818   5.633 -2.3039 -0.2759  0.8118
  562MOL0     H75815  -0.252   9.802   5.481 -1.6526 -1.5071 -2.6834
  562MOL0     H75816  -0.213   9.629   5.499  0.2051  0.8804 -1.3592
  562MOL0     H75817  -0.220   9.670   5.757  2.0444  2.8062  0.6991
  562MOL0     H75818  -0.223   9.835   5.725  2.7310 -1.7526  1.5634
  562MOL0     H75819  -0.449   9.836   5.615 -0.2925 -0.5352 -1.0381
  562MOL0     H75820  -0.445   9.778   5.785  0.4278 -2.6653  1.0829
  562MOL0     H75821  -0.517   9.539   5.842 -1.0658  0.2677  0.5198
  562MOL0     H75822  -0.668   9.242   5.650 -1.5633  0.7882 -0.9033
  562MOL0     H75823  -0.592   9.309   5.800  0.1417 -2.8030 -0.4563
  562MOL0     H75824  -0.826   9.445   5.661 -0.2817 -2.2273 -1.2326
  562MOL0     H75825  -0.786   9.422   5.838  1.2876 -0.8505 -0.5031
  562MOL0     H75826  -0.853   9.183   5.822 -0.5960 -0.0966  1.8489
  562MOL0     H75827  -0.890   9.219   5.651  3.0905 -0.9147  1.0813
  562MOL0     H75828  -1.076   9.372   5.741 -0.5568  2.6618  3.4868
  562MOL0     H75829  -1.035   9.328   5.902 -1.5491  1.6989 -0.4793
  562MOL0     H75830  -1.269   8.976   5.744 -0.8098 -1.5042  1.6132
  562MOL0     H75831  -1.573   8.842   5.893  0.5078 -1.4327  0.0872
  562MOL0     H75832  -1.575   8.886   5.730 -0.1002 -4.0497  0.5576
  562MOL0     H75833  -1.428   8.816   5.794 -1.4310 -2.4469 -0.6716
  562MOL0     H75834  -1.727   9.042   6.240 -1.7054 -1.2071  0.2327
  562MOL0     H75835  -1.919   9.051   6.402 -1.0210 -2.2500 -1.0658
  562MOL0     H75836  -2.042   9.199   6.553  2.2547  3.7016 -0.4296
  562MOL0     H75837  -2.107   9.356   6.507 -0.4250  0.1195 -2.4495
  562MOL0     H75838  -2.341   9.251   6.511 -0.9941  0.1309  1.0331
  562MOL0     H75839  -2.261   9.095   6.537  0.2452  0.0189 -0.6231
  562MOL0     H75840  -2.297   9.322   6.738 -1.6501  0.2089 -1.5580
  562MOL0     H75841  -2.164   9.200   6.762  0.1886  0.8441  0.5153
  562MOL0     H75842  -2.465   9.166   6.751  0.4183  1.5846 -1.6539
  562MOL0     H75843  -2.356   9.015   6.746  0.4360 -0.0015  0.4652
  562MOL0     H75844  -2.382   9.229   6.957  1.1903 -0.5853  3.1036
  562MOL0     H75845  -2.294   9.072   6.974  2.4391  1.3164 -1.1335
  562MOL0     H75846  -2.600   9.084   6.928 -2.1761 -2.0550  1.2515
  562MOL0     H75847  -2.497   8.945   6.960  0.3709 -0.3579  1.4257
  562MOL0     H75848  -2.420   9.009   7.164  2.1893  0.9479 -2.0198
  562MOL0     H75849  -2.598   9.011   7.170 -0.3539  0.4757  0.8782
  562MOL0     H75850  -2.428   9.260   7.155 -1.4439  0.5431 -3.4059
  562MOL0     H75851  -2.492   9.190   7.310 -1.8233  0.4202 -0.0373
  562MOL0     H75852  -2.051   9.414   6.228  0.3249  1.2372 -1.0871
  562MOL0     H75853  -1.856   9.427   6.084  0.3429 -0.1104  0.3482
  562MOL0     H75854  -1.496   9.355   5.954  0.1201 -0.6755  0.9460
  562MOL0     H75855  -1.275   9.368   5.907 -0.6157 -0.4559 -0.0002
  562MOL0     H75856   0.497  10.114   5.085 -0.6133 -1.6399 -1.0016
  562MOL0     H75857   0.711  10.215   5.135 -2.2182  0.4016 -2.5252
  562MOL0     H75858   1.046  10.242   5.431  0.5219 -0.7687  0.7901
  562MOL0     H75859   1.257  10.381   5.434 -0.2300  0.1388 -1.8749
  562MOL0     H75860   1.584  10.235   5.203 -1.2507  0.2995 -0.2688
  562MOL0     H75861   1.650  10.376   5.291  0.2619  1.0983  3.2731
  562MOL0     H75862   1.798  10.167   5.300 -0.8050 -0.1386 -0.4816
  562MOL0     H75863   1.688  10.088   5.391 -0.7946  0.9644  1.1686
  562MOL0     H75864   1.844  10.170   5.538  3.1550  1.2724 -2.4338
  562MOL0     H75865   1.683  10.240   5.565 -1.4389 -0.9305 -1.4104
  562MOL0     H75866   1.867  10.403   5.604 -2.4997 -0.7476  1.1100
  562MOL0     H75867   1.773  10.458   5.463 -1.2602 -0.6620 -2.3362
  562MOL0     H75868   2.151  10.292   5.326  1.5785  2.0557 -1.2308
  562MOL0     H75869   1.463  10.053   5.267  0.6945 -0.2391  0.2357
  562MOL0     H75870   1.246   9.953   5.201  1.7788  0.4731 -0.0901
  563MOL0     O75871  11.172   7.477   4.342 -0.6927  0.0926  0.0371
  563MOL0     C75872  11.215   7.590   4.334 -0.0208  0.1724  0.0768
  563MOL0     O75873  11.146   7.701   4.331 -0.6564  0.1455 -0.0042
  563MOL0     C75874  11.012   7.681   4.313  0.5299  0.2084 -0.0379
  563MOL0     C75875  10.924   7.668   4.421 -0.0665  0.4364 -0.4777
  563MOL0     C75876  10.782   7.667   4.397  0.7189 -0.5489 -0.1945
  563MOL0     C75877  10.729   7.661   4.266 -0.6458 -0.1783 -0.2219
  563MOL0     O75878  10.598   7.655   4.241  0.6558  0.4520  0.1444
  563MOL0     C75879  10.548   7.694   4.111  0.3222  0.1561  0.1338
  563MOL0     C75880  10.404   7.737   4.135 -0.3126  0.0464  0.1750
  563MOL0     C75881  10.309   7.719   4.007  1.5886  0.2993  0.0697
  563MOL0     C75882  10.153   7.753   4.028 -0.9130  0.1344 -0.1390
  563MOL0     C75883  10.071   7.687   3.911 -0.4076 -0.3911 -0.3737
  563MOL0     C75884   9.915   7.707   3.922 -0.9422 -0.1079 -0.5400
  563MOL0     C75885   9.859   7.850   3.890 -0.1868  0.5850  0.5353
  563MOL0     C75886   9.882   7.890   3.744  0.5777 -0.6784  0.1871
  563MOL0     N75887   9.797   7.827   3.642  0.4279  0.8973  0.0708
  563MOL0     C75888   9.660   7.862   3.620 -0.2917  0.0914 -0.3671
  563MOL0     C75889   9.619   7.780   3.527  0.3304 -0.7156 -0.0394
  563MOL0     C75890   9.480   7.790   3.473 -0.4468  0.0114 -0.8264
  563MOL0     C75891   9.359   7.790   3.562 -0.7507  0.7651  0.5755
  563MOL0     C75892   9.228   7.796   3.483  0.2936 -0.0372  0.2428
  563MOL0     C75893   9.114   7.832   3.577  0.6075  0.3736 -0.3735
  563MOL0     O75894   8.994   7.847   3.499 -0.5342 -0.4749  0.2877
  563MOL0     C75895   8.863   7.856   3.544  0.0427  0.0960 -0.7359
  563MOL0     C75896   8.827   7.863   3.678 -0.3523 -0.3409 -0.6913
  563MOL0     C75897   8.690   7.881   3.719  0.2603  0.0839 -0.2920
  563MOL0     C75898   8.666   7.873   3.870 -0.3064 -0.4288  0.0751
  563MOL0     C75899   8.592   7.916   3.619 -0.0401  0.5789 -0.0418
  563MOL0     C75900   8.450   7.947   3.641 -0.4191 -0.7040 -0.1167
  563MOL0     O75901   8.371   7.985   3.538 -0.0322  0.0613 -0.0781
  563MOL0     C75902   8.238   8.009   3.548 -0.1944 -0.0935  0.5029
  563MOL0     C75903   8.152   7.964   3.652  0.5532 -1.2310 -0.0826
  563MOL0     C75904   8.019   8.011   3.655  0.0476  0.7253 -0.0425
  563MOL0     C75905   7.960   8.076   3.543  0.0480 -1.0646 -0.6087
  563MOL0     O75906   7.829   8.095   3.555  1.1025 -0.3524 -1.2139
  563MOL0     C75907   7.760   8.176   3.461 -0.1509 -0.3157 -0.1049
  563MOL0     C75908   7.728   8.086   3.336 -0.4997 -0.3115 -0.7469
  563MOL0     C75909   7.662   7.955   3.370  0.2232 -0.3551  0.0138
  563MOL0     C75910   7.632   7.864   3.247  0.2439 -0.0839  1.1553
  563MOL0     C75911   7.524   7.765   3.291  0.3368  1.2919 -0.5424
  563MOL0     C75912   7.526   7.636   3.214  0.2310 -0.2337  0.3949
  563MOL0     C75913   7.499   7.670   3.066 -0.3630 -0.2022 -0.2141
  563MOL0     C75914   7.498   7.540   2.980 -0.1849  0.7013  0.9570
  563MOL0    Cl75915   7.648   7.446   2.970  0.0180  0.3785  0.0859
  563MOL0     C75916   8.041   8.113   3.441 -0.0732 -0.0718 -0.0392
  563MOL0     C75917   8.179   8.089   3.449  0.7982 -0.4443  0.6955
  563MOL0     O75918   8.418   7.935   3.758  0.3625 -0.6046 -1.0896
  563MOL0     C75919   8.632   7.904   3.487  0.1426 -0.2726  0.4106
  563MOL0     C75920   8.765   7.877   3.446  0.3366 -0.2032 -0.6036
  563MOL0     N75921   9.718   7.696   3.489  0.5737 -0.2689 -0.2219
  563MOL0     N75922   9.829   7.726   3.555  0.9808  0.3072  0.3663
  563MOL0     C75923  10.823   7.656   4.162  0.0713  0.1598 -0.4837
  563MOL0     C75924  10.958   7.670   4.182 -0.0726 -0.4613 -0.3191
  563MOL0     C75925  11.361   7.604   4.376  0.0082  0.6588  0.6027
  563MOL0     C75926  11.434   7.484   4.395  0.2664  0.2045 -0.3692
  563MOL0     C75927  11.564   7.485   4.437  0.3385 -0.3089  0.5663
  563MOL0     C75928  11.636   7.601   4.467 -0.1743 -0.0285  0.5111
  563MOL0     O75929  11.760   7.610   4.514  0.3383  0.3083 -1.0237
  563MOL0     C75930  11.781   7.544   4.641 -0.3100 -0.5527 -0.3713
  563MOL0     C75931  11.922   7.580   4.691  0.5910 -0.0559  0.2006
  563MOL0     C75932  11.921   7.720   4.755 -0.4037  0.0962 -0.2988
  563MOL0     C75933  12.042   7.725   4.849  0.4617  0.1324 -0.4550
  563MOL0     C75934  12.165   7.762   4.765 -1.0099  0.0423 -0.4578
  563MOL0     C75935  12.270   7.785   4.694  0.7620  0.0267 -0.0683
  563MOL0     C75936  11.563   7.721   4.458 -0.5563 -0.3528  0.2535
  563MOL0     C75937  11.430   7.725   4.407  0.6440  0.2326 -0.1995
  563MOL0     H75938  10.965   7.670   4.521  3.5520  1.0703 -1.8226
  563MOL0     H75939  10.718   7.660   4.485  0.2877 -1.1263 -0.5461
  563MOL0     H75940  10.605   7.777   4.069 -0.5978  0.6382 -0.1903
  563MOL0     H75941  10.559   7.608   4.044 -1.3534 -0.8815  1.1214
  563MOL0     H75942  10.362   7.665   4.206  0.9372 -0.0085  0.8817
  563MOL0     H75943  10.391   7.835   4.180 -1.1811 -0.9672  2.2505
  563MOL0     H75944  10.342   7.768   3.915 -0.5184 -1.0721 -1.5026
  563MOL0     H75945  10.316   7.614   3.978 -0.0025  0.0988  0.3441
  563MOL0     H75946  10.122   7.730   4.130  1.3514  0.0078  0.5843
  563MOL0     H75947  10.137   7.860   4.016 -1.2553  0.3340  1.7303
  563MOL0     H75948  10.098   7.729   3.814 -0.5315 -0.2299 -0.3396
  563MOL0     H75949  10.096   7.581   3.916  0.7208 -0.0906  1.3536
  563MOL0     H75950   9.868   7.641   3.848  1.6845 -0.5748 -1.9266
  563MOL0     H75951   9.895   7.676   4.025  1.4609 -3.2466 -0.8677
  563MOL0     H75952   9.751   7.852   3.908 -0.5827  0.8301 -1.6171
  563MOL0     H75953   9.906   7.917   3.963  0.7102  0.5574 -0.0034
  563MOL0     H75954   9.982   7.874   3.703 -0.5179 -0.7959 -2.5927
  563MOL0     H75955   9.866   7.998   3.740  1.7886 -0.4596  0.8196
  563MOL0     H75956   9.595   7.937   3.663 -1.0502 -1.1986  0.8473
  563MOL0     H75957   9.480   7.887   3.424 -2.2171  2.8245  4.0437
  563MOL0     H75958   9.470   7.709   3.400 -2.6541 -2.2932  1.7643
  563MOL0     H75959   9.365   7.873   3.634  3.0386  0.5772  0.6567
  563MOL0     H75960   9.357   7.696   3.618  2.7485 -0.2487 -0.7508
  563MOL0     H75961   9.216   7.703   3.426  2.6839 -0.4999  0.4062
  563MOL0     H75962   9.240   7.873   3.406  2.2230 -0.7975 -0.2795
  563MOL0     H75963   9.146   7.917   3.637 -0.7469  0.1094  0.7617
  563MOL0     H75964   9.100   7.747   3.644  0.6617  2.1161  1.9758
  563MOL0     H75965   8.899   7.849   3.758  0.0588  0.3982 -0.9133
  563MOL0     H75966   8.589   7.797   3.889 -0.7296  0.0502  0.2868
  563MOL0     H75967   8.751   7.853   3.935 -0.7219  0.3197  0.8643
  563MOL0     H75968   8.627   7.966   3.912 -2.4457 -2.2637  2.5029
  563MOL0     H75969   8.198   7.900   3.726  1.8040 -2.7430 -2.0352
  563MOL0     H75970   7.949   7.985   3.734 -1.0256 -1.1387 -1.5245
  563MOL0     H75971   7.668   8.222   3.499 -0.5780 -0.7894 -0.5417
  563MOL0     H75972   7.827   8.261   3.445  0.7793 -0.8865  0.6825
  563MOL0     H75973   7.656   8.150   3.283 -1.5774 -0.4171  0.5106
  563MOL0     H75974   7.813   8.080   3.268 -0.9864  4.5205 -2.1959
  563MOL0     H75975   7.572   7.977   3.427 -0.2545  0.3080 -0.9693
  563MOL0     H75976   7.733   7.896   3.429  2.0363  1.0771 -0.6196
  563MOL0     H75977   7.599   7.920   3.159 -0.8761 -2.0105  0.2894
  563MOL0     H75978   7.720   7.808   3.214  1.4051  2.8719 -1.2130
  563MOL0     H75979   7.426   7.812   3.279 -0.9800 -1.0532  0.2619
  563MOL0     H75980   7.553   7.743   3.394  3.9578  1.2619 -1.4415
  563MOL0     H75981   7.617   7.580   3.239 -0.2498 -1.5165 -0.6080
  563MOL0     H75982   7.441   7.574   3.244  1.4302 -2.5210 -0.6875
  563MOL0     H75983   7.577   7.738   3.029 -1.5987  2.0415  1.0814
  563MOL0     H75984   7.409   7.732   3.055  0.1534  0.3824 -1.4392
  563MOL0     H75985   7.469   7.564   2.877  1.1096 -3.1958 -0.5096
  563MOL0     H75986   7.418   7.476   3.017 -0.6726 -0.0228 -1.2148
  563MOL0     H75987   8.002   8.171   3.358 -1.5932 -0.7726  0.1554
  563MOL0     H75988   8.247   8.121   3.370  1.0010  0.2561  1.1459
  563MOL0     H75989   8.557   7.916   3.408  1.9217  0.0286 -1.3087
  563MOL0     H75990   8.789   7.863   3.342 -1.0107  0.5582 -1.0424
  563MOL0     H75991  10.783   7.654   4.061 -0.3421  0.5324 -0.3354
  563MOL0     H75992  11.024   7.668   4.096  2.1985  0.0041  1.3294
  563MOL0     H75993  11.404   7.387   4.359 -1.5534  0.6598 -0.1587
  563MOL0     H75994  11.626   7.396   4.430 -0.5919 -0.8627 -0.7758
  563MOL0     H75995  11.713   7.584   4.717  0.7774  1.0327 -0.1876
  563MOL0     H75996  11.781   7.434   4.643 -0.0638 -0.6144 -2.0170
  563MOL0     H75997  11.989   7.568   4.606 -1.5573  0.0789 -1.6281
  563MOL0     H75998  11.947   7.505   4.767  0.9708  0.7141  0.8479
  563MOL0     H75999  11.831   7.743   4.812  0.5691 -0.3965  1.4926
  563MOL0     H76000  11.929   7.795   4.676 -2.6735  0.1867 -0.5187
  563MOL0     H76001  12.060   7.631   4.901 -1.1976  0.6842  1.2089
  563MOL0     H76002  12.030   7.798   4.930 -2.0242 -0.4411 -0.2499
  563MOL0     H76003  12.365   7.806   4.647  1.2067 -1.9997 -0.1629
  563MOL0     H76004  11.614   7.808   4.498  0.9197 -0.7951 -0.5925
  563MOL0     H76005  11.374   7.818   4.400 -0.8093 -0.4921  1.0799
  564MOL0     O76006   5.623   7.207   3.076 -0.2642 -0.0858 -0.4923
  564MOL0     C76007   5.590   7.255   2.965 -0.7851  0.4529 -0.0412
  564MOL0     O76008   5.468   7.257   2.921  0.0164 -0.1898 -0.0338
  564MOL0     C76009   5.369   7.196   3.002 -0.5098  0.0484  0.1937
  564MOL0     C76010   5.308   7.275   3.101  0.4098  0.3832  0.2200
  564MOL0     C76011   5.198   7.230   3.173  0.3686  0.5296 -0.1383
  564MOL0     C76012   5.159   7.098   3.141  0.0813  0.3085 -0.6328
  564MOL0     O76013   5.061   7.029   3.207  0.3964 -0.3157  0.2332
  564MOL0     C76014   4.988   7.103   3.314  0.7009 -0.2360  0.2675
  564MOL0     C76015   4.875   7.010   3.356 -0.0980  0.6512  0.0421
  564MOL0     C76016   4.758   7.012   3.262  0.1190  0.8298 -0.6726
  564MOL0     C76017   4.662   6.902   3.290  0.6405 -0.1708 -0.0479
  564MOL0     C76018   4.515   6.952   3.292 -0.7348  0.9154 -0.4294
  564MOL0     C76019   4.406   6.846   3.290 -0.0003  0.2051 -0.8406
  564MOL0     C76020   4.262   6.911   3.320 -0.9191  0.1376 -0.3992
  564MOL0     C76021   4.148   6.818   3.274 -0.5842 -0.4088  0.0104
  564MOL0     N76022   4.016   6.881   3.280 -0.1529 -0.4348  0.1549
  564MOL0     C76023   3.954   6.969   3.190 -0.3548  0.7706 -0.0481
  564MOL0     C76024   3.825   6.988   3.233 -0.1178  0.3721 -0.0988
  564MOL0     C76025   3.726   7.096   3.185 -0.2996 -0.3538 -0.5193
  564MOL0     C76026   3.614   7.031   3.111 -0.3775  0.5147  0.1015
  564MOL0     C76027   3.498   6.979   3.206 -0.3706  0.3183 -0.0047
  564MOL0     C76028   3.357   6.966   3.145 -0.1683 -0.3007 -0.5305
  564MOL0     O76029   3.302   7.092   3.126  0.3240 -0.4081  0.0424
  564MOL0     C76030   3.173   7.112   3.071 -0.1104 -0.1922  0.2389
  564MOL0     C76031   3.072   7.022   3.069 -0.1270  0.6839 -0.5942
  564MOL0     C76032   2.943   7.053   3.027 -0.5794 -0.5274  1.2889
  564MOL0     C76033   2.844   6.934   3.026 -0.0107 -1.0811  0.6498
  564MOL0     C76034   2.915   7.174   2.960  0.0668 -0.9972  0.2464
  564MOL0     C76035   2.788   7.207   2.889 -0.2729  0.0789  0.5195
  564MOL0     O76036   2.708   7.102   2.863 -1.1010  0.1140  0.0280
  564MOL0     C76037   2.581   7.127   2.822  0.2627 -0.2655 -0.0451
  564MOL0     C76038   2.547   7.198   2.712 -0.3839 -0.1780  0.4759
  564MOL0     C76039   2.418   7.210   2.671  0.4222 -0.1856  0.3705
  564MOL0     C76040   2.309   7.168   2.750 -0.2099  0.5163  0.7769
  564MOL0     O76041   2.181   7.180   2.701  0.0938 -1.3037 -0.2145
  564MOL0     C76042   2.060   7.128   2.765 -0.9420  0.4597 -0.2617
  564MOL0     C76043   1.921   7.168   2.699 -0.4146  0.0074 -0.6856
  564MOL0     C76044   1.798   7.102   2.767 -0.6387  0.2335 -0.3002
  564MOL0     C76045   1.749   6.979   2.681  0.2791  0.2804  0.8708
  564MOL0     C76046   1.607   6.928   2.725  1.1370  0.6541 -0.1522
  564MOL0     C76047   1.543   6.833   2.626 -0.2800 -0.7593  0.5679
  564MOL0     C76048   1.439   6.914   2.549 -0.2510 -0.2344  0.9929
  564MOL0     C76049   1.413   6.853   2.411 -1.0687  0.5211  0.1205
  564MOL0    Cl76050   1.250   6.883   2.348  0.2876 -0.0726  0.1930
  564MOL0     C76051   2.341   7.097   2.868 -0.2320  0.5984  0.5320
  564MOL0     C76052   2.476   7.067   2.895 -0.1566  0.1324  0.4257
  564MOL0     O76053   2.770   7.327   2.859 -0.4635 -0.0152  0.0063
  564MOL0     C76054   3.031   7.269   2.956  0.6533  0.5679 -1.4071
  564MOL0     C76055   3.146   7.237   3.023  1.0332 -0.0944 -0.8387
  564MOL0     N76056   3.811   6.905   3.339 -0.5495 -0.2670 -0.2433
  564MOL0     N76057   3.919   6.838   3.368 -0.4108  0.0403 -0.1651
  564MOL0     C76058   5.217   7.023   3.045  0.8619 -0.6898 -0.6194
  564MOL0     C76059   5.318   7.069   2.970  0.1135 -0.0648 -0.4164
  564MOL0     C76060   5.699   7.305   2.886  0.2337 -0.2720 -0.0144
  564MOL0     C76061   5.836   7.318   2.936  0.0857  0.6707 -0.5405
  564MOL0     C76062   5.949   7.365   2.861  0.2496  0.4279  0.0912
  564MOL0     C76063   5.938   7.385   2.726  0.0516 -0.1030 -0.3053
  564MOL0     O76064   6.048   7.430   2.657 -0.2927 -0.6907 -0.0367
  564MOL0     C76065   6.035   7.446   2.519  0.2514 -0.0386  0.2862
  564MOL0     C76066   6.159   7.503   2.458  0.3480 -0.3563  0.6390
  564MOL0     C76067   6.283   7.411   2.487 -0.2753  0.2093 -0.2759
  564MOL0     C76068   6.386   7.421   2.375 -0.1580  0.0432 -0.2813
  564MOL0     C76069   6.339   7.359   2.250  0.4097 -0.2766  1.2186
  564MOL0     C76070   6.291   7.309   2.150  0.0439 -0.1649  0.0489
  564MOL0     C76071   5.808   7.366   2.675  0.6971 -0.4992  0.1458
  564MOL0     C76072   5.697   7.332   2.748 -0.1612 -0.2975 -0.6380
  564MOL0     H76073   5.360   7.367   3.125 -0.7141  1.1393 -0.1726
  564MOL0     H76074   5.144   7.297   3.239 -1.6673 -2.0595  0.9994
  564MOL0     H76075   5.061   7.114   3.395 -1.5932  2.8020  2.1158
  564MOL0     H76076   4.943   7.201   3.300 -2.1499 -0.7100  4.3523
  564MOL0     H76077   4.918   6.910   3.372 -2.7621 -0.4867  0.6067
  564MOL0     H76078   4.836   7.045   3.452 -0.7784 -1.8204  0.7382
  564MOL0     H76079   4.713   7.112   3.266  0.7000  1.1601 -1.8989
  564MOL0     H76080   4.797   6.994   3.161  3.3310  2.7454  0.0723
  564MOL0     H76081   4.665   6.839   3.200  1.4124  2.0354 -1.6363
  564MOL0     H76082   4.695   6.850   3.381  0.7837 -2.3661 -1.2845
  564MOL0     H76083   4.504   7.019   3.378 -0.3243 -0.4385  0.7285
  564MOL0     H76084   4.504   7.013   3.202 -0.8590 -2.3288 -2.7792
  564MOL0     H76085   4.390   6.803   3.190 -2.6335  1.1425 -0.9052
  564MOL0     H76086   4.434   6.768   3.361 -2.0324 -0.4987 -0.7429
  564MOL0     H76087   4.265   6.929   3.428 -3.2594  0.6444 -0.3762
  564MOL0     H76088   4.252   7.008   3.270 -0.4040 -0.5442 -1.8711
  564MOL0     H76089   4.152   6.730   3.339 -0.0389  0.8838  1.8052
  564MOL0     H76090   4.155   6.781   3.171 -4.2886  0.3942 -0.6838
  564MOL0     H76091   4.003   7.008   3.102  3.8892 -1.2792  1.0850
  564MOL0     H76092   3.678   7.140   3.273 -1.3346  0.2113 -1.3397
  564MOL0     H76093   3.775   7.167   3.118  0.0079  0.9505  1.0505
  564MOL0     H76094   3.652   6.954   3.044 -0.2728 -0.6123  1.4084
  564MOL0     H76095   3.570   7.104   3.043 -2.9041 -1.2711 -0.3233
  564MOL0     H76096   3.489   7.042   3.295  1.2767  0.3413  0.1823
  564MOL0     H76097   3.536   6.878   3.228  1.7379  0.8673 -0.8325
  564MOL0     H76098   3.298   6.920   3.225  1.2040 -1.3177 -0.0702
  564MOL0     H76099   3.347   6.898   3.061 -1.5236 -2.0803  0.9756
  564MOL0     H76100   3.080   6.922   3.111 -3.5683  1.9417  3.8164
  564MOL0     H76101   2.823   6.895   2.926  0.3943  4.3456 -1.9190
  564MOL0     H76102   2.873   6.855   3.095 -1.1842 -0.3260  2.0601
  564MOL0     H76103   2.745   6.968   3.055 -0.7367  0.8599 -3.3465
  564MOL0     H76104   2.630   7.245   2.660 -0.2685 -1.0863 -0.1830
  564MOL0     H76105   2.397   7.250   2.572  1.2325 -1.4287 -0.3200
  564MOL0     H76106   2.059   7.020   2.751 -4.6647  0.4169 -0.7347
  564MOL0     H76107   2.069   7.146   2.873  1.0912 -0.9788 -0.1512
  564MOL0     H76108   1.912   7.275   2.717 -0.9202 -0.2758  0.9334
  564MOL0     H76109   1.918   7.154   2.590 -5.1657  0.6334 -0.8646
  564MOL0     H76110   1.724   7.183   2.773 -0.8539  0.0092  0.1237
  564MOL0     H76111   1.809   7.070   2.871  0.0391  0.5664 -0.2674
  564MOL0     H76112   1.741   7.018   2.579  0.5485 -1.7593  0.0423
  564MOL0     H76113   1.826   6.902   2.683  0.0695 -0.0733  4.9232
  564MOL0     H76114   1.547   7.010   2.766 -3.5931 -1.4155 -2.1982
  564MOL0     H76115   1.624   6.861   2.810 -1.5611 -0.5546 -0.4601
  564MOL0     H76116   1.620   6.786   2.564 -0.3984 -0.4029  0.1430
  564MOL0     H76117   1.487   6.755   2.676 -1.0458 -0.5843  0.0035
  564MOL0     H76118   1.451   7.023   2.549  0.7942 -0.3371  1.3205
  564MOL0     H76119   1.345   6.890   2.599  0.3191 -0.3885  2.0237
  564MOL0     H76120   1.428   6.745   2.415 -0.9947  0.5564  1.0372
  564MOL0     H76121   1.490   6.900   2.349 -0.3188  0.8835  1.2819
  564MOL0     H76122   2.272   7.035   2.926 -2.6842  1.3752 -1.3548
  564MOL0     H76123   2.512   7.003   2.974 -0.5396  0.4227  0.8456
  564MOL0     H76124   3.022   7.361   2.900 -1.8346  2.5609  1.8760
  564MOL0     H76125   3.223   7.314   3.027  0.2742  1.0853 -4.3920
  564MOL0     H76126   5.186   6.919   3.050 -3.1522  0.3822  2.5480
  564MOL0     H76127   5.365   7.010   2.892 -2.7233  0.3074 -2.6107
  564MOL0     H76128   5.859   7.283   3.037  1.1045 -3.1744 -1.9135
  564MOL0     H76129   6.044   7.360   2.914  0.2710 -1.1056 -0.0457
  564MOL0     H76130   6.011   7.348   2.478 -2.7049  0.2619  1.0872
  564MOL0     H76131   5.956   7.518   2.494  0.7041 -0.5320 -3.0158
  564MOL0     H76132   6.173   7.603   2.501  0.4429 -0.4922  0.9247
  564MOL0     H76133   6.146   7.527   2.352 -0.6708  0.3323  0.9091
  564MOL0     H76134   6.253   7.306   2.480 -0.1322  0.2045 -0.8718
  564MOL0     H76135   6.325   7.429   2.586  0.2917  0.1975 -0.5088
  564MOL0     H76136   6.469   7.363   2.416 -0.6472  0.4673  1.3864
  564MOL0     H76137   6.425   7.523   2.360 -0.0158 -0.0270 -0.3954
  564MOL0     H76138   6.248   7.278   2.057 -2.5656 -2.5818  1.8757
  564MOL0     H76139   5.797   7.394   2.571 -2.0602  0.1952  0.5559
  564MOL0     H76140   5.597   7.328   2.706 -0.0106  0.2795 -1.0585
  565MOL0     O76141   2.148   4.055   6.947 -0.1231  0.6216  0.2504
  565MOL0     C76142   2.129   4.030   6.823 -0.4958 -0.8308 -1.0302
  565MOL0     O76143   2.034   3.961   6.769  0.5256  0.5807 -0.0948
  565MOL0     C76144   1.938   3.895   6.844  0.3193  0.4609 -1.1890
  565MOL0     C76145   1.890   3.774   6.791  0.0443 -0.1692 -0.7405
  565MOL0     C76146   1.782   3.708   6.846  0.3927  0.1188  1.3691
  565MOL0     C76147   1.727   3.754   6.970  0.1026  0.4435  0.1005
  565MOL0     O76148   1.606   3.707   7.014  0.7371 -0.5051 -0.4579
  565MOL0     C76149   1.577   3.571   6.975  0.0166  0.0595  0.8229
  565MOL0     C76150   1.466   3.507   7.054  0.7825 -0.6075 -0.5936
  565MOL0     C76151   1.366   3.613   7.104  0.1632  0.6859  1.0402
  565MOL0     C76152   1.236   3.552   7.145 -0.7140  0.2303 -0.2480
  565MOL0     C76153   1.147   3.646   7.224  0.8090  0.1765 -0.7917
  565MOL0     C76154   1.094   3.775   7.156 -0.6290  0.7270 -0.8573
  565MOL0     C76155   1.005   3.852   7.251  0.4331 -1.0423 -0.1198
  565MOL0     C76156   0.873   3.785   7.287 -0.4645 -0.1976  0.0554
  565MOL0     N76157   0.812   3.860   7.399  0.2424 -0.3396 -0.0082
  565MOL0     C76158   0.747   3.975   7.373  0.1749  0.1576 -0.2461
  565MOL0     C76159   0.665   3.983   7.478  0.2141  0.0419 -0.6906
  565MOL0     C76160   0.555   4.087   7.505  0.8266 -0.0359  1.1158
  565MOL0     C76161   0.492   4.085   7.650 -0.2842 -1.3478 -0.4372
  565MOL0     C76162   0.395   4.207   7.672  0.8201  0.3949 -0.3167
  565MOL0     C76163   0.296   4.194   7.794 -0.0713  0.5751 -0.8404
  565MOL0     O76164   0.252   4.313   7.849  0.1571 -0.0349 -0.5911
  565MOL0     C76165   0.153   4.374   7.780  1.1360  0.0694 -0.6718
  565MOL0     C76166   0.175   4.496   7.724  0.0630  0.1901 -0.7742
  565MOL0     C76167   0.085   4.547   7.635 -0.1319 -0.0634 -0.9784
  565MOL0     C76168   0.126   4.659   7.550 -0.5134  0.9429 -0.5118
  565MOL0     C76169  -0.049   4.499   7.624 -0.5074 -0.0561 -0.5676
  565MOL0     C76170  -0.149   4.548   7.531 -0.3097  0.4506 -0.6193
  565MOL0     O76171  -0.266   4.480   7.533 -0.2717  0.5331  0.5108
  565MOL0     C76172  -0.355   4.500   7.432 -0.0925  0.1115  0.1645
  565MOL0     C76173  -0.356   4.595   7.317 -0.1648 -0.1100 -0.6789
  565MOL0     C76174  -0.441   4.577   7.211  0.1887  0.7347  0.3745
  565MOL0     C76175  -0.537   4.481   7.217  0.5394 -0.1161  0.1578
  565MOL0     O76176  -0.630   4.484   7.113 -0.2932 -0.3559  0.6853
  565MOL0     C76177  -0.720   4.379   7.087 -0.5087 -0.4633 -0.1511
  565MOL0     C76178  -0.795   4.395   6.957  0.7297  0.2645  0.2644
  565MOL0     C76179  -0.903   4.287   6.942 -0.4540 -0.8373 -0.6307
  565MOL0     C76180  -1.038   4.347   6.954  0.0409  0.0464  0.0013
  565MOL0     C76181  -1.154   4.250   6.952  0.1422 -0.1907 -0.9507
  565MOL0     C76182  -1.273   4.342   6.983  0.2583  0.5739 -0.0756
  565MOL0     C76183  -1.404   4.260   6.970  0.3062 -0.0767 -0.2973
  565MOL0     C76184  -1.527   4.345   6.992 -0.0724  0.5577  0.1560
  565MOL0    Cl76185  -1.674   4.239   6.991 -0.5143 -0.5360  0.1145
  565MOL0     C76186  -0.534   4.383   7.314 -0.5162 -0.5533  0.5157
  565MOL0     C76187  -0.436   4.389   7.411 -0.6559  0.3057 -0.4703
  565MOL0     O76188  -0.132   4.655   7.481  0.0673 -0.1377  0.0586
  565MOL0     C76189  -0.076   4.385   7.714  0.0068 -0.6780  0.1166
  565MOL0     C76190   0.021   4.323   7.785  0.9061 -0.6961  0.6848
  565MOL0     N76191   0.693   3.885   7.572 -0.1362 -0.1273  0.0678
  565MOL0     N76192   0.785   3.810   7.522 -0.5941  0.5164  0.6853
  565MOL0     C76193   1.774   3.864   7.023 -1.2166  0.2145  0.2402
  565MOL0     C76194   1.868   3.949   6.960 -0.5911  0.3647  0.1990
  565MOL0     C76195   2.226   4.084   6.729  0.4573  0.3453 -0.1298
  565MOL0     C76196   2.324   4.172   6.761 -0.0083  0.1810 -0.2252
  565MOL0     C76197   2.432   4.206   6.676 -0.3611 -0.5220 -0.8483
  565MOL0     C76198   2.438   4.159   6.545  0.4336 -0.0470  0.0540
  565MOL0     O76199   2.525   4.188   6.444 -0.7029 -0.5386 -0.1611
  565MOL0     C76200   2.621   4.291   6.469 -0.3675  0.2116  1.3879
  565MOL0     C76201   2.738   4.210   6.519  0.0259  0.0733 -0.3336
  565MOL0     C76202   2.866   4.295   6.505 -0.1396  0.0789 -0.5199
  565MOL0     C76203   2.988   4.235   6.574 -0.0811 -0.0426 -0.2436
  565MOL0     C76204   3.103   4.302   6.511  0.6573  0.4146 -1.5665
  565MOL0     C76205   3.215   4.346   6.489  0.1415 -0.2543  0.1783
  565MOL0     C76206   2.337   4.075   6.511  0.4747  0.4667 -0.8113
  565MOL0     C76207   2.230   4.035   6.596 -0.5165 -0.5969 -1.5431
  565MOL0     H76208   1.938   3.728   6.705 -0.1898 -1.3129 -0.2750
  565MOL0     H76209   1.749   3.618   6.795 -1.3877  1.4500  0.0202
  565MOL0     H76210   1.559   3.576   6.867  2.4125 -1.8819  0.2440
  565MOL0     H76211   1.672   3.519   6.995  1.5157  2.3156 -0.0110
  565MOL0     H76212   1.415   3.428   6.998 -2.8210  0.2167  1.1936
  565MOL0     H76213   1.502   3.458   7.145 -0.9478 -1.3211 -0.2442
  565MOL0     H76214   1.400   3.665   7.194  2.0061 -0.7605  1.2412
  565MOL0     H76215   1.355   3.685   7.022 -2.4592 -2.1338 -1.3755
  565MOL0     H76216   1.187   3.514   7.055 -0.1644  0.6578 -0.7324
  565MOL0     H76217   1.252   3.463   7.206 -3.1247 -1.5648 -2.0474
  565MOL0     H76218   1.066   3.581   7.257 -2.1809  3.3693 -1.3378
  565MOL0     H76219   1.188   3.680   7.319  0.7506 -1.3934 -0.1754
  565MOL0     H76220   1.172   3.845   7.125 -0.7123  0.8080 -0.8859
  565MOL0     H76221   1.032   3.748   7.069 -0.9175 -1.8763  0.0560
  565MOL0     H76222   1.055   3.888   7.342 -0.0543  2.1823 -1.0105
  565MOL0     H76223   0.980   3.949   7.206 -2.0190 -0.3008  2.4877
  565MOL0     H76224   0.870   3.677   7.306 -0.7915 -0.6181 -2.0549
  565MOL0     H76225   0.811   3.806   7.199  1.1069  0.7040 -0.8727
  565MOL0     H76226   0.762   4.036   7.285 -1.3569 -1.2196 -1.5439
  565MOL0     H76227   0.598   4.184   7.476  0.5103 -0.5644 -1.3467
  565MOL0     H76228   0.469   4.066   7.441  1.0151 -1.8267  1.4163
  565MOL0     H76229   0.574   4.088   7.723 -1.8887  2.5065  1.4832
  565MOL0     H76230   0.440   3.990   7.669  1.2499 -1.9323  1.0686
  565MOL0     H76231   0.334   4.229   7.583  2.2190  1.4505 -1.0487
  565MOL0     H76232   0.453   4.295   7.703  2.1678 -1.0413  1.4419
  565MOL0     H76233   0.350   4.150   7.879  1.3046  3.4635 -0.0500
  565MOL0     H76234   0.218   4.125   7.761  0.4900 -1.6531  2.0444
  565MOL0     H76235   0.276   4.535   7.738  1.4778 -2.9154 -1.5295
  565MOL0     H76236   0.230   4.684   7.576 -0.4389  0.0802  0.0574
  565MOL0     H76237   0.112   4.630   7.446 -0.8686  1.1632 -0.5277
  565MOL0     H76238   0.075   4.752   7.577  0.3547  0.9279  1.3550
  565MOL0     H76239  -0.282   4.671   7.296 -0.3883 -0.0084 -1.1256
  565MOL0     H76240  -0.445   4.649   7.130 -0.7283 -0.4562 -0.6814
  565MOL0     H76241  -0.662   4.286   7.096 -0.1159 -0.1062  1.4391
  565MOL0     H76242  -0.791   4.368   7.170  1.5082 -0.1567  1.7227
  565MOL0     H76243  -0.844   4.493   6.949 -0.8302 -0.5331 -0.4177
  565MOL0     H76244  -0.729   4.383   6.871 -0.9218 -1.6084 -0.8257
  565MOL0     H76245  -0.880   4.203   7.008  0.7117 -1.6709 -2.0423
  565MOL0     H76246  -0.901   4.236   6.845 -0.2611 -0.6425 -0.7302
  565MOL0     H76247  -1.033   4.391   7.054  0.2372  1.0151 -0.4296
  565MOL0     H76248  -1.045   4.431   6.885  0.7932 -0.1310 -0.3028
  565MOL0     H76249  -1.145   4.169   7.024 -0.9983  0.5137  0.0291
  565MOL0     H76250  -1.165   4.213   6.850 -1.4671 -2.7114  0.0436
  565MOL0     H76251  -1.264   4.366   7.090 -1.6874  0.6024  0.1185
  565MOL0     H76252  -1.280   4.435   6.926  1.1901  0.3183 -0.6401
  565MOL0     H76253  -1.393   4.176   7.039  1.1337 -0.0218 -0.3453
  565MOL0     H76254  -1.426   4.221   6.870 -1.2786  1.0445 -0.4299
  565MOL0     H76255  -1.539   4.427   6.920 -2.0859 -0.6234 -0.9399
  565MOL0     H76256  -1.537   4.402   7.085 -4.2434  1.2334 -0.5242
  565MOL0     H76257  -0.604   4.300   7.310  0.2393 -1.1832  0.1615
  565MOL0     H76258  -0.429   4.313   7.488  2.5714 -1.1932 -2.0504
  565MOL0     H76259  -0.179   4.351   7.720  0.8428 -3.1428  2.0254
  565MOL0     H76260  -0.015   4.227   7.822 -2.2633 -0.4150 -1.2829
  565MOL0     H76261   1.730   3.898   7.115 -3.3242  0.2214 -0.7013
  565MOL0     H76262   1.907   4.042   6.999 -0.9611  0.6554 -0.1181
  565MOL0     H76263   2.328   4.202   6.865  0.5639 -0.1007 -0.1625
  565MOL0     H76264   2.512   4.271   6.709 -1.3382  0.7596 -0.9252
  565MOL0     H76265   2.648   4.331   6.371  1.3535  2.8665  2.8317
  565MOL0     H76266   2.584   4.375   6.527 -3.0003  1.4520 -1.7475
  565MOL0     H76267   2.752   4.116   6.464  1.2026 -0.9930  1.6901
  565MOL0     H76268   2.727   4.181   6.623 -1.5731  1.3441 -0.1142
  565MOL0     H76269   2.849   4.397   6.542 -1.0185  0.3770 -1.7091
  565MOL0     H76270   2.878   4.295   6.396  3.5577 -3.9127 -0.3707
  565MOL0     H76271   2.989   4.126   6.566 -2.0031 -0.1966  0.9442
  565MOL0     H76272   2.983   4.270   6.678  0.1600  0.6610 -0.4627
  565MOL0     H76273   3.319   4.372   6.486  0.0413  0.0604 -1.6213
  565MOL0     H76274   2.333   4.026   6.415 -1.0627 -0.3369 -0.3661
  565MOL0     H76275   2.147   3.975   6.560 -2.1789  0.8278 -0.3078
  566MOL0     O76276   8.905  11.075   2.090  0.0798 -0.6348 -0.1037
  566MOL0     C76277   8.915  10.977   2.156 -0.1028  0.6571 -0.5423
  566MOL0     O76278   8.813  10.914   2.229 -0.5574 -0.3617  0.4622
  566MOL0     C76279   8.686  10.957   2.219  0.2068  0.3131 -0.8899
  566MOL0     C76280   8.590  10.864   2.179  0.1348 -0.3857  0.0430
  566MOL0     C76281   8.456  10.891   2.170  0.4147 -0.2041 -1.0123
  566MOL0     C76282   8.410  11.023   2.179  0.1378 -0.2621 -0.4593
  566MOL0     O76283   8.279  11.056   2.171 -0.0625  0.3684  0.3036
  566MOL0     C76284   8.187  11.003   2.070  0.5335  0.1029 -1.0808
  566MOL0     C76285   8.052  10.991   2.131  0.2864  0.4517  0.1929
  566MOL0     C76286   8.049  10.922   2.266 -1.1632 -0.0803  0.1920
  566MOL0     C76287   8.096  10.772   2.255  1.0177 -0.1892  0.4165
  566MOL0     C76288   8.176  10.733   2.383  0.1075  0.3473 -0.0909
  566MOL0     C76289   8.234  10.594   2.372 -0.1713 -0.6162  0.5026
  566MOL0     C76290   8.317  10.551   2.495 -0.1030  0.1708  1.0394
  566MOL0     C76291   8.421  10.441   2.459  0.1437  0.3284  0.0585
  566MOL0     N76292   8.449  10.355   2.576  0.2331 -0.0148 -0.3994
  566MOL0     C76293   8.556  10.353   2.652 -0.4833  1.0032 -0.9285
  566MOL0     C76294   8.545  10.246   2.735  0.4953 -0.2450 -0.2813
  566MOL0     C76295   8.643  10.195   2.834  0.0644 -0.5352 -0.4834
  566MOL0     C76296   8.775  10.275   2.848 -0.1598 -0.4118 -0.1818
  566MOL0     C76297   8.870  10.266   2.724  0.6128  0.6217  0.4863
  566MOL0     C76298   8.992  10.350   2.749 -0.2237  0.9900  0.5413
  566MOL0     O76299   9.027  10.413   2.624  0.4359 -0.0114  0.2437
  566MOL0     C76300   9.156  10.451   2.598  0.4817 -0.1262 -0.4150
  566MOL0     C76301   9.194  10.585   2.628 -0.6041  0.9349  0.3813
  566MOL0     C76302   9.321  10.633   2.622  0.3436 -0.3736 -0.1872
  566MOL0     C76303   9.340  10.776   2.651  0.7646  1.0087 -0.7045
  566MOL0     C76304   9.424  10.540   2.579  0.9060  0.7207 -0.8800
  566MOL0     C76305   9.562  10.584   2.571 -0.1784  0.6337 -0.2116
  566MOL0     O76306   9.615  10.687   2.651  0.5575  0.3601 -0.1477
  566MOL0     C76307   9.734  10.742   2.620  0.2377  0.2798  0.7282
  566MOL0     C76308   9.739  10.858   2.553 -0.0602 -0.9324  0.3563
  566MOL0     C76309   9.865  10.907   2.519  1.0443  0.3531 -1.2937
  566MOL0     C76310   9.986  10.845   2.547  0.3175 -0.1472 -0.0763
  566MOL0     O76311  10.105  10.912   2.519 -0.2874  0.2610  0.3833
  566MOL0     C76312  10.135  10.914   2.376 -0.1298 -0.9476  0.3849
  566MOL0     C76313  10.188  10.774   2.335 -0.7194  0.1727 -0.6673
  566MOL0     C76314  10.314  10.748   2.421  0.0644 -0.2679  0.5900
  566MOL0     C76315  10.416  10.661   2.347  0.2185  0.8998 -0.0785
  566MOL0     C76316  10.535  10.647   2.441 -1.0015  0.6474 -0.1090
  566MOL0     C76317  10.653  10.551   2.394  0.1200 -0.1559  0.0985
  566MOL0     C76318  10.768  10.533   2.492 -0.5151  0.6836 -0.0597
  566MOL0     C76319  10.842  10.402   2.457  0.4498  0.4422 -0.0374
  566MOL0    Cl76320  10.731  10.257   2.457 -0.2837 -0.0201 -0.2776
  566MOL0     C76321   9.986  10.728   2.617  0.3477  0.2897  0.3598
  566MOL0     C76322   9.862  10.670   2.651  0.3418  0.1044 -0.2616
  566MOL0     O76323   9.624  10.514   2.493 -0.3184  1.3044 -0.0218
  566MOL0     C76324   9.391  10.401   2.557  0.5301 -0.0474 -0.5817
  566MOL0     C76325   9.256  10.356   2.570 -0.2473 -0.4905 -0.0869
  566MOL0     N76326   8.428  10.183   2.712 -0.4783  0.1277  0.3260
  566MOL0     N76327   8.365  10.247   2.614 -0.1341  0.4105 -0.0189
  566MOL0     C76328   8.504  11.126   2.211  0.3563 -0.1920 -1.0463
  566MOL0     C76329   8.642  11.088   2.239 -0.0682  0.1228  0.0281
  566MOL0     C76330   9.046  10.916   2.177 -0.4900 -0.0659 -0.1279
  566MOL0     C76331   9.152  10.970   2.105 -0.8111  0.6559 -0.5164
  566MOL0     C76332   9.286  10.917   2.119 -0.5882  0.6506  0.8642
  566MOL0     C76333   9.315  10.802   2.201 -0.7135 -0.4228 -0.5238
  566MOL0     O76334   9.435  10.745   2.232  0.2956  0.5205  1.0322
  566MOL0     C76335   9.554  10.812   2.191  0.7667 -0.1090 -0.3474
  566MOL0     C76336   9.681  10.736   2.225 -0.6268 -0.2689  0.4990
  566MOL0     C76337   9.808  10.808   2.194 -0.3028  0.6144  0.2772
  566MOL0     C76338   9.874  10.790   2.053  0.6872  0.0072 -0.3572
  566MOL0     C76339   9.903  10.649   2.028  0.1524  0.6342  0.9326
  566MOL0     C76340   9.943  10.534   2.007  0.3243 -0.1728 -0.1880
  566MOL0     C76341   9.202  10.744   2.255 -0.1456 -0.5307  0.4323
  566MOL0     C76342   9.070  10.795   2.249 -0.6702  0.0228 -1.1702
  566MOL0     H76343   8.625  10.763   2.159  4.2357  0.8342  0.0748
  566MOL0     H76344   8.384  10.813   2.148 -1.5010  1.0008  0.6760
  566MOL0     H76345   8.179  11.081   1.994 -0.5117  0.0936 -0.9968
  566MOL0     H76346   8.223  10.908   2.032  0.4445  0.4967 -2.1709
  566MOL0     H76347   8.017  11.095   2.136 -2.6100 -0.3834 -0.6933
  566MOL0     H76348   7.984  10.940   2.062  0.5857  0.8586 -0.4112
  566MOL0     H76349   8.112  10.972   2.340  0.0678  2.6841 -2.5434
  566MOL0     H76350   7.948  10.926   2.309 -1.2734 -3.0873  0.4834
  566MOL0     H76351   8.007  10.710   2.250  0.2492  0.7017  2.0089
  566MOL0     H76352   8.149  10.754   2.161 -1.1771  0.0933 -0.9440
  566MOL0     H76353   8.256  10.806   2.400  1.2481 -0.8196 -0.3085
  566MOL0     H76354   8.106  10.732   2.467 -0.4972 -1.5073 -0.5745
  566MOL0     H76355   8.156  10.518   2.363  1.2885 -2.1083 -0.1315
  566MOL0     H76356   8.299  10.579   2.285  0.4729 -0.0595  0.8733
  566MOL0     H76357   8.375  10.640   2.520 -0.0875  0.4048  0.2002
  566MOL0     H76358   8.255  10.522   2.580 -0.2292  0.4305  1.0356
  566MOL0     H76359   8.511  10.491   2.423  1.2367  0.6814  3.0029
  566MOL0     H76360   8.378  10.377   2.381 -0.2485 -0.6056  1.0081
  566MOL0     H76361   8.647  10.410   2.634  0.2998  0.7634  1.7225
  566MOL0     H76362   8.597  10.187   2.933  0.8719  1.2303  0.0910
  566MOL0     H76363   8.682  10.096   2.809  0.7964 -0.3646 -0.0565
  566MOL0     H76364   8.816  10.232   2.939  0.9895 -0.5817 -0.7562
  566MOL0     H76365   8.748  10.378   2.870 -0.3323  0.0904 -2.5034
  566MOL0     H76366   8.815  10.299   2.635  1.3921  1.5487  0.3289
  566MOL0     H76367   8.902  10.164   2.701 -1.5144  0.0203 -0.0969
  566MOL0     H76368   9.076  10.290   2.785 -0.4754 -0.0150 -0.4853
  566MOL0     H76369   8.964  10.421   2.827 -1.3313  0.8114  0.3234
  566MOL0     H76370   9.118  10.653   2.668 -1.5310  0.4804 -0.5724
  566MOL0     H76371   9.245  10.822   2.681  0.3266 -1.5193  2.2308
  566MOL0     H76372   9.408  10.790   2.735  0.0658 -0.1118  0.0729
  566MOL0     H76373   9.377  10.823   2.559  0.6222 -1.5312 -2.1345
  566MOL0     H76374   9.653  10.916   2.521  1.0931  2.9251  3.4590
  566MOL0     H76375   9.883  10.998   2.462  4.3522  0.7966  0.2159
  566MOL0     H76376  10.047  10.939   2.316  1.2852  1.0955 -0.9633
  566MOL0     H76377  10.207  10.991   2.346 -1.2881  0.6111  1.4299
  566MOL0     H76378  10.118  10.691   2.348 -0.1724  0.1462  3.8584
  566MOL0     H76379  10.211  10.776   2.228  0.3596  0.0704 -0.4532
  566MOL0     H76380  10.283  10.687   2.506 -2.9161 -0.7572 -0.7002
  566MOL0     H76381  10.356  10.842   2.457  2.5642 -1.1399  0.1301
  566MOL0     H76382  10.371  10.566   2.318 -0.4223  1.1802 -0.0039
  566MOL0     H76383  10.445  10.711   2.254 -1.0572  1.9983  0.0995
  566MOL0     H76384  10.507  10.607   2.539 -1.3890 -0.0566 -0.5069
  566MOL0     H76385  10.577  10.746   2.465  1.6718 -0.1875 -0.9594
  566MOL0     H76386  10.603  10.461   2.358  2.8004 -0.6264 -2.9740
  566MOL0     H76387  10.704  10.583   2.302  0.0371  0.5048  0.2779
  566MOL0     H76388  10.729  10.514   2.593 -1.5952 -1.7632 -0.8698
  566MOL0     H76389  10.832  10.622   2.492 -2.4592  2.2083 -2.7271
  566MOL0     H76390  10.914  10.391   2.539 -0.7026  3.2643  1.5174
  566MOL0     H76391  10.898  10.411   2.364 -0.4121  2.3237 -0.4366
  566MOL0     H76392  10.080  10.677   2.636 -0.2875 -1.1375 -0.1455
  566MOL0     H76393   9.865  10.578   2.708  1.9656 -0.5977 -1.3785
  566MOL0     H76394   9.460  10.319   2.543 -1.1914 -1.7316  0.3626
  566MOL0     H76395   9.234  10.252   2.546 -1.5413  0.3141 -2.8272
  566MOL0     H76396   8.475  11.230   2.213 -1.1471 -0.5657 -1.6242
  566MOL0     H76397   8.713  11.168   2.259 -0.5811 -0.1337  3.3382
  566MOL0     H76398   9.121  11.039   2.028 -0.5718 -0.8504 -2.0084
  566MOL0     H76399   9.361  10.964   2.056  0.3377  0.8613  2.0894
  566MOL0     H76400   9.542  10.836   2.085  0.7005  0.5264 -0.2048
  566MOL0     H76401   9.559  10.909   2.243  2.5976 -0.3278 -0.0579
  566MOL0     H76402   9.673  10.644   2.165 -1.3139  0.2455 -0.2163
  566MOL0     H76403   9.687  10.718   2.333  1.9651  2.1528  0.8767
  566MOL0     H76404   9.871  10.771   2.276 -0.1371 -0.3042 -0.2615
  566MOL0     H76405   9.805  10.916   2.214 -0.4655  0.1309  3.3001
  566MOL0     H76406   9.964  10.852   2.042 -1.8802  4.1042 -0.5960
  566MOL0     H76407   9.797  10.812   1.978 -0.0068 -3.1907 -0.7051
  566MOL0     H76408   9.989  10.437   2.000  0.2358 -0.2527  0.2892
  566MOL0     H76409   9.215  10.650   2.307  3.0751 -1.0315 -0.9993
  566MOL0     H76410   8.993  10.745   2.306 -1.9151  0.8489 -2.0721
  567MOL0     O76411   6.686   3.780   1.106 -0.3757  0.6918  0.5357
  567MOL0     C76412   6.787   3.796   1.036 -0.7478 -0.2639  0.1148
  567MOL0     O76413   6.794   3.841   0.909 -0.0921  0.6170 -0.2293
  567MOL0     C76414   6.684   3.867   0.836  0.6990  0.0675  0.5393
  567MOL0     C76415   6.560   3.920   0.887  0.2325  0.4245 -0.4356
  567MOL0     C76416   6.456   3.936   0.808  1.0344 -0.0641  0.3267
  567MOL0     C76417   6.463   3.902   0.677  0.5857 -0.1643 -0.2553
  567MOL0     O76418   6.348   3.923   0.607 -0.1803  0.4259  0.3760
  567MOL0     C76419   6.355   4.009   0.486  0.0481 -0.0596  0.1902
  567MOL0     C76420   6.216   4.011   0.428  0.4675 -1.0885 -0.1936
  567MOL0     C76421   6.201   4.106   0.308  0.0439  0.1902 -0.2993
  567MOL0     C76422   6.062   4.160   0.300 -0.3386 -0.0755 -0.3588
  567MOL0     C76423   6.048   4.242   0.170 -0.2108 -1.2971  0.6355
  567MOL0     C76424   5.998   4.145   0.054 -0.3224  0.0369 -0.0460
  567MOL0     C76425   5.994   4.227  -0.076  0.3897  0.1251 -1.2582
  567MOL0     C76426   5.894   4.340  -0.096 -0.5688 -0.5574  0.2587
  567MOL0     N76427   5.754   4.299  -0.076 -0.4444 -0.1245  0.2172
  567MOL0     C76428   5.704   4.177  -0.123  0.1895 -0.6714 -0.5061
  567MOL0     C76429   5.576   4.170  -0.080 -0.9864  0.2953  0.6743
  567MOL0     C76430   5.473   4.064  -0.108 -0.2302 -0.3829  0.0522
  567MOL0     C76431   5.344   4.130  -0.160 -0.6122  0.0764 -0.3946
  567MOL0     C76432   5.359   4.220  -0.292  1.5553  0.2360 -0.1050
  567MOL0     C76433   5.234   4.194  -0.376 -0.7341  1.5640  0.0066
  567MOL0     O76434   5.228   4.294  -0.473 -0.3555 -0.6679  0.1233
  567MOL0     C76435   5.106   4.310  -0.540  0.1001 -0.1484  0.3793
  567MOL0     C76436   5.031   4.198  -0.563 -0.7498  0.3050 -0.5641
  567MOL0     C76437   4.913   4.202  -0.644 -0.2210 -0.2325  0.2393
  567MOL0     C76438   4.850   4.065  -0.683 -0.6860  0.4117  0.3324
  567MOL0     C76439   4.860   4.331  -0.691 -1.0111  0.0041  0.5882
  567MOL0     C76440   4.749   4.344  -0.791  0.2703  0.0047  0.9224
  567MOL0     O76441   4.653   4.436  -0.755  0.1619 -0.5141 -0.2995
  567MOL0     C76442   4.531   4.438  -0.818  0.2462 -1.2330  0.4826
  567MOL0     C76443   4.452   4.555  -0.815  0.2311  0.4858 -0.5308
  567MOL0     C76444   4.326   4.563  -0.870 -0.1832 -0.2224 -0.0015
  567MOL0     C76445   4.270   4.452  -0.934  0.0965 -0.2373 -0.3028
  567MOL0     O76446   4.139   4.466  -0.975 -0.2947 -0.1014  0.6858
  567MOL0     C76447   4.061   4.348  -0.968 -0.6868 -0.2077 -0.3658
  567MOL0     C76448   3.913   4.366  -0.971 -0.5192  0.0282  0.7522
  567MOL0     C76449   3.846   4.356  -0.834  0.0289  0.6083 -0.0532
  567MOL0     C76450   3.728   4.449  -0.808  0.0168  0.1383  0.8804
  567MOL0     C76451   3.644   4.400  -0.685 -0.9894 -0.2930 -0.5135
  567MOL0     C76452   3.572   4.522  -0.623 -0.5746 -0.7964 -0.8435
  567MOL0     C76453   3.470   4.483  -0.515  0.7248 -0.0606 -0.6683
  567MOL0     C76454   3.332   4.550  -0.546 -0.2898  0.5627  0.1003
  567MOL0    Cl76455   3.230   4.538  -0.394 -0.0561 -0.4419 -0.4351
  567MOL0     C76456   4.342   4.332  -0.933  0.5420 -0.2763  0.5699
  567MOL0     C76457   4.467   4.323  -0.872  0.2725  0.8565 -0.5131
  567MOL0     O76458   4.768   4.293  -0.905 -0.0436  0.2642 -0.5528
  567MOL0     C76459   4.931   4.443  -0.649  0.2100  0.2253  0.5569
  567MOL0     C76460   5.049   4.429  -0.585 -0.4106 -0.6040 -0.6996
  567MOL0     N76461   5.558   4.280   0.003 -0.5531 -0.0071  0.0880
  567MOL0     N76462   5.658   4.361   0.003  0.3157  0.2548  0.5232
  567MOL0     C76463   6.585   3.857   0.623 -0.1464  0.1427  0.2077
  567MOL0     C76464   6.693   3.833   0.702 -0.3489 -0.0105 -0.0557
  567MOL0     C76465   6.923   3.753   1.087  0.1005  0.7117  0.0880
  567MOL0     C76466   6.949   3.666   1.200  0.0360 -0.4980 -0.4524
  567MOL0     C76467   7.079   3.622   1.243 -0.1040  0.5370  0.1622
  567MOL0     C76468   7.189   3.663   1.155  0.5050 -0.1081 -0.5524
  567MOL0     O76469   7.324   3.644   1.175  0.2333 -0.1857 -0.1074
  567MOL0     C76470   7.367   3.574   1.290 -0.4921 -0.7428 -0.0683
  567MOL0     C76471   7.518   3.551   1.294 -0.7616 -0.5985 -0.2396
  567MOL0     C76472   7.592   3.682   1.289 -0.2151 -1.3831  0.5661
  567MOL0     C76473   7.748   3.659   1.286  0.1821 -0.5673 -0.5585
  567MOL0     C76474   7.816   3.788   1.311 -0.2053 -0.1396  0.3738
  567MOL0     C76475   7.884   3.884   1.337  0.1892 -0.1009  0.1183
  567MOL0     C76476   7.166   3.740   1.046 -0.3364 -0.0057  0.1613
  567MOL0     C76477   7.039   3.792   1.019 -0.2070 -1.1456 -1.1114
  567MOL0     H76478   6.553   3.932   0.995 -0.6979  1.5250 -0.6079
  567MOL0     H76479   6.357   3.965   0.841 -0.2878  0.0198 -3.3103
  567MOL0     H76480   6.387   4.106   0.524 -1.6221  1.3564 -1.7679
  567MOL0     H76481   6.421   3.966   0.410 -0.8251  0.9016 -1.1715
  567MOL0     H76482   6.188   3.908   0.402 -1.2140 -0.9176  0.8207
  567MOL0     H76483   6.144   4.038   0.505  0.9243 -1.5580  0.4170
  567MOL0     H76484   6.282   4.180   0.310 -1.8853  2.4171  0.3074
  567MOL0     H76485   6.211   4.043   0.219 -1.5811 -1.1294  0.4059
  567MOL0     H76486   5.997   4.073   0.311  1.2334 -0.9534  3.2844
  567MOL0     H76487   6.043   4.232   0.380 -0.8310  0.1332 -0.6554
  567MOL0     H76488   5.971   4.315   0.198 -0.9201 -1.2263 -1.3520
  567MOL0     H76489   6.134   4.300   0.137  0.1377  0.3378  3.9970
  567MOL0     H76490   6.073   4.066   0.050  0.3406  0.6586 -0.0810
  567MOL0     H76491   5.900   4.101   0.073  0.2073 -1.0713  0.2227
  567MOL0     H76492   6.097   4.264  -0.078  0.4887  0.1556  1.3528
  567MOL0     H76493   5.963   4.159  -0.156  0.4417 -0.7818 -0.5273
  567MOL0     H76494   5.905   4.373  -0.199  4.2171 -2.4875 -0.0582
  567MOL0     H76495   5.927   4.411  -0.019 -2.1438  2.2548 -1.4812
  567MOL0     H76496   5.760   4.115  -0.193 -0.6672 -2.7315  0.5584
  567MOL0     H76497   5.514   3.990  -0.177  0.2008  1.2052 -1.4578
  567MOL0     H76498   5.453   4.021  -0.009 -1.2286 -0.8286 -0.3230
  567MOL0     H76499   5.309   4.197  -0.081 -1.1630  0.1082 -0.6629
  567MOL0     H76500   5.262   4.058  -0.166 -1.1796  0.7153 -0.3751
  567MOL0     H76501   5.449   4.196  -0.349  0.5567  1.5792 -2.3742
  567MOL0     H76502   5.360   4.326  -0.263 -2.8073  0.4328 -0.0139
  567MOL0     H76503   5.148   4.186  -0.309 -0.4315  2.1559  0.4715
  567MOL0     H76504   5.249   4.095  -0.421 -1.0908  0.3810  2.3550
  567MOL0     H76505   5.066   4.100  -0.534  2.5966  1.2520 -0.9661
  567MOL0     H76506   4.749   4.058  -0.641 -1.9026  2.3503 -1.9776
  567MOL0     H76507   4.837   4.052  -0.791 -0.4278  0.5981  0.2789
  567MOL0     H76508   4.917   3.990  -0.641 -0.8690 -1.6857 -2.8063
  567MOL0     H76509   4.499   4.639  -0.763  3.5795 -1.6214  0.1570
  567MOL0     H76510   4.264   4.653  -0.875 -0.2021 -0.0900  1.9758
  567MOL0     H76511   4.092   4.284  -1.052 -0.9283  1.9237 -2.1723
  567MOL0     H76512   4.088   4.294  -0.877 -0.7690 -1.4988 -1.0751
  567MOL0     H76513   3.897   4.470  -1.003  3.1819  0.5084  0.0444
  567MOL0     H76514   3.884   4.286  -1.040  0.7598 -0.0681  0.3000
  567MOL0     H76515   3.926   4.371  -0.761 -0.2042 -0.9404  0.5585
  567MOL0     H76516   3.810   4.253  -0.827 -0.2875  0.7449  0.3348
  567MOL0     H76517   3.766   4.551  -0.800 -2.2085  1.2797 -1.5840
  567MOL0     H76518   3.667   4.431  -0.897  1.0320 -1.2955  0.4365
  567MOL0     H76519   3.701   4.354  -0.603 -0.3174  1.2992 -0.0409
  567MOL0     H76520   3.572   4.330  -0.727 -0.5997  0.5260 -2.6698
  567MOL0     H76521   3.650   4.583  -0.576 -0.6209  0.7180 -2.6007
  567MOL0     H76522   3.526   4.582  -0.702 -1.0111 -0.7976 -0.5966
  567MOL0     H76523   3.504   4.517  -0.417  0.8228  0.1208 -0.7669
  567MOL0     H76524   3.469   4.373  -0.510  0.9125 -0.0153  1.0763
  567MOL0     H76525   3.288   4.505  -0.635  2.2434  0.3475 -1.1241
  567MOL0     H76526   3.362   4.652  -0.571 -0.4689  0.4779 -0.4776
  567MOL0     H76527   4.301   4.239  -0.971  0.7087 -1.6184  3.4107
  567MOL0     H76528   4.517   4.227  -0.870 -0.2302  0.5915 -0.5549
  567MOL0     H76529   4.889   4.534  -0.688 -1.3237 -0.4614  0.5506
  567MOL0     H76530   5.101   4.518  -0.549  0.7420 -0.6268 -2.2292
  567MOL0     H76531   6.595   3.822   0.521 -0.5932 -2.5701  0.9875
  567MOL0     H76532   6.785   3.808   0.651 -0.8588 -1.3193 -0.3768
  567MOL0     H76533   6.856   3.634   1.247 -1.1482 -0.3870 -2.5897
  567MOL0     H76534   7.101   3.553   1.324  0.8431 -0.9093 -1.2494
  567MOL0     H76535   7.335   3.628   1.380 -1.2279  0.5780 -1.0894
  567MOL0     H76536   7.313   3.480   1.301 -2.8715  0.7204  1.9309
  567MOL0     H76537   7.560   3.500   1.206 -0.4306  2.7119 -2.1882
  567MOL0     H76538   7.547   3.493   1.381 -4.4793 -2.4809 -0.0964
  567MOL0     H76539   7.563   3.743   1.375 -0.7724 -1.4087  0.3979
  567MOL0     H76540   7.566   3.744   1.203  0.2396  2.2163  2.8243
  567MOL0     H76541   7.780   3.612   1.192  1.4443  1.8523 -1.4419
  567MOL0     H76542   7.780   3.592   1.365  1.1085  1.2512  0.6771
  567MOL0     H76543   7.944   3.969   1.362  1.6552 -1.2100  0.5300
  567MOL0     H76544   7.254   3.765   0.987  0.0241 -0.9353  0.2871
  567MOL0     H76545   7.029   3.853   0.929 -1.9250  0.6320  0.1879
  568MOL0     O76546   3.612   9.018   4.580  0.1865 -0.2965 -0.4608
  568MOL0     C76547   3.602   8.942   4.483  0.2646  0.3820  0.0804
  568MOL0     O76548   3.489   8.934   4.409  0.1755 -0.3534 -0.8224
  568MOL0     C76549   3.378   9.011   4.447 -0.3392 -0.1979 -0.0501
  568MOL0     C76550   3.364   9.139   4.394  0.1172 -0.4152 -0.9772
  568MOL0     C76551   3.255   9.224   4.418 -0.5102  0.6085 -0.4640
  568MOL0     C76552   3.150   9.176   4.499 -0.6311 -0.6656  0.0652
  568MOL0     O76553   3.046   9.259   4.523  0.5450 -0.0596  0.0178
  568MOL0     C76554   2.916   9.212   4.562  1.2959 -0.1809 -0.2290
  568MOL0     C76555   2.860   9.332   4.630  0.8635  0.7554  0.3179
  568MOL0     C76556   2.731   9.293   4.701  0.8251  0.5356 -0.6248
  568MOL0     C76557   2.613   9.295   4.605  1.0007 -0.4696  0.1233
  568MOL0     C76558   2.483   9.251   4.665 -0.4764 -0.4013 -0.7908
  568MOL0     C76559   2.453   9.105   4.658  1.3977 -0.1611 -0.3256
  568MOL0     C76560   2.343   9.070   4.763  0.2687 -0.3217  0.4802
  568MOL0     C76561   2.208   9.133   4.725 -0.1777  0.0646  0.0086
  568MOL0     N76562   2.108   9.077   4.815 -0.2225 -0.2253  0.8971
  568MOL0     C76563   2.070   8.950   4.811  0.5139 -0.0405  0.2895
  568MOL0     C76564   2.020   8.916   4.931  0.9625 -0.4759 -0.9404
  568MOL0     C76565   1.952   8.792   4.975  0.6149  0.3034 -0.4540
  568MOL0     C76566   1.865   8.811   5.101 -1.0228 -1.0338  0.1173
  568MOL0     C76567   1.775   8.692   5.111 -0.1314 -0.4242  0.4920
  568MOL0     C76568   1.665   8.696   5.221  0.5307 -0.2212 -0.6693
  568MOL0     O76569   1.589   8.812   5.182 -0.1096  0.0329  0.0467
  568MOL0     C76570   1.451   8.802   5.188 -0.1664  0.0291  0.4533
  568MOL0     C76571   1.377   8.750   5.296 -0.2269  0.2615 -0.3636
  568MOL0     C76572   1.239   8.744   5.291  0.2340 -0.3838  0.7152
  568MOL0     C76573   1.175   8.711   5.426  0.7484  0.3468  0.4925
  568MOL0     C76574   1.170   8.793   5.171  0.5555 -0.8027 -0.7722
  568MOL0     C76575   1.025   8.796   5.156  0.7962 -0.0836  0.9055
  568MOL0     O76576   0.972   8.870   5.053 -0.0008 -0.0478  0.0242
  568MOL0     C76577   0.829   8.874   5.043 -0.8556 -0.3321  0.7511
  568MOL0     C76578   0.725   8.798   5.105 -0.3349 -0.5972  0.3750
  568MOL0     C76579   0.589   8.840   5.095 -0.3998  0.0600  0.0167
  568MOL0     C76580   0.561   8.957   5.017 -0.2749 -0.3612 -0.6372
  568MOL0     O76581   0.437   9.010   4.997  0.8690 -0.7159 -0.0157
  568MOL0     C76582   0.323   8.956   5.064  0.3397 -0.1148  0.0404
  568MOL0     C76583   0.200   9.016   4.991 -0.1064 -0.1680 -0.3353
  568MOL0     C76584   0.073   8.942   5.019  0.4633 -0.0673  0.1555
  568MOL0     C76585  -0.057   9.025   5.016  0.3626  0.4553  0.0258
  568MOL0     C76586  -0.186   8.928   5.024 -0.1800 -0.7800  0.0532
  568MOL0     C76587  -0.250   8.921   4.878  0.5973  0.0587  0.1557
  568MOL0     C76588  -0.393   8.871   4.849  0.6247  0.3971  0.5898
  568MOL0     C76589  -0.503   8.950   4.925  0.2359  0.2398 -0.1596
  568MOL0    Cl76590  -0.664   8.861   4.912  0.0158  0.1193  0.2330
  568MOL0     C76591   0.657   9.025   4.945 -0.0279 -0.4118 -0.2100
  568MOL0     C76592   0.787   8.980   4.955  0.1813  0.0668  0.1680
  568MOL0     O76593   0.964   8.731   5.239 -0.1315 -0.0430  0.3731
  568MOL0     C76594   1.237   8.846   5.068  1.4593  0.0141  0.8669
  568MOL0     C76595   1.379   8.862   5.079  0.0728  0.4930  0.5750
  568MOL0     N76596   2.036   9.031   5.010  0.2159 -0.0985 -0.2810
  568MOL0     N76597   2.094   9.121   4.941 -0.0793  0.1626  0.2378
  568MOL0     C76598   3.161   9.041   4.553 -0.0669 -0.2810  1.2898
  568MOL0     C76599   3.274   8.964   4.526 -0.1403  0.2119  1.1259
  568MOL0     C76600   3.719   8.864   4.429  0.5910 -0.2471 -0.3695
  568MOL0     C76601   3.847   8.880   4.484 -0.3232  0.3666 -0.8951
  568MOL0     C76602   3.963   8.832   4.415  0.5534 -0.0411 -0.3752
  568MOL0     C76603   3.948   8.765   4.289 -0.7753  0.7480  0.4983
  568MOL0     O76604   4.043   8.715   4.202 -0.0812  0.2576  0.1557
  568MOL0     C76605   4.180   8.720   4.232 -0.1954  1.0360  0.5299
  568MOL0     C76606   4.261   8.663   4.108  0.7020  0.4003 -0.5059
  568MOL0     C76607   4.412   8.672   4.135  0.0129 -0.0184 -0.2079
  568MOL0     C76608   4.469   8.562   4.214  0.0780  0.1004  0.2159
  568MOL0     C76609   4.614   8.558   4.187  0.2311 -0.2753  0.5807
  568MOL0     C76610   4.728   8.557   4.165  0.2568 -0.6381 -0.0079
  568MOL0     C76611   3.814   8.748   4.242  0.9819  0.6183 -0.0610
  568MOL0     C76612   3.707   8.790   4.311  0.4082 -0.1025 -0.3497
  568MOL0     H76613   3.436   9.167   4.318 -1.9355  6.2426 -1.0907
  568MOL0     H76614   3.241   9.320   4.370 -0.2452  0.2973 -1.1684
  568MOL0     H76615   2.855   9.170   4.481 -0.5320  0.9183  0.5320
  568MOL0     H76616   2.910   9.127   4.630 -0.7818 -0.8429 -1.1414
  568MOL0     H76617   2.925   9.362   4.712  1.2252  2.3505 -0.5150
  568MOL0     H76618   2.838   9.415   4.563 -1.1410 -0.8700 -1.1805
  568MOL0     H76619   2.739   9.196   4.751 -1.9170  0.5211 -0.0569
  568MOL0     H76620   2.711   9.363   4.782 -0.5928  1.1441 -1.4579
  568MOL0     H76621   2.601   9.396   4.565 -1.9927 -1.1086 -0.8645
  568MOL0     H76622   2.639   9.227   4.523 -0.0151 -2.8408  1.6610
  568MOL0     H76623   2.482   9.277   4.772  1.2036 -2.1867 -0.2642
  568MOL0     H76624   2.393   9.298   4.625 -1.4739  0.4554  2.2014
  568MOL0     H76625   2.407   9.080   4.563 -1.9587  2.3609  0.4069
  568MOL0     H76626   2.551   9.058   4.662  2.1299  1.3053 -0.3813
  568MOL0     H76627   2.332   8.961   4.772 -0.5210 -0.1256  2.3863
  568MOL0     H76628   2.378   9.095   4.863 -0.4361 -2.0300  1.2016
  568MOL0     H76629   2.184   9.126   4.619  0.0611 -1.0514  0.0172
  568MOL0     H76630   2.223   9.239   4.749  1.9468 -0.1720 -0.0816
  568MOL0     H76631   2.065   8.890   4.721 -0.3139 -2.4844  1.8618
  568MOL0     H76632   1.894   8.748   4.893  1.7394  0.3280 -1.2843
  568MOL0     H76633   2.035   8.728   5.005  0.4531  0.3047 -0.0072
  568MOL0     H76634   1.802   8.900   5.106  0.6173  0.3513 -2.2413
  568MOL0     H76635   1.945   8.821   5.176  0.9894 -0.5708 -1.9819
  568MOL0     H76636   1.843   8.607   5.119 -0.5317 -0.5336  5.1029
  568MOL0     H76637   1.718   8.679   5.019  0.7220 -0.6546 -0.0184
  568MOL0     H76638   1.706   8.701   5.322 -0.5417 -1.4826 -0.1529
  568MOL0     H76639   1.596   8.612   5.221 -2.6559  2.2089 -0.1132
  568MOL0     H76640   1.437   8.708   5.376  1.3899  1.0205 -1.1450
  568MOL0     H76641   1.250   8.698   5.505 -0.8682  0.3108  2.0888
  568MOL0     H76642   1.116   8.796   5.463  1.9356  1.2279  0.4115
  568MOL0     H76643   1.106   8.626   5.425 -0.4188  1.2690  0.2102
  568MOL0     H76644   0.749   8.703   5.153 -0.0735 -1.1664 -0.8502
  568MOL0     H76645   0.514   8.784   5.151 -0.6390 -0.8705 -1.2054
  568MOL0     H76646   0.325   8.848   5.046  0.1020 -0.3969  1.6104
  568MOL0     H76647   0.314   8.971   5.172  1.4109 -2.3752  0.5118
  568MOL0     H76648   0.199   9.122   5.016  0.6727 -0.0889 -0.6099
  568MOL0     H76649   0.218   9.005   4.883 -2.9014  2.1563 -1.1837
  568MOL0     H76650   0.084   8.887   5.114  2.6354 -0.8305 -0.4713
  568MOL0     H76651   0.060   8.872   4.936 -2.4780  2.4339 -1.7194
  568MOL0     H76652  -0.044   9.086   5.106 -1.3719 -0.6685  1.0837
  568MOL0     H76653  -0.048   9.089   4.928 -0.8087  0.1009 -0.3623
  568MOL0     H76654  -0.250   8.980   5.096  0.7799  2.0465 -0.9676
  568MOL0     H76655  -0.170   8.834   5.077  0.4567  0.0109  1.3414
  568MOL0     H76656  -0.241   9.013   4.819 -0.6475 -0.0540 -0.2384
  568MOL0     H76657  -0.183   8.849   4.831 -0.3367 -0.6543 -0.1185
  568MOL0     H76658  -0.408   8.765   4.872  0.2169  0.2816 -0.1674
  568MOL0     H76659  -0.407   8.883   4.741 -1.4170  2.3926  0.9930
  568MOL0     H76660  -0.521   9.046   4.876 -1.5561 -1.5041 -3.2248
  568MOL0     H76661  -0.458   8.959   5.025  1.8100  0.5304 -0.8691
  568MOL0     H76662   0.626   9.111   4.886 -0.1849  1.9375  3.0475
  568MOL0     H76663   0.863   9.039   4.904 -0.6691 -1.1658 -2.7123
  568MOL0     H76664   1.193   8.874   4.973  2.9788  0.6562  0.3192
  568MOL0     H76665   1.432   8.910   4.997  1.4263  0.4345  1.3652
  568MOL0     H76666   3.077   9.014   4.617 -1.5623  1.2806  0.0804
  568MOL0     H76667   3.288   8.869   4.577  3.9390  0.5603  1.0208
  568MOL0     H76668   3.867   8.947   4.567  1.5313  0.0429 -1.0447
  568MOL0     H76669   4.063   8.852   4.452  1.3809 -1.3101 -1.8482
  568MOL0     H76670   4.220   8.818   4.260 -0.6794  0.2205  4.9166
  568MOL0     H76671   4.198   8.649   4.314  1.3131 -0.3205 -0.8999
  568MOL0     H76672   4.241   8.719   4.016  2.6961 -0.1011 -1.3042
  568MOL0     H76673   4.243   8.558   4.083  1.8705 -0.1939  1.0135
  568MOL0     H76674   4.443   8.766   4.182  0.3818 -0.5423  0.6088
  568MOL0     H76675   4.471   8.675   4.043  4.3056 -0.4604  2.2412
  568MOL0     H76676   4.424   8.471   4.173  0.2206  0.2619 -0.2950
  568MOL0     H76677   4.448   8.577   4.321  1.3837  0.2654  0.4683
  568MOL0     H76678   4.835   8.551   4.164  0.2271 -1.1510 -0.4265
  568MOL0     H76679   3.799   8.675   4.162 -2.1463 -0.1809  1.1024
  568MOL0     H76680   3.606   8.768   4.279  1.2412 -2.6744 -1.4521
  569MOL0     O76681   5.631   1.343   3.974 -0.8143 -0.1121  0.3820
  569MOL0     C76682   5.588   1.452   3.931  0.5368  0.3153 -0.3579
  569MOL0     O76683   5.454   1.472   3.893  0.0367  0.6889  0.6056
  569MOL0     C76684   5.357   1.377   3.905 -0.1437 -0.1501 -0.9249
  569MOL0     C76685   5.352   1.260   3.981  0.0089 -0.6073 -0.5733
  569MOL0     C76686   5.241   1.178   3.987 -0.0486  0.2756  0.1990
  569MOL0     C76687   5.136   1.201   3.901  1.3871  0.6818  0.3205
  569MOL0     O76688   5.024   1.123   3.883 -0.3934  0.8543  0.0193
  569MOL0     C76689   5.006   1.009   3.972 -1.1501  0.7298 -0.0223
  569MOL0     C76690   4.885   0.924   3.939  0.1020  0.4965  0.2628
  569MOL0     C76691   4.753   1.003   3.920 -0.1147 -0.3110  0.1416
  569MOL0     C76692   4.651   0.905   3.868  0.4644 -0.6112 -0.3155
  569MOL0     C76693   4.515   0.968   3.850  0.6166 -0.3002 -0.6761
  569MOL0     C76694   4.415   0.860   3.815  0.9662 -0.5599 -0.5185
  569MOL0     C76695   4.273   0.916   3.799  0.1374 -1.0477  0.1348
  569MOL0     C76696   4.191   0.804   3.730  0.2150 -0.2524 -0.4456
  569MOL0     N76697   4.051   0.843   3.712 -0.0063 -0.7903  0.8466
  569MOL0     C76698   3.963   0.820   3.816 -0.1388 -0.3974 -0.6440
  569MOL0     C76699   3.847   0.861   3.757 -0.0525  0.9602  0.4329
  569MOL0     C76700   3.721   0.862   3.841  0.5029 -0.0785 -0.5829
  569MOL0     C76701   3.605   0.839   3.736 -0.0944 -0.3154  0.1232
  569MOL0     C76702   3.484   0.862   3.803 -0.2219 -0.4397 -0.4362
  569MOL0     C76703   3.357   0.836   3.728 -0.3940  0.4461  0.3763
  569MOL0     O76704   3.337   0.943   3.633  0.2018  0.5796  0.6853
  569MOL0     C76705   3.227   0.931   3.554  0.0738 -0.4904 -0.5031
  569MOL0     C76706   3.202   1.041   3.476  0.5901 -0.1069 -0.9793
  569MOL0     C76707   3.082   1.047   3.386 -0.1736  0.5878 -1.3333
  569MOL0     C76708   3.059   1.168   3.299 -0.3999 -0.1394  0.2723
  569MOL0     C76709   3.006   0.927   3.375 -0.1603 -0.6747  0.1982
  569MOL0     C76710   2.884   0.915   3.290  0.3533  0.6218  0.5958
  569MOL0     O76711   2.838   0.786   3.276 -0.5606  0.0687  0.3973
  569MOL0     C76712   2.720   0.767   3.207 -0.6720 -0.4106  0.2168
  569MOL0     C76713   2.715   0.699   3.092 -0.4781 -0.2841  0.6573
  569MOL0     C76714   2.593   0.689   3.020 -0.0497  0.1440  0.1577
  569MOL0     C76715   2.476   0.739   3.070  0.0484  0.3997  0.4730
  569MOL0     O76716   2.359   0.717   2.991  0.5109  0.6852  0.3979
  569MOL0     C76717   2.361   0.793   2.866  0.1068  0.2717  0.4206
  569MOL0     C76718   2.298   0.696   2.758 -0.1730 -0.4285  0.0732
  569MOL0     C76719   2.299   0.744   2.618  0.1592  0.1298 -0.4983
  569MOL0     C76720   2.194   0.852   2.584  0.3565  0.9851 -0.1952
  569MOL0     C76721   2.055   0.789   2.587 -0.6250 -0.0860  0.7704
  569MOL0     C76722   1.954   0.906   2.559 -0.2041  0.7025  0.6019
  569MOL0     C76723   1.945   1.010   2.674  0.2057 -0.3263 -0.5404
  569MOL0     C76724   1.804   1.064   2.665  0.0186 -0.8623  0.0117
  569MOL0    Cl76725   1.758   1.168   2.814 -0.5101 -0.1668  0.0537
  569MOL0     C76726   2.478   0.802   3.190 -0.4229 -0.9667 -0.3137
  569MOL0     C76727   2.595   0.822   3.263 -0.5273 -0.4417  1.0700
  569MOL0     O76728   2.827   1.014   3.232 -0.4195 -0.6619 -0.8846
  569MOL0     C76729   3.038   0.824   3.475  0.1744 -0.9335  0.2841
  569MOL0     C76730   3.140   0.821   3.559 -0.6749  0.6337 -0.0372
  569MOL0     N76731   3.874   0.924   3.629  0.3066 -0.0469 -1.3115
  569MOL0     N76732   3.997   0.915   3.611  0.4002  1.1179  0.5042
  569MOL0     C76733   5.127   1.323   3.832 -0.3435  0.2631  0.4631
  569MOL0     C76734   5.242   1.404   3.829  0.6109 -0.2816 -0.6832
  569MOL0     C76735   5.685   1.565   3.907  0.1649 -0.3021  0.0727
  569MOL0     C76736   5.819   1.548   3.923 -0.4361 -0.5424  0.6710
  569MOL0     C76737   5.906   1.657   3.927  0.5212 -0.0169  0.2590
  569MOL0     C76738   5.860   1.793   3.904  1.1916  0.5367 -0.3953
  569MOL0     O76739   5.955   1.885   3.908  0.2841  0.8141 -0.2780
  569MOL0     C76740   5.922   2.020   3.881 -0.1945 -1.0621  0.0125
  569MOL0     C76741   5.899   2.046   3.726 -0.7788  0.2504 -0.3107
  569MOL0     C76742   5.895   2.197   3.693  0.0380 -1.0259  0.3755
  569MOL0     C76743   5.941   2.247   3.546  0.7445 -0.1519 -0.6436
  569MOL0     C76744   6.068   2.208   3.497 -0.8149 -0.0008  0.5552
  569MOL0     C76745   6.172   2.172   3.440 -0.2836  0.4330  0.4924
  569MOL0     C76746   5.725   1.810   3.882  1.2664  0.2304 -0.8706
  569MOL0     C76747   5.632   1.698   3.886 -0.6075 -0.0419 -0.3157
  569MOL0     H76748   5.428   1.240   4.056 -1.5453 -0.4141  1.1331
  569MOL0     H76749   5.247   1.082   4.038  0.9769 -0.3140 -0.9961
  569MOL0     H76750   5.098   0.950   3.974 -0.4568  1.7029 -1.8619
  569MOL0     H76751   4.992   1.045   4.075 -1.9727 -2.3389  1.0519
  569MOL0     H76752   4.904   0.869   3.847  2.4317  0.3460  0.7807
  569MOL0     H76753   4.866   0.848   4.015 -1.0935 -0.5200 -1.0150
  569MOL0     H76754   4.734   1.039   4.022  2.8268 -1.0602  1.0515
  569MOL0     H76755   4.764   1.085   3.848  0.1792  0.3361  0.9009
  569MOL0     H76756   4.683   0.868   3.771 -0.4698 -1.7668 -0.2110
  569MOL0     H76757   4.640   0.824   3.941 -1.5505  0.6184  0.8352
  569MOL0     H76758   4.477   1.034   3.928  1.4912 -0.0838 -0.4221
  569MOL0     H76759   4.542   1.033   3.767  3.7517 -0.2191  0.2607
  569MOL0     H76760   4.450   0.817   3.721 -1.6279 -1.3293 -1.2183
  569MOL0     H76761   4.412   0.779   3.888 -0.0691  1.7562  2.1865
  569MOL0     H76762   4.224   0.945   3.892  1.3559 -0.4885  0.6244
  569MOL0     H76763   4.271   1.011   3.746  0.6318 -0.0218  1.8946
  569MOL0     H76764   4.195   0.704   3.774  0.5115  1.0407  2.7224
  569MOL0     H76765   4.226   0.806   3.626 -0.3408  0.2349 -0.6274
  569MOL0     H76766   3.986   0.765   3.907  0.4065 -2.4226 -1.9232
  569MOL0     H76767   3.722   0.768   3.897 -3.5427 -2.3531 -3.7085
  569MOL0     H76768   3.705   0.951   3.903 -1.5541  0.0061 -1.1540
  569MOL0     H76769   3.604   0.737   3.697 -0.1168 -0.6562  1.0030
  569MOL0     H76770   3.615   0.915   3.658 -0.1063  0.0942  0.5210
  569MOL0     H76771   3.471   0.968   3.828 -1.2943 -0.9882  1.5184
  569MOL0     H76772   3.486   0.803   3.895  1.6339 -0.0248 -0.1781
  569MOL0     H76773   3.279   0.836   3.804  0.1981  2.5721  1.0584
  569MOL0     H76774   3.353   0.739   3.677 -0.8486 -0.3335  1.8509
  569MOL0     H76775   3.267   1.129   3.480  0.9302 -0.3506 -1.0905
  569MOL0     H76776   3.124   1.249   3.332 -1.3404  1.5968 -1.8758
  569MOL0     H76777   3.081   1.138   3.197 -1.5697  2.5685 -0.8643
  569MOL0     H76778   2.957   1.207   3.302 -0.9384 -1.2988 -1.5911
  569MOL0     H76779   2.802   0.659   3.041 -0.1084  0.5741  0.5986
  569MOL0     H76780   2.594   0.649   2.920 -0.0920  1.1855 -0.2703
  569MOL0     H76781   2.299   0.883   2.875 -2.2704 -1.2165 -0.2024
  569MOL0     H76782   2.467   0.809   2.845  0.3197 -0.3132  1.0096
  569MOL0     H76783   2.356   0.603   2.764  0.5969  0.1001  4.1288
  569MOL0     H76784   2.198   0.667   2.792  0.1089 -3.6077 -1.3797
  569MOL0     H76785   2.266   0.661   2.555  2.5385 -1.7763  0.6147
  569MOL0     H76786   2.397   0.766   2.575  0.8312 -4.2924 -1.7230
  569MOL0     H76787   2.202   0.936   2.654 -1.8465 -0.1512  1.5093
  569MOL0     H76788   2.202   0.889   2.481  1.0173  1.1022 -0.1067
  569MOL0     H76789   2.026   0.736   2.677 -2.6943  1.1972  0.9428
  569MOL0     H76790   2.048   0.715   2.506 -0.2996  1.5130 -0.7963
  569MOL0     H76791   1.987   0.962   2.471  0.6251  0.3620  0.6862
  569MOL0     H76792   1.855   0.864   2.541 -1.2225  3.1412  0.1715
  569MOL0     H76793   2.014   1.095   2.664 -1.7799  1.7958  2.3658
  569MOL0     H76794   1.964   0.975   2.776 -1.0336  0.6787  0.0637
  569MOL0     H76795   1.728   0.985   2.658 -1.3309  0.4616 -0.9800
  569MOL0     H76796   1.809   1.123   2.573  0.3496 -1.4311 -0.3427
  569MOL0     H76797   2.387   0.853   3.222  1.2052  0.4124  2.5127
  569MOL0     H76798   2.598   0.881   3.354 -1.9128 -2.7567  2.7469
  569MOL0     H76799   2.977   0.735   3.465 -1.1322  0.0068 -0.4178
  569MOL0     H76800   3.153   0.724   3.606 -1.1177 -0.2816 -1.7241
  569MOL0     H76801   5.041   1.351   3.773 -1.7725  0.2938  2.4812
  569MOL0     H76802   5.245   1.492   3.764  1.1820  0.9154  0.9071
  569MOL0     H76803   5.856   1.449   3.948 -1.7768 -0.7453  1.9380
  569MOL0     H76804   6.009   1.638   3.955 -0.0737 -2.2369  1.1788
  569MOL0     H76805   5.841   2.056   3.945 -1.8661 -3.8870 -0.3406
  569MOL0     H76806   6.011   2.078   3.907 -3.2207  2.6500  3.3612
  569MOL0     H76807   5.808   2.002   3.684 -2.4781  1.4302  1.9220
  569MOL0     H76808   5.979   2.002   3.666  1.2045  0.9948  1.6924
  569MOL0     H76809   5.964   2.256   3.754  0.1359  0.9395 -1.5192
  569MOL0     H76810   5.790   2.227   3.705 -0.4963 -1.2043 -2.9745
  569MOL0     H76811   5.928   2.356   3.547 -3.3499 -0.4695  1.4295
  569MOL0     H76812   5.870   2.208   3.472 -1.1920  0.0178  1.0344
  569MOL0     H76813   6.275   2.173   3.412 -0.4698  0.3915 -0.2064
  569MOL0     H76814   5.688   1.910   3.859  1.8127  0.6125 -0.1397
  569MOL0     H76815   5.526   1.711   3.868 -0.4972 -1.0277 -1.8286
  570MOL0     O76816   2.671  10.154   6.022 -0.0593 -0.1607 -0.4557
  570MOL0     C76817   2.649  10.214   5.917  0.2699 -0.1734  0.0467
  570MOL0     O76818   2.529  10.220   5.849 -0.2606  0.1747 -0.4298
  570MOL0     C76819   2.400  10.189   5.895 -0.2700 -0.0667  0.0901
  570MOL0     C76820   2.297  10.211   5.802  0.1848 -0.0797  0.2521
  570MOL0     C76821   2.167  10.173   5.833 -0.3341 -0.2821 -0.1585
  570MOL0     C76822   2.141  10.128   5.960 -0.7940 -0.0461 -0.9255
  570MOL0     O76823   2.011  10.116   5.998 -0.2161 -0.2513 -0.4903
  570MOL0     C76824   1.901  10.114   5.901  0.5824  0.1600  0.0288
  570MOL0     C76825   1.778  10.044   5.971 -0.9767 -1.0854 -0.6366
  570MOL0     C76826   1.659  10.057   5.884 -0.8970 -0.9396  0.1660
  570MOL0     C76827   1.593  10.203   5.882 -0.0779 -0.0743  0.0002
  570MOL0     C76828   1.488  10.225   5.768  0.3016 -0.6402  0.1513
  570MOL0     C76829   1.472  10.380   5.738  0.1381 -0.4802  0.2328
  570MOL0     C76830   1.408  10.465   5.851  0.6460  0.3065  0.1088
  570MOL0     C76831   1.382  10.610   5.808 -0.3449  0.3606  0.9137
  570MOL0     N76832   1.279  10.625   5.698  0.0164  0.9822 -0.6586
  570MOL0     C76833   1.149  10.566   5.699  0.0688 -0.3284  0.5273
  570MOL0     C76834   1.101  10.597   5.568 -0.5156 -1.0339 -0.1609
  570MOL0     C76835   0.960  10.568   5.503  0.1594 -0.5984 -0.6379
  570MOL0     C76836   0.853  10.602   5.610 -0.7883  0.3956  0.7526
  570MOL0     C76837   0.721  10.571   5.557  0.1189 -0.2500  0.8071
  570MOL0     C76838   0.624  10.642   5.647 -0.3618 -0.1927 -0.4901
  570MOL0     O76839   0.500  10.573   5.634  0.1370 -0.3901  0.5028
  570MOL0     C76840   0.378  10.628   5.671  0.9110 -0.2406  0.4990
  570MOL0     C76841   0.356  10.766   5.684  0.2473  0.1890 -0.1872
  570MOL0     C76842   0.230  10.815   5.724 -0.1564  0.8998  0.8514
  570MOL0     C76843   0.217  10.958   5.739 -1.2384  0.3878  0.0063
  570MOL0     C76844   0.125  10.724   5.719 -0.1845 -0.2044  0.1032
  570MOL0     C76845  -0.011  10.764   5.754  1.0462  0.4804  0.0931
  570MOL0     O76846  -0.113  10.714   5.684 -0.6131  0.0884 -0.0492
  570MOL0     C76847  -0.241  10.762   5.704  0.7745 -0.1827 -0.3806
  570MOL0     C76848  -0.342  10.671   5.742  0.7238 -0.3883  0.0829
  570MOL0     C76849  -0.465  10.715   5.758  0.0203 -0.2009  0.7388
  570MOL0     C76850  -0.499  10.849   5.740  1.0691 -0.8961 -0.1659
  570MOL0     O76851  -0.624  10.902   5.773  0.2708 -0.0232  0.2665
  570MOL0     C76852  -0.719  10.838   5.852 -0.4608 -0.0982  0.2133
  570MOL0     C76853  -0.818  10.935   5.916 -0.3688 -0.0442 -0.2730
  570MOL0     C76854  -0.900  10.869   6.029  0.0803 -0.8059 -0.5627
  570MOL0     C76855  -1.010  10.756   5.993 -0.0043 -0.7396  0.5239
  570MOL0     C76856  -1.128  10.756   6.087 -0.2435 -0.0889 -0.9441
  570MOL0     C76857  -1.227  10.651   6.051 -0.1947  0.5642  0.4395
  570MOL0     C76858  -1.308  10.609   6.167  0.6395  0.2919 -0.6839
  570MOL0     C76859  -1.245  10.537   6.285 -0.1960 -0.1569 -0.6417
  570MOL0    Cl76860  -1.129  10.425   6.211  0.2388 -0.2133  0.0101
  570MOL0     C76861  -0.406  10.947   5.707  0.3495  1.2382  0.5999
  570MOL0     C76862  -0.275  10.898   5.686  0.8423  0.0946 -0.6600
  570MOL0     O76863  -0.026  10.835   5.856  0.6959  0.4945 -0.6180
  570MOL0     C76864   0.140  10.590   5.685 -0.2688  0.0398  0.0788
  570MOL0     C76865   0.275  10.541   5.675  0.5740 -0.1161  0.7984
  570MOL0     N76866   1.206  10.662   5.497  0.7283  1.0813 -1.1044
  570MOL0     N76867   1.306  10.661   5.572 -0.4482 -0.1702 -0.4583
  570MOL0     C76868   2.244  10.112   6.062 -0.3709 -0.4387 -0.3191
  570MOL0     C76869   2.377  10.150   6.028  1.1203 -1.4210 -0.0013
  570MOL0     C76870   2.765  10.273   5.849 -0.7554  0.5944 -0.4560
  570MOL0     C76871   2.881  10.290   5.922 -0.4552 -0.3295  0.2916
  570MOL0     C76872   2.983  10.378   5.869  0.3090 -0.3692 -0.2476
  570MOL0     C76873   2.961  10.457   5.753 -0.5712  0.8614 -0.1184
  570MOL0     O76874   3.058  10.544   5.701 -0.4924 -0.0638  1.1280
  570MOL0     C76875   3.195  10.510   5.739 -0.1512  0.6118  0.3944
  570MOL0     C76876   3.297  10.569   5.648  0.4618  0.0517  0.0859
  570MOL0     C76877   3.436  10.593   5.708 -0.6735  0.5704 -1.1421
  570MOL0     C76878   3.489  10.467   5.766 -0.9491 -0.2446 -0.3239
  570MOL0     C76879   3.477  10.469   5.909 -0.9379  0.2861  0.4629
  570MOL0     C76880   3.496  10.482   6.031  0.7286  0.2567  0.5264
  570MOL0     C76881   2.842  10.439   5.682 -0.7181 -0.1504 -0.6396
  570MOL0     C76882   2.748  10.344   5.731  0.8770  0.1904 -0.5273
  570MOL0     H76883   2.315  10.264   5.710  0.7614 -0.5501  0.0874
  570MOL0     H76884   2.095  10.192   5.755 -1.9693 -0.9630  1.1196
  570MOL0     H76885   1.884  10.216   5.864  0.5552  0.5659  1.1176
  570MOL0     H76886   1.919  10.058   5.809  0.2263 -0.5182  0.3642
  570MOL0     H76887   1.818   9.943   5.986  0.1221 -0.2793  2.7655
  570MOL0     H76888   1.767  10.089   6.070  3.7378  1.1734 -0.8614
  570MOL0     H76889   1.686  10.029   5.782 -0.9913  1.9396 -0.7664
  570MOL0     H76890   1.590   9.985   5.929 -1.1865 -0.6463  0.2026
  570MOL0     H76891   1.544  10.216   5.978 -1.0867 -0.4340 -0.4551
  570MOL0     H76892   1.664  10.286   5.878 -0.6293  0.4525  0.8774
  570MOL0     H76893   1.518  10.179   5.674  1.5664 -0.5884  0.5184
  570MOL0     H76894   1.395  10.184   5.810  2.6319 -3.1372  3.3384
  570MOL0     H76895   1.571  10.421   5.714 -1.0871  2.6348  0.0039
  570MOL0     H76896   1.408  10.392   5.650 -0.1992  0.0307  0.5376
  570MOL0     H76897   1.319  10.410   5.884  1.0361  0.0662  0.7768
  570MOL0     H76898   1.479  10.461   5.934 -0.2600 -0.7983  0.8693
  570MOL0     H76899   1.478  10.653   5.779  0.0455 -1.5632 -0.8973
  570MOL0     H76900   1.352  10.662   5.900 -1.7753  0.3444  0.4897
  570MOL0     H76901   1.089  10.543   5.787 -1.5552  0.6463 -0.2833
  570MOL0     H76902   0.935  10.622   5.411  0.1853 -1.3451 -1.0854
  570MOL0     H76903   0.952  10.460   5.489  1.6099 -0.9312  0.7968
  570MOL0     H76904   0.862  10.705   5.647 -1.4355  1.3221 -1.5085
  570MOL0     H76905   0.858  10.530   5.692 -0.8350 -0.5948 -0.0885
  570MOL0     H76906   0.704  10.463   5.555 -1.4572 -0.0293 -0.8281
  570MOL0     H76907   0.717  10.606   5.453  1.0169 -1.4362  0.3486
  570MOL0     H76908   0.634  10.748   5.624  1.7755 -0.4321 -0.9125
  570MOL0     H76909   0.657  10.639   5.752  0.6679  4.0638 -0.5037
  570MOL0     H76910   0.443  10.829   5.668  0.0815  1.1003  2.1938
  570MOL0     H76911   0.310  11.007   5.708 -0.4710 -1.1036 -0.1773
  570MOL0     H76912   0.134  10.979   5.672 -0.0795 -0.4030 -1.7691
  570MOL0     H76913   0.198  10.982   5.844 -0.6641 -0.6000  0.3586
  570MOL0     H76914  -0.329  10.564   5.755 -0.1629 -0.3286  1.7343
  570MOL0     H76915  -0.526  10.630   5.789  0.1836 -0.5862  0.0240
  570MOL0     H76916  -0.775  10.773   5.785 -0.1562  1.6359 -1.7872
  570MOL0     H76917  -0.666  10.792   5.937 -1.0384  0.8115  1.0939
  570MOL0     H76918  -0.769  11.026   5.951 -0.5016  0.3783 -1.1415
  570MOL0     H76919  -0.886  10.973   5.839  2.2394  2.5253 -1.4892
  570MOL0     H76920  -0.963  10.943   6.080  2.3161 -1.3812  3.4228
  570MOL0     H76921  -0.836  10.832   6.109  1.1892  2.7887  0.3892
  570MOL0     H76922  -1.056  10.779   5.897 -2.4582 -1.2340  1.5216
  570MOL0     H76923  -0.944  10.669   5.999  1.7717  0.4375 -0.6035
  570MOL0     H76924  -1.172  10.854   6.107  1.0762  0.1461  1.2704
  570MOL0     H76925  -1.085  10.728   6.184 -2.5623 -1.4322 -0.2410
  570MOL0     H76926  -1.283  10.694   5.967 -0.0405  1.2670  0.6894
  570MOL0     H76927  -1.190  10.564   5.995 -1.3715  0.4579 -0.2004
  570MOL0     H76928  -1.386  10.537   6.142  1.7001 -1.9587  1.8629
  570MOL0     H76929  -1.360  10.699   6.200  0.5919  1.3905 -3.4801
  570MOL0     H76930  -1.319  10.482   6.344 -1.0791 -1.3816 -2.7872
  570MOL0     H76931  -1.190  10.611   6.344  0.9536 -3.3327  2.5990
  570MOL0     H76932  -0.432  11.051   5.694 -2.5023  0.5818  0.1310
  570MOL0     H76933  -0.206  10.982   5.683  0.1746  0.8241  2.0677
  570MOL0     H76934   0.055  10.524   5.692 -1.5507  1.6750  0.5256
  570MOL0     H76935   0.292  10.436   5.656  0.2553 -0.0450  0.0755
  570MOL0     H76936   2.224  10.074   6.161  0.5495 -2.0158 -0.7035
  570MOL0     H76937   2.447  10.151   6.111 -1.5060  0.3813  2.3961
  570MOL0     H76938   2.909  10.241   6.015 -0.8615  1.9026  1.6569
  570MOL0     H76939   3.075  10.387   5.927 -0.0101 -0.6892  0.3167
  570MOL0     H76940   3.219  10.546   5.840 -1.7262  1.5817  0.4516
  570MOL0     H76941   3.203  10.401   5.742 -0.6956  0.5695  3.5214
  570MOL0     H76942   3.253  10.666   5.621  0.6910  0.9082  2.5470
  570MOL0     H76943   3.312  10.505   5.560  1.4723 -1.8503  1.5701
  570MOL0     H76944   3.429  10.665   5.789  1.2937 -1.3432  0.8673
  570MOL0     H76945   3.501  10.628   5.628  0.3563 -1.3992 -1.2432
  570MOL0     H76946   3.591  10.448   5.733 -1.2108  0.9144 -1.9041
  570MOL0     H76947   3.431  10.381   5.730 -2.0390  0.4217 -0.2024
  570MOL0     H76948   3.527  10.479   6.134  0.1652  0.1540  0.6923
  570MOL0     H76949   2.830  10.500   5.593  3.6066  0.2461 -1.1481
  570MOL0     H76950   2.656  10.341   5.673  1.0299 -0.2831 -0.7522
  571MOL0     O76951   8.537   0.135   6.174 -0.2971 -0.2688  0.0871
  571MOL0     C76952   8.565   0.017   6.147 -0.3186  0.2301  0.9443
  571MOL0     O76953   8.477  -0.066   6.083 -0.1859 -0.0964  1.8192
  571MOL0     C76954   8.357  -0.020   6.030 -0.2629 -0.0419 -0.9358
  571MOL0     C76955   8.250  -0.022   6.118  0.1823 -0.7154 -0.6170
  571MOL0     C76956   8.130   0.048   6.076  0.8131  0.4561  0.1852
  571MOL0     C76957   8.112   0.113   5.953 -0.3806 -0.1681  0.3100
  571MOL0     O76958   8.001   0.180   5.911  0.1107 -0.5718  0.4073
  571MOL0     C76959   7.880   0.162   5.992 -0.2714 -0.0844  0.2656
  571MOL0     C76960   7.831   0.018   5.991  1.0615 -0.4088  0.5776
  571MOL0     C76961   7.697   0.013   6.064 -0.2933 -0.9878 -1.1303
  571MOL0     C76962   7.639  -0.123   6.051 -1.0371  1.0697 -0.3713
  571MOL0     C76963   7.502  -0.131   6.119 -0.2098  0.3123  0.0886
  571MOL0     C76964   7.417  -0.246   6.052  0.2689 -0.7704  0.3092
  571MOL0     C76965   7.272  -0.248   6.086 -0.4370  0.2388 -0.8797
  571MOL0     C76966   7.197  -0.376   6.051  0.1735  0.1647  0.5519
  571MOL0     N76967   7.043  -0.356   6.049 -0.6066 -0.0354 -0.2899
  571MOL0     C76968   6.961  -0.466   6.056  0.6673  0.0368  0.4998
  571MOL0     C76969   6.843  -0.415   6.065  0.5028  0.0475 -0.2483
  571MOL0     C76970   6.709  -0.482   6.089 -0.4027  0.1636  0.2345
  571MOL0     C76971   6.606  -0.497   5.976  0.0665  0.3971 -0.3623
  571MOL0     C76972   6.529  -0.361   5.954 -0.3179 -0.0333  0.3534
  571MOL0     C76973   6.381  -0.367   5.897  0.4709  0.0497  0.4455
  571MOL0     O76974   6.286  -0.399   5.996  0.8212  0.0883 -0.9399
  571MOL0     C76975   6.152  -0.384   5.962 -0.4035  0.6849 -0.3258
  571MOL0     C76976   6.065  -0.431   6.057 -0.0925 -0.2170  0.2550
  571MOL0     C76977   5.929  -0.442   6.041 -0.2567 -0.1384 -0.4551
  571MOL0     C76978   5.850  -0.490   6.161  0.2735 -0.0586 -0.2704
  571MOL0     C76979   5.875  -0.401   5.921  0.6960 -0.3409  0.3541
  571MOL0     C76980   5.725  -0.407   5.887  0.0087  0.4767 -0.0339
  571MOL0     O76981   5.684  -0.376   5.759 -0.4771 -0.1436 -0.0495
  571MOL0     C76982   5.549  -0.360   5.730 -0.3927  1.0844 -0.1006
  571MOL0     C76983   5.515  -0.364   5.593 -0.5996 -1.2641 -0.6339
  571MOL0     C76984   5.380  -0.336   5.554  0.2709 -0.1544 -0.5359
  571MOL0     C76985   5.283  -0.324   5.648 -0.3987  0.2416  0.0640
  571MOL0     O76986   5.159  -0.297   5.603  0.6270  0.3589  0.5703
  571MOL0     C76987   5.055  -0.287   5.706 -0.6608 -0.4322 -0.1555
  571MOL0     C76988   4.914  -0.295   5.631 -0.3454  0.4969  0.4974
  571MOL0     C76989   4.800  -0.250   5.715 -0.0743  0.1053 -0.0410
  571MOL0     C76990   4.675  -0.244   5.643  0.0460  0.3330  0.6759
  571MOL0     C76991   4.557  -0.193   5.729 -0.1985  0.0372  0.5624
  571MOL0     C76992   4.415  -0.203   5.654 -0.7365  0.5883  0.4113
  571MOL0     C76993   4.312  -0.153   5.753  0.6756  0.4625  0.6829
  571MOL0     C76994   4.173  -0.194   5.706 -0.0330  0.1721  0.2094
  571MOL0    Cl76995   4.144  -0.161   5.536 -0.0436 -0.0326  0.3600
  571MOL0     C76996   5.318  -0.320   5.785 -0.2705 -0.2141  0.5481
  571MOL0     C76997   5.450  -0.343   5.826  0.4291 -0.1522  0.4400
  571MOL0     O76998   5.655  -0.455   5.975  0.0704  0.3782 -0.0685
  571MOL0     C76999   5.962  -0.354   5.818  0.3288 -0.5986 -0.0003
  571MOL0     C77000   6.092  -0.334   5.845 -0.1103  0.4279  0.3187
  571MOL0     N77001   6.848  -0.276   6.066 -0.1803 -0.6332  0.6387
  571MOL0     N77002   6.972  -0.238   6.065 -0.4710  0.4839  0.5002
  571MOL0     C77003   8.223   0.111   5.873  0.9738 -0.0480  0.9650
  571MOL0     C77004   8.344   0.047   5.909 -0.2736  0.4563 -0.4805
  571MOL0     C77005   8.692  -0.033   6.195 -0.2242 -0.2508  0.1784
  571MOL0     C77006   8.730  -0.168   6.159  0.2452 -0.0336  0.9028
  571MOL0     C77007   8.859  -0.211   6.179 -0.5888 -0.3069 -0.6443
  571MOL0     C77008   8.945  -0.138   6.261 -0.3651  0.0570 -0.1461
  571MOL0     O77009   9.074  -0.197   6.286  0.2182  0.3246 -0.0423
  571MOL0     C77010   9.173  -0.127   6.362 -0.0682  0.0254 -0.4565
  571MOL0     C77011   9.282  -0.223   6.395  0.3547  0.1519 -1.0301
  571MOL0     C77012   9.399  -0.148   6.460 -0.2548  0.0382  0.0953
  571MOL0     C77013   9.505  -0.243   6.511 -0.2389 -0.4429 -0.1349
  571MOL0     C77014   9.485  -0.257   6.654 -0.0202  1.1982 -0.7703
  571MOL0     C77015   9.461  -0.269   6.775 -0.7487  0.1229  0.2649
  571MOL0     C77016   8.908  -0.003   6.294 -0.5194  0.0480  0.4749
  571MOL0     C77017   8.780   0.051   6.264 -0.6096 -0.4774  0.6674
  571MOL0     H77018   8.236  -0.078   6.211  3.8710  1.0359  1.1926
  571MOL0     H77019   8.057   0.055   6.156  0.8536  0.5756  0.2130
  571MOL0     H77020   7.881   0.203   6.093 -0.1304  1.4638 -0.3413
  571MOL0     H77021   7.803   0.214   5.935 -1.0752 -1.3700  0.1272
  571MOL0     H77022   7.817  -0.023   5.891 -2.1252 -1.1363  1.2187
  571MOL0     H77023   7.894  -0.055   6.044 -1.8371 -2.8377  0.9460
  571MOL0     H77024   7.709   0.045   6.168 -0.4996 -1.9534 -0.8015
  571MOL0     H77025   7.645   0.097   6.017 -0.4173  0.5627  1.5528
  571MOL0     H77026   7.630  -0.138   5.943 -1.8661  1.6615 -0.3935
  571MOL0     H77027   7.711  -0.193   6.094 -1.1136  1.8830  1.1469
  571MOL0     H77028   7.504  -0.151   6.226  0.5447  0.0032  0.0266
  571MOL0     H77029   7.449  -0.038   6.098 -0.1979 -0.0906 -1.9195
  571MOL0     H77030   7.426  -0.249   5.943 -0.2797 -3.5898  0.2760
  571MOL0     H77031   7.453  -0.341   6.093 -4.2648 -2.5907  0.6808
  571MOL0     H77032   7.266  -0.234   6.194 -2.7940 -0.9527 -0.7992
  571MOL0     H77033   7.223  -0.167   6.032  1.2089  0.6394 -1.8408
  571MOL0     H77034   7.230  -0.452   6.122  0.8067  2.0377  2.3648
  571MOL0     H77035   7.229  -0.398   5.949  2.5925  4.5414  0.1142
  571MOL0     H77036   6.987  -0.567   6.088  0.0520 -0.1645  0.3879
  571MOL0     H77037   6.726  -0.587   6.115 -1.5589 -0.3433 -0.9231
  571MOL0     H77038   6.664  -0.428   6.174  0.7069  1.6150 -0.0579
  571MOL0     H77039   6.536  -0.574   6.009 -1.9649  2.0058 -0.7638
  571MOL0     H77040   6.654  -0.532   5.884 -0.2704 -1.7326  0.2155
  571MOL0     H77041   6.590  -0.305   5.882 -0.9017  0.3233  0.1324
  571MOL0     H77042   6.525  -0.308   6.050 -1.6240  2.9374 -1.2047
  571MOL0     H77043   6.369  -0.437   5.813 -2.0721  0.3943  0.4461
  571MOL0     H77044   6.354  -0.271   5.851 -1.1511 -0.9473 -0.8031
  571MOL0     H77045   6.109  -0.475   6.146 -1.3381  0.6013  1.3091
  571MOL0     H77046   5.768  -0.425   6.192 -0.2886 -0.7152 -0.3512
  571MOL0     H77047   5.806  -0.583   6.125  0.1530  0.0303 -0.3549
  571MOL0     H77048   5.915  -0.518   6.245  1.1565 -0.8953 -1.2028
  571MOL0     H77049   5.600  -0.373   5.526 -0.2144 -1.6407 -0.1022
  571MOL0     H77050   5.360  -0.317   5.449  0.1355  0.9999 -0.3145
  571MOL0     H77051   5.069  -0.360   5.787 -1.9175 -0.2219  0.2769
  571MOL0     H77052   5.063  -0.188   5.753  1.5039 -1.0170  0.8483
  571MOL0     H77053   4.923  -0.242   5.535  1.0239 -0.3377  0.1429
  571MOL0     H77054   4.900  -0.400   5.605  0.6917  1.1288 -3.3984
  571MOL0     H77055   4.832  -0.151   5.749  2.6552 -0.2978 -1.2285
  571MOL0     H77056   4.788  -0.309   5.807  1.2739  2.0914  1.5021
  571MOL0     H77057   4.689  -0.189   5.549 -0.4363 -0.1425  0.3151
  571MOL0     H77058   4.644  -0.347   5.623  0.5164  0.2939  0.1151
  571MOL0     H77059   4.576  -0.088   5.755 -2.3750  0.9967 -1.3578
  571MOL0     H77060   4.542  -0.258   5.816 -0.0741 -1.1915 -0.3058
  571MOL0     H77061   4.424  -0.138   5.566 -0.1432  0.5145  0.4180
  571MOL0     H77062   4.401  -0.308   5.625  1.3285 -0.4667  2.8853
  571MOL0     H77063   4.311  -0.043   5.752 -0.3154  0.4805 -0.7794
  571MOL0     H77064   4.311  -0.191   5.855 -0.8704  1.7313  1.1843
  571MOL0     H77065   4.097  -0.141   5.765  0.8473 -1.1924  2.7195
  571MOL0     H77066   4.156  -0.302   5.719 -1.6230  0.0109 -2.4109
  571MOL0     H77067   5.247  -0.293   5.862 -0.4680 -0.2348  0.3722
  571MOL0     H77068   5.476  -0.323   5.930  1.7949  1.5633 -0.1772
  571MOL0     H77069   5.919  -0.318   5.726  0.3044 -0.3640  0.1004
  571MOL0     H77070   6.151  -0.291   5.765  1.2556  1.2637  1.7341
  571MOL0     H77071   8.219   0.166   5.780 -1.9083  0.0734  1.0655
  571MOL0     H77072   8.423   0.065   5.836 -0.3882  0.4992 -0.5937
  571MOL0     H77073   8.666  -0.228   6.094  1.2281 -0.5830  0.4165
  571MOL0     H77074   8.895  -0.310   6.153 -0.5635 -0.9731  1.6686
  571MOL0     H77075   9.213  -0.046   6.300  0.1908 -2.5880 -4.0193
  571MOL0     H77076   9.120  -0.096   6.453 -2.5525 -1.3308 -1.3509
  571MOL0     H77077   9.322  -0.264   6.302  1.2242 -1.1214 -0.1316
  571MOL0     H77078   9.256  -0.299   6.469 -1.7589  0.4751 -1.3677
  571MOL0     H77079   9.364  -0.080   6.538  1.7841  0.8475  0.3465
  571MOL0     H77080   9.453  -0.094   6.381 -0.5806  0.2048 -0.0174
  571MOL0     H77081   9.609  -0.211   6.496 -0.8995  1.5966 -0.6428
  571MOL0     H77082   9.504  -0.344   6.468 -1.9849 -0.3080 -0.4775
  571MOL0     H77083   9.442  -0.273   6.881 -0.6016  0.1318  0.2905
  571MOL0     H77084   8.973   0.069   6.342  2.0020 -1.4569 -0.4789
  571MOL0     H77085   8.759   0.150   6.304 -2.0027 -0.9064  1.0493
  572MOL0     O77086   3.126   5.083   3.054 -0.3699  0.1863 -0.3597
  572MOL0     C77087   3.206   5.174   3.085  1.0294 -0.3262  0.3821
  572MOL0     O77088   3.177   5.271   3.178 -0.5042  0.4714 -0.3476
  572MOL0     C77089   3.042   5.292   3.213 -0.8914  0.2945 -0.5445
  572MOL0     C77090   2.944   5.313   3.112 -0.2472  0.6630  0.1528
  572MOL0     C77091   2.810   5.328   3.150 -0.7917  0.0714  0.0733
  572MOL0     C77092   2.773   5.340   3.281  0.0950 -0.6061 -0.5136
  572MOL0     O77093   2.644   5.383   3.314 -0.1396  0.0560 -0.1757
  572MOL0     C77094   2.653   5.523   3.331 -0.6446 -0.5633 -0.1878
  572MOL0     C77095   2.591   5.555   3.462 -0.6098 -0.1142  0.2885
  572MOL0     C77096   2.438   5.519   3.479 -0.5963  1.2464  0.3742
  572MOL0     C77097   2.347   5.635   3.520  0.1600  0.0088 -0.3364
  572MOL0     C77098   2.210   5.596   3.564  0.2189  0.4368  0.2915
  572MOL0     C77099   2.124   5.518   3.463 -0.1318  0.2383  0.3661
  572MOL0     C77100   1.990   5.488   3.524  0.6247 -0.1187 -0.3706
  572MOL0     C77101   1.894   5.599   3.565  0.4510 -0.4425 -0.3427
  572MOL0     N77102   1.757   5.553   3.564 -0.5874 -0.8468 -0.5072
  572MOL0     C77103   1.687   5.511   3.668  0.2126 -0.5154 -0.2056
  572MOL0     C77104   1.562   5.501   3.627  0.0869  0.3602  0.5346
  572MOL0     C77105   1.453   5.440   3.711  1.0435 -0.1865  0.2101
  572MOL0     C77106   1.311   5.426   3.653  0.3322  0.9601 -0.5690
  572MOL0     C77107   1.209   5.397   3.768 -0.9624  0.0598  0.3097
  572MOL0     C77108   1.065   5.362   3.729 -0.3905  0.8024  0.7637
  572MOL0     O77109   0.999   5.482   3.681 -0.6745  0.2409 -0.4619
  572MOL0     C77110   0.859   5.491   3.685 -0.2853 -0.0495  0.4995
  572MOL0     C77111   0.804   5.610   3.651 -0.1996  0.1742  0.0032
  572MOL0     C77112   0.661   5.633   3.651 -0.0453 -0.0002 -0.2618
  572MOL0     C77113   0.612   5.763   3.604  0.4855  0.0613  0.5368
  572MOL0     C77114   0.572   5.527   3.691 -0.3254 -0.3616 -0.1349
  572MOL0     C77115   0.427   5.536   3.697 -0.3155 -0.0659  0.9496
  572MOL0     O77116   0.360   5.463   3.784  0.0009  0.2450 -0.3215
  572MOL0     C77117   0.239   5.511   3.829  0.3000 -0.0454  0.2572
  572MOL0     C77118   0.141   5.413   3.856  0.6913  0.3280  0.1317
  572MOL0     C77119   0.009   5.443   3.902 -0.4040 -0.3276 -0.9526
  572MOL0     C77120  -0.019   5.576   3.944 -0.0398  0.6082 -0.0351
  572MOL0     O77121  -0.140   5.609   4.002  0.3336 -0.3890  0.9580
  572MOL0     C77122  -0.135   5.721   4.096  0.0048  0.7520  0.1225
  572MOL0     C77123  -0.277   5.770   4.139 -0.6170 -0.0467 -0.9528
  572MOL0     C77124  -0.336   5.874   4.054  0.4927  0.2842  0.3130
  572MOL0     C77125  -0.450   5.948   4.124  0.5920 -1.1584  0.0156
  572MOL0     C77126  -0.482   6.084   4.070  0.0947  0.0013 -0.3465
  572MOL0     C77127  -0.596   6.155   4.143  0.6432 -0.6415  0.2400
  572MOL0     C77128  -0.631   6.286   4.063 -0.2102  0.0295 -0.4848
  572MOL0     C77129  -0.717   6.378   4.146  0.1531 -0.1942 -0.4475
  572MOL0    Cl77130  -0.858   6.291   4.215 -0.1494  0.2272 -0.0228
  572MOL0     C77131   0.080   5.669   3.910 -0.8084  0.0946  0.4592
  572MOL0     C77132   0.206   5.643   3.854 -0.0620  0.4899  0.0179
  572MOL0     O77133   0.376   5.600   3.611  0.5938  0.3883 -0.0583
  572MOL0     C77134   0.634   5.402   3.726  0.3680 -0.6112  0.1839
  572MOL0     C77135   0.769   5.390   3.731 -0.1420 -0.2090  0.1153
  572MOL0     N77136   1.553   5.530   3.500 -0.0411 -0.2565 -0.2383
  572MOL0     N77137   1.669   5.567   3.464  0.4678 -0.0090 -0.1430
  572MOL0     C77138   2.870   5.316   3.381 -0.9784  0.3057 -0.0096
  572MOL0     C77139   3.006   5.295   3.348 -0.5007 -0.6562  0.7680
  572MOL0     C77140   3.337   5.181   3.023 -1.0640  0.4929 -0.6088
  572MOL0     C77141   3.366   5.077   2.926  0.3998  0.6451 -0.3311
  572MOL0     C77142   3.488   5.070   2.864 -0.2305 -0.1163  0.9172
  572MOL0     C77143   3.594   5.151   2.898  0.5879  0.3799  1.1061
  572MOL0     O77144   3.715   5.140   2.844 -0.5533 -0.5668  0.1111
  572MOL0     C77145   3.740   5.025   2.757  0.2631 -0.2505  0.0179
  572MOL0     C77146   3.886   4.994   2.755 -0.1124 -1.0861  0.1511
  572MOL0     C77147   3.919   4.919   2.881 -0.1190  0.3880  0.1567
  572MOL0     C77148   4.064   4.880   2.900  0.2015 -0.3791 -0.1127
  572MOL0     C77149   4.105   4.748   2.851  0.4295  0.0095 -0.7770
  572MOL0     C77150   4.120   4.631   2.812 -0.5463 -0.5696 -0.2178
  572MOL0     C77151   3.571   5.257   2.986 -0.0418 -0.5354 -0.0282
  572MOL0     C77152   3.443   5.273   3.041 -0.8092 -0.7164 -0.3176
  572MOL0     H77153   2.978   5.313   3.009 -1.5350 -3.1390 -0.4364
  572MOL0     H77154   2.747   5.344   3.063  1.5779  1.1989 -1.5335
  572MOL0     H77155   2.753   5.567   3.326 -1.7326  2.1604  0.3993
  572MOL0     H77156   2.605   5.580   3.251 -0.2338  1.2004  0.7661
  572MOL0     H77157   2.661   5.499   3.526  1.1479  1.0973 -0.5164
  572MOL0     H77158   2.613   5.661   3.479  2.1530 -0.4089 -0.8437
  572MOL0     H77159   2.396   5.483   3.385  0.2927 -0.4303  0.5753
  572MOL0     H77160   2.431   5.436   3.550 -2.5905 -2.2581 -3.4919
  572MOL0     H77161   2.393   5.695   3.599 -1.1459 -2.8438  2.8314
  572MOL0     H77162   2.333   5.711   3.441 -3.0824  0.3423  0.4147
  572MOL0     H77163   2.222   5.525   3.647 -0.8886 -1.0738 -0.7930
  572MOL0     H77164   2.168   5.693   3.594  1.1408  0.5914  1.1719
  572MOL0     H77165   2.120   5.569   3.367 -0.7219 -0.8456 -0.2071
  572MOL0     H77166   2.173   5.422   3.441  0.1224  0.2845  0.7180
  572MOL0     H77167   1.936   5.436   3.444  1.8154  0.8318 -1.8414
  572MOL0     H77168   1.993   5.415   3.605 -2.4901 -0.9273 -0.8215
  572MOL0     H77169   1.920   5.683   3.500 -1.0879  0.8618  0.6474
  572MOL0     H77170   1.935   5.640   3.658 -1.9276 -0.0547  0.6049
  572MOL0     H77171   1.729   5.485   3.765 -1.6827  1.3326  1.1882
  572MOL0     H77172   1.484   5.339   3.739  0.8207 -0.7614 -1.4885
  572MOL0     H77173   1.447   5.488   3.809 -1.5386 -2.4611  1.2920
  572MOL0     H77174   1.303   5.356   3.569  2.3847  0.8511 -0.7081
  572MOL0     H77175   1.286   5.521   3.604  1.5880  0.3851 -2.4350
  572MOL0     H77176   1.216   5.469   3.851  0.9690 -0.2371  0.4390
  572MOL0     H77177   1.245   5.306   3.817  0.1614  0.2614 -0.1147
  572MOL0     H77178   1.020   5.318   3.819  1.0988 -1.0503  0.6586
  572MOL0     H77179   1.063   5.288   3.649 -0.7142  2.3335 -0.7110
  572MOL0     H77180   0.872   5.689   3.622 -0.6572  0.0701 -1.4337
  572MOL0     H77181   0.680   5.848   3.608 -2.1645  2.4321 -1.0283
  572MOL0     H77182   0.576   5.748   3.502 -1.8207 -0.3518  1.3348
  572MOL0     H77183   0.527   5.796   3.665 -0.6062 -1.9722  0.1963
  572MOL0     H77184   0.164   5.308   3.836  0.1608  0.4598 -1.2901
  572MOL0     H77185  -0.058   5.360   3.920  1.8611 -1.8405  1.2684
  572MOL0     H77186  -0.089   5.690   4.190 -1.4372  1.9252  1.2683
  572MOL0     H77187  -0.086   5.808   4.052  1.1844 -1.1436 -2.6398
  572MOL0     H77188  -0.342   5.684   4.155 -0.7874  0.0344 -1.2087
  572MOL0     H77189  -0.255   5.816   4.237  0.7204 -2.6107  0.0513
  572MOL0     H77190  -0.373   5.823   3.964  3.2543  0.9017 -1.2731
  572MOL0     H77191  -0.269   5.949   4.010 -0.1033  1.1447  0.8628
  572MOL0     H77192  -0.536   5.881   4.134 -0.3393 -0.2510 -1.5490
  572MOL0     H77193  -0.419   5.961   4.228 -1.5855  0.4390  0.5421
  572MOL0     H77194  -0.513   6.087   3.965 -0.0246  0.9757 -0.2923
  572MOL0     H77195  -0.390   6.142   4.084  1.3931 -2.0928  0.2542
  572MOL0     H77196  -0.685   6.092   4.151 -0.3172  0.8673  2.2777
  572MOL0     H77197  -0.569   6.168   4.248  2.1537  0.3764 -0.2438
  572MOL0     H77198  -0.675   6.263   3.966 -1.3211 -1.8052  0.3914
  572MOL0     H77199  -0.542   6.343   4.034  0.0364  0.3091  0.7268
  572MOL0     H77200  -0.748   6.457   4.077  0.5500 -0.5204 -1.0062
  572MOL0     H77201  -0.652   6.426   4.220 -0.9137 -0.5009  0.7205
  572MOL0     H77202   0.069   5.775   3.929  0.7477  0.1419  1.2024
  572MOL0     H77203   0.269   5.719   3.808  3.7869 -2.0265  0.6106
  572MOL0     H77204   0.571   5.318   3.756  0.1035 -0.7401 -0.6969
  572MOL0     H77205   0.813   5.296   3.763 -0.1439 -0.7571 -1.4151
  572MOL0     H77206   2.830   5.306   3.482  1.0667 -0.9987  0.7409
  572MOL0     H77207   3.074   5.268   3.427 -1.1823 -1.3998  1.1234
  572MOL0     H77208   3.300   4.993   2.905  0.6674  0.1357  0.7641
  572MOL0     H77209   3.498   4.997   2.785  2.7249  1.9884 -0.8594
  572MOL0     H77210   3.689   4.937   2.798 -1.1799  0.3823 -0.3550
  572MOL0     H77211   3.706   5.049   2.656  1.1075  1.8201  0.1854
  572MOL0     H77212   3.936   5.091   2.759 -3.4544  0.7411  2.5294
  572MOL0     H77213   3.918   4.939   2.666  4.6994 -1.0911  1.5734
  572MOL0     H77214   3.871   4.821   2.871  4.5345 -2.3583  1.4209
  572MOL0     H77215   3.881   4.973   2.968 -1.7146  0.6620 -0.6784
  572MOL0     H77216   4.077   4.879   3.008 -1.2560 -0.3132  0.0851
  572MOL0     H77217   4.134   4.954   2.860  0.6343 -0.1807  0.9955
  572MOL0     H77218   4.120   4.531   2.772  0.2681 -0.6196 -0.1212
  572MOL0     H77219   3.658   5.320   3.003 -0.1311 -0.4026 -0.0569
  572MOL0     H77220   3.448   5.354   3.113 -5.0536  1.3129 -1.9758
  573MOL0     O77221   1.245   2.172   6.930  0.4148 -0.2815  0.2351
  573MOL0     C77222   1.255   2.103   7.028 -0.0103  0.9526  0.6910
  573MOL0     O77223   1.148   2.056   7.106  0.0094  0.9545  1.1401
  573MOL0     C77224   1.032   2.126   7.108 -0.8723 -1.0390  0.2080
  573MOL0     C77225   1.028   2.256   7.158  0.2688 -0.8995 -0.3068
  573MOL0     C77226   0.910   2.328   7.164 -0.3715  0.1456 -0.0307
  573MOL0     C77227   0.788   2.259   7.120 -0.1041 -0.4237 -0.5626
  573MOL0     O77228   0.672   2.320   7.121 -0.7083  0.1377  0.0470
  573MOL0     C77229   0.672   2.465   7.117  0.8222  0.8043 -0.1540
  573MOL0     C77230   0.535   2.520   7.087  0.2074 -0.1068  0.4961
  573MOL0     C77231   0.471   2.450   6.962 -0.0730 -0.3895  0.0128
  573MOL0     C77232   0.337   2.510   6.907 -1.0167 -0.1794 -0.7233
  573MOL0     C77233   0.289   2.421   6.790 -0.1528 -0.9559 -0.5692
  573MOL0     C77234   0.176   2.502   6.714  0.3152 -0.1547  0.0085
  573MOL0     C77235   0.097   2.415   6.616 -1.0074 -0.4511 -0.1407
  573MOL0     C77236   0.034   2.291   6.687 -0.2107 -0.1050  0.3266
  573MOL0     N77237  -0.069   2.308   6.784  0.1822  0.0832 -0.5814
  573MOL0     C77238  -0.198   2.343   6.760 -0.2803  0.6300  0.3692
  573MOL0     C77239  -0.259   2.325   6.879 -0.6934 -0.5943 -0.0472
  573MOL0     C77240  -0.403   2.354   6.919 -1.2528  0.5023  0.1672
  573MOL0     C77241  -0.435   2.493   6.856  0.1577 -0.5957 -0.9462
  573MOL0     C77242  -0.366   2.611   6.927 -0.2536  0.1343 -0.1557
  573MOL0     C77243  -0.417   2.750   6.896  0.1295  0.6952 -0.1056
  573MOL0     O77244  -0.413   2.789   6.754  0.2111  0.4768  0.1960
  573MOL0     C77245  -0.294   2.809   6.698  0.3049  0.2531 -0.1629
  573MOL0     C77246  -0.192   2.874   6.762  0.5679 -0.4692  0.8405
  573MOL0     C77247  -0.060   2.884   6.713  0.0268  0.2537  0.0153
  573MOL0     C77248   0.022   2.987   6.790  1.1026 -0.3977 -0.1288
  573MOL0     C77249  -0.020   2.817   6.596 -0.1016 -0.1263  0.2023
  573MOL0     C77250   0.118   2.824   6.536 -0.4941  1.1583  0.6436
  573MOL0     O77251   0.132   2.769   6.411  1.0515 -0.1197  0.6985
  573MOL0     C77252   0.257   2.801   6.356  0.6927 -0.1148  0.1623
  573MOL0     C77253   0.374   2.719   6.377  0.2818  0.1119 -0.5289
  573MOL0     C77254   0.511   2.759   6.360  0.3659  0.6366  1.2360
  573MOL0     C77255   0.530   2.886   6.298 -0.0693  0.6401 -0.2384
  573MOL0     O77256   0.660   2.928   6.263  0.3616 -0.8193  0.1805
  573MOL0     C77257   0.742   2.937   6.373 -0.1054 -0.3150 -1.3166
  573MOL0     C77258   0.863   3.012   6.329  0.2525  0.0381  0.7380
  573MOL0     C77259   0.951   2.925   6.228  0.4366  0.5133 -0.0910
  573MOL0     C77260   1.087   2.990   6.209  0.7598  0.8993  0.8401
  573MOL0     C77261   1.066   3.111   6.119 -0.2450 -0.4421 -0.4349
  573MOL0     C77262   1.206   3.159   6.074  0.3432  0.0066 -0.8508
  573MOL0     C77263   1.189   3.279   5.974  0.6640  0.2279 -0.3949
  573MOL0     C77264   1.324   3.329   5.934  0.3298 -0.3580  0.3535
  573MOL0    Cl77265   1.398   3.237   5.804  0.2067  0.3303  0.2264
  573MOL0     C77266   0.414   2.959   6.252  0.6622  0.6083 -0.2830
  573MOL0     C77267   0.276   2.915   6.278 -0.0558 -0.4171 -0.3191
  573MOL0     O77268   0.208   2.874   6.601 -0.2660 -0.0905  0.6038
  573MOL0     C77269  -0.128   2.765   6.518 -0.4462 -0.3704  0.3562
  573MOL0     C77270  -0.259   2.765   6.567 -0.5602  0.3005 -0.7605
  573MOL0     N77271  -0.163   2.277   6.977  0.8139  0.5443  0.7177
  573MOL0     N77272  -0.055   2.260   6.906  0.3416 -0.0922  0.0301
  573MOL0     C77273   0.793   2.133   7.076  0.2173  0.0869  0.6825
  573MOL0     C77274   0.910   2.060   7.085 -0.5398 -0.1378  0.3880
  573MOL0     C77275   1.383   2.035   7.045 -0.8523 -0.4097 -0.3444
  573MOL0     C77276   1.489   2.045   6.949 -0.4457 -0.4466  0.6100
  573MOL0     C77277   1.604   1.967   6.970 -0.1465  0.4842  0.3599
  573MOL0     C77278   1.616   1.889   7.086 -0.4387  0.6092  0.5122
  573MOL0     O77279   1.718   1.804   7.092 -0.6172  0.1903  0.3868
  573MOL0     C77280   1.803   1.827   7.201  0.2631  0.4190  0.0807
  573MOL0     C77281   1.946   1.831   7.142 -0.3707 -0.1804  0.8976
  573MOL0     C77282   1.966   1.940   7.031  0.8824 -0.7231 -0.0029
  573MOL0     C77283   2.106   1.919   6.974 -0.2949  0.9780 -0.7737
  573MOL0     C77284   2.126   2.004   6.857  0.4636  0.1676 -0.1517
  573MOL0     C77285   2.151   2.085   6.771  0.3845  0.9823  0.1131
  573MOL0     C77286   1.517   1.890   7.185 -0.5540  0.1983  0.4751
  573MOL0     C77287   1.398   1.955   7.162 -0.4389  0.4879  0.0818
  573MOL0     H77288   1.119   2.297   7.199 -1.4345  1.5296  1.3524
  573MOL0     H77289   0.902   2.422   7.218  1.2536  0.3175 -0.0482
  573MOL0     H77290   0.685   2.504   7.218  0.4409  2.9272 -0.8867
  573MOL0     H77291   0.746   2.517   7.056  0.4056  3.2909  1.3189
  573MOL0     H77292   0.466   2.508   7.170  1.3589  0.7131  1.6084
  573MOL0     H77293   0.541   2.627   7.068  1.4818 -0.0606  1.0705
  573MOL0     H77294   0.541   2.430   6.881  1.5213 -0.1492  1.2734
  573MOL0     H77295   0.432   2.350   6.984 -1.8682 -0.4033 -2.7237
  573MOL0     H77296   0.254   2.517   6.979 -2.1821 -0.5638 -1.9814
  573MOL0     H77297   0.370   2.608   6.870  2.4755 -0.6040  0.8940
  573MOL0     H77298   0.366   2.391   6.719 -0.6203 -1.5533 -0.8319
  573MOL0     H77299   0.256   2.325   6.832 -0.4976 -0.6762 -0.1929
  573MOL0     H77300   0.107   2.545   6.787 -0.8899 -0.3288 -0.9907
  573MOL0     H77301   0.233   2.581   6.664  0.2178  1.1425  1.8420
  573MOL0     H77302   0.020   2.478   6.570  1.3533  1.2233 -2.0860
  573MOL0     H77303   0.167   2.383   6.537  1.2023 -3.0858  2.6584
  573MOL0     H77304   0.118   2.227   6.718  1.4545  0.3124 -2.8179
  573MOL0     H77305  -0.006   2.232   6.604  1.7731 -1.1491  0.0320
  573MOL0     H77306  -0.238   2.393   6.673 -0.3111 -0.3659 -0.2001
  573MOL0     H77307  -0.466   2.267   6.897  0.8935 -0.5725 -2.1523
  573MOL0     H77308  -0.411   2.346   7.028 -0.8660 -5.3868  0.0635
  573MOL0     H77309  -0.542   2.514   6.863 -0.1741 -2.3366 -0.4077
  573MOL0     H77310  -0.397   2.505   6.754  1.3889 -1.4795 -0.6179
  573MOL0     H77311  -0.259   2.611   6.903  0.3065 -2.2803  1.8766
  573MOL0     H77312  -0.380   2.591   7.034 -1.3182  1.8183  0.0470
  573MOL0     H77313  -0.353   2.815   6.956  1.7799 -1.4250  0.5585
  573MOL0     H77314  -0.521   2.760   6.927 -0.6984 -2.0473 -1.6418
  573MOL0     H77315  -0.221   2.927   6.852 -1.5969 -1.1501  0.5958
  573MOL0     H77316   0.066   3.055   6.716 -0.0281 -0.4285 -0.8480
  573MOL0     H77317  -0.030   3.051   6.862  1.4702 -0.1507 -0.0776
  573MOL0     H77318   0.106   2.939   6.841 -1.4811 -0.7272  4.3193
  573MOL0     H77319   0.360   2.625   6.430 -2.2364  0.4201 -0.5743
  573MOL0     H77320   0.589   2.689   6.390 -0.6158 -1.2542 -0.3746
  573MOL0     H77321   0.692   2.984   6.458  1.0255 -1.5887  0.1153
  573MOL0     H77322   0.773   2.840   6.413  0.2011  0.4089  0.3039
  573MOL0     H77323   0.835   3.109   6.287 -1.9292 -1.1098 -0.6144
  573MOL0     H77324   0.927   3.046   6.411 -2.0390  2.7067  1.6097
  573MOL0     H77325   0.897   2.907   6.135  1.7411  0.3056 -0.8300
  573MOL0     H77326   0.979   2.827   6.269 -0.4545 -0.2108 -1.1809
  573MOL0     H77327   1.136   3.021   6.302  1.7624 -0.1230  0.6726
  573MOL0     H77328   1.154   2.913   6.169 -0.9328 -0.3023  0.1622
  573MOL0     H77329   1.013   3.189   6.174  1.7773 -0.1115  1.1954
  573MOL0     H77330   1.010   3.089   6.028 -2.1448  1.2624  0.2437
  573MOL0     H77331   1.259   3.193   6.164  0.7056  0.9628 -1.4104
  573MOL0     H77332   1.269   3.082   6.028  2.6557  0.9506  0.5416
  573MOL0     H77333   1.143   3.366   6.022  3.4489  0.8998  1.3317
  573MOL0     H77334   1.137   3.241   5.886  2.9295 -1.9446 -0.9133
  573MOL0     H77335   1.375   3.344   6.030 -0.4231 -1.1723  0.8953
  573MOL0     H77336   1.307   3.432   5.901  3.9199 -0.7360 -3.5679
  573MOL0     H77337   0.434   3.043   6.187  0.7988 -0.3363 -1.5103
  573MOL0     H77338   0.193   2.980   6.253  0.2359  0.4668  0.8959
  573MOL0     H77339  -0.117   2.702   6.430 -0.5424 -0.8071  0.6492
  573MOL0     H77340  -0.340   2.716   6.515 -0.4137 -2.1194  1.1370
  573MOL0     H77341   0.709   2.073   7.042  2.2080 -1.7616 -1.3007
  573MOL0     H77342   0.906   1.958   7.049 -3.7446  0.3561 -1.0386
  573MOL0     H77343   1.471   2.113   6.866  1.5714 -0.6235 -0.0120
  573MOL0     H77344   1.693   1.988   6.912  0.4174  2.2469  1.7790
  573MOL0     H77345   1.788   1.919   7.257  1.2370  1.7864 -1.8124
  573MOL0     H77346   1.779   1.740   7.263  0.4982  0.8056  0.7225
  573MOL0     H77347   1.959   1.730   7.103 -0.8580 -2.0740  5.0826
  573MOL0     H77348   2.017   1.842   7.224  1.1776 -0.1706 -0.3990
  573MOL0     H77349   1.945   2.038   7.073  1.1550 -0.3431 -0.7334
  573MOL0     H77350   1.893   1.922   6.952  1.3641  0.7563 -0.8208
  573MOL0     H77351   2.124   1.818   6.937  0.9745  0.6811  0.5605
  573MOL0     H77352   2.173   1.928   7.060 -2.0892 -1.9691  1.1136
  573MOL0     H77353   2.185   2.163   6.705 -0.5915  0.3497 -1.1605
  573MOL0     H77354   1.523   1.826   7.273 -1.6152 -4.5345 -2.5700
  573MOL0     H77355   1.324   1.933   7.239 -0.5351 -1.0715 -0.4183
  574MOL0     O77356   9.300   7.475   3.196 -0.0488  0.6543 -0.6813
  574MOL0     C77357   9.284   7.351   3.172 -0.0357  0.4593  1.0207
  574MOL0     O77358   9.171   7.288   3.121 -0.2620  0.7100  0.3040
  574MOL0     C77359   9.048   7.352   3.108 -0.0670  0.2099  0.1346
  574MOL0     C77360   8.957   7.294   3.016  0.2762 -0.2335 -0.1336
  574MOL0     C77361   8.827   7.345   2.999 -0.8068 -0.1030  0.2733
  574MOL0     C77362   8.792   7.478   3.047 -0.3345  0.1119  0.2604
  574MOL0     O77363   8.668   7.529   3.027  0.1358  0.9680 -0.4103
  574MOL0     C77364   8.653   7.667   3.047 -0.0712  0.2041  0.2703
  574MOL0     C77365   8.526   7.718   2.985  0.1798  0.3263  0.1038
  574MOL0     C77366   8.496   7.861   3.045 -0.5080 -0.2632 -0.1105
  574MOL0     C77367   8.370   7.932   2.992  0.9086 -0.7605  0.2840
  574MOL0     C77368   8.233   7.891   3.060 -0.2710 -0.1139  0.7094
  574MOL0     C77369   8.113   7.971   3.006  0.9710 -1.1582 -0.0147
  574MOL0     C77370   8.100   8.113   3.055 -0.2388  0.5414 -0.2700
  574MOL0     C77371   8.016   8.202   2.966 -0.4399  0.4415 -0.0666
  574MOL0     N77372   7.871   8.178   2.964  0.1407  0.4652 -1.4392
  574MOL0     C77373   7.814   8.063   2.914  0.6126  0.0865  0.2609
  574MOL0     C77374   7.679   8.100   2.916 -0.3465 -0.0762  0.5088
  574MOL0     C77375   7.572   8.011   2.866  0.1906  0.3123  0.2944
  574MOL0     C77376   7.506   8.081   2.748 -0.1454 -0.3747 -0.2050
  574MOL0     C77377   7.384   8.011   2.683 -0.2988 -0.0249  0.0785
  574MOL0     C77378   7.262   8.037   2.777 -0.9405  0.3030 -0.1165
  574MOL0     O77379   7.163   7.940   2.739  0.6675  0.3886 -0.7745
  574MOL0     C77380   7.077   7.922   2.846 -0.6375 -0.5700  0.7495
  574MOL0     C77381   7.108   7.823   2.937  0.4386 -0.8409 -0.2306
  574MOL0     C77382   7.030   7.801   3.048  0.2181  0.4711 -0.0679
  574MOL0     C77383   7.067   7.688   3.139 -0.0878  0.1216  0.2391
  574MOL0     C77384   6.916   7.884   3.066 -0.0842 -0.3972 -0.2656
  574MOL0     C77385   6.825   7.877   3.175 -0.3068 -0.2678  0.0506
  574MOL0     O77386   6.694   7.927   3.153 -0.0379  0.3702  0.5182
  574MOL0     C77387   6.616   7.914   3.261  0.1514 -0.4340 -0.2123
  574MOL0     C77388   6.549   7.799   3.288 -0.7212 -0.3249 -0.3254
  574MOL0     C77389   6.452   7.799   3.392  0.1371 -0.8467  0.0592
  574MOL0     C77390   6.427   7.917   3.470 -0.4576 -0.5946 -0.1483
  574MOL0     O77391   6.315   7.914   3.555 -0.4280 -0.1191  0.1008
  574MOL0     C77392   6.330   7.990   3.671  0.4772  0.8801  0.1420
  574MOL0     C77393   6.252   7.944   3.795 -0.4427 -0.1639  0.0509
  574MOL0     C77394   6.107   7.934   3.765  0.2806 -0.5783  0.2446
  574MOL0     C77395   6.035   7.886   3.894 -0.9044 -0.1695 -0.3117
  574MOL0     C77396   5.882   7.848   3.890 -0.8329  0.0558  0.0975
  574MOL0     C77397   5.788   7.942   3.802 -0.1361 -0.1952 -0.2826
  574MOL0     C77398   5.780   8.081   3.862  0.3253  0.3081  0.3570
  574MOL0     C77399   5.681   8.174   3.798 -0.0482 -1.0066  0.2178
  574MOL0    Cl77400   5.521   8.122   3.787  0.7286  0.1944 -0.1143
  574MOL0     C77401   6.497   8.031   3.431 -0.6854 -0.4914  0.1740
  574MOL0     C77402   6.588   8.029   3.331 -0.0000  0.7069 -0.8141
  574MOL0     O77403   6.864   7.834   3.285 -0.8696 -0.6073 -0.1179
  574MOL0     C77404   6.885   7.983   2.965 -0.2188  0.8135 -0.5673
  574MOL0     C77405   6.968   8.002   2.851  0.3226  0.5507  0.2670
  574MOL0     N77406   7.667   8.222   2.983  0.3126 -0.0491 -0.3623
  574MOL0     N77407   7.781   8.266   3.011  0.7572 -0.3209  0.6782
  574MOL0     C77408   8.885   7.541   3.130  0.0040 -0.1221  0.2085
  574MOL0     C77409   9.009   7.478   3.154 -0.1430  0.8327 -0.1625
  574MOL0     C77410   9.393   7.264   3.209  0.2094  0.3939  0.7727
  574MOL0     C77411   9.523   7.313   3.236  0.1213  0.2926  0.3259
  574MOL0     C77412   9.628   7.230   3.277 -0.4041 -0.5243 -0.5884
  574MOL0     C77413   9.612   7.091   3.299 -1.1943  0.1333  0.1869
  574MOL0     O77414   9.715   7.012   3.341  0.1287 -0.1776  0.6085
  574MOL0     C77415   9.847   7.067   3.344  0.2227 -0.4720  0.1147
  574MOL0     C77416   9.953   6.966   3.397 -0.2262 -0.1562  0.2674
  574MOL0     C77417  10.098   7.026   3.392  0.2973 -0.2952 -0.5210
  574MOL0     C77418  10.193   6.942   3.478  0.0974  0.1393  0.4278
  574MOL0     C77419  10.332   6.988   3.477  0.1556 -0.8776  0.2432
  574MOL0     C77420  10.442   7.045   3.485  0.2809 -0.1304  0.2222
  574MOL0     C77421   9.476   7.039   3.283 -0.0686  0.0414  1.2388
  574MOL0     C77422   9.375   7.124   3.236 -0.0226  0.5845  0.9630
  574MOL0     H77423   8.982   7.192   2.985  1.3977 -0.1285  0.3792
  574MOL0     H77424   8.747   7.292   2.948 -1.1743 -0.1016  0.8395
  574MOL0     H77425   8.647   7.698   3.152  1.5181  1.6234 -0.0115
  574MOL0     H77426   8.741   7.711   2.998  1.5109 -2.5145  0.5003
  574MOL0     H77427   8.541   7.714   2.877 -1.7987 -0.1626 -0.1961
  574MOL0     H77428   8.441   7.653   3.010 -0.0579  0.6676  0.1910
  574MOL0     H77429   8.493   7.858   3.154  1.8470 -0.4492 -0.0155
  574MOL0     H77430   8.582   7.925   3.027 -1.2419  0.8418  0.2247
  574MOL0     H77431   8.392   8.037   3.014  1.6961 -1.4153  2.8460
  574MOL0     H77432   8.362   7.916   2.884 -0.2423  0.1107  0.2109
  574MOL0     H77433   8.214   7.784   3.052 -2.7733  0.2203  1.3837
  574MOL0     H77434   8.249   7.904   3.168  1.1945  0.0441  0.4931
  574MOL0     H77435   8.127   7.979   2.898  0.2985 -0.2726 -0.0500
  574MOL0     H77436   8.018   7.922   3.029  2.1253 -2.7767  1.5303
  574MOL0     H77437   8.062   8.119   3.157 -0.2543  2.1274 -0.3454
  574MOL0     H77438   8.200   8.156   3.065 -0.9991  2.0404  1.6692
  574MOL0     H77439   8.046   8.181   2.863  1.1518 -1.9920  0.8097
  574MOL0     H77440   8.030   8.309   2.982 -3.9145  1.5422 -3.0322
  574MOL0     H77441   7.854   7.971   2.872  0.7197  1.2276 -2.3027
  574MOL0     H77442   7.610   7.912   2.838  2.0974  1.6952 -2.4367
  574MOL0     H77443   7.497   8.006   2.945  2.0581 -0.1412  2.1336
  574MOL0     H77444   7.588   8.093   2.677 -0.5994 -1.9311 -1.0444
  574MOL0     H77445   7.478   8.182   2.778  0.7278 -0.4597  0.9613
  574MOL0     H77446   7.401   7.903   2.675 -1.6638 -0.3390  0.9901
  574MOL0     H77447   7.360   8.041   2.580 -1.2954 -1.3586 -0.1000
  574MOL0     H77448   7.219   8.136   2.760  4.9651  3.4394  0.5019
  574MOL0     H77449   7.289   8.037   2.883  0.4308  1.0232 -0.4405
  574MOL0     H77450   7.190   7.752   2.931 -1.0922 -3.0642  2.6155
  574MOL0     H77451   7.159   7.647   3.096  0.8758  2.5800 -0.2234
  574MOL0     H77452   7.103   7.717   3.238  3.3380 -0.8479 -0.5547
  574MOL0     H77453   6.993   7.608   3.138  0.6217 -0.5566  0.3013
  574MOL0     H77454   6.577   7.707   3.238  2.6173  0.0325  0.6915
  574MOL0     H77455   6.408   7.705   3.424 -1.7786 -0.5273 -1.4887
  574MOL0     H77456   6.436   7.994   3.696  0.4124  3.5747  0.2423
  574MOL0     H77457   6.311   8.094   3.645  0.1544  0.4762 -1.3960
  574MOL0     H77458   6.300   7.853   3.832  2.2403  0.9791 -0.3220
  574MOL0     H77459   6.270   8.017   3.874  0.4329 -1.2228  0.8718
  574MOL0     H77460   6.086   7.883   3.671  0.3750  0.8747 -0.5899
  574MOL0     H77461   6.070   8.036   3.753  0.8654  0.2042  3.8329
  574MOL0     H77462   6.084   7.799   3.938 -0.2975 -1.0220 -2.5352
  574MOL0     H77463   6.049   7.968   3.966  1.4775 -0.3279 -0.4993
  574MOL0     H77464   5.849   7.847   3.994  2.9869  0.0781  1.4818
  574MOL0     H77465   5.884   7.743   3.860  1.5942  0.1391 -0.2684
  574MOL0     H77466   5.809   7.952   3.695  0.2427 -2.4437 -0.4539
  574MOL0     H77467   5.694   7.888   3.815 -0.7444  0.1346 -2.7634
  574MOL0     H77468   5.875   8.135   3.868 -0.0734  1.4040 -2.1508
  574MOL0     H77469   5.751   8.074   3.968 -0.4394  1.1894  0.2192
  574MOL0     H77470   5.720   8.212   3.703 -1.2930 -1.8004 -0.6404
  574MOL0     H77471   5.685   8.263   3.862 -0.9643 -0.2188 -0.7823
  574MOL0     H77472   6.477   8.122   3.487  0.9668 -0.9758  1.6172
  574MOL0     H77473   6.653   8.114   3.315  0.0699  1.7001  3.4723
  574MOL0     H77474   6.803   8.054   2.973 -1.1455  0.1099 -3.0323
  574MOL0     H77475   6.939   8.073   2.774 -0.8557  0.8789  0.9786
  574MOL0     H77476   8.873   7.637   3.179  2.0462  1.9046 -2.9205
  574MOL0     H77477   9.071   7.536   3.221 -1.3127  0.0140  1.7172
  574MOL0     H77478   9.537   7.419   3.215  1.4037  0.4791  1.8976
  574MOL0     H77479   9.727   7.273   3.276 -0.3474 -0.6504 -1.6681
  574MOL0     H77480   9.882   7.096   3.245 -0.0841 -1.6791 -0.3735
  574MOL0     H77481   9.845   7.159   3.403  0.0596 -0.1135 -0.4422
  574MOL0     H77482   9.932   6.875   3.340 -3.0335  0.2072  0.5589
  574MOL0     H77483   9.936   6.948   3.503  2.0417  1.6672  1.0275
  574MOL0     H77484  10.104   7.127   3.432 -1.8989 -0.7261  1.1361
  574MOL0     H77485  10.140   7.024   3.291  0.7216 -0.0311 -0.3517
  574MOL0     H77486  10.196   6.840   3.438  1.7540 -1.0733  3.3118
  574MOL0     H77487  10.154   6.931   3.579 -0.0982 -3.3515  0.1124
  574MOL0     H77488  10.531   7.105   3.492 -2.1534  3.8102  0.1626
  574MOL0     H77489   9.460   6.934   3.302 -0.5293 -0.1604 -0.1122
  574MOL0     H77490   9.274   7.085   3.235 -0.0221  0.5196  2.2511
  575MOL0     O77491   5.574   6.147   7.925  0.5564  0.3975  0.1933
  575MOL0     C77492   5.493   6.150   7.834  0.5243 -0.1435  0.4021
  575MOL0     O77493   5.519   6.186   7.707  0.5295  0.4784 -0.1894
  575MOL0     C77494   5.653   6.201   7.660  0.4933  0.5925 -0.8192
  575MOL0     C77495   5.767   6.127   7.705  0.3348  0.4333 -0.4921
  575MOL0     C77496   5.890   6.129   7.638 -0.5991  0.4357 -0.2108
  575MOL0     C77497   5.900   6.198   7.518  0.5668  0.2133  0.0469
  575MOL0     O77498   6.012   6.176   7.438 -0.6118  0.4174  0.0891
  575MOL0     C77499   6.071   6.277   7.364 -0.0098 -0.3117 -0.2068
  575MOL0     C77500   6.198   6.217   7.292  0.4192 -0.4875  0.4585
  575MOL0     C77501   6.302   6.335   7.274  0.5537  0.2309  0.0937
  575MOL0     C77502   6.433   6.276   7.253 -0.7492  0.3143  0.1875
  575MOL0     C77503   6.539   6.381   7.199  0.4288  0.5943  0.6380
  575MOL0     C77504   6.684   6.363   7.242  0.4277 -0.5362  0.1957
  575MOL0     C77505   6.790   6.455   7.176 -0.3730 -0.4224 -0.3408
  575MOL0     C77506   6.930   6.404   7.185  1.1466 -1.1275 -0.9040
  575MOL0     N77507   6.962   6.270   7.138  1.0866 -0.5210  0.2079
  575MOL0     C77508   6.956   6.232   7.006 -0.2469 -0.6522 -0.6921
  575MOL0     C77509   6.994   6.101   7.003 -0.1275  0.1991 -0.1414
  575MOL0     C77510   7.020   6.006   6.889  0.0713  0.8833  0.1671
  575MOL0     C77511   6.899   6.002   6.787  0.4312 -0.0952  0.1296
  575MOL0     C77512   6.791   5.910   6.832 -0.1296 -0.0681 -0.2783
  575MOL0     C77513   6.668   5.922   6.745  0.2967  0.4789  0.4663
  575MOL0     O77514   6.579   6.016   6.802 -0.5679 -0.1525 -0.0373
  575MOL0     C77515   6.460   6.053   6.738  0.3239  0.0006 -0.2594
  575MOL0     C77516   6.382   6.156   6.784  0.5142 -0.6151 -0.1707
  575MOL0     C77517   6.255   6.197   6.722 -0.2161  0.2654  0.0521
  575MOL0     C77518   6.181   6.305   6.810 -0.2316  0.2122 -0.5223
  575MOL0     C77519   6.205   6.135   6.611 -0.4425  0.0038  0.6918
  575MOL0     C77520   6.071   6.166   6.543 -0.2815  0.7619  0.1539
  575MOL0     O77521   6.010   6.282   6.576 -0.1028 -0.0467 -0.0348
  575MOL0     C77522   5.883   6.310   6.537  0.7695  0.4964 -0.2153
  575MOL0     C77523   5.834   6.290   6.409 -0.0810 -0.2774 -0.6226
  575MOL0     C77524   5.704   6.320   6.375  0.0299  0.3289  0.0410
  575MOL0     C77525   5.610   6.341   6.472 -0.7200 -0.9707 -0.2916
  575MOL0     O77526   5.476   6.347   6.442 -0.4107  0.0147  0.3274
  575MOL0     C77527   5.393   6.275   6.538 -0.2266  0.0478  0.5410
  575MOL0     C77528   5.246   6.277   6.503  0.3550 -0.7301 -0.2049
  575MOL0     C77529   5.174   6.413   6.541  0.3881 -0.2583 -0.2045
  575MOL0     C77530   5.034   6.417   6.493 -0.0765 -0.6042  0.6094
  575MOL0     C77531   4.952   6.551   6.532  0.0708  0.5477 -0.0799
  575MOL0     C77532   4.893   6.552   6.677 -0.5503  0.4317 -0.0222
  575MOL0     C77533   4.837   6.687   6.721  0.5465  0.4163 -0.2171
  575MOL0     C77534   4.725   6.689   6.834 -0.3112 -0.2506 -0.2520
  575MOL0    Cl77535   4.584   6.612   6.762 -0.0494 -0.1268 -0.2057
  575MOL0     C77536   5.658   6.353   6.602 -0.6228 -0.3172  1.0022
  575MOL0     C77537   5.792   6.347   6.635 -0.0373  0.1050  0.3332
  575MOL0     O77538   6.027   6.083   6.465  0.6654  0.6123  0.0667
  575MOL0     C77539   6.285   6.033   6.557 -0.5392  0.7114 -0.3799
  575MOL0     C77540   6.405   5.990   6.622 -0.1331  0.2639 -0.6845
  575MOL0     N77541   7.032   6.074   7.133  0.2523 -0.3585 -0.4328
  575MOL0     N77542   7.000   6.166   7.218  0.1418 -0.9956 -0.7216
  575MOL0     C77543   5.788   6.274   7.476 -0.5181  0.5648  0.6813
  575MOL0     C77544   5.669   6.275   7.546 -0.6564  0.1729  0.2235
  575MOL0     C77545   5.350   6.117   7.856 -1.0357 -0.1723  0.0592
  575MOL0     C77546   5.265   6.064   7.751  1.2125  0.1473 -1.5959
  575MOL0     C77547   5.141   6.011   7.799  0.4688 -0.6765 -0.0966
  575MOL0     C77548   5.092   6.010   7.927  0.6418 -0.7636 -0.7148
  575MOL0     O77549   4.965   5.970   7.969  0.0453 -0.7772  1.0623
  575MOL0     C77550   4.915   5.857   7.891  0.7686 -0.0389  0.1596
  575MOL0     C77551   4.817   5.890   7.784  0.8297 -0.3021  0.5021
  575MOL0     C77552   4.704   5.786   7.779  0.5000 -0.0963  1.0655
  575MOL0     C77553   4.619   5.825   7.653  0.3944  0.1329  1.0882
  575MOL0     C77554   4.487   5.754   7.652 -0.0283 -0.2707 -0.2522
  575MOL0     C77555   4.380   5.713   7.671 -0.4189  0.3012  0.7118
  575MOL0     C77556   5.171   6.080   8.017 -0.3049 -0.0263 -0.4996
  575MOL0     C77557   5.298   6.127   7.986 -0.5014 -0.0375  0.1355
  575MOL0     H77558   5.765   6.052   7.784  1.7146 -0.1914 -1.0103
  575MOL0     H77559   5.962   6.053   7.667 -1.2590  0.2024  0.8807
  575MOL0     H77560   5.995   6.318   7.296 -0.3582  4.1672  2.5173
  575MOL0     H77561   6.106   6.364   7.420 -0.5714  0.0148 -0.3536
  575MOL0     H77562   6.237   6.146   7.365  0.6650 -0.0800  0.7273
  575MOL0     H77563   6.178   6.172   7.194  1.3323  1.7000 -0.8002
  575MOL0     H77564   6.279   6.382   7.178  0.5915 -0.7491 -0.4099
  575MOL0     H77565   6.314   6.407   7.355  4.0926 -0.6232  0.5145
  575MOL0     H77566   6.480   6.236   7.343  0.6859  1.2680 -0.1093
  575MOL0     H77567   6.416   6.200   7.176 -2.7140  1.7718 -0.9320
  575MOL0     H77568   6.535   6.381   7.090  0.7151  2.0815  0.6059
  575MOL0     H77569   6.515   6.484   7.229  4.5828  2.2638 -1.0111
  575MOL0     H77570   6.688   6.360   7.351  0.9538 -1.6714  0.1549
  575MOL0     H77571   6.715   6.261   7.215  1.1617 -0.4877  0.8361
  575MOL0     H77572   6.769   6.463   7.069  0.0560 -1.4156 -0.5135
  575MOL0     H77573   6.788   6.551   7.228  0.4426 -1.2362  1.2686
  575MOL0     H77574   6.969   6.426   7.285  1.1265  1.8054 -1.4581
  575MOL0     H77575   6.983   6.475   7.122 -1.5445 -0.5732 -2.6805
  575MOL0     H77576   6.928   6.290   6.919  1.6713  0.9177 -0.3435
  575MOL0     H77577   7.107   6.042   6.835  1.6870 -3.5377 -0.6272
  575MOL0     H77578   7.056   5.904   6.910  1.6040  0.8521 -2.1913
  575MOL0     H77579   6.932   5.974   6.687 -1.4749  1.2540 -0.9503
  575MOL0     H77580   6.858   6.104   6.788  0.0127 -0.2621  0.0341
  575MOL0     H77581   6.747   5.925   6.930 -2.3827 -2.9241 -0.7004
  575MOL0     H77582   6.828   5.807   6.840  0.7634  0.3068  0.5884
  575MOL0     H77583   6.607   5.831   6.746 -1.6427  1.7043 -0.1089
  575MOL0     H77584   6.692   5.946   6.641  1.8081  0.9815  0.9172
  575MOL0     H77585   6.416   6.209   6.872  2.3498 -1.1326 -0.5322
  575MOL0     H77586   6.097   6.260   6.866  1.0622  0.9516  2.2021
  575MOL0     H77587   6.252   6.342   6.885 -1.6099  1.8082  0.0492
  575MOL0     H77588   6.139   6.383   6.747 -0.8749  0.3405  0.0431
  575MOL0     H77589   5.900   6.275   6.324 -0.2565  1.7882 -1.1789
  575MOL0     H77590   5.668   6.311   6.273 -0.4317 -0.7915  0.2841
  575MOL0     H77591   5.428   6.172   6.528 -0.1157  0.0854  0.5388
  575MOL0     H77592   5.413   6.310   6.640 -0.7309  0.9211  0.3484
  575MOL0     H77593   5.230   6.251   6.397  1.4977 -0.1079 -0.5538
  575MOL0     H77594   5.205   6.196   6.563 -1.0043 -0.2290 -0.4300
  575MOL0     H77595   5.236   6.499   6.512  0.7210 -0.1421  0.8257
  575MOL0     H77596   5.169   6.415   6.650  0.9664  2.8446 -0.1508
  575MOL0     H77597   5.032   6.398   6.385 -0.2060  1.3012  0.2316
  575MOL0     H77598   4.992   6.328   6.540 -0.5855 -0.5137  0.3336
  575MOL0     H77599   4.863   6.550   6.469 -1.0969  2.0311  1.4547
  575MOL0     H77600   5.004   6.644   6.504  1.1604 -0.2879 -0.9212
  575MOL0     H77601   4.817   6.474   6.690  0.5349 -0.9156 -1.3208
  575MOL0     H77602   4.974   6.526   6.746  0.4861  0.2523 -1.2634
  575MOL0     H77603   4.801   6.754   6.642 -1.3295 -3.0905 -2.5949
  575MOL0     H77604   4.926   6.736   6.762  2.0297 -1.5703 -0.9516
  575MOL0     H77605   4.700   6.790   6.869 -4.0251 -1.3251  0.7027
  575MOL0     H77606   4.767   6.635   6.919  2.3404 -1.4936 -2.2029
  575MOL0     H77607   5.594   6.381   6.685  1.0478  2.7794  1.3922
  575MOL0     H77608   5.822   6.361   6.738 -2.5795  0.9480  1.0513
  575MOL0     H77609   6.252   5.964   6.480  0.5413 -1.8752  1.3560
  575MOL0     H77610   6.441   5.895   6.584  0.6738  0.5297 -0.6007
  575MOL0     H77611   5.792   6.334   7.386 -0.6774  0.3324  0.5158
  575MOL0     H77612   5.591   6.339   7.508 -1.4292 -0.3610  0.8768
  575MOL0     H77613   5.303   6.052   7.650  1.8326 -0.8759 -1.2503
  575MOL0     H77614   5.074   5.984   7.718  1.5783  0.3431 -1.4099
  575MOL0     H77615   4.999   5.803   7.846 -1.0038 -1.5334 -1.5100
  575MOL0     H77616   4.861   5.794   7.962  0.8748  0.3177  0.5634
  575MOL0     H77617   4.873   5.879   7.691  1.4000 -2.2053  1.0208
  575MOL0     H77618   4.788   5.995   7.783  2.3214  0.1659  2.2564
  575MOL0     H77619   4.651   5.789   7.875  0.2483  0.5984  0.9081
  575MOL0     H77620   4.748   5.686   7.767 -0.4991 -0.4045 -0.2801
  575MOL0     H77621   4.675   5.813   7.560 -1.0124 -1.9806  0.4424
  575MOL0     H77622   4.593   5.931   7.665  2.0140  0.8770 -1.2826
  575MOL0     H77623   4.277   5.683   7.678 -0.7990  0.7965 -1.8667
  575MOL0     H77624   5.138   6.086   8.120 -0.4679 -0.7294 -0.5043
  575MOL0     H77625   5.361   6.174   8.061  3.0778 -5.7027  1.2721
  576MOL0     O77626   3.026   3.841   4.088  0.9616 -0.2671 -0.5433
  576MOL0     C77627   3.065   3.960   4.086 -1.1063  1.0851  0.2648
  576MOL0     O77628   2.997   4.077   4.107  0.2667  0.4333  0.3817
  576MOL0     C77629   2.859   4.093   4.134  0.8242  0.0961 -0.7522
  576MOL0     C77630   2.812   4.223   4.121  0.1614 -0.6394  0.6573
  576MOL0     C77631   2.682   4.267   4.137  0.1347 -0.6655 -0.1310
  576MOL0     C77632   2.588   4.175   4.182 -0.3241  0.7422  0.8267
  576MOL0     O77633   2.459   4.218   4.204 -0.3926  0.2080  0.8966
  576MOL0     C77634   2.368   4.115   4.174  1.3835  0.5351  0.7471
  576MOL0     C77635   2.218   4.164   4.167  0.1350 -0.3608 -0.5111
  576MOL0     C77636   2.124   4.048   4.156 -0.5376  0.2819  0.4766
  576MOL0     C77637   2.027   4.035   4.272 -0.8875  0.7529  0.3664
  576MOL0     C77638   1.928   3.910   4.251 -0.4364 -0.7649 -0.2349
  576MOL0     C77639   1.827   3.920   4.138  0.3050 -0.4047 -0.2572
  576MOL0     C77640   1.747   4.050   4.135  1.5221 -0.4895 -0.0821
  576MOL0     C77641   1.675   4.075   4.261  0.2834 -1.5393 -0.1915
  576MOL0     N77642   1.586   3.972   4.312 -0.4468  0.6051  0.0134
  576MOL0     C77643   1.457   3.941   4.271 -0.5960  0.1701 -0.2288
  576MOL0     C77644   1.423   3.844   4.355 -0.4904 -0.4361  0.4215
  576MOL0     C77645   1.290   3.768   4.367 -0.3069 -0.3879 -0.5790
  576MOL0     C77646   1.179   3.853   4.426  0.6503 -0.2414  0.1471
  576MOL0     C77647   1.046   3.781   4.449  0.2658 -0.5706  0.4177
  576MOL0     C77648   1.028   3.751   4.597 -0.8443 -0.3319 -0.2180
  576MOL0     O77649   0.979   3.870   4.667 -0.5703 -0.7869 -0.0003
  576MOL0     C77650   0.913   3.854   4.786 -0.1973 -0.3350  0.3455
  576MOL0     C77651   0.781   3.896   4.802  0.2271 -0.1807 -0.1176
  576MOL0     C77652   0.714   3.870   4.919  1.1429  0.0535  0.2779
  576MOL0     C77653   0.568   3.904   4.921  0.4318 -0.5380  0.1524
  576MOL0     C77654   0.779   3.817   5.031 -0.4597  0.4731  0.8843
  576MOL0     C77655   0.724   3.809   5.167 -0.2587  0.1766 -0.1262
  576MOL0     O77656   0.731   3.683   5.235 -0.5219 -0.8124  0.2838
  576MOL0     C77657   0.673   3.682   5.359  0.1660 -0.5956  0.3954
  576MOL0     C77658   0.538   3.662   5.365 -0.0365  0.9570  0.4079
  576MOL0     C77659   0.465   3.671   5.489 -0.3422 -0.2530 -0.4748
  576MOL0     C77660   0.528   3.718   5.601  0.2949 -0.1107  0.0609
  576MOL0     O77661   0.441   3.726   5.709  0.0367 -0.0382  0.0483
  576MOL0     C77662   0.462   3.824   5.816  0.3414  0.1363  0.3274
  576MOL0     C77663   0.343   3.907   5.844  0.3019  0.6896  0.6456
  576MOL0     C77664   0.224   3.813   5.873  1.3689 -0.0186  0.0403
  576MOL0     C77665   0.113   3.886   5.945  0.5154 -0.0525  0.6880
  576MOL0     C77666   0.001   3.795   5.981  0.7812 -0.0109  0.2913
  576MOL0     C77667   0.008   3.729   6.118 -0.6608  0.0164 -0.7359
  576MOL0     C77668  -0.123   3.661   6.174 -0.5612 -0.5410 -0.4057
  576MOL0     C77669  -0.254   3.740   6.161  0.3562  0.2667 -0.1375
  576MOL0    Cl77670  -0.255   3.882   6.261 -0.0892 -0.1811  0.1264
  576MOL0     C77671   0.666   3.735   5.601 -0.9230 -0.2124 -0.0245
  576MOL0     C77672   0.742   3.719   5.480  1.0315 -0.2776  0.2322
  576MOL0     O77673   0.669   3.911   5.211  0.3079  0.1120 -0.2313
  576MOL0     C77674   0.907   3.764   5.014 -0.1293  0.7975 -0.3797
  576MOL0     C77675   0.972   3.788   4.889  0.2092 -0.3731 -0.5254
  576MOL0     N77676   1.523   3.823   4.447  0.0397 -0.0107  0.6248
  576MOL0     N77677   1.615   3.904   4.425 -0.1509  0.4229 -0.8795
  576MOL0     C77678   2.633   4.036   4.197 -0.5892  0.3189 -0.3790
  576MOL0     C77679   2.762   3.996   4.178 -0.5868  0.2690 -0.5528
  576MOL0     C77680   3.208   3.978   4.064 -0.6856 -0.4205  0.5040
  576MOL0     C77681   3.258   4.113   4.098  0.0497 -0.8456 -0.9589
  576MOL0     C77682   3.400   4.133   4.099  0.1667  0.4142  0.3903
  576MOL0     C77683   3.487   4.034   4.070 -0.1229  1.0356  0.1398
  576MOL0     O77684   3.622   4.060   4.092  0.0611 -0.0510  0.2673
  576MOL0     C77685   3.707   3.947   4.086 -0.0476  1.0992  0.3352
  576MOL0     C77686   3.833   3.961   4.171 -0.2170 -0.3962  0.4263
  576MOL0     C77687   3.881   3.822   4.207 -0.8255 -0.0579  0.1109
  576MOL0     C77688   3.985   3.844   4.307 -0.9220  0.2067 -1.2033
  576MOL0     C77689   4.061   3.724   4.347 -0.2989  0.6340  0.4962
  576MOL0     C77690   4.130   3.623   4.362 -0.6651  0.1995 -0.2790
  576MOL0     C77691   3.436   3.910   4.016  0.5158  0.5298 -0.7583
  576MOL0     C77692   3.299   3.881   4.025  0.0438  0.2315 -0.0292
  576MOL0     H77693   2.882   4.301   4.092 -0.1496 -0.0148  1.5252
  576MOL0     H77694   2.645   4.367   4.113 -1.4356 -1.2750 -0.3629
  576MOL0     H77695   2.382   4.056   4.083 -4.5592  0.7126 -0.7029
  576MOL0     H77696   2.375   4.034   4.247 -5.2706 -0.4489  0.9532
  576MOL0     H77697   2.202   4.211   4.264  0.3035  0.4125 -0.8480
  576MOL0     H77698   2.212   4.249   4.098 -1.3069  1.5722  1.8558
  576MOL0     H77699   2.059   4.047   4.068 -1.8038 -0.9292  1.4055
  576MOL0     H77700   2.185   3.958   4.142  0.8297  0.9467  1.8611
  576MOL0     H77701   2.086   4.025   4.364  0.4664 -0.5189 -0.5843
  576MOL0     H77702   1.965   4.124   4.284 -2.2332 -0.2575  1.3487
  576MOL0     H77703   1.992   3.827   4.219 -0.0682 -0.7324  0.3936
  576MOL0     H77704   1.883   3.895   4.349 -0.5912  2.2546  0.2396
  576MOL0     H77705   1.878   3.897   4.043  0.0720  0.9349 -0.7315
  576MOL0     H77706   1.753   3.841   4.152 -1.0853  1.0209  0.7766
  576MOL0     H77707   1.806   4.141   4.119 -2.0783  1.7505 -1.9921
  576MOL0     H77708   1.673   4.048   4.055 -0.7706  0.7768  1.8899
  576MOL0     H77709   1.614   4.164   4.244 -0.0833 -1.4130  1.5799
  576MOL0     H77710   1.750   4.099   4.337 -1.1455  1.3444  0.4379
  576MOL0     H77711   1.398   3.978   4.188  0.3067  1.8754 -0.1488
  576MOL0     H77712   1.274   3.723   4.268  1.8186 -1.9600 -0.2661
  576MOL0     H77713   1.312   3.679   4.426  0.0226  1.4396  2.2527
  576MOL0     H77714   1.154   3.926   4.349  1.0798 -2.2358 -1.9810
  576MOL0     H77715   1.206   3.912   4.514 -0.0854  1.3429 -0.6655
  576MOL0     H77716   1.043   3.692   4.386 -0.2411 -0.7923  0.7465
  576MOL0     H77717   0.959   3.844   4.429  1.0277 -0.2760 -2.2424
  576MOL0     H77718   1.125   3.728   4.641 -0.8465 -0.6844 -0.3928
  576MOL0     H77719   0.962   3.666   4.618  0.1339 -1.4375 -1.4564
  576MOL0     H77720   0.726   3.953   4.728  2.2760 -1.7046 -3.0437
  576MOL0     H77721   0.519   3.814   4.959 -2.1204  0.8534  0.3738
  576MOL0     H77722   0.549   3.994   4.981  1.9282  1.1772 -1.7736
  576MOL0     H77723   0.513   3.919   4.827  0.1706 -0.6443  0.2874
  576MOL0     H77724   0.489   3.641   5.270  2.3643  4.8615 -1.9569
  576MOL0     H77725   0.359   3.648   5.492 -0.1578 -2.5099  6.1140
  576MOL0     H77726   0.481   3.766   5.907 -4.2857 -0.2978  1.2956
  576MOL0     H77727   0.544   3.890   5.789  1.5020 -1.8459 -1.3107
  576MOL0     H77728   0.363   3.976   5.926 -0.5170  1.2701  0.3611
  576MOL0     H77729   0.315   3.962   5.754  0.4141  3.6052  2.2755
  576MOL0     H77730   0.258   3.735   5.942  2.0184  0.0408 -0.2085
  576MOL0     H77731   0.181   3.765   5.784  0.6619 -0.3814  0.5672
  576MOL0     H77732   0.163   3.923   6.034 -0.5594 -2.4777  2.4177
  576MOL0     H77733   0.076   3.966   5.880  0.8285 -2.5575 -2.9144
  576MOL0     H77734  -0.007   3.716   5.905 -0.1439 -0.0697  0.4350
  576MOL0     H77735  -0.091   3.854   5.981  1.6606  1.4375 -1.4150
  576MOL0     H77736   0.092   3.659   6.130  0.6986  1.9384  1.9460
  576MOL0     H77737   0.030   3.812   6.186 -0.7914 -0.0716 -0.5862
  576MOL0     H77738  -0.108   3.639   6.280 -1.1386  0.7108 -0.0345
  576MOL0     H77739  -0.137   3.567   6.121  1.3437 -0.2434 -1.5338
  576MOL0     H77740  -0.338   3.682   6.200 -0.3783  2.3761  1.6057
  576MOL0     H77741  -0.282   3.774   6.061 -1.1677  1.7136  0.7510
  576MOL0     H77742   0.720   3.772   5.687 -2.0160  0.5769  0.3373
  576MOL0     H77743   0.845   3.751   5.472  0.7275  1.3395  1.9860
  576MOL0     H77744   0.949   3.700   5.090  4.8525 -1.8784 -4.7565
  576MOL0     H77745   1.070   3.744   4.879  0.5166  0.4480 -1.2317
  576MOL0     H77746   2.558   3.960   4.219  0.9978 -1.0002  0.7033
  576MOL0     H77747   2.787   3.890   4.177 -0.2829  0.3164  0.6819
  576MOL0     H77748   3.200   4.200   4.126 -0.4215 -1.0338 -1.3369
  576MOL0     H77749   3.436   4.231   4.128 -2.4445  2.2799 -2.1606
  576MOL0     H77750   3.657   3.859   4.129  1.2080 -0.1144 -0.5825
  576MOL0     H77751   3.732   3.926   3.982 -2.0026 -0.1537  0.0648
  576MOL0     H77752   3.803   4.012   4.263 -1.6840 -0.5181  0.0355
  576MOL0     H77753   3.906   4.024   4.119 -0.5627 -0.1435  0.2414
  576MOL0     H77754   3.919   3.781   4.113  0.5014  3.6262 -1.1266
  576MOL0     H77755   3.809   3.752   4.253  0.9868 -1.6181  0.6995
  576MOL0     H77756   3.937   3.875   4.401 -0.5908 -0.2892 -0.8637
  576MOL0     H77757   4.062   3.917   4.279  1.8565 -0.9601  2.4899
  576MOL0     H77758   4.172   3.526   4.380 -0.0350  0.6507  0.7665
  576MOL0     H77759   3.507   3.837   3.979 -0.5271 -0.5973 -0.6004
  576MOL0     H77760   3.265   3.780   4.009  0.2969 -0.0088  0.8923
  577MOL0     O77761   2.294   5.139   4.015 -0.2915  0.1971 -0.0607
  577MOL0     C77762   2.364   5.208   4.087 -0.0913  0.1963 -0.4268
  577MOL0     O77763   2.332   5.248   4.215  0.1407 -0.1244 -0.3285
  577MOL0     C77764   2.209   5.229   4.284  0.1645  0.2054 -0.2035
  577MOL0     C77765   2.089   5.223   4.214  0.0181  1.5497 -0.0804
  577MOL0     C77766   1.973   5.183   4.282 -0.0215 -0.1067 -0.5992
  577MOL0     C77767   1.972   5.155   4.418 -0.2245  0.2367 -0.4653
  577MOL0     O77768   1.863   5.134   4.498  0.0906 -0.0096 -0.0710
  577MOL0     C77769   1.734   5.181   4.457  0.1720  0.5825  0.2999
  577MOL0     C77770   1.629   5.140   4.568 -0.0774 -0.4206  0.3344
  577MOL0     C77771   1.484   5.202   4.549 -0.3238 -0.5094 -0.3351
  577MOL0     C77772   1.387   5.143   4.656 -0.5092  1.0246  0.4736
  577MOL0     C77773   1.242   5.198   4.650 -0.5261 -0.8299  0.3176
  577MOL0     C77774   1.159   5.155   4.529 -0.7094 -0.2994  0.4123
  577MOL0     C77775   1.029   5.244   4.517 -0.8320 -0.7531 -0.4381
  577MOL0     C77776   0.940   5.234   4.633 -0.1130  0.0843  0.2822
  577MOL0     N77777   0.820   5.321   4.614  0.1371  0.2704  0.3221
  577MOL0     C77778   0.823   5.452   4.637 -0.3437 -0.2458  0.0657
  577MOL0     C77779   0.721   5.508   4.562  0.2557  0.0950 -0.0055
  577MOL0     C77780   0.685   5.655   4.547 -0.2231  0.8112 -0.3962
  577MOL0     C77781   0.620   5.718   4.670 -0.6137 -0.2257 -0.0900
  577MOL0     C77782   0.462   5.701   4.674 -0.0080 -0.4780 -0.0867
  577MOL0     C77783   0.416   5.738   4.816  0.0419  0.7939  0.6210
  577MOL0     O77784   0.297   5.661   4.851 -0.0006 -0.4684 -0.1060
  577MOL0     C77785   0.176   5.695   4.789 -1.0938 -0.6498 -1.0942
  577MOL0     C77786   0.069   5.607   4.802 -0.4322 -0.2851 -0.6374
  577MOL0     C77787  -0.058   5.643   4.748 -0.0425  0.2464 -0.6664
  577MOL0     C77788  -0.170   5.557   4.796  0.5574  0.1595  0.4653
  577MOL0     C77789  -0.075   5.752   4.659 -0.3394  0.4383  0.0653
  577MOL0     C77790  -0.199   5.795   4.581  0.1396 -0.3049 -0.1396
  577MOL0     O77791  -0.314   5.727   4.614 -0.0085  0.2862  0.4476
  577MOL0     C77792  -0.440   5.761   4.568 -0.6144  0.2001  0.0515
  577MOL0     C77793  -0.540   5.670   4.613  0.8086 -0.3957 -0.1370
  577MOL0     C77794  -0.677   5.697   4.583  0.2144 -1.4127  0.8493
  577MOL0     C77795  -0.710   5.807   4.503  0.1195 -0.7257  0.0841
  577MOL0     O77796  -0.850   5.827   4.491 -0.3885 -0.3467  0.6560
  577MOL0     C77797  -0.910   5.948   4.446  0.2895  0.0787 -0.0128
  577MOL0     C77798  -1.068   5.937   4.439 -0.5529  0.4710  0.9639
  577MOL0     C77799  -1.137   6.074   4.419 -0.1428 -0.0864  0.3156
  577MOL0     C77800  -1.285   6.055   4.385 -0.1302 -0.3818 -0.3378
  577MOL0     C77801  -1.369   6.178   4.365 -0.0084 -0.6503  0.7278
  577MOL0     C77802  -1.502   6.131   4.296 -0.3668  0.1001  0.4910
  577MOL0     C77803  -1.595   6.241   4.268  0.2556 -0.4012 -0.1387
  577MOL0     C77804  -1.728   6.190   4.216 -0.5091  0.8130  0.2965
  577MOL0    Cl77805  -1.712   6.105   4.054  0.3591 -0.2587  0.1433
  577MOL0     C77806  -0.618   5.889   4.459 -0.7464  0.3171 -0.3672
  577MOL0     C77807  -0.481   5.870   4.485  0.8392 -0.0979 -0.6224
  577MOL0     O77808  -0.188   5.866   4.480 -0.8482  0.0004  0.1589
  577MOL0     C77809   0.045   5.818   4.634  0.8861  0.2169  0.2487
  577MOL0     C77810   0.164   5.794   4.699  1.0316 -0.9635  0.4588
  577MOL0     N77811   0.664   5.404   4.489 -0.0262 -0.9570  0.1055
  577MOL0     N77812   0.718   5.293   4.528  0.5003 -0.5763  0.5676
  577MOL0     C77813   2.093   5.163   4.487  0.1269  0.6432  0.1407
  577MOL0     C77814   2.208   5.202   4.424 -0.3028 -0.1401 -0.1477
  577MOL0     C77815   2.497   5.229   4.031 -0.2471  0.4294 -0.5978
  577MOL0     C77816   2.510   5.203   3.894 -0.5781 -0.0793  0.2502
  577MOL0     C77817   2.629   5.252   3.836  0.0054 -0.0601 -0.0417
  577MOL0     C77818   2.725   5.321   3.901  0.0964 -0.0100 -0.9082
  577MOL0     O77819   2.835   5.354   3.833  0.0507  0.0083 -0.0668
  577MOL0     C77820   2.926   5.241   3.811 -0.3242  0.3669 -0.6382
  577MOL0     C77821   3.012   5.206   3.932 -0.3046 -0.1368 -0.2279
  577MOL0     C77822   3.140   5.290   3.943  0.3599  0.3779 -0.5693
  577MOL0     C77823   3.213   5.253   4.068 -0.2333 -0.2092  0.2799
  577MOL0     C77824   3.343   5.321   4.065 -1.1888  0.7963 -0.5132
  577MOL0     C77825   3.452   5.362   4.027  0.2088 -0.3298 -0.1384
  577MOL0     C77826   2.713   5.350   4.042 -0.1308  0.1532 -0.2647
  577MOL0     C77827   2.600   5.302   4.101 -0.1517  0.1807 -1.4054
  577MOL0     H77828   2.079   5.233   4.106 -1.1912 -1.6816 -0.3634
  577MOL0     H77829   1.884   5.175   4.221 -1.7442 -1.7942  1.9591
  577MOL0     H77830   1.755   5.288   4.467  2.9105  0.0761  0.7712
  577MOL0     H77831   1.711   5.144   4.357 -0.6311  0.8634  0.3727
  577MOL0     H77832   1.627   5.031   4.579 -0.8093 -0.2264  2.7853
  577MOL0     H77833   1.671   5.171   4.664 -3.8266  0.7188  1.7893
  577MOL0     H77834   1.492   5.311   4.558  1.2319 -0.4795 -1.6203
  577MOL0     H77835   1.448   5.180   4.449 -1.8429 -3.3668  0.7488
  577MOL0     H77836   1.379   5.036   4.632 -1.4373  1.3080 -0.5357
  577MOL0     H77837   1.418   5.154   4.761  0.5974 -0.8318  0.3840
  577MOL0     H77838   1.193   5.176   4.745 -0.4233  2.0134  1.1317
  577MOL0     H77839   1.260   5.306   4.644 -1.9166 -0.4032  2.7404
  577MOL0     H77840   1.220   5.154   4.438 -1.5297  1.2559 -0.1931
  577MOL0     H77841   1.133   5.050   4.548  1.4266 -0.5781  2.1220
  577MOL0     H77842   1.067   5.346   4.501 -0.6958 -0.8998 -1.0965
  577MOL0     H77843   0.968   5.225   4.429 -1.8598  1.1404 -0.1838
  577MOL0     H77844   0.994   5.247   4.727  0.0434 -1.2412  0.3817
  577MOL0     H77845   0.904   5.131   4.631  0.7173 -0.2093  0.0411
  577MOL0     H77846   0.887   5.513   4.701 -0.2659  0.8146 -0.9857
  577MOL0     H77847   0.774   5.708   4.514  0.9568 -1.0737 -0.4002
  577MOL0     H77848   0.609   5.654   4.468 -0.8975 -1.5476  0.1812
  577MOL0     H77849   0.630   5.827   4.665 -0.9939 -0.0823  1.5359
  577MOL0     H77850   0.675   5.689   4.760  1.5373 -1.2697 -1.6506
  577MOL0     H77851   0.439   5.595   4.659  1.4611 -1.3486  2.9840
  577MOL0     H77852   0.414   5.765   4.599  1.0830 -0.5879 -0.8931
  577MOL0     H77853   0.408   5.846   4.827  3.0258  1.2357 -0.6527
  577MOL0     H77854   0.494   5.704   4.886 -0.1244 -1.9074 -0.3628
  577MOL0     H77855   0.076   5.518   4.864  1.5467  0.9958  1.1152
  577MOL0     H77856  -0.247   5.610   4.852 -2.3216 -2.7487 -0.4464
  577MOL0     H77857  -0.216   5.513   4.707 -0.6122 -1.5704  1.8556
  577MOL0     H77858  -0.136   5.476   4.861 -2.6235 -1.9676 -0.3052
  577MOL0     H77859  -0.520   5.578   4.666  1.8063 -0.9297 -1.3854
  577MOL0     H77860  -0.759   5.634   4.615 -0.0457 -1.5088  0.0218
  577MOL0     H77861  -0.871   6.036   4.497  1.2633 -0.5436  0.3329
  577MOL0     H77862  -0.887   5.956   4.340 -0.9996 -2.1908 -0.5388
  577MOL0     H77863  -1.087   5.869   4.356  1.8921  1.9779 -0.9939
  577MOL0     H77864  -1.102   5.896   4.535 -1.5239  1.6607  1.1462
  577MOL0     H77865  -1.086   6.136   4.345 -0.5556 -0.2262 -0.0907
  577MOL0     H77866  -1.121   6.139   4.505  0.3681 -0.5926  0.6062
  577MOL0     H77867  -1.290   5.996   4.292  0.0229  0.2720 -0.7699
  577MOL0     H77868  -1.326   5.985   4.458  0.0203  0.2043  0.3110
  577MOL0     H77869  -1.318   6.252   4.302 -1.3850  0.1438  0.5047
  577MOL0     H77870  -1.392   6.214   4.465 -0.2877 -0.1846  0.5015
  577MOL0     H77871  -1.481   6.079   4.203  0.3613  1.0423  0.1075
  577MOL0     H77872  -1.548   6.065   4.370  0.7077  0.4674  1.5299
  577MOL0     H77873  -1.553   6.318   4.203  1.3434 -0.1939  0.7726
  577MOL0     H77874  -1.620   6.293   4.361  0.0120  0.8402 -0.8792
  577MOL0     H77875  -1.798   6.273   4.218 -2.2977 -0.6402  0.9236
  577MOL0     H77876  -1.775   6.124   4.289 -2.6002  2.8438  0.8901
  577MOL0     H77877  -0.636   5.973   4.393 -0.6673 -0.8891 -1.9955
  577MOL0     H77878  -0.416   5.950   4.454  1.7384 -0.8784 -0.8074
  577MOL0     H77879   0.059   5.902   4.566 -0.0231  2.4849  2.6894
  577MOL0     H77880   0.234   5.867   4.661  0.9971  0.2429  2.5417
  577MOL0     H77881   2.095   5.133   4.591  1.0659  1.5345  0.3937
  577MOL0     H77882   2.297   5.190   4.485  0.3502 -0.2255 -1.0948
  577MOL0     H77883   2.436   5.154   3.832 -0.8008  1.8437 -1.1043
  577MOL0     H77884   2.637   5.219   3.733  0.1067 -1.1876  0.3132
  577MOL0     H77885   2.869   5.155   3.775  0.3567 -0.6565  0.6379
  577MOL0     H77886   2.995   5.263   3.728  0.5314  1.5470  0.3282
  577MOL0     H77887   3.036   5.099   3.928  1.1017  0.1971 -1.6384
  577MOL0     H77888   2.947   5.215   4.020 -0.9199  1.7349 -0.8302
  577MOL0     H77889   3.113   5.395   3.950 -0.3765  0.2236 -1.0092
  577MOL0     H77890   3.203   5.278   3.854  0.9800  0.4481 -0.1454
  577MOL0     H77891   3.239   5.147   4.067  0.3501 -0.0683  0.5826
  577MOL0     H77892   3.160   5.281   4.159  1.5971 -0.8212  1.5978
  577MOL0     H77893   3.547   5.378   3.979  0.0066 -0.3075 -0.5324
  577MOL0     H77894   2.787   5.406   4.098 -2.8149  3.4994  0.2676
  577MOL0     H77895   2.595   5.311   4.209 -0.4048 -1.7269 -1.2235
  578MOL0     O77896  11.224   0.475   6.522 -0.0896  0.2240  0.4247
  578MOL0     C77897  11.315   0.419   6.589 -0.0783  0.6673 -0.5368
  578MOL0     O77898  11.295   0.325   6.693  0.4376 -0.2409  0.2901
  578MOL0     C77899  11.170   0.299   6.729 -0.7309 -0.5043 -0.3013
  578MOL0     C77900  11.067   0.258   6.645 -0.5505  1.5185  0.1640
  578MOL0     C77901  10.950   0.213   6.693 -0.1984  0.1152 -0.4862
  578MOL0     C77902  10.920   0.228   6.825  0.0847 -0.5449  0.1408
  578MOL0     O77903  10.802   0.182   6.886  0.4208 -0.1684 -0.9210
  578MOL0     C77904  10.730   0.073   6.827 -1.1299 -0.4297 -0.6590
  578MOL0     C77905  10.630   0.002   6.932 -0.9170  0.6734  0.0580
  578MOL0     C77906  10.524   0.101   6.978 -0.1601 -0.3659 -0.8574
  578MOL0     C77907  10.408   0.029   7.058  0.4662 -0.7009 -0.0776
  578MOL0     C77908  10.300   0.138   7.088  0.2256  0.4977  0.9699
  578MOL0     C77909  10.171   0.070   7.144 -0.5789  0.7303  0.5713
  578MOL0     C77910  10.065   0.175   7.163 -0.4480  0.1148 -0.4460
  578MOL0     C77911   9.928   0.110   7.172 -0.2390 -0.2024  0.1337
  578MOL0     N77912   9.898   0.045   7.309 -1.0444  0.0015  1.4316
  578MOL0     C77913   9.967  -0.063   7.364  0.6635  0.2704 -0.2096
  578MOL0     C77914   9.931  -0.062   7.495  0.5225 -0.1090  0.4102
  578MOL0     C77915   9.987  -0.145   7.606  0.1716 -0.5960 -0.7252
  578MOL0     C77916   9.948  -0.291   7.585 -0.4881  0.1642  0.6002
  578MOL0     C77917   9.800  -0.307   7.592 -0.4887 -0.1058 -0.0587
  578MOL0     C77918   9.744  -0.286   7.730  0.1535 -0.0160  0.7133
  578MOL0     O77919   9.605  -0.323   7.724 -0.1611 -0.1504 -1.0236
  578MOL0     C77920   9.500  -0.244   7.689 -0.1122 -0.1722  0.7783
  578MOL0     C77921   9.371  -0.289   7.724 -0.7527  0.6390  0.9343
  578MOL0     C77922   9.256  -0.211   7.691  0.4038 -0.5373  0.1053
  578MOL0     C77923   9.129  -0.267   7.732 -0.1541 -0.3786  0.0257
  578MOL0     C77924   9.262  -0.085   7.622 -0.3716  1.0533  0.0501
  578MOL0     C77925   9.148  -0.004   7.588 -0.7690  0.8324 -0.2802
  578MOL0     O77926   9.180   0.121   7.527  0.1004 -0.2619  0.3317
  578MOL0     C77927   9.091   0.173   7.434  0.1405  0.3919  0.0165
  578MOL0     C77928   8.969   0.114   7.389 -0.1054 -0.9557 -1.4528
  578MOL0     C77929   8.892   0.174   7.290  0.0856  0.4346  0.4901
  578MOL0     C77930   8.935   0.293   7.230  0.5169  0.0319  0.3410
  578MOL0     O77931   8.871   0.355   7.129 -0.1865 -0.6272 -0.3142
  578MOL0     C77932   8.731   0.319   7.110  0.2475  0.0360 -0.0096
  578MOL0     C77933   8.663   0.439   7.041  0.4317 -0.1416 -0.3245
  578MOL0     C77934   8.518   0.420   6.996 -0.2351  0.1155  0.1767
  578MOL0     C77935   8.468   0.548   6.932  0.2558 -0.0157 -0.3390
  578MOL0     C77936   8.340   0.522   6.853  0.0637 -0.0239  0.1239
  578MOL0     C77937   8.312   0.651   6.779  0.3136 -0.9037 -0.2808
  578MOL0     C77938   8.179   0.644   6.704  0.4258  0.2696 -0.7347
  578MOL0     C77939   8.137   0.767   6.618 -0.2100 -0.2461 -1.1174
  578MOL0    Cl77940   7.983   0.714   6.542  0.3231  0.3055 -0.3406
  578MOL0     C77941   9.058   0.348   7.265 -0.5570  1.2164  0.0770
  578MOL0     C77942   9.139   0.278   7.359  0.4376 -0.4379 -0.1974
  578MOL0     O77943   9.036  -0.045   7.612 -0.1185  0.2670 -0.1833
  578MOL0     C77944   9.392  -0.043   7.590 -0.7940  0.5240 -0.4061
  578MOL0     C77945   9.507  -0.124   7.619 -0.2849  0.3397 -0.3166
  578MOL0     N77946   9.842   0.040   7.517 -0.1538  0.3952  0.6495
  578MOL0     N77947   9.828   0.104   7.403 -0.0196  0.0444 -0.0230
  578MOL0     C77948  11.010   0.278   6.912 -0.3847 -0.3888  0.7233
  578MOL0     C77949  11.140   0.306   6.875  0.0210  0.1253  0.1574
  578MOL0     C77950  11.454   0.447   6.548 -0.4054 -0.1470  0.1387
  578MOL0     C77951  11.567   0.388   6.616 -0.0536  0.8091 -0.6844
  578MOL0     C77952  11.699   0.410   6.583  0.7686  0.2874 -0.4246
  578MOL0     C77953  11.722   0.482   6.464 -0.3871  0.1893  0.6522
  578MOL0     O77954  11.849   0.494   6.408  0.0571 -0.1316  0.0151
  578MOL0     C77955  11.929   0.606   6.444 -0.5069  0.4165  0.2198
  578MOL0     C77956  12.063   0.583   6.371 -0.6407 -0.6260 -0.4264
  578MOL0     C77957  12.173   0.691   6.398 -0.4684 -1.0421 -0.2096
  578MOL0     C77958  12.294   0.697   6.295 -0.2235 -0.4032 -0.3524
  578MOL0     C77959  12.395   0.792   6.347 -0.2350 -1.1315 -0.3887
  578MOL0     C77960  12.483   0.869   6.376 -0.7108 -0.0045  0.0917
  578MOL0     C77961  11.620   0.542   6.400  0.6278 -0.4146  0.1473
  578MOL0     C77962  11.488   0.532   6.440  0.7078  0.6205 -0.5947
  578MOL0     H77963  11.088   0.237   6.541  1.2848 -1.3468  1.0040
  578MOL0     H77964  10.878   0.165   6.627  0.9127  0.1458 -1.7561
  578MOL0     H77965  10.677   0.113   6.740  2.6097 -0.2964 -3.0705
  578MOL0     H77966  10.800  -0.000   6.786 -0.6198 -0.4315  0.2019
  578MOL0     H77967  10.579  -0.082   6.885  2.3908 -1.8430  0.6586
  578MOL0     H77968  10.686  -0.037   7.017  1.2946  2.2441 -0.5702
  578MOL0     H77969  10.577   0.177   7.035  0.5775 -1.1909 -0.4095
  578MOL0     H77970  10.482   0.142   6.886 -2.6353  1.9998  1.1694
  578MOL0     H77971  10.368  -0.044   6.987 -2.3872  2.0060 -1.5377
  578MOL0     H77972  10.437  -0.009   7.156 -0.2377 -0.8939  0.0631
  578MOL0     H77973  10.342   0.213   7.155  0.3879  1.0141  0.3086
  578MOL0     H77974  10.264   0.184   6.995  0.8966 -1.0262 -0.0952
  578MOL0     H77975  10.133  -0.011   7.081 -3.9187  0.8824  2.1577
  578MOL0     H77976  10.202   0.032   7.243  1.7996 -0.0814 -0.4117
  578MOL0     H77977  10.071   0.225   7.260 -1.5680 -4.3844  2.2642
  578MOL0     H77978  10.058   0.239   7.075  1.4959  1.2981  0.2093
  578MOL0     H77979   9.922   0.042   7.087  0.2207  0.4267 -0.4203
  578MOL0     H77980   9.864   0.196   7.148  1.7095  0.8987 -1.4326
  578MOL0     H77981  10.041  -0.129   7.318 -1.9418 -1.3982 -2.2847
  578MOL0     H77982  10.095  -0.128   7.617  0.2650 -0.5475 -1.6668
  578MOL0     H77983   9.945  -0.102   7.698  1.6745  0.6621 -0.5804
  578MOL0     H77984   9.995  -0.353   7.662 -3.6411 -1.3367  1.4669
  578MOL0     H77985   9.989  -0.322   7.489 -1.6080 -2.7826  0.9528
  578MOL0     H77986   9.772  -0.412   7.577 -0.2416 -0.4128  1.5078
  578MOL0     H77987   9.750  -0.241   7.520 -2.1949  2.8221  3.5339
  578MOL0     H77988   9.754  -0.179   7.747 -1.8786 -0.0169  2.2958
  578MOL0     H77989   9.788  -0.345   7.811  1.0575  1.0165  0.9947
  578MOL0     H77990   9.360  -0.386   7.771 -0.0630  1.1373  2.1503
  578MOL0     H77991   9.062  -0.282   7.647  1.6003 -3.1292 -1.0098
  578MOL0     H77992   9.150  -0.364   7.779  1.3001  1.0591  2.5461
  578MOL0     H77993   9.088  -0.202   7.810  0.6533 -1.2357  1.1985
  578MOL0     H77994   8.917   0.031   7.436  0.0472 -0.3738 -0.2060
  578MOL0     H77995   8.801   0.121   7.263 -0.0221  0.8344  0.0588
  578MOL0     H77996   8.745   0.239   7.036  0.6926 -0.3371  0.4706
  578MOL0     H77997   8.676   0.289   7.200  4.0690  0.0796  2.5553
  578MOL0     H77998   8.656   0.525   7.108 -0.9689 -1.1978  0.9549
  578MOL0     H77999   8.727   0.477   6.961  1.2621  1.3720  0.9987
  578MOL0     H78000   8.460   0.395   7.085  0.7088 -1.0596  0.4865
  578MOL0     H78001   8.503   0.347   6.915 -1.0815  0.8270 -0.3266
  578MOL0     H78002   8.441   0.620   7.011 -1.3888  1.4059 -2.1057
  578MOL0     H78003   8.548   0.590   6.871 -0.7797  1.6169 -0.6470
  578MOL0     H78004   8.267   0.503   6.933  1.0965  0.9711  1.3270
  578MOL0     H78005   8.344   0.440   6.781 -0.7840 -0.3497  0.4325
  578MOL0     H78006   8.312   0.732   6.853 -3.8214 -0.6478 -0.3196
  578MOL0     H78007   8.395   0.663   6.710 -0.2539 -2.7809 -1.3504
  578MOL0     H78008   8.093   0.634   6.772  2.0438 -0.2605  1.3126
  578MOL0     H78009   8.184   0.562   6.632  0.3768 -0.2679 -0.1338
  578MOL0     H78010   8.211   0.798   6.544 -0.9111  3.4956 -0.4519
  578MOL0     H78011   8.122   0.850   6.688  1.7468 -2.2187  1.8975
  578MOL0     H78012   9.101   0.432   7.211  2.3590 -1.9187 -3.1102
  578MOL0     H78013   9.230   0.327   7.390  0.6071 -0.0915 -1.1972
  578MOL0     H78014   9.396   0.062   7.565 -1.4640  0.2470 -1.7381
  578MOL0     H78015   9.605  -0.078   7.618  1.6749 -3.1568  2.9557
  578MOL0     H78016  10.975   0.295   7.014 -1.2387  0.8585  0.2454
  578MOL0     H78017  11.222   0.333   6.940 -0.3086 -0.6620  0.9186
  578MOL0     H78018  11.553   0.326   6.704 -2.8981  0.0448 -1.5593
  578MOL0     H78019  11.788   0.381   6.639 -1.3706 -1.8296  2.1081
  578MOL0     H78020  11.882   0.703   6.425 -1.1835  0.3361  1.3653
  578MOL0     H78021  11.942   0.613   6.552  0.7163  2.6023 -0.0204
  578MOL0     H78022  12.049   0.587   6.263  1.7053 -0.8513 -0.8052
  578MOL0     H78023  12.097   0.485   6.404  0.8761  0.3196  1.0283
  578MOL0     H78024  12.206   0.663   6.499 -0.4831 -1.7253 -0.3866
  578MOL0     H78025  12.124   0.787   6.383 -0.0744 -1.1068 -2.2243
  578MOL0     H78026  12.254   0.728   6.198 -3.1280 -0.5068  0.7078
  578MOL0     H78027  12.336   0.597   6.286 -0.6094 -0.6175  0.1676
  578MOL0     H78028  12.570   0.926   6.402 -1.0602  1.0062 -0.8786
  578MOL0     H78029  11.632   0.594   6.305 -1.9406 -2.0740 -1.2093
  578MOL0     H78030  11.409   0.574   6.378  0.6250  1.7184  0.2131
  579MOL0     O78031   2.304  10.766   6.826 -0.4930  0.1922  0.3981
  579MOL0     C78032   2.354  10.746   6.713  0.2623 -0.5597 -0.5741
  579MOL0     O78033   2.282  10.738   6.597  0.0806 -0.5288 -0.1746
  579MOL0     C78034   2.148  10.748   6.602 -0.2985 -0.3847 -0.2799
  579MOL0     C78035   2.075  10.631   6.573 -0.4939 -0.3716 -0.5037
  579MOL0     C78036   1.935  10.635   6.584  0.8356  0.7212 -0.0202
  579MOL0     C78037   1.867  10.748   6.635  0.6860  0.7745  0.3485
  579MOL0     O78038   1.730  10.755   6.651  0.7998  0.2445  0.0698
  579MOL0     C78039   1.668  10.630   6.664  0.3317 -0.4895  0.5461
  579MOL0     C78040   1.522  10.670   6.697 -0.5295 -0.1526 -0.0482
  579MOL0     C78041   1.425  10.565   6.675 -0.1639 -0.2244  0.3304
  579MOL0     C78042   1.303  10.590   6.763 -0.6238  0.2258  0.1301
  579MOL0     C78043   1.177  10.529   6.708 -0.2508 -0.5775 -0.1546
  579MOL0     C78044   1.073  10.502   6.822 -0.4485 -0.0630 -0.1165
  579MOL0     C78045   0.937  10.457   6.764  0.4327  0.4602 -0.0894
  579MOL0     C78046   0.861  10.569   6.685 -0.4546  0.6209 -0.7536
  579MOL0     N78047   0.722  10.527   6.655 -0.8813  0.0159  0.3874
  579MOL0     C78048   0.609  10.608   6.666  0.8099 -0.7572  1.0076
  579MOL0     C78049   0.512  10.547   6.592  0.1743  0.4250 -0.1721
  579MOL0     C78050   0.364  10.585   6.581 -0.0125 -0.0016 -0.3330
  579MOL0     C78051   0.279  10.491   6.666  0.0212 -0.8571 -0.6585
  579MOL0     C78052   0.134  10.529   6.621 -0.6484  0.6590  0.5913
  579MOL0     C78053   0.016  10.437   6.674  0.4747  0.2014 -0.1924
  579MOL0     O78054  -0.090  10.481   6.590  0.2914 -0.0698  0.3275
  579MOL0     C78055  -0.211  10.409   6.598  0.3021  0.6819 -0.1331
  579MOL0     C78056  -0.244  10.326   6.702  0.3780 -0.3299  0.1776
  579MOL0     C78057  -0.368  10.254   6.704 -0.3317 -0.1157  0.4947
  579MOL0     C78058  -0.396  10.165   6.824 -0.6970  0.6201 -0.9160
  579MOL0     C78059  -0.459  10.269   6.590  0.1268 -0.9024 -0.3290
  579MOL0     C78060  -0.593  10.207   6.594  0.5772  1.3387 -0.1812
  579MOL0     O78061  -0.665  10.223   6.479  0.7209  0.3791 -0.5844
  579MOL0     C78062  -0.777  10.149   6.453  0.5312  0.3019 -0.9418
  579MOL0     C78063  -0.894  10.214   6.399  0.2862  1.1457  0.1646
  579MOL0     C78064  -1.012  10.140   6.384  0.3841  0.3373  0.1136
  579MOL0     C78065  -1.018  10.000   6.410  0.5660  0.1700 -0.3021
  579MOL0     O78066  -1.141   9.948   6.390 -0.2515  1.3753 -0.7988
  579MOL0     C78067  -1.183   9.824   6.471 -0.2137  0.3599  0.2226
  579MOL0     C78068  -1.311   9.839   6.554 -0.4068 -0.2364  0.5889
  579MOL0     C78069  -1.435   9.874   6.458 -0.1949  0.0503 -0.7025
  579MOL0     C78070  -1.548   9.922   6.556 -1.4724 -0.2525  0.3606
  579MOL0     C78071  -1.660   9.986   6.472  0.7777 -0.2155 -0.5822
  579MOL0     C78072  -1.672  10.139   6.470  0.1022  0.2310  0.2481
  579MOL0     C78073  -1.585  10.197   6.366 -0.3968 -0.0442  0.6859
  579MOL0     C78074  -1.616  10.345   6.358 -0.0540 -0.1500 -0.6346
  579MOL0    Cl78075  -1.787  10.389   6.310 -0.2385  0.2944 -0.3014
  579MOL0     C78076  -0.902   9.932   6.444 -0.7791 -0.7275  0.3244
  579MOL0     C78077  -0.783  10.004   6.465 -0.4984  0.2637  0.1955
  579MOL0     O78078  -0.621  10.130   6.684  0.0576 -0.6611  0.2873
  579MOL0     C78079  -0.432  10.366   6.493 -0.2551 -0.0696  0.0784
  579MOL0     C78080  -0.307  10.432   6.503  0.4132 -0.3087  0.4170
  579MOL0     N78081   0.566  10.428   6.546 -0.1845  0.2837  0.6527
  579MOL0     N78082   0.697  10.428   6.577  0.4960  0.0664  0.6476
  579MOL0     C78083   1.943  10.861   6.663  0.7283  0.3698 -0.9601
  579MOL0     C78084   2.081  10.865   6.646 -0.0893 -1.0387 -0.3037
  579MOL0     C78085   2.510  10.733   6.698  0.9256 -0.7036 -0.7834
  579MOL0     C78086   2.566  10.704   6.573 -0.0207  0.6395  0.0549
  579MOL0     C78087   2.707  10.688   6.567  0.5789 -0.5442  0.1232
  579MOL0     C78088   2.791  10.705   6.682  0.2434 -0.0780  1.2005
  579MOL0     O78089   2.924  10.716   6.677 -0.0418 -0.2493 -0.3118
  579MOL0     C78090   2.996  10.725   6.553  0.3665  0.4277  0.3837
  579MOL0     C78091   3.145  10.743   6.566 -0.4663 -0.5614 -0.4566
  579MOL0     C78092   3.162  10.884   6.623  0.2076  0.2628 -0.1340
  579MOL0     C78093   3.300  10.951   6.594  0.1648 -0.2876  0.0641
  579MOL0     C78094   3.414  10.883   6.647 -0.0937 -0.8584 -0.2051
  579MOL0     C78095   3.513  10.832   6.701  1.2189  0.2526  0.6227
  579MOL0     C78096   2.726  10.719   6.803  0.5514  0.5690  0.1081
  579MOL0     C78097   2.580  10.739   6.815 -0.6755  0.3576  0.0248
  579MOL0     H78098   2.136  10.552   6.530  3.5318  2.2273 -0.0960
  579MOL0     H78099   1.877  10.546   6.559 -1.3751  2.2356 -0.6078
  579MOL0     H78100   1.655  10.573   6.572 -3.9283 -1.1278  1.3231
  579MOL0     H78101   1.717  10.567   6.739  0.9396 -1.3126 -0.5234
  579MOL0     H78102   1.541  10.714   6.795  1.6665  2.1047 -1.3696
  579MOL0     H78103   1.497  10.751   6.629  0.0325 -1.8422 -2.4099
  579MOL0     H78104   1.396  10.578   6.571  0.5989  0.5759  0.1992
  579MOL0     H78105   1.466  10.466   6.699  0.4427 -0.5735 -1.9492
  579MOL0     H78106   1.338  10.541   6.855  1.9732 -0.6873 -1.2545
  579MOL0     H78107   1.284  10.697   6.779  3.0055  1.1622 -0.7578
  579MOL0     H78108   1.128  10.601   6.642 -0.1856 -0.8000 -0.4504
  579MOL0     H78109   1.199  10.442   6.645  1.5075  0.4941 -1.0738
  579MOL0     H78110   1.117  10.424   6.885 -2.1132 -0.1102  1.0699
  579MOL0     H78111   1.064  10.597   6.875 -0.2307  0.2033 -0.5493
  579MOL0     H78112   0.945  10.381   6.686  2.7063  0.7086 -0.1628
  579MOL0     H78113   0.865  10.430   6.841  0.3885 -4.1298 -1.4516
  579MOL0     H78114   0.904  10.597   6.588 -1.3571  2.9332 -0.5473
  579MOL0     H78115   0.869  10.657   6.749  3.4505 -0.6007  0.7589
  579MOL0     H78116   0.598  10.702   6.720  1.5350  0.1897 -0.4217
  579MOL0     H78117   0.347  10.690   6.607 -0.9876 -0.3664  0.5741
  579MOL0     H78118   0.341  10.583   6.475  0.1140  0.5399 -0.3719
  579MOL0     H78119   0.293  10.512   6.772 -3.2334  1.4957 -0.5559
  579MOL0     H78120   0.304  10.388   6.638 -0.2383 -0.5864 -1.9932
  579MOL0     H78121   0.114  10.539   6.514 -1.4697  0.1719  0.6861
  579MOL0     H78122   0.115  10.632   6.652 -2.7887  1.0957 -1.7908
  579MOL0     H78123  -0.017  10.464   6.775  0.7694  2.6467 -0.6956
  579MOL0     H78124   0.033  10.330   6.662 -0.2291 -0.2608  2.3382
  579MOL0     H78125  -0.189  10.328   6.796 -0.0655 -1.4548  0.4865
  579MOL0     H78126  -0.424  10.061   6.806  0.0059 -0.1673  2.0448
  579MOL0     H78127  -0.309  10.166   6.889 -2.1694  2.7756  1.2137
  579MOL0     H78128  -0.470  10.214   6.888  0.3693 -2.8369  3.5079
  579MOL0     H78129  -0.902  10.318   6.366 -2.2905  0.4076 -1.9271
  579MOL0     H78130  -1.110  10.174   6.354 -0.7444 -2.9858 -0.3941
  579MOL0     H78131  -1.197   9.740   6.403  1.1007  0.1025  0.2459
  579MOL0     H78132  -1.102   9.793   6.537 -0.1273 -2.0285 -0.8952
  579MOL0     H78133  -1.323   9.739   6.597 -0.1092 -0.7404 -0.4481
  579MOL0     H78134  -1.293   9.912   6.633  0.2572  1.4224 -1.0307
  579MOL0     H78135  -1.453   9.783   6.401 -0.4770 -0.3422  0.0033
  579MOL0     H78136  -1.402   9.954   6.390  0.8067 -0.6678 -1.0949
  579MOL0     H78137  -1.593   9.838   6.609 -2.3637 -0.7697 -1.1475
  579MOL0     H78138  -1.504   9.997   6.622 -0.8441  1.7822 -2.2200
  579MOL0     H78139  -1.755   9.948   6.511  0.8055  0.2018 -0.0905
  579MOL0     H78140  -1.656   9.958   6.367  1.8418 -1.2703 -0.2797
  579MOL0     H78141  -1.777  10.158   6.446 -0.2337 -1.7989 -0.1115
  579MOL0     H78142  -1.646  10.186   6.566  0.5478 -1.0662  0.7860
  579MOL0     H78143  -1.608  10.156   6.267  1.0776  2.7136 -0.9509
  579MOL0     H78144  -1.481  10.175   6.387  0.1653 -0.7898 -2.3264
  579MOL0     H78145  -1.542  10.398   6.297  2.9763 -1.2182  1.7975
  579MOL0     H78146  -1.600  10.390   6.457  1.5917 -0.6545 -0.6418
  579MOL0     H78147  -0.910   9.824   6.450 -0.9072 -0.9857 -2.8607
  579MOL0     H78148  -0.686   9.960   6.483 -0.8932 -1.3773 -1.3966
  579MOL0     H78149  -0.499  10.397   6.413  1.3079 -1.2773 -1.7912
  579MOL0     H78150  -0.298  10.520   6.439 -0.6406  1.8159  3.0032
  579MOL0     H78151   1.881  10.941   6.703  0.5887 -1.2098  2.2142
  579MOL0     H78152   2.146  10.949   6.667 -1.7298  0.1517  0.3178
  579MOL0     H78153   2.514  10.698   6.478  0.4698  1.3147 -0.2632
  579MOL0     H78154   2.766  10.659   6.480 -0.9963 -0.6859 -0.9334
  579MOL0     H78155   2.989  10.631   6.497 -1.4128  0.9155 -0.2721
  579MOL0     H78156   2.965  10.812   6.495  2.8730  0.0885 -1.6934
  579MOL0     H78157   3.185  10.734   6.465 -1.6759  1.4270 -1.1686
  579MOL0     H78158   3.196  10.671   6.631  0.0552 -2.5939 -2.9962
  579MOL0     H78159   3.159  10.878   6.732 -1.6951  1.5318 -0.0694
  579MOL0     H78160   3.082  10.952   6.591 -1.4821 -0.1354  2.8826
  579MOL0     H78161   3.300  11.044   6.653  2.4905 -1.4421  2.0365
  579MOL0     H78162   3.318  10.973   6.488  1.5575  3.4883  0.9256
  579MOL0     H78163   3.599  10.793   6.752 -0.7696 -2.3108  2.2745
  579MOL0     H78164   2.788  10.712   6.892  0.3008  0.2256  0.2563
  579MOL0     H78165   2.540  10.740   6.915  1.0539  1.3012  0.7510
  580MOL0     O78166   5.816  11.061   2.021 -0.8505  0.2155 -0.0021
  580MOL0     C78167   5.893  11.156   2.029  0.3128  0.1709  0.0979
  580MOL0     O78168   5.868  11.292   2.003 -0.4715 -0.6540 -0.0104
  580MOL0     C78169   5.739  11.335   1.974 -0.3293 -0.3179 -0.4044
  580MOL0     C78170   5.716  11.438   1.883  0.3882 -0.4228  0.0337
  580MOL0     C78171   5.588  11.488   1.864  0.7638 -0.0735 -0.0988
  580MOL0     C78172   5.477  11.439   1.935  0.2805  0.3346  0.6857
  580MOL0     O78173   5.357  11.501   1.921 -0.4115  0.1651  0.2786
  580MOL0     C78174   5.239  11.425   1.928  0.3037  0.7943  0.0389
  580MOL0     C78175   5.118  11.524   1.929 -0.6716  0.4145  0.2318
  580MOL0     C78176   4.990  11.443   1.957 -0.0995 -0.0637  0.0114
  580MOL0     C78177   4.881  11.537   2.001  0.5586 -0.1579  0.3998
  580MOL0     C78178   4.747  11.477   1.989 -0.1202  0.3038 -0.3530
  580MOL0     C78179   4.700  11.490   1.843 -0.1677 -1.2415  0.0813
  580MOL0     C78180   4.550  11.477   1.824 -0.7553  0.0369 -0.5173
  580MOL0     C78181   4.503  11.337   1.861  0.6051  0.6770  0.3020
  580MOL0     N78182   4.355  11.322   1.846 -0.2949 -0.0360 -0.2886
  580MOL0     C78183   4.278  11.296   1.733 -0.4492  0.6419 -0.3545
  580MOL0     C78184   4.151  11.272   1.775 -0.3504 -0.7742  0.1900
  580MOL0     C78185   4.041  11.247   1.678 -0.5648 -0.2367  0.2807
  580MOL0     C78186   4.019  11.097   1.678  0.0267  0.8383  0.5113
  580MOL0     C78187   3.898  11.041   1.737 -0.2113 -0.5496  0.2440
  580MOL0     C78188   3.847  11.117   1.864  0.8563  0.7810 -0.3450
  580MOL0     O78189   3.747  11.027   1.933 -0.3135  0.1142  0.5142
  580MOL0     C78190   3.636  10.996   1.857 -0.5168  0.9636 -0.2120
  580MOL0     C78191   3.587  10.861   1.858  0.2442 -0.0351  0.7943
  580MOL0     C78192   3.481  10.827   1.773  0.8366  0.6000  0.0356
  580MOL0     C78193   3.463  10.674   1.762 -0.2341 -0.4835  0.2492
  580MOL0     C78194   3.409  10.929   1.705  0.9914 -0.3124 -0.0711
  580MOL0     C78195   3.296  10.899   1.616  0.1635 -0.3509 -0.7051
  580MOL0     O78196   3.246  10.770   1.610 -0.2349  0.1455 -0.1025
  580MOL0     C78197   3.117  10.757   1.577  0.9962  0.1103 -0.3653
  580MOL0     C78198   3.022  10.722   1.676  1.1830 -0.6345 -0.3108
  580MOL0     C78199   2.887  10.708   1.634 -0.9222 -0.1848 -0.5893
  580MOL0     C78200   2.844  10.732   1.497 -0.0013  0.4261 -0.5673
  580MOL0     O78201   2.711  10.728   1.462 -0.0225  0.3222  0.1910
  580MOL0     C78202   2.657  10.682   1.340 -0.1281  0.6176  0.3522
  580MOL0     C78203   2.584  10.789   1.272  0.1096 -0.1778  0.3010
  580MOL0     C78204   2.449  10.804   1.330  0.0396 -0.0373 -0.3102
  580MOL0     C78205   2.352  10.888   1.243  0.6157  1.0810  0.3305
  580MOL0     C78206   2.206  10.883   1.289 -0.2695 -1.1351  0.8332
  580MOL0     C78207   2.116  10.968   1.190  0.1493  0.1357  0.1609
  580MOL0     C78208   1.977  10.983   1.236  0.9322  0.1983 -0.6664
  580MOL0     C78209   1.881  11.031   1.121 -0.3776 -0.4945  0.9633
  580MOL0    Cl78210   1.698  11.048   1.167  0.0169 -0.3032  0.0502
  580MOL0     C78211   2.943  10.756   1.406 -0.2672  0.2019  0.3734
  580MOL0     C78212   3.080  10.772   1.444 -0.4867  0.2668 -1.3215
  580MOL0     O78213   3.234  10.997   1.569  0.4021 -0.2662  0.4488
  580MOL0     C78214   3.453  11.065   1.709 -0.5359 -0.6255  0.2186
  580MOL0     C78215   3.568  11.092   1.777  0.2139  0.7388 -0.5630
  580MOL0     N78216   4.156  11.273   1.911  0.3434  0.3158 -0.1410
  580MOL0     N78217   4.272  11.302   1.953  0.1012  0.6841 -0.5608
  580MOL0     C78218   5.497  11.322   2.013  0.1703  0.4436 -0.4903
  580MOL0     C78219   5.625  11.280   2.041  0.2671 -0.2695  0.8085
  580MOL0     C78220   6.035  11.122   2.049 -0.0878 -0.0604  0.2216
  580MOL0     C78221   6.128  11.227   2.083  0.5536 -0.1964  0.3379
  580MOL0     C78222   6.261  11.200   2.101  0.5845 -0.3687  0.0276
  580MOL0     C78223   6.306  11.073   2.089 -1.2526 -0.3806  0.4162
  580MOL0     O78224   6.431  11.034   2.128 -0.4122 -0.2988  0.1843
  580MOL0     C78225   6.536  11.123   2.153 -0.7340 -0.7329  0.4447
  580MOL0     C78226   6.659  11.047   2.197  0.4409  0.1287 -0.2909
  580MOL0     C78227   6.693  10.943   2.083 -0.4846 -0.4718 -0.5249
  580MOL0     C78228   6.812  10.858   2.125 -0.4240  0.2856  1.0693
  580MOL0     C78229   6.942  10.931   2.152  0.2378 -0.4437  0.3854
  580MOL0     C78230   7.051  10.990   2.156  0.3973  0.3002 -0.3204
  580MOL0     C78231   6.220  10.963   2.064  0.3829 -0.0935 -0.5056
  580MOL0     C78232   6.085  10.989   2.045 -0.0531  0.1706  0.7226
  580MOL0     H78233   5.797  11.469   1.818 -0.0740 -3.8498 -2.4860
  580MOL0     H78234   5.567  11.568   1.794  1.6390  1.5096  1.3963
  580MOL0     H78235   5.219  11.339   1.864 -3.1743  0.4512  1.3330
  580MOL0     H78236   5.233  11.383   2.029 -2.6450  0.4219 -0.2085
  580MOL0     H78237   5.133  11.593   2.013 -1.5239 -2.6269  3.1533
  580MOL0     H78238   5.108  11.570   1.831  1.0830 -1.7324 -1.0318
  580MOL0     H78239   4.957  11.393   1.865 -0.4856  0.6663 -0.2527
  580MOL0     H78240   5.005  11.372   2.039  0.2664  2.4606  2.2509
  580MOL0     H78241   4.909  11.556   2.105 -1.4769 -0.2398  1.0054
  580MOL0     H78242   4.883  11.634   1.950 -1.2250  0.0533  0.6670
  580MOL0     H78243   4.755  11.374   2.025 -0.1167  0.0055 -1.1854
  580MOL0     H78244   4.678  11.534   2.051  0.9384 -0.7581  1.9463
  580MOL0     H78245   4.734  11.586   1.804 -0.5915 -0.5102  1.4572
  580MOL0     H78246   4.743  11.412   1.779 -1.1799 -1.7831  0.0436
  580MOL0     H78247   4.492  11.543   1.889 -3.0104 -0.0352 -2.3324
  580MOL0     H78248   4.519  11.503   1.722 -1.1532 -0.5359 -0.5466
  580MOL0     H78249   4.518  11.306   1.965  1.0349 -3.2205 -0.7348
  580MOL0     H78250   4.558  11.262   1.803  0.4762  1.1825 -0.4806
  580MOL0     H78251   4.324  11.291   1.634  2.8791 -0.3938  1.1049
  580MOL0     H78252   3.948  11.299   1.703 -0.8939 -0.7448  0.1262
  580MOL0     H78253   4.083  11.292   1.587  2.0394  2.0839  2.4599
  580MOL0     H78254   4.100  11.032   1.715 -0.6762  0.9419  2.3711
  580MOL0     H78255   4.024  11.064   1.574 -1.8184 -2.1812  1.2402
  580MOL0     H78256   3.907  10.935   1.761  1.0305 -0.6010 -0.3814
  580MOL0     H78257   3.821  11.056   1.661 -2.0367  1.4562  2.3158
  580MOL0     H78258   3.814  11.218   1.841  3.2906  1.7983  0.2933
  580MOL0     H78259   3.933  11.121   1.931  1.6419  2.5290 -1.4129
  580MOL0     H78260   3.637  10.787   1.920  3.7802  2.5106  1.3350
  580MOL0     H78261   3.556  10.629   1.798  0.1638 -1.3345 -1.7094
  580MOL0     H78262   3.368  10.645   1.809 -1.1515  1.5250 -0.2791
  580MOL0     H78263   3.468  10.649   1.656  1.3153 -0.1199  0.2183
  580MOL0     H78264   3.051  10.703   1.779  0.5416  0.8139  0.1605
  580MOL0     H78265   2.807  10.684   1.704 -1.3659 -0.4565 -1.1830
  580MOL0     H78266   2.737  10.651   1.272 -1.2433 -0.7204 -0.4121
  580MOL0     H78267   2.590  10.597   1.357 -1.0099  1.3690  0.7325
  580MOL0     H78268   2.643  10.880   1.281 -0.6406  0.2608  0.9287
  580MOL0     H78269   2.568  10.775   1.164 -3.6023  0.6176  0.5944
  580MOL0     H78270   2.467  10.853   1.426 -0.4349  0.0920 -0.2862
  580MOL0     H78271   2.400  10.710   1.354 -1.5445  1.5887  3.6477
  580MOL0     H78272   2.385  10.992   1.251 -2.5840  2.1468  1.0421
  580MOL0     H78273   2.357  10.852   1.139 -0.6535 -1.5166  1.0759
  580MOL0     H78274   2.191  10.910   1.394  2.3551  1.2117  0.7135
  580MOL0     H78275   2.176  10.778   1.285  0.3723 -1.3017 -1.7008
  580MOL0     H78276   2.166  11.064   1.176  0.3265  0.0957  0.5071
  580MOL0     H78277   2.122  10.912   1.097  2.8966 -1.4591  1.1779
  580MOL0     H78278   1.976  11.046   1.325  0.0457 -1.7708  0.7796
  580MOL0     H78279   1.941  10.888   1.276  0.2654  0.2643 -1.0933
  580MOL0     H78280   1.893  10.957   1.042  4.7573  0.1386  0.8625
  580MOL0     H78281   1.913  11.126   1.078  0.5287 -0.6301  1.3132
  580MOL0     H78282   2.926  10.778   1.301 -0.5853 -1.8537 -0.0585
  580MOL0     H78283   3.158  10.815   1.381  0.4881 -0.3626 -0.5607
  580MOL0     H78284   3.407  11.141   1.647 -1.5643 -0.9764  0.5401
  580MOL0     H78285   3.607  11.193   1.787  2.4477 -0.1296 -0.0213
  580MOL0     H78286   5.423  11.275   2.076  1.0404  0.3775  0.5006
  580MOL0     H78287   5.640  11.203   2.116 -0.2268  0.5628  1.7930
  580MOL0     H78288   6.097  11.330   2.100  2.2831  0.0258  2.7291
  580MOL0     H78289   6.318  11.287   2.133 -1.7083  2.6048 -3.2308
  580MOL0     H78290   6.557  11.161   2.053  0.3937 -2.5230 -0.0428
  580MOL0     H78291   6.511  11.204   2.222 -0.4687 -0.0273 -0.2725
  580MOL0     H78292   6.632  10.997   2.290  1.5471 -0.5987 -0.3381
  580MOL0     H78293   6.741  11.116   2.222  0.2532  1.2984 -2.6579
  580MOL0     H78294   6.721  10.995   1.991 -2.8518 -1.8161 -2.0981
  580MOL0     H78295   6.610  10.877   2.057 -0.6038  0.1651 -1.8621
  580MOL0     H78296   6.840  10.784   2.049  1.1910 -0.3405  2.2132
  580MOL0     H78297   6.777  10.794   2.207  1.7584 -3.2996 -0.5183
  580MOL0     H78298   7.141  11.047   2.167 -0.0460  1.1692 -1.0491
  580MOL0     H78299   6.265  10.865   2.062  0.5778 -0.0444  0.7088
  580MOL0     H78300   6.026  10.898   2.041  2.2976 -1.4155  0.0017
  581MOL0     O78301   2.598   7.265  10.202  0.8898 -0.2253 -0.5395
  581MOL0     C78302   2.535   7.288  10.305 -0.4336  0.3492 -0.4822
  581MOL0     O78303   2.398   7.295  10.314 -0.8556 -0.2229 -0.2773
  581MOL0     C78304   2.314   7.296  10.205  0.3421 -0.6456  0.1391
  581MOL0     C78305   2.321   7.198  10.107 -0.6929  0.0685  0.4321
  581MOL0     C78306   2.239   7.205  10.000  0.9029 -0.1081 -0.0938
  581MOL0     C78307   2.142   7.308   9.985  0.6639  0.3737  1.0441
  581MOL0     O78308   2.053   7.329   9.876  0.1039 -0.5645 -0.4751
  581MOL0     C78309   2.070   7.256   9.755  0.4830 -0.6360  0.3813
  581MOL0     C78310   1.961   7.313   9.660 -0.7522 -0.1850  0.7329
  581MOL0     C78311   1.814   7.275   9.706  0.3993 -1.4167  0.1785
  581MOL0     C78312   1.715   7.323   9.586  0.1160  0.4966  0.3159
  581MOL0     C78313   1.575   7.303   9.649  0.1282 -1.0074  0.2216
  581MOL0     C78314   1.459   7.362   9.561  0.2930 -0.2345  0.4437
  581MOL0     C78315   1.326   7.379   9.635 -0.4660 -0.3497 -0.0489
  581MOL0     C78316   1.221   7.365   9.533  1.2046  0.4657  0.3860
  581MOL0     N78317   1.085   7.357   9.595  0.5931 -0.2623  0.0549
  581MOL0     C78318   1.012   7.469   9.620  0.0982 -0.0851 -0.2935
  581MOL0     C78319   0.896   7.422   9.673 -0.3325  0.2982  0.4567
  581MOL0     C78320   0.785   7.505   9.738 -0.1425  0.0943  0.1243
  581MOL0     C78321   0.689   7.556   9.636  0.6523  0.9138 -0.3346
  581MOL0     C78322   0.611   7.443   9.565 -0.8230  0.9290 -0.4553
  581MOL0     C78323   0.527   7.489   9.444 -0.1992  0.1853 -0.2961
  581MOL0     O78324   0.436   7.584   9.503  0.0572 -0.0845  1.1687
  581MOL0     C78325   0.321   7.603   9.432  0.2900 -0.0552  0.7696
  581MOL0     C78326   0.307   7.617   9.292  0.3155  0.4652 -0.6250
  581MOL0     C78327   0.178   7.601   9.230  0.2421  0.6737 -0.1057
  581MOL0     C78328   0.172   7.580   9.084  0.8050  0.0814  0.2709
  581MOL0     C78329   0.056   7.597   9.310 -0.1048 -0.0559 -0.1950
  581MOL0     C78330  -0.076   7.578   9.263  0.1230  0.2977  0.4279
  581MOL0     O78331  -0.179   7.594   9.346  0.8690  0.0876  0.5799
  581MOL0     C78332  -0.312   7.572   9.306  0.1001 -0.2963 -0.8477
  581MOL0     C78333  -0.364   7.605   9.183  0.0094 -0.0806 -0.4463
  581MOL0     C78334  -0.508   7.609   9.159  0.0381  0.1370  0.2618
  581MOL0     C78335  -0.595   7.570   9.264  0.2482 -0.4653  0.2607
  581MOL0     O78336  -0.730   7.589   9.254  0.6305  0.0665  0.0565
  581MOL0     C78337  -0.790   7.558   9.129 -1.2303  0.9430  0.0165
  581MOL0     C78338  -0.938   7.558   9.147 -1.1690  0.2089 -0.0420
  581MOL0     C78339  -0.992   7.693   9.132  0.1540  0.1209 -0.0535
  581MOL0     C78340  -1.146   7.685   9.125 -0.1798 -0.0422  0.0437
  581MOL0     C78341  -1.209   7.639   9.252 -0.5360 -0.2596 -0.4787
  581MOL0     C78342  -1.360   7.670   9.257  0.5333 -0.1289  0.2670
  581MOL0     C78343  -1.443   7.605   9.149 -0.0951  0.3241  0.3391
  581MOL0     C78344  -1.555   7.538   9.218  0.9410 -0.6598  0.0389
  581MOL0    Cl78345  -1.514   7.386   9.311  0.1325 -0.2072  0.5604
  581MOL0     C78346  -0.544   7.523   9.385  0.3108  0.0883  0.1627
  581MOL0     C78347  -0.410   7.541   9.408  0.1887 -0.2933 -0.2122
  581MOL0     O78348  -0.087   7.531   9.152  0.1478 -0.5915 -0.0824
  581MOL0     C78349   0.080   7.599   9.453  0.2093 -0.1502  0.5014
  581MOL0     C78350   0.200   7.598   9.511 -0.7966 -0.3252 -0.6270
  581MOL0     N78351   0.907   7.289   9.692  0.0111  0.6458 -0.5152
  581MOL0     N78352   1.018   7.251   9.645 -0.2773 -0.1855  0.6784
  581MOL0     C78353   2.135   7.402  10.090 -0.7340  0.2404  0.6072
  581MOL0     C78354   2.218   7.388  10.194  0.1361 -0.2510 -0.1039
  581MOL0     C78355   2.623   7.298  10.426  0.0311  0.3291  0.4582
  581MOL0     C78356   2.766   7.311  10.408  0.4450  0.0028  0.1039
  581MOL0     C78357   2.849   7.327  10.518  0.3913  0.4244  0.4288
  581MOL0     C78358   2.795   7.358  10.643 -0.4633  0.4519 -0.2775
  581MOL0     O78359   2.866   7.412  10.749 -0.0408 -0.1076 -0.7577
  581MOL0     C78360   3.006   7.422  10.747  0.3136 -0.3594 -0.9782
  581MOL0     C78361   3.053   7.495  10.875  0.3810  0.0418 -0.0253
  581MOL0     C78362   3.204   7.476  10.909 -0.1134  0.1403 -0.1107
  581MOL0     C78363   3.251   7.537  11.034  0.3420 -0.2133 -0.5639
  581MOL0     C78364   3.209   7.449  11.142 -0.2049  0.6323  0.1056
  581MOL0     C78365   3.161   7.382  11.229 -0.6823  0.5159  0.5285
  581MOL0     C78366   2.663   7.342  10.657 -1.1286 -0.1717  0.2984
  581MOL0     C78367   2.579   7.315  10.555  0.4753 -0.9623 -0.8288
  581MOL0     H78368   2.393   7.118  10.117 -1.1948 -0.7460 -1.8546
  581MOL0     H78369   2.250   7.131   9.921 -2.2483 -2.1327  1.1554
  581MOL0     H78370   2.167   7.270   9.705 -0.2080 -0.3567 -0.9271
  581MOL0     H78371   2.067   7.148   9.768  0.7093 -0.6377  0.4226
  581MOL0     H78372   1.962   7.422   9.664 -0.1239 -0.0892 -1.1391
  581MOL0     H78373   1.986   7.283   9.558 -1.4825  1.9122 -0.1106
  581MOL0     H78374   1.813   7.166   9.717  2.6097 -1.5137 -0.1357
  581MOL0     H78375   1.782   7.328   9.796  1.3274  2.7568 -1.6996
  581MOL0     H78376   1.739   7.423   9.549 -0.7190 -0.4526 -3.1609
  581MOL0     H78377   1.715   7.260   9.497 -3.8552  0.7828 -0.0526
  581MOL0     H78378   1.552   7.197   9.663 -0.9249 -0.8815 -0.4839
  581MOL0     H78379   1.580   7.350   9.748  3.5989 -0.4593 -0.0749
  581MOL0     H78380   1.504   7.461   9.547  1.5453 -0.8957 -0.3021
  581MOL0     H78381   1.453   7.320   9.461 -2.6198  1.1605 -0.0721
  581MOL0     H78382   1.322   7.289   9.699 -2.2360 -2.1554 -2.4982
  581MOL0     H78383   1.329   7.471   9.694  4.8886 -1.0074  1.2245
  581MOL0     H78384   1.244   7.271   9.482  1.4807  1.2564 -0.9839
  581MOL0     H78385   1.235   7.443   9.458  2.0712 -0.2297 -0.1879
  581MOL0     H78386   1.033   7.572   9.591 -1.8815  0.6548  0.6889
  581MOL0     H78387   0.734   7.437   9.806 -2.2125 -1.5214 -2.8009
  581MOL0     H78388   0.821   7.587   9.800 -0.0330 -1.2847  1.9642
  581MOL0     H78389   0.751   7.608   9.562  3.5068 -3.4066 -1.3863
  581MOL0     H78390   0.620   7.621   9.690 -1.3387 -0.6434 -0.8697
  581MOL0     H78391   0.558   7.396   9.648  0.2524  2.2399  1.0602
  581MOL0     H78392   0.683   7.370   9.526 -0.6791  0.2965  0.9091
  581MOL0     H78393   0.484   7.396   9.405  2.4267 -2.2174  2.0313
  581MOL0     H78394   0.590   7.536   9.368  2.8288  2.3444  3.2166
  581MOL0     H78395   0.394   7.633   9.230 -0.5021  0.4343 -1.8107
  581MOL0     H78396   0.272   7.590   9.041  2.5256  2.0440  4.2222
  581MOL0     H78397   0.127   7.482   9.063 -0.6522  0.2204  2.4381
  581MOL0     H78398   0.108   7.654   9.035 -2.5499 -1.2562  2.3158
  581MOL0     H78399  -0.303   7.627   9.097  0.5052 -3.1234 -0.9811
  581MOL0     H78400  -0.541   7.643   9.061  1.0420 -1.1839 -0.5891
  581MOL0     H78401  -0.766   7.636   9.056 -0.0416  2.0025  1.4818
  581MOL0     H78402  -0.750   7.469   9.080  0.5242  1.2674  0.7942
  581MOL0     H78403  -0.977   7.498   9.064  0.1891 -2.2749  0.9920
  581MOL0     H78404  -0.961   7.511   9.244 -0.8020 -0.4894 -0.2894
  581MOL0     H78405  -0.949   7.737   9.042  0.5855 -3.0070 -1.4713
  581MOL0     H78406  -0.959   7.752   9.218 -2.2239  0.0301  1.0078
  581MOL0     H78407  -1.174   7.790   9.110  0.8739  0.0562 -1.4320
  581MOL0     H78408  -1.173   7.623   9.039 -0.0305 -1.1361  0.7678
  581MOL0     H78409  -1.167   7.689   9.339  0.3281 -0.3264 -0.8502
  581MOL0     H78410  -1.200   7.531   9.267 -1.2950 -0.0691  1.8176
  581MOL0     H78411  -1.392   7.637   9.356  0.5400  1.0992  0.6866
  581MOL0     H78412  -1.380   7.777   9.255 -1.6480 -0.4820  0.2567
  581MOL0     H78413  -1.389   7.537   9.083  0.7738  3.0906 -1.9346
  581MOL0     H78414  -1.478   7.689   9.089  0.8549  0.3180 -0.2364
  581MOL0     H78415  -1.626   7.503   9.143 -0.9784 -0.6546  1.7554
  581MOL0     H78416  -1.609   7.615   9.274  0.0504 -0.3176 -1.2432
  581MOL0     H78417  -0.620   7.496   9.458  1.0251 -4.2137 -0.4046
  581MOL0     H78418  -0.376   7.517   9.508  2.4844  0.1891 -0.8204
  581MOL0     H78419  -0.003   7.614   9.521 -1.3647 -0.8321 -1.1638
  581MOL0     H78420   0.208   7.592   9.619  1.1504  0.6621 -0.6741
  581MOL0     H78421   2.047   7.465  10.091 -2.3351 -1.8172 -0.8191
  581MOL0     H78422   2.203   7.448  10.283 -0.1396 -0.9486  0.3281
  581MOL0     H78423   2.812   7.318  10.310  3.7613  1.6096  1.6017
  581MOL0     H78424   2.956   7.326  10.497 -0.2469 -1.5525 -3.7191
  581MOL0     H78425   3.045   7.321  10.730  0.6494 -0.4994  0.5308
  581MOL0     H78426   3.040   7.481  10.661  0.8197  1.0542  0.1476
  581MOL0     H78427   2.991   7.453  10.955 -2.7308  0.6997 -1.9377
  581MOL0     H78428   3.042   7.603  10.863 -0.6974  0.0224  0.7284
  581MOL0     H78429   3.255   7.524  10.826  0.7975 -0.6970 -0.0579
  581MOL0     H78430   3.225   7.369  10.898  0.0641  0.2421 -0.7563
  581MOL0     H78431   3.207   7.637  11.044 -0.9305 -0.9421  1.9660
  581MOL0     H78432   3.357   7.561  11.049  0.0861 -0.0450  1.2464
  581MOL0     H78433   3.142   7.311  11.306  2.0445 -2.0655 -0.9369
  581MOL0     H78434   2.633   7.367  10.758  1.5763 -1.4469  1.5230
  581MOL0     H78435   2.472   7.310  10.574  0.7168  1.2529  1.7074
  582MOL0     O78436  10.880  10.570   7.816  0.8460 -0.4844  0.3808
  582MOL0     C78437  10.876  10.651   7.906  0.0230 -0.2717 -0.5651
  582MOL0     O78438  10.762  10.688   7.972  0.9491 -0.6969  0.5178
  582MOL0     C78439  10.644  10.689   7.906 -0.3215  0.1526 -0.5733
  582MOL0     C78440  10.616  10.796   7.821  0.0894  0.3310  0.2526
  582MOL0     C78441  10.480  10.815   7.782 -0.3375 -0.0758 -0.0029
  582MOL0     C78442  10.384  10.710   7.803 -0.4773 -0.1429  0.1700
  582MOL0     O78443  10.263  10.716   7.746 -0.4994 -0.4136  0.2226
  582MOL0     C78444  10.143  10.695   7.811 -0.2511 -0.5401  0.6391
  582MOL0     C78445  10.053  10.617   7.717  0.1657 -0.2343 -0.5040
  582MOL0     C78446   9.907  10.604   7.769  0.5779 -0.3600  0.8438
  582MOL0     C78447   9.808  10.539   7.677  0.2797 -0.0468 -0.4302
  582MOL0     C78448   9.668  10.546   7.742 -0.4748 -0.1702  0.1736
  582MOL0     C78449   9.553  10.499   7.656  0.8728 -0.5114  0.5851
  582MOL0     C78450   9.426  10.559   7.707  0.3335 -0.6601 -0.1644
  582MOL0     C78451   9.313  10.516   7.621  1.3440  0.3356 -0.6050
  582MOL0     N78452   9.186  10.584   7.653  0.0959  0.4225  0.0460
  582MOL0     C78453   9.120  10.559   7.776  0.1731  0.1386  0.0730
  582MOL0     C78454   9.002  10.624   7.754 -0.7068 -0.3700  0.3333
  582MOL0     C78455   8.886  10.641   7.853  0.8524 -0.3204 -0.6193
  582MOL0     C78456   8.865  10.790   7.879 -1.0460  0.5740 -0.4477
  582MOL0     C78457   8.777  10.824   7.995  0.4573  0.1924 -0.8653
  582MOL0     C78458   8.623  10.815   7.979 -0.5131  0.3825  0.1847
  582MOL0     O78459   8.571  10.853   8.108 -0.5543  0.5743  0.3586
  582MOL0     C78460   8.454  10.925   8.107  0.1012 -0.1319  0.0983
  582MOL0     C78461   8.433  11.016   8.211 -0.1429 -0.5836 -0.2659
  582MOL0     C78462   8.308  11.078   8.228  0.8853 -0.1470  0.4340
  582MOL0     C78463   8.294  11.172   8.342  0.1446  0.0520  0.7178
  582MOL0     C78464   8.215  11.067   8.121 -0.3211  0.2058  0.0321
  582MOL0     C78465   8.088  11.148   8.111 -0.6695 -0.6810  0.3868
  582MOL0     O78466   8.039  11.182   7.989 -0.4829  0.5026 -0.0627
  582MOL0     C78467   7.912  11.235   7.965  0.7282 -0.0921 -0.6769
  582MOL0     C78468   7.849  11.182   7.852 -0.3956 -0.8192  0.0169
  582MOL0     C78469   7.726  11.245   7.809  0.5343 -0.8370  0.6534
  582MOL0     C78470   7.671  11.351   7.877 -0.1553 -0.2856 -0.0833
  582MOL0     O78471   7.560  11.397   7.825  0.0876 -0.4040  0.1933
  582MOL0     C78472   7.510  11.524   7.868 -0.4144  0.0341 -0.1905
  582MOL0     C78473   7.375  11.555   7.802 -0.2520 -0.2537  0.6848
  582MOL0     C78474   7.376  11.567   7.645  0.1525  0.3860 -0.3949
  582MOL0     C78475   7.237  11.548   7.588  0.8956 -0.2052 -0.4947
  582MOL0     C78476   7.243  11.590   7.438  0.2033 -0.8165  0.1120
  582MOL0     C78477   7.113  11.561   7.360  1.1513 -0.1148 -0.0132
  582MOL0     C78478   6.990  11.616   7.419  1.1258 -0.4403 -0.3184
  582MOL0     C78479   6.975  11.769   7.398  0.2130  0.2446 -0.1624
  582MOL0    Cl78480   6.937  11.795   7.224  0.0814 -0.0463 -0.2362
  582MOL0     C78481   7.734  11.397   7.991  0.3971 -0.4081  0.6267
  582MOL0     C78482   7.855  11.340   8.036 -0.1351 -0.5049  0.5982
  582MOL0     O78483   8.034  11.173   8.216 -0.3845 -0.4777 -0.4334
  582MOL0     C78484   8.244  10.993   8.006  1.0374 -0.3445  0.0956
  582MOL0     C78485   8.363  10.930   7.998 -0.5764  0.3214 -0.4400
  582MOL0     N78486   8.997  10.660   7.619 -0.2092  0.4919 -0.9292
  582MOL0     N78487   9.111  10.653   7.567  0.1981 -0.3468  0.4745
  582MOL0     C78488  10.426  10.596   7.879  0.2968  0.2571  0.4607
  582MOL0     C78489  10.552  10.589   7.932  0.0889 -0.5838 -0.5259
  582MOL0     C78490  11.008  10.705   7.939 -0.4199  0.1769  0.3593
  582MOL0     C78491  11.011  10.820   8.026  0.6915  0.3818 -0.2366
  582MOL0     C78492  11.129  10.878   8.065  0.2325  0.1862  0.2680
  582MOL0     C78493  11.250  10.833   8.012 -0.3402 -0.6264 -0.1168
  582MOL0     O78494  11.379  10.877   8.043 -0.3251 -0.5318  0.9285
  582MOL0     C78495  11.382  11.014   8.062 -0.4079 -0.4726 -1.5830
  582MOL0     C78496  11.526  11.049   8.104 -0.3179 -0.7008 -0.7776
  582MOL0     C78497  11.551  11.202   8.111  0.9615 -0.1469  0.8238
  582MOL0     C78498  11.692  11.229   8.168 -0.5980  0.4714 -0.0258
  582MOL0     C78499  11.726  11.370   8.171 -0.3200 -0.3627  0.1888
  582MOL0     C78500  11.768  11.484   8.167 -0.2875 -0.7327  0.1841
  582MOL0     C78501  11.244  10.718   7.932 -0.5300 -0.1203 -0.0331
  582MOL0     C78502  11.135  10.660   7.889  0.4419  0.1905 -0.6061
  582MOL0     H78503  10.685  10.874   7.790 -0.1075  0.7210  0.7709
  582MOL0     H78504  10.449  10.899   7.721  1.0065  0.0884 -0.4864
  582MOL0     H78505  10.155  10.640   7.904 -0.1767 -0.5473  0.6259
  582MOL0     H78506  10.100  10.793   7.833  1.3094  0.2029  0.5668
  582MOL0     H78507  10.038  10.659   7.617 -2.4291  1.1698  0.4046
  582MOL0     H78508  10.097  10.517   7.718  0.0889 -0.3785  3.4118
  582MOL0     H78509   9.912  10.548   7.863 -1.0371 -1.8157  0.1023
  582MOL0     H78510   9.866  10.703   7.790 -1.2276 -1.0036  0.5396
  582MOL0     H78511   9.812  10.590   7.580 -2.0634 -2.0820 -1.7112
  582MOL0     H78512   9.831  10.434   7.659  0.7613 -0.1401  0.6618
  582MOL0     H78513   9.659  10.494   7.837 -0.2264  0.4423  0.5399
  582MOL0     H78514   9.650  10.653   7.752 -0.3389  0.0285 -1.3714
  582MOL0     H78515   9.565  10.523   7.550 -0.3194 -1.0223  0.3098
  582MOL0     H78516   9.547  10.390   7.655  0.0672 -0.4867  1.3768
  582MOL0     H78517   9.399  10.532   7.809  1.3202 -2.1861 -0.2759
  582MOL0     H78518   9.431  10.668   7.698  3.8140 -0.8491 -2.0099
  582MOL0     H78519   9.292  10.409   7.615 -3.1798  1.0473 -1.8583
  582MOL0     H78520   9.333  10.539   7.515 -0.4648 -1.6658 -1.4594
  582MOL0     H78521   9.154  10.518   7.871  0.0567  2.3371  1.1271
  582MOL0     H78522   8.794  10.605   7.807 -0.1312  0.1794  0.9040
  582MOL0     H78523   8.904  10.576   7.940 -1.4961 -0.8348 -0.4598
  582MOL0     H78524   8.825  10.840   7.790 -0.5502  0.8730 -0.5068
  582MOL0     H78525   8.965  10.832   7.892 -0.9198  0.4332 -0.9285
  582MOL0     H78526   8.794  10.930   8.019 -2.0144  0.3137  0.7919
  582MOL0     H78527   8.792  10.765   8.086 -5.2334  0.7540  0.8563
  582MOL0     H78528   8.578  10.728   7.930  0.8224 -0.2509  0.0521
  582MOL0     H78529   8.603  10.891   7.903 -3.2454  1.9130  2.2317
  582MOL0     H78530   8.510  11.035   8.285  0.6046 -0.4616 -1.0550
  582MOL0     H78531   8.207  11.142   8.402  0.2821  0.3213  1.0526
  582MOL0     H78532   8.382  11.171   8.407  0.7600 -0.5520 -0.0930
  582MOL0     H78533   8.281  11.274   8.306  2.2528 -0.0016 -0.3382
  582MOL0     H78534   7.881  11.101   7.788 -3.1777 -1.8789 -0.1893
  582MOL0     H78535   7.672  11.213   7.720  1.3910  1.6780 -0.8943
  582MOL0     H78536   7.488  11.530   7.975  0.3744 -1.1317  0.0629
  582MOL0     H78537   7.577  11.604   7.834 -1.9346  0.4842 -2.3769
  582MOL0     H78538   7.301  11.485   7.844  0.0569 -2.2596 -1.8271
  582MOL0     H78539   7.344  11.655   7.831 -0.5869 -0.5644  1.4121
  582MOL0     H78540   7.441  11.487   7.609 -1.2573 -1.1648  0.3886
  582MOL0     H78541   7.430  11.660   7.622  0.6174 -0.2197 -1.8777
  582MOL0     H78542   7.213  11.441   7.594  0.7439 -0.0831  1.8229
  582MOL0     H78543   7.163  11.610   7.640  0.9697 -2.0787  2.0547
  582MOL0     H78544   7.324  11.538   7.386  0.1440  0.5223 -1.3977
  582MOL0     H78545   7.273  11.695   7.442 -3.6207  0.4866 -1.1585
  582MOL0     H78546   7.118  11.585   7.254 -1.7955  1.4455  0.0863
  582MOL0     H78547   7.098  11.453   7.357 -0.1111 -0.0304  1.6372
  582MOL0     H78548   6.984  11.605   7.528  0.5270  3.1355  0.1167
  582MOL0     H78549   6.913  11.553   7.372  0.3694 -0.6673  1.1605
  582MOL0     H78550   7.068  11.814   7.432 -0.1419  0.8464  0.0130
  582MOL0     H78551   6.896  11.808   7.463  0.5946  0.2934  0.2740
  582MOL0     H78552   7.701  11.483   8.049 -0.7748 -1.6168  1.8424
  582MOL0     H78553   7.900  11.374   8.129  0.7966 -0.4229  0.1326
  582MOL0     H78554   8.172  11.000   7.926  1.7220  2.8537 -0.3826
  582MOL0     H78555   8.380  10.874   7.906  3.2156  1.4289 -0.5614
  582MOL0     H78556  10.363  10.508   7.887 -0.1698  0.6158  0.7592
  582MOL0     H78557  10.581  10.499   7.986 -1.9550 -3.1172 -3.2987
  582MOL0     H78558  10.929  10.875   8.070  1.8962  1.3556  0.8693
  582MOL0     H78559  11.122  10.966   8.127  2.5824  0.0319  0.8661
  582MOL0     H78560  11.354  11.059   7.966  1.4255 -1.9460 -2.8796
  582MOL0     H78561  11.315  11.036   8.145  1.8315  4.2909 -0.7258
  582MOL0     H78562  11.599  11.023   8.027  0.6986  0.7089 -0.3473
  582MOL0     H78563  11.559  11.006   8.199 -1.0757 -0.4812 -0.4028
  582MOL0     H78564  11.470  11.248   8.168 -2.0703  0.4831 -3.5346
  582MOL0     H78565  11.552  11.245   8.011  1.1901 -0.6138  0.6203
  582MOL0     H78566  11.771  11.172   8.119 -1.2948 -0.9028  0.3876
  582MOL0     H78567  11.688  11.196   8.272 -0.5382  0.4604 -0.0267
  582MOL0     H78568  11.796  11.587   8.155  1.3205 -1.0972  0.4909
  582MOL0     H78569  11.340  10.688   7.889  1.1027  2.9856  1.1126
  582MOL0     H78570  11.128  10.582   7.814 -0.5531  1.8766 -2.3411
  583MOL0     O78571   0.196   0.359   3.664  0.5156 -0.0003  0.6561
  583MOL0     C78572   0.219   0.478   3.657 -0.1223  0.3533  0.1622
  583MOL0     O78573   0.128   0.571   3.676 -0.2845 -0.0250  0.0495
  583MOL0     C78574  -0.001   0.540   3.697  0.4690 -0.0182  1.1540
  583MOL0     C78575  -0.070   0.438   3.635  1.1210 -0.0355  0.0665
  583MOL0     C78576  -0.200   0.394   3.678 -0.0190 -0.1066  0.1356
  583MOL0     C78577  -0.278   0.471   3.764  0.2803  0.6969  0.2939
  583MOL0     O78578  -0.407   0.439   3.805  0.2186  0.2134 -0.1633
  583MOL0     C78579  -0.484   0.361   3.708  0.6698 -0.0318 -0.4229
  583MOL0     C78580  -0.623   0.372   3.759 -0.4490  0.2046  0.0984
  583MOL0     C78581  -0.714   0.278   3.686  0.2019 -0.1101  0.0210
  583MOL0     C78582  -0.854   0.257   3.743  0.3037 -1.1011 -0.1212
  583MOL0     C78583  -0.936   0.121   3.699 -0.2445  0.6691 -0.5201
  583MOL0     C78584  -1.063   0.112   3.790 -0.0853  0.5385  0.4619
  583MOL0     C78585  -1.132  -0.026   3.780  0.5794 -0.3876  0.7052
  583MOL0     C78586  -1.248  -0.031   3.880 -0.6386  0.4498 -0.3517
  583MOL0     N78587  -1.357   0.072   3.857 -0.5327  0.0172  0.3247
  583MOL0     C78588  -1.447   0.082   3.753  0.3427 -0.0559  0.0200
  583MOL0     C78589  -1.518   0.197   3.771 -0.3627  0.2920 -0.1231
  583MOL0     C78590  -1.624   0.259   3.693  0.1177 -0.5604  0.5618
  583MOL0     C78591  -1.749   0.247   3.789  0.2361 -0.1638  0.3361
  583MOL0     C78592  -1.874   0.283   3.710 -0.1036 -0.4041  0.5079
  583MOL0     C78593  -1.995   0.267   3.804  0.0907 -0.6070  1.4739
  583MOL0     O78594  -2.102   0.332   3.721  0.5007 -0.4167 -0.0973
  583MOL0     C78595  -2.181   0.435   3.767  0.9166 -0.4771 -0.3385
  583MOL0     C78596  -2.145   0.531   3.870  0.1365  0.1437 -0.5268
  583MOL0     C78597  -2.232   0.640   3.895  0.2108 -1.0504 -0.4844
  583MOL0     C78598  -2.181   0.745   3.992  0.5359  0.2104  0.4807
  583MOL0     C78599  -2.364   0.646   3.829 -0.1908 -0.2705  0.3598
  583MOL0     C78600  -2.462   0.751   3.856  0.0456 -0.2406 -0.0206
  583MOL0     O78601  -2.452   0.831   3.970  0.0562  0.5759 -0.5321
  583MOL0     C78602  -2.533   0.938   3.991  0.2523 -0.0228  0.8156
  583MOL0     C78603  -2.473   1.061   4.003 -0.1705 -0.4539  0.7541
  583MOL0     C78604  -2.551   1.180   4.015 -0.0149  0.2545  0.2324
  583MOL0     C78605  -2.691   1.166   4.023  0.3594 -0.0661 -0.1983
  583MOL0     O78606  -2.784   1.266   4.044 -0.3254  0.2369 -0.3201
  583MOL0     C78607  -2.728   1.393   4.088  0.9653  1.1174 -0.4713
  583MOL0     C78608  -2.836   1.481   4.158 -0.5591 -0.1431  0.2343
  583MOL0     C78609  -2.917   1.413   4.266 -1.0466 -0.5269 -1.0140
  583MOL0     C78610  -2.984   1.519   4.344  0.5230 -0.0631 -0.1369
  583MOL0     C78611  -3.095   1.467   4.432 -0.1981 -0.2952 -0.1392
  583MOL0     C78612  -3.227   1.451   4.355 -0.4290  0.8191 -0.4271
  583MOL0     C78613  -3.342   1.499   4.442 -0.3163  0.4969 -1.1936
  583MOL0     C78614  -3.477   1.489   4.381  0.3562  0.4426  0.0092
  583MOL0    Cl78615  -3.507   1.602   4.250 -0.1041 -0.0286  0.6120
  583MOL0     C78616  -2.748   1.040   4.016  0.1147  0.5626  0.6085
  583MOL0     C78617  -2.670   0.930   3.992  0.2822 -0.1034  0.5122
  583MOL0     O78618  -2.564   0.749   3.785 -0.5257 -0.2228  0.7936
  583MOL0     C78619  -2.393   0.554   3.728  0.0060  0.3332 -0.7446
  583MOL0     C78620  -2.301   0.453   3.695  0.5486 -0.1587  0.4629
  583MOL0     N78621  -1.467   0.250   3.886  0.9558 -1.3447  0.6997
  583MOL0     N78622  -1.366   0.187   3.930 -0.5834 -0.0490 -0.0172
  583MOL0     C78623  -0.207   0.578   3.821 -0.0263 -0.8352 -0.3175
  583MOL0     C78624  -0.070   0.606   3.802  0.1275 -0.5109 -0.0205
  583MOL0     C78625   0.363   0.514   3.630  0.4415 -0.1510 -0.4702
  583MOL0     C78626   0.471   0.445   3.689 -0.1616  0.3340 -0.6015
  583MOL0     C78627   0.602   0.478   3.668 -0.7353 -0.0325 -0.4253
  583MOL0     C78628   0.642   0.592   3.589 -0.0997  0.0959 -0.4016
  583MOL0     O78629   0.777   0.619   3.574 -0.3234 -0.3733 -0.5627
  583MOL0     C78630   0.807   0.750   3.527 -0.9521 -0.3176 -0.3777
  583MOL0     C78631   0.958   0.771   3.521  0.1362 -0.5005 -0.6528
  583MOL0     C78632   1.020   0.812   3.655  0.3379  0.2550  0.5536
  583MOL0     C78633   1.143   0.915   3.650  0.0921 -0.1618 -0.0299
  583MOL0     C78634   1.238   0.851   3.549 -0.7486  0.1532  0.0114
  583MOL0     C78635   1.321   0.798   3.475  0.4542 -0.0573  0.1129
  583MOL0     C78636   0.531   0.677   3.552  0.1754 -0.5466  0.4158
  583MOL0     C78637   0.395   0.639   3.575  0.2520 -0.4953 -0.9025
  583MOL0     H78638  -0.030   0.383   3.550  1.8790 -0.1626  0.5064
  583MOL0     H78639  -0.246   0.305   3.636  1.8774 -0.3185 -1.6191
  583MOL0     H78640  -0.474   0.414   3.612  2.8510 -0.4559 -0.4938
  583MOL0     H78641  -0.449   0.258   3.694  1.0545  0.1832 -1.1254
  583MOL0     H78642  -0.632   0.344   3.864 -0.4981  0.6140  0.2026
  583MOL0     H78643  -0.666   0.471   3.743 -1.5981 -0.4976 -1.4417
  583MOL0     H78644  -0.719   0.303   3.580 -1.6442  2.6906  0.6520
  583MOL0     H78645  -0.673   0.177   3.694  1.6541  0.5418  1.4009
  583MOL0     H78646  -0.853   0.255   3.852  0.5376 -1.8639 -0.1329
  583MOL0     H78647  -0.919   0.340   3.711  0.4864 -1.4023 -1.3440
  583MOL0     H78648  -0.957   0.113   3.591 -0.4242 -0.5222 -0.4098
  583MOL0     H78649  -0.871   0.038   3.725 -0.6491  0.2719 -0.7647
  583MOL0     H78650  -1.039   0.132   3.895 -1.3203  0.0202  0.8575
  583MOL0     H78651  -1.127   0.192   3.753  1.7988  1.0202 -2.0583
  583MOL0     H78652  -1.173  -0.032   3.679 -2.7613  1.0990  1.8319
  583MOL0     H78653  -1.066  -0.110   3.803  0.6828 -0.6070 -0.3372
  583MOL0     H78654  -1.219  -0.025   3.985 -0.2444  0.9646 -0.4825
  583MOL0     H78655  -1.292  -0.129   3.862  0.8426 -0.1600 -0.7243
  583MOL0     H78656  -1.459   0.016   3.667 -3.1358  0.0807  0.2544
  583MOL0     H78657  -1.601   0.362   3.663  1.9492 -0.5878  1.7155
  583MOL0     H78658  -1.646   0.203   3.601  2.1899  0.6344 -0.7199
  583MOL0     H78659  -1.743   0.318   3.872 -0.5515 -1.5188  1.5965
  583MOL0     H78660  -1.773   0.142   3.809  0.1722 -0.0774  0.7240
  583MOL0     H78661  -1.882   0.213   3.627 -2.2553  0.4397 -0.0684
  583MOL0     H78662  -1.869   0.389   3.683  2.5387 -0.3947  0.8298
  583MOL0     H78663  -1.980   0.320   3.898  0.1126  3.1090 -0.4546
  583MOL0     H78664  -2.016   0.161   3.820  0.3041 -1.2988 -1.9479
  583MOL0     H78665  -2.044   0.527   3.908 -0.1984 -0.7117  0.3115
  583MOL0     H78666  -2.244   0.763   4.080  1.1803  1.8416  0.6604
  583MOL0     H78667  -2.089   0.708   4.038  0.4813 -1.3103 -0.5871
  583MOL0     H78668  -2.151   0.838   3.943  0.8287 -0.1135  0.0374
  583MOL0     H78669  -2.365   1.066   3.998 -0.2286 -0.3875 -1.2264
  583MOL0     H78670  -2.499   1.275   4.019  0.9024 -0.1586 -1.3999
  583MOL0     H78671  -2.649   1.377   4.162  0.1301  1.1772  0.4640
  583MOL0     H78672  -2.683   1.438   3.999  0.0836  0.7739 -1.1079
  583MOL0     H78673  -2.795   1.577   4.192 -3.5236  2.1873 -2.2117
  583MOL0     H78674  -2.910   1.509   4.083  0.6641  3.8779  0.3083
  583MOL0     H78675  -2.849   1.361   4.334  0.7635  0.5762 -1.9170
  583MOL0     H78676  -2.995   1.346   4.229 -1.6810 -0.3683  0.0007
  583MOL0     H78677  -2.913   1.579   4.401  0.0856  2.1567 -1.8051
  583MOL0     H78678  -3.019   1.598   4.277  0.4776  0.6388  0.6951
  583MOL0     H78679  -3.100   1.543   4.510  1.4712 -1.6525  1.3734
  583MOL0     H78680  -3.059   1.374   4.477  0.4341  0.2696  0.5500
  583MOL0     H78681  -3.225   1.498   4.256  1.1135 -1.9443 -1.8056
  583MOL0     H78682  -3.232   1.343   4.340  1.7007  0.6746 -0.3683
  583MOL0     H78683  -3.321   1.606   4.455  2.1339 -0.1225  0.6867
  583MOL0     H78684  -3.340   1.452   4.541  0.9205  3.5954  0.4107
  583MOL0     H78685  -3.553   1.511   4.457 -0.1935  0.3905 -0.5177
  583MOL0     H78686  -3.487   1.384   4.351 -1.8473  0.2754  1.1269
  583MOL0     H78687  -2.854   1.020   4.026  0.0655  0.6618  0.3053
  583MOL0     H78688  -2.724   0.840   3.961 -2.6176  2.3983 -2.5345
  583MOL0     H78689  -2.484   0.563   3.671 -0.5230 -1.2940 -0.2052
  583MOL0     H78690  -2.323   0.392   3.608 -1.0786  1.5628 -0.4171
  583MOL0     H78691  -0.259   0.640   3.894  1.7415 -1.2100  1.3455
  583MOL0     H78692  -0.021   0.678   3.868  0.7540 -2.6317  1.9595
  583MOL0     H78693   0.443   0.361   3.752 -0.3102 -0.4862 -1.7238
  583MOL0     H78694   0.673   0.411   3.715 -1.3196 -0.2953  0.0902
  583MOL0     H78695   0.765   0.753   3.426 -1.0703 -3.5173 -0.5085
  583MOL0     H78696   0.758   0.819   3.596 -1.1073 -2.7690  2.1510
  583MOL0     H78697   0.977   0.852   3.450  0.6262  0.7466  0.8334
  583MOL0     H78698   1.019   0.688   3.482  0.5120 -1.2038  1.3261
  583MOL0     H78699   1.044   0.717   3.704 -0.1511  0.7681  1.8251
  583MOL0     H78700   0.943   0.848   3.724  0.0105 -0.0053  0.3249
  583MOL0     H78701   1.187   0.917   3.750 -1.2665 -0.3075  0.6019
  583MOL0     H78702   1.112   1.013   3.613 -0.5644 -1.1131 -2.1490
  583MOL0     H78703   1.389   0.757   3.404  0.4931  1.1802 -0.5907
  583MOL0     H78704   0.555   0.771   3.503  0.5000 -1.1802 -0.6631
  583MOL0     H78705   0.312   0.698   3.537  0.8136  1.9339  1.4089
  584MOL0     O78706   9.766   1.432   8.037  0.4673 -0.1831  0.4386
  584MOL0     C78707   9.818   1.346   7.962 -0.0476 -0.2504 -0.2584
  584MOL0     O78708   9.761   1.290   7.857  0.3214 -0.3650  0.2866
  584MOL0     C78709   9.639   1.342   7.825  0.1974  0.1539 -0.1123
  584MOL0     C78710   9.639   1.427   7.716 -0.4204 -0.0470 -0.0173
  584MOL0     C78711   9.516   1.489   7.676  0.2935  0.0693 -0.0858
  584MOL0     C78712   9.392   1.458   7.731 -0.2492 -0.0505 -0.6332
  584MOL0     O78713   9.270   1.495   7.688  0.2938 -0.2601 -0.0606
  584MOL0     C78714   9.251   1.633   7.641  0.5088 -0.7674 -0.2116
  584MOL0     C78715   9.101   1.682   7.683  0.0602  0.6539 -0.4230
  584MOL0     C78716   8.988   1.594   7.622  0.7839 -0.3865 -0.3976
  584MOL0     C78717   8.854   1.630   7.681 -0.4390 -0.0093 -0.1140
  584MOL0     C78718   8.745   1.613   7.579 -0.0755  0.0221  0.1114
  584MOL0     C78719   8.626   1.694   7.623  1.1251  0.7181  0.4383
  584MOL0     C78720   8.506   1.682   7.524  0.6940  0.2445 -0.2891
  584MOL0     C78721   8.387   1.764   7.573  0.3611 -0.0363  0.0792
  584MOL0     N78722   8.257   1.735   7.505 -0.1005 -0.1357 -0.0314
  584MOL0     C78723   8.138   1.721   7.566  0.6442  0.1663  0.1499
  584MOL0     C78724   8.059   1.686   7.465  0.2929  0.8722  0.4989
  584MOL0     C78725   7.908   1.640   7.467 -0.5596 -0.3357 -0.2239
  584MOL0     C78726   7.812   1.758   7.441  0.3378 -1.0362 -0.8671
  584MOL0     C78727   7.655   1.722   7.441  0.2264 -0.6190 -0.3942
  584MOL0     C78728   7.557   1.831   7.417  0.6622 -0.5473  0.7552
  584MOL0     O78729   7.425   1.790   7.460  0.6678  0.0515  0.4395
  584MOL0     C78730   7.318   1.869   7.420  0.6489 -0.0406 -0.0887
  584MOL0     C78731   7.326   2.008   7.420  0.0797 -0.3854 -0.9892
  584MOL0     C78732   7.213   2.081   7.391  0.8105  0.1944 -0.1677
  584MOL0     C78733   7.223   2.226   7.433 -0.5420  0.1008 -0.2916
  584MOL0     C78734   7.092   2.017   7.344 -0.5758  0.2835 -0.0941
  584MOL0     C78735   6.962   2.087   7.314 -0.2548  0.5985 -0.3093
  584MOL0     O78736   6.887   2.016   7.232 -0.3466 -0.4602  0.0670
  584MOL0     C78737   6.756   2.055   7.212 -0.0249 -0.7345 -0.6599
  584MOL0     C78738   6.717   2.180   7.149 -1.1485  0.6253  0.3125
  584MOL0     C78739   6.584   2.215   7.126  0.8010  0.0257  0.2577
  584MOL0     C78740   6.484   2.122   7.166  0.1206 -0.0685  0.1564
  584MOL0     O78741   6.352   2.153   7.150  0.2590  0.3858  0.3487
  584MOL0     C78742   6.287   2.109   7.027 -0.8587 -0.0466 -0.9911
  584MOL0     C78743   6.143   2.103   7.061 -0.1441 -0.2157  0.5535
  584MOL0     C78744   6.110   2.009   7.178 -0.0757  0.2427 -0.1081
  584MOL0     C78745   5.964   2.019   7.218  0.0199 -0.4879 -0.5012
  584MOL0     C78746   5.912   1.906   7.310 -0.2917  0.1438 -1.4044
  584MOL0     C78747   5.787   1.927   7.396 -0.3752 -0.1620 -1.4403
  584MOL0     C78748   5.796   2.031   7.502 -0.1733 -0.3437  0.9263
  584MOL0     C78749   5.731   1.980   7.631  0.3844  0.2449  0.3858
  584MOL0    Cl78750   5.556   1.920   7.609 -0.4920 -0.6618  0.1164
  584MOL0     C78751   6.523   2.000   7.222  0.1997 -0.3369  0.7606
  584MOL0     C78752   6.654   1.971   7.247 -0.2550  0.3931  0.3938
  584MOL0     O78753   6.943   2.206   7.353 -0.0366  1.2453 -0.1017
  584MOL0     C78754   7.096   1.879   7.325  0.0039  0.0666  0.3211
  584MOL0     C78755   7.204   1.801   7.365 -0.8595 -1.2369 -0.2387
  584MOL0     N78756   8.128   1.686   7.345 -1.0797  0.4743 -0.3397
  584MOL0     N78757   8.251   1.712   7.373 -0.3151  0.5845 -0.4982
  584MOL0     C78758   9.398   1.365   7.837  0.2071  0.3126 -0.0678
  584MOL0     C78759   9.519   1.318   7.894  0.4656 -0.0074  0.4903
  584MOL0     C78760   9.957   1.311   7.999 -0.5272  0.6420  0.1172
  584MOL0     C78761  10.048   1.228   7.933 -0.2756  0.7025 -0.5712
  584MOL0     C78762  10.178   1.194   7.971 -0.2379 -0.1800  0.0786
  584MOL0     C78763  10.232   1.260   8.076  0.1888 -0.4600 -0.2159
  584MOL0     O78764  10.359   1.246   8.131 -0.1311  0.1557  0.2696
  584MOL0     C78765  10.467   1.260   8.038 -0.1443  0.2751  0.7860
  584MOL0     C78766  10.546   1.124   8.019  0.0933 -0.2891  0.5442
  584MOL0     C78767  10.665   1.158   7.920 -0.4608  0.3263  0.4556
  584MOL0     C78768  10.762   1.029   7.897 -0.0803  0.2300  0.6852
  584MOL0     C78769  10.862   1.079   7.801  0.5857  0.1075 -0.6731
  584MOL0     C78770  10.954   1.104   7.724 -0.3066 -0.4515 -0.2966
  584MOL0     C78771  10.154   1.362   8.144 -0.2117  0.2383  0.0257
  584MOL0     C78772  10.017   1.376   8.113 -0.4195 -0.3127  0.8139
  584MOL0     H78773   9.735   1.441   7.667 -0.0452 -0.9861  0.4077
  584MOL0     H78774   9.516   1.561   7.594  1.6669  0.0685 -0.0935
  584MOL0     H78775   9.333   1.688   7.687 -1.5351  1.2872  1.1890
  584MOL0     H78776   9.268   1.632   7.533 -0.5685  1.5890 -0.4625
  584MOL0     H78777   9.098   1.680   7.792 -2.9274  3.3474 -0.3316
  584MOL0     H78778   9.085   1.787   7.657 -1.9061  1.3730  3.0378
  584MOL0     H78779   9.003   1.614   7.516  1.3630  1.4437  0.0028
  584MOL0     H78780   8.997   1.486   7.641 -0.0409 -0.2015  1.2357
  584MOL0     H78781   8.828   1.560   7.760  1.3066  0.9789  1.4200
  584MOL0     H78782   8.856   1.732   7.719  0.0342  0.2189 -0.7152
  584MOL0     H78783   8.771   1.652   7.480 -1.1019  3.2585  0.9894
  584MOL0     H78784   8.722   1.506   7.578  1.3485 -0.3258  1.0228
  584MOL0     H78785   8.596   1.655   7.721  0.9263  1.0409  0.5103
  584MOL0     H78786   8.667   1.795   7.640  2.8267 -0.0962  1.4009
  584MOL0     H78787   8.535   1.707   7.422 -1.6928 -0.4738 -1.2083
  584MOL0     H78788   8.472   1.578   7.524 -0.9791  0.7510 -0.2951
  584MOL0     H78789   8.412   1.870   7.572  0.0662  0.0713 -2.4976
  584MOL0     H78790   8.369   1.736   7.677  0.3901  1.3501  0.4758
  584MOL0     H78791   8.105   1.729   7.669 -0.8891 -0.5105 -0.2581
  584MOL0     H78792   7.893   1.561   7.394  0.5863  1.7273 -2.8455
  584MOL0     H78793   7.885   1.601   7.567 -2.0987  0.8101 -0.0957
  584MOL0     H78794   7.824   1.815   7.348  1.4310  0.7899  0.3319
  584MOL0     H78795   7.826   1.828   7.524  1.0765 -1.1011 -0.9316
  584MOL0     H78796   7.633   1.694   7.545  0.7399 -0.9146 -0.3615
  584MOL0     H78797   7.625   1.645   7.369 -1.3119  0.7454 -1.2659
  584MOL0     H78798   7.554   1.843   7.309  1.3307  0.3799  0.8256
  584MOL0     H78799   7.588   1.931   7.448 -1.1954  0.7789 -1.3654
  584MOL0     H78800   7.418   2.048   7.463  1.2027 -1.8777 -1.9033
  584MOL0     H78801   7.147   2.244   7.509 -0.8792 -0.1209 -0.5698
  584MOL0     H78802   7.315   2.262   7.480  0.2117  0.4212 -1.9341
  584MOL0     H78803   7.206   2.294   7.349  0.3689  0.5288 -0.1475
  584MOL0     H78804   6.795   2.248   7.117  2.7701 -1.7551  3.7349
  584MOL0     H78805   6.561   2.311   7.082 -2.2088 -1.3478 -1.5613
  584MOL0     H78806   6.317   2.183   6.952  2.5454  1.2221  1.3661
  584MOL0     H78807   6.316   2.011   6.987 -2.7136 -1.2214  0.3992
  584MOL0     H78808   6.104   2.202   7.083 -0.2147 -0.7092  2.8630
  584MOL0     H78809   6.079   2.081   6.974 -0.5094  2.7819 -0.0362
  584MOL0     H78810   6.172   2.028   7.265  1.0235  0.8994 -1.0012
  584MOL0     H78811   6.120   1.907   7.138 -2.7114  1.0865 -3.4291
  584MOL0     H78812   5.947   2.119   7.259 -1.6244  0.1740 -2.6473
  584MOL0     H78813   5.900   2.031   7.131 -0.5300 -2.0084 -0.3350
  584MOL0     H78814   5.993   1.880   7.379  0.1348  0.2560 -1.8593
  584MOL0     H78815   5.898   1.812   7.255 -1.1431  0.4986 -1.8138
  584MOL0     H78816   5.715   1.968   7.325  0.1453 -0.7808 -2.3661
  584MOL0     H78817   5.758   1.830   7.438  2.4209 -0.2998  0.4906
  584MOL0     H78818   5.734   2.116   7.474  0.8961  0.3229  0.5378
  584MOL0     H78819   5.901   2.059   7.517 -0.0317  0.2364 -0.9117
  584MOL0     H78820   5.734   2.057   7.709 -0.1270  0.3693  0.2898
  584MOL0     H78821   5.787   1.894   7.670  2.1442  0.7488 -0.9100
  584MOL0     H78822   6.450   1.922   7.234 -0.9951  0.9132  1.9540
  584MOL0     H78823   6.678   1.880   7.301 -0.9181 -0.1292 -0.1724
  584MOL0     H78824   7.015   1.827   7.274 -0.6566  1.4798 -0.1341
  584MOL0     H78825   7.210   1.693   7.355 -2.4176 -1.5633  1.5912
  584MOL0     H78826   9.310   1.331   7.890  0.6045  0.1279  0.4856
  584MOL0     H78827   9.524   1.253   7.982 -0.2303 -2.9169 -1.4570
  584MOL0     H78828  10.015   1.183   7.840 -2.5954 -0.3624  0.6686
  584MOL0     H78829  10.242   1.129   7.913 -0.7906  0.9953 -1.9618
  584MOL0     H78830  10.442   1.282   7.934 -0.2372 -0.2106  0.7011
  584MOL0     H78831  10.530   1.340   8.077  3.3409 -1.7488 -0.2306
  584MOL0     H78832  10.483   1.050   7.968 -0.6709  0.0941  0.9053
  584MOL0     H78833  10.598   1.082   8.105 -1.2061  1.7322  2.4211
  584MOL0     H78834  10.718   1.249   7.950 -1.9561  1.5757 -0.5195
  584MOL0     H78835  10.615   1.178   7.825  0.1136 -0.4809 -0.0264
  584MOL0     H78836  10.705   0.945   7.856  0.0173  0.9529 -0.9938
  584MOL0     H78837  10.813   0.985   7.984  1.1549  2.0475  0.9381
  584MOL0     H78838  11.028   1.138   7.655  2.1526 -0.5654  2.1004
  584MOL0     H78839  10.193   1.410   8.233 -3.3764  1.3397  0.9660
  584MOL0     H78840   9.958   1.443   8.174  0.0990 -1.6685  2.9229
  585MOL0     O78841   8.317  10.079   7.203  0.4081 -0.3000  0.2171
  585MOL0     C78842   8.310  10.033   7.087 -0.6711 -0.5309 -0.0815
  585MOL0     O78843   8.214   9.961   7.027 -0.4891 -0.3882  0.0934
  585MOL0     C78844   8.088   9.935   7.086  0.1850  0.2949  0.4304
  585MOL0     C78845   8.026   9.815   7.060 -0.6210  0.1166 -0.0353
  585MOL0     C78846   7.896   9.786   7.115 -0.5553 -0.0233 -0.1728
  585MOL0     C78847   7.831   9.875   7.192 -0.2167 -0.6817 -0.8117
  585MOL0     O78848   7.705   9.862   7.253 -0.0399 -0.1056 -0.1884
  585MOL0     C78849   7.638   9.747   7.211  0.8900 -0.1424  0.9630
  585MOL0     C78850   7.494   9.759   7.253 -0.0879  0.0440 -0.0393
  585MOL0     C78851   7.402   9.643   7.202 -0.5682  0.3057  0.3138
  585MOL0     C78852   7.254   9.650   7.241 -0.2166 -0.4273  0.0415
  585MOL0     C78853   7.182   9.762   7.161 -0.3974 -0.6413  0.3635
  585MOL0     C78854   7.035   9.772   7.195  0.1163 -0.1377 -0.7148
  585MOL0     C78855   6.947   9.643   7.173 -0.6320 -0.3612 -0.2642
  585MOL0     C78856   6.804   9.667   7.188  0.0724 -0.0902  0.4729
  585MOL0     N78857   6.743   9.737   7.072  1.0625  0.0779  0.9232
  585MOL0     C78858   6.677   9.860   7.085  0.9333  1.1609 -0.0966
  585MOL0     C78859   6.601   9.873   6.975 -0.4774  0.1788  0.2345
  585MOL0     C78860   6.531   9.992   6.924  0.3990  0.1754 -0.1756
  585MOL0     C78861   6.605  10.065   6.806 -0.7627  0.2531  0.1648
  585MOL0     C78862   6.536  10.203   6.781  0.1190 -0.0472 -0.3372
  585MOL0     C78863   6.388  10.176   6.750 -0.5452 -1.2404 -0.6534
  585MOL0     O78864   6.346  10.287   6.677 -0.2036 -0.5545 -0.3745
  585MOL0     C78865   6.208  10.302   6.645 -0.2966  0.1629  0.8325
  585MOL0     C78866   6.115  10.204   6.660  1.1144  0.4252 -1.0757
  585MOL0     C78867   5.980  10.226   6.613  0.1343  0.3971 -0.4634
  585MOL0     C78868   5.876  10.114   6.642 -0.6510  0.0773 -0.6288
  585MOL0     C78869   5.934  10.350   6.569  0.3201 -0.0186 -1.0516
  585MOL0     C78870   5.800  10.393   6.515 -1.0454 -0.4936 -0.1606
  585MOL0     O78871   5.765  10.522   6.540  0.5266  0.6055  0.0031
  585MOL0     C78872   5.641  10.554   6.483  0.3282 -0.2430 -0.1153
  585MOL0     C78873   5.623  10.590   6.350 -0.1533 -0.0724 -0.0376
  585MOL0     C78874   5.490  10.610   6.298 -0.3926 -0.7760 -0.4595
  585MOL0     C78875   5.375  10.614   6.383 -0.2679 -0.0342 -0.8249
  585MOL0     O78876   5.250  10.637   6.334 -0.2766 -0.9122  1.5121
  585MOL0     C78877   5.220  10.631   6.198 -0.0209 -0.6754  0.1131
  585MOL0     C78878   5.071  10.631   6.180  0.1719 -0.9183  0.2121
  585MOL0     C78879   5.045  10.636   6.029  1.0049  0.4132 -0.3012
  585MOL0     C78880   4.893  10.661   5.980 -1.2240 -0.1624 -0.1380
  585MOL0     C78881   4.793  10.574   6.055 -1.1333  0.0545 -0.1472
  585MOL0     C78882   4.666  10.572   5.979  0.3717 -0.9886  0.0129
  585MOL0     C78883   4.590  10.711   5.999 -0.0369  0.0242  0.4981
  585MOL0     C78884   4.459  10.696   5.931  0.1696 -0.7361  0.8339
  585MOL0    Cl78885   4.329  10.821   5.959  0.3338 -0.3978  0.1675
  585MOL0     C78886   5.388  10.587   6.518 -0.3670 -0.8620  0.3332
  585MOL0     C78887   5.518  10.562   6.569 -0.1854 -0.1924 -0.5458
  585MOL0     O78888   5.746  10.310   6.446 -0.0477 -0.0812 -0.4011
  585MOL0     C78889   6.033  10.456   6.563  0.6524 -0.2844  0.0855
  585MOL0     C78890   6.167  10.430   6.593 -0.1887  0.2734 -0.2739
  585MOL0     N78891   6.610   9.752   6.902  0.6128  0.0385  0.0329
  585MOL0     N78892   6.693   9.673   6.962  0.1259  0.1723  0.2707
  585MOL0     C78893   7.902   9.990   7.235 -0.3010  0.3320  0.1191
  585MOL0     C78894   8.026  10.013   7.179  0.5453 -0.4289  0.5867
  585MOL0     C78895   8.430  10.057   6.997 -0.1042  0.7031 -0.2993
  585MOL0     C78896   8.449  10.000   6.867  0.0096 -0.1111 -0.7875
  585MOL0     C78897   8.575  10.011   6.809 -0.1088 -0.0940  1.0674
  585MOL0     C78898   8.680  10.076   6.868 -0.2751  1.0444 -0.6019
  585MOL0     O78899   8.797  10.091   6.803 -0.2522  0.1359  0.0303
  585MOL0     C78900   8.854   9.987   6.715  0.3761 -0.4959 -0.3400
  585MOL0     C78901   8.994  10.016   6.672 -0.9407 -0.0639  0.2841
  585MOL0     C78902   9.072   9.886   6.642 -0.3559  0.0026  0.6177
  585MOL0     C78903   9.211   9.906   6.579  1.1181  0.5368 -0.8033
  585MOL0     C78904   9.255   9.774   6.537 -0.3025  0.7112 -0.4152
  585MOL0     C78905   9.295   9.663   6.522  0.3024  0.5437  0.3241
  585MOL0     C78906   8.658  10.130   6.993  0.4394 -1.0006 -0.1329
  585MOL0     C78907   8.536  10.127   7.057  0.0647  0.4679 -0.5364
  585MOL0     H78908   8.073   9.745   6.992  4.6808  0.3724  2.8359
  585MOL0     H78909   7.858   9.692   7.076 -0.2511  1.2856 -4.0631
  585MOL0     H78910   7.634   9.741   7.102  3.5318 -0.3227  0.8088
  585MOL0     H78911   7.690   9.667   7.264  0.1399 -0.4753  1.2235
  585MOL0     H78912   7.493   9.750   7.362  0.8466 -0.7055 -0.0774
  585MOL0     H78913   7.459   9.858   7.222  2.2106  1.6658  2.1294
  585MOL0     H78914   7.405   9.645   7.093 -1.1021  1.6688  0.3122
  585MOL0     H78915   7.443   9.548   7.240  0.0279  1.6260  3.2519
  585MOL0     H78916   7.213   9.550   7.227 -1.5468 -0.2312  2.0279
  585MOL0     H78917   7.236   9.671   7.347  2.1445  0.2225  0.3732
  585MOL0     H78918   7.218   9.864   7.178 -0.3215 -0.8123  1.2469
  585MOL0     H78919   7.189   9.763   7.052  0.2096  0.8401  0.3942
  585MOL0     H78920   7.028   9.799   7.301 -0.1388 -0.3526 -0.6750
  585MOL0     H78921   6.991   9.853   7.135  2.3030 -0.0334 -2.2936
  585MOL0     H78922   6.968   9.594   7.077 -1.0185 -1.7292  0.3227
  585MOL0     H78923   6.980   9.575   7.252 -2.5519  0.2256  1.1199
  585MOL0     H78924   6.796   9.725   7.281  0.3272  0.6111  0.0666
  585MOL0     H78925   6.754   9.570   7.196  0.4232 -0.2681  0.5301
  585MOL0     H78926   6.679   9.932   7.166 -2.0650 -1.8460  3.0025
  585MOL0     H78927   6.433   9.956   6.890 -0.5679 -0.2388  2.7402
  585MOL0     H78928   6.517  10.067   7.001 -0.3583  2.2184 -2.1921
  585MOL0     H78929   6.610  10.018   6.708 -0.3928  0.5134  0.0611
  585MOL0     H78930   6.708  10.088   6.835 -0.1716  2.7507 -3.3487
  585MOL0     H78931   6.590  10.255   6.702 -0.1095  0.7981  0.0592
  585MOL0     H78932   6.549  10.269   6.867  2.3051  1.8204 -1.9845
  585MOL0     H78933   6.321  10.172   6.837 -1.6801  0.6641 -1.3828
  585MOL0     H78934   6.377  10.087   6.688  0.6631  0.3161 -3.2426
  585MOL0     H78935   6.153  10.109   6.697  0.9124  1.2581  1.4977
  585MOL0     H78936   5.840  10.070   6.548  1.7434 -0.8690 -1.1753
  585MOL0     H78937   5.919  10.027   6.692  2.3204  2.4591  1.2961
  585MOL0     H78938   5.789  10.152   6.697 -0.0795 -1.2439  1.2775
  585MOL0     H78939   5.706  10.607   6.282 -0.1581  2.0467  0.3900
  585MOL0     H78940   5.485  10.636   6.193 -1.6181 -0.1122 -0.2524
  585MOL0     H78941   5.262  10.723   6.156  0.4098 -0.8270  0.2181
  585MOL0     H78942   5.263  10.547   6.143  0.0542 -0.6538  0.1385
  585MOL0     H78943   5.024  10.542   6.223 -0.7485  0.0474  1.2582
  585MOL0     H78944   5.022  10.714   6.233 -1.5853 -0.2865 -2.2466
  585MOL0     H78945   5.070  10.537   5.991  0.8962  0.1239  0.3693
  585MOL0     H78946   5.113  10.709   5.982 -0.7544  0.8665 -2.3016
  585MOL0     H78947   4.864  10.765   5.996  1.2706  0.6170 -0.2818
  585MOL0     H78948   4.886  10.629   5.876 -1.0549  0.3792 -0.3214
  585MOL0     H78949   4.774  10.599   6.159  3.0836  0.3473  0.7242
  585MOL0     H78950   4.829  10.471   6.058 -0.8878  0.1582  0.6339
  585MOL0     H78951   4.672  10.544   5.873  2.4351  0.8421 -0.4247
  585MOL0     H78952   4.604  10.499   6.032 -0.1826 -0.5708 -0.0446
  585MOL0     H78953   4.645  10.790   5.947 -0.4215 -0.1327 -0.1604
  585MOL0     H78954   4.574  10.734   6.104 -2.0168  0.9020  0.0444
  585MOL0     H78955   4.412  10.604   5.967 -0.0321 -0.2698  1.7983
  585MOL0     H78956   4.475  10.696   5.823  3.2393  1.0104  1.1753
  585MOL0     H78957   5.292  10.583   6.567 -1.5279 -0.0854 -1.7458
  585MOL0     H78958   5.534  10.539   6.673  0.9773  1.6340 -0.2721
  585MOL0     H78959   6.010  10.558   6.531  1.2354 -0.2065 -0.0939
  585MOL0     H78960   6.232  10.517   6.595 -0.6121  0.5856  0.5218
  585MOL0     H78961   7.848  10.060   7.298  2.3527  3.5956 -0.9304
  585MOL0     H78962   8.075  10.109   7.180  0.8411 -0.4666 -2.3627
  585MOL0     H78963   8.371   9.938   6.825  1.0228 -0.9902 -1.4111
  585MOL0     H78964   8.583   9.974   6.707  1.6965 -0.7400  1.4102
  585MOL0     H78965   8.847   9.892   6.768 -1.6152  0.0342  0.4204
  585MOL0     H78966   8.805   9.982   6.617  0.0446 -0.5383 -0.1752
  585MOL0     H78967   9.048  10.064   6.755  1.5839 -2.6666  0.3133
  585MOL0     H78968   8.994  10.077   6.582  0.4269 -0.5858 -0.0973
  585MOL0     H78969   9.004   9.833   6.575  0.1722  2.5189 -2.1506
  585MOL0     H78970   9.080   9.818   6.728 -2.5284 -1.4496 -0.2489
  585MOL0     H78971   9.269   9.956   6.656 -1.3856  3.7014 -0.7977
  585MOL0     H78972   9.200   9.971   6.491  1.6855 -3.4887 -4.2053
  585MOL0     H78973   9.338   9.565   6.516  0.0788  0.4722 -0.1555
  585MOL0     H78974   8.738  10.185   7.043 -0.1109 -0.8234  0.5710
  585MOL0     H78975   8.519  10.177   7.152 -0.7447 -2.4038  0.9476
  586MOL0     O78976   5.974   9.826   6.508  0.2491  0.1597  0.5387
  586MOL0     C78977   6.015   9.890   6.410  0.0802 -0.3679 -0.3915
  586MOL0     O78978   5.938   9.935   6.308  0.1308  0.1179 -0.1252
  586MOL0     C78979   5.806   9.892   6.304  0.3584  0.7091  0.7143
  586MOL0     C78980   5.711   9.996   6.304  0.1391 -0.1587 -1.0126
  586MOL0     C78981   5.573   9.970   6.296  0.4492 -0.1277  0.5332
  586MOL0     C78982   5.528   9.839   6.275  0.8173 -0.2871  0.6759
  586MOL0     O78983   5.390   9.824   6.255 -0.6837  0.0057  0.2955
  586MOL0     C78984   5.328   9.697   6.266  0.5181  0.9194  0.5296
  586MOL0     C78985   5.174   9.714   6.288  0.6006  0.1784 -0.1687
  586MOL0     C78986   5.097   9.587   6.248 -0.5548 -0.3779 -0.8346
  586MOL0     C78987   5.145   9.459   6.321  0.6872 -0.2183  0.5424
  586MOL0     C78988   5.079   9.325   6.268  0.5696  0.4268  1.1800
  586MOL0     C78989   4.988   9.259   6.373  0.4699 -0.7431 -0.1141
  586MOL0     C78990   4.857   9.334   6.402 -0.5946 -0.0702 -0.6223
  586MOL0     C78991   4.818   9.312   6.546 -0.2766  0.2356  0.2788
  586MOL0     N78992   4.689   9.363   6.587 -0.1044  0.1500  0.5018
  586MOL0     C78993   4.572   9.298   6.581  0.1021 -0.3673 -0.5236
  586MOL0     C78994   4.491   9.362   6.672  0.3131 -0.0136  0.3498
  586MOL0     C78995   4.348   9.323   6.703 -0.0305  0.2316 -0.2146
  586MOL0     C78996   4.248   9.437   6.661 -0.9768 -0.1302  0.3100
  586MOL0     C78997   4.104   9.409   6.668  0.4320  0.2178 -0.4624
  586MOL0     C78998   4.023   9.532   6.629 -0.1376  0.0302  0.7683
  586MOL0     O78999   3.889   9.491   6.594  0.3324 -0.1721  0.2885
  586MOL0     C79000   3.787   9.583   6.575 -0.4426 -0.3940 -0.4494
  586MOL0     C79001   3.811   9.725   6.583 -0.8582 -0.0639  0.6683
  586MOL0     C79002   3.710   9.818   6.561  0.4652 -0.7735 -0.2422
  586MOL0     C79003   3.742   9.967   6.609  0.1042  1.1643 -0.1406
  586MOL0     C79004   3.580   9.776   6.530  0.7125  0.3087 -0.5832
  586MOL0     C79005   3.466   9.866   6.509  0.2190  0.0251 -0.2817
  586MOL0     O79006   3.350   9.792   6.507 -0.2306  0.2411 -0.0544
  586MOL0     C79007   3.229   9.857   6.489 -0.0719 -0.0786  0.7940
  586MOL0     C79008   3.189   9.973   6.560  0.5362  0.9325 -0.0726
  586MOL0     C79009   3.055  10.009   6.566 -0.0502  0.2327  0.0294
  586MOL0     C79010   2.953   9.934   6.504 -0.2937  1.0282  0.7086
  586MOL0     O79011   2.825   9.989   6.499  0.1743  0.1887 -0.0698
  586MOL0     C79012   2.720   9.905   6.448  0.6849 -0.2771 -0.5407
  586MOL0     C79013   2.698   9.784   6.541 -0.0112  0.3887 -0.5610
  586MOL0     C79014   2.557   9.724   6.538 -0.1901  0.2421  0.1236
  586MOL0     C79015   2.555   9.574   6.577  0.2607 -0.0788 -0.2395
  586MOL0     C79016   2.431   9.507   6.512  0.1025 -0.3291  0.1172
  586MOL0     C79017   2.307   9.568   6.581  0.5841 -0.3064  0.3908
  586MOL0     C79018   2.175   9.512   6.545  0.4488  0.1045 -0.2347
  586MOL0     C79019   2.109   9.571   6.425 -1.2165  0.2132 -0.1262
  586MOL0    Cl79020   2.185   9.512   6.274 -0.4295  0.0516  0.3736
  586MOL0     C79021   2.998   9.817   6.429  0.2374  0.3905  0.1144
  586MOL0     C79022   3.132   9.783   6.420  0.1571 -0.1319  0.0319
  586MOL0     O79023   3.481   9.986   6.480  0.1374  0.0964 -0.0985
  586MOL0     C79024   3.560   9.634   6.516  0.1037 -0.4063  0.1021
  586MOL0     C79025   3.664   9.542   6.550 -0.2422 -0.2351 -0.1980
  586MOL0     N79026   4.566   9.464   6.725  0.2272 -0.5115 -0.4511
  586MOL0     N79027   4.675   9.470   6.671  0.1035  0.6097 -0.2357
  586MOL0     C79028   5.625   9.737   6.261  0.6834  0.3472 -1.1472
  586MOL0     C79029   5.764   9.761   6.273  0.0620 -0.6941  0.6585
  586MOL0     C79030   6.159   9.915   6.411 -0.2548 -0.0120  0.6779
  586MOL0     C79031   6.247   9.810   6.434 -0.0550 -0.2980 -0.4310
  586MOL0     C79032   6.384   9.830   6.413  0.3028  0.2656 -0.6339
  586MOL0     C79033   6.442   9.966   6.400 -0.0117  1.0267  0.0017
  586MOL0     O79034   6.579   9.968   6.400  0.1398  0.3395  0.2178
  586MOL0     C79035   6.650  10.086   6.435 -0.3726  0.0300  0.9420
  586MOL0     C79036   6.658  10.190   6.332 -0.1319  0.3714  0.1244
  586MOL0     C79037   6.704  10.326   6.394 -0.7132  0.2309 -0.0779
  586MOL0     C79038   6.743  10.407   6.270  0.6774  0.1742 -0.0181
  586MOL0     C79039   6.805  10.533   6.313 -0.4547 -0.0568 -0.5314
  586MOL0     C79040   6.868  10.628   6.351 -0.3431  0.2074  0.2268
  586MOL0     C79041   6.355  10.068   6.381  0.6781  0.1946  0.7978
  586MOL0     C79042   6.211  10.047   6.382  0.2032  0.4078 -0.7731
  586MOL0     H79043   5.755  10.093   6.321 -2.9035  0.9001  2.1072
  586MOL0     H79044   5.498  10.047   6.307  1.1373  0.8123 -0.9837
  586MOL0     H79045   5.352   9.643   6.174  1.3742  0.8342  0.7882
  586MOL0     H79046   5.366   9.636   6.348  0.2706 -1.8831 -1.3081
  586MOL0     H79047   5.149   9.733   6.393  1.3336  3.0638 -0.4225
  586MOL0     H79048   5.133   9.796   6.228 -1.0016 -0.6400 -0.2206
  586MOL0     H79049   4.994   9.607   6.278 -0.0779  2.4173 -0.8173
  586MOL0     H79050   5.092   9.571   6.139  1.0111 -0.0231 -0.9848
  586MOL0     H79051   5.253   9.444   6.320  0.6006 -1.1030  1.8897
  586MOL0     H79052   5.115   9.479   6.424  0.5569  3.8656 -0.1284
  586MOL0     H79053   5.022   9.361   6.181 -2.0454  1.3285  3.1362
  586MOL0     H79054   5.147   9.249   6.228 -1.5586 -0.3207 -1.3911
  586MOL0     H79055   4.951   9.163   6.337 -0.6924 -0.1529 -0.5580
  586MOL0     H79056   5.038   9.252   6.470 -0.4357  2.0842  0.6410
  586MOL0     H79057   4.868   9.443   6.390 -0.9831  0.0674  0.2559
  586MOL0     H79058   4.774   9.301   6.339 -0.1884  0.7024 -1.6062
  586MOL0     H79059   4.891   9.362   6.610 -3.0133  3.5758  1.1126
  586MOL0     H79060   4.819   9.204   6.559 -1.1019 -0.0369 -1.5173
  586MOL0     H79061   4.556   9.202   6.533 -2.0693  0.4374 -1.5529
  586MOL0     H79062   4.321   9.226   6.660 -0.5860  1.3334 -2.4942
  586MOL0     H79063   4.352   9.308   6.811  1.4934 -0.4974 -0.3378
  586MOL0     H79064   4.266   9.463   6.557 -0.2793 -1.8587 -0.0302
  586MOL0     H79065   4.269   9.516   6.734  0.1978 -0.8598  0.7970
  586MOL0     H79066   4.074   9.386   6.771 -1.0831  0.3949 -0.8345
  586MOL0     H79067   4.071   9.318   6.617 -1.3998  1.1299 -0.9869
  586MOL0     H79068   4.075   9.577   6.544 -2.2083 -1.6377 -1.5312
  586MOL0     H79069   4.018   9.607   6.709 -1.2436  1.7819 -0.8445
  586MOL0     H79070   3.910   9.765   6.602 -1.4611  2.1488 -0.6093
  586MOL0     H79071   3.740  10.029   6.519 -2.4261 -1.7402 -2.2890
  586MOL0     H79072   3.669  10.007   6.681 -2.2740 -1.7501 -0.7673
  586MOL0     H79073   3.842   9.976   6.654 -0.0654 -2.0756  1.1203
  586MOL0     H79074   3.260  10.037   6.611 -0.3689  1.9976 -0.1194
  586MOL0     H79075   3.037  10.103   6.616 -1.3309  1.2082 -2.1147
  586MOL0     H79076   2.625   9.959   6.450  2.9126  4.0400 -0.0694
  586MOL0     H79077   2.745   9.871   6.347  1.0854  1.1385 -0.9361
  586MOL0     H79078   2.763   9.701   6.511 -1.3569 -0.3826 -1.4652
  586MOL0     H79079   2.723   9.820   6.642  0.9494 -0.3523 -0.5201
  586MOL0     H79080   2.524   9.737   6.435  1.0805  0.3185 -0.2909
  586MOL0     H79081   2.486   9.785   6.596 -1.4540 -0.8326 -0.2529
  586MOL0     H79082   2.644   9.523   6.539  0.4012 -0.0193  0.0052
  586MOL0     H79083   2.557   9.550   6.683  1.0120 -0.7158 -0.3914
  586MOL0     H79084   2.438   9.399   6.532  0.5978 -0.3836 -0.3163
  586MOL0     H79085   2.439   9.524   6.404  1.1053  0.2824  0.2821
  586MOL0     H79086   2.315   9.576   6.690  0.8230 -0.2807  0.3709
  586MOL0     H79087   2.312   9.673   6.551  1.3656 -0.2823  0.5770
  586MOL0     H79088   2.118   9.547   6.631 -2.1061  1.6017 -2.3823
  586MOL0     H79089   2.189   9.403   6.540 -0.4253 -0.0571  0.5893
  586MOL0     H79090   2.106   9.680   6.422 -0.7957  0.2108 -0.9821
  586MOL0     H79091   2.006   9.534   6.431 -0.6450 -1.2175  3.1831
  586MOL0     H79092   2.920   9.761   6.379  0.0506  0.1712  0.6421
  586MOL0     H79093   3.158   9.694   6.364 -1.6536  0.5307 -1.9967
  586MOL0     H79094   3.467   9.599   6.472  0.5761 -0.5554 -0.8095
  586MOL0     H79095   3.652   9.436   6.531  1.2045 -0.2697 -1.0967
  586MOL0     H79096   5.582   9.639   6.244  2.2141 -0.6146  0.2761
  586MOL0     H79097   5.837   9.685   6.250  2.2348  0.3614  3.5705
  586MOL0     H79098   6.216   9.707   6.449  1.1136 -0.4160  1.6011
  586MOL0     H79099   6.451   9.745   6.417 -0.2774 -0.2872 -2.0674
  586MOL0     H79100   6.612  10.134   6.526 -1.8438  0.2025  0.2752
  586MOL0     H79101   6.748  10.042   6.455 -1.8525 -3.1239  1.8519
  586MOL0     H79102   6.561  10.204   6.284 -1.6667 -0.5208  2.7347
  586MOL0     H79103   6.731  10.157   6.258  1.9886 -0.4620  2.4164
  586MOL0     H79104   6.782  10.315   6.470  0.6182  0.4703 -1.3664
  586MOL0     H79105   6.612  10.371   6.435 -0.1410 -0.1437  1.7153
  586MOL0     H79106   6.650  10.431   6.219  0.8795  0.0560 -0.4474
  586MOL0     H79107   6.816  10.357   6.206  0.5153 -0.5642  0.3578
  586MOL0     H79108   6.924  10.705   6.401 -1.4778  0.8957  0.4756
  586MOL0     H79109   6.372  10.173   6.356  2.7653 -0.7355 -2.2721
  586MOL0     H79110   6.134  10.124   6.386  0.1272  0.2900  1.2703
  587MOL0     O79111   2.557   5.764   8.531  0.0231  0.4473  0.4503
  587MOL0     C79112   2.626   5.730   8.623 -0.1440  0.1762  0.1813
  587MOL0     O79113   2.580   5.700   8.751  0.6755  0.2965 -0.0460
  587MOL0     C79114   2.463   5.757   8.805 -0.0703  0.2131  0.0667
  587MOL0     C79115   2.353   5.682   8.832 -0.5337 -0.0199  1.0175
  587MOL0     C79116   2.231   5.746   8.865  0.1102 -0.4383 -0.1154
  587MOL0     C79117   2.223   5.892   8.876 -0.1722 -0.0683  0.7243
  587MOL0     O79118   2.113   5.965   8.906  0.6768 -0.2797  0.2358
  587MOL0     C79119   1.999   5.895   8.953 -0.4372  0.2530 -0.0928
  587MOL0     C79120   1.898   5.994   9.010  0.4639 -0.4995 -0.1658
  587MOL0     C79121   1.796   5.929   9.097 -0.3611  0.2980 -0.2842
  587MOL0     C79122   1.676   5.868   9.027 -0.2497 -0.4055  0.3779
  587MOL0     C79123   1.561   5.839   9.121  0.5824 -0.0815  0.6298
  587MOL0     C79124   1.439   5.776   9.066  0.0369 -0.7792  0.2050
  587MOL0     C79125   1.466   5.647   8.992  0.2557 -0.2032  0.3957
  587MOL0     C79126   1.524   5.523   9.065  0.0769  0.4118 -0.1685
  587MOL0     N79127   1.419   5.474   9.150 -0.2013 -0.9159  0.4979
  587MOL0     C79128   1.375   5.523   9.270  0.4337 -1.1313  0.3760
  587MOL0     C79129   1.258   5.458   9.293 -0.2558  0.2985 -0.6517
  587MOL0     C79130   1.180   5.474   9.415 -0.0588 -0.2561 -0.1591
  587MOL0     C79131   1.053   5.393   9.411  0.0276  0.5730  0.4051
  587MOL0     C79132   0.967   5.390   9.535  0.6723 -0.0394 -0.4703
  587MOL0     C79133   0.931   5.528   9.588 -0.5677  0.0759 -0.3429
  587MOL0     O79134   0.842   5.520   9.696 -0.0254 -0.1049 -0.5131
  587MOL0     C79135   0.707   5.525   9.687  0.6916  0.8836  0.1225
  587MOL0     C79136   0.634   5.501   9.805  0.5606  1.1107 -0.7689
  587MOL0     C79137   0.491   5.513   9.806 -0.6405 -0.8407  0.1379
  587MOL0     C79138   0.428   5.488   9.937 -0.3121 -0.2096  0.3098
  587MOL0     C79139   0.421   5.526   9.685  0.5559 -0.0227 -0.4071
  587MOL0     C79140   0.274   5.538   9.669 -0.3919 -1.1861  0.6349
  587MOL0     O79141   0.222   5.568   9.548  0.4571 -0.1116  0.6283
  587MOL0     C79142   0.092   5.586   9.515 -0.1705 -1.0338  0.2205
  587MOL0     C79143  -0.018   5.569   9.590  0.1843 -0.2216  0.3281
  587MOL0     C79144  -0.146   5.614   9.542  0.3264 -0.5162 -0.1069
  587MOL0     C79145  -0.164   5.679   9.421  0.7100 -0.7449  0.9586
  587MOL0     O79146  -0.293   5.723   9.385  0.5222  0.1812 -0.9611
  587MOL0     C79147  -0.298   5.851   9.318 -0.3875  0.6637 -0.1885
  587MOL0     C79148  -0.444   5.891   9.312  0.2168 -0.3943  0.1643
  587MOL0     C79149  -0.540   5.784   9.262 -0.6880  0.8302  0.7412
  587MOL0     C79150  -0.679   5.839   9.232  0.0606 -0.2716 -0.4407
  587MOL0     C79151  -0.782   5.721   9.201 -0.2522  0.7597  0.8054
  587MOL0     C79152  -0.913   5.787   9.165 -0.1158 -0.2328  0.5034
  587MOL0     C79153  -1.028   5.691   9.157 -0.4480 -0.1826 -0.1539
  587MOL0     C79154  -1.152   5.774   9.148 -0.3312  0.3318 -0.3371
  587MOL0    Cl79155  -1.273   5.671   9.075 -0.0415  0.3308  0.0676
  587MOL0     C79156  -0.054   5.705   9.341 -0.1876 -0.1364  0.8931
  587MOL0     C79157   0.076   5.664   9.392  0.3690  0.1627 -0.4474
  587MOL0     O79158   0.206   5.508   9.766 -0.3838  0.1310  0.5485
  587MOL0     C79159   0.497   5.533   9.565 -0.8724  0.5116  0.0392
  587MOL0     C79160   0.638   5.525   9.566  0.3248  0.2057 -0.4288
  587MOL0     N79161   1.242   5.369   9.187  0.0950  0.0173  0.6761
  587MOL0     N79162   1.338   5.376   9.101 -0.3279  0.0556 -0.4265
  587MOL0     C79163   2.337   5.959   8.839 -1.0177 -0.3775 -0.8246
  587MOL0     C79164   2.456   5.895   8.803  0.4887 -0.8257  0.9178
  587MOL0     C79165   2.774   5.703   8.604  0.4279  0.7436  0.3737
  587MOL0     C79166   2.870   5.709   8.715  1.0909 -0.0399  0.3217
  587MOL0     C79167   3.004   5.692   8.691  0.0859  0.1157  0.1336
  587MOL0     C79168   3.053   5.653   8.564 -0.1630  1.3035  1.0115
  587MOL0     O79169   3.182   5.638   8.553 -0.1341 -0.7718  0.3764
  587MOL0     C79170   3.242   5.546   8.465  0.2126  0.4016 -0.1285
  587MOL0     C79171   3.392   5.532   8.485  0.7861  0.6770 -1.0233
  587MOL0     C79172   3.454   5.423   8.394  0.4407 -0.0821 -0.5006
  587MOL0     C79173   3.603   5.419   8.411 -0.2460 -0.3250  0.8070
  587MOL0     C79174   3.674   5.542   8.373 -0.1567  0.3126  0.7087
  587MOL0     C79175   3.727   5.637   8.339  0.0047  0.0687 -0.0628
  587MOL0     C79176   2.957   5.628   8.460  0.2066 -0.6446  0.4051
  587MOL0     C79177   2.820   5.659   8.481 -0.0285  0.4761  0.0392
  587MOL0     H79178   2.364   5.574   8.823 -0.1404  0.0473  0.7174
  587MOL0     H79179   2.147   5.677   8.875  1.8405 -2.6453  0.0368
  587MOL0     H79180   1.946   5.845   8.871 -0.4939  1.4696 -0.8111
  587MOL0     H79181   2.023   5.814   9.024  1.8672  1.5261  0.6753
  587MOL0     H79182   1.944   6.076   9.065 -0.2996 -0.3769  0.3143
  587MOL0     H79183   1.846   6.033   8.922  0.2998  0.9713  0.5443
  587MOL0     H79184   1.848   5.846   9.147  0.9884  2.0885  1.4337
  587MOL0     H79185   1.769   5.995   9.180  0.0201  2.0042 -1.4797
  587MOL0     H79186   1.642   5.934   8.947  0.0829 -0.8799 -0.1565
  587MOL0     H79187   1.718   5.784   8.972 -2.0447  0.3298 -2.3327
  587MOL0     H79188   1.601   5.781   9.204 -0.5220 -1.3011  0.3466
  587MOL0     H79189   1.521   5.934   9.155 -1.0046 -0.5212  0.0982
  587MOL0     H79190   1.375   5.753   9.152  0.3596 -0.8240  0.4336
  587MOL0     H79191   1.388   5.843   8.996 -1.6446 -0.3940  1.7238
  587MOL0     H79192   1.375   5.611   8.943  0.4667  0.7167 -0.7243
  587MOL0     H79193   1.532   5.667   8.907 -0.9337  0.3235 -0.4319
  587MOL0     H79194   1.613   5.539   9.127  0.9096 -2.1711 -0.6187
  587MOL0     H79195   1.550   5.447   8.992 -0.5344  0.2704 -0.2431
  587MOL0     H79196   1.423   5.595   9.336 -1.2600  0.8961 -0.5154
  587MOL0     H79197   1.245   5.460   9.502 -1.3169  1.3194  1.0986
  587MOL0     H79198   1.159   5.581   9.408 -0.4021 -0.2963  0.1934
  587MOL0     H79199   1.071   5.291   9.376 -1.2386  0.8371 -1.1468
  587MOL0     H79200   0.991   5.430   9.328 -0.7123 -1.5669 -0.0512
  587MOL0     H79201   1.016   5.335   9.616 -0.1293  0.1576  0.1728
  587MOL0     H79202   0.868   5.352   9.507 -0.1228  2.1676 -0.8604
  587MOL0     H79203   0.890   5.592   9.509  2.2324 -0.8738 -2.7884
  587MOL0     H79204   1.024   5.570   9.626  0.3021 -3.0627  1.3306
  587MOL0     H79205   0.699   5.476   9.889 -0.2998 -0.7020 -0.5980
  587MOL0     H79206   0.364   5.401   9.919  1.8000 -1.5659 -1.0760
  587MOL0     H79207   0.500   5.443  10.007 -2.2155 -0.3381  2.3097
  587MOL0     H79208   0.383   5.578   9.981 -2.6176 -1.3961  0.5003
  587MOL0     H79209  -0.022   5.511   9.682  0.1544 -2.1775 -0.8612
  587MOL0     H79210  -0.229   5.585   9.605 -0.1235  2.2911  0.7056
  587MOL0     H79211  -0.231   5.928   9.358  1.3676 -0.2798 -1.2004
  587MOL0     H79212  -0.256   5.834   9.219 -1.4967 -4.6787 -0.0273
  587MOL0     H79213  -0.472   5.915   9.415  0.9920 -1.7714  0.7162
  587MOL0     H79214  -0.452   5.982   9.251  0.6856 -1.7659 -2.0815
  587MOL0     H79215  -0.547   5.703   9.335  1.5666  1.0687  1.2940
  587MOL0     H79216  -0.507   5.734   9.170 -1.0171 -0.6329  1.3988
  587MOL0     H79217  -0.713   5.889   9.323  0.7124  0.3338 -0.5171
  587MOL0     H79218  -0.668   5.910   9.149  0.8936  0.3945  0.2226
  587MOL0     H79219  -0.797   5.663   9.292  0.2975  0.9987  1.0507
  587MOL0     H79220  -0.737   5.659   9.123  2.6598  0.5153  2.5566
  587MOL0     H79221  -0.942   5.855   9.245 -2.2349 -0.2192 -0.1998
  587MOL0     H79222  -0.908   5.849   9.075 -0.5492 -0.4661  0.3165
  587MOL0     H79223  -1.024   5.638   9.252  0.7370  0.2336  0.0519
  587MOL0     H79224  -1.002   5.626   9.072  0.5541  0.9648 -0.7674
  587MOL0     H79225  -1.140   5.848   9.068  0.5500 -0.3291 -0.8354
  587MOL0     H79226  -1.170   5.818   9.246  1.4822  2.1635 -0.7528
  587MOL0     H79227  -0.063   5.759   9.247 -0.4043 -0.1081  0.9296
  587MOL0     H79228   0.168   5.677   9.335  2.0536 -2.0040  1.5774
  587MOL0     H79229   0.431   5.543   9.479 -1.5026 -2.7064  0.0371
  587MOL0     H79230   0.685   5.527   9.468 -1.3121 -1.9466 -1.3448
  587MOL0     H79231   2.317   6.066   8.831 -0.1869  0.3721  4.2128
  587MOL0     H79232   2.528   5.969   8.770 -1.6484  0.8940 -0.1299
  587MOL0     H79233   2.842   5.735   8.817 -0.1534 -0.6398  0.1540
  587MOL0     H79234   3.066   5.722   8.775  0.0490  0.8623 -0.0996
  587MOL0     H79235   3.187   5.452   8.471 -0.5763  0.7561 -1.5471
  587MOL0     H79236   3.239   5.590   8.365 -1.7556  2.3832  0.7263
  587MOL0     H79237   3.403   5.515   8.593 -0.2575  2.7073 -0.5635
  587MOL0     H79238   3.452   5.622   8.469  0.2819  1.2074  0.0057
  587MOL0     H79239   3.427   5.448   8.291 -1.1330  0.3223 -0.0170
  587MOL0     H79240   3.406   5.326   8.412 -1.3241  0.5981 -1.3337
  587MOL0     H79241   3.634   5.341   8.340 -1.8141 -0.3725  0.1102
  587MOL0     H79242   3.623   5.400   8.516  1.6103  1.5811  0.8489
  587MOL0     H79243   3.784   5.719   8.301  2.3985 -0.8767  1.2833
  587MOL0     H79244   2.979   5.586   8.363 -1.3893 -0.2318 -0.1680
  587MOL0     H79245   2.750   5.651   8.399 -0.0599  0.9845  0.0143
  588MOL0     O79246   3.979   3.901   8.785  0.1874  0.0307  0.1713
  588MOL0     C79247   4.031   3.811   8.717  0.4290  0.2240  0.3613
  588MOL0     O79248   3.970   3.693   8.663  0.0678 -0.4989 -0.2277
  588MOL0     C79249   3.841   3.681   8.705 -0.4187  0.1313  0.3969
  588MOL0     C79250   3.736   3.754   8.638 -0.1837  1.2518 -0.2823
  588MOL0     C79251   3.608   3.730   8.668  0.4272  1.0835  0.3202
  588MOL0     C79252   3.567   3.639   8.768 -0.4842  0.0516 -0.1812
  588MOL0     O79253   3.439   3.603   8.792 -0.3385 -0.5878 -0.4779
  588MOL0     C79254   3.336   3.676   8.724 -0.3749 -1.0512 -0.2548
  588MOL0     C79255   3.197   3.635   8.778 -0.2096 -0.1928  0.2059
  588MOL0     C79256   3.143   3.728   8.890  0.4080 -0.6661 -0.3171
  588MOL0     C79257   3.091   3.865   8.824 -0.1406  0.2992 -0.7901
  588MOL0     C79258   2.991   3.936   8.929  0.0094  0.9239  0.0876
  588MOL0     C79259   2.912   4.046   8.866 -0.5476  0.1963 -0.7103
  588MOL0     C79260   2.826   4.119   8.967 -0.2699 -1.0677  0.1381
  588MOL0     C79261   2.701   4.055   9.019  0.3539 -0.1265 -0.8569
  588MOL0     N79262   2.612   4.019   8.903  0.2651 -0.2098 -0.4149
  588MOL0     C79263   2.518   4.111   8.857 -0.0169 -0.4070  0.0568
  588MOL0     C79264   2.442   4.040   8.765  0.3879 -0.0914 -0.0970
  588MOL0     C79265   2.328   4.085   8.675  0.4568 -0.7775 -0.2682
  588MOL0     C79266   2.360   4.061   8.522 -0.1398 -0.4981  1.0168
  588MOL0     C79267   2.251   4.108   8.431  0.3512 -0.4945 -1.5295
  588MOL0     C79268   2.143   4.001   8.443  0.2917  0.6550 -0.1458
  588MOL0     O79269   2.026   4.038   8.357  0.3908 -0.7711 -0.3402
  588MOL0     C79270   1.900   4.006   8.394  0.6178  0.2732 -0.2939
  588MOL0     C79271   1.880   3.916   8.501 -0.1542 -0.5521 -0.4508
  588MOL0     C79272   1.750   3.893   8.551  0.2661  0.0251 -1.9237
  588MOL0     C79273   1.739   3.810   8.679 -0.3554  0.8098 -0.5589
  588MOL0     C79274   1.639   3.961   8.492 -0.3107  0.2790 -0.3883
  588MOL0     C79275   1.499   3.953   8.541 -0.2705  0.1480 -0.4287
  588MOL0     O79276   1.406   4.015   8.470 -0.3041 -0.6302  0.6796
  588MOL0     C79277   1.267   4.017   8.497 -0.5461 -0.0422  0.8034
  588MOL0     C79278   1.203   4.130   8.451  0.2948  0.1003 -0.1361
  588MOL0     C79279   1.071   4.147   8.485  0.4254 -0.5086  0.2176
  588MOL0     C79280   1.001   4.050   8.556 -0.3511 -0.4470 -0.5057
  588MOL0     O79281   0.876   4.055   8.595  0.0740 -0.3704  0.2257
  588MOL0     C79282   0.825   4.185   8.614  0.8024 -0.3070 -0.3683
  588MOL0     C79283   0.690   4.162   8.683 -0.2685  1.0401  0.1802
  588MOL0     C79284   0.590   4.271   8.690 -0.1286  0.3520 -0.2416
  588MOL0     C79285   0.527   4.312   8.556 -0.5130  0.4665  0.8314
  588MOL0     C79286   0.428   4.427   8.573  0.4847  0.1319  0.2339
  588MOL0     C79287   0.292   4.388   8.629  0.8133 -0.8396  0.7695
  588MOL0     C79288   0.197   4.505   8.637 -0.0738 -0.1863  0.3393
  588MOL0     C79289   0.063   4.455   8.696 -0.1434  0.4390 -0.1083
  588MOL0    Cl79290   0.086   4.402   8.870  0.4361 -0.3516 -0.3017
  588MOL0     C79291   1.070   3.934   8.597 -0.6040 -0.3086  0.0986
  588MOL0     C79292   1.200   3.910   8.556 -0.5185 -0.1317  0.2737
  588MOL0     O79293   1.469   3.880   8.635  0.2383  0.0167  1.2338
  588MOL0     C79294   1.666   4.043   8.376  0.2248 -0.4535  0.3966
  588MOL0     C79295   1.796   4.066   8.332  0.5131  0.4561  0.2207
  588MOL0     N79296   2.506   3.918   8.752 -0.3139 -0.8754  0.1920
  588MOL0     N79297   2.606   3.908   8.831 -0.5896  0.3148 -0.5160
  588MOL0     C79298   3.673   3.560   8.825  0.6466  0.6854  1.0843
  588MOL0     C79299   3.800   3.585   8.797  0.3781  0.2801  0.0879
  588MOL0     C79300   4.159   3.842   8.642 -0.3641  0.0038  0.0217
  588MOL0     C79301   4.200   3.758   8.539  0.6106  0.1297  0.5580
  588MOL0     C79302   4.321   3.786   8.475 -0.2122 -0.7377  0.5879
  588MOL0     C79303   4.401   3.903   8.511  0.5807  0.3000  0.3726
  588MOL0     O79304   4.514   3.941   8.439  0.7788  0.1172 -0.1531
  588MOL0     C79305   4.563   3.845   8.339 -0.2831 -0.6587  0.2357
  588MOL0     C79306   4.652   3.929   8.247  0.2720 -0.1221 -0.1593
  588MOL0     C79307   4.798   3.965   8.304  0.5927  0.6576 -0.2748
  588MOL0     C79308   4.896   4.023   8.196  0.3031 -0.4138 -0.2956
  588MOL0     C79309   5.003   4.094   8.267 -0.0386  0.2736 -1.2604
  588MOL0     C79310   5.094   4.161   8.311 -0.1317 -0.5511 -0.4471
  588MOL0     C79311   4.359   3.979   8.621  0.3895 -0.3848  0.2560
  588MOL0     C79312   4.243   3.949   8.690 -0.1377 -0.5965  0.0671
  588MOL0     H79313   3.776   3.821   8.562 -0.9347  1.3880 -0.5663
  588MOL0     H79314   3.534   3.780   8.607 -2.0804 -3.2555 -0.6625
  588MOL0     H79315   3.356   3.784   8.727  0.3838 -1.2011  0.4335
  588MOL0     H79316   3.346   3.643   8.620 -0.9471 -4.9074  0.7557
  588MOL0     H79317   3.132   3.640   8.691  2.0352  2.9961 -1.4825
  588MOL0     H79318   3.192   3.531   8.815  0.1685 -1.7094 -3.5999
  588MOL0     H79319   3.058   3.681   8.941 -0.3323 -0.7265 -1.5769
  588MOL0     H79320   3.220   3.742   8.967  1.5218  2.2077 -1.8039
  588MOL0     H79321   3.171   3.928   8.785  0.9013 -1.1499 -1.0875
  588MOL0     H79322   3.038   3.843   8.731 -1.1256 -2.7309  0.3550
  588MOL0     H79323   2.917   3.861   8.956  0.7781  0.0746 -0.1340
  588MOL0     H79324   3.044   3.970   9.018 -0.6661  2.1444  0.0503
  588MOL0     H79325   2.990   4.117   8.837  0.5259 -0.9003 -0.6041
  588MOL0     H79326   2.866   4.007   8.775 -1.3657 -1.1670  0.2520
  588MOL0     H79327   2.899   4.135   9.047  1.2134  0.6372 -1.4817
  588MOL0     H79328   2.809   4.220   8.930 -0.0200 -1.4768 -1.1387
  588MOL0     H79329   2.652   4.114   9.096  1.0686 -0.2970 -0.2540
  588MOL0     H79330   2.719   3.960   9.070 -4.8471 -0.8144  0.2349
  588MOL0     H79331   2.516   4.213   8.893 -0.7115  0.0617 -1.2303
  588MOL0     H79332   2.236   4.032   8.700 -0.4711  1.0011  0.2127
  588MOL0     H79333   2.310   4.191   8.693  2.4526 -0.0504 -1.9976
  588MOL0     H79334   2.372   3.953   8.507 -0.9885 -0.5282  0.4972
  588MOL0     H79335   2.454   4.109   8.494 -0.6480  0.7399  1.3763
  588MOL0     H79336   2.306   4.103   8.337  2.4072 -3.1614 -0.2965
  588MOL0     H79337   2.202   4.204   8.455  0.2486 -1.3741  2.4349
  588MOL0     H79338   2.109   3.986   8.546 -0.1732 -0.0359 -0.3871
  588MOL0     H79339   2.187   3.910   8.400  1.3687  0.5366  1.1285
  588MOL0     H79340   1.968   3.862   8.534 -1.0371 -1.5626  0.3400
  588MOL0     H79341   1.840   3.780   8.708 -0.2127 -0.2141 -1.9663
  588MOL0     H79342   1.688   3.866   8.757 -1.2976  2.1816 -2.1069
  588MOL0     H79343   1.686   3.715   8.664 -2.8587  2.0558 -0.1123
  588MOL0     H79344   1.260   4.199   8.390  2.6501 -2.9684 -1.6688
  588MOL0     H79345   1.015   4.232   8.447  2.7481  0.6768 -0.7637
  588MOL0     H79346   0.882   4.257   8.673  1.4969  1.4290 -2.9530
  588MOL0     H79347   0.808   4.230   8.515  0.7025 -0.9934 -0.6661
  588MOL0     H79348   0.643   4.083   8.623  1.0355 -0.9723  1.7133
  588MOL0     H79349   0.701   4.129   8.786 -1.2811  1.6384  0.4923
  588MOL0     H79350   0.647   4.349   8.742 -0.4089  0.4612 -0.0972
  588MOL0     H79351   0.512   4.230   8.755  1.0740  2.6614  2.9546
  588MOL0     H79352   0.612   4.345   8.495  0.8285  0.3237  2.5491
  588MOL0     H79353   0.481   4.231   8.499 -2.7265  2.7535 -0.8297
  588MOL0     H79354   0.422   4.466   8.471  0.4664  0.7715  0.4776
  588MOL0     H79355   0.474   4.508   8.630  1.6133 -0.0335 -0.4163
  588MOL0     H79356   0.244   4.311   8.567  1.7033 -0.4180 -0.4768
  588MOL0     H79357   0.301   4.352   8.732 -0.7251  2.3140  2.1192
  588MOL0     H79358   0.186   4.559   8.543  0.7259  2.0356  1.4578
  588MOL0     H79359   0.245   4.573   8.708  0.0358  1.9552 -1.6608
  588MOL0     H79360   0.029   4.367   8.640 -1.0833  0.2134  0.7893
  588MOL0     H79361  -0.014   4.532   8.684 -0.9022 -0.3792 -0.6448
  588MOL0     H79362   1.024   3.853   8.653  0.0368 -0.2973  0.6524
  588MOL0     H79363   1.223   3.809   8.588 -1.0745 -0.7450 -1.1846
  588MOL0     H79364   1.585   4.100   8.333 -2.0226 -2.3970  1.8055
  588MOL0     H79365   1.818   4.133   8.250 -0.0210  0.6630  0.2421
  588MOL0     H79366   3.648   3.481   8.894  0.3083 -1.0366 -0.8900
  588MOL0     H79367   3.874   3.534   8.858 -0.7329 -1.5222  0.0110
  588MOL0     H79368   4.142   3.668   8.522 -0.7488  1.2015 -0.7247
  588MOL0     H79369   4.346   3.711   8.400 -1.3908 -3.0378  2.3556
  588MOL0     H79370   4.615   3.761   8.386 -1.7639 -2.6966 -1.5152
  588MOL0     H79371   4.484   3.803   8.275  1.5259 -3.1931 -0.4859
  588MOL0     H79372   4.598   4.023   8.231  1.0056  0.7601  2.2325
  588MOL0     H79373   4.664   3.876   8.152  0.3250 -1.4077  0.5397
  588MOL0     H79374   4.844   3.879   8.352 -1.0065  0.0468  0.2250
  588MOL0     H79375   4.773   4.047   8.372 -2.4635 -0.4411  0.0531
  588MOL0     H79376   4.844   4.096   8.133  1.1693  0.9109  0.4862
  588MOL0     H79377   4.945   3.949   8.132 -0.7747  1.0630 -3.0232
  588MOL0     H79378   5.166   4.225   8.358  0.5645  0.7432 -3.0776
  588MOL0     H79379   4.412   4.067   8.656  0.4361 -0.6819  0.9590
  588MOL0     H79380   4.216   4.000   8.782 -2.0708  0.9719 -1.2630
  589MOL0     O79381   3.990   7.187   4.735  0.3142 -0.1685  0.1567
  589MOL0     C79382   3.965   7.229   4.849 -0.5988 -0.0204  0.5758
  589MOL0     O79383   4.056   7.285   4.935  0.2066 -1.5736 -0.5742
  589MOL0     C79384   4.187   7.245   4.951 -1.0624  0.4427 -0.3504
  589MOL0     C79385   4.235   7.139   4.873  0.5299 -0.0047 -0.0396
  589MOL0     C79386   4.363   7.094   4.898 -0.2957 -0.4038 -0.2880
  589MOL0     C79387   4.451   7.165   4.991 -0.2329 -0.1499  0.0216
  589MOL0     O79388   4.576   7.114   5.015  0.0715 -0.5648 -0.1317
  589MOL0     C79389   4.686   7.209   5.014  0.5044  0.6101 -0.1887
  589MOL0     C79390   4.824   7.141   5.000  0.1540 -0.4665 -0.3002
  589MOL0     C79391   4.866   7.060   5.119  0.0122  0.3075 -0.6552
  589MOL0     C79392   4.970   6.946   5.088  0.3609 -0.4314  0.0960
  589MOL0     C79393   5.033   6.908   5.227  0.0116  0.1943  0.5593
  589MOL0     C79394   4.935   6.865   5.347  0.2833 -0.5057 -0.0186
  589MOL0     C79395   5.023   6.807   5.465 -0.8103 -0.7357  0.0771
  589MOL0     C79396   4.947   6.767   5.589 -0.5589 -0.5239  0.0314
  589MOL0     N79397   4.874   6.878   5.647  0.1390  0.2659  0.3507
  589MOL0     C79398   4.926   6.981   5.717  0.0614 -0.5280 -0.1363
  589MOL0     C79399   4.822   7.044   5.759  0.1466 -0.7635 -1.0805
  589MOL0     C79400   4.818   7.169   5.840  0.0107 -0.0418 -0.8575
  589MOL0     C79401   4.906   7.165   5.971  0.1005 -0.4289  0.5520
  589MOL0     C79402   4.849   7.055   6.056  0.2000  0.3196  0.1542
  589MOL0     C79403   4.712   7.095   6.129 -0.7545 -0.0533  0.5167
  589MOL0     O79404   4.728   7.216   6.199  0.1383 -0.0415  0.1791
  589MOL0     C79405   4.621   7.263   6.272  0.1572  0.2200 -0.1528
  589MOL0     C79406   4.571   7.185   6.378  0.0398  0.6881 -0.1190
  589MOL0     C79407   4.467   7.233   6.459 -0.0723 -0.1188  0.0920
  589MOL0     C79408   4.425   7.141   6.574  0.0669 -0.3880  0.6530
  589MOL0     C79409   4.414   7.358   6.436  1.1605 -0.4476  0.3494
  589MOL0     C79410   4.304   7.412   6.512  1.3451 -0.1833 -0.1465
  589MOL0     O79411   4.299   7.548   6.514  0.1812 -0.3405  0.1953
  589MOL0     C79412   4.189   7.612   6.562  0.5207 -0.3706  0.2782
  589MOL0     C79413   4.055   7.573   6.554 -0.0489  0.2995 -0.2646
  589MOL0     C79414   3.951   7.661   6.582 -0.0956 -0.6449  0.8580
  589MOL0     C79415   3.978   7.786   6.626 -0.5826 -0.5059  0.6947
  589MOL0     O79416   3.877   7.872   6.671 -0.5037 -0.0380 -1.0671
  589MOL0     C79417   3.754   7.873   6.600  0.3979 -0.4165 -0.9320
  589MOL0     C79418   3.641   7.941   6.684 -0.2435  0.0428 -0.0322
  589MOL0     C79419   3.508   7.884   6.637  0.6393  0.6479 -0.6409
  589MOL0     C79420   3.481   7.746   6.697  1.2799  0.2168 -1.3422
  589MOL0     C79421   3.339   7.702   6.660 -0.9622 -0.0617 -0.0028
  589MOL0     C79422   3.267   7.621   6.773 -0.1870  0.1744  0.1895
  589MOL0     C79423   3.116   7.595   6.757 -0.0865  0.3708 -0.3559
  589MOL0     C79424   3.043   7.720   6.717 -0.5224  0.2279 -0.0675
  589MOL0    Cl79425   2.866   7.697   6.713 -0.2629  0.1079  0.4570
  589MOL0     C79426   4.109   7.827   6.638 -0.0085 -0.3158 -0.1051
  589MOL0     C79427   4.214   7.737   6.606 -0.6446 -0.0047 -1.1017
  589MOL0     O79428   4.215   7.335   6.561  0.3806  0.6715  0.0196
  589MOL0     C79429   4.478   7.446   6.343  0.2906 -0.2214  0.4137
  589MOL0     C79430   4.579   7.396   6.261  0.6910  0.1475  0.3026
  589MOL0     N79431   4.702   6.976   5.727  0.5257 -0.5062 -0.4640
  589MOL0     N79432   4.739   6.875   5.649 -0.2751 -0.2335  0.3228
  589MOL0     C79433   4.404   7.274   5.063 -0.1213 -0.8025  0.4281
  589MOL0     C79434   4.271   7.313   5.037 -0.2334  0.0792  0.2211
  589MOL0     C79435   3.833   7.221   4.901  0.3138  1.0239 -0.9431
  589MOL0     C79436   3.811   7.242   5.038  0.2254 -0.1172  0.0416
  589MOL0     C79437   3.684   7.242   5.084  0.5640  0.6719 -0.3222
  589MOL0     C79438   3.567   7.200   5.017  0.2366  0.0746 -0.5379
  589MOL0     O79439   3.447   7.213   5.092  0.2404 -0.0183  0.8251
  589MOL0     C79440   3.317   7.181   5.031 -0.7681 -0.3447 -0.0592
  589MOL0     C79441   3.209   7.270   5.093  0.0155  0.2520  0.3203
  589MOL0     C79442   3.189   7.254   5.239 -0.1090 -0.5597 -0.5002
  589MOL0     C79443   3.059   7.302   5.288 -0.2305 -0.0504 -0.1119
  589MOL0     C79444   2.964   7.200   5.246  0.7443  0.4059 -0.0203
  589MOL0     C79445   2.882   7.115   5.206 -0.2592 -0.8048 -1.2088
  589MOL0     C79446   3.588   7.170   4.882 -0.0463 -0.5720  0.1021
  589MOL0     C79447   3.716   7.176   4.834  0.0515  0.3671 -0.3129
  589MOL0     H79448   4.173   7.070   4.817  1.3013  0.5174 -1.5925
  589MOL0     H79449   4.410   7.008   4.852 -1.5299 -1.8900  1.1102
  589MOL0     H79450   4.670   7.283   4.935 -2.8903  1.1553  0.8605
  589MOL0     H79451   4.693   7.268   5.105  1.7515 -1.3111  1.0307
  589MOL0     H79452   4.821   7.074   4.913  0.9642 -3.4733  1.8329
  589MOL0     H79453   4.899   7.220   4.989  1.1391 -1.4710 -1.0617
  589MOL0     H79454   4.902   7.125   5.199 -0.4518  0.4423 -0.5494
  589MOL0     H79455   4.774   7.014   5.157  0.3912  1.5413  1.9453
  589MOL0     H79456   4.913   6.863   5.044 -2.0284  1.7206 -1.1650
  589MOL0     H79457   5.053   6.981   5.027 -0.0340  0.4715  0.0634
  589MOL0     H79458   5.098   6.822   5.208 -1.1064 -0.5568  0.1043
  589MOL0     H79459   5.090   6.997   5.254 -1.0104  1.5107 -1.3758
  589MOL0     H79460   4.869   6.949   5.369 -0.8925 -0.9659 -1.5532
  589MOL0     H79461   4.873   6.783   5.307  0.9215 -1.4815  0.9481
  589MOL0     H79462   5.096   6.731   5.435 -2.4472 -1.3237 -2.7736
  589MOL0     H79463   5.087   6.883   5.511 -1.6653 -0.2341  0.4592
  589MOL0     H79464   5.017   6.733   5.665  0.0970  0.4214 -0.1258
  589MOL0     H79465   4.884   6.682   5.561  0.9829 -2.3430  1.7461
  589MOL0     H79466   5.029   7.015   5.722 -1.1605  3.9331 -1.4279
  589MOL0     H79467   4.842   7.257   5.779 -2.3071  1.7487  0.6609
  589MOL0     H79468   4.716   7.188   5.873  0.2369  0.5870 -0.5052
  589MOL0     H79469   4.913   7.262   6.021 -3.6372 -1.1831  2.9843
  589MOL0     H79470   5.009   7.145   5.943 -0.0249 -1.9835  1.1504
  589MOL0     H79471   4.922   7.028   6.133  0.8232  0.7049 -0.2885
  589MOL0     H79472   4.835   6.966   5.994  1.0964  0.4557 -0.2598
  589MOL0     H79473   4.680   7.014   6.195  1.0978 -0.6984  0.6617
  589MOL0     H79474   4.629   7.108   6.059 -1.9839 -3.0649  1.2309
  589MOL0     H79475   4.613   7.091   6.411 -1.2278  0.3812  0.6748
  589MOL0     H79476   4.484   7.051   6.592  0.1537 -0.2495  1.0673
  589MOL0     H79477   4.424   7.202   6.665  0.2568 -1.3020  1.2801
  589MOL0     H79478   4.327   7.101   6.543 -1.2386  2.8541  0.1971
  589MOL0     H79479   4.027   7.475   6.514 -0.6782  0.1754  0.4568
  589MOL0     H79480   3.847   7.632   6.577 -0.6604  1.1194  1.6791
  589MOL0     H79481   3.757   7.935   6.510 -1.3662  1.5281  0.2176
  589MOL0     H79482   3.723   7.774   6.568  0.8500 -0.9299  0.1692
  589MOL0     H79483   3.668   7.904   6.784  0.9740  1.4328  0.1944
  589MOL0     H79484   3.651   8.048   6.703  0.8564  0.1332 -1.0054
  589MOL0     H79485   3.504   7.872   6.528 -3.5858 -1.1613 -0.5030
  589MOL0     H79486   3.428   7.952   6.667  0.3447 -0.2359  0.6900
  589MOL0     H79487   3.558   7.676   6.664  1.0295 -1.0224  0.5598
  589MOL0     H79488   3.479   7.749   6.806  4.7547  1.0033 -1.1993
  589MOL0     H79489   3.351   7.640   6.571  1.5659 -0.6613  0.6791
  589MOL0     H79490   3.276   7.787   6.631 -3.7504 -0.8611  3.0885
  589MOL0     H79491   3.323   7.531   6.800 -0.5206 -0.1880 -0.2996
  589MOL0     H79492   3.263   7.696   6.853 -0.1435 -0.0667  0.4167
  589MOL0     H79493   3.073   7.567   6.854  0.8435 -1.9383 -0.5615
  589MOL0     H79494   3.093   7.518   6.683 -1.8357  1.6288 -1.2140
  589MOL0     H79495   3.075   7.752   6.617  1.3909  4.2386  1.5881
  589MOL0     H79496   3.076   7.802   6.781 -0.5811 -0.9024  1.4667
  589MOL0     H79497   4.131   7.920   6.691 -2.0112 -1.5337  3.1743
  589MOL0     H79498   4.314   7.754   6.645 -1.3048 -2.0716  1.7985
  589MOL0     H79499   4.430   7.542   6.329 -1.6293 -1.1113  0.6116
  589MOL0     H79500   4.622   7.443   6.173 -0.2449 -1.6818 -1.2047
  589MOL0     H79501   4.461   7.323   5.142 -1.0816 -0.5651  0.9948
  589MOL0     H79502   4.222   7.397   5.086  1.2544  0.0016  1.9242
  589MOL0     H79503   3.894   7.250   5.108  1.2356 -2.3470 -0.7916
  589MOL0     H79504   3.670   7.273   5.187 -1.7163 -0.3445 -0.2768
  589MOL0     H79505   3.307   7.183   4.922 -0.3955 -0.8325 -0.1040
  589MOL0     H79506   3.289   7.079   5.059 -1.2401  0.3712  2.3123
  589MOL0     H79507   3.118   7.242   5.038 -0.8400 -1.7981  2.5453
  589MOL0     H79508   3.237   7.373   5.070 -0.0604 -0.4718 -3.7271
  589MOL0     H79509   3.277   7.299   5.286  0.5947  0.2362 -2.5085
  589MOL0     H79510   3.202   7.152   5.277 -0.5456 -0.2809  0.4281
  589MOL0     H79511   3.029   7.401   5.253  2.4080  1.8801  2.5941
  589MOL0     H79512   3.053   7.305   5.397 -0.7019 -1.3283 -0.0845
  589MOL0     H79513   2.800   7.058   5.165 -0.3628 -0.6106 -1.2708
  589MOL0     H79514   3.504   7.163   4.814 -0.2463  2.1740 -0.0417
  589MOL0     H79515   3.719   7.149   4.729 -0.4661 -0.0451 -0.2311
  590MOL0     O79516  10.302  10.760   8.714 -0.7356  0.2481 -0.0044
  590MOL0     C79517  10.340  10.639   8.727 -0.0038  0.2081  0.8171
  590MOL0     O79518  10.253  10.535   8.758 -0.3073 -1.4541  0.2014
  590MOL0     C79519  10.134  10.568   8.805 -0.4357  0.0743 -0.0733
  590MOL0     C79520  10.025  10.536   8.721  0.3904 -0.2779  0.2179
  590MOL0     C79521   9.894  10.533   8.754  0.6295 -0.2054 -0.7478
  590MOL0     C79522   9.862  10.580   8.883 -0.4754 -0.0142 -1.4605
  590MOL0     O79523   9.733  10.577   8.920 -0.0105 -0.7056 -0.2064
  590MOL0     C79524   9.689  10.577   9.051  0.5590  0.3819 -0.8712
  590MOL0     C79525   9.536  10.554   9.061 -0.1588  0.4551  0.5328
  590MOL0     C79526   9.489  10.616   9.193 -0.4444 -0.1909  0.9691
  590MOL0     C79527   9.344  10.584   9.227 -0.3023 -0.8958  0.2469
  590MOL0     C79528   9.313  10.611   9.372  0.3607  0.3387  0.0365
  590MOL0     C79529   9.163  10.575   9.395 -0.7733 -0.7292 -0.7582
  590MOL0     C79530   9.139  10.574   9.551  0.5093 -0.2150  0.9774
  590MOL0     C79531   9.142  10.424   9.600  0.1406 -0.3206  0.6367
  590MOL0     N79532   9.103  10.424   9.739  0.0960  0.3371 -0.3214
  590MOL0     C79533   8.979  10.467   9.783  0.8497 -0.6507 -0.6771
  590MOL0     C79534   8.994  10.477   9.921  0.1628 -1.3431  0.7690
  590MOL0     C79535   8.871  10.504  10.012 -0.0733 -0.2907  0.7285
  590MOL0     C79536   8.768  10.611   9.944 -0.3424  0.5552 -0.3816
  590MOL0     C79537   8.644  10.625  10.031  0.2638 -0.0949 -0.2704
  590MOL0     C79538   8.660  10.704  10.162  0.0323 -0.2607 -0.0106
  590MOL0     O79539   8.688  10.842  10.125  0.9118  0.5837 -0.4414
  590MOL0     C79540   8.588  10.926  10.169 -0.0463  0.3200  0.5981
  590MOL0     C79541   8.451  10.914  10.149 -0.1317  0.1549 -0.4250
  590MOL0     C79542   8.358  11.010  10.203  0.1633 -0.0102  0.6020
  590MOL0     C79543   8.222  11.006  10.151  0.4335  0.1435 -0.1313
  590MOL0     C79544   8.419  11.120  10.268  0.6170  0.6538 -0.9992
  590MOL0     C79545   8.322  11.229  10.325 -0.2107  0.5653  0.8694
  590MOL0     O79546   8.195  11.230  10.293  0.0928  0.5096 -0.2914
  590MOL0     C79547   8.106  11.320  10.329  0.1506 -0.2736 -1.1982
  590MOL0     C79548   7.974  11.284  10.288  0.2654 -0.0836 -0.9601
  590MOL0     C79549   7.867  11.370  10.317 -0.1184  0.2565 -0.2232
  590MOL0     C79550   7.892  11.495  10.379 -0.5947  0.5215  0.3161
  590MOL0     O79551   7.777  11.569  10.396 -0.0952  0.4949 -0.2560
  590MOL0     C79552   7.742  11.616  10.533 -0.3015  0.2569  0.9460
  590MOL0     C79553   7.633  11.541  10.597  0.2712 -0.3159  0.2880
  590MOL0     C79554   7.493  11.579  10.541  0.1543 -0.0819 -0.1998
  590MOL0     C79555   7.387  11.514  10.633 -0.4479 -0.2500 -0.0203
  590MOL0     C79556   7.255  11.588  10.618  0.2562  0.6652  0.3620
  590MOL0     C79557   7.143  11.491  10.570 -0.2606 -1.0253  1.1004
  590MOL0     C79558   7.009  11.565  10.593 -0.2515 -0.6085  0.2248
  590MOL0     C79559   6.889  11.478  10.583  0.2083  0.0327 -0.1290
  590MOL0    Cl79560   6.748  11.590  10.588  0.4410  0.0892  0.0791
  590MOL0     C79561   8.019  11.536  10.415  1.4095 -0.3048  0.4016
  590MOL0     C79562   8.123  11.454  10.375  0.6714  0.5043 -0.1893
  590MOL0     O79563   8.370  11.303  10.413  0.0819  0.2818 -0.3633
  590MOL0     C79564   8.558  11.135  10.285 -0.2388  0.3724 -0.0960
  590MOL0     C79565   8.640  11.035  10.241  0.2340  1.2880 -0.0211
  590MOL0     N79566   9.126  10.451   9.950 -0.7347 -0.2990  0.5343
  590MOL0     N79567   9.188  10.421   9.847  0.4274 -0.4670 -0.4626
  590MOL0     C79568   9.967  10.624   8.975  1.0396  0.3164  0.4282
  590MOL0     C79569  10.106  10.615   8.935  0.2316 -0.1626  0.7321
  590MOL0     C79570  10.483  10.601   8.706 -0.4774 -0.3955 -0.2733
  590MOL0     C79571  10.518  10.478   8.758 -0.9476 -0.5650 -0.1270
  590MOL0     C79572  10.651  10.439   8.736 -0.5614  1.1429  0.1027
  590MOL0     C79573  10.754  10.529   8.684  0.3358  0.2906 -0.3331
  590MOL0     O79574  10.873  10.477   8.701 -0.7786 -0.3439 -0.5362
  590MOL0     C79575  10.980  10.571   8.687  1.0109  0.3107 -0.0698
  590MOL0     C79576  11.102  10.515   8.758 -0.3810  0.4172 -0.1451
  590MOL0     C79577  11.221  10.606   8.769 -0.2569  0.5199  0.6554
  590MOL0     C79578  11.346  10.528   8.800 -1.1547  0.5815 -0.7236
  590MOL0     C79579  11.384  10.441   8.693 -0.7485 -0.3465  0.5111
  590MOL0     C79580  11.405  10.362   8.603  0.6195 -1.0396  0.2759
  590MOL0     C79581  10.711  10.653   8.638 -1.0138 -0.0933  0.0130
  590MOL0     C79582  10.579  10.688   8.649  0.1552 -0.0831 -1.2165
  590MOL0     H79583  10.045  10.508   8.618  1.2574  0.6510  0.1133
  590MOL0     H79584   9.814  10.513   8.682 -0.2017 -0.4122  0.2103
  590MOL0     H79585   9.732  10.500   9.115 -0.1928 -1.4738 -2.4874
  590MOL0     H79586   9.714  10.679   9.081 -0.0564  0.1229  0.6092
  590MOL0     H79587   9.475  10.601   8.984 -0.7826  0.4938  1.0458
  590MOL0     H79588   9.528  10.445   9.066  1.4274  0.3626  2.3500
  590MOL0     H79589   9.543  10.584   9.282  0.5354  1.6309  1.0571
  590MOL0     H79590   9.504  10.723   9.182  1.9805 -0.6081 -0.6111
  590MOL0     H79591   9.283  10.650   9.165 -0.4855 -1.7990 -0.5582
  590MOL0     H79592   9.320  10.482   9.197 -2.6293 -0.3706  0.1117
  590MOL0     H79593   9.372  10.544   9.435  0.7495 -0.3021 -0.9666
  590MOL0     H79594   9.324  10.717   9.396 -2.2422  0.0306  3.2475
  590MOL0     H79595   9.112  10.657   9.344  0.8302  0.2883 -0.7912
  590MOL0     H79596   9.139  10.481   9.344  2.4624 -0.2549 -3.5369
  590MOL0     H79597   9.205  10.639   9.609  0.2351  1.2424 -0.2892
  590MOL0     H79598   9.036  10.612   9.558 -0.5003 -2.4186 -0.6998
  590MOL0     H79599   9.239  10.377   9.583 -1.1051 -2.9388  0.2506
  590MOL0     H79600   9.076  10.364   9.536  0.1663  0.1618  0.1449
  590MOL0     H79601   8.886  10.497   9.736  2.4757  3.4941 -1.6236
  590MOL0     H79602   8.818  10.410  10.021  2.3360 -2.0779 -1.9042
  590MOL0     H79603   8.904  10.537  10.111  0.4384 -1.3575  0.9246
  590MOL0     H79604   8.730  10.561   9.854  0.8440 -0.2629 -0.4371
  590MOL0     H79605   8.815  10.709   9.927 -1.0597  1.2521  1.3894
  590MOL0     H79606   8.591  10.531  10.048  0.3297  0.2197  1.9967
  590MOL0     H79607   8.566  10.684   9.981 -0.0418  0.7942  1.1887
  590MOL0     H79608   8.744  10.660  10.217 -0.2927 -2.4754 -1.1881
  590MOL0     H79609   8.575  10.693  10.230  1.4488 -1.6694  1.6244
  590MOL0     H79610   8.409  10.828  10.097  1.4575 -2.1889  1.9322
  590MOL0     H79611   8.204  10.937  10.068  1.7712  3.9860 -4.0107
  590MOL0     H79612   8.157  10.984  10.236  2.4686 -3.0132  0.7803
  590MOL0     H79613   8.190  11.097  10.100 -0.2230  1.1970  2.0587
  590MOL0     H79614   7.943  11.189  10.245 -4.4137 -0.1098  1.7997
  590MOL0     H79615   7.760  11.357  10.304 -0.1310  1.5288 -1.5619
  590MOL0     H79616   7.827  11.618  10.602  1.7561  0.8216 -1.4383
  590MOL0     H79617   7.725  11.724  10.524  3.0477  0.7024 -3.0781
  590MOL0     H79618   7.642  11.435  10.571  1.0985  0.3204 -2.2540
  590MOL0     H79619   7.641  11.564  10.704  0.0372  0.1122  0.2150
  590MOL0     H79620   7.485  11.545  10.437 -1.1732  3.4181 -1.3736
  590MOL0     H79621   7.487  11.688  10.545  2.6703  0.2031 -1.6976
  590MOL0     H79622   7.374  11.411  10.597  0.4424 -0.7117  0.9395
  590MOL0     H79623   7.423  11.511  10.736  1.7428 -2.2054 -0.7393
  590MOL0     H79624   7.261  11.679  10.558 -0.7269  0.0907 -0.6312
  590MOL0     H79625   7.229  11.617  10.720 -0.1007  0.1572  0.4177
  590MOL0     H79626   7.157  11.464  10.465 -0.3232  1.9577  0.2612
  590MOL0     H79627   7.138  11.397  10.627 -0.1264 -1.1111  0.9732
  590MOL0     H79628   6.995  11.643  10.517  1.0363 -1.1667 -0.6144
  590MOL0     H79629   7.015  11.610  10.692  0.1099 -0.1034 -0.0193
  590MOL0     H79630   6.895  11.406  10.665  1.0585 -2.5991 -2.3375
  590MOL0     H79631   6.894  11.427  10.487  1.4483 -2.6138  1.2415
  590MOL0     H79632   8.027  11.641  10.441 -1.4404 -0.0268  0.5100
  590MOL0     H79633   8.224  11.494  10.374  1.0620 -0.3736  1.1606
  590MOL0     H79634   8.604  11.216  10.341  0.7691 -1.3997  1.7788
  590MOL0     H79635   8.746  11.049  10.259  0.4654  2.1463 -1.8324
  590MOL0     H79636   9.935  10.651   9.075 -0.7903  0.2629 -0.0983
  590MOL0     H79637  10.180  10.633   9.013 -0.7463  1.9120  1.2494
  590MOL0     H79638  10.450  10.411   8.809 -2.6690 -0.6185 -2.3115
  590MOL0     H79639  10.691  10.346   8.775 -0.6284  1.4484  0.9162
  590MOL0     H79640  11.004  10.593   8.582  1.6053 -0.4674 -0.1094
  590MOL0     H79641  10.957  10.663   8.741 -3.0137 -0.8811  0.5229
  590MOL0     H79642  11.132  10.420   8.713 -3.4424 -0.5278 -0.4570
  590MOL0     H79643  11.064  10.495   8.858 -1.7291 -0.8406 -0.8717
  590MOL0     H79644  11.203  10.676   8.850  3.0789  2.3107  0.0038
  590MOL0     H79645  11.239  10.667   8.680 -0.7095 -0.1974  0.0489
  590MOL0     H79646  11.335  10.465   8.888  2.8187  0.8496  0.1293
  590MOL0     H79647  11.435  10.590   8.816 -2.6941  3.1843 -1.5010
  590MOL0     H79648  11.415  10.290   8.524  0.4599 -3.5315  2.3711
  590MOL0     H79649  10.784  10.729   8.609 -0.6505 -0.8771 -1.2003
  590MOL0     H79650  10.550  10.790   8.627 -0.6793 -0.0324  0.0684
  591MOL0     O79651   6.477   3.708   6.605 -0.4129 -0.2004  0.1918
  591MOL0     C79652   6.557   3.636   6.557 -0.1375 -0.2078  0.3925
  591MOL0     O79653   6.546   3.505   6.520  0.2324  0.7139  0.1045
  591MOL0     C79654   6.418   3.444   6.549 -0.1434 -0.5023  0.2055
  591MOL0     C79655   6.354   3.373   6.448 -0.0208 -0.1594 -0.2719
  591MOL0     C79656   6.240   3.301   6.478  1.1361  0.0048  0.6238
  591MOL0     C79657   6.179   3.306   6.598 -0.4330 -0.8397 -0.0654
  591MOL0     O79658   6.071   3.226   6.633  0.3225 -0.3199  0.1426
  591MOL0     C79659   6.048   3.180   6.765  0.2478 -0.5586 -0.1007
  591MOL0     C79660   5.915   3.097   6.783  0.3253 -0.5677  0.1135
  591MOL0     C79661   5.791   3.174   6.747 -0.4546 -0.2056  0.5637
  591MOL0     C79662   5.662   3.142   6.835 -0.0202 -0.9270 -0.1301
  591MOL0     C79663   5.552   3.244   6.834 -0.4381  0.0280  0.4895
  591MOL0     C79664   5.483   3.252   6.696 -0.6801 -0.3663 -0.0888
  591MOL0     C79665   5.403   3.383   6.680  0.1540 -0.1046  0.5749
  591MOL0     C79666   5.288   3.395   6.773 -0.1059 -0.2592  0.1538
  591MOL0     N79667   5.182   3.304   6.740 -0.7550  0.0967 -0.3448
  591MOL0     C79668   5.087   3.332   6.645 -1.0259  0.6337 -1.0291
  591MOL0     C79669   5.019   3.217   6.638  0.6252  0.7339 -0.4647
  591MOL0     C79670   4.899   3.179   6.555 -0.7090 -0.2729 -0.5081
  591MOL0     C79671   4.771   3.239   6.606 -0.7332  0.1568  0.2509
  591MOL0     C79672   4.649   3.187   6.528 -1.1765  0.2446 -0.0901
  591MOL0     C79673   4.524   3.234   6.588  0.5096 -0.5449 -0.7381
  591MOL0     O79674   4.421   3.214   6.497  0.3645 -0.1551  0.1488
  591MOL0     C79675   4.299   3.278   6.525 -0.6239  0.2243 -0.0613
  591MOL0     C79676   4.186   3.235   6.447 -0.5415  0.4240  0.5888
  591MOL0     C79677   4.056   3.275   6.493 -0.0577 -0.0365  0.2296
  591MOL0     C79678   3.948   3.200   6.409  0.3101  0.2315 -0.9690
  591MOL0     C79679   4.042   3.373   6.594  0.0564 -0.4745  0.7928
  591MOL0     C79680   3.903   3.411   6.651 -0.2740  0.5083 -0.8128
  591MOL0     O79681   3.900   3.504   6.749 -0.1523  0.5382 -0.4382
  591MOL0     C79682   3.785   3.540   6.805  0.5685 -0.2562 -0.6467
  591MOL0     C79683   3.733   3.664   6.764  0.0720 -0.1793 -0.4522
  591MOL0     C79684   3.605   3.709   6.806 -0.2349 -0.3368  0.0462
  591MOL0     C79685   3.532   3.645   6.918  0.0957  0.5029  0.4600
  591MOL0     O79686   3.410   3.674   6.964  0.1520 -0.6237  0.7906
  591MOL0     C79687   3.414   3.782   7.055 -0.3222  0.0861  0.0849
  591MOL0     C79688   3.402   3.727   7.199 -0.7088 -0.6700  0.0791
  591MOL0     C79689   3.401   3.827   7.308 -0.9753  0.1333 -0.1078
  591MOL0     C79690   3.365   3.752   7.444 -0.2966  0.0243  0.4551
  591MOL0     C79691   3.328   3.857   7.551 -0.8728  0.5019  0.0344
  591MOL0     C79692   3.288   3.798   7.691 -0.3718 -0.3131 -0.2583
  591MOL0     C79693   3.230   3.913   7.776 -0.9695 -0.5488  0.7855
  591MOL0     C79694   3.212   3.894   7.928  0.7236  0.0516 -0.0206
  591MOL0    Cl79695   3.139   4.030   8.017 -0.1223  0.1258 -0.0587
  591MOL0     C79696   3.595   3.526   6.961  0.4511 -0.1522 -0.6533
  591MOL0     C79697   3.716   3.468   6.908  0.0671 -0.2428  0.2850
  591MOL0     O79698   3.803   3.365   6.602 -0.0059 -0.6245  0.0300
  591MOL0     C79699   4.160   3.427   6.653 -0.2066 -0.1989  0.5817
  591MOL0     C79700   4.282   3.377   6.627 -0.1234 -0.3961  0.6303
  591MOL0     N79701   5.070   3.122   6.725  0.2125 -0.2370  0.4761
  591MOL0     N79702   5.162   3.175   6.790  0.5177 -0.5536  0.5006
  591MOL0     C79703   6.233   3.391   6.695 -0.1845  0.6996 -0.2362
  591MOL0     C79704   6.355   3.449   6.675 -1.0807  1.1493  0.0509
  591MOL0     C79705   6.694   3.690   6.536  0.1301 -0.0678  0.3627
  591MOL0     C79706   6.737   3.807   6.600 -0.3131  0.0247 -0.3390
  591MOL0     C79707   6.869   3.861   6.579  0.1954 -0.1241 -0.9457
  591MOL0     C79708   6.941   3.804   6.479 -0.4795 -0.1120  0.5873
  591MOL0     O79709   7.071   3.841   6.460 -1.0980  0.1527  0.6740
  591MOL0     C79710   7.119   3.958   6.521  0.0081 -0.7466 -0.4684
  591MOL0     C79711   7.240   4.029   6.453  0.7512  0.4456 -0.6301
  591MOL0     C79712   7.206   4.084   6.315  0.9533 -0.1219  1.1620
  591MOL0     C79713   7.187   3.989   6.197  0.2690  0.2031 -0.3011
  591MOL0     C79714   7.104   4.053   6.091 -0.1212  0.4856 -0.5279
  591MOL0     C79715   7.042   4.113   6.009  0.1325 -0.4375  0.5980
  591MOL0     C79716   6.887   3.695   6.400  1.1688 -0.2688 -0.2926
  591MOL0     C79717   6.775   3.629   6.438 -0.0407 -0.8246 -0.7525
  591MOL0     H79718   6.400   3.377   6.350 -0.5100  1.9363 -0.4728
  591MOL0     H79719   6.199   3.233   6.405  1.2446  0.7424 -0.1415
  591MOL0     H79720   6.126   3.108   6.793 -1.4495 -3.2467 -1.8474
  591MOL0     H79721   6.047   3.258   6.842  0.9633  0.0321 -0.6848
  591MOL0     H79722   5.927   3.007   6.722  0.3758  0.8389 -2.0710
  591MOL0     H79723   5.900   3.069   6.887 -3.9871 -0.1036 -0.2123
  591MOL0     H79724   5.820   3.279   6.742 -2.0818  0.2192 -1.9380
  591MOL0     H79725   5.761   3.145   6.646 -1.1763  0.8047  0.4731
  591MOL0     H79726   5.620   3.048   6.799 -0.9508  0.1872 -2.0980
  591MOL0     H79727   5.688   3.133   6.941 -1.5009  2.7617  0.6878
  591MOL0     H79728   5.478   3.219   6.911 -2.9009 -0.0393 -1.7390
  591MOL0     H79729   5.596   3.341   6.858 -1.3223  0.4604  0.4227
  591MOL0     H79730   5.564   3.266   6.624 -0.8785 -0.0144 -0.2453
  591MOL0     H79731   5.425   3.160   6.684 -1.2857  0.0531 -0.4561
  591MOL0     H79732   5.470   3.468   6.695 -1.5853  1.2622  0.8872
  591MOL0     H79733   5.363   3.387   6.579  0.2125  0.0800  0.5587
  591MOL0     H79734   5.243   3.494   6.764 -0.1336  0.0111  2.4806
  591MOL0     H79735   5.322   3.379   6.876 -0.1362 -2.6418 -0.1607
  591MOL0     H79736   5.073   3.417   6.578 -0.2995  2.0913  0.5953
  591MOL0     H79737   4.910   3.214   6.452  1.7012 -1.4125 -0.7044
  591MOL0     H79738   4.893   3.070   6.565  0.1336 -0.1008  4.8087
  591MOL0     H79739   4.776   3.342   6.570  0.6112 -0.8806 -2.9823
  591MOL0     H79740   4.761   3.221   6.713  0.9160 -1.4638  0.1944
  591MOL0     H79741   4.642   3.078   6.528  0.0069  0.1601  0.1857
  591MOL0     H79742   4.658   3.213   6.422 -0.2308 -1.5436 -0.4923
  591MOL0     H79743   4.540   3.343   6.589  0.5686 -0.5556  0.3727
  591MOL0     H79744   4.500   3.188   6.684 -0.5643  2.3855  0.5103
  591MOL0     H79745   4.205   3.171   6.362  1.4387  2.1929 -0.3864
  591MOL0     H79746   3.877   3.277   6.378 -2.4801 -1.8694 -0.2082
  591MOL0     H79747   3.976   3.131   6.328 -1.9614 -2.1518  0.1663
  591MOL0     H79748   3.897   3.130   6.475  1.1038 -2.3963 -2.9788
  591MOL0     H79749   3.786   3.718   6.686 -2.5833  0.5665 -1.8546
  591MOL0     H79750   3.561   3.803   6.774 -1.3166 -0.3291  1.4587
  591MOL0     H79751   3.506   3.841   7.053 -0.3825  0.1945  0.5471
  591MOL0     H79752   3.333   3.849   7.026  0.5409 -0.1458 -3.4119
  591MOL0     H79753   3.314   3.664   7.207 -2.1540  1.1573 -0.5410
  591MOL0     H79754   3.495   3.669   7.202 -0.5059 -0.3889 -0.4877
  591MOL0     H79755   3.357   3.925   7.286 -0.5664 -0.3385 -3.6593
  591MOL0     H79756   3.504   3.863   7.319 -2.5340  4.2320  3.5443
  591MOL0     H79757   3.280   3.684   7.431  2.0499 -3.2011  0.7349
  591MOL0     H79758   3.441   3.684   7.483 -0.2313 -0.6529 -0.7905
  591MOL0     H79759   3.246   3.916   7.510 -0.9890  0.3066 -0.0176
  591MOL0     H79760   3.416   3.922   7.563  0.8358 -2.1477  3.4534
  591MOL0     H79761   3.206   3.728   7.675 -0.2243 -0.6246  0.2954
  591MOL0     H79762   3.374   3.753   7.743 -0.9229  1.4887  2.4635
  591MOL0     H79763   3.130   3.928   7.734 -1.3386 -1.5502  1.2766
  591MOL0     H79764   3.291   4.004   7.774 -2.3559  0.4953  2.9540
  591MOL0     H79765   3.315   3.894   7.967 -0.1183 -0.4095  2.4043
  591MOL0     H79766   3.159   3.802   7.954 -1.1606  0.9330 -0.5843
  591MOL0     H79767   3.543   3.484   7.047 -1.8251  2.5544 -0.5836
  591MOL0     H79768   3.762   3.380   6.953 -0.8976 -0.2177  1.3728
  591MOL0     H79769   4.144   3.509   6.722 -1.3256 -0.6763  0.9206
  591MOL0     H79770   4.369   3.414   6.681  0.5164 -2.2475  0.9349
  591MOL0     H79771   6.182   3.403   6.790  1.1741  0.8083  0.5000
  591MOL0     H79772   6.401   3.511   6.751  1.8909  2.3725 -2.5325
  591MOL0     H79773   6.684   3.847   6.686  1.2203  0.1334  0.6001
  591MOL0     H79774   6.905   3.946   6.636  0.3173  1.2361 -2.9597
  591MOL0     H79775   7.040   4.034   6.515 -1.1228 -1.5603  2.3982
  591MOL0     H79776   7.141   3.938   6.626 -1.1015  0.6954  0.0723
  591MOL0     H79777   7.316   3.952   6.443 -0.2475 -0.4116 -2.0416
  591MOL0     H79778   7.269   4.115   6.515  0.7140  0.5377 -0.7390
  591MOL0     H79779   7.288   4.153   6.292 -1.2649  2.0715 -0.7773
  591MOL0     H79780   7.108   4.134   6.319  1.2739  0.9618 -1.9203
  591MOL0     H79781   7.133   3.899   6.227 -3.0310  2.4399  1.1002
  591MOL0     H79782   7.282   3.959   6.153 -0.3539  0.9344 -2.2722
  591MOL0     H79783   6.988   4.157   5.927  0.5243  2.5159  1.7714
  591MOL0     H79784   6.944   3.655   6.317 -0.3441  0.7433 -1.8646
  591MOL0     H79785   6.752   3.537   6.386  1.2017 -0.2484 -2.4275
  592MOL0     O79786   4.031   4.507   2.532  0.0270  0.6825 -0.2816
  592MOL0     C79787   4.051   4.601   2.461 -0.2957 -0.3784  0.0602
  592MOL0     O79788   3.956   4.691   2.407 -0.2653 -0.3328  0.3278
  592MOL0     C79789   3.829   4.709   2.450  0.1374 -0.9546 -0.8204
  592MOL0     C79790   3.779   4.668   2.579  0.2011  0.9502  0.4747
  592MOL0     C79791   3.634   4.675   2.598 -0.5109 -0.2850 -0.5199
  592MOL0     C79792   3.548   4.733   2.506  0.2458  0.0350 -0.1845
  592MOL0     O79793   3.410   4.761   2.532 -0.1405 -0.2114 -0.9901
  592MOL0     C79794   3.324   4.721   2.421 -0.6173  0.3637  0.2349
  592MOL0     C79795   3.178   4.705   2.467 -0.4046  0.4753 -0.3449
  592MOL0     C79796   3.112   4.830   2.509  0.2621 -0.3283  0.0493
  592MOL0     C79797   2.960   4.800   2.549  0.2486  0.6313 -0.0793
  592MOL0     C79798   2.898   4.907   2.638  0.6225  0.8504 -0.4101
  592MOL0     C79799   2.765   4.836   2.681 -0.2314 -0.3666 -0.5955
  592MOL0     C79800   2.677   4.942   2.757 -0.0748 -1.0543 -0.1937
  592MOL0     C79801   2.541   4.892   2.806  0.1855 -0.2183 -0.1948
  592MOL0     N79802   2.454   5.010   2.844  0.7070  0.5703 -0.1116
  592MOL0     C79803   2.504   5.106   2.926 -0.0448  0.4701 -0.6747
  592MOL0     C79804   2.397   5.184   2.941  0.5507 -0.1437  0.3288
  592MOL0     C79805   2.388   5.285   3.055 -0.4310  0.4343  0.2970
  592MOL0     C79806   2.247   5.291   3.133  0.1656 -0.2164  0.1351
  592MOL0     C79807   2.194   5.156   3.175 -0.1355  0.4269 -0.4470
  592MOL0     C79808   2.056   5.178   3.248 -0.5550  0.9388 -0.1987
  592MOL0     O79809   1.958   5.252   3.176 -0.4358  0.1481 -0.5465
  592MOL0     C79810   1.826   5.241   3.217 -0.2663 -0.2632  0.2904
  592MOL0     C79811   1.786   5.201   3.342  0.5414 -0.1376 -0.5196
  592MOL0     C79812   1.654   5.197   3.377  0.9519 -0.2137  0.6642
  592MOL0     C79813   1.616   5.173   3.516 -0.7462 -1.0837  0.0403
  592MOL0     C79814   1.551   5.227   3.274  0.0529  0.4109 -1.1857
  592MOL0     C79815   1.401   5.204   3.298  0.0205 -0.0436  0.4874
  592MOL0     O79816   1.320   5.280   3.216  0.5667  0.0671  0.1152
  592MOL0     C79817   1.185   5.249   3.233 -0.0664 -1.2816  0.1783
  592MOL0     C79818   1.107   5.332   3.319  0.3476  0.7162  0.3027
  592MOL0     C79819   0.974   5.308   3.340  0.2081  0.1700  0.3904
  592MOL0     C79820   0.914   5.197   3.283 -0.1631 -0.8164  0.0081
  592MOL0     O79821   0.781   5.170   3.295  0.7317  0.1169  0.0589
  592MOL0     C79822   0.697   5.256   3.374 -0.1540  0.6444  0.3860
  592MOL0     C79823   0.557   5.214   3.355  0.1690 -0.2352  0.0004
  592MOL0     C79824   0.450   5.296   3.429 -0.0960 -0.5675 -0.2094
  592MOL0     C79825   0.305   5.241   3.389 -0.4883 -0.3131 -0.3473
  592MOL0     C79826   0.198   5.335   3.448 -0.1817  0.5639  0.4155
  592MOL0     C79827   0.058   5.282   3.429  0.0969  0.6984  0.4307
  592MOL0     C79828  -0.042   5.376   3.496  0.1800  0.0832 -0.6085
  592MOL0     C79829  -0.177   5.330   3.454  0.5740 -0.3948 -1.3208
  592MOL0    Cl79830  -0.203   5.325   3.267  0.3643  0.4900 -0.1898
  592MOL0     C79831   0.989   5.123   3.200  0.5046 -0.0060 -0.0497
  592MOL0     C79832   1.118   5.150   3.167 -0.7619  0.6452  0.0534
  592MOL0     O79833   1.362   5.110   3.366 -0.8315  0.5488  0.1617
  592MOL0     C79834   1.598   5.271   3.147  0.7718 -0.7525  0.2963
  592MOL0     C79835   1.738   5.270   3.122  0.0743 -0.3826  0.4691
  592MOL0     N79836   2.299   5.155   2.844  0.0309  0.6145  0.5921
  592MOL0     N79837   2.328   5.047   2.789  0.3949  0.3632 -0.3512
  592MOL0     C79838   3.613   4.775   2.386  0.5197  0.1307  0.1297
  592MOL0     C79839   3.748   4.762   2.351  0.3572 -0.7061 -0.1716
  592MOL0     C79840   4.183   4.603   2.404 -0.4359 -0.2621 -0.3705
  592MOL0     C79841   4.225   4.718   2.335 -0.0423 -0.5758  0.6777
  592MOL0     C79842   4.353   4.735   2.276 -0.1965 -0.3244 -0.3198
  592MOL0     C79843   4.443   4.627   2.285 -0.0715 -0.5365  0.1578
  592MOL0     O79844   4.570   4.656   2.241  0.1566 -0.4107 -0.6516
  592MOL0     C79845   4.678   4.564   2.261 -0.8463 -1.4160  0.2157
  592MOL0     C79846   4.808   4.621   2.199  0.2005  0.1453 -0.1689
  592MOL0     C79847   4.790   4.692   2.064  0.0167 -0.2334  0.3372
  592MOL0     C79848   4.921   4.762   2.024  0.7011 -0.8983  0.0686
  592MOL0     C79849   4.958   4.858   2.125  0.6752 -0.0627  0.4783
  592MOL0     C79850   4.985   4.936   2.216  0.4199  1.0178 -0.7693
  592MOL0     C79851   4.403   4.504   2.353 -0.0672  0.3231 -0.4151
  592MOL0     C79852   4.267   4.491   2.408  0.4460 -0.3570 -0.1944
  592MOL0     H79853   3.853   4.643   2.654  0.9981 -0.0675 -0.6308
  592MOL0     H79854   3.594   4.636   2.691 -1.0441 -0.6839 -0.9065
  592MOL0     H79855   3.330   4.785   2.332 -1.8549  0.0936 -0.0549
  592MOL0     H79856   3.366   4.625   2.388  1.6782  1.5611 -0.5629
  592MOL0     H79857   3.112   4.658   2.393  0.7266 -0.1618 -0.9670
  592MOL0     H79858   3.181   4.629   2.545  5.2616 -0.0351 -0.6651
  592MOL0     H79859   3.169   4.869   2.594  0.7514 -1.2093  0.1320
  592MOL0     H79860   3.122   4.909   2.433  1.9817  0.2856  0.8702
  592MOL0     H79861   2.902   4.783   2.458 -0.2156 -2.3968  0.6473
  592MOL0     H79862   2.962   4.705   2.604  0.9586  0.9895  0.5296
  592MOL0     H79863   2.966   4.931   2.720  0.0660  1.7225 -0.1908
  592MOL0     H79864   2.872   4.994   2.576 -1.3501  0.8029  0.2833
  592MOL0     H79865   2.714   4.801   2.591 -2.7909  3.1746 -0.7269
  592MOL0     H79866   2.800   4.756   2.747  4.0902  2.9092  1.6037
  592MOL0     H79867   2.734   4.982   2.842 -0.4462  1.0351 -0.8719
  592MOL0     H79868   2.677   5.034   2.698  2.7746 -0.9702 -0.1931
  592MOL0     H79869   2.569   4.820   2.884 -0.4002 -3.1756 -2.5256
  592MOL0     H79870   2.493   4.853   2.716  2.6844  0.6933 -2.0181
  592MOL0     H79871   2.597   5.110   2.981 -0.1493  4.1330 -0.4800
  592MOL0     H79872   2.478   5.272   3.114 -0.4046 -0.0955  0.1484
  592MOL0     H79873   2.395   5.386   3.014 -2.3554  1.1635  1.6323
  592MOL0     H79874   2.170   5.327   3.064  1.3306 -0.6839 -1.4740
  592MOL0     H79875   2.260   5.351   3.223  1.3185  0.8312 -0.6982
  592MOL0     H79876   2.261   5.099   3.240  0.7470 -1.0389 -2.5330
  592MOL0     H79877   2.171   5.102   3.083 -2.4224  1.3440 -0.4915
  592MOL0     H79878   2.100   5.220   3.339  0.5437 -0.1926 -0.1808
  592MOL0     H79879   2.016   5.081   3.279  2.2238 -0.7141 -1.3772
  592MOL0     H79880   1.853   5.178   3.424 -0.6993 -2.0654  0.0275
  592MOL0     H79881   1.626   5.065   3.530 -2.0135 -1.1722  0.3811
  592MOL0     H79882   1.684   5.213   3.591 -2.5427 -1.5373  2.0209
  592MOL0     H79883   1.517   5.203   3.552  0.4507 -0.6156  3.2939
  592MOL0     H79884   1.149   5.418   3.370  3.5088  0.6097 -1.8290
  592MOL0     H79885   0.907   5.362   3.407 -1.7558 -0.7081 -0.7820
  592MOL0     H79886   0.712   5.230   3.479  0.4130 -1.4667 -0.1769
  592MOL0     H79887   0.715   5.364   3.363  0.3744  0.3858 -1.7162
  592MOL0     H79888   0.545   5.224   3.246  0.5119 -3.2000 -0.3873
  592MOL0     H79889   0.545   5.111   3.387  1.3289 -0.1322  0.7829
  592MOL0     H79890   0.454   5.404   3.411 -2.0601 -0.7181 -1.9062
  592MOL0     H79891   0.471   5.282   3.536  1.5415  2.0196 -0.1183
  592MOL0     H79892   0.301   5.248   3.280 -1.5400  0.3631 -0.2854
  592MOL0     H79893   0.295   5.134   3.409  0.2598 -0.9077 -2.8079
  592MOL0     H79894   0.205   5.424   3.384 -1.2762  0.6503  0.3974
  592MOL0     H79895   0.226   5.354   3.552  2.0567  0.1125 -0.0522
  592MOL0     H79896   0.028   5.278   3.324 -4.1390  2.6544  1.3776
  592MOL0     H79897   0.043   5.183   3.473 -2.5759  0.2733 -1.2217
  592MOL0     H79898  -0.016   5.476   3.462 -0.3409  0.0590 -1.0970
  592MOL0     H79899  -0.030   5.379   3.604 -2.6171  0.7225 -0.2350
  592MOL0     H79900  -0.256   5.395   3.494  0.3468 -2.4376  2.0023
  592MOL0     H79901  -0.192   5.232   3.502  1.5203  0.1594  0.1869
  592MOL0     H79902   0.939   5.051   3.137 -0.6728  1.4708 -0.8797
  592MOL0     H79903   1.175   5.103   3.087 -1.9272  0.7723 -0.8826
  592MOL0     H79904   1.518   5.300   3.079  0.1748 -1.1557  0.8139
  592MOL0     H79905   1.782   5.286   3.025  0.5933 -0.2105  0.7286
  592MOL0     H79906   3.553   4.820   2.308  1.2739  1.2413  0.1691
  592MOL0     H79907   3.798   4.798   2.262  1.4229  2.0529  1.4046
  592MOL0     H79908   4.173   4.813   2.326  1.7130  0.3636 -0.1897
  592MOL0     H79909   4.391   4.831   2.242  1.6908 -0.5119  1.0915
  592MOL0     H79910   4.707   4.555   2.366  1.4747  2.6013  0.1436
  592MOL0     H79911   4.670   4.472   2.203 -0.5526 -0.8859 -0.6987
  592MOL0     H79912   4.867   4.529   2.189 -2.7272 -1.5812 -4.2537
  592MOL0     H79913   4.841   4.689   2.278  0.9355  0.8188 -1.0338
  592MOL0     H79914   4.705   4.761   2.067 -0.2351 -0.2509 -2.8483
  592MOL0     H79915   4.762   4.620   1.987  0.9820  2.5666 -2.8723
  592MOL0     H79916   4.894   4.804   1.927 -2.1852 -3.2779 -0.2851
  592MOL0     H79917   4.994   4.687   1.994 -0.5560 -1.4793 -1.6417
  592MOL0     H79918   4.991   4.996   2.304 -0.9608  5.0399 -3.1467
  592MOL0     H79919   4.479   4.428   2.365  1.0951  1.5183  0.1120
  592MOL0     H79920   4.233   4.402   2.460  0.7502  0.5570  1.6443
  593MOL0     O79921   7.675   5.180   8.690 -0.4069  0.2076  0.2359
  593MOL0     C79922   7.696   5.063   8.717  0.5562 -0.1750  0.2375
  593MOL0     O79923   7.595   4.962   8.718  0.6333 -0.2092  0.6627
  593MOL0     C79924   7.476   4.996   8.666  0.9908 -0.0586  0.6408
  593MOL0     C79925   7.372   5.047   8.746 -0.0507  0.4516 -0.1483
  593MOL0     C79926   7.244   5.060   8.693  0.8647 -0.3381 -0.5002
  593MOL0     C79927   7.205   5.028   8.558  0.6813 -0.6922 -0.1652
  593MOL0     O79928   7.083   5.045   8.493 -0.5877  0.1192 -0.0196
  593MOL0     C79929   6.958   5.058   8.567  0.1183 -0.8827 -0.7723
  593MOL0     C79930   6.941   5.208   8.586  0.6368  0.1083  0.4920
  593MOL0     C79931   6.843   5.236   8.714  1.1142  0.1799  0.0372
  593MOL0     C79932   6.844   5.375   8.749  0.5039 -0.5331  0.7618
  593MOL0     C79933   6.760   5.408   8.885  0.1428  0.0828 -0.6104
  593MOL0     C79934   6.609   5.378   8.879  0.6400  1.3896  0.0380
  593MOL0     C79935   6.518   5.474   8.967 -0.0915  0.0345 -0.9046
  593MOL0     C79936   6.484   5.607   8.899 -1.0254 -0.5177 -0.4781
  593MOL0     N79937   6.352   5.611   8.839  0.2111  0.0769 -0.3205
  593MOL0     C79938   6.285   5.726   8.804  0.2185 -0.0419  0.0882
  593MOL0     C79939   6.173   5.675   8.751  0.2506  0.6831 -0.0297
  593MOL0     C79940   6.055   5.757   8.706 -0.2451 -0.6823 -0.7958
  593MOL0     C79941   5.918   5.689   8.729 -0.0066 -0.4268  0.8327
  593MOL0     C79942   5.809   5.756   8.638 -0.7159  0.6073  1.0838
  593MOL0     C79943   5.671   5.691   8.659 -0.7304  0.2900  0.1639
  593MOL0     O79944   5.631   5.708   8.802 -0.3018 -0.1035  0.2141
  593MOL0     C79945   5.498   5.700   8.831  0.8497 -0.4291  0.8206
  593MOL0     C79946   5.468   5.712   8.962 -0.4574 -1.0913 -0.2754
  593MOL0     C79947   5.340   5.721   9.022  0.4730 -0.1731 -0.6065
  593MOL0     C79948   5.325   5.746   9.168  0.5226  0.3983  0.0609
  593MOL0     C79949   5.228   5.693   8.934 -0.4142  0.4647 -0.7113
  593MOL0     C79950   5.087   5.691   8.978 -0.5875 -0.0736 -0.0191
  593MOL0     O79951   4.991   5.643   8.892 -0.1173  0.4257  0.6044
  593MOL0     C79952   4.868   5.610   8.947  0.1905 -1.1355 -0.0967
  593MOL0     C79953   4.745   5.673   8.898 -0.2347  0.1431  0.0778
  593MOL0     C79954   4.624   5.626   8.942  0.1158  0.5635 -0.2614
  593MOL0     C79955   4.610   5.536   9.049 -0.2089 -0.3055 -0.4565
  593MOL0     O79956   4.475   5.510   9.071 -0.0751  0.8953  0.1154
  593MOL0     C79957   4.456   5.409   9.170  0.6981  0.2878  0.6182
  593MOL0     C79958   4.311   5.379   9.160  0.2407  0.5911 -0.2199
  593MOL0     C79959   4.227   5.476   9.239 -0.1728 -0.6139 -0.4023
  593MOL0     C79960   4.242   5.472   9.392 -0.1619  0.3319  0.3589
  593MOL0     C79961   4.125   5.542   9.456  0.3018  0.2567 -0.2806
  593MOL0     C79962   3.985   5.498   9.417  0.0672  0.0033 -0.2849
  593MOL0     C79963   3.864   5.592   9.461  0.0328  0.8084 -0.1182
  593MOL0     C79964   3.729   5.545   9.410  0.8858  0.3469  1.2067
  593MOL0    Cl79965   3.689   5.384   9.481 -0.4776 -0.2584 -0.3390
  593MOL0     C79966   4.730   5.494   9.107 -0.2024 -0.4127  0.0595
  593MOL0     C79967   4.857   5.518   9.051 -0.5339 -0.3301 -0.4865
  593MOL0     O79968   5.069   5.733   9.091  0.1293  1.6874 -0.4957
  593MOL0     C79969   5.257   5.681   8.794 -0.0584 -0.1082 -0.1700
  593MOL0     C79970   5.393   5.693   8.745  0.6946  0.8322  0.5542
  593MOL0     N79971   6.170   5.536   8.758 -0.4025 -0.3301  0.2192
  593MOL0     N79972   6.281   5.497   8.808  0.0715 -0.7003  0.1994
  593MOL0     C79973   7.311   4.986   8.476  0.3960 -0.5174  0.1245
  593MOL0     C79974   7.442   4.978   8.528 -0.0765 -0.1207  0.1703
  593MOL0     C79975   7.826   5.033   8.783 -0.4011 -0.0715  1.1151
  593MOL0     C79976   7.864   4.902   8.799 -0.3922 -0.0981  0.4481
  593MOL0     C79977   7.985   4.870   8.863 -0.3050  0.2661  0.4037
  593MOL0     C79978   8.073   4.963   8.909 -0.7176  0.3729 -0.1007
  593MOL0     O79979   8.184   4.940   8.988  0.1654  0.2022  0.1672
  593MOL0     C79980   8.226   4.803   9.018 -0.0324  0.0852 -0.5487
  593MOL0     C79981   8.331   4.770   8.915 -0.0901  0.1774  0.0925
  593MOL0     C79982   8.465   4.842   8.931 -0.2852  0.2145 -0.2220
  593MOL0     C79983   8.582   4.745   8.948  0.1413 -0.2873  0.3943
  593MOL0     C79984   8.588   4.708   9.089  1.1565  0.1430 -0.4888
  593MOL0     C79985   8.588   4.660   9.196  0.1852 -0.2657 -0.6766
  593MOL0     C79986   8.032   5.098   8.903  0.0842  0.2064 -0.0609
  593MOL0     C79987   7.909   5.131   8.845 -0.0106 -0.5418 -0.2129
  593MOL0     H79988   7.398   5.065   8.850  0.6072  0.0171 -0.2300
  593MOL0     H79989   7.169   5.093   8.765 -0.9102 -0.6665 -2.1094
  593MOL0     H79990   6.874   5.010   8.516 -2.2261  1.3157  0.8026
  593MOL0     H79991   6.974   5.001   8.659 -2.1042 -0.8848 -0.3289
  593MOL0     H79992   7.037   5.258   8.603  0.2248  0.7671  0.9467
  593MOL0     H79993   6.897   5.245   8.493  2.9105  0.1863 -0.6001
  593MOL0     H79994   6.743   5.195   8.692  1.3049 -1.7838  2.4386
  593MOL0     H79995   6.866   5.175   8.802 -1.9441  0.6213  1.2715
  593MOL0     H79996   6.942   5.421   8.758 -0.8965  2.3888  2.4997
  593MOL0     H79997   6.789   5.426   8.670  1.1224  0.5805  1.0352
  593MOL0     H79998   6.804   5.354   8.969 -0.2807 -0.9859 -1.0605
  593MOL0     H79999   6.772   5.513   8.914  0.2193  0.1680 -0.9416
  593MOL0     H80000   6.574   5.390   8.776  3.9902  0.1929 -1.3546
  593MOL0     H80001   6.592   5.272   8.903  2.5763  1.6955  3.3698
  593MOL0     H80002   6.433   5.414   9.000 -0.3937  0.8502 -0.1865
  593MOL0     H80003   6.571   5.504   9.058 -0.5275  0.4882 -0.7953
  593MOL0     H80004   6.564   5.630   8.828 -1.9507 -0.7262 -1.6133
  593MOL0     H80005   6.488   5.685   8.975 -2.6681  0.0819 -0.9696
  593MOL0     H80006   6.317   5.829   8.813 -2.7477  0.8903  0.9159
  593MOL0     H80007   6.065   5.852   8.760  0.4152 -0.0251 -2.0400
  593MOL0     H80008   6.072   5.781   8.601  0.2085  0.7702 -0.4162
  593MOL0     H80009   5.901   5.695   8.837  2.0936  0.4648  1.1501
  593MOL0     H80010   5.928   5.583   8.704 -2.7067 -0.3348 -1.1154
  593MOL0     H80011   5.836   5.734   8.535 -0.2281  1.6472  0.9827
  593MOL0     H80012   5.818   5.865   8.644 -1.1740  0.7832 -0.9066
  593MOL0     H80013   5.679   5.583   8.642 -0.0159 -0.1698  2.9625
  593MOL0     H80014   5.607   5.737   8.583 -1.6855  1.0602  1.4052
  593MOL0     H80015   5.548   5.714   9.035 -0.6469  0.3236 -0.0812
  593MOL0     H80016   5.418   5.764   9.223  1.3236 -0.8168 -0.8445
  593MOL0     H80017   5.261   5.832   9.191 -0.0265  0.5399 -1.8443
  593MOL0     H80018   5.281   5.656   9.213 -0.5747  1.4279  1.1343
  593MOL0     H80019   4.749   5.751   8.822 -2.6485 -1.0921 -1.4605
  593MOL0     H80020   4.533   5.666   8.899 -0.3364 -1.0927 -0.8991
  593MOL0     H80021   4.524   5.325   9.156  1.4702  0.0047  4.7571
  593MOL0     H80022   4.467   5.442   9.274  1.9498  0.5707  0.4094
  593MOL0     H80023   4.278   5.385   9.056  4.1210 -0.1443 -1.6360
  593MOL0     H80024   4.296   5.274   9.188 -0.6216 -0.1333 -3.0413
  593MOL0     H80025   4.127   5.464   9.195  0.0435  1.5923 -1.6479
  593MOL0     H80026   4.251   5.581   9.224 -0.8316 -0.3918  0.0411
  593MOL0     H80027   4.240   5.368   9.425 -0.0443  0.6914  1.5337
  593MOL0     H80028   4.329   5.534   9.415  0.3645 -0.5837  0.8715
  593MOL0     H80029   4.123   5.651   9.441 -2.4681  0.3337  0.1229
  593MOL0     H80030   4.130   5.530   9.564  3.7281 -1.3093 -0.4911
  593MOL0     H80031   3.967   5.501   9.309  1.0328  1.6115 -0.4359
  593MOL0     H80032   3.966   5.401   9.463 -0.9863 -0.8113 -2.3127
  593MOL0     H80033   3.879   5.698   9.438 -1.1922  0.6384 -1.9076
  593MOL0     H80034   3.861   5.584   9.570  3.0137 -1.9367 -0.1018
  593MOL0     H80035   3.725   5.539   9.300 -1.3458 -1.9053  1.3174
  593MOL0     H80036   3.652   5.617   9.438  0.3037  0.1651  0.1573
  593MOL0     H80037   4.728   5.430   9.195 -0.0814 -1.9823 -1.0396
  593MOL0     H80038   4.947   5.487   9.103 -0.2399  1.4955  0.1543
  593MOL0     H80039   5.178   5.651   8.726 -1.3017  2.5823 -0.0429
  593MOL0     H80040   5.411   5.668   8.641 -2.5398 -0.5685  0.2205
  593MOL0     H80041   7.295   4.977   8.369 -0.3021  1.4953  0.0122
  593MOL0     H80042   7.524   4.937   8.469 -1.9930  0.0232 -2.8354
  593MOL0     H80043   7.798   4.824   8.762 -2.2222  1.7934 -0.5071
  593MOL0     H80044   8.023   4.768   8.859 -0.0526  0.3811 -0.1906
  593MOL0     H80045   8.260   4.798   9.122 -0.4619 -0.0864 -0.4141
  593MOL0     H80046   8.146   4.729   9.013 -0.5695  0.6528 -0.4779
  593MOL0     H80047   8.290   4.804   8.819 -0.1925  0.3699  0.2049
  593MOL0     H80048   8.335   4.662   8.898 -1.8144  0.1627 -0.4044
  593MOL0     H80049   8.457   4.925   9.002 -0.4317  1.0961 -1.2416
  593MOL0     H80050   8.488   4.884   8.833 -1.3866  1.6806  0.1108
  593MOL0     H80051   8.673   4.794   8.913 -0.0066  1.3675  2.1607
  593MOL0     H80052   8.571   4.651   8.891  1.8296 -0.5193  0.4087
  593MOL0     H80053   8.581   4.641   9.302 -3.5240  0.8162 -0.5660
  593MOL0     H80054   8.103   5.167   8.947  0.4346 -0.7286  0.8825
  593MOL0     H80055   7.881   5.236   8.843  2.0642  0.0387 -1.0301
  594MOL0     O80056   7.231   4.027   9.631 -0.5520  0.2075  0.6522
  594MOL0     C80057   7.278   3.913   9.648  0.5460  0.5747 -0.1268
  594MOL0     O80058   7.198   3.806   9.660 -0.4869 -0.0672 -0.2620
  594MOL0     C80059   7.067   3.822   9.690  0.5190  0.3448  0.4561
  594MOL0     C80060   7.023   3.885   9.809 -0.2051 -0.7445  0.3108
  594MOL0     C80061   6.889   3.897   9.844  0.6848  1.3543 -0.5685
  594MOL0     C80062   6.794   3.853   9.753  0.5158 -0.1055  0.4694
  594MOL0     O80063   6.657   3.856   9.772  0.0585  0.2487  0.3825
  594MOL0     C80064   6.598   3.877   9.900 -0.6528  0.4765 -0.6773
  594MOL0     C80065   6.448   3.867   9.878  0.0730  0.2665 -0.5824
  594MOL0     C80066   6.403   3.724   9.856 -0.0500  0.1205  0.2942
  594MOL0     C80067   6.256   3.712   9.861  0.3907  0.9810  0.1345
  594MOL0     C80068   6.226   3.562   9.856  0.2592  0.1092  0.2946
  594MOL0     C80069   6.069   3.546   9.827  0.4243 -0.2931  0.2076
  594MOL0     C80070   6.024   3.404   9.830  0.2230 -0.2983  0.1503
  594MOL0     C80071   5.881   3.388   9.776  0.2055  0.6071 -0.1663
  594MOL0     N80072   5.782   3.474   9.843  0.4676 -0.5562 -0.1690
  594MOL0     C80073   5.714   3.568   9.770  0.0587  0.2511  0.1873
  594MOL0     C80074   5.630   3.629   9.856  0.8514  0.0217 -0.2140
  594MOL0     C80075   5.530   3.730   9.815  0.1541 -0.3075  0.3646
  594MOL0     C80076   5.442   3.712   9.694 -0.0796  0.5944  0.2859
  594MOL0     C80077   5.359   3.584   9.682 -0.7265 -0.3162  0.4546
  594MOL0     C80078   5.246   3.578   9.785 -0.5851 -0.0426 -0.3089
  594MOL0     O80079   5.143   3.668   9.732  0.0010 -0.0176  0.0822
  594MOL0     C80080   5.035   3.686   9.811 -0.1044 -1.0770  0.6563
  594MOL0     C80081   5.014   3.633   9.934 -0.9470 -0.3270 -0.2007
  594MOL0     C80082   4.888   3.640   9.996 -0.0738 -0.2348 -0.1243
  594MOL0     C80083   4.874   3.570  10.128  0.2299 -0.0457 -0.4053
  594MOL0     C80084   4.788   3.723   9.938 -0.3624  0.0946  0.1893
  594MOL0     C80085   4.659   3.749  10.002 -0.2573 -0.1807  0.0923
  594MOL0     O80086   4.590   3.639  10.060 -0.0540  0.0624  0.1237
  594MOL0     C80087   4.461   3.645  10.084  0.7903  0.1804 -0.3605
  594MOL0     C80088   4.360   3.707  10.013  0.9444 -0.0251 -0.2955
  594MOL0     C80089   4.223   3.685  10.060 -0.4666 -0.7633 -0.3096
  594MOL0     C80090   4.185   3.597  10.157 -0.6755 -0.7172 -1.2420
  594MOL0     O80091   4.050   3.581  10.162 -0.0366  0.0552 -0.3340
  594MOL0     C80092   3.988   3.575  10.293 -1.2649 -0.3010  0.0551
  594MOL0     C80093   3.841   3.591  10.267 -0.3850 -0.3287 -0.3331
  594MOL0     C80094   3.746   3.571  10.388  0.3475  0.1464  0.0798
  594MOL0     C80095   3.599   3.580  10.341 -0.6291  0.1729  0.2869
  594MOL0     C80096   3.507   3.595  10.449 -0.4845  0.0304 -0.2820
  594MOL0     C80097   3.362   3.623  10.387 -0.1994  0.2702 -0.7722
  594MOL0     C80098   3.262   3.586  10.499 -0.1757 -0.5003 -0.4037
  594MOL0     C80099   3.125   3.565  10.435  0.4581 -0.4519 -0.0506
  594MOL0    Cl80100   2.999   3.560  10.563  0.5779 -0.0505 -0.1289
  594MOL0     C80101   4.286   3.539  10.233 -0.4442 -0.1448  0.3815
  594MOL0     C80102   4.421   3.559  10.195 -0.1138 -0.5323 -0.3125
  594MOL0     O80103   4.614   3.861   9.972  0.3830 -0.4354 -1.3305
  594MOL0     C80104   4.817   3.787   9.819 -0.7021 -0.5432  0.0338
  594MOL0     C80105   4.937   3.763   9.750 -0.2376  0.0186 -0.1055
  594MOL0     N80106   5.634   3.551   9.972 -0.7409  0.4641 -0.1059
  594MOL0     N80107   5.719   3.456   9.963  0.0074  0.0929  0.0083
  594MOL0     C80108   6.831   3.793   9.640 -0.7161 -0.3630 -0.0691
  594MOL0     C80109   6.963   3.770   9.611  0.0584 -0.0455  0.3064
  594MOL0     C80110   7.419   3.879   9.622  0.1464 -0.0595  0.1106
  594MOL0     C80111   7.514   3.986   9.615  0.1885  0.3598  0.4950
  594MOL0     C80112   7.649   3.971   9.580 -1.4670  0.1190  0.4193
  594MOL0     C80113   7.693   3.838   9.552 -0.0243 -0.5485 -1.0422
  594MOL0     O80114   7.823   3.807   9.513 -0.4407 -0.4457  0.2062
  594MOL0     C80115   7.925   3.904   9.536 -0.0270 -0.3655  0.1602
  594MOL0     C80116   8.057   3.829   9.556 -0.0134  0.0199  0.4946
  594MOL0     C80117   8.095   3.774   9.419 -0.1143  0.2649 -0.3197
  594MOL0     C80118   8.241   3.737   9.392  0.1002  0.3782  0.8968
  594MOL0     C80119   8.245   3.677   9.259 -0.3767  0.2868  0.6019
  594MOL0     C80120   8.238   3.627   9.146 -0.2930 -0.2866 -0.1541
  594MOL0     C80121   7.599   3.733   9.562  0.2590  0.5130 -0.3183
  594MOL0     C80122   7.467   3.750   9.608  0.4281  0.2548 -0.2696
  594MOL0     H80123   7.096   3.938   9.869  2.4123 -1.8070 -1.7162
  594MOL0     H80124   6.855   3.935   9.940 -0.6413  0.0496 -0.4844
  594MOL0     H80125   6.626   3.793   9.965 -1.3295  0.0257 -0.9576
  594MOL0     H80126   6.625   3.972   9.945 -1.8248  0.3827  0.2587
  594MOL0     H80127   6.391   3.897   9.966 -0.9920 -1.1812 -0.7557
  594MOL0     H80128   6.424   3.931   9.793  2.3694  0.0342 -1.4972
  594MOL0     H80129   6.442   3.688   9.760  0.2196 -1.7110  1.0518
  594MOL0     H80130   6.436   3.652   9.930 -1.6350  1.4345  2.4024
  594MOL0     H80131   6.215   3.743   9.958 -0.3759 -0.4205  0.2856
  594MOL0     H80132   6.203   3.769   9.784  0.3839  0.0862 -0.5296
  594MOL0     H80133   6.288   3.507   9.784  2.8830  2.3573  0.6688
  594MOL0     H80134   6.240   3.520   9.956 -1.0809 -2.4477 -0.5032
  594MOL0     H80135   6.010   3.598   9.902 -1.2297 -0.9851 -0.5641
  594MOL0     H80136   6.041   3.586   9.729  4.2527 -0.3212 -1.0678
  594MOL0     H80137   6.094   3.342   9.773  0.5505  0.3417 -0.1497
  594MOL0     H80138   6.028   3.367   9.933  1.3146 -0.1536  0.1739
  594MOL0     H80139   5.846   3.287   9.799 -1.7605  0.6487 -2.5208
  594MOL0     H80140   5.871   3.404   9.668 -0.1509  0.1539 -0.2028
  594MOL0     H80141   5.732   3.569   9.663 -2.9050 -0.9570 -0.4242
  594MOL0     H80142   5.461   3.734   9.900  0.4863 -1.5796  0.7172
  594MOL0     H80143   5.579   3.828   9.811  3.1533 -1.5139  3.1465
  594MOL0     H80144   5.511   3.707   9.610 -1.1539 -0.0975 -0.5843
  594MOL0     H80145   5.374   3.797   9.682 -0.6640  0.8049  3.8676
  594MOL0     H80146   5.422   3.495   9.692 -1.3636 -0.7445  0.6938
  594MOL0     H80147   5.321   3.591   9.579  0.3541 -1.5665 -0.0533
  594MOL0     H80148   5.271   3.613   9.885 -0.3830  1.7440 -0.9489
  594MOL0     H80149   5.207   3.475   9.790  0.6700 -0.6346 -1.7489
  594MOL0     H80150   5.090   3.586   9.996 -0.5700 -2.1924 -1.9419
  594MOL0     H80151   4.966   3.550  10.184 -0.9078 -1.6762  1.0128
  594MOL0     H80152   4.805   3.627  10.190  2.1891 -0.9065  2.8140
  594MOL0     H80153   4.820   3.477  10.105 -1.9442  1.2838 -0.9356
  594MOL0     H80154   4.370   3.757   9.917 -4.3600  0.5996 -0.7959
  594MOL0     H80155   4.158   3.753  10.007  1.7424  2.0727  0.3704
  594MOL0     H80156   4.010   3.476  10.335  1.5411  0.5530  0.7929
  594MOL0     H80157   4.027   3.658  10.352 -0.7826  0.1081 -0.8156
  594MOL0     H80158   3.830   3.697  10.239  0.4368 -0.0262  0.4405
  594MOL0     H80159   3.812   3.520  10.189 -3.7056  0.4665  0.0449
  594MOL0     H80160   3.777   3.656  10.449  0.7223 -0.3410  0.5875
  594MOL0     H80161   3.771   3.478  10.440  1.2316  0.7018  0.6689
  594MOL0     H80162   3.585   3.655  10.263 -0.4902 -0.8895 -0.8059
  594MOL0     H80163   3.585   3.485  10.287 -1.8287  0.8087 -0.5574
  594MOL0     H80164   3.530   3.669  10.526 -0.8737  2.8460 -2.6748
  594MOL0     H80165   3.495   3.499  10.499 -2.3072  1.1029  1.4833
  594MOL0     H80166   3.339   3.728  10.364  0.1323  0.7159  0.8118
  594MOL0     H80167   3.355   3.551  10.305  1.3680 -0.3029 -0.4265
  594MOL0     H80168   3.245   3.666  10.572 -1.1464 -1.6000  0.6142
  594MOL0     H80169   3.281   3.491  10.551 -0.4416  0.0737  0.7641
  594MOL0     H80170   3.122   3.471  10.379 -0.5367 -1.1461  1.0986
  594MOL0     H80171   3.107   3.650  10.369  3.3785 -0.0941 -0.5433
  594MOL0     H80172   4.264   3.462  10.306  0.4699 -0.5091  0.2806
  594MOL0     H80173   4.499   3.501  10.244 -1.0617  0.4862  2.6532
  594MOL0     H80174   4.755   3.862   9.770 -0.2923  1.9162  3.0336
  594MOL0     H80175   4.963   3.814   9.658  1.3850 -1.1512 -0.3520
  594MOL0     H80176   6.757   3.762   9.567  0.5024 -0.5083 -1.2942
  594MOL0     H80177   6.993   3.726   9.517  2.5219  1.7017  0.1736
  594MOL0     H80178   7.490   4.092   9.625  3.2992  1.3651 -1.5195
  594MOL0     H80179   7.714   4.054   9.557  0.8229 -1.8714 -0.7332
  594MOL0     H80180   7.935   3.986   9.465  1.8606  1.4330  2.3274
  594MOL0     H80181   7.912   3.947   9.636 -0.4758 -0.4740  0.1517
  594MOL0     H80182   8.035   3.749   9.627  0.8922 -0.7289 -0.0261
  594MOL0     H80183   8.134   3.894   9.597  0.3570  1.3131 -2.0352
  594MOL0     H80184   8.068   3.849   9.344 -0.9936  1.1173  0.8100
  594MOL0     H80185   8.028   3.688   9.408  0.4549 -0.2915  0.4509
  594MOL0     H80186   8.274   3.654   9.456  0.3098 -1.7711 -1.8397
  594MOL0     H80187   8.303   3.827   9.377  0.0310 -0.0596 -2.9802
  594MOL0     H80188   8.221   3.602   9.043  3.2431 -0.7513 -0.7772
  594MOL0     H80189   7.647   3.637   9.544 -0.7570 -0.0057 -0.3190
  594MOL0     H80190   7.408   3.661   9.630  1.1614 -0.1554  0.0933
  595MOL0     O80191  10.645   1.256   6.958  0.1865  0.1344  0.2997
  595MOL0     C80192  10.598   1.161   6.895  0.8964 -0.2707  0.4438
  595MOL0     O80193  10.650   1.103   6.784 -0.2478 -0.4946 -0.3963
  595MOL0     C80194  10.783   1.134   6.766  0.4343  0.4649  0.5266
  595MOL0     C80195  10.872   1.029   6.762 -0.3424 -0.1339  1.1179
  595MOL0     C80196  10.998   1.045   6.702 -0.4836  0.0274 -0.3602
  595MOL0     C80197  11.040   1.170   6.654 -0.0397 -0.3440  0.0414
  595MOL0     O80198  11.169   1.180   6.604 -0.0311  0.0484  0.4131
  595MOL0     C80199  11.223   1.312   6.582 -0.0985  0.4946  0.4016
  595MOL0     C80200  11.356   1.295   6.523 -0.0400 -0.1710  0.8573
  595MOL0     C80201  11.411   1.423   6.457  0.5535 -0.2436  0.5158
  595MOL0     C80202  11.549   1.407   6.416  0.1888  0.2074  0.9672
  595MOL0     C80203  11.609   1.545   6.397  0.0803  0.4294 -0.1222
  595MOL0     C80204  11.759   1.546   6.378  0.1348 -0.0376 -0.2163
  595MOL0     C80205  11.815   1.678   6.410  0.3697  1.1895  0.9877
  595MOL0     C80206  11.962   1.706   6.359 -0.7650 -0.2715  0.2745
  595MOL0     N80207  12.067   1.617   6.414  0.4537  0.0871  0.0485
  595MOL0     C80208  12.087   1.481   6.380  0.1854  0.2160  0.5024
  595MOL0     C80209  12.153   1.425   6.479 -0.2887  0.0127  0.0983
  595MOL0     C80210  12.194   1.288   6.487 -0.5789 -0.2113 -0.2662
  595MOL0     C80211  12.100   1.196   6.567 -0.0766  0.4097  0.2184
  595MOL0     C80212  12.170   1.073   6.624 -0.2884 -0.3619 -0.5006
  595MOL0     C80213  12.074   0.996   6.717  0.3587  0.4975  0.3048
  595MOL0     O80214  11.991   0.914   6.628 -0.7543  0.4418 -0.3544
  595MOL0     C80215  11.876   0.868   6.681  0.6815 -0.3410 -0.3547
  595MOL0     C80216  11.880   0.747   6.751 -0.6002 -0.4013  0.2051
  595MOL0     C80217  11.769   0.690   6.800  0.1993  0.3833  0.1286
  595MOL0     C80218  11.794   0.562   6.876  0.2983 -0.3018 -0.3521
  595MOL0     C80219  11.641   0.754   6.781  0.3497  0.0970 -0.2822
  595MOL0     C80220  11.513   0.705   6.844  0.9098  0.4707  0.9489
  595MOL0     O80221  11.399   0.783   6.811 -0.1831  0.3232  0.5474
  595MOL0     C80222  11.287   0.757   6.869 -0.1213 -0.1841 -0.0811
  595MOL0     C80223  11.265   0.763   7.008  0.1948 -0.9292 -0.4945
  595MOL0     C80224  11.139   0.726   7.064 -0.4328 -0.7984 -0.5149
  595MOL0     C80225  11.047   0.665   6.985 -0.7127  0.9630  0.1838
  595MOL0     O80226  10.933   0.624   7.044  0.1015 -0.1007 -1.2085
  595MOL0     C80227  10.825   0.587   6.961  0.0634 -0.2114  0.0329
  595MOL0     C80228  10.710   0.543   7.058 -0.5554  0.6896 -0.0905
  595MOL0     C80229  10.645   0.656   7.141 -0.3061  0.0093 -0.7212
  595MOL0     C80230  10.549   0.600   7.254 -0.2581  0.0785 -0.3788
  595MOL0     C80231  10.430   0.519   7.194 -0.3574 -0.4209  0.7438
  595MOL0     C80232  10.334   0.467   7.300 -0.3229 -0.2399  0.6861
  595MOL0     C80233  10.262   0.573   7.387 -0.8627 -0.5722  0.2010
  595MOL0     C80234  10.137   0.527   7.457 -0.2724  0.8245 -0.5880
  595MOL0    Cl80235   9.983   0.528   7.358 -0.1434  0.2465  0.0122
  595MOL0     C80236  11.074   0.657   6.849  0.0970 -0.1431 -0.7149
  595MOL0     C80237  11.187   0.703   6.794  0.2836 -0.0091  0.4836
  595MOL0     O80238  11.517   0.611   6.927  1.0823 -0.7255  0.3427
  595MOL0     C80239  11.639   0.878   6.714 -0.4047 -0.2397 -0.9021
  595MOL0     C80240  11.754   0.933   6.668  0.6366  0.1604 -0.5944
  595MOL0     N80241  12.169   1.516   6.577 -0.3884 -0.0049 -0.3273
  595MOL0     N80242  12.138   1.639   6.530  0.3623 -0.4072 -0.2767
  595MOL0     C80243  10.946   1.283   6.668 -1.2559  1.2306 -0.0469
  595MOL0     C80244  10.821   1.265   6.724  0.0168 -0.1539  0.0661
  595MOL0     C80245  10.489   1.101   6.966 -0.3462 -0.2225 -0.6349
  595MOL0     C80246  10.423   0.997   6.911 -0.3550  0.2748  0.2588
  595MOL0     C80247  10.318   0.942   6.976 -0.0408  0.0115 -0.7578
  595MOL0     C80248  10.277   0.990   7.095  0.3914  0.1719 -0.4144
  595MOL0     O80249  10.167   0.922   7.148 -0.8599 -0.8470  0.3294
  595MOL0     C80250  10.107   0.984   7.266  0.3917 -0.7216 -0.4692
  595MOL0     C80251   9.981   0.902   7.295 -0.3257  0.5394  0.5413
  595MOL0     C80252   9.871   0.931   7.195 -0.0346 -0.0840 -0.1689
  595MOL0     C80253   9.774   0.816   7.198 -0.4501  0.4043 -0.1373
  595MOL0     C80254   9.656   0.848   7.123  0.2023 -0.3098  0.0654
  595MOL0     C80255   9.562   0.877   7.053  1.1947 -0.3740 -0.2171
  595MOL0     C80256  10.347   1.095   7.158  0.1532  0.4909 -0.2850
  595MOL0     C80257  10.457   1.144   7.098  0.2429 -0.3208 -0.7818
  595MOL0     H80258  10.829   0.933   6.791 -1.1776  0.0166  0.4035
  595MOL0     H80259  11.069   0.964   6.689 -0.1000  0.1237  0.9664
  595MOL0     H80260  11.162   1.359   6.504  0.6558  1.2158  0.2355
  595MOL0     H80261  11.220   1.369   6.675 -1.9182 -0.8520  1.2388
  595MOL0     H80262  11.431   1.252   6.590  0.3800 -1.6541 -0.4897
  595MOL0     H80263  11.344   1.223   6.441 -0.6660 -0.2004  0.9691
  595MOL0     H80264  11.343   1.456   6.377 -0.4840  1.5763  2.0532
  595MOL0     H80265  11.418   1.499   6.536 -2.4538 -0.1328  0.8021
  595MOL0     H80266  11.595   1.347   6.495 -3.0042 -2.4384  1.0077
  595MOL0     H80267  11.550   1.353   6.321 -1.3246  1.0171  0.4625
  595MOL0     H80268  11.570   1.596   6.309  2.9338  1.2473 -1.0416
  595MOL0     H80269  11.596   1.604   6.488  1.6682 -0.1718  0.5423
  595MOL0     H80270  11.785   1.464   6.447  0.3167 -1.1638 -1.5827
  595MOL0     H80271  11.784   1.520   6.275  1.9019 -2.9782  0.8209
  595MOL0     H80272  11.755   1.753   6.358 -0.2765 -1.0266 -1.6656
  595MOL0     H80273  11.820   1.692   6.519  3.9543 -1.0844  1.2833
  595MOL0     H80274  11.985   1.810   6.381 -0.7165  0.3942 -2.5389
  595MOL0     H80275  11.975   1.703   6.250  2.2279 -1.7402  0.5534
  595MOL0     H80276  12.058   1.428   6.290  1.3130 -0.6332  0.6151
  595MOL0     H80277  12.214   1.246   6.388  0.8868 -0.7152  0.2177
  595MOL0     H80278  12.291   1.298   6.536 -0.8699  1.2272  0.0775
  595MOL0     H80279  12.023   1.154   6.501 -0.9843  3.4673 -0.8062
  595MOL0     H80280  12.053   1.256   6.645 -1.5042  0.1813 -0.4454
  595MOL0     H80281  12.254   1.106   6.687  0.0091 -1.7479 -0.1492
  595MOL0     H80282  12.198   1.006   6.542 -0.3032 -1.2990  0.2573
  595MOL0     H80283  12.019   1.053   6.792 -1.5673 -0.9445  0.0918
  595MOL0     H80284  12.123   0.922   6.781 -0.6542 -0.0628  0.4464
  595MOL0     H80285  11.980   0.706   6.761  1.2836  2.7664 -3.0784
  595MOL0     H80286  11.797   0.575   6.985  0.3335  0.7501 -0.4699
  595MOL0     H80287  11.714   0.490   6.852 -0.9922  1.6221 -2.2236
  595MOL0     H80288  11.887   0.517   6.842  1.3290  1.6571 -0.2462
  595MOL0     H80289  11.347   0.806   7.064  0.6211 -0.6742 -1.2935
  595MOL0     H80290  11.110   0.759   7.164 -0.6624 -0.9541 -0.5298
  595MOL0     H80291  10.801   0.679   6.907  1.2616  0.2712  0.2856
  595MOL0     H80292  10.856   0.506   6.895 -0.1906 -0.7016  0.5040
  595MOL0     H80293  10.625   0.499   7.005 -2.0676  4.3733 -1.0559
  595MOL0     H80294  10.749   0.458   7.114 -0.6938 -0.0210 -1.0279
  595MOL0     H80295  10.589   0.724   7.076  1.0872  2.2278  0.2741
  595MOL0     H80296  10.729   0.706   7.190 -1.9750 -0.3109  2.7814
  595MOL0     H80297  10.610   0.548   7.328 -0.1041  0.2132 -0.4110
  595MOL0     H80298  10.503   0.681   7.310 -0.9402  0.4998 -1.5215
  595MOL0     H80299  10.465   0.434   7.134 -0.3521  0.1876 -0.1317
  595MOL0     H80300  10.385   0.587   7.122 -1.7185 -1.1805  0.8452
  595MOL0     H80301  10.254   0.405   7.259 -2.8352  0.8801  3.5251
  595MOL0     H80302  10.381   0.394   7.368  0.7521 -0.1693  0.0507
  595MOL0     H80303  10.222   0.646   7.316 -1.5835 -1.9821 -0.8909
  595MOL0     H80304  10.322   0.626   7.462 -0.2081  0.0224 -0.7282
  595MOL0     H80305  10.118   0.584   7.549  0.6386 -3.0513  2.2612
  595MOL0     H80306  10.150   0.423   7.488  1.2141  1.4424  1.0472
  595MOL0     H80307  11.008   0.600   6.784 -0.1507  0.1368 -0.7099
  595MOL0     H80308  11.201   0.690   6.687  0.4120  0.6898  0.4058
  595MOL0     H80309  11.552   0.942   6.699  0.5578  1.0255 -1.2502
  595MOL0     H80310  11.740   1.026   6.614  0.4789 -0.0166 -0.8668
  595MOL0     H80311  10.975   1.378   6.624  0.8136  0.9790  0.6452
  595MOL0     H80312  10.749   1.345   6.712  1.8546  1.3791 -1.5137
  595MOL0     H80313  10.449   0.955   6.815 -3.2368  0.4688 -0.6878
  595MOL0     H80314  10.276   0.851   6.933 -0.0842  0.3911 -1.5242
  595MOL0     H80315  10.174   0.969   7.352 -0.9041 -0.6338  0.5926
  595MOL0     H80316  10.087   1.090   7.251  1.1581 -0.5704 -0.4675
  595MOL0     H80317   9.942   0.921   7.395 -0.2024  2.0843  0.3122
  595MOL0     H80318  10.006   0.796   7.283  1.9679  1.1509 -0.4908
  595MOL0     H80319   9.905   0.958   7.095  1.0442 -2.7222 -0.5917
  595MOL0     H80320   9.810   1.012   7.235 -1.7148 -1.6741  0.6086
  595MOL0     H80321   9.752   0.799   7.303  0.9533 -1.0198 -0.0267
  595MOL0     H80322   9.827   0.734   7.148  2.4914  1.3122  1.2412
  595MOL0     H80323   9.486   0.898   6.980  0.4494 -0.4574  0.5212
  595MOL0     H80324  10.316   1.129   7.256 -0.8120  1.2550 -0.8437
  595MOL0     H80325  10.514   1.224   7.143 -0.6535  1.4871 -2.7131
  596MOL0     O80326   0.801   1.464   7.966 -0.6011 -0.3838 -0.2581
  596MOL0     C80327   0.753   1.518   8.061 -0.7144  0.5300 -0.1488
  596MOL0     O80328   0.619   1.518   8.088  0.8180 -0.2551  0.5090
  596MOL0     C80329   0.542   1.424   8.026  0.4886  0.0467  0.1519
  596MOL0     C80330   0.566   1.285   8.002  0.3812  0.2216 -0.1108
  596MOL0     C80331   0.466   1.194   7.964  0.5182 -0.5982 -0.7463
  596MOL0     C80332   0.334   1.238   7.947 -0.4595 -0.8450  0.3945
  596MOL0     O80333   0.245   1.147   7.893  0.0622  0.1708 -0.0252
  596MOL0     C80334   0.111   1.190   7.857  0.0831  0.7354  0.3168
  596MOL0     C80335   0.037   1.065   7.800 -0.2014  0.3911 -1.0239
  596MOL0     C80336   0.019   0.966   7.909 -1.3398  0.6780 -0.7951
  596MOL0     C80337  -0.034   0.835   7.858 -0.7264 -0.3576  0.7076
  596MOL0     C80338  -0.077   0.735   7.965 -0.1896  0.0324  0.2475
  596MOL0     C80339  -0.211   0.777   8.026 -0.1404 -0.2558  0.2030
  596MOL0     C80340  -0.271   0.669   8.115  0.0382  0.3713 -0.1319
  596MOL0     C80341  -0.341   0.738   8.236  0.4427  0.8508 -0.3274
  596MOL0     N80342  -0.383   0.632   8.332 -0.5780 -0.3548 -0.4696
  596MOL0     C80343  -0.514   0.613   8.378  0.1857 -0.4331  0.3536
  596MOL0     C80344  -0.514   0.494   8.448 -1.0315 -1.0244 -0.4752
  596MOL0     C80345  -0.632   0.439   8.532  0.5539 -0.8037  0.1210
  596MOL0     C80346  -0.765   0.452   8.458  0.0441  0.3816 -0.1367
  596MOL0     C80347  -0.758   0.388   8.313 -0.5273 -0.9376  0.2011
  596MOL0     C80348  -0.891   0.363   8.270 -0.3771 -0.8224 -0.2774
  596MOL0     O80349  -0.983   0.474   8.283  0.3601  0.1890  0.4727
  596MOL0     C80350  -1.114   0.444   8.250  0.1317 -0.5587  1.1891
  596MOL0     C80351  -1.204   0.548   8.231 -0.3490 -0.0231  0.0484
  596MOL0     C80352  -1.343   0.533   8.212  0.4100 -0.0172 -0.3656
  596MOL0     C80353  -1.420   0.662   8.188  0.3713  0.3459  0.9755
  596MOL0     C80354  -1.396   0.403   8.191 -0.2359  0.0736  0.2291
  596MOL0     C80355  -1.536   0.377   8.159 -0.9727  0.3888  0.6652
  596MOL0     O80356  -1.561   0.250   8.107  0.0489 -0.7064  0.2145
  596MOL0     C80357  -1.699   0.222   8.085  0.5029  0.5584  0.3055
  596MOL0     C80358  -1.793   0.213   8.188  0.0137 -0.1793 -0.8684
  596MOL0     C80359  -1.925   0.202   8.161 -0.0293  0.3155  1.0743
  596MOL0     C80360  -1.974   0.208   8.028  0.2646  0.3696  0.6338
  596MOL0     O80361  -2.102   0.195   7.988 -0.3425  0.6385 -0.2195
  596MOL0     C80362  -2.195   0.164   8.094  0.2414  0.4180  0.2190
  596MOL0     C80363  -2.329   0.136   8.026  0.0669 -0.0763  0.3161
  596MOL0     C80364  -2.353   0.179   7.878 -0.2439 -0.0065 -0.1124
  596MOL0     C80365  -2.365   0.334   7.878  0.0880  0.3361 -0.4920
  596MOL0     C80366  -2.348   0.392   7.737  0.0372  0.3464  0.5061
  596MOL0     C80367  -2.375   0.543   7.720  0.0256 -0.2419 -0.6010
  596MOL0     C80368  -2.332   0.609   7.584  0.6040 -0.0819 -1.1355
  596MOL0     C80369  -2.414   0.735   7.549 -0.0391 -0.0990 -0.2914
  596MOL0    Cl80370  -2.419   0.849   7.692  0.2335  0.1516  0.5407
  596MOL0     C80371  -1.888   0.208   7.919 -0.2204  0.7244 -0.0801
  596MOL0     C80372  -1.749   0.217   7.945 -0.1839 -0.1957  0.4781
  596MOL0     O80373  -1.623   0.451   8.192 -0.2699 -0.2933 -0.5134
  596MOL0     C80374  -1.310   0.292   8.209 -0.1614 -0.4470  0.5797
  596MOL0     C80375  -1.171   0.318   8.231 -0.2115  1.0990 -0.1306
  596MOL0     N80376  -0.388   0.437   8.442 -0.1808 -0.4486  0.5796
  596MOL0     N80377  -0.317   0.515   8.369  0.6648 -0.6667  0.9830
  596MOL0     C80378   0.309   1.374   7.964  0.2467 -0.4035 -0.3438
  596MOL0     C80379   0.407   1.465   8.006  0.3000  0.5338  0.2336
  596MOL0     C80380   0.842   1.602   8.147 -0.7694  0.2723  0.0652
  596MOL0     C80381   0.807   1.633   8.287 -0.4821  0.8152  0.3031
  596MOL0     C80382   0.903   1.673   8.373  0.2529  0.7095 -0.2748
  596MOL0     C80383   1.032   1.695   8.331  0.1200 -0.3850 -0.1021
  596MOL0     O80384   1.118   1.728   8.429  0.0085  0.0693 -0.2420
  596MOL0     C80385   1.237   1.801   8.388  0.6755 -0.0379 -0.9394
  596MOL0     C80386   1.326   1.831   8.512 -0.0704 -0.1913  0.4073
  596MOL0     C80387   1.334   1.726   8.632  0.6070  0.1524  0.3183
  596MOL0     C80388   1.459   1.736   8.725 -0.0322  0.2269 -0.4509
  596MOL0     C80389   1.578   1.697   8.642  0.4122  0.6941  0.0767
  596MOL0     C80390   1.687   1.695   8.582  0.0798  0.4166  0.3334
  596MOL0     C80391   1.065   1.687   8.189 -0.4628 -0.7892  0.0243
  596MOL0     C80392   0.972   1.623   8.104 -0.7622 -1.4283 -0.2022
  596MOL0     H80393   0.666   1.244   8.013 -0.7152 -2.4154  1.0079
  596MOL0     H80394   0.485   1.089   7.945  1.3879 -1.2958  3.1843
  596MOL0     H80395   0.048   1.236   7.933 -0.9757  0.0057 -0.0967
  596MOL0     H80396   0.119   1.256   7.770 -0.3194 -0.5048 -0.6823
  596MOL0     H80397  -0.058   1.089   7.751  1.9122 -0.2916 -5.9477
  596MOL0     H80398   0.096   1.011   7.725  1.8029  0.1716  0.6204
  596MOL0     H80399   0.116   0.952   7.957 -1.6324  0.9816 -0.0962
  596MOL0     H80400  -0.043   1.009   7.989 -0.1106 -1.4918  1.4691
  596MOL0     H80401  -0.109   0.856   7.781 -0.6263 -0.4537  0.5825
  596MOL0     H80402   0.052   0.790   7.807  0.1569  1.3669  0.5810
  596MOL0     H80403  -0.094   0.637   7.920 -1.0027  0.6169 -0.7477
  596MOL0     H80404   0.001   0.732   8.042  2.7908  3.7716 -2.2123
  596MOL0     H80405  -0.199   0.870   8.083  1.2755  0.7857 -1.6478
  596MOL0     H80406  -0.274   0.806   7.941  5.7263  4.1249 -3.4700
  596MOL0     H80407  -0.341   0.607   8.058  0.1358  0.0722  0.0683
  596MOL0     H80408  -0.200   0.596   8.155  0.3890  0.8162  0.0706
  596MOL0     H80409  -0.422   0.793   8.187 -0.7588  0.9886  1.7272
  596MOL0     H80410  -0.268   0.805   8.282  1.0810  0.0135 -0.0989
  596MOL0     H80411  -0.600   0.678   8.366 -0.1355 -1.0392 -0.7555
  596MOL0     H80412  -0.605   0.336   8.552  1.0640 -1.4557 -3.2996
  596MOL0     H80413  -0.634   0.488   8.630  3.6150 -1.9100  0.8221
  596MOL0     H80414  -0.792   0.556   8.439  0.3666  0.6791  0.9901
  596MOL0     H80415  -0.841   0.403   8.519  2.2542 -1.2419  1.4873
  596MOL0     H80416  -0.706   0.291   8.304 -2.7121 -2.0464 -1.4658
  596MOL0     H80417  -0.713   0.459   8.243 -0.4981 -1.6716 -0.5539
  596MOL0     H80418  -0.924   0.274   8.325 -1.3897 -0.5375 -0.4057
  596MOL0     H80419  -0.889   0.326   8.167  2.0250 -1.0924 -0.2053
  596MOL0     H80420  -1.168   0.650   8.227 -0.9114  0.2547  1.4885
  596MOL0     H80421  -1.354   0.735   8.141  5.3563 -3.2573  1.6442
  596MOL0     H80422  -1.513   0.643   8.133  0.8827  0.7601 -0.0447
  596MOL0     H80423  -1.457   0.696   8.285 -0.7247 -0.5328  0.8921
  596MOL0     H80424  -1.747   0.209   8.286 -0.2066  0.1796 -0.7468
  596MOL0     H80425  -1.976   0.183   8.255 -0.2667 -0.3787  0.8144
  596MOL0     H80426  -2.177   0.077   8.158 -1.1357 -1.4622 -1.8018
  596MOL0     H80427  -2.194   0.253   8.158  0.8642 -0.7405  1.8890
  596MOL0     H80428  -2.347   0.028   8.024  1.6203 -0.3650 -2.2144
  596MOL0     H80429  -2.407   0.174   8.093  1.4151  1.8642  0.8651
  596MOL0     H80430  -2.445   0.130   7.846 -0.8351  1.1060 -0.1971
  596MOL0     H80431  -2.273   0.145   7.812 -1.2132  0.9546 -1.8526
  596MOL0     H80432  -2.459   0.359   7.929  0.9489  1.0075  0.8133
  596MOL0     H80433  -2.301   0.381   7.953 -0.4386 -0.4546  0.4658
  596MOL0     H80434  -2.428   0.340   7.682  0.9846  1.7339 -2.4214
  596MOL0     H80435  -2.256   0.371   7.682 -2.0948 -0.9279 -2.9920
  596MOL0     H80436  -2.483   0.557   7.715  0.2078  1.1051 -1.1145
  596MOL0     H80437  -2.339   0.609   7.800  0.1618 -2.5759  1.3908
  596MOL0     H80438  -2.334   0.527   7.512 -0.0885 -1.0581 -0.0321
  596MOL0     H80439  -2.227   0.641   7.586  0.2411  1.1431 -0.0887
  596MOL0     H80440  -2.511   0.710   7.504  0.3999 -1.1255 -0.7016
  596MOL0     H80441  -2.361   0.789   7.470  1.0087 -1.9958 -0.9339
  596MOL0     H80442  -1.931   0.207   7.820 -0.4556  1.4421  0.0033
  596MOL0     H80443  -1.677   0.226   7.865 -0.9999  1.5448 -0.1176
  596MOL0     H80444  -1.333   0.188   8.188 -1.8165  0.5271 -3.5091
  596MOL0     H80445  -1.116   0.225   8.237 -3.5415 -1.0347 -0.4796
  596MOL0     H80446   0.213   1.422   7.950 -0.4361 -1.8434 -0.7351
  596MOL0     H80447   0.368   1.564   8.025 -1.4266  0.5055 -2.6022
  596MOL0     H80448   0.709   1.626   8.333 -1.6119  0.8117 -1.9666
  596MOL0     H80449   0.878   1.676   8.478 -0.0676  1.3417 -0.3629
  596MOL0     H80450   1.293   1.744   8.313 -0.5026 -1.1673 -1.0052
  596MOL0     H80451   1.215   1.899   8.346  0.4608  1.1583  1.7626
  596MOL0     H80452   1.279   1.919   8.557 -2.6117 -0.1833 -1.9297
  596MOL0     H80453   1.426   1.861   8.479 -0.4389  0.1784 -0.3976
  596MOL0     H80454   1.336   1.621   8.599  2.3774  0.2063  0.1626
  596MOL0     H80455   1.237   1.739   8.681  0.9402  2.5993  0.4412
  596MOL0     H80456   1.447   1.659   8.802 -0.3083  1.0010  0.2986
  596MOL0     H80457   1.474   1.836   8.767  2.4852 -0.5327  0.6549
  596MOL0     H80458   1.781   1.700   8.531  0.7531 -0.4147  1.4401
  596MOL0     H80459   1.169   1.697   8.161 -0.8832 -0.2417 -1.4199
  596MOL0     H80460   1.001   1.598   8.003  2.2750 -0.0099  0.2099
  597MOL0     O80461   3.743   1.901   7.260 -0.3653  0.2991  0.2840
  597MOL0     C80462   3.650   1.915   7.185  0.1466  0.2551  0.7476
  597MOL0     O80463   3.578   1.819   7.119 -0.2237 -0.1818 -0.8949
  597MOL0     C80464   3.585   1.693   7.176 -0.7609  0.3290  0.0670
  597MOL0     C80465   3.491   1.665   7.278 -0.6644 -0.5596 -0.1820
  597MOL0     C80466   3.504   1.542   7.338 -0.1422  0.4066  0.5872
  597MOL0     C80467   3.594   1.445   7.289 -0.4156 -0.1013 -0.3851
  597MOL0     O80468   3.602   1.332   7.365 -0.4129  0.4996  0.0287
  597MOL0     C80469   3.695   1.228   7.331  0.0406  1.4164 -0.2639
  597MOL0     C80470   3.680   1.114   7.438  0.3313  0.3631 -0.9624
  597MOL0     C80471   3.542   1.065   7.466  0.1956 -0.8250  0.5282
  597MOL0     C80472   3.467   1.027   7.337 -0.0638  0.0050 -0.6928
  597MOL0     C80473   3.328   0.974   7.361 -0.5340 -0.0667 -0.1431
  597MOL0     C80474   3.230   1.072   7.421 -0.6303  0.1706  0.7399
  597MOL0     C80475   3.085   1.030   7.390 -0.3040 -0.3827  1.0466
  597MOL0     C80476   3.045   0.896   7.457  0.3572  0.7592  0.5726
  597MOL0     N80477   2.898   0.887   7.436  0.4411  0.0640  0.2603
  597MOL0     C80478   2.844   0.830   7.329  0.1831 -0.0990  0.1735
  597MOL0     C80479   2.708   0.853   7.346  0.1363  0.2842  0.1679
  597MOL0     C80480   2.606   0.802   7.249 -0.3540 -0.2465 -0.0847
  597MOL0     C80481   2.593   0.649   7.245 -0.7927 -0.3646  0.0528
  597MOL0     C80482   2.463   0.598   7.170  0.7035  0.2730  0.8526
  597MOL0     C80483   2.329   0.595   7.239 -1.2546  0.4723 -0.4014
  597MOL0     O80484   2.256   0.506   7.157  0.3270  0.0958  0.2904
  597MOL0     C80485   2.122   0.504   7.191 -0.1152 -0.9363 -0.0680
  597MOL0     C80486   2.023   0.559   7.101 -0.1126 -0.1922  0.1530
  597MOL0     C80487   1.891   0.571   7.132  0.0447  0.5735 -0.2491
  597MOL0     C80488   1.806   0.631   7.024  0.5059  0.3709  0.4341
  597MOL0     C80489   1.845   0.530   7.258  0.1216  0.3402  1.1712
  597MOL0     C80490   1.701   0.523   7.306  0.5293 -0.2318  0.0591
  597MOL0     O80491   1.671   0.419   7.394  0.0472 -0.1324 -0.8065
  597MOL0     C80492   1.542   0.405   7.455 -1.0989  0.9119  0.2649
  597MOL0     C80493   1.528   0.377   7.589  0.0655  1.1586 -0.3658
  597MOL0     C80494   1.407   0.324   7.636  0.2337 -0.1371  0.3385
  597MOL0     C80495   1.289   0.325   7.556  0.3084  0.5398  0.0858
  597MOL0     O80496   1.164   0.283   7.597  0.5221 -0.8309 -0.2082
  597MOL0     C80497   1.146   0.236   7.729 -0.1586  0.3748 -0.3662
  597MOL0     C80498   1.118   0.354   7.812 -0.0989 -0.4414  0.0539
  597MOL0     C80499   0.998   0.440   7.780  0.1511  0.2290  0.4796
  597MOL0     C80500   0.871   0.373   7.827 -0.6075 -1.3619  0.1358
  597MOL0     C80501   0.749   0.452   7.779  0.3744 -0.1299 -0.2034
  597MOL0     C80502   0.614   0.406   7.843 -0.6376 -0.9058  0.8459
  597MOL0     C80503   0.566   0.262   7.816 -0.5175  0.4809  0.5962
  597MOL0     C80504   0.548   0.233   7.666  0.0829  0.2864 -0.0645
  597MOL0    Cl80505   0.521   0.060   7.638  0.1859 -0.1683 -0.2431
  597MOL0     C80506   1.305   0.350   7.416  0.0888 -0.9670 -0.0076
  597MOL0     C80507   1.431   0.392   7.372 -0.2245  0.4782 -0.5298
  597MOL0     O80508   1.628   0.616   7.282  0.5431  0.0283  0.3997
  597MOL0     C80509   1.942   0.451   7.338  0.5395  0.2571  0.4476
  597MOL0     C80510   2.077   0.448   7.306 -0.5072  0.9959  0.0906
  597MOL0     N80511   2.690   0.895   7.473  1.0702  0.4327  0.3018
  597MOL0     N80512   2.806   0.925   7.524  0.3503  0.6933 -0.3227
  597MOL0     C80513   3.678   1.473   7.178 -0.6329 -0.2062 -0.6020
  597MOL0     C80514   3.666   1.595   7.110  0.1760 -0.3726 -0.7363
  597MOL0     C80515   3.610   2.054   7.158 -0.2522  0.1194 -0.1229
  597MOL0     C80516   3.500   2.081   7.071  0.1681 -0.9624  0.7814
  597MOL0     C80517   3.466   2.210   7.049 -0.5484  0.0594  1.0368
  597MOL0     C80518   3.545   2.318   7.101  0.5112  0.0604 -0.5096
  597MOL0     O80519   3.498   2.451   7.104 -0.2389  0.6899 -0.2614
  597MOL0     C80520   3.413   2.494   6.998  0.2300 -0.0243 -0.0743
  597MOL0     C80521   3.434   2.640   6.993  0.0769 -0.0482  0.7503
  597MOL0     C80522   3.327   2.717   6.909  0.1977  0.2192 -0.0239
  597MOL0     C80523   3.317   2.669   6.765 -0.3259  0.6537  0.1649
  597MOL0     C80524   3.206   2.570   6.739 -0.5239 -0.5418  0.5227
  597MOL0     C80525   3.114   2.494   6.726  0.1791  0.3850 -0.2393
  597MOL0     C80526   3.658   2.293   7.185  0.1894 -0.3104  0.2905
  597MOL0     C80527   3.683   2.158   7.220  0.2305 -0.1108  0.4934
  597MOL0     H80528   3.416   1.736   7.312 -1.4135 -2.5273  2.7028
  597MOL0     H80529   3.435   1.507   7.414 -0.1523 -1.0258 -0.0371
  597MOL0     H80530   3.668   1.188   7.232  1.5104  1.1278 -0.5762
  597MOL0     H80531   3.800   1.259   7.324 -0.3627  2.9982  0.2107
  597MOL0     H80532   3.730   1.031   7.387  0.6818 -0.4630  0.6749
  597MOL0     H80533   3.734   1.142   7.529  0.3869  0.3366 -0.9871
  597MOL0     H80534   3.553   0.976   7.529  1.4232  0.0911  1.6259
  597MOL0     H80535   3.503   1.150   7.521  1.0755  0.2596 -0.4703
  597MOL0     H80536   3.464   1.109   7.265  3.3837  0.3149 -0.6389
  597MOL0     H80537   3.521   0.944   7.290 -1.3600 -1.9213  1.0403
  597MOL0     H80538   3.293   0.941   7.263  0.2406 -1.2301 -0.0385
  597MOL0     H80539   3.331   0.895   7.436 -0.0194  3.3187  3.7953
  597MOL0     H80540   3.248   1.081   7.528 -2.9380 -1.2571  1.3094
  597MOL0     H80541   3.246   1.170   7.374 -0.6624  0.4502  1.3152
  597MOL0     H80542   3.015   1.109   7.419 -0.1495  0.1827 -0.0645
  597MOL0     H80543   3.075   1.028   7.281  0.7398 -1.0600  0.9444
  597MOL0     H80544   3.089   0.897   7.557 -0.0805 -0.8941  0.8067
  597MOL0     H80545   3.085   0.814   7.398 -2.5203  0.2018 -0.7812
  597MOL0     H80546   2.892   0.773   7.251 -2.6884 -1.8460 -0.4650
  597MOL0     H80547   2.512   0.850   7.277 -0.9624 -0.7352 -1.2323
  597MOL0     H80548   2.644   0.843   7.155 -0.4807  1.4913  0.5804
  597MOL0     H80549   2.600   0.598   7.341  1.3257  1.1239  0.7392
  597MOL0     H80550   2.682   0.626   7.185 -2.1390  1.0868 -2.7183
  597MOL0     H80551   2.486   0.496   7.135 -1.0460  0.4393 -0.9545
  597MOL0     H80552   2.452   0.660   7.081 -0.7179  0.8087  1.3721
  597MOL0     H80553   2.294   0.698   7.232  0.3641  0.9481 -2.3386
  597MOL0     H80554   2.336   0.568   7.345 -1.6585 -1.9066 -0.9200
  597MOL0     H80555   2.051   0.598   7.003  0.5457  0.4518  0.5779
  597MOL0     H80556   1.725   0.557   7.021  1.9642 -1.2614 -0.6887
  597MOL0     H80557   1.767   0.726   7.060 -1.2900 -0.0791 -0.2306
  597MOL0     H80558   1.854   0.629   6.925  2.1304 -2.2074  1.1738
  597MOL0     H80559   1.619   0.370   7.647 -0.4037 -2.2801  0.1464
  597MOL0     H80560   1.405   0.288   7.739  2.6946 -2.4137 -0.2808
  597MOL0     H80561   1.059   0.170   7.729  0.3103 -0.2631  0.9343
  597MOL0     H80562   1.223   0.166   7.764 -1.8564 -2.0258 -1.1625
  597MOL0     H80563   1.119   0.322   7.916 -0.0475 -4.3316 -0.9917
  597MOL0     H80564   1.205   0.421   7.805 -0.6165  0.2480  0.1282
  597MOL0     H80565   1.000   0.468   7.674 -1.0961 -0.6106  0.2048
  597MOL0     H80566   1.011   0.537   7.828  2.2201  0.3698 -0.2713
  597MOL0     H80567   0.861   0.276   7.776 -0.9107 -0.0581 -2.4392
  597MOL0     H80568   0.868   0.357   7.935 -1.3987  1.6741  0.6458
  597MOL0     H80569   0.753   0.434   7.671  1.6530 -0.9478 -0.0368
  597MOL0     H80570   0.756   0.560   7.790  0.0894 -0.1233 -0.0829
  597MOL0     H80571   0.633   0.425   7.949  0.4703  0.7318  0.3963
  597MOL0     H80572   0.537   0.471   7.801 -0.1591 -0.4736  0.6274
  597MOL0     H80573   0.469   0.242   7.862 -0.0224 -1.6609  0.8302
  597MOL0     H80574   0.646   0.198   7.854  0.8641  0.9753 -1.3046
  597MOL0     H80575   0.622   0.269   7.594 -0.8728  0.9862 -0.7288
  597MOL0     H80576   0.462   0.293   7.633  1.2074  1.9017 -0.1864
  597MOL0     H80577   1.226   0.336   7.343  1.7334  0.5274 -2.2000
  597MOL0     H80578   1.439   0.409   7.265 -0.7122 -1.6422 -0.9603
  597MOL0     H80579   1.904   0.399   7.425 -0.5892  0.6762  0.2306
  597MOL0     H80580   2.144   0.398   7.376 -1.4990  0.2369  0.5162
  597MOL0     H80581   3.747   1.403   7.132 -1.0382  0.0855 -1.6659
  597MOL0     H80582   3.727   1.619   7.023 -0.4538 -3.4964 -2.1601
  597MOL0     H80583   3.418   2.021   7.033 -1.2690  0.4677  1.5141
  597MOL0     H80584   3.379   2.241   6.992 -0.0602  2.5394  1.4909
  597MOL0     H80585   3.443   2.452   6.902  1.4796  1.8383 -0.5577
  597MOL0     H80586   3.309   2.475   7.028  0.0381 -0.6353 -1.0873
  597MOL0     H80587   3.536   2.656   6.957  0.3769 -0.9328  1.1777
  597MOL0     H80588   3.438   2.680   7.094  1.4227 -0.1574  0.7551
  597MOL0     H80589   3.366   2.819   6.895 -0.8899  0.8849  1.5597
  597MOL0     H80590   3.232   2.726   6.961  0.1767 -2.9011  0.6347
  597MOL0     H80591   3.408   2.618   6.734 -1.0891 -0.6530  0.0222
  597MOL0     H80592   3.305   2.753   6.695  2.2133 -0.3807 -1.6895
  597MOL0     H80593   3.037   2.420   6.719  0.8345 -0.5117  1.4443
  597MOL0     H80594   3.712   2.377   7.227  0.2779  0.8198 -1.9713
  597MOL0     H80595   3.757   2.128   7.293 -0.2649 -1.7981  0.3474
  598MOL0     O80596   3.439   8.777   8.520  0.0393  0.2213  0.3492
  598MOL0     C80597   3.459   8.732   8.407  0.6432 -1.0629 -0.2877
  598MOL0     O80598   3.381   8.658   8.332 -0.1755  0.3981 -0.0937
  598MOL0     C80599   3.254   8.627   8.375  0.3247  0.1577 -0.1460
  598MOL0     C80600   3.156   8.652   8.281 -0.0692  0.6135 -0.3032
  598MOL0     C80601   3.018   8.627   8.305 -0.4893  0.6524 -0.0544
  598MOL0     C80602   2.979   8.573   8.430  1.4841  0.8531 -0.2337
  598MOL0     O80603   2.844   8.530   8.466 -0.6137 -0.5286 -0.0354
  598MOL0     C80604   2.752   8.518   8.357  0.7427 -0.6678  0.1545
  598MOL0     C80605   2.612   8.484   8.403  0.4976 -0.0676 -0.1921
  598MOL0     C80606   2.503   8.517   8.299  0.6002  1.3682 -0.0824
  598MOL0     C80607   2.381   8.420   8.309  0.0878  0.3452  0.1517
  598MOL0     C80608   2.277   8.449   8.427 -0.9494  0.3474  1.0638
  598MOL0     C80609   2.188   8.325   8.435  0.8384  0.1291  0.7158
  598MOL0     C80610   2.075   8.326   8.326  0.1632  0.6300  0.0945
  598MOL0     C80611   1.992   8.193   8.312  1.0875  0.6312 -0.6649
  598MOL0     N80612   2.075   8.076   8.275 -0.3639  0.0561 -0.0401
  598MOL0     C80613   2.101   7.970   8.356 -0.7941 -0.7340  0.6861
  598MOL0     C80614   2.134   7.874   8.273  0.0684  0.0083 -0.1144
  598MOL0     C80615   2.181   7.735   8.311 -0.8005 -0.0479  0.0461
  598MOL0     C80616   2.062   7.641   8.320 -0.2371 -0.1521  0.0908
  598MOL0     C80617   2.004   7.601   8.182 -0.6094 -0.1281 -0.3145
  598MOL0     C80618   1.876   7.522   8.194 -0.7071  0.5153 -0.2991
  598MOL0     O80619   1.828   7.509   8.060 -0.0944  0.0616 -0.2379
  598MOL0     C80620   1.735   7.414   8.042  0.3986  0.7939  0.4966
  598MOL0     C80621   1.653   7.347   8.136 -0.1298  0.3110 -0.1151
  598MOL0     C80622   1.551   7.261   8.095  0.1691  0.3619  0.4766
  598MOL0     C80623   1.502   7.170   8.207  0.5851  0.1782 -0.3479
  598MOL0     C80624   1.531   7.242   7.956  0.4963  0.3193  0.1818
  598MOL0     C80625   1.425   7.154   7.901  0.3309  1.2032 -0.8993
  598MOL0     O80626   1.330   7.111   8.000 -0.2664 -0.4972  0.6248
  598MOL0     C80627   1.205   7.080   7.946 -0.6789  0.3908 -0.6773
  598MOL0     C80628   1.151   7.128   7.826  0.2127 -0.1932  0.1648
  598MOL0     C80629   1.025   7.090   7.781  0.2934 -0.6213 -0.0664
  598MOL0     C80630   0.949   6.992   7.855 -0.4313  0.0255  0.8961
  598MOL0     O80631   0.820   6.967   7.804  0.2637  0.5764 -0.7504
  598MOL0     C80632   0.710   6.921   7.891 -0.8225  0.3423 -0.3218
  598MOL0     C80633   0.585   6.899   7.805  0.2616  0.7250 -0.6407
  598MOL0     C80634   0.526   7.040   7.765  0.5232  0.2357  0.1138
  598MOL0     C80635   0.394   7.017   7.684  0.1424 -0.4476 -0.5251
  598MOL0     C80636   0.283   7.107   7.720  0.0559  0.5543  0.5585
  598MOL0     C80637   0.156   7.093   7.633 -1.0442 -0.0043 -0.0072
  598MOL0     C80638   0.047   7.178   7.700 -0.2290 -0.5451 -0.1835
  598MOL0     C80639  -0.072   7.176   7.605 -0.2776  0.4661  0.0845
  598MOL0    Cl80640  -0.190   7.293   7.636 -0.3289 -0.0034 -0.3355
  598MOL0     C80641   1.003   6.938   7.974 -0.2719 -0.2637 -1.0215
  598MOL0     C80642   1.133   6.977   8.017  0.0045 -0.0051  0.0187
  598MOL0     O80643   1.430   7.119   7.785  0.2029 -0.1151  0.3071
  598MOL0     C80644   1.607   7.320   7.864 -1.1663 -0.5954  0.1023
  598MOL0     C80645   1.710   7.402   7.903  0.0794 -0.2500  0.3001
  598MOL0     N80646   2.107   7.914   8.143  0.5985  0.1339  0.4012
  598MOL0     N80647   2.073   8.036   8.146 -0.9401  0.5157 -0.5147
  598MOL0     C80648   3.074   8.543   8.528 -0.3367  0.0014 -1.1510
  598MOL0     C80649   3.214   8.581   8.506  0.4976  0.5393 -0.5511
  598MOL0     C80650   3.588   8.767   8.347 -0.3123 -0.4424 -0.0351
  598MOL0     C80651   3.688   8.827   8.424  0.3786  0.3420  0.0108
  598MOL0     C80652   3.816   8.856   8.363  0.2300 -0.4944  0.5499
  598MOL0     C80653   3.838   8.826   8.227 -0.1795  0.3506 -0.2829
  598MOL0     O80654   3.952   8.847   8.155 -0.3512 -0.3667 -0.5845
  598MOL0     C80655   4.071   8.896   8.212 -0.7028 -0.1674  0.1766
  598MOL0     C80656   4.153   8.801   8.303  0.2208 -0.6535 -0.1698
  598MOL0     C80657   4.281   8.867   8.362  0.4092 -0.2212  0.7940
  598MOL0     C80658   4.391   8.771   8.415 -0.0580 -0.0277 -0.4348
  598MOL0     C80659   4.504   8.852   8.474 -0.2961  1.2076 -0.1876
  598MOL0     C80660   4.578   8.923   8.534  0.4619 -0.4365  0.0948
  598MOL0     C80661   3.742   8.750   8.164  0.1320  0.8522 -0.0929
  598MOL0     C80662   3.622   8.722   8.222 -0.3129  0.5529  0.2607
  598MOL0     H80663   3.197   8.692   8.188 -1.6844  2.9949 -0.0756
  598MOL0     H80664   2.948   8.653   8.226 -1.2959  0.2307  0.5100
  598MOL0     H80665   2.744   8.618   8.313  0.0688 -1.0510 -0.6115
  598MOL0     H80666   2.782   8.447   8.280 -2.3114 -1.1901 -0.6644
  598MOL0     H80667   2.604   8.375   8.413  1.4589  0.0528  2.8832
  598MOL0     H80668   2.581   8.536   8.494  1.5460  1.0988 -0.4822
  598MOL0     H80669   2.478   8.623   8.311 -0.4383  1.4124 -2.1964
  598MOL0     H80670   2.546   8.495   8.201 -1.0723 -1.0059 -0.3590
  598MOL0     H80671   2.324   8.420   8.215  0.6737 -0.8372 -0.2204
  598MOL0     H80672   2.422   8.321   8.330  2.4969  1.6592  2.3550
  598MOL0     H80673   2.347   8.452   8.511  2.1761 -1.6488 -1.2164
  598MOL0     H80674   2.212   8.536   8.418 -4.6944 -2.4072 -1.2205
  598MOL0     H80675   2.244   8.234   8.409 -0.7338 -0.6901  0.0767
  598MOL0     H80676   2.147   8.320   8.536  1.6193  0.1083  1.0402
  598MOL0     H80677   2.000   8.403   8.344 -1.7308  0.0148 -4.0520
  598MOL0     H80678   2.115   8.349   8.227  0.4834 -1.6646 -0.3522
  598MOL0     H80679   1.907   8.204   8.245  0.2267 -0.3537  0.2245
  598MOL0     H80680   1.939   8.181   8.407 -0.4761  0.3133 -1.5404
  598MOL0     H80681   2.107   7.969   8.464 -1.2840  0.4224  0.7474
  598MOL0     H80682   2.261   7.694   8.248 -1.1972  1.1668 -1.3006
  598MOL0     H80683   2.220   7.748   8.413 -1.9267 -1.7273  0.7456
  598MOL0     H80684   1.983   7.696   8.371 -1.2594 -0.4913 -1.0840
  598MOL0     H80685   2.095   7.551   8.372 -0.7440  0.0883  0.8437
  598MOL0     H80686   2.081   7.538   8.136  0.8261 -0.1646  1.9820
  598MOL0     H80687   1.985   7.692   8.125 -1.9095 -0.9881 -1.3243
  598MOL0     H80688   1.804   7.565   8.264  0.8725  0.0204  1.7419
  598MOL0     H80689   1.904   7.430   8.245  0.5268  1.8974  1.6818
  598MOL0     H80690   1.693   7.363   8.236  0.8838 -0.3130 -0.4029
  598MOL0     H80691   1.490   7.064   8.180  0.7545  0.7882 -3.1872
  598MOL0     H80692   1.568   7.172   8.294 -1.7831  0.0660  1.5736
  598MOL0     H80693   1.404   7.211   8.235 -0.4499 -1.7957 -0.8851
  598MOL0     H80694   1.206   7.195   7.761  0.7037  1.6997  2.4293
  598MOL0     H80695   0.980   7.126   7.689 -1.4644 -2.3519  0.0674
  598MOL0     H80696   0.721   6.826   7.944 -2.2995  0.9084  1.0825
  598MOL0     H80697   0.693   6.993   7.971 -1.0518 -1.9846  1.8640
  598MOL0     H80698   0.623   6.839   7.721  4.7336  0.5941  1.1745
  598MOL0     H80699   0.518   6.838   7.866 -0.0789  0.9689 -0.7674
  598MOL0     H80700   0.595   7.101   7.705 -2.2261  1.0606 -2.4255
  598MOL0     H80701   0.505   7.094   7.858  2.0404  1.1194 -0.0222
  598MOL0     H80702   0.417   7.029   7.577 -0.2455  0.8755 -0.4706
  598MOL0     H80703   0.372   6.910   7.697  4.1066 -2.1257 -4.6575
  598MOL0     H80704   0.314   7.212   7.717  1.1994  0.2336  0.7494
  598MOL0     H80705   0.250   7.079   7.821  0.4587 -0.0218  0.5338
  598MOL0     H80706   0.183   7.136   7.536  1.5560  2.6609  1.7243
  598MOL0     H80707   0.115   6.992   7.621 -0.4080 -0.0816 -1.7975
  598MOL0     H80708   0.081   7.282   7.707 -2.0015  0.3932 -3.4566
  598MOL0     H80709   0.018   7.142   7.799  2.8960  0.3055  1.1538
  598MOL0     H80710  -0.113   7.075   7.611 -1.4209  0.7347 -2.2204
  598MOL0     H80711  -0.043   7.195   7.501  0.4841  3.0087  0.6931
  598MOL0     H80712   0.950   6.886   8.053  0.2488  1.2600  0.3884
  598MOL0     H80713   1.183   6.940   8.105 -0.3766  0.6403  0.5135
  598MOL0     H80714   1.591   7.313   7.757 -2.3535 -0.1487  0.2348
  598MOL0     H80715   1.748   7.466   7.824 -1.0378  1.0633  0.7876
  598MOL0     H80716   3.035   8.486   8.611 -0.1764  1.0160 -0.3561
  598MOL0     H80717   3.279   8.558   8.590 -0.6057 -0.4221  0.0690
  598MOL0     H80718   3.678   8.851   8.529 -1.2968  4.8557 -0.9071
  598MOL0     H80719   3.890   8.919   8.411 -1.3309  1.0673  0.9787
  598MOL0     H80720   4.133   8.923   8.126  0.3674  0.0487  0.9892
  598MOL0     H80721   4.054   8.987   8.269 -2.4762 -0.0044 -0.5644
  598MOL0     H80722   4.166   8.705   8.253  0.3614 -2.1293  2.5223
  598MOL0     H80723   4.101   8.772   8.395  1.4605 -2.5649 -0.0239
  598MOL0     H80724   4.248   8.939   8.438  0.0818 -0.9795  1.3759
  598MOL0     H80725   4.321   8.931   8.282 -0.6102 -0.5193  0.0178
  598MOL0     H80726   4.437   8.696   8.349 -1.5288  0.2662 -1.8841
  598MOL0     H80727   4.353   8.709   8.496  2.8763 -2.4029 -0.7225
  598MOL0     H80728   4.648   8.986   8.586 -0.4427  0.8950 -0.2536
  598MOL0     H80729   3.762   8.717   8.063  0.2496  1.6451 -0.3375
  598MOL0     H80730   3.556   8.670   8.154  0.6815 -0.8218  0.2866
  599MOL0     O80731   0.530  10.802   9.774  0.3943  0.4018 -0.3804
  599MOL0     C80732   0.497  10.879   9.688  0.7960  0.8289 -0.4093
  599MOL0     O80733   0.372  10.887   9.629 -0.0338 -0.0690  0.4007
  599MOL0     C80734   0.266  10.816   9.689  0.1058 -0.5051  0.2651
  599MOL0     C80735   0.163  10.895   9.724 -0.9254  0.3933 -0.7533
  599MOL0     C80736   0.045  10.848   9.778  1.0891  0.4904 -0.2171
  599MOL0     C80737   0.032  10.714   9.811  0.5947 -0.1935 -0.0718
  599MOL0     O80738  -0.088  10.669   9.857  0.4309  0.4865  0.1136
  599MOL0     C80739  -0.139  10.547   9.802 -0.2764  0.2335 -0.1094
  599MOL0     C80740  -0.281  10.527   9.854 -0.2504 -0.1821 -0.2082
  599MOL0     C80741  -0.382  10.638   9.805 -0.1846 -0.6719 -0.2251
  599MOL0     C80742  -0.522  10.591   9.838 -0.2193  0.1051  0.7569
  599MOL0     C80743  -0.562  10.465   9.758  1.1688 -0.4170  0.0488
  599MOL0     C80744  -0.712  10.468   9.730 -0.4198 -0.3342 -0.5636
  599MOL0     C80745  -0.808  10.440   9.849 -0.5864 -0.0693  0.3998
  599MOL0     C80746  -0.756  10.342   9.948  0.8109 -0.5323 -0.9616
  599MOL0     N80747  -0.860  10.307  10.056  0.7634  0.2046  0.6108
  599MOL0     C80748  -0.997  10.299  10.031 -0.0592  0.4377  0.0289
  599MOL0     C80749  -1.048  10.268  10.149 -0.3133 -0.6707  0.2776
  599MOL0     C80750  -1.188  10.222  10.169  0.5231 -0.1503  0.2675
  599MOL0     C80751  -1.230  10.236  10.318 -0.0036 -0.4743  0.1509
  599MOL0     C80752  -1.378  10.192  10.343 -0.1279 -0.1556  0.0740
  599MOL0     C80753  -1.418  10.201  10.488  0.4900  0.8205  1.0632
  599MOL0     O80754  -1.409  10.345  10.524  0.2882 -0.5944 -0.7775
  599MOL0     C80755  -1.523  10.397  10.587  0.0798 -0.5308  0.0161
  599MOL0     C80756  -1.523  10.391  10.723  0.2346  0.1064 -0.1156
  599MOL0     C80757  -1.639  10.427  10.792  0.3138 -0.9778 -0.0766
  599MOL0     C80758  -1.615  10.418  10.945  0.2945 -0.1694  0.0089
  599MOL0     C80759  -1.756  10.461  10.718 -0.4503 -0.1156 -0.7839
  599MOL0     C80760  -1.891  10.465  10.782  0.8152 -0.6537  0.2929
  599MOL0     O80761  -2.002  10.438  10.694 -0.0055  0.2272 -0.1522
  599MOL0     C80762  -2.127  10.470  10.738 -0.4654 -0.0733  0.2518
  599MOL0     C80763  -2.152  10.598  10.792 -0.1893  0.5245  0.5708
  599MOL0     C80764  -2.283  10.633  10.823 -0.1778  0.3388  0.0775
  599MOL0     C80765  -2.395  10.549  10.810 -1.0501 -1.1760  0.4647
  599MOL0     O80766  -2.515  10.600  10.851 -0.4429  0.2887 -0.6902
  599MOL0     C80767  -2.634  10.530  10.838  0.7915 -1.0087  0.1636
  599MOL0     C80768  -2.742  10.627  10.881  0.2334  0.1154  0.2421
  599MOL0     C80769  -2.884  10.568  10.858  0.3023  0.1859  1.1194
  599MOL0     C80770  -3.001  10.666  10.872 -0.9975 -0.1744  0.4944
  599MOL0     C80771  -3.135  10.607  10.837 -0.3781  0.4306 -0.6559
  599MOL0     C80772  -3.186  10.497  10.927  0.5790 -0.2237  0.0771
  599MOL0     C80773  -3.199  10.528  11.072  0.5994  0.4105  0.2700
  599MOL0     C80774  -3.307  10.437  11.132  0.1037  0.2884  0.8038
  599MOL0    Cl80775  -3.465  10.508  11.132  0.4448  0.2177 -0.1011
  599MOL0     C80776  -2.364  10.429  10.756 -0.1965  0.3641  0.5555
  599MOL0     C80777  -2.237  10.383  10.725 -0.6396  0.2817  0.2821
  599MOL0     O80778  -1.904  10.485  10.902 -0.1964  0.1794 -0.0403
  599MOL0     C80779  -1.755  10.463  10.577 -0.0351  0.1152  0.4052
  599MOL0     C80780  -1.641  10.425  10.511 -0.5758 -0.1815 -0.6682
  599MOL0     N80781  -0.944  10.265  10.242  0.1902  0.5830 -0.0678
  599MOL0     N80782  -0.834  10.285  10.183 -0.4915 -0.0149 -0.1575
  599MOL0     C80783   0.143  10.635   9.778 -1.2562  0.3185  0.3510
  599MOL0     C80784   0.249  10.681   9.704  0.3869  1.0688  0.2562
  599MOL0     C80785   0.590  10.986   9.646 -0.7077  0.5324  0.2923
  599MOL0     C80786   0.559  11.090   9.548  0.3193  0.2454 -1.0204
  599MOL0     C80787   0.667  11.163   9.495  0.3277  0.3227 -0.5037
  599MOL0     C80788   0.795  11.164   9.553 -0.1303  0.6420 -0.6944
  599MOL0     O80789   0.901  11.228   9.500  0.1505  0.0640 -0.1437
  599MOL0     C80790   0.888  11.353   9.436  0.1094  0.2015  0.4708
  599MOL0     C80791   1.026  11.379   9.374 -0.5186 -0.1066  0.9792
  599MOL0     C80792   1.136  11.387   9.474  0.1829  0.9437 -0.8002
  599MOL0     C80793   1.272  11.407   9.416 -0.1125 -0.5060 -0.3839
  599MOL0     C80794   1.294  11.528   9.334 -0.4454  0.0001  1.0011
  599MOL0     C80795   1.320  11.621   9.255  0.1700  0.0436 -1.1586
  599MOL0     C80796   0.822  11.073   9.658  0.4602  0.3652 -0.8163
  599MOL0     C80797   0.721  10.986   9.706 -0.7075 -0.4487  0.1945
  599MOL0     H80798   0.162  11.002   9.706 -3.8313  0.6715  0.3995
  599MOL0     H80799  -0.033  10.921   9.798 -0.7795 -1.2180 -0.9326
  599MOL0     H80800  -0.147  10.540   9.693 -0.5350 -0.8521 -0.0261
  599MOL0     H80801  -0.071  10.469   9.837 -0.4817  0.3960  0.6804
  599MOL0     H80802  -0.321  10.432   9.819  0.1757 -0.5922  0.4122
  599MOL0     H80803  -0.273  10.518   9.963 -2.4568 -3.7484 -0.2021
  599MOL0     H80804  -0.362  10.738   9.845  1.4937 -0.6960 -0.9006
  599MOL0     H80805  -0.369  10.656   9.697  0.6510 -0.2952 -0.0757
  599MOL0     H80806  -0.538  10.575   9.945 -3.7085  0.4017  0.4114
  599MOL0     H80807  -0.592  10.672   9.815 -0.6341 -0.3345  0.4639
  599MOL0     H80808  -0.513  10.455   9.661  2.2363  1.7892  0.3010
  599MOL0     H80809  -0.542  10.371   9.811  0.4274  0.8043  2.6363
  599MOL0     H80810  -0.738  10.566   9.689  2.2741  1.2394  1.1933
  599MOL0     H80811  -0.729  10.390   9.656 -0.8631 -2.0083  1.2046
  599MOL0     H80812  -0.831  10.535   9.900 -2.5043 -0.3912  0.2099
  599MOL0     H80813  -0.906  10.417   9.806  0.1336 -0.1035 -1.2959
  599MOL0     H80814  -0.673  10.391  10.000  0.1159 -1.2195  0.8802
  599MOL0     H80815  -0.716  10.255   9.895  2.1176 -1.0975  0.8353
  599MOL0     H80816  -1.049  10.306   9.936 -0.0709  2.6709  0.1386
  599MOL0     H80817  -1.258  10.278  10.105 -0.6930 -2.8563 -0.9318
  599MOL0     H80818  -1.200  10.116  10.149 -1.9399 -0.1832  1.5519
  599MOL0     H80819  -1.212  10.335  10.362 -1.6858 -0.3811  0.6923
  599MOL0     H80820  -1.162  10.170  10.373  1.4191  0.0409 -0.9375
  599MOL0     H80821  -1.376  10.088  10.307  2.7670  0.4410 -1.8032
  599MOL0     H80822  -1.444  10.251  10.279 -0.8485 -0.8283  0.1815
  599MOL0     H80823  -1.344  10.142  10.544 -0.4166 -1.0018  0.4312
  599MOL0     H80824  -1.518  10.160  10.507  1.4088 -3.5638 -1.9931
  599MOL0     H80825  -1.433  10.357  10.774 -0.3692 -1.7675 -0.1945
  599MOL0     H80826  -1.698  10.449  11.009  0.9479 -0.0734  0.8250
  599MOL0     H80827  -1.582  10.317  10.971  0.0199 -0.6669 -1.4588
  599MOL0     H80828  -1.525  10.477  10.962  0.7878 -0.1247 -2.4057
  599MOL0     H80829  -2.070  10.669  10.801 -0.5643  1.1258 -0.6407
  599MOL0     H80830  -2.295  10.734  10.860  0.1616  0.9789 -1.4890
  599MOL0     H80831  -2.649  10.495  10.735  2.1473 -0.8733 -0.0966
  599MOL0     H80832  -2.631  10.445  10.907  3.0687  0.4614  2.0390
  599MOL0     H80833  -2.727  10.662  10.984  0.2646  1.0086 -0.0571
  599MOL0     H80834  -2.744  10.708  10.807 -1.5733 -0.0204  0.0975
  599MOL0     H80835  -2.885  10.474  10.915  2.2167 -1.2388 -0.9905
  599MOL0     H80836  -2.895  10.516  10.762 -0.9634  1.8436  0.3221
  599MOL0     H80837  -2.999  10.710  10.972  1.5702  1.0496 -0.0105
  599MOL0     H80838  -2.985  10.750  10.804 -3.8229  0.9004  1.0175
  599MOL0     H80839  -3.117  10.571  10.736  1.4245  2.0250 -0.9658
  599MOL0     H80840  -3.221  10.673  10.826 -0.3336  0.2270 -2.5141
  599MOL0     H80841  -3.291  10.477  10.902  0.6094  0.0318 -0.2540
  599MOL0     H80842  -3.142  10.397  10.917 -2.6402 -1.8007  0.4622
  599MOL0     H80843  -3.225  10.632  11.092 -2.4918 -0.2453  0.2180
  599MOL0     H80844  -3.105  10.496  11.118 -0.1890 -1.6005  0.5740
  599MOL0     H80845  -3.290  10.422  11.239  0.2762 -2.0807  0.4947
  599MOL0     H80846  -3.311  10.339  11.084 -4.3221 -0.3340  2.0216
  599MOL0     H80847  -2.447  10.360  10.748  1.4317 -1.6761  0.2745
  599MOL0     H80848  -2.221  10.282  10.688 -0.6060  1.1228 -2.2230
  599MOL0     H80849  -1.849  10.488  10.529  2.2068  2.0262 -3.4729
  599MOL0     H80850  -1.623  10.427  10.404  0.7571  1.1342 -0.4444
  599MOL0     H80851   0.124  10.531   9.800 -0.9471  0.6132  2.2194
  599MOL0     H80852   0.323  10.608   9.676 -1.9273 -2.3446  2.2122
  599MOL0     H80853   0.460  11.098   9.504  0.2899  1.6208 -0.7391
  599MOL0     H80854   0.637  11.218   9.407 -0.9252  1.8121  0.7861
  599MOL0     H80855   0.804  11.343   9.366 -0.6623 -0.8066  1.4905
  599MOL0     H80856   0.868  11.422   9.518 -0.6310  0.1082  0.3820
  599MOL0     H80857   1.029  11.472   9.316 -0.8388 -0.7185 -0.0418
  599MOL0     H80858   1.043  11.296   9.305 -0.9843  1.5182 -1.2045
  599MOL0     H80859   1.142  11.287   9.517 -2.4633  0.1325 -2.1463
  599MOL0     H80860   1.109  11.454   9.556 -0.4774 -1.3139  0.9362
  599MOL0     H80861   1.294  11.317   9.358  2.4808 -0.2527  0.0788
  599MOL0     H80862   1.349  11.412   9.494 -1.3000 -0.2592  0.8231
  599MOL0     H80863   1.346  11.697   9.185 -0.4131  0.3468 -1.0526
  599MOL0     H80864   0.920  11.064   9.704 -0.3847  0.4731  1.1284
  599MOL0     H80865   0.749  10.921   9.789  3.9512 -0.0022 -0.7354
  600MOL0     O80866  11.151   0.331   5.078  0.2641  0.3411  0.5236
  600MOL0     C80867  11.214   0.269   4.982 -0.7502 -0.3785  0.0698
  600MOL0     O80868  11.155   0.196   4.883 -0.2853 -0.3101 -0.0659
  600MOL0     C80869  11.017   0.174   4.876 -0.1069  0.6248 -0.1195
  600MOL0     C80870  10.948   0.133   4.989  0.0455  0.1961  0.5662
  600MOL0     C80871  10.807   0.109   4.976 -0.2562 -0.5007 -0.0633
  600MOL0     C80872  10.745   0.118   4.854  0.3602 -0.2417 -0.1835
  600MOL0     O80873  10.607   0.091   4.842 -0.2907  0.4715 -0.6226
  600MOL0     C80874  10.538   0.102   4.715  0.5208 -0.9509  0.3759
  600MOL0     C80875  10.398   0.048   4.716  0.1381  0.1776 -0.7181
  600MOL0     C80876  10.306   0.085   4.601 -0.1421 -0.1566 -0.1019
  600MOL0     C80877  10.279   0.242   4.595  0.6742 -0.5954 -0.6912
  600MOL0     C80878  10.171   0.274   4.491 -0.3842 -0.1115  0.1402
  600MOL0     C80879  10.027   0.214   4.525 -0.8932  0.5658  0.0314
  600MOL0     C80880   9.910   0.270   4.438 -0.5526 -0.6097  0.5659
  600MOL0     C80881   9.781   0.191   4.454 -0.4099 -0.1716 -0.1606
  600MOL0     N80882   9.675   0.252   4.378  0.3776  0.1908 -0.1980
  600MOL0     C80883   9.613   0.202   4.267  0.8188  1.2403  0.7741
  600MOL0     C80884   9.492   0.253   4.261  0.5175 -0.4799 -0.1843
  600MOL0     C80885   9.397   0.247   4.141 -0.0451 -0.4175  0.7068
  600MOL0     C80886   9.252   0.241   4.190 -0.8971  0.0405 -0.1440
  600MOL0     C80887   9.198   0.394   4.214  0.1246  0.6438 -0.0132
  600MOL0     C80888   9.046   0.375   4.228  0.1689 -0.4947 -0.2387
  600MOL0     O80889   8.979   0.503   4.245  0.3347  0.0819  0.1670
  600MOL0     C80890   8.842   0.520   4.226 -0.4414  0.1086  0.6868
  600MOL0     C80891   8.752   0.425   4.178 -0.4803 -0.2694  0.0574
  600MOL0     C80892   8.619   0.440   4.156  0.1518 -0.2542  0.0269
  600MOL0     C80893   8.537   0.329   4.106  0.1858  0.3082 -0.0290
  600MOL0     C80894   8.574   0.571   4.186  0.6897  0.1621 -0.2681
  600MOL0     C80895   8.435   0.604   4.166  0.6044 -0.4067  0.2808
  600MOL0     O80896   8.379   0.584   4.036  0.0387 -0.3903  0.4612
  600MOL0     C80897   8.247   0.627   4.012 -0.1102 -0.6621  0.0388
  600MOL0     C80898   8.220   0.763   3.995 -0.6249  0.1870 -0.6149
  600MOL0     C80899   8.096   0.802   3.950 -0.1767  0.5206  0.5962
  600MOL0     C80900   7.988   0.710   3.923 -0.2129 -1.0095 -0.1703
  600MOL0     O80901   7.865   0.779   3.897  1.0348  0.6148 -0.2034
  600MOL0     C80902   7.739   0.721   3.934 -0.2881  0.2468  0.5465
  600MOL0     C80903   7.636   0.829   3.934 -0.0656 -0.3147 -0.6856
  600MOL0     C80904   7.493   0.775   3.949 -0.9108  0.0476  0.0574
  600MOL0     C80905   7.434   0.700   3.833  0.2563 -0.5056 -0.8874
  600MOL0     C80906   7.299   0.637   3.866  0.3719 -0.0197  0.8207
  600MOL0     C80907   7.188   0.748   3.885 -0.2201  0.5705  0.5718
  600MOL0     C80908   7.054   0.676   3.930 -0.1814 -0.8305 -0.8951
  600MOL0     C80909   6.973   0.608   3.817 -0.2927  0.5947 -0.5464
  600MOL0    Cl80910   6.916   0.708   3.682  0.2221 -0.2970  0.3278
  600MOL0     C80911   8.017   0.574   3.936 -0.3220  0.3471  0.1245
  600MOL0     C80912   8.144   0.530   3.980  0.1762  0.5684  0.1940
  600MOL0     O80913   8.379   0.658   4.259  0.2091  0.1377  0.4368
  600MOL0     C80914   8.653   0.678   4.230 -0.4690  0.4161  0.3436
  600MOL0     C80915   8.793   0.651   4.239  0.5453  0.7689 -0.2887
  600MOL0     N80916   9.478   0.343   4.372  0.5440  0.2874 -0.1083
  600MOL0     N80917   9.591   0.338   4.437  0.7237  0.7690  0.2660
  600MOL0     C80918  10.826   0.151   4.741 -0.3452 -0.2164 -0.3286
  600MOL0     C80919  10.961   0.184   4.751 -0.0227  0.0179 -0.1020
  600MOL0     C80920  11.365   0.286   4.979 -0.7283 -0.6214 -0.8620
  600MOL0     C80921  11.441   0.228   4.877 -0.1332  0.0321  0.0724
  600MOL0     C80922  11.582   0.225   4.880  0.7731 -0.0193  1.0908
  600MOL0     C80923  11.651   0.306   4.970  0.9772  0.4326 -0.2180
  600MOL0     O80924  11.787   0.317   4.985 -0.2909  1.1588  0.3422
  600MOL0     C80925  11.857   0.299   4.863 -0.0764  0.6823 -0.0684
  600MOL0     C80926  12.009   0.350   4.886 -0.3478 -0.1204  0.4612
  600MOL0     C80927  12.080   0.257   4.995  0.5496  0.3360  0.5363
  600MOL0     C80928  12.232   0.276   4.984 -0.8479 -0.6536  0.6010
  600MOL0     C80929  12.305   0.215   5.092 -0.0172 -0.1169 -0.5241
  600MOL0     C80930  12.351   0.162   5.195  0.5470  1.2333  0.2015
  600MOL0     C80931  11.581   0.375   5.060  0.4004  0.3388 -0.4467
  600MOL0     C80932  11.436   0.366   5.069  0.8684  0.4041 -0.2438
  600MOL0     H80933  10.996   0.122   5.086  1.0799 -5.7978 -0.2531
  600MOL0     H80934  10.754   0.070   5.062  1.8623  0.6376  1.8827
  600MOL0     H80935  10.535   0.209   4.696  0.2268 -1.1836 -1.0368
  600MOL0     H80936  10.595   0.048   4.638  0.3946  0.0563 -0.4388
  600MOL0     H80937  10.409  -0.061   4.711  2.7067  0.3082  0.5845
  600MOL0     H80938  10.343   0.064   4.810 -0.4708  0.5204 -1.1246
  600MOL0     H80939  10.351   0.051   4.507  0.3583 -0.6752  0.3103
  600MOL0     H80940  10.212   0.030   4.609  0.6532 -1.4283  1.2316
  600MOL0     H80941  10.244   0.278   4.691 -2.6927 -1.1154 -1.6010
  600MOL0     H80942  10.364   0.309   4.577 -1.3685  2.4766  0.4376
  600MOL0     H80943  10.177   0.383   4.491 -0.7028 -0.0909  0.3079
  600MOL0     H80944  10.197   0.239   4.391  0.3476 -1.1529  0.6761
  600MOL0     H80945  10.035   0.106   4.510 -1.0419  0.8688 -2.5652
  600MOL0     H80946  10.009   0.241   4.630 -0.8947 -0.1035  0.2091
  600MOL0     H80947   9.896   0.377   4.453 -0.6957 -0.4330 -0.7044
  600MOL0     H80948   9.939   0.258   4.333 -2.4881  1.0500 -0.2170
  600MOL0     H80949   9.756   0.192   4.560  0.0698 -0.3582 -0.0440
  600MOL0     H80950   9.791   0.084   4.436 -0.4461 -0.0408 -0.9921
  600MOL0     H80951   9.650   0.133   4.192 -4.9188 -1.8011  0.1999
  600MOL0     H80952   9.408   0.339   4.083  2.2989 -1.0133  0.1145
  600MOL0     H80953   9.418   0.162   4.075  0.0112  0.3961 -0.3400
  600MOL0     H80954   9.242   0.181   4.281 -2.6587 -1.0577 -1.0198
  600MOL0     H80955   9.187   0.185   4.123 -0.6029 -0.2118 -0.2220
  600MOL0     H80956   9.223   0.460   4.131  0.3363 -0.2444 -0.6662
  600MOL0     H80957   9.236   0.428   4.311  3.3523 -1.5443 -0.3453
  600MOL0     H80958   9.026   0.323   4.322  2.4136 -2.0355 -0.5260
  600MOL0     H80959   9.005   0.321   4.142 -3.2822 -0.7820  1.4473
  600MOL0     H80960   8.794   0.327   4.157  1.4492  0.6552 -0.6658
  600MOL0     H80961   8.563   0.301   4.003  1.2520 -4.3276  1.2932
  600MOL0     H80962   8.561   0.242   4.167 -1.3141  0.5526  0.9432
  600MOL0     H80963   8.429   0.338   4.117 -0.2290 -1.3022 -2.0972
  600MOL0     H80964   8.297   0.834   4.025 -1.1025  0.8691 -0.9679
  600MOL0     H80965   8.082   0.910   3.947 -0.4749  0.4769  0.4249
  600MOL0     H80966   7.719   0.648   3.855  1.9882  1.1951 -1.0150
  600MOL0     H80967   7.739   0.676   4.034 -0.2238  0.0063  0.4377
  600MOL0     H80968   7.656   0.878   4.030 -0.5170 -0.2903 -0.6003
  600MOL0     H80969   7.656   0.891   3.847  0.2639  0.6378  0.0574
  600MOL0     H80970   7.431   0.865   3.960  0.4463  1.6268 -3.5086
  600MOL0     H80971   7.483   0.717   4.041  0.2818  1.0496  0.8407
  600MOL0     H80972   7.428   0.780   3.759  0.4230  1.8880  1.5182
  600MOL0     H80973   7.505   0.624   3.800  3.1242  2.6970 -2.6885
  600MOL0     H80974   7.299   0.575   3.956 -2.4961  0.5464  1.3134
  600MOL0     H80975   7.267   0.574   3.782  1.2273  1.2961 -0.5469
  600MOL0     H80976   7.214   0.814   3.968  0.7951 -0.4375  1.0711
  600MOL0     H80977   7.176   0.813   3.797 -0.1202 -0.4202 -0.1979
  600MOL0     H80978   6.993   0.753   3.977  0.9279  0.7070 -1.8461
  600MOL0     H80979   7.085   0.608   4.009 -1.7222 -1.9275 -1.1899
  600MOL0     H80980   6.880   0.566   3.856  0.0310  1.4374  1.2286
  600MOL0     H80981   7.039   0.532   3.773 -0.1571  0.3737  0.0324
  600MOL0     H80982   7.937   0.508   3.904  0.9740 -0.3787 -1.8368
  600MOL0     H80983   8.156   0.423   3.982 -0.0166  0.5256  3.1192
  600MOL0     H80984   8.622   0.779   4.254 -1.2142  0.3055 -0.1284
  600MOL0     H80985   8.852   0.730   4.286 -1.0162  1.9511 -0.2303
  600MOL0     H80986  10.776   0.151   4.645 -0.2943 -1.5493 -0.3720
  600MOL0     H80987  11.027   0.204   4.668  1.6782  0.7451  1.3566
  600MOL0     H80988  11.382   0.177   4.802 -0.8893 -0.0852  0.7426
  600MOL0     H80989  11.634   0.173   4.801 -0.5220  0.2622  0.0199
  600MOL0     H80990  11.861   0.195   4.831  1.2976 -0.1076  2.3825
  600MOL0     H80991  11.818   0.358   4.780 -5.1499 -1.5767  0.3416
  600MOL0     H80992  12.000   0.456   4.909  1.5143 -0.2730  2.1489
  600MOL0     H80993  12.050   0.338   4.786 -0.7674 -1.3367  0.4162
  600MOL0     H80994  12.063   0.151   4.974  0.7983  0.1786  1.1127
  600MOL0     H80995  12.035   0.284   5.091 -0.1456  0.8341  0.0844
  600MOL0     H80996  12.258   0.382   4.979 -1.5251 -0.2918  3.1048
  600MOL0     H80997  12.270   0.238   4.889 -3.2018  0.1166 -0.7299
  600MOL0     H80998  12.388   0.125   5.289  2.5991  2.9701  0.1485
  600MOL0     H80999  11.633   0.435   5.133 -1.8015 -0.2022  1.7040
  600MOL0     H81000  11.384   0.416   5.151 -0.5755  0.2106 -1.0052
  601MOL0     O81001   2.469   3.329   0.340  0.3453  0.5337 -0.1522
  601MOL0     C81002   2.538   3.427   0.359  0.0669 -0.3471  0.3524
  601MOL0     O81003   2.498   3.550   0.408 -0.4485 -0.6223  0.9228
  601MOL0     C81004   2.370   3.597   0.379  0.3521 -0.1822  0.2056
  601MOL0     C81005   2.314   3.672   0.488 -0.4325 -0.0162 -0.1563
  601MOL0     C81006   2.190   3.740   0.479  0.3185  0.4837 -0.4783
  601MOL0     C81007   2.107   3.721   0.364 -0.0890 -0.0520  0.4647
  601MOL0     O81008   1.977   3.773   0.347 -0.1259  0.1828 -0.3998
  601MOL0     C81009   1.926   3.834   0.464  0.6968  0.4472  0.0576
  601MOL0     C81010   1.777   3.885   0.461 -0.7215  0.0793 -0.9765
  601MOL0     C81011   1.679   3.777   0.434  0.5209  0.4613  0.0728
  601MOL0     C81012   1.540   3.832   0.431  0.3153 -1.1768 -0.3358
  601MOL0     C81013   1.437   3.730   0.400 -0.5742  0.8689 -0.4286
  601MOL0     C81014   1.295   3.790   0.410  0.0393  0.0062 -0.3933
  601MOL0     C81015   1.199   3.670   0.398  0.4885 -0.1827 -0.0555
  601MOL0     C81016   1.045   3.715   0.403 -0.1029  0.9922  0.2475
  601MOL0     N81017   0.953   3.599   0.385  0.1235  0.5486 -0.4182
  601MOL0     C81018   0.945   3.490   0.469 -0.0036 -0.6471 -0.2998
  601MOL0     C81019   0.839   3.426   0.427  0.0005 -0.0006  0.3510
  601MOL0     C81020   0.798   3.293   0.484 -0.2267  0.0070 -0.0224
  601MOL0     C81021   0.651   3.295   0.542  0.7700  0.1270  0.5576
  601MOL0     C81022   0.629   3.173   0.629  0.3693 -0.2439  0.1390
  601MOL0     C81023   0.482   3.127   0.650  1.0558 -0.2056  0.2236
  601MOL0     O81024   0.424   3.102   0.524  0.3568  0.2463 -0.0563
  601MOL0     C81025   0.302   3.045   0.516 -0.1692 -0.3685  0.6423
  601MOL0     C81026   0.228   2.998   0.621  0.4569 -0.4850 -0.5270
  601MOL0     C81027   0.103   2.942   0.606 -0.3597  0.2557 -0.0936
  601MOL0     C81028   0.019   2.898   0.738 -0.0539 -0.1322  0.1792
  601MOL0     C81029   0.048   2.935   0.476  0.4384  0.4348  0.3018
  601MOL0     C81030  -0.088   2.885   0.447  0.9820  0.1153  0.5705
  601MOL0     O81031  -0.156   2.942   0.340  0.5636  0.5776 -0.2302
  601MOL0     C81032  -0.293   2.924   0.313  0.5139 -0.4217 -0.1531
  601MOL0     C81033  -0.393   2.936   0.413  0.1582  0.3243  0.0263
  601MOL0     C81034  -0.529   2.945   0.379 -0.0106  0.3922 -0.7601
  601MOL0     C81035  -0.566   2.957   0.243  0.0837  0.2831  0.4064
  601MOL0     O81036  -0.699   2.973   0.203  0.2221  0.4904 -0.6128
  601MOL0     C81037  -0.806   2.893   0.269 -0.1763 -0.4182 -0.1385
  601MOL0     C81038  -0.942   2.902   0.200 -0.3631  0.2172  0.1710
  601MOL0     C81039  -1.059   2.821   0.258 -0.3344 -0.4981  0.6827
  601MOL0     C81040  -1.189   2.874   0.190  0.0871  0.4971  0.2267
  601MOL0     C81041  -1.309   2.810   0.259  0.4164 -0.0196  0.5441
  601MOL0     C81042  -1.437   2.861   0.189  0.3247 -0.3217  0.4275
  601MOL0     C81043  -1.558   2.842   0.283 -0.1132  0.2553  0.2200
  601MOL0     C81044  -1.676   2.923   0.222 -0.4264  0.6234  0.1460
  601MOL0    Cl81045  -1.746   2.863   0.069 -0.4937 -0.1603 -0.4171
  601MOL0     C81046  -0.465   2.959   0.145  0.8785  0.4224 -0.7409
  601MOL0     C81047  -0.335   2.939   0.178 -0.3393  0.8569  0.1764
  601MOL0     O81048  -0.139   2.798   0.521  0.2660  0.2606 -0.0009
  601MOL0     C81049   0.121   2.981   0.368 -0.5302 -0.2990  0.6489
  601MOL0     C81050   0.249   3.036   0.387 -0.5836  0.7193  0.1868
  601MOL0     N81051   0.783   3.487   0.321  0.8018 -0.8351 -0.3330
  601MOL0     N81052   0.858   3.593   0.285 -0.0043 -0.2695  0.2011
  601MOL0     C81053   2.166   3.641   0.258  0.7273 -0.0894 -0.2005
  601MOL0     C81054   2.295   3.576   0.269  0.3470  0.3239  0.9049
  601MOL0     C81055   2.684   3.408   0.343 -0.2236 -0.2697  0.4125
  601MOL0     C81056   2.739   3.281   0.318  0.3624  0.1681  0.4504
  601MOL0     C81057   2.879   3.254   0.320  0.7899 -0.2796  0.3502
  601MOL0     C81058   2.962   3.369   0.333 -0.4074 -0.6418 -0.4710
  601MOL0     O81059   3.095   3.353   0.314 -0.5192  0.6493  0.0611
  601MOL0     C81060   3.184   3.440   0.394 -0.0570  0.0596  0.7052
  601MOL0     C81061   3.322   3.393   0.363 -0.2963  0.0923  0.4345
  601MOL0     C81062   3.427   3.505   0.396  0.1760 -0.1395 -0.9351
  601MOL0     C81063   3.570   3.456   0.371 -0.4713  0.8045  0.3952
  601MOL0     C81064   3.608   3.334   0.447  0.0009  0.1270  0.0226
  601MOL0     C81065   3.626   3.232   0.522 -0.1863 -0.1695  0.4365
  601MOL0     C81066   2.905   3.499   0.346  0.2411 -0.0400 -1.0293
  601MOL0     C81067   2.765   3.519   0.355  0.1120 -0.4370  0.0591
  601MOL0     H81068   2.364   3.688   0.583 -1.5023  0.9032  0.2871
  601MOL0     H81069   2.158   3.808   0.557 -1.3036 -0.9511  0.1816
  601MOL0     H81070   1.938   3.761   0.544 -0.3665  0.0708 -0.1128
  601MOL0     H81071   1.996   3.915   0.486 -0.5625  1.8642 -0.9213
  601MOL0     H81072   1.763   3.939   0.556 -0.9746  1.0933 -1.5764
  601MOL0     H81073   1.770   3.957   0.380  0.0198  1.9222  0.5092
  601MOL0     H81074   1.692   3.726   0.338  0.1773 -3.6479  2.0032
  601MOL0     H81075   1.680   3.693   0.504 -2.9623 -0.2763 -0.5483
  601MOL0     H81076   1.515   3.885   0.523  1.1645 -1.5885  0.1409
  601MOL0     H81077   1.528   3.912   0.357 -0.4783 -0.4983  0.4896
  601MOL0     H81078   1.453   3.696   0.297 -3.5207 -0.1544 -0.6294
  601MOL0     H81079   1.451   3.647   0.469  0.7585  2.0703  0.8222
  601MOL0     H81080   1.282   3.824   0.513  0.6708 -1.8337  0.3411
  601MOL0     H81081   1.276   3.862   0.329  1.5103  1.8660  0.8156
  601MOL0     H81082   1.218   3.614   0.305  0.9081 -0.7122  0.3448
  601MOL0     H81083   1.223   3.613   0.488 -3.7979 -0.3266  1.2568
  601MOL0     H81084   1.025   3.778   0.316 -0.5251  0.3752 -0.1116
  601MOL0     H81085   1.023   3.764   0.498 -3.1395 -1.4627  0.9683
  601MOL0     H81086   1.013   3.468   0.550 -1.1011  0.6537  1.0499
  601MOL0     H81087   0.798   3.216   0.406  1.6410 -1.4980  1.4080
  601MOL0     H81088   0.877   3.260   0.551  1.7108  0.2502 -2.0470
  601MOL0     H81089   0.582   3.286   0.457  2.1195 -0.2372 -0.5475
  601MOL0     H81090   0.620   3.383   0.598 -2.3287 -2.1883  2.8375
  601MOL0     H81091   0.669   3.187   0.730 -0.7944  2.2751  0.3374
  601MOL0     H81092   0.686   3.091   0.584 -1.2106 -0.3680 -1.7726
  601MOL0     H81093   0.434   3.212   0.700 -0.2607 -0.4829 -0.5178
  601MOL0     H81094   0.480   3.036   0.712  0.8104 -0.3923 -0.0576
  601MOL0     H81095   0.270   3.008   0.721 -0.0989  2.7969 -0.5157
  601MOL0     H81096  -0.087   2.899   0.713 -0.3743 -2.8502  1.1805
  601MOL0     H81097   0.044   2.794   0.760 -2.0210 -1.0286 -1.5700
  601MOL0     H81098   0.055   2.963   0.818 -0.4322  0.5688 -0.2086
  601MOL0     H81099  -0.364   2.953   0.516  0.4437  1.2655 -0.2017
  601MOL0     H81100  -0.611   2.948   0.449  1.1943 -0.7945  0.7638
  601MOL0     H81101  -0.769   2.790   0.266  1.2870  0.0364  1.0307
  601MOL0     H81102  -0.823   2.928   0.371  3.0042  0.5723  0.1520
  601MOL0     H81103  -0.978   3.005   0.200 -3.4435 -0.7358 -1.1164
  601MOL0     H81104  -0.932   2.866   0.097 -1.3193 -0.1845  0.2073
  601MOL0     H81105  -1.051   2.827   0.367 -1.2204 -0.9823  0.7802
  601MOL0     H81106  -1.047   2.714   0.241  0.5306 -0.2058 -0.7250
  601MOL0     H81107  -1.197   2.983   0.192  1.6145  0.6852 -1.8161
  601MOL0     H81108  -1.195   2.849   0.084 -2.0598  3.9059 -0.6196
  601MOL0     H81109  -1.311   2.830   0.367  0.2564  0.3532  0.4734
  601MOL0     H81110  -1.314   2.702   0.245  0.9485  0.1244 -0.9242
  601MOL0     H81111  -1.427   2.967   0.164  0.3806 -0.2249  0.8625
  601MOL0     H81112  -1.448   2.807   0.094 -0.6358 -0.9068  0.8605
  601MOL0     H81113  -1.523   2.881   0.379  1.9484 -2.5568  0.7268
  601MOL0     H81114  -1.587   2.740   0.307 -1.0069 -0.7474 -4.3183
  601MOL0     H81115  -1.636   3.024   0.214  1.0639  0.2835  2.4635
  601MOL0     H81116  -1.758   2.928   0.295 -0.7196 -0.9565 -0.0263
  601MOL0     H81117  -0.491   2.953   0.040  0.9826 -0.8372 -0.7067
  601MOL0     H81118  -0.255   2.925   0.106 -0.1246 -1.3752  0.7508
  601MOL0     H81119   0.091   2.995   0.265 -1.4463  3.3370  1.2632
  601MOL0     H81120   0.312   3.074   0.308 -0.5564 -1.3018 -0.8357
  601MOL0     H81121   2.108   3.633   0.167 -0.2056 -0.1646  0.3774
  601MOL0     H81122   2.333   3.522   0.183  0.5778  0.2985  1.0214
  601MOL0     H81123   2.670   3.200   0.300  0.6911  0.5630 -3.3382
  601MOL0     H81124   2.924   3.155   0.318  2.8791  0.6231  0.0877
  601MOL0     H81125   3.166   3.545   0.371 -0.6967 -0.2731 -0.3951
  601MOL0     H81126   3.190   3.434   0.503  4.2000 -3.0756  0.5589
  601MOL0     H81127   3.332   3.384   0.255 -0.0749  3.6913  0.0096
  601MOL0     H81128   3.340   3.300   0.417 -1.7932 -1.7215 -2.0298
  601MOL0     H81129   3.411   3.534   0.500 -2.4630  2.8989 -2.0121
  601MOL0     H81130   3.411   3.589   0.329 -0.0458 -1.1930 -2.2583
  601MOL0     H81131   3.639   3.535   0.402 -1.6965  0.9845  2.9365
  601MOL0     H81132   3.575   3.443   0.263 -0.5642  5.1648 -0.3108
  601MOL0     H81133   3.634   3.147   0.586 -0.6559  0.3689  1.2202
  601MOL0     H81134   2.960   3.591   0.361 -1.6437  0.7967  1.4505
  601MOL0     H81135   2.731   3.619   0.379 -0.4286 -1.1090  2.3614
  602MOL0     O81136   2.588   4.647   9.528  0.0822  0.2190  0.6323
  602MOL0     C81137   2.559   4.556   9.450 -0.3887  0.4391  0.2363
  602MOL0     O81138   2.432   4.521   9.416  0.0404  0.2055 -0.4866
  602MOL0     C81139   2.329   4.580   9.477  0.4845  0.2645  0.2841
  602MOL0     C81140   2.295   4.708   9.420 -0.3819  0.0064 -0.5141
  602MOL0     C81141   2.181   4.776   9.479  0.1080 -0.3007 -0.0132
  602MOL0     C81142   2.118   4.727   9.590  0.0406 -0.4298 -0.0258
  602MOL0     O81143   2.022   4.810   9.638  0.0017 -0.5355 -0.1042
  602MOL0     C81144   1.917   4.746   9.712  0.6037 -0.1815 -0.6397
  602MOL0     C81145   1.802   4.844   9.728  0.2302  0.4906  0.2064
  602MOL0     C81146   1.694   4.782   9.810  0.7536  0.3512 -0.2196
  602MOL0     C81147   1.572   4.867   9.811  0.4729 -0.2257 -0.0371
  602MOL0     C81148   1.455   4.807   9.902  0.0664  0.3806  0.6515
  602MOL0     C81149   1.374   4.919   9.950  1.2902  0.1938  0.1094
  602MOL0     C81150   1.235   4.869  10.006  0.0728 -0.0098  0.2327
  602MOL0     C81151   1.245   4.758  10.108 -0.2590  0.3818 -0.3804
  602MOL0     N81152   1.111   4.721  10.152 -0.4105  0.1111 -0.2261
  602MOL0     C81153   1.074   4.714  10.282 -0.0652  0.9485  0.1646
  602MOL0     C81154   0.961   4.631  10.275 -0.2104 -0.2898 -0.0171
  602MOL0     C81155   0.884   4.605  10.400  0.2283  0.2322 -0.0544
  602MOL0     C81156   0.968   4.568  10.523 -0.8906 -0.3287 -0.0950
  602MOL0     C81157   0.898   4.530  10.652  0.4832  0.1440  0.2313
  602MOL0     C81158   0.781   4.617  10.691  0.2225  0.2917 -0.0397
  602MOL0     O81159   0.718   4.588  10.818  0.0446 -0.5702  1.0513
  602MOL0     C81160   0.635   4.684  10.875 -0.2945  0.5426 -0.9547
  602MOL0     C81161   0.588   4.799  10.805 -0.1877  0.4866  0.1392
  602MOL0     C81162   0.515   4.895  10.877  0.4912 -0.2507  0.6030
  602MOL0     C81163   0.473   5.011  10.790  0.3973  0.2615  0.1564
  602MOL0     C81164   0.464   4.871  11.004  0.1409  0.2124  0.3866
  602MOL0     C81165   0.369   4.957  11.082 -0.6520 -0.4950  0.1644
  602MOL0     O81166   0.309   4.885  11.179 -0.5288 -0.3463  0.1704
  602MOL0     C81167   0.216   4.956  11.255 -1.1575  0.3425 -0.1844
  602MOL0     C81168   0.261   5.051  11.352  0.2808 -0.1082  0.0007
  602MOL0     C81169   0.158   5.117  11.426 -0.3106  0.6865  0.0024
  602MOL0     C81170   0.029   5.087  11.405  0.2429 -0.9417 -1.1009
  602MOL0     O81171  -0.065   5.149  11.487 -0.7019 -0.3871  0.1091
  602MOL0     C81172  -0.205   5.163  11.439 -0.4516  0.2813  0.8509
  602MOL0     C81173  -0.254   5.295  11.489 -1.1907 -0.2508 -0.5999
  602MOL0     C81174  -0.405   5.305  11.475 -0.4307 -0.3505 -0.6619
  602MOL0     C81175  -0.462   5.340  11.338  0.5045  0.1553  0.1159
  602MOL0     C81176  -0.581   5.261  11.294  0.2896 -0.1090  0.4683
  602MOL0     C81177  -0.714   5.317  11.345  0.9013 -0.4458 -1.4031
  602MOL0     C81178  -0.838   5.231  11.293 -0.0108 -0.5950 -0.2775
  602MOL0     C81179  -0.951   5.226  11.397  0.0078 -0.7882  0.4941
  602MOL0    Cl81180  -1.047   5.387  11.387 -0.3622  0.4599  0.3026
  602MOL0     C81181  -0.007   4.984  11.313  0.0417 -0.7289 -0.9557
  602MOL0     C81182   0.085   4.918  11.240 -0.1102  0.6269 -0.1117
  602MOL0     O81183   0.352   5.080  11.055  0.4557  0.8282 -0.2160
  602MOL0     C81184   0.516   4.760  11.073 -0.1528 -0.5605 -0.6390
  602MOL0     C81185   0.609   4.674  11.014 -0.6886  0.2437  0.5983
  602MOL0     N81186   0.918   4.628  10.147 -0.1956  0.4655 -0.5063
  602MOL0     N81187   1.015   4.674  10.072  0.2657  0.1604 -0.6019
  602MOL0     C81188   2.159   4.599   9.646  0.1752  0.1255  0.0250
  602MOL0     C81189   2.263   4.522   9.585  0.6870  0.2398 -0.6057
  602MOL0     C81190   2.665   4.498   9.377  0.5817  0.0456  0.3791
  602MOL0     C81191   2.643   4.450   9.247 -0.3212  0.4607  0.7322
  602MOL0     C81192   2.759   4.397   9.180 -0.1278 -0.7969 -0.8194
  602MOL0     C81193   2.891   4.400   9.241 -0.5033 -0.0394 -0.9713
  602MOL0     O81194   2.989   4.354   9.160  0.2340 -0.4503  0.4184
  602MOL0     C81195   3.112   4.412   9.181  0.0070  0.3216 -0.4785
  602MOL0     C81196   3.220   4.341   9.099 -0.1474  0.3723  0.3434
  602MOL0     C81197   3.231   4.403   8.959  0.3548  0.3639 -0.3973
  602MOL0     C81198   3.350   4.358   8.884  0.0959  0.0745 -0.9792
  602MOL0     C81199   3.381   4.215   8.881  0.8345  0.0635  0.0113
  602MOL0     C81200   3.396   4.093   8.877  0.2357 -0.5088 -0.1729
  602MOL0     C81201   2.898   4.450   9.370 -0.5857  0.4654  0.1523
  602MOL0     C81202   2.791   4.503   9.441 -0.3283  0.1327  1.2116
  602MOL0     H81203   2.345   4.749   9.334  0.1072 -3.6954 -2.1886
  602MOL0     H81204   2.154   4.875   9.443 -3.1958 -0.9000  0.4972
  602MOL0     H81205   1.890   4.660   9.650 -0.2828  0.2675 -0.8835
  602MOL0     H81206   1.952   4.721   9.812 -2.3451 -3.7007 -0.2500
  602MOL0     H81207   1.846   4.934   9.771  1.9180 -0.0853 -0.2365
  602MOL0     H81208   1.757   4.870   9.631  1.9928 -2.4420 -1.5342
  602MOL0     H81209   1.659   4.689   9.766 -0.0024 -0.0589  1.2009
  602MOL0     H81210   1.730   4.756   9.910  1.0173 -1.2614 -0.7123
  602MOL0     H81211   1.601   4.966   9.848 -0.5530 -0.4120  1.3630
  602MOL0     H81212   1.540   4.883   9.708  1.3283 -0.6336 -0.3826
  602MOL0     H81213   1.401   4.728   9.849  1.7663 -2.1613  2.4736
  602MOL0     H81214   1.496   4.761   9.992 -0.0834 -0.2804  0.3828
  602MOL0     H81215   1.419   4.966  10.038 -2.6445  0.9314  1.9647
  602MOL0     H81216   1.347   4.991   9.873 -3.4415 -1.5438 -0.2214
  602MOL0     H81217   1.180   4.957  10.039 -1.1027 -0.4970 -0.3650
  602MOL0     H81218   1.183   4.818   9.925  1.2944 -1.3908  0.2688
  602MOL0     H81219   1.310   4.787  10.192 -0.4301  0.4274 -0.2627
  602MOL0     H81220   1.285   4.666  10.065 -0.9370  0.7178 -1.7735
  602MOL0     H81221   1.138   4.751  10.361  1.5174 -0.9870 -0.1481
  602MOL0     H81222   0.814   4.683  10.429 -1.8765 -1.2357 -0.8870
  602MOL0     H81223   0.821   4.519  10.374 -1.7861  1.8421 -0.8172
  602MOL0     H81224   1.050   4.636  10.548 -1.3430  0.5091 -0.8725
  602MOL0     H81225   1.017   4.475  10.492  1.2908  0.1979  1.5190
  602MOL0     H81226   0.973   4.528  10.732 -2.6329  1.6170  3.4816
  602MOL0     H81227   0.864   4.427  10.646 -1.3791  0.7153  0.4298
  602MOL0     H81228   0.713   4.605  10.606 -1.5056  1.9037  1.0457
  602MOL0     H81229   0.824   4.718  10.695  2.3448 -0.5234 -0.5907
  602MOL0     H81230   0.619   4.812  10.702  2.2712  1.4171  0.9079
  602MOL0     H81231   0.365   5.006  10.774  0.7113 -0.1028 -2.1773
  602MOL0     H81232   0.491   5.108  10.838 -0.4180  0.8559 -0.7089
  602MOL0     H81233   0.513   4.997  10.689  0.7311 -0.2165  0.3482
  602MOL0     H81234   0.369   5.064  11.363  0.1272  1.0085  0.2805
  602MOL0     H81235   0.187   5.190  11.500  1.1337 -1.1640  1.3753
  602MOL0     H81236  -0.208   5.160  11.329  1.9902  1.3938  0.6933
  602MOL0     H81237  -0.270   5.084  11.478 -1.4569 -1.5617 -3.8462
  602MOL0     H81238  -0.226   5.296  11.594  1.1743 -2.3330 -1.1048
  602MOL0     H81239  -0.204   5.380  11.442  1.5227 -1.6609 -0.4627
  602MOL0     H81240  -0.437   5.387  11.540 -0.3774 -0.3814 -0.5975
  602MOL0     H81241  -0.457   5.219  11.518 -1.6175 -0.1509 -1.6189
  602MOL0     H81242  -0.473   5.448  11.327  0.9856 -0.0165 -3.2229
  602MOL0     H81243  -0.386   5.328  11.261  0.4111  1.0739 -0.1330
  602MOL0     H81244  -0.565   5.157  11.321 -3.1022 -0.2882  2.3288
  602MOL0     H81245  -0.589   5.275  11.185  1.1456  2.6160  0.6669
  602MOL0     H81246  -0.720   5.320  11.455 -0.6350  0.0604 -1.4731
  602MOL0     H81247  -0.723   5.416  11.301  2.0080  0.6860  0.7301
  602MOL0     H81248  -0.806   5.127  11.281  0.8506 -0.4394  0.5468
  602MOL0     H81249  -0.885   5.265  11.200  1.9960  0.7249 -0.8848
  602MOL0     H81250  -0.910   5.210  11.497  3.0709  1.6616 -0.2062
  602MOL0     H81251  -1.023   5.146  11.376  3.1784 -3.5054 -1.0996
  602MOL0     H81252  -0.114   4.968  11.308 -0.1208  0.5020 -1.6987
  602MOL0     H81253   0.051   4.841  11.172 -0.4607 -0.6240  1.4047
  602MOL0     H81254   0.487   4.726  11.172  0.3770 -0.8611 -0.5798
  602MOL0     H81255   0.644   4.588  11.071 -2.0447 -1.4528 -1.0021
  602MOL0     H81256   2.104   4.569   9.734 -0.9473 -1.2884 -1.1073
  602MOL0     H81257   2.313   4.431   9.618  0.8018  0.4817 -0.0944
  602MOL0     H81258   2.550   4.470   9.194  0.1111  1.1548  0.2155
  602MOL0     H81259   2.756   4.360   9.078  0.7601  0.4331 -1.3254
  602MOL0     H81260   3.109   4.518   9.157  0.4952  0.4635  0.0631
  602MOL0     H81261   3.140   4.395   9.286  0.0715 -1.9606 -0.8168
  602MOL0     H81262   3.200   4.234   9.102 -0.8776  0.5177  1.2631
  602MOL0     H81263   3.319   4.353   9.146  1.8055  2.4627 -3.7598
  602MOL0     H81264   3.241   4.511   8.973 -0.9554  0.3140  1.1861
  602MOL0     H81265   3.137   4.384   8.906 -1.6226  1.3410  2.5057
  602MOL0     H81266   3.431   4.423   8.920  0.6798 -1.3633  0.3879
  602MOL0     H81267   3.339   4.395   8.781 -0.1860  1.5643 -0.4335
  602MOL0     H81268   3.412   3.987   8.885 -1.9766 -0.9013 -0.3405
  602MOL0     H81269   2.985   4.445   9.435 -1.7500 -0.1875  1.7375
  602MOL0     H81270   2.807   4.545   9.539  1.2872  0.6643  0.7547
  603MOL0     O81271   4.587   0.273   2.306 -0.5059 -0.1686  0.5145
  603MOL0     C81272   4.583   0.356   2.393  0.1440  0.0644 -0.9668
  603MOL0     O81273   4.473   0.383   2.469  0.8254 -1.0126 -0.0795
  603MOL0     C81274   4.349   0.332   2.432  0.2297  0.6786  0.2815
  603MOL0     C81275   4.251   0.415   2.375  0.2086 -0.7713 -0.3626
  603MOL0     C81276   4.125   0.369   2.335  1.0783 -0.5975 -0.3333
  603MOL0     C81277   4.098   0.238   2.344  0.6061  0.1812 -0.1306
  603MOL0     O81278   3.978   0.203   2.286 -0.4360  0.0340  0.2608
  603MOL0     C81279   3.930   0.071   2.287  0.2921  0.7629  0.6499
  603MOL0     C81280   3.793   0.073   2.212 -0.0416 -0.0365 -0.6071
  603MOL0     C81281   3.668   0.125   2.290  0.0920  0.2381 -0.4809
  603MOL0     C81282   3.540   0.090   2.210  0.2255 -0.2111 -0.2369
  603MOL0     C81283   3.501  -0.061   2.207 -1.5015  0.2143 -1.0976
  603MOL0     C81284   3.379  -0.086   2.126  0.1408  0.0246 -0.6969
  603MOL0     C81285   3.344  -0.231   2.120 -0.7732 -0.5492 -0.3641
  603MOL0     C81286   3.220  -0.260   2.033 -1.1953 -0.9435 -0.2360
  603MOL0     N81287   3.110  -0.174   2.090 -0.3719  0.3526 -0.0440
  603MOL0     C81288   3.046  -0.195   2.211  0.5112  0.9406  0.6028
  603MOL0     C81289   2.960  -0.095   2.215 -0.2390 -0.6307 -0.8471
  603MOL0     C81290   2.890  -0.057   2.347 -0.1339  0.6348  0.2765
  603MOL0     C81291   2.745  -0.108   2.347  0.8618  0.4498  0.3965
  603MOL0     C81292   2.740  -0.260   2.375 -0.3483 -0.6526 -0.1223
  603MOL0     C81293   2.600  -0.308   2.397 -0.1819 -0.1683  0.3847
  603MOL0     O81294   2.529  -0.264   2.514 -0.7388  0.6366  1.2468
  603MOL0     C81295   2.457  -0.364   2.570 -0.5064  0.2611 -0.1604
  603MOL0     C81296   2.451  -0.371   2.710 -0.5527  0.0739 -0.6120
  603MOL0     C81297   2.363  -0.446   2.781 -0.0677  0.6680  0.2591
  603MOL0     C81298   2.350  -0.426   2.932  0.3282 -0.3177 -0.8823
  603MOL0     C81299   2.277  -0.540   2.708 -0.0642  0.0503  0.1342
  603MOL0     C81300   2.172  -0.627   2.768 -0.0318  0.1531 -0.2777
  603MOL0     O81301   2.134  -0.615   2.899 -0.2312  0.1984 -0.6058
  603MOL0     C81302   2.064  -0.706   2.969  0.8093 -0.8678 -0.4125
  603MOL0     C81303   1.986  -0.659   3.075  0.4706 -0.3759 -0.6882
  603MOL0     C81304   1.907  -0.743   3.153  0.4258  0.0346 -1.2293
  603MOL0     C81305   1.910  -0.878   3.118 -0.1821 -0.3873 -0.3567
  603MOL0     O81306   1.834  -0.973   3.189 -0.6437  0.1419 -0.4615
  603MOL0     C81307   1.698  -0.953   3.172  0.1363 -0.4361  0.8238
  603MOL0     C81308   1.614  -1.041   3.262  0.6335  0.2808  0.1001
  603MOL0     C81309   1.471  -0.988   3.296 -0.1205 -0.3071  0.4175
  603MOL0     C81310   1.405  -1.072   3.409  0.2358 -0.6395  0.4051
  603MOL0     C81311   1.240  -1.067   3.401 -0.2709  0.9169 -0.2053
  603MOL0     C81312   1.177  -1.178   3.490  0.1261 -0.1785  0.1962
  603MOL0     C81313   1.026  -1.180   3.463 -0.5707  0.7228 -0.3986
  603MOL0     C81314   0.976  -1.282   3.556 -0.2536  0.7058 -1.0695
  603MOL0    Cl81315   0.796  -1.307   3.542 -0.2946 -0.0764  0.3273
  603MOL0     C81316   1.993  -0.927   3.016 -0.0637 -0.2757 -0.3396
  603MOL0     C81317   2.067  -0.837   2.940 -0.4814 -0.4760  0.1257
  603MOL0     O81318   2.115  -0.701   2.682 -0.3890 -0.2263 -0.3247
  603MOL0     C81319   2.286  -0.532   2.569  0.2449  0.4629  0.0087
  603MOL0     C81320   2.375  -0.446   2.493  0.5302  0.7432 -0.0522
  603MOL0     N81321   2.961  -0.021   2.103 -0.4384  0.5508 -0.2589
  603MOL0     N81322   3.051  -0.077   2.025 -0.5701 -1.0470 -0.0675
  603MOL0     C81323   4.190   0.148   2.393 -0.2281  0.3955 -0.4603
  603MOL0     C81324   4.317   0.195   2.439 -0.7818  0.5206  0.0474
  603MOL0     C81325   4.695   0.442   2.424  0.1834 -0.2974 -0.9656
  603MOL0     C81326   4.685   0.572   2.475 -0.4213 -0.1266 -0.5944
  603MOL0     C81327   4.798   0.646   2.511 -0.6681  0.4903 -0.4119
  603MOL0     C81328   4.929   0.602   2.481 -0.2772 -0.0474 -0.3581
  603MOL0     O81329   5.050   0.669   2.511 -0.4185 -0.5315  0.4007
  603MOL0     C81330   5.036   0.789   2.588 -0.2597 -0.1528  0.4901
  603MOL0     C81331   5.180   0.842   2.616  0.3217  0.3531 -0.2321
  603MOL0     C81332   5.175   0.962   2.710  0.1482  0.5078  0.0083
  603MOL0     C81333   5.310   1.010   2.760  0.7506  0.0942  0.0001
  603MOL0     C81334   5.397   1.034   2.643 -1.5868  0.4860 -0.9085
  603MOL0     C81335   5.484   1.037   2.556 -0.0422  0.3612 -0.9550
  603MOL0     C81336   4.941   0.472   2.420 -0.0571 -0.0080 -0.4293
  603MOL0     C81337   4.827   0.395   2.398 -0.0658  0.0613 -0.0743
  603MOL0     H81338   4.274   0.521   2.370  0.3976 -0.5384  2.9873
  603MOL0     H81339   4.049   0.441   2.308  2.2787  1.3674  1.2311
  603MOL0     H81340   3.998   0.004   2.234  0.3483 -0.9478  2.7269
  603MOL0     H81341   3.912   0.030   2.387 -1.6070  0.5130  0.2453
  603MOL0     H81342   3.808   0.140   2.126  1.5331 -0.4998 -0.7227
  603MOL0     H81343   3.777  -0.032   2.184 -4.9727  0.4473 -0.4876
  603MOL0     H81344   3.666   0.070   2.384  1.7020  0.5277 -0.2523
  603MOL0     H81345   3.667   0.229   2.324  0.7069 -0.6837  2.7417
  603MOL0     H81346   3.459   0.141   2.262 -0.1961 -0.8153 -0.2844
  603MOL0     H81347   3.543   0.120   2.105  1.3432 -1.0904 -0.4741
  603MOL0     H81348   3.587  -0.110   2.162  0.4801  3.5620 -1.2558
  603MOL0     H81349   3.478  -0.105   2.305  1.5605  3.5215  1.3568
  603MOL0     H81350   3.308  -0.035   2.193 -0.0120 -2.1287  0.8695
  603MOL0     H81351   3.375  -0.029   2.033  1.0109 -0.8619 -1.2914
  603MOL0     H81352   3.419  -0.298   2.076 -0.6045 -0.5614 -0.0554
  603MOL0     H81353   3.320  -0.271   2.219 -0.6281 -0.2458 -0.2067
  603MOL0     H81354   3.193  -0.366   2.039  1.1931 -1.6487 -0.9856
  603MOL0     H81355   3.244  -0.237   1.928  0.0315  1.6392  0.5232
  603MOL0     H81356   3.067  -0.264   2.292 -0.3555  2.0436  1.8127
  603MOL0     H81357   2.943  -0.108   2.427 -0.4081 -2.5836 -1.4204
  603MOL0     H81358   2.896   0.051   2.360 -0.1357  0.7146 -0.3482
  603MOL0     H81359   2.692  -0.082   2.255  2.8266 -0.2807 -1.0000
  603MOL0     H81360   2.705  -0.052   2.432  2.2258  0.7029  0.9054
  603MOL0     H81361   2.788  -0.273   2.473 -4.3804  2.2052  2.5788
  603MOL0     H81362   2.779  -0.308   2.285 -1.1146 -0.1007 -0.7636
  603MOL0     H81363   2.612  -0.416   2.392 -1.0483 -0.2687  0.4037
  603MOL0     H81364   2.535  -0.294   2.311  0.5663  1.1098  0.0010
  603MOL0     H81365   2.517  -0.303   2.764  2.0414 -2.0966 -0.8611
  603MOL0     H81366   2.255  -0.379   2.958  1.8999  2.4907  0.2652
  603MOL0     H81367   2.367  -0.519   2.986  2.7347  0.6182  0.1484
  603MOL0     H81368   2.425  -0.360   2.977  0.0717  0.9831 -2.2592
  603MOL0     H81369   1.984  -0.553   3.097  0.9166 -0.8234  1.7858
  603MOL0     H81370   1.845  -0.702   3.232  3.1565 -0.6497  1.4588
  603MOL0     H81371   1.668  -0.851   3.197 -0.9515 -0.1353 -1.4876
  603MOL0     H81372   1.666  -0.959   3.068 -1.6933 -0.9381  1.3659
  603MOL0     H81373   1.604  -1.139   3.214  0.9162  0.1684  0.2669
  603MOL0     H81374   1.665  -1.057   3.358 -0.1237  1.7749  0.7728
  603MOL0     H81375   1.412  -0.994   3.204 -0.3196 -2.2246  0.6313
  603MOL0     H81376   1.466  -0.881   3.320 -2.9817 -0.4999  1.0809
  603MOL0     H81377   1.438  -1.176   3.409  2.9602  0.1258 -0.8505
  603MOL0     H81378   1.439  -1.026   3.503  2.1699  0.4292 -0.7418
  603MOL0     H81379   1.214  -1.080   3.296 -1.1661  1.0245 -0.0031
  603MOL0     H81380   1.203  -0.968   3.430  0.9914  0.5542  3.0994
  603MOL0     H81381   1.213  -1.278   3.464 -0.9777  0.1022 -2.8108
  603MOL0     H81382   1.197  -1.140   3.590 -0.4947  1.8676 -0.4092
  603MOL0     H81383   1.005  -1.221   3.363  0.5224 -3.9282  1.0173
  603MOL0     H81384   0.976  -1.085   3.482 -1.2120  0.2338  0.4175
  603MOL0     H81385   1.004  -1.252   3.657 -2.3521 -0.4351 -0.0874
  603MOL0     H81386   1.020  -1.379   3.530 -0.0938 -0.2057  2.2237
  603MOL0     H81387   2.019  -1.033   3.011  1.0517  0.0092 -1.3464
  603MOL0     H81388   2.134  -0.871   2.862 -0.1498  1.1272 -0.3222
  603MOL0     H81389   2.224  -0.596   2.508 -0.0306  0.2273  0.5284
  603MOL0     H81390   2.374  -0.450   2.385 -0.4907  0.9679 -0.0635
  603MOL0     H81391   4.164   0.043   2.402  2.8095 -0.5342 -1.3631
  603MOL0     H81392   4.396   0.128   2.472 -2.8041 -1.2392  1.5760
  603MOL0     H81393   4.583   0.608   2.488 -0.2785  0.0754 -0.0243
  603MOL0     H81394   4.771   0.741   2.555  0.0694  0.0618  1.0284
  603MOL0     H81395   4.982   0.867   2.533 -1.1603 -0.1574  1.3399
  603MOL0     H81396   4.978   0.765   2.677  1.3297 -1.1647  1.2979
  603MOL0     H81397   5.234   0.861   2.523 -0.5452 -0.5126 -0.9324
  603MOL0     H81398   5.236   0.760   2.662 -2.8522 -1.9577 -0.1324
  603MOL0     H81399   5.107   0.951   2.795 -0.7461 -0.9510 -0.8566
  603MOL0     H81400   5.129   1.043   2.653 -0.3079 -0.1088 -0.5188
  603MOL0     H81401   5.351   0.930   2.822 -2.7273 -1.1991  0.8611
  603MOL0     H81402   5.313   1.099   2.823 -0.7484  0.7219 -0.7704
  603MOL0     H81403   5.562   1.047   2.483  0.9532 -0.9298 -0.1051
  603MOL0     H81404   5.037   0.433   2.390  0.4061  0.9570 -0.2333
  603MOL0     H81405   4.839   0.294   2.361 -1.1392 -0.3727  0.7192
  604MOL0     O81406   1.545   9.404   2.093 -0.1443 -0.8848 -0.4966
  604MOL0     C81407   1.526   9.362   1.983  0.6565 -0.1214  0.3991
  604MOL0     O81408   1.411   9.305   1.935  0.2419  0.3215 -0.5811
  604MOL0     C81409   1.304   9.297   2.023  0.2878 -0.6535 -0.9613
  604MOL0     C81410   1.174   9.329   1.983  0.4325  0.0881  0.4248
  604MOL0     C81411   1.072   9.330   2.078  0.4810  0.1181  0.0363
  604MOL0     C81412   1.097   9.291   2.214 -0.0939 -0.3197 -0.1763
  604MOL0     O81413   0.996   9.272   2.305  0.2015  0.6323  0.2405
  604MOL0     C81414   1.011   9.175   2.408  0.1129  0.1736 -0.2150
  604MOL0     C81415   0.877   9.144   2.478 -0.2609 -0.0359 -0.2556
  604MOL0     C81416   0.858   9.238   2.597 -0.1044 -0.0005  0.5887
  604MOL0     C81417   0.741   9.187   2.698 -0.0967  0.0915  0.0289
  604MOL0     C81418   0.616   9.135   2.619  0.3678  0.4125  0.7209
  604MOL0     C81419   0.512   9.089   2.725 -0.0750 -0.0897  0.3774
  604MOL0     C81420   0.426   9.206   2.771 -0.6144 -0.1424 -0.6380
  604MOL0     C81421   0.279   9.192   2.734  0.5572 -0.1693  0.6438
  604MOL0     N81422   0.203   9.293   2.803  0.0839 -0.2403  0.8713
  604MOL0     C81423   0.098   9.270   2.899  0.6880 -1.8382 -0.8250
  604MOL0     C81424   0.074   9.393   2.948  1.0535  0.3385  0.2407
  604MOL0     C81425  -0.015   9.411   3.068  0.1742 -0.3029  0.6421
  604MOL0     C81426  -0.159   9.399   3.024  0.3142  0.2746 -0.2528
  604MOL0     C81427  -0.248   9.383   3.151  0.1041 -0.2370  0.1948
  604MOL0     C81428  -0.298   9.509   3.215  0.2060 -0.0117  0.7574
  604MOL0     O81429  -0.380   9.498   3.333  0.3412 -0.1580  0.0334
  604MOL0     C81430  -0.518   9.502   3.319 -0.1558 -0.2982  0.2629
  604MOL0     C81431  -0.593   9.521   3.432  0.1571  0.0261  0.1778
  604MOL0     C81432  -0.735   9.513   3.434  0.7536  0.1792  0.5839
  604MOL0     C81433  -0.804   9.526   3.568  0.6281 -0.3592  0.1842
  604MOL0     C81434  -0.801   9.486   3.308  0.8830 -0.7282  0.6569
  604MOL0     C81435  -0.942   9.477   3.291  0.3318  0.0881 -0.2822
  604MOL0     O81436  -1.013   9.548   3.384  0.6601  0.4523  0.5424
  604MOL0     C81437  -1.142   9.538   3.387 -0.1680  0.0165 -0.6228
  604MOL0     C81438  -1.203   9.510   3.505 -0.0177 -0.7359  0.1645
  604MOL0     C81439  -1.339   9.508   3.532  0.3224  0.0900 -0.2280
  604MOL0     C81440  -1.422   9.540   3.424  0.5262 -0.1240  0.3123
  604MOL0     O81441  -1.555   9.559   3.433 -0.6511 -0.6180  0.2746
  604MOL0     C81442  -1.625   9.504   3.545  0.0304  0.0815  0.3044
  604MOL0     C81443  -1.775   9.534   3.525 -0.7927 -0.3205  0.1074
  604MOL0     C81444  -1.858   9.458   3.639  0.0638 -0.3791 -0.0853
  604MOL0     C81445  -2.005   9.482   3.614 -0.4616 -0.4253  0.3312
  604MOL0     C81446  -2.076   9.430   3.738  0.1731 -0.0798 -0.6314
  604MOL0     C81447  -2.223   9.420   3.700  0.2329 -0.0356  0.0366
  604MOL0     C81448  -2.314   9.388   3.825  0.4890 -0.2019 -0.0435
  604MOL0     C81449  -2.283   9.252   3.885 -0.1667  0.3652  0.3727
  604MOL0    Cl81450  -2.342   9.139   3.761 -0.2244 -0.4846  0.3761
  604MOL0     C81451  -1.366   9.571   3.299 -0.3954 -1.1449  0.7105
  604MOL0     C81452  -1.224   9.582   3.284 -0.0623 -0.7391 -0.1017
  604MOL0     O81453  -0.990   9.405   3.199  0.0038 -0.6469 -0.2832
  604MOL0     C81454  -0.708   9.463   3.206 -0.3777 -0.1605 -0.3743
  604MOL0     C81455  -0.577   9.465   3.206  0.2098 -0.5231 -0.1739
  604MOL0     N81456   0.149   9.486   2.886  0.4215 -0.0828  0.4120
  604MOL0     N81457   0.220   9.431   2.799 -0.0223 -0.2583  0.0918
  604MOL0     C81458   1.229   9.264   2.247  0.6481 -0.2125  0.4612
  604MOL0     C81459   1.328   9.262   2.155 -0.7651  0.0988  0.8211
  604MOL0     C81460   1.639   9.348   1.897  0.3890 -0.1441  0.0160
  604MOL0     C81461   1.635   9.324   1.759 -0.3836  0.8058 -0.1885
  604MOL0     C81462   1.750   9.316   1.675 -0.4879 -0.2120 -0.3234
  604MOL0     C81463   1.879   9.348   1.733 -0.4463  0.0962 -0.5263
  604MOL0     O81464   1.999   9.342   1.667 -0.0891 -0.0848 -1.0331
  604MOL0     C81465   2.007   9.305   1.530 -0.6730 -0.0285 -0.0833
  604MOL0     C81466   2.133   9.348   1.464 -0.5231 -0.2606  0.1706
  604MOL0     C81467   2.248   9.267   1.523  0.1337  0.3613 -0.6750
  604MOL0     C81468   2.392   9.336   1.523  0.0719  0.1978  0.4016
  604MOL0     C81469   2.379   9.478   1.574 -0.2128  0.6654 -0.1016
  604MOL0     C81470   2.381   9.584   1.630  0.4116 -0.8236  0.0317
  604MOL0     C81471   1.882   9.374   1.871 -0.5958 -0.2504  0.7723
  604MOL0     C81472   1.766   9.387   1.949  0.1143 -0.4520  0.3267
  604MOL0     H81473   1.155   9.354   1.880 -0.9109 -0.2999  0.5589
  604MOL0     H81474   0.968   9.356   2.060 -0.7598 -3.4285  1.2412
  604MOL0     H81475   1.043   9.081   2.362  1.0718  0.3809 -0.0077
  604MOL0     H81476   1.090   9.206   2.477  0.8171 -0.8591 -0.5352
  604MOL0     H81477   0.796   9.175   2.411 -0.3648  1.1582  0.3888
  604MOL0     H81478   0.885   9.040   2.509 -1.1007  0.1584  0.6449
  604MOL0     H81479   0.950   9.242   2.656 -0.1691  1.9621  0.6230
  604MOL0     H81480   0.842   9.341   2.563  0.3874  0.4180  1.5990
  604MOL0     H81481   0.782   9.103   2.754  0.8732 -1.4192 -2.7418
  604MOL0     H81482   0.726   9.268   2.770  2.4460  0.1669  0.5610
  604MOL0     H81483   0.578   9.212   2.551 -0.3364 -1.8337 -1.5515
  604MOL0     H81484   0.642   9.054   2.551  2.7207  0.6133  1.2796
  604MOL0     H81485   0.460   9.017   2.661 -1.7526  2.2219 -0.9772
  604MOL0     H81486   0.556   9.034   2.810  2.1140  0.3372 -0.4190
  604MOL0     H81487   0.435   9.222   2.878  0.4353 -1.0461 -0.5739
  604MOL0     H81488   0.459   9.300   2.726  0.4661 -0.0010  0.4122
  604MOL0     H81489   0.250   9.088   2.752  0.7137 -0.5028 -0.8928
  604MOL0     H81490   0.274   9.214   2.627  1.2123  0.0439  0.6500
  604MOL0     H81491   0.048   9.178   2.930 -1.1053 -0.1799  1.6017
  604MOL0     H81492   0.006   9.331   3.139  0.1957 -0.7592  0.1279
  604MOL0     H81493  -0.002   9.512   3.110 -1.1358  0.6276 -1.0499
  604MOL0     H81494  -0.167   9.311   2.960  1.5489 -0.1731  0.1858
  604MOL0     H81495  -0.180   9.492   2.971 -1.9412 -0.2785 -0.4211
  604MOL0     H81496  -0.197   9.323   3.227 -1.0442  1.8553  2.8066
  604MOL0     H81497  -0.341   9.336   3.119 -0.5255  0.3744  1.0703
  604MOL0     H81498  -0.345   9.566   3.134  1.5101 -1.8245 -1.3585
  604MOL0     H81499  -0.205   9.555   3.250  1.4735 -2.9077  1.4794
  604MOL0     H81500  -0.553   9.547   3.529 -1.0126  1.1171  0.3911
  604MOL0     H81501  -0.858   9.432   3.578  0.7156 -0.4447 -0.1459
  604MOL0     H81502  -0.734   9.523   3.653  0.4705 -2.1594  0.2911
  604MOL0     H81503  -0.875   9.609   3.581  1.2978  0.4426 -1.0865
  604MOL0     H81504  -1.146   9.473   3.590  0.6957 -1.3720 -0.5761
  604MOL0     H81505  -1.382   9.478   3.626 -0.2701 -2.2932 -1.2005
  604MOL0     H81506  -1.611   9.396   3.548 -1.1195 -0.0895  0.1749
  604MOL0     H81507  -1.589   9.537   3.643 -2.0232 -2.2944  1.9891
  604MOL0     H81508  -1.793   9.642   3.526  2.2346  0.3370 -1.9850
  604MOL0     H81509  -1.803   9.503   3.424  1.3307 -0.6539 -0.4295
  604MOL0     H81510  -1.822   9.500   3.734 -1.2054 -2.1897  1.2638
  604MOL0     H81511  -1.840   9.351   3.644 -0.7426 -0.7979 -3.6989
  604MOL0     H81512  -2.022   9.590   3.606 -2.4619 -0.6942  0.6556
  604MOL0     H81513  -2.035   9.425   3.526 -2.3411  0.3527  0.4392
  604MOL0     H81514  -2.059   9.501   3.819  1.2389  0.5102 -1.3468
  604MOL0     H81515  -2.042   9.328   3.757 -0.9401 -0.2032  0.9241
  604MOL0     H81516  -2.265   9.511   3.657 -0.7169 -0.6244 -0.3401
  604MOL0     H81517  -2.229   9.342   3.623  1.5224 -1.0371  0.9129
  604MOL0     H81518  -2.418   9.402   3.795  0.3275  0.3254  0.7212
  604MOL0     H81519  -2.296   9.466   3.900  0.2052  1.5654 -1.7362
  604MOL0     H81520  -2.337   9.239   3.980  0.7286  1.4504  1.0513
  604MOL0     H81521  -2.177   9.241   3.910 -0.5293  1.0855  2.4129
  604MOL0     H81522  -1.429   9.617   3.223  1.0322  0.3118  0.3321
  604MOL0     H81523  -1.186   9.612   3.187  1.9196 -1.6957  0.3285
  604MOL0     H81524  -0.761   9.443   3.114 -0.3472 -3.3778  0.2112
  604MOL0     H81525  -0.532   9.457   3.107  0.7601 -3.0424  0.2193
  604MOL0     H81526   1.264   9.232   2.345  3.1661 -2.5431 -1.0271
  604MOL0     H81527   1.420   9.217   2.190 -1.7252 -0.7551  2.3199
  604MOL0     H81528   1.535   9.309   1.720 -0.6985  1.0147  0.5134
  604MOL0     H81529   1.732   9.294   1.571  0.8423  2.7112 -1.2760
  604MOL0     H81530   1.982   9.200   1.515 -0.5193  0.1387 -1.7046
  604MOL0     H81531   1.941   9.369   1.470 -2.0694 -1.1568  0.2069
  604MOL0     H81532   2.141   9.456   1.482  0.1758 -0.2145 -0.3583
  604MOL0     H81533   2.133   9.344   1.354  1.0181 -0.2794  0.1417
  604MOL0     H81534   2.251   9.175   1.465  2.0482  0.1794 -0.3518
  604MOL0     H81535   2.221   9.251   1.628 -0.9861  1.8128 -0.7040
  604MOL0     H81536   2.424   9.330   1.419  1.3446  0.4429  0.7640
  604MOL0     H81537   2.466   9.287   1.587  1.6936  0.6850 -1.0333
  604MOL0     H81538   2.380   9.683   1.671  0.7729  0.5019 -2.8966
  604MOL0     H81539   1.971   9.390   1.930 -0.3820 -2.0130  0.9785
  604MOL0     H81540   1.773   9.423   2.051 -0.4968 -0.1282  0.2619
  605MOL0     O81541   0.067   9.820   9.684  0.6975 -1.1718 -0.2139
  605MOL0     C81542   0.157   9.862   9.615  0.5183 -0.1890 -0.1547
  605MOL0     O81543   0.139   9.903   9.491  0.3648 -0.2389  0.0789
  605MOL0     C81544   0.038   9.842   9.418  0.8532 -0.2547  0.2632
  605MOL0     C81545  -0.012   9.921   9.310 -0.6636  1.1183 -0.7734
  605MOL0     C81546  -0.106   9.880   9.224 -0.0655  0.0954  1.1754
  605MOL0     C81547  -0.162   9.755   9.238 -0.2347  0.2574 -0.1005
  605MOL0     O81548  -0.250   9.705   9.152 -0.5569 -0.0284 -0.3070
  605MOL0     C81549  -0.380   9.726   9.192  0.4953 -0.0703  0.0957
  605MOL0     C81550  -0.475   9.673   9.079  0.8058  0.5085 -0.6097
  605MOL0     C81551  -0.617   9.665   9.146 -0.7538 -0.0620  0.1036
  605MOL0     C81552  -0.721   9.597   9.064 -0.0012 -0.5962  0.4206
  605MOL0     C81553  -0.856   9.597   9.124  0.2362 -0.8200 -0.5135
  605MOL0     C81554  -0.926   9.732   9.136 -0.2762  0.3450 -0.1803
  605MOL0     C81555  -1.067   9.738   9.188 -0.1140 -0.0996  0.0501
  605MOL0     C81556  -1.110   9.885   9.212 -0.3022  1.1798  0.0103
  605MOL0     N81557  -1.244   9.901   9.264 -0.4153 -0.1196 -0.7046
  605MOL0     C81558  -1.351   9.858   9.191  0.3657 -0.0643 -1.1412
  605MOL0     C81559  -1.460   9.853   9.265  0.4979  0.8452 -0.6951
  605MOL0     C81560  -1.600   9.809   9.231 -0.8133 -0.1146 -0.3170
  605MOL0     C81561  -1.631   9.662   9.241  0.3024 -0.4350  0.3042
  605MOL0     C81562  -1.777   9.627   9.222  0.0990  0.2273  0.7446
  605MOL0     C81563  -1.877   9.687   9.311  0.1864  0.3158 -0.1222
  605MOL0     O81564  -2.003   9.631   9.285  0.5842 -0.1153 -0.3168
  605MOL0     C81565  -2.120   9.681   9.344  0.8130 -0.3656  0.5246
  605MOL0     C81566  -2.127   9.736   9.472  0.6105 -0.1148 -0.0923
  605MOL0     C81567  -2.239   9.801   9.517 -0.0966  0.5220  0.3885
  605MOL0     C81568  -2.220   9.859   9.658  0.4694  0.4743  0.7201
  605MOL0     C81569  -2.363   9.800   9.443  0.9444  0.2420  0.3748
  605MOL0     C81570  -2.492   9.864   9.484  0.2114  0.3761  1.4477
  605MOL0     O81571  -2.602   9.857   9.401  0.6185  0.0287 -0.5148
  605MOL0     C81572  -2.709   9.933   9.442  0.3743 -0.1104  0.9410
  605MOL0     C81573  -2.697  10.066   9.457  0.6137 -0.6340  0.0077
  605MOL0     C81574  -2.803  10.142   9.507 -0.7811 -0.4032 -0.4148
  605MOL0     C81575  -2.932  10.093   9.517 -0.0833 -0.4192 -0.2220
  605MOL0     O81576  -3.032  10.178   9.556  0.2487 -0.3546  0.1534
  605MOL0     C81577  -3.162  10.139   9.522  0.2870  0.0702 -0.1610
  605MOL0     C81578  -3.256  10.261   9.535 -1.0615 -0.8707 -0.6450
  605MOL0     C81579  -3.398  10.228   9.497 -0.0963  0.3426 -0.0195
  605MOL0     C81580  -3.473  10.168   9.617  0.3790  0.6510 -0.1106
  605MOL0     C81581  -3.562  10.266   9.700  1.0570  0.3900  0.0605
  605MOL0     C81582  -3.676  10.337   9.623 -0.4191 -0.1933  0.1673
  605MOL0     C81583  -3.772  10.395   9.731  0.5405  0.2784  0.6689
  605MOL0     C81584  -3.919  10.428   9.687 -0.2243  0.4957  0.2069
  605MOL0    Cl81585  -3.984  10.572   9.771  0.2384 -0.0425 -0.3057
  605MOL0     C81586  -2.945   9.953   9.507 -0.3366 -0.3345  0.8891
  605MOL0     C81587  -2.834   9.879   9.462 -1.0074  0.1697 -0.5080
  605MOL0     O81588  -2.480   9.923   9.586 -0.5797 -0.1121  0.0675
  605MOL0     C81589  -2.361   9.740   9.316 -1.5334  0.0486 -0.5716
  605MOL0     C81590  -2.239   9.685   9.261 -0.1901 -0.4272 -0.2875
  605MOL0     N81591  -1.410   9.909   9.390  0.1590 -0.2227 -0.3184
  605MOL0     N81592  -1.283   9.935   9.391  0.2310  0.3098  0.3459
  605MOL0     C81593  -0.117   9.669   9.342  0.8885 -1.0112  0.4475
  605MOL0     C81594  -0.021   9.713   9.434 -0.4070 -0.4446  0.1852
  605MOL0     C81595   0.295   9.886   9.669  0.0109 -0.6735  0.1617
  605MOL0     C81596   0.409   9.884   9.589 -0.2583 -0.3698  0.0170
  605MOL0     C81597   0.533   9.917   9.641 -0.5366 -0.6301 -0.2605
  605MOL0     C81598   0.544   9.939   9.778 -0.7701 -0.6021  0.4074
  605MOL0     O81599   0.659   9.964   9.845 -0.1266 -0.2310 -0.3725
  605MOL0     C81600   0.791   9.976   9.783  0.1011  0.1475  0.3192
  605MOL0     C81601   0.902  10.034   9.866 -0.2365 -0.5615 -1.0685
  605MOL0     C81602   1.029  10.002   9.791 -0.4458  0.2968  0.5969
  605MOL0     C81603   1.147  10.053   9.876  0.0986  0.3944 -0.5522
  605MOL0     C81604   1.269  10.020   9.793 -0.7636  0.0114 -1.0798
  605MOL0     C81605   1.380  10.007   9.744 -0.1450 -0.3230  0.2225
  605MOL0     C81606   0.433   9.958   9.857  0.4519  0.3507  0.1099
  605MOL0     C81607   0.308   9.923   9.801  0.6457 -0.0392  0.5716
  605MOL0     H81608   0.040  10.015   9.294 -1.2122  1.4526 -0.6198
  605MOL0     H81609  -0.132   9.948   9.144 -1.5943 -0.5050  1.1144
  605MOL0     H81610  -0.404   9.679   9.288 -1.0110 -1.3223 -0.8417
  605MOL0     H81611  -0.401   9.831   9.212  2.7427  0.6713 -1.1277
  605MOL0     H81612  -0.480   9.739   8.991 -0.3883 -0.5342 -1.3645
  605MOL0     H81613  -0.439   9.578   9.038 -2.5152 -0.9918 -0.3845
  605MOL0     H81614  -0.614   9.609   9.240  0.2808 -1.2297 -0.5937
  605MOL0     H81615  -0.647   9.769   9.161 -0.1093  0.2853 -0.9313
  605MOL0     H81616  -0.719   9.639   8.963  4.4002 -1.3839 -0.0343
  605MOL0     H81617  -0.686   9.494   9.050  2.2806  0.4267 -2.4700
  605MOL0     H81618  -0.920   9.540   9.056  0.7691 -1.1501 -0.7497
  605MOL0     H81619  -0.853   9.549   9.222  0.8796  2.0856  0.9905
  605MOL0     H81620  -0.857   9.798   9.189  0.3574 -0.1921 -0.3267
  605MOL0     H81621  -0.933   9.753   9.029  2.0880 -2.8740 -1.1031
  605MOL0     H81622  -1.135   9.702   9.110  1.4989 -4.5728  0.4310
  605MOL0     H81623  -1.081   9.686   9.283 -0.8286 -0.4796 -0.2554
  605MOL0     H81624  -1.104   9.937   9.116 -0.6669 -0.7867 -1.1276
  605MOL0     H81625  -1.044   9.936   9.283  0.1990  0.3171  0.1911
  605MOL0     H81626  -1.350   9.836   9.085 -2.5645  0.7836 -1.4228
  605MOL0     H81627  -1.665   9.864   9.300 -2.4453 -1.6086 -0.5954
  605MOL0     H81628  -1.620   9.831   9.126 -0.0498  1.0166 -0.2434
  605MOL0     H81629  -1.599   9.618   9.336 -1.0277  0.3351  1.1378
  605MOL0     H81630  -1.570   9.612   9.165  0.2354  2.0822 -1.5480
  605MOL0     H81631  -1.789   9.518   9.223  1.0791  0.0798 -0.8163
  605MOL0     H81632  -1.804   9.665   9.123  1.3831 -1.9623 -0.5035
  605MOL0     H81633  -1.883   9.794   9.285 -0.4644  0.9199  2.2465
  605MOL0     H81634  -1.851   9.665   9.414 -0.2468 -1.3218 -0.3397
  605MOL0     H81635  -2.037   9.735   9.533  0.0962  1.0879  0.7361
  605MOL0     H81636  -2.137   9.815   9.714 -0.9963 -0.2701  2.4189
  605MOL0     H81637  -2.211   9.968   9.657 -3.5530  0.9466  0.3244
  605MOL0     H81638  -2.310   9.844   9.719 -0.4310 -0.5681 -0.7924
  605MOL0     H81639  -2.599  10.111   9.440  0.9721 -1.3991  0.0321
  605MOL0     H81640  -2.782  10.244   9.537  0.0591 -0.7597  0.2411
  605MOL0     H81641  -3.157  10.110   9.417  1.2948  2.3745 -0.8184
  605MOL0     H81642  -3.193  10.052   9.580  1.9254 -0.6551 -0.3334
  605MOL0     H81643  -3.252  10.313   9.631 -0.1438  1.1684 -1.7003
  605MOL0     H81644  -3.212  10.334   9.466  2.1094 -0.9225  1.1043
  605MOL0     H81645  -3.408  10.176   9.401 -0.4438  0.5550 -0.1001
  605MOL0     H81646  -3.454  10.317   9.466  4.0703  2.3966 -2.5964
  605MOL0     H81647  -3.534  10.095   9.564  2.0710 -1.3463  0.5311
  605MOL0     H81648  -3.403  10.124   9.689  2.1639  0.7847 -1.6759
  605MOL0     H81649  -3.506  10.345   9.750  0.4033  0.8094  0.1434
  605MOL0     H81650  -3.617  10.207   9.774 -1.1556  1.9287 -0.2541
  605MOL0     H81651  -3.635  10.410   9.552 -0.7127 -1.0435 -0.9121
  605MOL0     H81652  -3.740  10.265   9.570 -1.2921 -1.2757  2.5515
  605MOL0     H81653  -3.731  10.489   9.770  2.6954  0.2730 -1.4005
  605MOL0     H81654  -3.785  10.332   9.819 -1.9196  1.4910  1.2611
  605MOL0     H81655  -3.986  10.342   9.697 -1.4715  1.3478 -0.4682
  605MOL0     H81656  -3.917  10.456   9.581 -0.6409  0.1816  0.1107
  605MOL0     H81657  -3.030   9.898   9.546  1.6058 -2.5242  2.2348
  605MOL0     H81658  -2.840   9.771   9.473 -1.7914  0.1896 -0.6875
  605MOL0     H81659  -2.454   9.747   9.261 -1.8800 -0.1035 -0.0197
  605MOL0     H81660  -2.246   9.639   9.163 -1.0510  0.4576 -0.6600
  605MOL0     H81661  -0.173   9.578   9.360 -0.2358 -0.1645  1.3930
  605MOL0     H81662   0.030   9.639   9.495  1.7914 -1.3876 -2.5739
  605MOL0     H81663   0.394   9.867   9.483 -1.4454 -0.1635  0.1466
  605MOL0     H81664   0.615   9.915   9.570 -1.0808 -0.0272 -0.9172
  605MOL0     H81665   0.818   9.887   9.726 -0.0217  0.7300 -0.6732
  605MOL0     H81666   0.779  10.057   9.711  1.1862  0.1464  0.1215
  605MOL0     H81667   0.905   9.991   9.967  2.1521  0.3324 -0.6822
  605MOL0     H81668   0.886  10.140   9.888 -1.5033 -0.7477 -1.0020
  605MOL0     H81669   1.035  10.055   9.696  4.6187  0.6671  0.8147
  605MOL0     H81670   1.040   9.896   9.766  1.4299  0.8604 -1.2467
  605MOL0     H81671   1.158  10.001   9.971  3.7417  0.3867 -0.8654
  605MOL0     H81672   1.143  10.160   9.897 -0.2903  0.1356  0.7576
  605MOL0     H81673   1.476   9.985   9.702  0.8341  1.1439  1.5377
  605MOL0     H81674   0.454   9.973   9.963  1.2995 -2.2289  0.3848
  605MOL0     H81675   0.221   9.909   9.864 -2.6771 -1.0444 -3.6946
  606MOL0     O81676   4.408   0.143   6.292 -0.1690  0.4462  0.7465
  606MOL0     C81677   4.509   0.188   6.242  0.0939 -0.3006 -0.1071
  606MOL0     O81678   4.520   0.241   6.118 -0.0557  0.0951  0.0050
  606MOL0     C81679   4.411   0.242   6.031 -0.7110  0.0439  0.1480
  606MOL0     C81680   4.274   0.219   6.047  0.1792  0.5679  0.4239
  606MOL0     C81681   4.185   0.229   5.948  0.5177 -0.3506  0.3570
  606MOL0     C81682   4.223   0.257   5.818  0.3490 -0.7105  0.3972
  606MOL0     O81683   4.121   0.278   5.723 -0.3707 -0.0025 -0.6896
  606MOL0     C81684   4.166   0.271   5.589  0.1585 -0.8370  0.6801
  606MOL0     C81685   4.052   0.274   5.496 -0.0204  0.4097  0.6536
  606MOL0     C81686   3.941   0.163   5.520  0.7691  1.2861  0.5712
  606MOL0     C81687   3.851   0.126   5.403 -0.3555  0.1312 -0.0233
  606MOL0     C81688   3.734   0.043   5.462 -0.2434  0.0677 -0.1661
  606MOL0     C81689   3.635  -0.012   5.355 -0.6937  0.6198  0.5347
  606MOL0     C81690   3.540  -0.108   5.424  0.1820  0.3080 -0.0896
  606MOL0     C81691   3.445  -0.169   5.324 -0.0567  0.9614  0.2785
  606MOL0     N81692   3.356  -0.273   5.380 -0.1460 -0.3742  0.7635
  606MOL0     C81693   3.253  -0.258   5.470 -0.7147  0.1745 -0.5546
  606MOL0     C81694   3.180  -0.370   5.456 -0.4618  0.1504  0.2944
  606MOL0     C81695   3.054  -0.407   5.533 -0.7391 -0.2195  0.3752
  606MOL0     C81696   2.951  -0.299   5.525  0.8545  0.1917  0.5391
  606MOL0     C81697   2.825  -0.322   5.616  0.2285 -0.5644 -0.2598
  606MOL0     C81698   2.726  -0.430   5.571  0.9796 -0.5163  0.6875
  606MOL0     O81699   2.688  -0.393   5.441  0.1344 -0.0057 -0.0058
  606MOL0     C81700   2.557  -0.354   5.420  0.4845  0.3347 -0.2106
  606MOL0     C81701   2.545  -0.234   5.357  0.1922  0.3973 -0.3906
  606MOL0     C81702   2.416  -0.183   5.333 -0.3186 -0.6558  0.7692
  606MOL0     C81703   2.404  -0.056   5.243  0.0978  1.0504  0.6002
  606MOL0     C81704   2.298  -0.247   5.378 -0.1343  0.1318  0.1128
  606MOL0     C81705   2.158  -0.183   5.370 -0.2143  1.1622  0.8281
  606MOL0     O81706   2.136  -0.089   5.281 -0.1768 -0.1969  0.0310
  606MOL0     C81707   2.007  -0.047   5.263  0.8277 -0.8785 -0.2612
  606MOL0     C81708   1.911  -0.128   5.197 -0.6214 -0.8743  0.0945
  606MOL0     C81709   1.781  -0.082   5.179 -0.3387  0.2954 -0.1205
  606MOL0     C81710   1.746   0.055   5.207  0.3228  0.4264 -0.0767
  606MOL0     O81711   1.621   0.103   5.178  0.0165 -0.2093  1.1978
  606MOL0     C81712   1.514   0.004   5.203  0.7344  0.3436  1.4825
  606MOL0     C81713   1.508  -0.063   5.347  0.1261 -0.4005 -0.3458
  606MOL0     C81714   1.368  -0.117   5.383  0.1848  0.6256 -0.1588
  606MOL0     C81715   1.305  -0.206   5.277  0.2035 -0.0694 -0.6322
  606MOL0     C81716   1.203  -0.292   5.344 -0.9887  0.6241  0.1776
  606MOL0     C81717   1.081  -0.221   5.415 -0.0240 -0.5966  0.6179
  606MOL0     C81718   0.979  -0.331   5.434  0.0732 -0.4707  0.8659
  606MOL0     C81719   0.832  -0.279   5.432  0.9621  0.0389  0.1103
  606MOL0    Cl81720   0.822  -0.147   5.554 -0.2443 -0.1922 -0.4964
  606MOL0     C81721   1.841   0.132   5.278 -0.0258 -0.1738 -0.3970
  606MOL0     C81722   1.972   0.083   5.302  0.5298  0.9137 -0.7059
  606MOL0     O81723   2.080  -0.227   5.451  0.6720  0.2232  0.7254
  606MOL0     C81724   2.313  -0.361   5.451 -0.0291  0.4488 -0.4243
  606MOL0     C81725   2.442  -0.409   5.476 -0.4170  0.6503  0.0903
  606MOL0     N81726   3.238  -0.457   5.369 -0.4632  0.3609 -0.1622
  606MOL0     N81727   3.350  -0.401   5.325  0.2452  0.0327 -0.1594
  606MOL0     C81728   4.364   0.276   5.795 -0.2820  0.2644 -0.3345
  606MOL0     C81729   4.459   0.277   5.903  0.3920  0.5731  0.1788
  606MOL0     C81730   4.637   0.184   6.324  0.7101  0.4589 -0.0148
  606MOL0     C81731   4.623   0.139   6.461 -0.1696  0.6981  0.0629
  606MOL0     C81732   4.742   0.122   6.538 -0.3911  1.0448 -0.3476
  606MOL0     C81733   4.871   0.151   6.489  0.3069 -0.0890  0.2722
  606MOL0     O81734   4.982   0.127   6.577 -0.1163  0.3498  1.1772
  606MOL0     C81735   5.109   0.167   6.538 -0.2276 -0.8123 -0.0689
  606MOL0     C81736   5.209   0.111   6.633 -0.3745  0.6108  0.6313
  606MOL0     C81737   5.353   0.131   6.583 -0.1274 -0.2967  0.7799
  606MOL0     C81738   5.451   0.074   6.679  0.1045 -0.2089  0.0220
  606MOL0     C81739   5.592   0.106   6.652 -0.3268 -0.4603  0.1448
  606MOL0     C81740   5.702   0.137   6.610  0.0871 -0.1412  0.6153
  606MOL0     C81741   4.872   0.202   6.358  0.0152 -0.3863  0.2939
  606MOL0     C81742   4.762   0.208   6.276 -0.3589  0.2737  0.1785
  606MOL0     H81743   4.226   0.200   6.143 -1.7961  0.0545 -0.5949
  606MOL0     H81744   4.078   0.231   5.971  0.0610 -0.5571 -1.6111
  606MOL0     H81745   4.232   0.356   5.565  1.7258 -2.3817 -0.7459
  606MOL0     H81746   4.222   0.178   5.577 -0.9185 -1.2948 -1.0357
  606MOL0     H81747   3.993   0.366   5.483 -0.9890 -0.5536 -3.1817
  606MOL0     H81748   4.105   0.256   5.401  0.4753 -1.8945  1.3090
  606MOL0     H81749   3.977   0.065   5.551 -1.3656 -0.7773 -2.7978
  606MOL0     H81750   3.868   0.205   5.590 -0.1668  1.4116 -0.4580
  606MOL0     H81751   3.812   0.206   5.339  0.4862 -1.2476 -2.3796
  606MOL0     H81752   3.917   0.067   5.339  0.5804  1.6820 -0.5508
  606MOL0     H81753   3.787  -0.033   5.521  3.5247  3.0569  0.7345
  606MOL0     H81754   3.673   0.092   5.538 -1.1096 -0.7628 -0.3171
  606MOL0     H81755   3.578   0.069   5.309 -2.2715 -0.7681 -0.0477
  606MOL0     H81756   3.683  -0.062   5.270  1.5035  1.3828  1.2640
  606MOL0     H81757   3.597  -0.177   5.488  1.8358  2.8527  1.3440
  606MOL0     H81758   3.480  -0.054   5.497  2.6748  0.9339  1.6256
  606MOL0     H81759   3.501  -0.217   5.243 -2.3274  2.7701 -2.5639
  606MOL0     H81760   3.380  -0.092   5.281 -2.9797 -1.9743 -0.9778
  606MOL0     H81761   3.237  -0.182   5.545 -1.7656  1.4303 -1.9946
  606MOL0     H81762   3.017  -0.506   5.508 -1.1538 -1.1305  4.0267
  606MOL0     H81763   3.083  -0.422   5.637  0.0808 -1.8423 -0.0589
  606MOL0     H81764   2.911  -0.287   5.424 -1.0859 -1.3399  1.0680
  606MOL0     H81765   2.999  -0.203   5.548  2.2941  0.3078 -2.4985
  606MOL0     H81766   2.781  -0.223   5.628  0.6567 -0.6037  2.3067
  606MOL0     H81767   2.857  -0.347   5.718 -1.6830  0.5914  0.6842
  606MOL0     H81768   2.639  -0.431   5.637  1.2314 -0.1649  1.0265
  606MOL0     H81769   2.772  -0.529   5.573  3.4725  0.5866  1.9236
  606MOL0     H81770   2.636  -0.188   5.319 -0.2917  1.2620 -0.5252
  606MOL0     H81771   2.358  -0.069   5.144  1.6674  3.5081 -0.5578
  606MOL0     H81772   2.355   0.030   5.290 -0.0333  1.5242 -0.3665
  606MOL0     H81773   2.502  -0.012   5.224  1.3398 -1.6385  0.3870
  606MOL0     H81774   1.943  -0.224   5.157 -0.2295  1.0727 -5.1952
  606MOL0     H81775   1.721  -0.152   5.121  3.8520 -1.1290 -3.3129
  606MOL0     H81776   1.417   0.051   5.185 -0.6547 -1.6920  3.1309
  606MOL0     H81777   1.505  -0.084   5.139  1.2679 -2.3627  4.8235
  606MOL0     H81778   1.577  -0.148   5.359  0.2387 -0.0694  1.8496
  606MOL0     H81779   1.525   0.017   5.419 -2.2029 -1.1986  1.2030
  606MOL0     H81780   1.300  -0.031   5.385 -1.6975 -0.7315 -1.2884
  606MOL0     H81781   1.364  -0.164   5.481 -0.8625  1.4570  0.2197
  606MOL0     H81782   1.255  -0.155   5.194  4.2890  4.1096 -0.8900
  606MOL0     H81783   1.375  -0.283   5.244 -3.0099 -3.2699 -0.6329
  606MOL0     H81784   1.261  -0.348   5.418 -2.1283  0.8765  1.3073
  606MOL0     H81785   1.156  -0.362   5.274  0.2819 -0.6561  0.5535
  606MOL0     H81786   1.108  -0.189   5.516 -1.8747 -0.9882  1.2795
  606MOL0     H81787   1.046  -0.135   5.358 -0.9145  1.0821  3.4814
  606MOL0     H81788   1.007  -0.379   5.529 -1.7886 -3.0669  0.2211
  606MOL0     H81789   0.982  -0.409   5.358  2.7585  0.5123 -0.1415
  606MOL0     H81790   0.765  -0.362   5.458  0.4019 -0.7655 -3.4082
  606MOL0     H81791   0.801  -0.253   5.330  0.9555  1.2476  0.4054
  606MOL0     H81792   1.812   0.234   5.302 -0.9082 -0.6404  0.6147
  606MOL0     H81793   2.037   0.146   5.360  0.4779 -1.1437  1.7564
  606MOL0     H81794   2.232  -0.419   5.492  2.0464 -1.5556  1.1151
  606MOL0     H81795   2.454  -0.500   5.535 -1.5448  0.7612  0.5104
  606MOL0     H81796   4.397   0.285   5.692 -1.3489  0.1288 -0.6948
  606MOL0     H81797   4.565   0.293   5.887 -0.1622  3.7740 -1.0284
  606MOL0     H81798   4.529   0.118   6.511  0.0088 -0.9508 -0.2561
  606MOL0     H81799   4.733   0.077   6.636 -0.4912 -0.1818 -0.8967
  606MOL0     H81800   5.131   0.141   6.434 -3.7373 -5.7602  0.0947
  606MOL0     H81801   5.117   0.275   6.549 -0.3534 -0.9388  1.6947
  606MOL0     H81802   5.204   0.002   6.643 -0.1275  0.4293 -1.0703
  606MOL0     H81803   5.199   0.158   6.732 -1.4423  1.2169  0.2473
  606MOL0     H81804   5.387   0.235   6.579  2.7125 -1.1484 -0.8399
  606MOL0     H81805   5.375   0.085   6.486 -0.6654  0.1493  0.4420
  606MOL0     H81806   5.433  -0.034   6.686  2.3839 -0.6007  0.5127
  606MOL0     H81807   5.424   0.122   6.774  0.9367  1.7547 -0.6935
  606MOL0     H81808   5.805   0.142   6.581 -0.0868 -2.7632 -0.8276
  606MOL0     H81809   4.958   0.246   6.309 -1.5765 -0.3909 -2.7648
  606MOL0     H81810   4.782   0.233   6.173  0.0795 -1.4113 -0.1780
  607MOL0     O81811   4.452   4.345   2.910 -0.1063  0.3944 -0.7189
  607MOL0     C81812   4.521   4.247   2.876  0.2094  0.5043  0.6371
  607MOL0     O81813   4.468   4.125   2.854  0.1854 -0.0693  0.3677
  607MOL0     C81814   4.333   4.125   2.836 -0.6937  0.4455 -0.2498
  607MOL0     C81815   4.266   4.042   2.916  0.0110  0.3146 -0.0629
  607MOL0     C81816   4.126   4.026   2.895  0.3060  0.1750  0.5900
  607MOL0     C81817   4.050   4.098   2.797 -0.8948  0.3583 -0.4664
  607MOL0     O81818   3.910   4.077   2.794  0.2004  0.5188  0.1703
  607MOL0     C81819   3.847   4.143   2.689 -0.8050 -0.4156  0.5312
  607MOL0     C81820   3.695   4.113   2.695  0.0297 -0.3230 -0.5465
  607MOL0     C81821   3.613   4.202   2.599  0.1197 -0.2681 -0.8517
  607MOL0     C81822   3.464   4.176   2.641 -0.5173 -0.3554  0.5255
  607MOL0     C81823   3.367   4.204   2.524 -0.1896 -0.1007  0.1444
  607MOL0     C81824   3.225   4.210   2.585 -0.3103  0.4490  0.2316
  607MOL0     C81825   3.131   4.297   2.497 -0.3484 -0.8791 -0.6048
  607MOL0     C81826   2.984   4.297   2.557 -0.8084  0.6681  0.3099
  607MOL0     N81827   2.885   4.361   2.459 -0.9202  1.6169  0.2217
  607MOL0     C81828   2.755   4.328   2.453 -0.2448 -0.4149 -0.8153
  607MOL0     C81829   2.698   4.414   2.369  0.6498 -0.4091  0.2127
  607MOL0     C81830   2.551   4.417   2.329 -0.3940  0.4757  0.0700
  607MOL0     C81831   2.527   4.334   2.210 -0.1691  0.0431  0.1517
  607MOL0     C81832   2.399   4.358   2.134  0.5145  0.9533 -0.2233
  607MOL0     C81833   2.269   4.312   2.214  0.2863  0.4805  0.3289
  607MOL0     O81834   2.155   4.324   2.134  0.0605 -0.2897 -0.0014
  607MOL0     C81835   2.091   4.210   2.092 -0.1326 -0.3797  0.1905
  607MOL0     C81836   2.055   4.202   1.949 -0.3645  0.4645  0.4052
  607MOL0     C81837   1.968   4.104   1.907  0.2612  0.2856  0.0485
  607MOL0     C81838   1.923   4.125   1.765 -0.6478  0.0368 -0.5689
  607MOL0     C81839   1.906   4.015   1.997 -0.7619 -0.5661  0.1111
  607MOL0     C81840   1.823   3.900   1.960  1.3353 -0.0892  0.2571
  607MOL0     O81841   1.717   3.876   2.047  0.1151 -0.9426  0.5740
  607MOL0     C81842   1.642   3.774   1.994 -0.4111  0.1618  0.3665
  607MOL0     C81843   1.554   3.770   1.884 -0.7368  1.1287  0.4648
  607MOL0     C81844   1.471   3.660   1.859  0.0202  0.1395  0.7969
  607MOL0     C81845   1.466   3.547   1.932 -0.8766 -0.5164  0.0258
  607MOL0     O81846   1.384   3.455   1.884  0.1853  0.6342  0.4802
  607MOL0     C81847   1.391   3.325   1.945  0.0479  0.6279  0.0527
  607MOL0     C81848   1.286   3.297   2.051  0.6033 -0.2562  0.1298
  607MOL0     C81849   1.317   3.155   2.123  1.1525 -0.5756 -0.4195
  607MOL0     C81850   1.238   3.147   2.252 -0.6250 -0.5883 -0.1682
  607MOL0     C81851   1.176   3.003   2.278 -0.1466  0.3552 -0.1789
  607MOL0     C81852   1.092   3.003   2.400 -0.0012  0.1384  0.1023
  607MOL0     C81853   1.044   2.860   2.425  0.7041  1.2012  0.0212
  607MOL0     C81854   0.926   2.843   2.530 -0.7321  0.3884 -0.3495
  607MOL0    Cl81855   0.786   2.938   2.483  0.0864  0.3936  0.2584
  607MOL0     C81856   1.546   3.553   2.048  0.0115  0.5317 -0.7650
  607MOL0     C81857   1.632   3.668   2.075  0.7022 -0.2345  0.3063
  607MOL0     O81858   1.852   3.837   1.856 -0.0616  0.3477  0.2829
  607MOL0     C81859   1.954   4.016   2.128 -0.1171  0.0699 -1.0636
  607MOL0     C81860   2.042   4.111   2.177  0.2601 -0.2611  0.1450
  607MOL0     N81861   2.795   4.506   2.333  0.4755  0.1536 -0.8063
  607MOL0     N81862   2.908   4.476   2.396  0.6760 -0.5741  0.8299
  607MOL0     C81863   4.124   4.182   2.711  0.5507 -0.6555 -1.0110
  607MOL0     C81864   4.264   4.189   2.727  0.4458 -0.2608  1.1615
  607MOL0     C81865   4.668   4.261   2.871  0.1089 -0.4709  0.2923
  607MOL0     C81866   4.745   4.156   2.826  0.2329  0.3857  0.1763
  607MOL0     C81867   4.886   4.173   2.810  0.1034  0.0398 -0.4929
  607MOL0     C81868   4.938   4.300   2.815 -0.1755 -0.1576  0.5274
  607MOL0     O81869   5.076   4.304   2.794 -0.1092 -0.6482 -0.6431
  607MOL0     C81870   5.139   4.431   2.790 -0.3931  0.5237 -0.5740
  607MOL0     C81871   5.165   4.493   2.925  0.6036  0.5083  0.3273
  607MOL0     C81872   5.256   4.403   3.006  0.0451  0.4428 -0.1821
  607MOL0     C81873   5.269   4.451   3.157  0.6186  0.8262  0.1198
  607MOL0     C81874   5.409   4.475   3.209 -0.3814 -0.7454 -0.0268
  607MOL0     C81875   5.517   4.494   3.252 -0.3908  0.8848 -0.1731
  607MOL0     C81876   4.858   4.406   2.853 -0.4309 -0.4996 -0.5536
  607MOL0     C81877   4.725   4.378   2.894 -0.1569  0.8338 -0.4765
  607MOL0     H81878   4.318   3.972   2.982 -0.8010 -1.6496 -1.3973
  607MOL0     H81879   4.060   3.959   2.950 -1.2540  0.5407 -0.7336
  607MOL0     H81880   3.860   4.251   2.705 -2.6297 -0.2757  1.4349
  607MOL0     H81881   3.889   4.104   2.596 -0.1384 -0.2944  0.7782
  607MOL0     H81882   3.690   4.007   2.669  0.4809 -1.3334  2.9739
  607MOL0     H81883   3.663   4.126   2.799 -0.4596  0.0880 -0.7386
  607MOL0     H81884   3.646   4.305   2.614  2.0714 -0.6749 -2.0156
  607MOL0     H81885   3.637   4.173   2.496  2.9641  1.0117 -0.6289
  607MOL0     H81886   3.453   4.074   2.677  2.3050 -1.5481 -1.5931
  607MOL0     H81887   3.437   4.228   2.733 -1.2959 -1.6964  1.0798
  607MOL0     H81888   3.390   4.303   2.484 -1.1126  1.1035  2.4113
  607MOL0     H81889   3.377   4.128   2.446  1.6238 -0.0487  0.2845
  607MOL0     H81890   3.194   4.105   2.586  2.2934 -0.3818  0.3636
  607MOL0     H81891   3.225   4.254   2.685  0.5380  1.3691 -0.1580
  607MOL0     H81892   3.168   4.400   2.494 -1.5795 -0.3666  0.5739
  607MOL0     H81893   3.130   4.250   2.399 -2.5824 -0.5896 -0.7715
  607MOL0     H81894   2.972   4.347   2.653  1.7440  3.1144 -0.5042
  607MOL0     H81895   2.959   4.191   2.561 -0.2970  0.5007 -0.5187
  607MOL0     H81896   2.704   4.243   2.497 -0.3848  0.6716  1.2676
  607MOL0     H81897   2.494   4.379   2.415  1.4352 -0.0659  1.1128
  607MOL0     H81898   2.516   4.519   2.312 -0.2082  0.8721  1.8823
  607MOL0     H81899   2.534   4.227   2.233 -1.0810  0.4467  2.5839
  607MOL0     H81900   2.603   4.358   2.135 -0.5699 -2.4064 -1.1375
  607MOL0     H81901   2.400   4.304   2.038 -0.6426 -0.6018  0.5947
  607MOL0     H81902   2.390   4.466   2.121  0.7537  0.9386 -0.5346
  607MOL0     H81903   2.260   4.376   2.302 -0.3255  2.8456 -1.3733
  607MOL0     H81904   2.286   4.205   2.233  1.4237  0.1371 -2.1965
  607MOL0     H81905   2.107   4.270   1.882  0.3925 -0.7715 -0.3070
  607MOL0     H81906   1.909   4.233   1.757  0.9822  0.3221  0.0873
  607MOL0     H81907   2.006   4.097   1.699 -1.2182 -1.2342 -0.7753
  607MOL0     H81908   1.831   4.069   1.743 -0.1232 -1.4732  0.9149
  607MOL0     H81909   1.568   3.844   1.807  4.5055  0.9542  0.9096
  607MOL0     H81910   1.421   3.666   1.762 -1.5933  1.5572  1.6659
  607MOL0     H81911   1.364   3.247   1.873 -1.0066 -1.0444  2.1428
  607MOL0     H81912   1.488   3.309   1.992 -0.5494  0.2553  1.1882
  607MOL0     H81913   1.300   3.380   2.121 -0.6993 -0.4713  0.6831
  607MOL0     H81914   1.187   3.297   2.004 -0.3123  2.3624  1.8830
  607MOL0     H81915   1.424   3.139   2.142  1.6073 -0.1739 -2.3998
  607MOL0     H81916   1.276   3.081   2.054 -3.5452 -0.9218  2.3879
  607MOL0     H81917   1.297   3.169   2.341 -0.0424 -1.6816 -0.2651
  607MOL0     H81918   1.160   3.224   2.247  0.1042  0.1894  0.1297
  607MOL0     H81919   1.256   2.929   2.284 -1.4594 -0.9814  1.9111
  607MOL0     H81920   1.110   2.970   2.197 -1.5846 -0.8136  1.4072
  607MOL0     H81921   1.143   3.031   2.492 -1.4189  2.2136  0.3102
  607MOL0     H81922   1.003   3.061   2.374 -1.4952 -1.8602  0.5207
  607MOL0     H81923   1.129   2.799   2.457  0.0959 -0.9411 -2.0541
  607MOL0     H81924   1.004   2.816   2.333  1.1378 -0.1474  0.4558
  607MOL0     H81925   0.953   2.878   2.629 -1.6716  1.8777 -0.5938
  607MOL0     H81926   0.898   2.738   2.544  1.6784 -0.3672 -0.7269
  607MOL0     H81927   1.545   3.468   2.115 -2.1246 -0.5110 -1.9841
  607MOL0     H81928   1.695   3.674   2.163 -1.0515  1.4489  1.5185
  607MOL0     H81929   1.910   3.943   2.196 -0.4246  0.8886 -0.3644
  607MOL0     H81930   2.079   4.091   2.277  3.1474 -0.3452 -0.8522
  607MOL0     H81931   4.074   4.243   2.636 -1.9174  1.8607  2.3633
  607MOL0     H81932   4.322   4.245   2.655  1.5199 -1.8182  0.7719
  607MOL0     H81933   4.710   4.054   2.814 -3.5201  1.3705  1.5595
  607MOL0     H81934   4.956   4.093   2.789 -0.4605 -1.3562  2.3754
  607MOL0     H81935   5.234   4.418   2.737 -1.2477 -2.1652 -1.6453
  607MOL0     H81936   5.080   4.507   2.738 -1.3535  1.0297  1.1702
  607MOL0     H81937   5.072   4.507   2.981  0.8820  2.6281  0.3506
  607MOL0     H81938   5.210   4.593   2.926 -0.8973  1.2167  0.3504
  607MOL0     H81939   5.350   4.394   2.952  0.4546  1.8882  0.2535
  607MOL0     H81940   5.205   4.307   3.021 -0.6830  0.7640 -0.5324
  607MOL0     H81941   5.206   4.380   3.212 -0.5072 -0.2954 -2.4186
  607MOL0     H81942   5.222   4.549   3.152 -1.4992 -0.1966 -2.8133
  607MOL0     H81943   5.620   4.514   3.277 -0.3025  0.4093 -0.1506
  607MOL0     H81944   4.890   4.510   2.853  1.3132 -0.9913 -1.7119
  607MOL0     H81945   4.673   4.460   2.943  0.0551 -0.9590  3.0939
  608MOL0     O81946   2.166   0.479   5.816 -0.5277 -0.2338 -0.8028
  608MOL0     C81947   2.213   0.596   5.795  0.1647 -0.1220 -0.1137
  608MOL0     O81948   2.146   0.711   5.784  1.0429 -0.4361  0.8425
  608MOL0     C81949   2.007   0.710   5.811 -0.2115 -0.9938  0.2921
  608MOL0     C81950   1.940   0.818   5.752 -0.5346 -0.2465 -0.7473
  608MOL0     C81951   1.806   0.839   5.769  0.7481 -0.0015  0.2736
  608MOL0     C81952   1.730   0.760   5.847 -0.0549 -0.0125  0.3080
  608MOL0     O81953   1.589   0.773   5.862  0.9824 -0.5364 -0.8204
  608MOL0     C81954   1.496   0.666   5.860  0.4679 -0.7636 -0.2293
  608MOL0     C81955   1.378   0.706   5.950  0.0734  0.5143 -0.1618
  608MOL0     C81956   1.267   0.606   5.944  0.5288 -0.6096 -0.0971
  608MOL0     C81957   1.139   0.662   5.875 -0.3630  0.6565 -0.3774
  608MOL0     C81958   1.028   0.565   5.925 -0.3181  0.2401  0.1148
  608MOL0     C81959   0.889   0.616   5.888 -0.4653  0.8943 -0.6662
  608MOL0     C81960   0.862   0.615   5.735 -0.4075  0.9381  0.2743
  608MOL0     C81961   0.723   0.673   5.700 -0.2213  0.4261 -0.3431
  608MOL0     N81962   0.615   0.643   5.789 -0.2171  0.6939  0.6011
  608MOL0     C81963   0.541   0.738   5.856 -0.1205  0.3012  0.0195
  608MOL0     C81964   0.440   0.670   5.911 -0.3065 -0.0706  0.1886
  608MOL0     C81965   0.328   0.740   5.985  1.0306  1.1183  0.5970
  608MOL0     C81966   0.193   0.716   5.920 -0.1255  0.0708 -0.1038
  608MOL0     C81967   0.113   0.843   5.947 -0.6456 -0.1680 -0.1319
  608MOL0     C81968  -0.038   0.808   5.936 -1.0179  0.5157 -0.1497
  608MOL0     O81969  -0.075   0.714   6.035  0.1878  0.0918 -0.3659
  608MOL0     C81970  -0.210   0.691   6.036 -0.2195  0.2275  0.1171
  608MOL0     C81971  -0.306   0.775   5.977  0.2635 -0.6743  0.8617
  608MOL0     C81972  -0.444   0.754   5.986 -0.5401 -0.9908 -0.0069
  608MOL0     C81973  -0.536   0.868   5.928 -0.8797  1.0255 -0.5165
  608MOL0     C81974  -0.488   0.653   6.063  0.0160  0.8032  0.4339
  608MOL0     C81975  -0.628   0.614   6.077  0.8962 -0.1844 -0.6800
  608MOL0     O81976  -0.664   0.552   6.192  0.7137 -0.5546  0.0334
  608MOL0     C81977  -0.789   0.507   6.192 -0.3938 -0.0920 -0.1072
  608MOL0     C81978  -0.879   0.574   6.278 -0.0133 -0.1696 -0.9407
  608MOL0     C81979  -1.018   0.534   6.293 -0.6208  0.1854  0.0946
  608MOL0     C81980  -1.056   0.421   6.224 -0.6334  0.6148  1.2653
  608MOL0     O81981  -1.184   0.376   6.223  0.0462 -0.3473  0.2239
  608MOL0     C81982  -1.257   0.446   6.123 -0.2989 -0.2523 -0.8819
  608MOL0     C81983  -1.413   0.453   6.140 -0.7188 -0.1176 -0.6489
  608MOL0     C81984  -1.480   0.518   6.023  0.5294 -0.4630  0.2546
  608MOL0     C81985  -1.639   0.493   6.017  0.0773 -0.3624  0.2098
  608MOL0     C81986  -1.723   0.576   5.920 -0.3962 -0.6939 -0.2611
  608MOL0     C81987  -1.871   0.539   5.936 -0.4451 -0.4235 -0.3043
  608MOL0     C81988  -1.955   0.627   5.846 -0.1650 -0.7267 -0.0974
  608MOL0     C81989  -2.104   0.592   5.855  0.1949 -0.5459  0.0629
  608MOL0    Cl81990  -2.123   0.466   5.725  0.4706 -0.0497  0.4220
  608MOL0     C81991  -0.960   0.345   6.141  0.2397  0.4748  0.1663
  608MOL0     C81992  -0.823   0.390   6.134  0.0387  0.7361 -0.7807
  608MOL0     O81993  -0.702   0.629   5.980  0.7135 -0.4310 -0.3642
  608MOL0     C81994  -0.393   0.571   6.127 -0.9376  0.1633 -0.5011
  608MOL0     C81995  -0.255   0.586   6.113 -0.9714 -0.0457  1.1350
  608MOL0     N81996   0.451   0.534   5.876 -0.1213 -0.1249  0.6809
  608MOL0     N81997   0.559   0.520   5.808  0.4253  0.3901 -0.2447
  608MOL0     C81998   1.794   0.654   5.916 -1.4478 -0.1336 -0.5960
  608MOL0     C81999   1.934   0.626   5.897  0.3115  0.1264 -0.6145
  608MOL0     C82000   2.359   0.605   5.779  0.6926  0.0925 -0.6372
  608MOL0     C82001   2.437   0.492   5.786 -0.0829  0.4508 -0.0738
  608MOL0     C82002   2.575   0.497   5.774 -0.6575 -0.5835  0.9763
  608MOL0     C82003   2.645   0.628   5.751 -0.0669  1.6180  0.2534
  608MOL0     O82004   2.784   0.645   5.755 -0.2089  0.4023  0.3823
  608MOL0     C82005   2.873   0.532   5.786 -0.2185  0.6988 -0.0662
  608MOL0     C82006   3.010   0.567   5.852 -0.1831  0.5496  0.1077
  608MOL0     C82007   3.112   0.637   5.753  0.6016 -0.2534 -0.3892
  608MOL0     C82008   3.232   0.694   5.827  0.2171  0.4114  0.0990
  608MOL0     C82009   3.331   0.749   5.734  0.9017  0.6556  0.0917
  608MOL0     C82010   3.406   0.774   5.637 -0.3654  0.3764 -0.4778
  608MOL0     C82011   2.554   0.739   5.735 -0.3998  0.5693  0.3280
  608MOL0     C82012   2.420   0.729   5.753  0.3190 -0.2163 -1.1579
  608MOL0     H82013   1.996   0.890   5.693 -0.7514  0.9935  0.4890
  608MOL0     H82014   1.751   0.915   5.713 -0.5094 -0.3062  1.0642
  608MOL0     H82015   1.461   0.648   5.758 -0.6458 -0.0783  0.0113
  608MOL0     H82016   1.538   0.574   5.902  0.5121 -0.0712  1.3299
  608MOL0     H82017   1.403   0.706   6.056  0.3405  0.1554 -0.2220
  608MOL0     H82018   1.352   0.809   5.924  1.2146  0.1662 -3.0889
  608MOL0     H82019   1.304   0.514   5.897 -0.2805 -1.2618  0.5017
  608MOL0     H82020   1.241   0.576   6.047 -0.4451  1.1802  0.2222
  608MOL0     H82021   1.125   0.760   5.922 -0.1671 -0.0394  1.1561
  608MOL0     H82022   1.153   0.664   5.766  0.0020 -3.6876 -0.5564
  608MOL0     H82023   1.049   0.464   5.889  1.1050  1.0738 -1.5416
  608MOL0     H82024   1.035   0.557   6.034  0.4767 -1.0670 -0.0005
  608MOL0     H82025   0.802   0.575   5.940 -0.5907  0.7933 -0.9532
  608MOL0     H82026   0.894   0.723   5.910  0.2508  0.6127  0.6618
  608MOL0     H82027   0.943   0.660   5.676  1.1251 -1.0229  0.7961
  608MOL0     H82028   0.865   0.509   5.708  1.1814  1.1616 -0.5554
  608MOL0     H82029   0.690   0.639   5.601 -0.2448  1.5492 -0.7264
  608MOL0     H82030   0.718   0.782   5.704  0.8793  0.4568  1.2988
  608MOL0     H82031   0.557   0.845   5.861  3.0496 -0.0382 -0.9198
  608MOL0     H82032   0.313   0.696   6.084 -1.4479 -1.1790 -0.6443
  608MOL0     H82033   0.346   0.847   5.995 -1.2442  1.6249 -0.1247
  608MOL0     H82034   0.147   0.626   5.963  1.0927 -0.0582  0.9726
  608MOL0     H82035   0.199   0.695   5.813 -1.7867 -1.0046 -0.0226
  608MOL0     H82036   0.138   0.925   5.880  0.2137 -1.3156 -1.2680
  608MOL0     H82037   0.133   0.882   6.047  1.0037  0.4597 -0.6795
  608MOL0     H82038  -0.057   0.768   5.836 -0.3524 -0.1737 -0.0110
  608MOL0     H82039  -0.085   0.906   5.942 -0.9096  0.4986  1.2443
  608MOL0     H82040  -0.280   0.861   5.917  2.2769 -0.8704  1.3920
  608MOL0     H82041  -0.625   0.878   5.991 -2.6311 -2.5966 -2.1089
  608MOL0     H82042  -0.476   0.959   5.927 -2.1537  1.8966 -1.0162
  608MOL0     H82043  -0.582   0.840   5.833 -1.6556 -1.9151  0.6194
  608MOL0     H82044  -0.849   0.654   6.346 -1.3507 -1.3579  1.1606
  608MOL0     H82045  -1.084   0.593   6.356  1.4954  2.8931  0.0058
  608MOL0     H82046  -1.223   0.550   6.112 -0.0379 -0.3469 -0.9636
  608MOL0     H82047  -1.242   0.394   6.028 -0.8602 -2.0627 -0.0139
  608MOL0     H82048  -1.453   0.352   6.149 -2.0274  0.4602  0.4793
  608MOL0     H82049  -1.441   0.512   6.228 -0.3325  1.3353 -1.4638
  608MOL0     H82050  -1.444   0.476   5.929  0.5722  0.6599 -0.2410
  608MOL0     H82051  -1.461   0.625   6.034  0.0697 -0.5590  2.7263
  608MOL0     H82052  -1.658   0.386   6.003  0.7833 -0.3886 -0.6247
  608MOL0     H82053  -1.686   0.512   6.114 -1.8466 -1.4037 -0.4484
  608MOL0     H82054  -1.701   0.566   5.813 -1.5555  0.0165 -0.5829
  608MOL0     H82055  -1.709   0.681   5.947 -0.1404 -1.0758  1.1531
  608MOL0     H82056  -1.880   0.431   5.918 -0.2327 -0.6645  0.9785
  608MOL0     H82057  -1.913   0.560   6.035 -1.7030 -0.0861 -0.8907
  608MOL0     H82058  -1.910   0.608   5.748 -0.1202 -0.6299 -0.0952
  608MOL0     H82059  -1.945   0.732   5.874  0.8426 -0.2691 -1.9810
  608MOL0     H82060  -2.156   0.686   5.831  1.3617  0.2370  0.4985
  608MOL0     H82061  -2.141   0.550   5.949 -4.9445  0.4880 -1.1979
  608MOL0     H82062  -0.988   0.260   6.081  1.5876  1.4251 -1.9063
  608MOL0     H82063  -0.741   0.339   6.086 -0.4019  1.2404 -2.0962
  608MOL0     H82064  -0.425   0.489   6.191 -1.2027 -0.0103 -0.8522
  608MOL0     H82065  -0.188   0.521   6.169  0.4572  0.8136  0.4837
  608MOL0     H82066   1.741   0.579   5.973 -1.1917 -1.3257 -1.8957
  608MOL0     H82067   1.978   0.547   5.957 -2.3008 -2.0335 -1.3682
  608MOL0     H82068   2.394   0.394   5.803 -2.0506  1.5586  1.8392
  608MOL0     H82069   2.638   0.409   5.781  1.3340  0.5673 -0.9821
  608MOL0     H82070   2.823   0.464   5.855 -3.6921  0.4011 -2.6474
  608MOL0     H82071   2.881   0.464   5.701 -0.4510  0.1017  0.3806
  608MOL0     H82072   3.056   0.474   5.888 -2.7904 -0.5015  0.9903
  608MOL0     H82073   2.988   0.631   5.938 -0.0619 -0.0280  0.5720
  608MOL0     H82074   3.062   0.722   5.705 -0.7260 -1.6048 -1.5011
  608MOL0     H82075   3.131   0.573   5.666 -1.9938  1.0119 -2.0266
  608MOL0     H82076   3.289   0.614   5.877  0.8681  0.4854 -0.4983
  608MOL0     H82077   3.194   0.760   5.906 -0.8586 -2.3763  2.0792
  608MOL0     H82078   3.488   0.804   5.575  0.2143  1.5040  0.7912
  608MOL0     H82079   2.604   0.834   5.721  1.3775 -0.1502  1.3923
  608MOL0     H82080   2.356   0.816   5.739  0.2328 -0.2508 -0.9783
  609MOL0     O82081   3.559   2.060   4.520 -0.3248  0.0044  0.9762
  609MOL0     C82082   3.543   1.948   4.476 -0.6832 -0.3783 -0.1772
  609MOL0     O82083   3.433   1.869   4.505 -0.1147  1.3243 -0.0471
  609MOL0     C82084   3.323   1.921   4.569  0.1663  0.2762 -0.2454
  609MOL0     C82085   3.267   2.054   4.535  0.1854 -0.4345  0.1930
  609MOL0     C82086   3.152   2.102   4.603 -0.4580 -0.0446 -0.2169
  609MOL0     C82087   3.095   2.032   4.708  1.0817  0.4424  0.7410
  609MOL0     O82088   2.982   2.093   4.783 -0.0382  0.3910  0.3364
  609MOL0     C82089   2.952   2.033   4.914 -0.2642 -0.0027 -0.0400
  609MOL0     C82090   2.818   2.104   4.977 -0.0591  0.2564  0.5452
  609MOL0     C82091   2.841   2.250   4.975 -0.2238 -0.9055  0.8127
  609MOL0     C82092   2.754   2.331   5.066 -0.3649  0.1904 -0.3966
  609MOL0     C82093   2.808   2.479   5.061  0.0948 -1.3089 -0.0117
  609MOL0     C82094   2.723   2.583   5.140 -0.2886 -0.5923 -0.9662
  609MOL0     C82095   2.766   2.728   5.098 -0.6368  0.5544  0.1403
  609MOL0     C82096   2.918   2.748   5.136 -0.7872 -0.4789 -0.7353
  609MOL0     N82097   2.939   2.758   5.282  0.5042 -0.6535  0.6170
  609MOL0     C82098   3.060   2.736   5.348  0.3346 -0.3018 -0.1114
  609MOL0     C82099   3.044   2.774   5.475 -0.4782  0.4925 -0.2640
  609MOL0     C82100   3.148   2.773   5.575 -0.4397  1.1112 -0.1458
  609MOL0     C82101   3.179   2.626   5.629 -0.0745 -0.3675  1.0225
  609MOL0     C82102   3.304   2.637   5.706  1.0645  0.0761 -0.5463
  609MOL0     C82103   3.312   2.505   5.786 -0.0897 -0.4453 -0.2335
  609MOL0     O82104   3.274   2.391   5.701  0.1718  1.0113 -0.1101
  609MOL0     C82105   3.170   2.313   5.752 -0.3148 -0.2350  1.0263
  609MOL0     C82106   3.059   2.355   5.827 -0.1817  0.2587  0.5512
  609MOL0     C82107   2.948   2.273   5.851 -0.5074  0.2523  0.3785
  609MOL0     C82108   2.830   2.339   5.930 -0.3581  0.3358 -0.0693
  609MOL0     C82109   2.946   2.133   5.808  1.1045 -0.2140  0.1396
  609MOL0     C82110   2.844   2.037   5.843 -1.1003  1.0131  0.0529
  609MOL0     O82111   2.727   2.083   5.888  0.0407 -0.9421  0.1455
  609MOL0     C82112   2.624   2.005   5.936 -0.6579  0.8928  0.2529
  609MOL0     C82113   2.508   2.065   5.948 -0.1962 -0.1346  0.8436
  609MOL0     C82114   2.401   1.998   6.011 -0.0326  0.0538  0.7180
  609MOL0     C82115   2.416   1.872   6.070  0.0960  0.4212  0.1709
  609MOL0     O82116   2.318   1.810   6.138 -0.8385  0.5006  0.0877
  609MOL0     C82117   2.186   1.817   6.094  0.0502  1.0328 -0.3731
  609MOL0     C82118   2.139   1.687   6.014 -0.4946  0.2867 -1.5301
  609MOL0     C82119   1.991   1.697   5.976 -0.4374  0.7009  0.2873
  609MOL0     C82120   1.899   1.573   5.956  0.7209  0.7137 -0.4215
  609MOL0     C82121   1.866   1.500   6.090 -0.3550  0.3829 -0.1291
  609MOL0     C82122   1.785   1.598   6.190  0.2179  0.1965 -0.0630
  609MOL0     C82123   1.644   1.627   6.130 -0.2096 -0.0362 -0.2780
  609MOL0     C82124   1.544   1.696   6.217  0.0864 -1.4981 -0.1408
  609MOL0    Cl82125   1.396   1.733   6.111  0.2345 -0.3527 -0.0924
  609MOL0     C82126   2.539   1.814   6.063  0.1752 -0.4446 -0.2077
  609MOL0     C82127   2.642   1.873   5.994 -0.0527 -0.2001  0.2721
  609MOL0     O82128   2.870   1.918   5.818  0.3292 -0.5282  0.4727
  609MOL0     C82129   3.060   2.093   5.734 -0.4722 -0.4021 -0.3330
  609MOL0     C82130   3.167   2.178   5.708  0.2162  0.0799  0.2436
  609MOL0     N82131   2.914   2.819   5.487  0.2288  0.0121  0.6037
  609MOL0     N82132   2.854   2.817   5.376  0.2319  0.4222  0.7810
  609MOL0     C82133   3.139   1.904   4.736  0.0617 -0.1345  0.1214
  609MOL0     C82134   3.249   1.847   4.666 -0.1704 -0.5320  0.1885
  609MOL0     C82135   3.656   1.891   4.397  0.4605 -0.3223  0.1573
  609MOL0     C82136   3.634   1.773   4.324 -0.7860 -0.6004  0.1392
  609MOL0     C82137   3.730   1.723   4.244 -0.5641 -0.1252 -0.0355
  609MOL0     C82138   3.854   1.787   4.224  0.1530  0.3694  0.4907
  609MOL0     O82139   3.949   1.738   4.146 -0.3514  0.1506  0.2366
  609MOL0     C82140   4.084   1.741   4.203 -0.2037 -0.2544 -0.6416
  609MOL0     C82141   4.180   1.845   4.150 -0.3612 -0.0015  0.0396
  609MOL0     C82142   4.321   1.779   4.151 -0.6424 -0.6108  0.2999
  609MOL0     C82143   4.438   1.883   4.134 -0.0469  0.2997 -0.4830
  609MOL0     C82144   4.574   1.819   4.128 -0.3993 -0.2186 -0.7297
  609MOL0     C82145   4.682   1.761   4.111  0.0182 -0.3711  0.0581
  609MOL0     C82146   3.877   1.906   4.300  0.3422  0.0916 -0.7441
  609MOL0     C82147   3.779   1.956   4.386 -0.2011 -0.4390  0.1805
  609MOL0     H82148   3.305   2.124   4.461 -1.9461 -0.7814 -1.3000
  609MOL0     H82149   3.108   2.199   4.579  0.0426  0.7287  1.8094
  609MOL0     H82150   2.933   1.925   4.914  1.5107 -0.3476  0.3942
  609MOL0     H82151   3.040   2.042   4.978 -0.2568  1.7307 -0.2361
  609MOL0     H82152   2.729   2.071   4.924 -0.2151 -0.2770  1.1333
  609MOL0     H82153   2.793   2.068   5.077  3.4472  1.1640  1.9221
  609MOL0     H82154   2.947   2.273   4.991 -0.1117  0.0091 -1.0156
  609MOL0     H82155   2.814   2.275   4.872 -1.5457 -0.2599  1.2951
  609MOL0     H82156   2.652   2.329   5.025 -1.3401  0.9708  1.8418
  609MOL0     H82157   2.770   2.303   5.170  0.2036  1.3780 -0.1561
  609MOL0     H82158   2.912   2.470   5.091  0.2717  1.4603  0.3882
  609MOL0     H82159   2.804   2.503   4.954 -0.6088 -3.0443 -0.4165
  609MOL0     H82160   2.622   2.555   5.110 -0.5284 -0.4552 -0.3156
  609MOL0     H82161   2.745   2.573   5.247  2.2559  0.5704 -1.2984
  609MOL0     H82162   2.765   2.727   4.989  1.1633  0.1438  0.0985
  609MOL0     H82163   2.695   2.798   5.143 -0.6684 -0.8737  2.5212
  609MOL0     H82164   2.938   2.848   5.097  0.2424 -1.2147 -2.2303
  609MOL0     H82165   2.991   2.672   5.107 -0.8063 -0.6252 -0.4101
  609MOL0     H82166   3.154   2.698   5.307 -1.0235 -1.2483 -2.6122
  609MOL0     H82167   3.238   2.825   5.539  0.2292 -0.4325 -0.8023
  609MOL0     H82168   3.111   2.832   5.659 -0.1539  2.1206 -0.7093
  609MOL0     H82169   3.186   2.555   5.547 -0.9338  0.8388 -0.1502
  609MOL0     H82170   3.088   2.600   5.684 -2.7824  2.8204 -1.4970
  609MOL0     H82171   3.298   2.725   5.772 -0.6614  2.3570 -3.4836
  609MOL0     H82172   3.394   2.641   5.645  1.1265  3.3578 -0.4033
  609MOL0     H82173   3.245   2.515   5.872 -2.1708  2.4215 -2.0417
  609MOL0     H82174   3.408   2.489   5.836 -1.7259 -1.1893  2.9412
  609MOL0     H82175   3.047   2.460   5.854 -0.7932  0.0129  1.2739
  609MOL0     H82176   2.854   2.443   5.953 -2.1601  0.1150  3.5277
  609MOL0     H82177   2.745   2.327   5.862  0.3864 -1.1786 -0.7905
  609MOL0     H82178   2.807   2.293   6.027  1.1957  0.2094  0.2600
  609MOL0     H82179   2.494   2.160   5.897 -3.6690 -1.5491 -1.2071
  609MOL0     H82180   2.302   2.043   6.015 -0.4487 -0.8361  4.4695
  609MOL0     H82181   2.123   1.816   6.184  1.1555  0.4617  0.4226
  609MOL0     H82182   2.157   1.901   6.031 -3.4349 -1.8675 -3.0583
  609MOL0     H82183   2.205   1.669   5.929  0.3547 -2.0610 -0.4557
  609MOL0     H82184   2.158   1.600   6.078 -1.1230  1.1693 -0.0893
  609MOL0     H82185   1.987   1.747   5.878  0.4306 -0.2207 -0.2308
  609MOL0     H82186   1.947   1.760   6.054 -2.9725 -2.6525  1.8295
  609MOL0     H82187   1.808   1.614   5.912  0.4483  1.3424  0.6925
  609MOL0     H82188   1.942   1.498   5.889 -0.0541 -1.8268  1.7509
  609MOL0     H82189   1.958   1.457   6.129 -0.3043 -2.8924 -3.3882
  609MOL0     H82190   1.803   1.418   6.054  1.3354 -0.3006 -1.6298
  609MOL0     H82191   1.773   1.546   6.286 -0.3354 -0.7792 -0.6485
  609MOL0     H82192   1.834   1.694   6.212  0.7590 -0.1798  0.4031
  609MOL0     H82193   1.602   1.528   6.108  0.1830 -0.4809  0.8879
  609MOL0     H82194   1.641   1.684   6.037 -1.0386 -2.4385 -1.7982
  609MOL0     H82195   1.577   1.784   6.273 -0.8834 -1.5728  0.5749
  609MOL0     H82196   1.516   1.624   6.295 -0.2244  0.8571  2.0505
  609MOL0     H82197   2.552   1.717   6.111  0.9537 -0.4761 -0.4713
  609MOL0     H82198   2.741   1.827   5.996  0.0793  0.0727  0.0269
  609MOL0     H82199   3.054   1.993   5.692 -2.2956 -0.5173  0.0983
  609MOL0     H82200   3.248   2.134   5.650  0.1954  0.6242 -0.2177
  609MOL0     H82201   3.089   1.843   4.811 -2.1393  0.4821 -0.7705
  609MOL0     H82202   3.288   1.747   4.681  0.0441 -0.5045 -0.1602
  609MOL0     H82203   3.540   1.719   4.318 -1.6286  0.8760 -0.5719
  609MOL0     H82204   3.711   1.630   4.191  1.2837 -1.6127  1.7658
  609MOL0     H82205   4.076   1.753   4.311 -0.3410  1.0296 -0.7751
  609MOL0     H82206   4.129   1.642   4.193  1.2685  0.3848 -0.6176
  609MOL0     H82207   4.192   1.933   4.214  2.4307 -0.1478 -0.1588
  609MOL0     H82208   4.144   1.875   4.051  2.7165 -0.1805 -1.2727
  609MOL0     H82209   4.331   1.704   4.072 -1.2480  0.5722 -0.9575
  609MOL0     H82210   4.332   1.739   4.252 -0.8996  0.0625  0.6034
  609MOL0     H82211   4.447   1.945   4.224 -2.0116  1.4271 -1.0114
  609MOL0     H82212   4.426   1.941   4.042  0.4125  0.3097 -0.5405
  609MOL0     H82213   4.763   1.692   4.098 -0.3252 -0.6601 -0.5414
  609MOL0     H82214   3.966   1.968   4.294  1.1024 -0.9388 -0.4396
  609MOL0     H82215   3.800   2.047   4.441 -3.9440 -0.0640  1.2219
  610MOL0     O82216  11.062   0.913   9.779 -0.4352 -0.6461  0.2924
  610MOL0     C82217  11.112   0.803   9.746  0.1328 -0.0076 -0.1186
  610MOL0     O82218  11.044   0.680   9.729 -0.4277 -0.0182  0.2718
  610MOL0     C82219  10.907   0.663   9.742 -0.6969 -0.1623  0.5241
  610MOL0     C82220  10.813   0.769   9.719 -0.4520  0.3129 -0.5937
  610MOL0     C82221  10.680   0.737   9.740 -0.4661  1.1923 -0.8078
  610MOL0     C82222  10.632   0.606   9.757  0.7944 -0.3121  0.4048
  610MOL0     O82223  10.497   0.598   9.766  0.6293  0.2199 -0.2322
  610MOL0     C82224  10.435   0.461   9.773  0.1401 -0.1054  0.8302
  610MOL0     C82225  10.285   0.463   9.789  0.6429 -0.0011 -0.2024
  610MOL0     C82226  10.226   0.324   9.781 -0.1415  0.9604  0.1994
  610MOL0     C82227  10.078   0.324   9.799 -0.3305  0.0747  0.1379
  610MOL0     C82228  10.010   0.197   9.754  0.1345  0.2219 -0.4321
  610MOL0     C82229   9.858   0.208   9.754 -0.2578 -0.4782  0.5810
  610MOL0     C82230   9.807   0.064   9.710 -0.2800  0.4502 -0.4732
  610MOL0     C82231   9.673   0.021   9.768 -0.5535 -0.2373 -0.1133
  610MOL0     N82232   9.571   0.117   9.718  0.2522 -0.0232  0.0607
  610MOL0     C82233   9.513   0.130   9.595  0.4347  0.8653 -0.2808
  610MOL0     C82234   9.392   0.203   9.614 -0.3239 -0.8909 -0.9708
  610MOL0     C82235   9.290   0.242   9.512  0.2167  0.4663  0.1029
  610MOL0     C82236   9.175   0.141   9.501  0.6187 -0.4523  0.6364
  610MOL0     C82237   9.095   0.139   9.629 -0.1706  0.0846 -0.1009
  610MOL0     C82238   8.945   0.194   9.609 -0.1090  0.4600  0.1742
  610MOL0     O82239   8.873   0.125   9.502 -0.5925  0.3370 -0.4265
  610MOL0     C82240   8.750   0.078   9.523  0.2800 -0.9325 -0.4419
  610MOL0     C82241   8.701  -0.038   9.452 -0.0113 -0.9547 -0.0685
  610MOL0     C82242   8.567  -0.081   9.447 -0.1162 -0.4316 -0.3383
  610MOL0     C82243   8.543  -0.201   9.355  1.2676 -1.0057  0.4910
  610MOL0     C82244   8.469  -0.015   9.535 -1.2037  0.0478  0.6850
  610MOL0     C82245   8.320  -0.038   9.529 -0.1244 -0.0815  0.1963
  610MOL0     O82246   8.250   0.040   9.617  0.8844  0.1728 -0.8655
  610MOL0     C82247   8.117   0.057   9.588  0.2226 -0.2608  0.1536
  610MOL0     C82248   8.023  -0.048   9.604  0.2273 -0.2500 -0.4473
  610MOL0     C82249   7.886  -0.019   9.595 -0.1185 -0.6213  0.7489
  610MOL0     C82250   7.834   0.116   9.572 -0.5901  0.3286 -0.5342
  610MOL0     O82251   7.706   0.155   9.559  0.8779 -0.4597  0.2246
  610MOL0     C82252   7.597   0.071   9.575  0.1074  0.0220 -0.3592
  610MOL0     C82253   7.561  -0.009   9.447  0.7562 -0.7246  0.0858
  610MOL0     C82254   7.458  -0.115   9.478  0.2378 -0.3448  0.2816
  610MOL0     C82255   7.320  -0.052   9.493  0.3199 -0.0382 -0.0274
  610MOL0     C82256   7.222  -0.161   9.452 -0.2258  0.9399  0.2673
  610MOL0     C82257   7.080  -0.106   9.441  0.1420  0.2797  0.0816
  610MOL0     C82258   6.983  -0.223   9.419  0.3764 -0.9060 -0.2154
  610MOL0     C82259   6.863  -0.181   9.342  0.4495  0.4933  0.2094
  610MOL0    Cl82260   6.938  -0.158   9.178  0.5564  0.0169 -0.1708
  610MOL0     C82261   7.931   0.215   9.564 -0.1169  0.4556  0.7646
  610MOL0     C82262   8.068   0.187   9.568 -0.5078  0.1195  0.1462
  610MOL0     O82263   8.272  -0.089   9.428  0.1074 -0.0638 -0.2387
  610MOL0     C82264   8.521   0.085   9.619 -0.3621 -0.0035 -0.1926
  610MOL0     C82265   8.660   0.135   9.612  0.4980  0.2580 -0.0046
  610MOL0     N82266   9.395   0.246   9.747  0.3728 -0.1648  0.2666
  610MOL0     N82267   9.493   0.188   9.804 -0.4012 -0.3456 -0.0335
  610MOL0     C82268  10.720   0.502   9.762 -0.8394 -0.3080  0.3346
  610MOL0     C82269  10.859   0.529   9.764  0.3103 -0.6468 -0.1630
  610MOL0     C82270  11.256   0.792   9.713 -0.0878 -0.2339 -0.6348
  610MOL0     C82271  11.303   0.688   9.636 -0.3883 -0.2892 -0.6614
  610MOL0     C82272  11.442   0.675   9.608  0.5175  0.0037  0.4747
  610MOL0     C82273  11.531   0.774   9.648 -0.4140 -0.4925 -0.3890
  610MOL0     O82274  11.666   0.790   9.624 -0.1529 -0.1864  0.0128
  610MOL0     C82275  11.742   0.665   9.597  0.6310 -0.5641 -1.2345
  610MOL0     C82276  11.900   0.688   9.607  0.2400  0.5816  0.0807
  610MOL0     C82277  11.948   0.800   9.517  0.2197 -0.9982  0.2473
  610MOL0     C82278  12.087   0.836   9.556  0.2353  0.0576  0.4444
  610MOL0     C82279  12.125   0.979   9.513 -0.2819 -0.8911 -0.2199
  610MOL0     C82280  12.159   1.089   9.479  0.4277  0.7046  0.8242
  610MOL0     C82281  11.477   0.885   9.719 -0.5414  0.4315  0.2138
  610MOL0     C82282  11.343   0.892   9.754  0.1994 -0.2415  0.2486
  610MOL0     H82283  10.848   0.869   9.696  1.6486 -0.2069  0.1008
  610MOL0     H82284  10.610   0.819   9.748  1.3261  2.9789 -2.2662
  610MOL0     H82285  10.444   0.415   9.674 -2.2664 -2.9027  1.7595
  610MOL0     H82286  10.472   0.385   9.843 -2.8549 -4.1368 -1.5330
  610MOL0     H82287  10.261   0.501   9.889 -1.2783 -1.2743 -0.1184
  610MOL0     H82288  10.247   0.521   9.704  0.7883  0.9732  0.3861
  610MOL0     H82289  10.254   0.286   9.683 -1.4827 -0.6244  0.4032
  610MOL0     H82290  10.276   0.263   9.857 -1.5430  2.7965  2.7551
  610MOL0     H82291  10.046   0.339   9.902 -0.8629 -0.8980  0.1246
  610MOL0     H82292  10.042   0.412   9.745 -0.0730  1.2112  1.7426
  610MOL0     H82293  10.048   0.170   9.655 -0.3801 -2.8019  0.0887
  610MOL0     H82294  10.037   0.121   9.828 -0.0456  0.5674 -0.0065
  610MOL0     H82295   9.840   0.235   9.858  1.9162 -2.4006  1.5573
  610MOL0     H82296   9.822   0.285   9.686 -0.0826 -0.6530  0.2872
  610MOL0     H82297   9.792   0.063   9.602  0.1969  2.4255 -0.5958
  610MOL0     H82298   9.882  -0.013   9.730  0.7608  1.6658  0.4576
  610MOL0     H82299   9.688   0.024   9.876  1.3170  0.7657 -0.3639
  610MOL0     H82300   9.653  -0.081   9.736  1.0063 -0.5313 -0.2272
  610MOL0     H82301   9.537   0.072   9.507 -1.1950 -0.3759  0.0360
  610MOL0     H82302   9.241   0.337   9.535  0.0542  0.7866 -1.4897
  610MOL0     H82303   9.337   0.248   9.414  0.9546 -1.3476  0.3062
  610MOL0     H82304   9.206   0.040   9.474  3.2152  1.0828 -2.7780
  610MOL0     H82305   9.101   0.184   9.432 -0.6963 -0.2901  2.0777
  610MOL0     H82306   9.150   0.199   9.702  1.6023  1.2347 -2.2583
  610MOL0     H82307   9.089   0.035   9.661  1.8441 -0.3415 -1.0036
  610MOL0     H82308   8.953   0.302   9.596  1.1274  0.2341 -1.1690
  610MOL0     H82309   8.887   0.185   9.702 -0.0590 -1.9902  0.0560
  610MOL0     H82310   8.760  -0.077   9.370  3.8223 -0.7623  2.3733
  610MOL0     H82311   8.471  -0.163   9.282 -1.5520  0.1533  3.6713
  610MOL0     H82312   8.632  -0.231   9.298  0.1925  0.9494 -2.5290
  610MOL0     H82313   8.497  -0.283   9.409 -1.2123  1.0425  1.6722
  610MOL0     H82314   8.050  -0.151   9.624 -2.3073 -1.6986 -3.4967
  610MOL0     H82315   7.815  -0.101   9.604 -1.7625  0.4654 -1.4228
  610MOL0     H82316   7.626   0.007   9.659 -1.7214  1.5567  1.5511
  610MOL0     H82317   7.506   0.112   9.617 -1.2617 -2.8147 -0.2948
  610MOL0     H82318   7.524   0.052   9.364 -0.5398 -1.2619  0.2378
  610MOL0     H82319   7.650  -0.061   9.412  0.0432 -0.7682 -1.7694
  610MOL0     H82320   7.491  -0.175   9.564 -1.4392  1.1049  2.0442
  610MOL0     H82321   7.459  -0.178   9.389  0.5086 -1.2322  0.8873
  610MOL0     H82322   7.300  -0.013   9.593  0.1531  2.8079 -1.0699
  610MOL0     H82323   7.303   0.036   9.429  0.2304 -1.3872 -1.9273
  610MOL0     H82324   7.236  -0.233   9.533  0.2772  0.3973 -0.2890
  610MOL0     H82325   7.252  -0.191   9.351  0.5647 -0.0959  0.7907
  610MOL0     H82326   7.040  -0.052   9.527 -3.9329 -0.7866 -0.9235
  610MOL0     H82327   7.072  -0.032   9.360 -0.6682 -1.2735 -1.3177
  610MOL0     H82328   6.944  -0.272   9.508 -0.8092 -1.0543 -0.7921
  610MOL0     H82329   7.025  -0.312   9.371  0.9004 -1.6277  1.5277
  610MOL0     H82330   6.822  -0.086   9.375  1.0210 -0.1482  3.0225
  610MOL0     H82331   6.789  -0.262   9.345  1.7314 -0.6788  1.5496
  610MOL0     H82332   7.904   0.317   9.539 -1.7450  0.3968  2.0877
  610MOL0     H82333   8.143   0.263   9.548 -0.1509 -0.5562 -1.2082
  610MOL0     H82334   8.455   0.134   9.689 -2.2800 -1.0413 -1.1982
  610MOL0     H82335   8.676   0.228   9.665 -1.1109  0.0505  0.9327
  610MOL0     H82336  10.688   0.399   9.772 -0.4163 -0.3461  1.4244
  610MOL0     H82337  10.920   0.442   9.788 -1.2064 -1.2942  1.5999
  610MOL0     H82338  11.236   0.607   9.608 -1.1554  0.1833 -0.2452
  610MOL0     H82339  11.479   0.603   9.536 -0.8269  1.1032 -1.4399
  610MOL0     H82340  11.703   0.583   9.658 -1.9960  3.5190  3.3507
  610MOL0     H82341  11.726   0.642   9.492 -2.0273 -1.3728 -0.7194
  610MOL0     H82342  11.963   0.601   9.588  1.0911  1.1760  0.1435
  610MOL0     H82343  11.922   0.717   9.710 -2.4701 -1.7419  1.4744
  610MOL0     H82344  11.874   0.880   9.528  0.0682 -1.1954  0.7147
  610MOL0     H82345  11.946   0.773   9.411  0.8096  1.9294 -0.6036
  610MOL0     H82346  12.151   0.762   9.507  0.8418  0.6004  0.4025
  610MOL0     H82347  12.095   0.829   9.665  1.0121  0.3095  0.4102
  610MOL0     H82348  12.171   1.187   9.437  0.0271 -0.2596 -1.7352
  610MOL0     H82349  11.547   0.957   9.760 -2.0903  1.4005  1.2995
  610MOL0     H82350  11.306   0.981   9.805 -1.2192 -0.7752  0.2141
  611MOL0     O82351   8.549   2.591   5.443  0.3176  0.3671  0.2355
  611MOL0     C82352   8.555   2.495   5.528  0.9871 -0.3153  0.2988
  611MOL0     O82353   8.453   2.417   5.561  0.4305  0.0911  0.3585
  611MOL0     C82354   8.350   2.417   5.466  0.4730  0.5296 -0.0097
  611MOL0     C82355   8.227   2.460   5.505 -0.6067  0.0551 -0.2077
  611MOL0     C82356   8.109   2.456   5.423  0.0112 -0.1355  0.0958
  611MOL0     C82357   8.123   2.382   5.307 -0.0665 -0.4701  0.1685
  611MOL0     O82358   8.018   2.363   5.217 -0.3592  0.0889 -0.3257
  611MOL0     C82359   7.886   2.423   5.240  0.3235 -0.2356 -0.3585
  611MOL0     C82360   7.787   2.381   5.135 -0.3012 -0.3613 -0.6265
  611MOL0     C82361   7.679   2.486   5.124  0.0862 -0.0120 -0.2583
  611MOL0     C82362   7.567   2.437   5.033 -0.8904  0.3168  0.6521
  611MOL0     C82363   7.470   2.552   5.015  0.4914 -0.3456 -0.1872
  611MOL0     C82364   7.364   2.518   4.919 -0.3323  0.4340 -0.4298
  611MOL0     C82365   7.422   2.513   4.777 -0.0413  0.7295  0.8802
  611MOL0     C82366   7.311   2.529   4.678 -0.6022  0.8036  0.4082
  611MOL0     N82367   7.212   2.425   4.699 -0.2518  0.3554  0.4746
  611MOL0     C82368   7.212   2.306   4.635  0.1839  0.6978 -0.0711
  611MOL0     C82369   7.080   2.265   4.651 -0.7715  0.2536 -0.1915
  611MOL0     C82370   7.028   2.134   4.596  0.4977  0.2695 -0.2807
  611MOL0     C82371   7.041   2.024   4.699  0.8235  0.3492  0.0952
  611MOL0     C82372   6.929   1.923   4.694  0.1575 -0.0785  0.0086
  611MOL0     C82373   6.969   1.793   4.772 -1.0699  0.5108 -0.1624
  611MOL0     O82374   6.872   1.685   4.783 -0.8103 -0.5887  0.3540
  611MOL0     C82375   6.784   1.675   4.883  0.3108 -0.0214 -0.4228
  611MOL0     C82376   6.766   1.768   4.982  0.0774 -0.2058 -1.0703
  611MOL0     C82377   6.670   1.744   5.078  0.3848 -0.1734  0.2380
  611MOL0     C82378   6.646   1.851   5.187 -0.1148  0.1243 -0.2946
  611MOL0     C82379   6.586   1.629   5.072 -0.0533 -0.1869 -0.2555
  611MOL0     C82380   6.477   1.598   5.168 -0.1299  0.1041  0.2510
  611MOL0     O82381   6.396   1.488   5.132  0.6746  0.1039 -0.0032
  611MOL0     C82382   6.271   1.478   5.200 -0.5195  0.2329  0.5015
  611MOL0     C82383   6.268   1.382   5.303 -0.8835  0.0387  0.7180
  611MOL0     C82384   6.143   1.364   5.371  0.9214  0.3351  0.0087
  611MOL0     C82385   6.025   1.445   5.336 -0.7628 -0.1398 -0.2185
  611MOL0     O82386   5.902   1.453   5.403 -0.4001 -0.6057 -0.1175
  611MOL0     C82387   5.863   1.361   5.506  0.2715  0.2267 -0.3813
  611MOL0     C82388   5.713   1.373   5.539 -0.1753  0.1522 -0.0866
  611MOL0     C82389   5.623   1.319   5.433  0.0688 -0.7517 -0.5250
  611MOL0     C82390   5.471   1.337   5.479  0.2244  0.4376  0.6341
  611MOL0     C82391   5.380   1.282   5.373 -0.4444 -0.6473 -0.2421
  611MOL0     C82392   5.242   1.275   5.438  1.5519 -0.4680  0.1353
  611MOL0     C82393   5.142   1.225   5.334 -0.4257 -0.3220 -0.5033
  611MOL0     C82394   5.007   1.187   5.396 -0.4582  0.1515 -0.0831
  611MOL0    Cl82395   5.014   1.018   5.456  0.7393 -0.1129  0.2328
  611MOL0     C82396   6.036   1.524   5.224 -0.4174  0.0270  0.6577
  611MOL0     C82397   6.154   1.545   5.151  0.2136  0.6434 -0.1104
  611MOL0     O82398   6.471   1.658   5.276  0.0994  0.3404 -0.0108
  611MOL0     C82399   6.597   1.543   4.964  0.1128  0.1533 -0.5235
  611MOL0     C82400   6.702   1.565   4.879  0.5623  0.6139  0.3540
  611MOL0     N82401   7.009   2.355   4.729 -0.4536  0.4126  0.8264
  611MOL0     N82402   7.084   2.456   4.747 -0.0608 -0.6900 -0.5702
  611MOL0     C82403   8.243   2.344   5.260 -0.3117  0.6156  0.8648
  611MOL0     C82404   8.362   2.367   5.333  0.7804  0.2662  0.2972
  611MOL0     C82405   8.668   2.495   5.620 -0.1663 -0.0007  0.5054
  611MOL0     C82406   8.775   2.578   5.595 -0.6451  0.1309  0.0043
  611MOL0     C82407   8.887   2.580   5.677  0.1230  0.1802 -0.3356
  611MOL0     C82408   8.888   2.500   5.788  0.1896 -0.1047 -0.8664
  611MOL0     O82409   9.004   2.505   5.865  0.1840 -0.3259 -0.0477
  611MOL0     C82410   9.088   2.391   5.851 -0.2893 -0.3189 -0.2962
  611MOL0     C82411   9.157   2.367   5.984  0.0681  0.2409  0.2579
  611MOL0     C82412   9.282   2.273   5.974 -0.7262  0.5377 -0.2151
  611MOL0     C82413   9.346   2.280   6.113 -0.4715  0.2497  0.5872
  611MOL0     C82414   9.286   2.200   6.219 -0.1222  0.2269 -0.4341
  611MOL0     C82415   9.227   2.129   6.298 -1.1281 -0.3216 -0.7271
  611MOL0     C82416   8.782   2.416   5.822  0.1883  0.1734 -0.5598
  611MOL0     C82417   8.669   2.414   5.736 -0.1631  0.2190  0.1171
  611MOL0     H82418   8.224   2.516   5.598 -0.1229 -1.2984  0.6446
  611MOL0     H82419   8.021   2.505   5.462  0.8322 -1.3614  3.9524
  611MOL0     H82420   7.846   2.389   5.336 -0.0534  2.0633  0.3691
  611MOL0     H82421   7.887   2.532   5.249  0.5868 -0.3869  1.9298
  611MOL0     H82422   7.835   2.388   5.037 -1.0475 -1.8415 -1.1319
  611MOL0     H82423   7.758   2.276   5.151  0.4207 -0.2584  1.7207
  611MOL0     H82424   7.630   2.513   5.218 -0.6751 -2.5593  0.1365
  611MOL0     H82425   7.719   2.578   5.080 -0.1528 -0.1478 -0.7745
  611MOL0     H82426   7.611   2.409   4.937  2.9402 -1.0477  2.5491
  611MOL0     H82427   7.527   2.344   5.076  3.6303 -1.8471  0.7654
  611MOL0     H82428   7.422   2.568   5.112 -1.4137 -1.6493 -0.8533
  611MOL0     H82429   7.520   2.646   4.991  4.3588 -2.0221  0.4564
  611MOL0     H82430   7.314   2.424   4.948 -0.3526  1.3393  2.8539
  611MOL0     H82431   7.288   2.597   4.925 -0.8661 -0.0826 -0.2304
  611MOL0     H82432   7.495   2.593   4.762  0.3917  0.9586  3.7498
  611MOL0     H82433   7.471   2.417   4.757 -0.3914  0.4825  1.1958
  611MOL0     H82434   7.359   2.527   4.580 -0.7582 -1.7986  0.3290
  611MOL0     H82435   7.268   2.629   4.689  0.0445  0.8970  2.5272
  611MOL0     H82436   7.290   2.245   4.590 -0.8774 -0.9648  0.2754
  611MOL0     H82437   6.920   2.137   4.578  0.3547 -3.2567 -0.5622
  611MOL0     H82438   7.082   2.098   4.508  0.7746  0.9648 -0.4023
  611MOL0     H82439   7.052   2.072   4.797  0.2532 -0.8677  0.7763
  611MOL0     H82440   7.133   1.976   4.665 -0.0113 -1.2460  0.0042
  611MOL0     H82441   6.894   1.891   4.595 -1.3400  0.5201  0.3195
  611MOL0     H82442   6.845   1.969   4.745  0.8762 -0.6771  1.8239
  611MOL0     H82443   6.997   1.829   4.872 -1.1176  0.4577 -0.1302
  611MOL0     H82444   7.054   1.746   4.724  0.1028  2.8060 -0.4813
  611MOL0     H82445   6.826   1.859   4.980 -0.5639  0.2747 -4.5516
  611MOL0     H82446   6.541   1.875   5.202 -0.0627 -1.3399  3.5607
  611MOL0     H82447   6.683   1.812   5.282 -2.2336 -1.2274  0.0373
  611MOL0     H82448   6.696   1.943   5.153  1.4638 -1.6886 -3.3458
  611MOL0     H82449   6.356   1.329   5.338 -2.2837 -2.3538  0.8816
  611MOL0     H82450   6.141   1.307   5.463  1.5262  4.2145  2.6566
  611MOL0     H82451   5.893   1.259   5.483  0.7569  0.4646 -0.8345
  611MOL0     H82452   5.921   1.394   5.593  0.7714  1.0034 -0.9926
  611MOL0     H82453   5.694   1.316   5.631  1.2365  1.0004  0.7579
  611MOL0     H82454   5.690   1.478   5.559 -0.5902 -0.3258  2.1555
  611MOL0     H82455   5.639   1.212   5.414  0.1725 -0.8178 -0.0785
  611MOL0     H82456   5.636   1.371   5.337  1.0944 -0.5864 -0.3035
  611MOL0     H82457   5.456   1.278   5.569  1.8611 -1.1816 -0.0807
  611MOL0     H82458   5.449   1.441   5.501 -0.1524  0.3224  0.7940
  611MOL0     H82459   5.416   1.184   5.340  1.2172  0.4066 -1.7465
  611MOL0     H82460   5.377   1.344   5.283  0.0990 -2.7360 -1.7548
  611MOL0     H82461   5.249   1.211   5.526  1.8103  0.7015  0.9826
  611MOL0     H82462   5.209   1.373   5.473 -0.9717 -0.8694 -0.8991
  611MOL0     H82463   5.180   1.142   5.275 -0.5144 -1.5207  1.0508
  611MOL0     H82464   5.121   1.311   5.270 -0.6312 -0.0297 -0.0486
  611MOL0     H82465   4.927   1.204   5.324 -4.4753 -0.9974  3.6577
  611MOL0     H82466   4.972   1.244   5.483 -3.2475 -2.0179  0.3748
  611MOL0     H82467   5.954   1.588   5.194  0.2499  0.1913 -0.9165
  611MOL0     H82468   6.152   1.609   5.064 -3.8744  0.4918 -0.3509
  611MOL0     H82469   6.523   1.465   4.946  1.0251 -0.7124 -0.5499
  611MOL0     H82470   6.712   1.500   4.793  1.2594  0.7061  0.3636
  611MOL0     H82471   8.240   2.292   5.165  0.6953  0.2419  1.0239
  611MOL0     H82472   8.450   2.326   5.285  1.5576  1.6644  0.4455
  611MOL0     H82473   8.779   2.653   5.517  3.5187  1.3991  1.1310
  611MOL0     H82474   8.978   2.637   5.659 -0.6290  0.4996 -4.0441
  611MOL0     H82475   9.038   2.302   5.812  0.5526 -0.3940 -1.2663
  611MOL0     H82476   9.160   2.408   5.771  0.5705 -0.4047  0.4500
  611MOL0     H82477   9.080   2.320   6.045  0.5999 -1.2496 -0.1648
  611MOL0     H82478   9.184   2.465   6.025 -1.3594  0.8498 -0.1861
  611MOL0     H82479   9.346   2.309   5.893 -1.4779  3.2679  0.3006
  611MOL0     H82480   9.253   2.174   5.939 -0.7791  0.4206  0.1542
  611MOL0     H82481   9.352   2.385   6.146 -1.0138  0.4961 -0.0835
  611MOL0     H82482   9.445   2.233   6.110 -0.8914 -0.5742 -0.5395
  611MOL0     H82483   9.181   2.075   6.379 -0.2621 -0.4147 -0.2740
  611MOL0     H82484   8.789   2.347   5.906  0.7487  0.3813 -0.4264
  611MOL0     H82485   8.593   2.340   5.759  0.7407 -0.7420  0.0182
  612MOL0     O82486   1.880   8.576   5.527  0.0338 -0.0421 -0.7251
  612MOL0     C82487   1.917   8.514   5.435  0.2798  0.1596  0.5657
  612MOL0     O82488   1.846   8.408   5.381 -0.3170  0.2333  0.6091
  612MOL0     C82489   1.706   8.385   5.402 -0.4403 -0.6789 -0.2252
  612MOL0     C82490   1.612   8.456   5.476 -0.4211 -0.4139 -0.8302
  612MOL0     C82491   1.481   8.425   5.470  0.0592 -0.8807  0.0409
  612MOL0     C82492   1.434   8.313   5.399  0.6332 -0.4437  0.1846
  612MOL0     O82493   1.294   8.298   5.407  0.1245  0.6803  0.2314
  612MOL0     C82494   1.258   8.182   5.329 -0.3978  0.4928 -0.4732
  612MOL0     C82495   1.106   8.157   5.355 -0.0138 -0.5457 -0.4827
  612MOL0     C82496   1.020   8.290   5.333 -0.4509  0.0097  0.2163
  612MOL0     C82497   0.881   8.245   5.325 -0.2459 -0.2210 -0.5392
  612MOL0     C82498   0.782   8.360   5.303  0.2752 -0.6706  0.3714
  612MOL0     C82499   0.763   8.434   5.435  0.0827 -0.2152 -0.2712
  612MOL0     C82500   0.653   8.549   5.436 -0.4781 -0.9856  0.5892
  612MOL0     C82501   0.518   8.496   5.380  2.0484 -0.4353  0.0197
  612MOL0     N82502   0.419   8.606   5.354 -0.3429 -0.1388 -0.0125
  612MOL0     C82503   0.373   8.698   5.446 -0.1012 -0.6875 -0.6211
  612MOL0     C82504   0.283   8.775   5.383 -0.3660 -0.1108  0.2255
  612MOL0     C82505   0.206   8.883   5.455  1.0102 -0.2847  0.4511
  612MOL0     C82506   0.051   8.849   5.475 -0.6348 -0.6730 -0.6219
  612MOL0     C82507   0.026   8.718   5.554  1.3020  0.1374 -0.6901
  612MOL0     C82508  -0.126   8.688   5.583  0.4135 -0.3148  0.2417
  612MOL0     O82509  -0.208   8.731   5.478  0.4006 -0.1194  0.0295
  612MOL0     C82510  -0.342   8.688   5.473  0.0650 -0.2334  0.2051
  612MOL0     C82511  -0.407   8.731   5.356  1.0356  0.7408  0.6637
  612MOL0     C82512  -0.542   8.688   5.328 -0.1090 -0.8342  0.0327
  612MOL0     C82513  -0.605   8.727   5.201 -0.2779  0.0063  0.5571
  612MOL0     C82514  -0.612   8.602   5.419  0.9364 -0.6692 -0.4177
  612MOL0     C82515  -0.752   8.555   5.408 -0.0593 -0.0560  0.0631
  612MOL0     O82516  -0.821   8.588   5.299 -0.0043 -0.2589 -0.1253
  612MOL0     C82517  -0.957   8.556   5.290 -0.3205  0.3358 -1.0163
  612MOL0     C82518  -0.997   8.425   5.304  0.5048 -0.7670 -0.4739
  612MOL0     C82519  -1.134   8.393   5.301 -0.5540  0.5963 -0.2594
  612MOL0     C82520  -1.230   8.490   5.260  0.4296  0.8587 -0.5549
  612MOL0     O82521  -1.367   8.452   5.238  0.0364 -0.3823  0.4463
  612MOL0     C82522  -1.413   8.324   5.260 -0.6583 -0.7682  0.4559
  612MOL0     C82523  -1.563   8.314   5.206 -0.6019 -1.0857  0.7387
  612MOL0     C82524  -1.617   8.175   5.166 -0.8900 -0.1499 -0.3398
  612MOL0     C82525  -1.768   8.177   5.133  0.3172 -0.0360  0.2342
  612MOL0     C82526  -1.807   8.053   5.059  0.2007 -0.4815 -0.1300
  612MOL0     C82527  -1.827   7.937   5.143  0.5930 -0.6817  0.3291
  612MOL0     C82528  -1.855   7.812   5.064  0.6747  0.7136 -0.0378
  612MOL0     C82529  -1.881   7.696   5.163 -1.0277 -0.3388  0.1538
  612MOL0    Cl82530  -2.046   7.624   5.101  0.3593  0.2140 -0.4023
  612MOL0     C82531  -1.188   8.627   5.247  0.4523  0.1518  0.6976
  612MOL0     C82532  -1.052   8.655   5.262 -0.5360  0.7440 -0.4221
  612MOL0     O82533  -0.791   8.477   5.493  0.5046 -0.5266 -0.1030
  612MOL0     C82534  -0.539   8.557   5.534  0.0226  0.2874  0.4554
  612MOL0     C82535  -0.407   8.593   5.550  0.1575 -0.0331  0.8553
  612MOL0     N82536   0.259   8.712   5.264 -0.3736  0.8704  0.0660
  612MOL0     N82537   0.339   8.613   5.246  0.3796 -0.3496 -0.2637
  612MOL0     C82538   1.530   8.238   5.331  0.4399  0.1328  0.7297
  612MOL0     C82539   1.655   8.275   5.326 -0.9679  0.3966 -0.8584
  612MOL0     C82540   2.038   8.562   5.375 -0.7616 -0.6641 -0.1375
  612MOL0     C82541   2.093   8.490   5.273 -0.3053  0.9648  1.2818
  612MOL0     C82542   2.217   8.526   5.214 -0.3612 -0.0211  0.0086
  612MOL0     C82543   2.280   8.648   5.247 -0.3441 -0.3604  0.2432
  612MOL0     O82544   2.383   8.710   5.189  0.0402  0.4448  0.3075
  612MOL0     C82545   2.417   8.664   5.052  0.1169 -0.3990 -0.2929
  612MOL0     C82546   2.484   8.783   4.980  0.1168  0.2999 -0.2926
  612MOL0     C82547   2.594   8.851   5.060 -0.1708  0.3441  0.2800
  612MOL0     C82548   2.673   8.943   4.961  0.9360 -0.1202  0.4288
  612MOL0     C82549   2.766   8.858   4.877  0.6817  0.3568 -0.5664
  612MOL0     C82550   2.834   8.772   4.811  1.0577 -0.5679  0.0499
  612MOL0     C82551   2.222   8.721   5.348 -0.6032  0.6655 -0.3958
  612MOL0     C82552   2.109   8.681   5.417  0.2338  0.0486  0.0122
  612MOL0     H82553   1.629   8.541   5.541 -2.2923 -0.4499 -0.2397
  612MOL0     H82554   1.405   8.484   5.522  0.3901 -0.1875 -0.2461
  612MOL0     H82555   1.278   8.188   5.222  0.2623  0.9099 -0.3331
  612MOL0     H82556   1.310   8.096   5.373 -1.7582  0.7115  1.7077
  612MOL0     H82557   1.082   8.083   5.278  0.8885 -0.8297 -0.5129
  612MOL0     H82558   1.095   8.114   5.455 -0.6433  0.4228 -0.1210
  612MOL0     H82559   1.034   8.347   5.425  1.6965  0.6660 -0.4798
  612MOL0     H82560   1.045   8.340   5.240 -1.2683  0.2741  0.1335
  612MOL0     H82561   0.866   8.169   5.248  1.9994  0.3893 -1.6782
  612MOL0     H82562   0.857   8.184   5.413 -0.3352 -2.1167 -1.8208
  612MOL0     H82563   0.812   8.422   5.217 -3.0381  2.8137  1.4587
  612MOL0     H82564   0.683   8.318   5.285  0.4246 -1.2332  0.8492
  612MOL0     H82565   0.736   8.371   5.520  1.8801 -0.0939  0.4511
  612MOL0     H82566   0.853   8.491   5.459 -0.1869  0.4849 -0.8978
  612MOL0     H82567   0.633   8.591   5.535 -0.5352 -1.6322  0.8535
  612MOL0     H82568   0.695   8.632   5.378 -2.3647  1.4613  2.4959
  612MOL0     H82569   0.477   8.433   5.459  1.3030  1.2502  1.0391
  612MOL0     H82570   0.526   8.439   5.287  4.1648 -0.5500  0.2384
  612MOL0     H82571   0.410   8.709   5.548  0.6060  0.1180 -0.9464
  612MOL0     H82572   0.253   8.901   5.552  1.7276  1.0306 -0.1215
  612MOL0     H82573   0.213   8.974   5.395  0.3826 -1.1499 -0.9800
  612MOL0     H82574   0.001   8.841   5.379 -1.8205  0.0034 -0.0779
  612MOL0     H82575  -0.007   8.924   5.529 -3.1764 -2.6291 -0.4305
  612MOL0     H82576   0.063   8.736   5.655 -2.0393  1.2397  0.4911
  612MOL0     H82577   0.063   8.637   5.491 -4.1949 -1.3995 -2.5705
  612MOL0     H82578  -0.150   8.733   5.679 -0.4222  1.4355 -0.7276
  612MOL0     H82579  -0.135   8.579   5.587 -0.4212 -0.2876 -0.3454
  612MOL0     H82580  -0.355   8.786   5.278  0.4226 -1.6026 -1.5334
  612MOL0     H82581  -0.694   8.782   5.231 -0.5768  0.0447 -0.3863
  612MOL0     H82582  -0.534   8.797   5.156  0.2171 -1.8585 -1.7841
  612MOL0     H82583  -0.613   8.637   5.139  2.8159 -1.2126  1.6921
  612MOL0     H82584  -0.922   8.348   5.320 -1.3261 -2.4393  0.5338
  612MOL0     H82585  -1.158   8.288   5.316  1.1144  0.3912  1.3095
  612MOL0     H82586  -1.348   8.256   5.203  0.2910  0.2870  0.2413
  612MOL0     H82587  -1.401   8.284   5.360  1.5826 -1.0392  0.1481
  612MOL0     H82588  -1.632   8.358   5.279 -1.8455  0.2275 -1.1318
  612MOL0     H82589  -1.579   8.365   5.111 -1.1601 -1.3739  0.6713
  612MOL0     H82590  -1.603   8.105   5.249 -3.0368 -0.6800 -0.3642
  612MOL0     H82591  -1.558   8.139   5.081  1.9217  2.4389  0.3721
  612MOL0     H82592  -1.829   8.188   5.223 -1.4928  0.6659 -1.0407
  612MOL0     H82593  -1.781   8.264   5.068  0.7842  0.5684  0.9273
  612MOL0     H82594  -1.725   8.046   4.987 -0.1959  2.3454 -1.0223
  612MOL0     H82595  -1.895   8.076   4.997  0.6098  1.8704  0.0470
  612MOL0     H82596  -1.736   7.914   5.200  0.5650 -0.9220  0.2759
  612MOL0     H82597  -1.902   7.958   5.220 -1.6275  2.3481 -2.4089
  612MOL0     H82598  -1.770   7.784   5.001  0.7016  1.3417 -0.2877
  612MOL0     H82599  -1.939   7.821   4.994  1.0954 -1.3936 -0.9044
  612MOL0     H82600  -1.887   7.728   5.267 -1.7578  0.3499 -0.0906
  612MOL0     H82601  -1.804   7.619   5.163 -1.5784 -0.9239 -1.1266
  612MOL0     H82602  -1.261   8.704   5.225 -2.2425 -1.7494  2.2665
  612MOL0     H82603  -1.013   8.756   5.259  1.3136  0.1723  1.4054
  612MOL0     H82604  -0.587   8.500   5.613 -2.0727  3.0381  1.3171
  612MOL0     H82605  -0.357   8.552   5.638 -0.1363  0.1684  1.1181
  612MOL0     H82606   1.494   8.159   5.265 -0.3826 -0.1182  1.4572
  612MOL0     H82607   1.725   8.218   5.266 -0.2178  3.4650 -3.1486
  612MOL0     H82608   2.040   8.405   5.231 -1.9175  3.0021 -1.1272
  612MOL0     H82609   2.264   8.464   5.138 -1.3042  2.0421 -2.4546
  612MOL0     H82610   2.495   8.591   5.072  0.5257  0.4134  1.2366
  612MOL0     H82611   2.336   8.620   4.992 -0.8318 -0.9653  1.3431
  612MOL0     H82612   2.412   8.859   4.949  0.9394  0.8863 -0.8152
  612MOL0     H82613   2.528   8.741   4.889 -2.7622  2.0991 -2.6600
  612MOL0     H82614   2.663   8.777   5.101 -0.4565  0.5842  1.2283
  612MOL0     H82615   2.544   8.904   5.141 -0.7403  0.9767 -0.4665
  612MOL0     H82616   2.736   9.017   5.011 -0.0130  1.0372 -0.0595
  612MOL0     H82617   2.596   9.004   4.914 -0.6731 -1.6380  0.9816
  612MOL0     H82618   2.873   8.678   4.780 -0.6896 -2.6970  3.6460
  612MOL0     H82619   2.263   8.819   5.370 -3.0675  1.6367  0.2285
  612MOL0     H82620   2.080   8.740   5.503 -0.4974  1.5419 -1.2106
  613MOL0     O82621   7.951   0.565   7.535  0.6039 -0.3480 -0.3899
  613MOL0     C82622   8.006   0.670   7.557 -0.7280  0.1208  0.7638
  613MOL0     O82623   7.963   0.794   7.509 -0.4212 -0.1894  0.0933
  613MOL0     C82624   7.844   0.812   7.450  0.0830 -0.5243  0.0512
  613MOL0     C82625   7.780   0.724   7.363 -0.7694 -0.5367 -0.0159
  613MOL0     C82626   7.665   0.754   7.288  0.4979 -1.5797 -0.0217
  613MOL0     C82627   7.597   0.873   7.323 -0.1370 -0.5407 -0.4021
  613MOL0     O82628   7.473   0.879   7.264  1.0844 -0.1430  0.2353
  613MOL0     C82629   7.369   0.952   7.332 -0.8548  0.2572 -0.0033
  613MOL0     C82630   7.252   0.940   7.255  0.2603 -0.7812 -0.1139
  613MOL0     C82631   7.130   0.973   7.341  0.1685  0.7772  0.4324
  613MOL0     C82632   7.009   0.994   7.245 -0.9982  0.3528 -0.0403
  613MOL0     C82633   6.874   0.977   7.308 -0.5534  0.4082 -0.1871
  613MOL0     C82634   6.767   1.024   7.215 -0.3896  0.3771 -0.3943
  613MOL0     C82635   6.636   1.004   7.280  1.2486  0.0306  0.2265
  613MOL0     C82636   6.526   1.052   7.180 -0.1923  0.0097  0.1884
  613MOL0     N82637   6.399   1.096   7.239  0.2789 -0.1196  0.0441
  613MOL0     C82638   6.363   1.218   7.289  0.1928  0.8667  0.4047
  613MOL0     C82639   6.243   1.195   7.338 -0.2055  0.1906 -0.1777
  613MOL0     C82640   6.153   1.299   7.395  0.4738  0.7636 -0.0095
  613MOL0     C82641   6.047   1.343   7.294 -0.3042  0.0489 -0.0181
  613MOL0     C82642   5.952   1.455   7.352  0.0058  0.9979 -0.2868
  613MOL0     C82643   5.835   1.471   7.257  0.9819 -0.6329 -0.4937
  613MOL0     O82644   5.726   1.505   7.343  0.1472  0.2258  0.5261
  613MOL0     C82645   5.602   1.521   7.275 -0.0833 -0.3828  1.0193
  613MOL0     C82646   5.541   1.644   7.274  0.1127 -0.2874 -0.2369
  613MOL0     C82647   5.420   1.676   7.204  0.0287  0.6179  0.3860
  613MOL0     C82648   5.344   1.794   7.245  0.5217 -0.0763  0.0291
  613MOL0     C82649   5.363   1.568   7.121 -0.2690 -0.7074  0.7781
  613MOL0     C82650   5.229   1.577   7.067  0.2621 -0.3300  0.0720
  613MOL0     O82651   5.187   1.693   7.017  0.2640  0.3334  0.3385
  613MOL0     C82652   5.052   1.711   6.973 -0.0192  0.9290  0.5045
  613MOL0     C82653   4.949   1.785   7.031  0.2219 -0.1015  0.1825
  613MOL0     C82654   4.817   1.776   6.980 -0.5567  0.1784 -0.0276
  613MOL0     C82655   4.779   1.718   6.857  0.6477  0.3962  0.2189
  613MOL0     O82656   4.659   1.726   6.787  0.1189 -0.4134 -0.3685
  613MOL0     C82657   4.553   1.781   6.873  0.7741 -0.3140 -0.2629
  613MOL0     C82658   4.416   1.759   6.816 -0.1267 -0.0531  0.9821
  613MOL0     C82659   4.415   1.767   6.661 -0.0715 -0.7280  0.1321
  613MOL0     C82660   4.277   1.763   6.605  0.5788  0.4011  0.6927
  613MOL0     C82661   4.199   1.888   6.600 -0.2650  0.1647 -0.0224
  613MOL0     C82662   4.065   1.874   6.522 -0.1288 -0.3329  0.1508
  613MOL0     C82663   3.999   2.008   6.513  0.3407  0.8494  0.5494
  613MOL0     C82664   3.881   2.016   6.418  0.0131  0.0470  0.1215
  613MOL0    Cl82665   3.820   2.179   6.418  0.6288  0.0930  0.1868
  613MOL0     C82666   4.882   1.666   6.788 -0.4468  0.6072 -0.0989
  613MOL0     C82667   5.011   1.652   6.841 -0.0126  0.3667  0.0532
  613MOL0     O82668   5.162   1.473   7.072  0.5274 -0.0898 -0.9480
  613MOL0     C82669   5.441   1.454   7.099  0.1496  0.2829 -0.5079
  613MOL0     C82670   5.557   1.424   7.182 -0.0976 -0.1473 -0.0706
  613MOL0     N82671   6.206   1.065   7.314  0.0631 -0.3615 -0.1813
  613MOL0     N82672   6.298   1.010   7.252  0.4086  0.7341  0.2084
  613MOL0     C82673   7.659   0.966   7.416  0.0997  0.1402 -0.1367
  613MOL0     C82674   7.785   0.934   7.480  0.6480  0.1693  0.1182
  613MOL0     C82675   8.144   0.658   7.622  0.5781  0.0050  0.1449
  613MOL0     C82676   8.189   0.533   7.680  0.0362 -0.3723 -0.1968
  613MOL0     C82677   8.319   0.536   7.732  0.2718  0.3018 -1.1232
  613MOL0     C82678   8.401   0.648   7.729  0.2277 -0.0763 -0.2003
  613MOL0     O82679   8.526   0.652   7.778 -0.3989 -0.1916  0.7647
  613MOL0     C82680   8.579   0.548   7.865  0.1135  0.3011 -0.2872
  613MOL0     C82681   8.513   0.551   8.012 -1.0727  0.5532  0.2915
  613MOL0     C82682   8.562   0.429   8.096  0.4035  1.2457 -0.0211
  613MOL0     C82683   8.549   0.444   8.238 -0.3990 -0.2856 -0.1374
  613MOL0     C82684   8.577   0.315   8.298 -0.3643  0.6496  0.1050
  613MOL0     C82685   8.603   0.205   8.330  0.0279 -0.0191  0.9638
  613MOL0     C82686   8.350   0.764   7.674  0.9149  0.7649 -1.1215
  613MOL0     C82687   8.224   0.770   7.627 -0.2562  0.4689  0.3958
  613MOL0     H82688   7.835   0.636   7.330  0.3083 -0.1807  0.7891
  613MOL0     H82689   7.623   0.681   7.220  0.3079 -0.7542 -0.8061
  613MOL0     H82690   7.369   0.903   7.429  0.0564 -1.9011 -1.0040
  613MOL0     H82691   7.401   1.055   7.350  0.2221 -0.0073 -0.3181
  613MOL0     H82692   7.256   1.015   7.176  0.1141  0.2788  0.8480
  613MOL0     H82693   7.240   0.840   7.213 -1.3121  0.2674 -2.3644
  613MOL0     H82694   7.113   0.894   7.414  0.5290  0.1188 -0.1882
  613MOL0     H82695   7.149   1.068   7.392  0.0903  0.4502  1.0798
  613MOL0     H82696   7.013   1.093   7.200  2.0505 -0.1708 -1.2319
  613MOL0     H82697   7.020   0.918   7.166  1.2319 -0.2864  0.8044
  613MOL0     H82698   6.850   0.874   7.336  0.1824  0.4558  0.6654
  613MOL0     H82699   6.885   1.034   7.401  1.3908  1.7089 -1.1598
  613MOL0     H82700   6.783   1.128   7.185  0.7484  0.2308 -0.3307
  613MOL0     H82701   6.762   0.954   7.131 -1.6219 -1.9507  1.5080
  613MOL0     H82702   6.609   0.900   7.296 -2.2168  0.2389 -2.8778
  613MOL0     H82703   6.627   1.067   7.369  2.7506  1.4527 -0.5623
  613MOL0     H82704   6.497   0.975   7.108 -0.5300 -1.4919  1.8776
  613MOL0     H82705   6.555   1.138   7.119  1.7595 -1.0409 -0.4329
  613MOL0     H82706   6.425   1.308   7.293  1.0931  0.2485  0.5699
  613MOL0     H82707   6.112   1.254   7.486  3.7556 -1.7072  0.4438
  613MOL0     H82708   6.211   1.386   7.429 -0.0118  2.1894 -2.5485
  613MOL0     H82709   5.993   1.258   7.250 -3.2668  1.8819 -0.2205
  613MOL0     H82710   6.100   1.380   7.206 -0.9431 -0.0140 -0.4410
  613MOL0     H82711   6.013   1.545   7.338  0.0746  0.7998 -1.3345
  613MOL0     H82712   5.920   1.438   7.455  1.0081  0.8560  0.0103
  613MOL0     H82713   5.809   1.380   7.201 -1.9044  0.5129 -1.1691
  613MOL0     H82714   5.860   1.541   7.177 -0.0579  0.0747 -0.2105
  613MOL0     H82715   5.570   1.723   7.342 -2.2677  1.1340 -0.7557
  613MOL0     H82716   5.338   1.859   7.157 -1.7596  0.0746  0.2303
  613MOL0     H82717   5.246   1.773   7.289  1.2040  0.8788  2.1534
  613MOL0     H82718   5.391   1.859   7.320 -0.2475  3.1932 -2.1091
  613MOL0     H82719   4.963   1.839   7.124 -2.0520 -0.4588  0.7939
  613MOL0     H82720   4.746   1.845   7.025  0.1933  0.5142  0.6674
  613MOL0     H82721   4.545   1.739   6.973  3.1677  2.1611  1.1266
  613MOL0     H82722   4.585   1.884   6.889  1.2144 -0.5237  0.2504
  613MOL0     H82723   4.383   1.658   6.841  0.9464 -0.3325  1.2896
  613MOL0     H82724   4.352   1.831   6.868 -0.7223 -1.3404  2.1097
  613MOL0     H82725   4.462   1.674   6.627 -0.7375 -1.7705  1.9230
  613MOL0     H82726   4.466   1.860   6.632 -1.9083  0.0931 -0.5688
  613MOL0     H82727   4.281   1.724   6.503  0.9397  2.7053 -0.2380
  613MOL0     H82728   4.215   1.687   6.654 -1.7136  1.4314 -0.4562
  613MOL0     H82729   4.260   1.970   6.561  0.8003  0.6917  2.5565
  613MOL0     H82730   4.178   1.913   6.704  1.8743  2.1180  0.0362
  613MOL0     H82731   4.095   1.838   6.423 -0.6175 -1.4771  0.4080
  613MOL0     H82732   4.004   1.801   6.575 -0.8836  1.1174  1.3741
  613MOL0     H82733   4.069   2.085   6.478 -1.4277  1.0291 -3.0888
  613MOL0     H82734   3.958   2.036   6.610  1.0342  1.2158  0.7443
  613MOL0     H82735   3.806   1.947   6.456 -0.4934  0.8441  0.5974
  613MOL0     H82736   3.920   1.977   6.324 -1.4816 -0.2314 -0.4062
  613MOL0     H82737   4.862   1.625   6.690 -0.4478  4.3388 -1.8392
  613MOL0     H82738   5.084   1.589   6.792 -1.3965 -1.2125 -0.0764
  613MOL0     H82739   5.402   1.376   7.035  0.5436 -0.6333  0.3430
  613MOL0     H82740   5.614   1.335   7.160 -1.8165 -0.3941 -4.4456
  613MOL0     H82741   7.602   1.056   7.433 -1.4661 -0.7355 -0.5085
  613MOL0     H82742   7.823   1.001   7.555  0.2083 -0.1896  0.6732
  613MOL0     H82743   8.134   0.440   7.687 -1.3077  0.4756  1.1762
  613MOL0     H82744   8.348   0.437   7.766 -3.2306 -0.4810  0.0699
  613MOL0     H82745   8.558   0.450   7.821 -4.3404  0.1607  1.6589
  613MOL0     H82746   8.688   0.562   7.873  0.0252  0.6599  0.3769
  613MOL0     H82747   8.404   0.558   8.010 -1.1077  0.4026  1.5023
  613MOL0     H82748   8.548   0.646   8.053 -0.1633  0.5016 -0.3094
  613MOL0     H82749   8.665   0.408   8.065  0.2217  1.1038 -0.5454
  613MOL0     H82750   8.502   0.347   8.057  2.4903  1.5803 -4.6439
  613MOL0     H82751   8.449   0.480   8.263 -0.9071  0.1325 -2.5451
  613MOL0     H82752   8.631   0.514   8.259 -2.2608  1.5961  1.3193
  613MOL0     H82753   8.627   0.112   8.379 -3.8248 -0.7434  1.7430
  613MOL0     H82754   8.417   0.848   7.681  2.1373 -0.3164  3.4127
  613MOL0     H82755   8.203   0.865   7.579  1.9879 -0.1816 -2.0397
  614MOL0     O82756  11.239   8.212   3.494  0.3686  0.5637 -0.1474
  614MOL0     C82757  11.184   8.228   3.603 -0.6074  1.0867  1.0124
  614MOL0     O82758  11.051   8.238   3.625 -0.0621 -0.4515  0.0196
  614MOL0     C82759  10.971   8.173   3.541 -0.1275  0.3003 -0.0691
  614MOL0     C82760  11.002   8.051   3.480 -0.3542 -0.0768 -0.3931
  614MOL0     C82761  10.915   7.984   3.398 -0.0457  0.4170  0.3530
  614MOL0     C82762  10.786   8.035   3.381  1.0917 -0.7788 -0.7460
  614MOL0     O82763  10.693   7.964   3.319  0.6323 -0.1895  0.6874
  614MOL0     C82764  10.719   7.935   3.173 -0.0968 -0.9155  0.1335
  614MOL0     C82765  10.628   7.823   3.132  0.0676  0.1064 -0.6405
  614MOL0     C82766  10.481   7.871   3.126 -0.2509  0.2788  0.8482
  614MOL0     C82767  10.402   7.770   3.038 -0.0847 -0.0033 -0.7527
  614MOL0     C82768  10.281   7.843   2.976 -0.2544  0.0082  0.2275
  614MOL0     C82769  10.194   7.740   2.904  0.1422  0.7919 -0.3659
  614MOL0     C82770  10.044   7.763   2.880  0.7527 -0.2523 -0.4308
  614MOL0     C82771  10.045   7.890   2.796  1.3200  0.8647  0.6566
  614MOL0     N82772   9.918   7.933   2.748 -0.3960  0.1887  0.4937
  614MOL0     C82773   9.863   7.885   2.634 -0.0524  0.2042 -0.0042
  614MOL0     C82774   9.735   7.935   2.638 -0.2908  0.1312  1.1652
  614MOL0     C82775   9.627   7.899   2.534  0.3962  0.1171 -0.9628
  614MOL0     C82776   9.508   7.995   2.539  0.3190 -0.2202  0.1963
  614MOL0     C82777   9.401   7.931   2.449 -0.4628 -0.3383  1.7982
  614MOL0     C82778   9.292   8.026   2.435 -0.2618  0.0879  0.0300
  614MOL0     O82779   9.199   7.980   2.338  0.4307  0.2681 -0.5143
  614MOL0     C82780   9.106   8.062   2.277 -0.1474  0.3639  0.4873
  614MOL0     C82781   9.025   8.002   2.180 -0.4207 -0.1195  0.0226
  614MOL0     C82782   8.925   8.079   2.112 -0.1904  0.5411  0.8771
  614MOL0     C82783   8.847   7.999   2.008 -0.1913 -0.7199  0.2478
  614MOL0     C82784   8.893   8.207   2.157 -0.3954 -0.0379  0.0076
  614MOL0     C82785   8.791   8.292   2.102 -0.1041  0.3046  1.0928
  614MOL0     O82786   8.687   8.233   2.027 -0.4505 -0.1098  0.8979
  614MOL0     C82787   8.581   8.308   1.973 -0.3979  0.3517  0.5877
  614MOL0     C82788   8.458   8.247   1.979  0.8650 -0.2163  0.3355
  614MOL0     C82789   8.354   8.307   1.910 -0.2673  0.1719  0.4457
  614MOL0     C82790   8.365   8.436   1.857  0.4972 -0.5020  0.8495
  614MOL0     O82791   8.260   8.509   1.799 -0.6725 -0.0722 -0.3743
  614MOL0     C82792   8.155   8.436   1.733 -0.2003  0.4921 -0.1689
  614MOL0     C82793   8.039   8.401   1.827 -0.6332 -0.3111  0.2628
  614MOL0     C82794   7.946   8.521   1.845 -0.8714 -0.7137  0.2160
  614MOL0     C82795   7.827   8.466   1.925  0.1503 -0.3455  0.7616
  614MOL0     C82796   7.730   8.579   1.962  0.4158 -0.4606 -0.0695
  614MOL0     C82797   7.598   8.522   2.024  0.1203 -0.0538  0.0445
  614MOL0     C82798   7.614   8.499   2.171 -0.4764 -0.5966 -0.0380
  614MOL0     C82799   7.572   8.621   2.253  0.4795 -0.0565  0.7734
  614MOL0    Cl82800   7.393   8.634   2.252  0.2670 -0.3259  0.4012
  614MOL0     C82801   8.491   8.501   1.860 -0.3550 -0.8078 -0.4487
  614MOL0     C82802   8.603   8.424   1.903  0.4640  0.0321 -0.7465
  614MOL0     O82803   8.806   8.412   2.119  0.2647 -0.1062  0.1284
  614MOL0     C82804   8.980   8.267   2.250  0.4587 -0.6974  0.2405
  614MOL0     C82805   9.083   8.193   2.309 -0.3166 -0.0389 -0.1684
  614MOL0     N82806   9.724   8.016   2.746 -1.1287  0.3815 -0.6229
  614MOL0     N82807   9.836   8.019   2.815  0.7654  0.3139  0.1580
  614MOL0     C82808  10.749   8.155   3.447  0.1558  0.2483 -0.4455
  614MOL0     C82809  10.840   8.216   3.525  0.6716 -0.3067  0.2516
  614MOL0     C82810  11.268   8.283   3.718  0.1854  0.1980  0.7082
  614MOL0     C82811  11.411   8.264   3.721  1.3251 -0.3018 -0.0405
  614MOL0     C82812  11.485   8.323   3.828  0.2728 -0.3760  0.4202
  614MOL0     C82813  11.422   8.378   3.940  0.0068  0.1750 -1.4529
  614MOL0     O82814  11.499   8.409   4.050  0.6221  0.4225 -0.5428
  614MOL0     C82815  11.437   8.489   4.152  0.1276  0.5599  0.3631
  614MOL0     C82816  11.542   8.542   4.254  0.1113  0.6712  0.6421
  614MOL0     C82817  11.489   8.644   4.354  0.1441  0.1149  0.2150
  614MOL0     C82818  11.607   8.712   4.421 -0.4491  0.6412 -0.8199
  614MOL0     C82819  11.692   8.807   4.349  0.6319  0.8573  0.2791
  614MOL0     C82820  11.777   8.873   4.291 -0.7475 -0.6466 -0.5704
  614MOL0     C82821  11.285   8.381   3.939  0.3861 -0.0468  0.6952
  614MOL0     C82822  11.207   8.335   3.831 -0.2324  0.1840 -0.3459
  614MOL0     H82823  11.093   7.993   3.469  0.0222  0.8176 -2.4289
  614MOL0     H82824  10.942   7.886   3.360 -0.2755  0.5093 -0.0584
  614MOL0     H82825  10.706   8.017   3.102  0.5276 -2.0243 -1.3075
  614MOL0     H82826  10.822   7.898   3.171 -0.0312 -0.7711  0.5496
  614MOL0     H82827  10.660   7.786   3.033 -0.4171 -2.2036  0.0047
  614MOL0     H82828  10.652   7.739   3.198 -0.5054  0.4384 -0.0086
  614MOL0     H82829  10.436   7.862   3.225 -1.0341 -0.5290  0.4297
  614MOL0     H82830  10.465   7.972   3.086  1.3798 -0.2474 -1.3059
  614MOL0     H82831  10.457   7.721   2.957  0.2529 -0.7952 -0.0587
  614MOL0     H82832  10.357   7.698   3.108 -0.5472  1.3135  0.3451
  614MOL0     H82833  10.229   7.901   3.053 -0.3212 -0.2200  0.3536
  614MOL0     H82834  10.322   7.912   2.902 -0.1705  0.0603  0.3227
  614MOL0     H82835  10.242   7.721   2.807 -0.2125 -4.5121  0.2132
  614MOL0     H82836  10.200   7.648   2.964  1.4014  0.6129 -0.7299
  614MOL0     H82837   9.999   7.679   2.827 -1.9180 -0.2835  1.6924
  614MOL0     H82838   9.996   7.775   2.977  0.4146  2.7784 -0.8742
  614MOL0     H82839  10.116   7.891   2.713  0.5171  2.0940 -0.0348
  614MOL0     H82840  10.078   7.968   2.866  1.8739  1.3688 -0.1470
  614MOL0     H82841   9.916   7.827   2.560  1.3453  0.1985  0.9469
  614MOL0     H82842   9.664   7.902   2.432 -1.1397  0.4595 -1.5410
  614MOL0     H82843   9.585   7.801   2.558 -1.1808  1.3136  1.7359
  614MOL0     H82844   9.547   8.094   2.513  3.7251 -0.7811  2.4625
  614MOL0     H82845   9.462   8.011   2.637 -1.6150  2.0701 -0.9815
  614MOL0     H82846   9.377   7.831   2.486  0.0752 -1.2965 -0.2822
  614MOL0     H82847   9.444   7.924   2.349 -1.6847 -1.6155  1.3398
  614MOL0     H82848   9.333   8.121   2.400  0.3965 -0.3450 -0.4014
  614MOL0     H82849   9.240   8.043   2.530 -0.3817 -2.2156  0.4489
  614MOL0     H82850   9.032   7.896   2.156 -2.0727 -0.6786  1.7530
  614MOL0     H82851   8.847   8.053   1.913  2.9499 -1.1012 -0.0790
  614MOL0     H82852   8.893   7.905   1.977 -1.8466 -1.9283  1.2856
  614MOL0     H82853   8.747   7.974   2.046 -0.5349 -0.4375 -0.4448
  614MOL0     H82854   8.469   8.153   2.032  0.1780 -2.0103 -2.4979
  614MOL0     H82855   8.264   8.246   1.904  0.0056 -0.2868  0.9630
  614MOL0     H82856   8.119   8.495   1.649 -0.2157  1.9228  0.7981
  614MOL0     H82857   8.192   8.346   1.685  0.5390  1.1631 -0.8859
  614MOL0     H82858   7.971   8.325   1.788 -1.1630 -0.3044  1.1369
  614MOL0     H82859   8.081   8.362   1.920  0.2363  1.2860  0.5671
  614MOL0     H82860   7.903   8.557   1.751  0.5566  2.0389  0.4930
  614MOL0     H82861   7.998   8.599   1.902 -0.0313 -0.5217 -0.7992
  614MOL0     H82862   7.783   8.390   1.859  1.6100 -2.6085  2.2165
  614MOL0     H82863   7.856   8.414   2.017 -4.4732  0.7137  3.0676
  614MOL0     H82864   7.709   8.623   1.864 -1.5783 -1.7444 -0.2753
  614MOL0     H82865   7.766   8.665   2.019 -0.0405  0.1746 -0.7193
  614MOL0     H82866   7.511   8.586   2.009  0.6138  1.3389  2.5474
  614MOL0     H82867   7.574   8.425   1.978  1.6770 -0.4934  0.1037
  614MOL0     H82868   7.719   8.483   2.198 -0.1234 -2.0629 -2.0703
  614MOL0     H82869   7.558   8.409   2.201  1.4015 -2.0320 -0.6470
  614MOL0     H82870   7.618   8.714   2.218 -0.2248  0.5150  1.3370
  614MOL0     H82871   7.612   8.614   2.355  0.4906 -0.8664  0.7217
  614MOL0     H82872   8.510   8.597   1.815  2.1945 -0.2034  1.6766
  614MOL0     H82873   8.704   8.464   1.902  0.4992  0.2035  1.9380
  614MOL0     H82874   8.984   8.374   2.266  0.9033 -0.7537  0.5415
  614MOL0     H82875   9.152   8.249   2.371 -0.5737  0.1152 -0.0181
  614MOL0     H82876  10.649   8.198   3.444  0.1423  0.2393 -0.1633
  614MOL0     H82877  10.806   8.307   3.574  1.1300 -0.5855  1.1044
  614MOL0     H82878  11.463   8.205   3.646  1.5824 -1.4725  1.0097
  614MOL0     H82879  11.589   8.293   3.817  0.5538  0.7794 -0.2861
  614MOL0     H82880  11.389   8.577   4.108 -0.0797  0.6016  0.6760
  614MOL0     H82881  11.363   8.428   4.204 -0.4698 -0.3542 -1.4933
  614MOL0     H82882  11.627   8.579   4.195  0.2765 -0.3577  0.2254
  614MOL0     H82883  11.574   8.454   4.310 -1.5369 -0.9737 -0.8653
  614MOL0     H82884  11.416   8.592   4.417  0.2508 -1.8742 -1.1813
  614MOL0     H82885  11.432   8.722   4.302  1.4148  0.8074 -0.1809
  614MOL0     H82886  11.681   8.644   4.465 -1.9954  0.2412  1.3259
  614MOL0     H82887  11.561   8.759   4.509  1.1066 -0.1815  0.4793
  614MOL0     H82888  11.844   8.938   4.239  0.9687 -0.6972  1.4272
  614MOL0     H82889  11.232   8.421   4.025  0.4011 -0.2084  0.7802
  614MOL0     H82890  11.101   8.327   3.849 -0.0252  0.5619  1.1356
  615MOL0     O82891   3.882   3.802   5.573  0.3267 -0.0460 -0.4004
  615MOL0     C82892   3.916   3.852   5.679 -0.2487 -0.4258  0.2751
  615MOL0     O82893   3.831   3.913   5.766  0.4756  0.0819 -0.1598
  615MOL0     C82894   3.702   3.903   5.746 -0.2193  1.0228 -0.6847
  615MOL0     C82895   3.633   3.961   5.640 -0.2916  0.5279  0.2044
  615MOL0     C82896   3.494   3.965   5.626  0.0046  0.9355 -0.0663
  615MOL0     C82897   3.414   3.900   5.725 -0.2288 -0.5845  0.2019
  615MOL0     O82898   3.279   3.893   5.726  0.4332 -0.4093  0.0196
  615MOL0     C82899   3.216   3.973   5.624  0.3665  0.5198  0.3250
  615MOL0     C82900   3.063   3.956   5.640  0.1257 -0.3400 -0.3829
  615MOL0     C82901   2.985   4.008   5.519  0.1730 -0.1594  0.7074
  615MOL0     C82902   2.832   4.006   5.550 -0.2548  0.8592  0.2967
  615MOL0     C82903   2.742   4.084   5.453 -0.1225  0.0346 -0.0084
  615MOL0     C82904   2.746   4.049   5.306 -0.5867  0.1344  0.3939
  615MOL0     C82905   2.669   4.150   5.225 -0.1483 -0.3631  0.5063
  615MOL0     C82906   2.697   4.120   5.077  0.3872  0.2845  0.2075
  615MOL0     N82907   2.837   4.132   5.023 -0.7574 -0.2718 -0.2843
  615MOL0     C82908   2.924   4.232   5.071 -0.9033 -0.0906  0.8125
  615MOL0     C82909   3.047   4.197   5.025  0.5973  0.7299  0.0820
  615MOL0     C82910   3.177   4.273   5.043 -0.3728 -0.0383  0.1299
  615MOL0     C82911   3.260   4.274   4.912 -0.1214  0.3114 -0.3463
  615MOL0     C82912   3.390   4.356   4.921  0.0065  0.6478  0.1231
  615MOL0     C82913   3.472   4.296   4.814  0.0336  0.6216 -0.9001
  615MOL0     O82914   3.560   4.388   4.754  0.0747 -0.1213  0.5999
  615MOL0     C82915   3.672   4.431   4.810  0.0308 -0.0437 -0.0687
  615MOL0     C82916   3.744   4.532   4.744  0.2462  0.5676  0.3789
  615MOL0     C82917   3.857   4.595   4.791 -0.2058  0.5583  0.5210
  615MOL0     C82918   3.910   4.714   4.726 -0.6322 -0.1711  0.4599
  615MOL0     C82919   3.909   4.549   4.915  0.3652 -0.1321  0.5501
  615MOL0     C82920   4.029   4.612   4.981 -0.2113  1.6604 -0.0529
  615MOL0     O82921   4.024   4.741   4.993  0.3182 -0.3742  0.0029
  615MOL0     C82922   4.140   4.792   5.042 -0.1561 -0.4205  0.2205
  615MOL0     C82923   4.154   4.811   5.180 -0.0703 -0.3709  0.6710
  615MOL0     C82924   4.276   4.855   5.234 -0.0917 -0.1112 -0.7509
  615MOL0     C82925   4.382   4.890   5.154 -0.8984  0.5322 -0.1341
  615MOL0     O82926   4.500   4.931   5.204  0.4229 -0.2430 -0.8432
  615MOL0     C82927   4.607   4.838   5.203  0.0200  0.1750 -0.2756
  615MOL0     C82928   4.735   4.916   5.195  0.1417  0.1153 -1.5740
  615MOL0     C82929   4.763   4.988   5.059  0.3503 -0.4211 -0.5542
  615MOL0     C82930   4.907   5.047   5.048  0.3356 -0.2257  0.0572
  615MOL0     C82931   4.936   5.120   4.910  0.3272  1.0723  0.2616
  615MOL0     C82932   5.093   5.136   4.896 -0.4711  0.2043  0.2192
  615MOL0     C82933   5.154   5.242   4.991  0.8171  0.0013  0.0019
  615MOL0     C82934   5.301   5.260   4.985 -0.2983 -0.4205  0.3877
  615MOL0    Cl82935   5.394   5.120   5.045 -0.3521 -0.5437  0.4759
  615MOL0     C82936   4.372   4.890   5.012 -0.4222  0.9942 -0.6328
  615MOL0     C82937   4.248   4.837   4.956 -0.3740 -0.5572 -0.4286
  615MOL0     O82938   4.109   4.531   5.034  0.3634 -0.2771 -0.2246
  615MOL0     C82939   3.838   4.444   4.983 -0.1117  0.7199  0.4230
  615MOL0     C82940   3.728   4.384   4.930  0.0726 -0.2962 -0.4310
  615MOL0     N82941   3.035   4.090   4.941 -0.3053 -0.3425  0.1662
  615MOL0     N82942   2.907   4.048   4.942  0.5336  0.2941 -0.0164
  615MOL0     C82943   3.479   3.842   5.832  0.3414  0.4376  0.3530
  615MOL0     C82944   3.617   3.839   5.839 -0.4725 -0.7494  0.2430
  615MOL0     C82945   4.055   3.872   5.706 -0.2532 -0.8366  0.6252
  615MOL0     C82946   4.160   3.794   5.639  0.3917  0.0209  0.6009
  615MOL0     C82947   4.289   3.804   5.682 -0.5201  0.3220 -0.2056
  615MOL0     C82948   4.329   3.878   5.791  0.5258  0.2485 -0.2775
  615MOL0     O82949   4.458   3.873   5.845 -0.4709  0.2324  0.5941
  615MOL0     C82950   4.553   3.779   5.797 -0.5081  0.2813 -1.4731
  615MOL0     C82951   4.620   3.813   5.675  0.2160  0.0525  0.7816
  615MOL0     C82952   4.686   3.695   5.616 -0.4751 -0.2402 -0.5096
  615MOL0     C82953   4.840   3.709   5.596  0.1986  0.8408 -0.1242
  615MOL0     C82954   4.861   3.819   5.501 -0.5125  0.0555 -0.3057
  615MOL0     C82955   4.878   3.910   5.421  0.3920 -0.0316 -0.3772
  615MOL0     C82956   4.225   3.948   5.860 -0.3333  0.6091  0.2964
  615MOL0     C82957   4.098   3.947   5.818  0.0908 -0.4743 -0.4756
  615MOL0     H82958   3.693   4.022   5.573 -2.7090  2.9130  0.0087
  615MOL0     H82959   3.446   4.010   5.540  0.2529  2.6686  0.6610
  615MOL0     H82960   3.245   4.078   5.612  2.4963 -0.2276 -1.7222
  615MOL0     H82961   3.241   3.923   5.530 -0.3899 -0.4332  0.6191
  615MOL0     H82962   3.039   3.850   5.655  0.8600 -0.6997 -1.5735
  615MOL0     H82963   3.032   4.017   5.725 -0.5765 -0.3721 -0.6156
  615MOL0     H82964   3.000   4.115   5.504 -2.4360  0.1165 -0.4191
  615MOL0     H82965   3.017   3.958   5.426 -0.2585  1.5286 -0.3883
  615MOL0     H82966   2.810   3.899   5.543  0.3200  0.7440  0.2755
  615MOL0     H82967   2.799   4.031   5.652 -2.9780 -1.8719  0.2650
  615MOL0     H82968   2.646   4.070   5.505  2.6912 -3.2763  5.2285
  615MOL0     H82969   2.766   4.190   5.464  1.9036 -0.4067  0.2790
  615MOL0     H82970   2.848   4.039   5.268 -1.2939  0.2239 -1.6312
  615MOL0     H82971   2.720   3.943   5.302 -0.1053 -0.0411  1.3739
  615MOL0     H82972   2.562   4.143   5.248 -0.5546  1.0767 -0.7688
  615MOL0     H82973   2.681   4.257   5.249  2.4988 -0.8867  1.9160
  615MOL0     H82974   2.640   4.182   5.006  2.2493 -0.2058 -1.8472
  615MOL0     H82975   2.661   4.021   5.051 -0.6665  0.2176  1.8633
  615MOL0     H82976   2.901   4.321   5.129  1.7184  1.9531 -1.0706
  615MOL0     H82977   3.148   4.377   5.059  1.2533  0.7258 -1.4883
  615MOL0     H82978   3.236   4.235   5.127 -1.0054  0.7857  0.9585
  615MOL0     H82979   3.206   4.306   4.822  1.6631 -2.9000 -2.7780
  615MOL0     H82980   3.287   4.172   4.882  0.1032  0.6016 -1.1372
  615MOL0     H82981   3.438   4.347   5.019  1.1136 -1.8141 -0.5660
  615MOL0     H82982   3.374   4.461   4.895 -0.6282  0.5815  0.2284
  615MOL0     H82983   3.414   4.254   4.731  1.1019 -0.6920 -1.0206
  615MOL0     H82984   3.524   4.208   4.854 -1.7136 -0.7609 -1.5559
  615MOL0     H82985   3.684   4.575   4.665 -1.6230  0.7483  1.8176
  615MOL0     H82986   4.014   4.728   4.759 -1.5856 -0.0791  3.7868
  615MOL0     H82987   3.907   4.709   4.617  1.7691  0.6682  0.2877
  615MOL0     H82988   3.845   4.797   4.753  1.5862  1.1846  2.0069
  615MOL0     H82989   4.071   4.795   5.248 -2.7807 -0.4620 -2.3942
  615MOL0     H82990   4.298   4.864   5.340 -1.3605  1.9411 -0.6299
  615MOL0     H82991   4.604   4.775   5.292  0.4782  0.8715  0.2441
  615MOL0     H82992   4.597   4.767   5.120 -0.3811  0.0446 -0.1170
  615MOL0     H82993   4.743   4.995   5.270  0.6363 -1.3789  0.0202
  615MOL0     H82994   4.814   4.843   5.216 -1.5971 -1.8813 -1.6541
  615MOL0     H82995   4.685   5.060   5.033  0.7500  0.2655  0.1106
  615MOL0     H82996   4.767   4.918   4.975  4.0737  3.5201 -4.1304
  615MOL0     H82997   4.933   5.105   5.137 -0.4365 -0.6537  0.5676
  615MOL0     H82998   4.978   4.963   5.054 -1.5259 -1.8597  0.0897
  615MOL0     H82999   4.898   5.223   4.914 -0.5724  0.7398  0.5380
  615MOL0     H83000   4.894   5.059   4.829  0.9540  1.8829 -0.7043
  615MOL0     H83001   5.132   5.034   4.901 -2.2771 -0.4694  3.7829
  615MOL0     H83002   5.116   5.158   4.791 -0.3059  1.0543  0.4285
  615MOL0     H83003   5.126   5.216   5.094  0.6556 -1.1781 -0.3229
  615MOL0     H83004   5.105   5.339   4.979 -3.3684 -1.7810  0.7989
  615MOL0     H83005   5.334   5.345   5.046 -0.6791 -1.2529  1.7916
  615MOL0     H83006   5.317   5.276   4.878 -0.5458  0.1323  0.4292
  615MOL0     H83007   4.454   4.932   4.954  0.7664 -0.6029 -0.1803
  615MOL0     H83008   4.229   4.823   4.850  1.9416  0.4529 -1.0434
  615MOL0     H83009   3.874   4.405   5.078 -2.5957 -1.1705  0.6769
  615MOL0     H83010   3.700   4.292   4.980  0.2941 -1.4493 -2.3414
  615MOL0     H83011   3.432   3.786   5.913 -0.0214 -0.3763 -0.4116
  615MOL0     H83012   3.665   3.785   5.920 -1.6167  0.4317  1.7487
  615MOL0     H83013   4.143   3.732   5.551  0.7762 -0.5521  0.9213
  615MOL0     H83014   4.364   3.747   5.628 -1.2106 -2.0674  1.1634
  615MOL0     H83015   4.619   3.763   5.883 -2.4554  1.4234  0.3161
  615MOL0     H83016   4.504   3.682   5.788  1.2902 -0.7269 -0.9794
  615MOL0     H83017   4.692   3.894   5.688 -0.6750  0.8462  0.9188
  615MOL0     H83018   4.546   3.846   5.601 -0.1493  1.4447  1.7397
  615MOL0     H83019   4.641   3.680   5.518 -1.9887  1.8638 -0.1992
  615MOL0     H83020   4.666   3.606   5.677  0.7381 -0.0038  0.2819
  615MOL0     H83021   4.881   3.616   5.554 -1.5857 -0.5188  1.0125
  615MOL0     H83022   4.883   3.716   5.696  0.4814  1.0891 -0.2618
  615MOL0     H83023   4.870   3.988   5.348 -1.6292 -1.2469 -1.5353
  615MOL0     H83024   4.251   4.017   5.940 -0.3701  0.2500  0.6267
  615MOL0     H83025   4.028   4.015   5.866  0.5728 -1.1454  1.2625
  616MOL0     O83026   6.231   7.153   8.012  0.0023  0.0596  0.3467
  616MOL0     C83027   6.254   7.045   8.067 -1.2155 -0.5473  0.9711
  616MOL0     O83028   6.161   6.971   8.136  0.0426  0.6632  0.1465
  616MOL0     C83029   6.031   7.010   8.144  0.7463 -0.7694  0.9643
  616MOL0     C83030   5.948   7.006   8.028  0.0767  0.0959 -0.4314
  616MOL0     C83031   5.815   7.049   8.032 -0.1465  0.4452 -0.0432
  616MOL0     C83032   5.771   7.110   8.148  0.6117  0.1409 -0.5029
  616MOL0     O83033   5.648   7.171   8.138  0.5572 -0.9519  0.6591
  616MOL0     C83034   5.576   7.204   8.258  0.3377  0.3019  0.1694
  616MOL0     C83035   5.431   7.239   8.223 -0.0920 -0.2967 -0.4212
  616MOL0     C83036   5.336   7.264   8.345  0.0547 -0.2772 -0.9382
  616MOL0     C83037   5.195   7.289   8.297  0.9825 -0.3464 -0.3568
  616MOL0     C83038   5.095   7.310   8.418  0.7594  0.6569 -0.2481
  616MOL0     C83039   4.968   7.392   8.372 -0.6707 -0.3055 -0.1093
  616MOL0     C83040   4.856   7.396   8.476 -0.2695  0.6659 -0.9380
  616MOL0     C83041   4.739   7.489   8.445  0.1140  0.4282  1.2057
  616MOL0     N83042   4.632   7.459   8.538  0.4611 -0.3250 -0.3595
  616MOL0     C83043   4.525   7.375   8.509 -0.0942 -0.2011 -0.1439
  616MOL0     C83044   4.441   7.395   8.615 -0.4438  0.7040  0.2626
  616MOL0     C83045   4.311   7.329   8.637  1.2764 -0.2518  0.0461
  616MOL0     C83046   4.334   7.179   8.662 -0.0711  0.4281 -0.4049
  616MOL0     C83047   4.218   7.096   8.691  0.7216  0.1070  0.2385
  616MOL0     C83048   4.129   7.072   8.565  0.6929 -0.1101 -0.0442
  616MOL0     O83049   4.057   7.184   8.522  0.0353 -0.3743 -0.1496
  616MOL0     C83050   3.934   7.214   8.575 -1.0691 -0.2077  0.1982
  616MOL0     C83051   3.863   7.325   8.510 -0.5490  0.9585 -0.1009
  616MOL0     C83052   3.729   7.354   8.536 -0.1493  0.4932 -0.7408
  616MOL0     C83053   3.669   7.461   8.445 -0.8531 -0.7881 -0.3882
  616MOL0     C83054   3.665   7.295   8.656  0.3132  0.8120  0.6778
  616MOL0     C83055   3.538   7.332   8.704  1.0665 -0.1562 -0.0278
  616MOL0     O83056   3.490   7.265   8.813  0.0455  0.4093 -0.2512
  616MOL0     C83057   3.358   7.291   8.836  0.3137 -0.0008  0.2222
  616MOL0     C83058   3.254   7.204   8.794 -0.2345  0.3626 -0.9165
  616MOL0     C83059   3.123   7.230   8.827 -0.1309 -0.0895  0.2966
  616MOL0     C83060   3.088   7.346   8.897  0.4101  0.4232  0.0589
  616MOL0     O83061   2.953   7.363   8.922 -0.9734  0.3659 -0.3476
  616MOL0     C83062   2.903   7.288   9.028  0.3094 -0.5795  0.1483
  616MOL0     C83063   2.862   7.379   9.145 -0.8360 -0.1712  0.3462
  616MOL0     C83064   2.722   7.436   9.113  0.3321  0.3857 -0.4529
  616MOL0     C83065   2.629   7.374   9.219 -0.6118  0.1046  0.6899
  616MOL0     C83066   2.490   7.427   9.209  0.5599  0.8468 -0.9185
  616MOL0     C83067   2.409   7.360   9.318 -0.0652 -0.1335  0.1069
  616MOL0     C83068   2.261   7.409   9.314  0.3672  0.2257 -0.9141
  616MOL0     C83069   2.225   7.546   9.381 -0.0012 -0.6640 -0.6451
  616MOL0    Cl83070   2.045   7.552   9.403 -0.0014  0.4606  0.4389
  616MOL0     C83071   3.195   7.429   8.939 -0.0631 -0.3843 -0.5357
  616MOL0     C83072   3.322   7.405   8.905  0.1973  0.6566  0.4117
  616MOL0     O83073   3.479   7.422   8.645  0.2608  0.8350 -1.1916
  616MOL0     C83074   3.736   7.189   8.718 -0.4511 -0.3771 -0.1481
  616MOL0     C83075   3.868   7.152   8.677 -1.2644 -0.0304  0.0221
  616MOL0     N83076   4.504   7.473   8.715 -0.1165 -0.5787  0.0236
  616MOL0     N83077   4.617   7.508   8.667 -0.8903 -0.2016 -0.5362
  616MOL0     C83078   5.847   7.116   8.267 -0.0745  0.5852  0.2302
  616MOL0     C83079   5.982   7.072   8.262 -0.4357  0.6254  0.9290
  616MOL0     C83080   6.387   6.981   8.059 -0.3654 -0.2722 -0.0250
  616MOL0     C83081   6.514   7.056   8.085  0.4000  0.5385 -0.4991
  616MOL0     C83082   6.630   6.988   8.085 -0.2470  0.2339  0.2633
  616MOL0     C83083   6.642   6.853   8.033  0.7879 -0.1193 -0.4676
  616MOL0     O83084   6.764   6.780   8.035  0.3881  0.4283  0.0241
  616MOL0     C83085   6.899   6.834   8.061  0.9518 -0.0737 -0.2982
  616MOL0     C83086   6.943   6.929   7.943  0.3911 -0.1175 -0.6015
  616MOL0     C83087   7.074   6.993   7.989  0.5281 -0.2357 -0.2905
  616MOL0     C83088   7.195   6.901   7.962  0.1665 -0.3875 -0.5873
  616MOL0     C83089   7.315   6.934   8.033 -0.6135 -0.1929  0.6721
  616MOL0     C83090   7.422   6.965   8.080  0.3383  0.7477 -0.6839
  616MOL0     C83091   6.525   6.779   8.014  0.2441 -0.9400  0.3278
  616MOL0     C83092   6.398   6.840   8.025 -0.2606 -0.1969  0.1313
  616MOL0     H83093   5.989   6.958   7.941  0.9099 -2.1201  1.1061
  616MOL0     H83094   5.744   7.057   7.950 -0.6061  1.2970  0.4299
  616MOL0     H83095   5.580   7.121   8.329  1.5848  1.0417  1.0040
  616MOL0     H83096   5.614   7.292   8.312 -0.8053  0.5590  0.5945
  616MOL0     H83097   5.434   7.332   8.166 -1.6396 -0.5840 -1.0028
  616MOL0     H83098   5.403   7.151   8.165 -2.9538  0.0944  0.2460
  616MOL0     H83099   5.345   7.176   8.409 -2.0023 -1.9303 -2.7853
  616MOL0     H83100   5.372   7.353   8.398 -0.1090  0.3547 -1.8554
  616MOL0     H83101   5.189   7.387   8.250  2.2347 -0.4990 -0.8900
  616MOL0     H83102   5.167   7.211   8.226  0.1296 -0.6724  0.3232
  616MOL0     H83103   5.055   7.217   8.461 -0.6145  1.6850  0.8072
  616MOL0     H83104   5.149   7.366   8.495 -3.4352  2.4209  1.7412
  616MOL0     H83105   4.995   7.498   8.370  0.8893 -0.5891  1.9509
  616MOL0     H83106   4.927   7.364   8.275 -3.7365  1.3152  0.5732
  616MOL0     H83107   4.820   7.294   8.496  1.9929 -0.1871 -0.9359
  616MOL0     H83108   4.905   7.430   8.568  0.1391 -2.7841  0.2840
  616MOL0     H83109   4.709   7.468   8.342  0.9157  0.6325  0.9219
  616MOL0     H83110   4.764   7.595   8.458  0.2295  0.9629 -2.4070
  616MOL0     H83111   4.505   7.308   8.426  1.8643 -0.8321 -0.1616
  616MOL0     H83112   4.249   7.382   8.710  1.8597 -1.0383  1.1427
  616MOL0     H83113   4.260   7.344   8.542  1.1512  0.9403  0.2942
  616MOL0     H83114   4.391   7.165   8.755  1.6630 -0.8439 -1.5801
  616MOL0     H83115   4.396   7.125   8.590  2.5285  2.1629  0.3750
  616MOL0     H83116   4.154   7.141   8.767  2.0417  0.5349  1.1369
  616MOL0     H83117   4.248   6.996   8.723 -2.4207 -0.8062  0.6398
  616MOL0     H83118   4.057   6.992   8.586 -0.7210  0.7990 -1.2908
  616MOL0     H83119   4.196   7.042   8.484 -0.5190 -1.4251 -0.6086
  616MOL0     H83120   3.907   7.363   8.418 -0.8866 -3.9389 -2.6310
  616MOL0     H83121   3.561   7.447   8.430 -1.5508  1.8954  1.3511
  616MOL0     H83122   3.682   7.561   8.488 -1.4302 -2.1119  3.1729
  616MOL0     H83123   3.720   7.453   8.348  0.3037 -0.8587  0.2131
  616MOL0     H83124   3.276   7.117   8.734  1.6344 -0.8455  1.3470
  616MOL0     H83125   3.049   7.160   8.791 -0.9708  1.6290 -1.4833
  616MOL0     H83126   2.812   7.234   9.000  0.3315  0.4730 -2.1329
  616MOL0     H83127   2.967   7.205   9.060 -0.6940 -0.8834  1.4855
  616MOL0     H83128   2.868   7.326   9.241  1.4900  2.2600  1.6949
  616MOL0     H83129   2.929   7.465   9.155 -0.6305 -0.3601  0.6183
  616MOL0     H83130   2.692   7.407   9.012  2.9540 -1.8975 -0.7081
  616MOL0     H83131   2.726   7.544   9.125 -1.2392  0.2873  1.4271
  616MOL0     H83132   2.629   7.265   9.212 -0.8470 -0.0457  2.4432
  616MOL0     H83133   2.660   7.402   9.320  0.8149  0.6853  0.1167
  616MOL0     H83134   2.449   7.404   9.110 -1.5884 -2.3241  0.5361
  616MOL0     H83135   2.493   7.535   9.228  2.4733  0.6582  0.1514
  616MOL0     H83136   2.408   7.250   9.318  0.5991 -0.2465  3.2741
  616MOL0     H83137   2.456   7.378   9.415  0.9060 -1.3949 -0.0964
  616MOL0     H83138   2.204   7.337   9.373  1.2910 -2.9189 -3.5883
  616MOL0     H83139   2.213   7.405   9.216 -3.1026  0.4286  0.6297
  616MOL0     H83140   2.251   7.621   9.305  0.5103 -0.5553 -0.3655
  616MOL0     H83141   2.281   7.552   9.474 -0.2888 -0.8417 -0.4609
  616MOL0     H83142   3.175   7.518   8.997  0.9797  0.1079 -0.9134
  616MOL0     H83143   3.405   7.468   8.939  1.4594  0.1551 -1.5840
  616MOL0     H83144   3.688   7.143   8.803  0.5752  1.1725  1.3524
  616MOL0     H83145   3.920   7.073   8.731  0.7263  1.3090  0.1432
  616MOL0     H83146   5.818   7.164   8.360 -1.2636 -1.4280  0.9410
  616MOL0     H83147   6.041   7.095   8.351 -0.3058  3.2726  0.2339
  616MOL0     H83148   6.508   7.156   8.125 -1.9031  0.0567  0.5504
  616MOL0     H83149   6.718   7.035   8.128 -0.8885  1.6233  0.1099
  616MOL0     H83150   6.905   6.886   8.157  1.0378  1.0959 -0.9283
  616MOL0     H83151   6.971   6.751   8.059  0.0209 -0.8896 -0.6967
  616MOL0     H83152   6.868   7.008   7.931 -0.4927 -0.4785  1.9535
  616MOL0     H83153   6.948   6.874   7.848  2.4664 -0.4366 -0.3499
  616MOL0     H83154   7.060   7.025   8.093 -1.2258  0.8440 -0.8131
  616MOL0     H83155   7.093   7.084   7.930 -0.3017 -1.0826 -1.9322
  616MOL0     H83156   7.214   6.900   7.854  0.4462 -0.6264 -0.5385
  616MOL0     H83157   7.170   6.795   7.979 -1.3982 -0.3515 -2.4184
  616MOL0     H83158   7.510   6.995   8.133  0.6986 -0.0764 -0.8110
  616MOL0     H83159   6.520   6.682   7.966 -0.9593 -0.4508 -0.5891
  616MOL0     H83160   6.311   6.782   7.996 -0.8549  0.5819  0.3095
  617MOL0     O83161   5.864   9.224   4.964 -0.3963 -0.8163 -0.1945
  617MOL0     C83162   5.944   9.313   4.974 -0.7212 -0.3425  0.1978
  617MOL0     O83163   5.919   9.443   5.003 -0.8524 -0.1629 -0.6277
  617MOL0     C83164   5.793   9.480   5.033 -0.3210 -0.6403 -0.6109
  617MOL0     C83165   5.776   9.543   5.152  0.6720  0.6001  0.7052
  617MOL0     C83166   5.650   9.598   5.187  0.1215  0.4330 -0.2491
  617MOL0     C83167   5.541   9.580   5.100  1.1952  0.2026 -0.3087
  617MOL0     O83168   5.413   9.625   5.126 -0.6610 -0.8025  0.7077
  617MOL0     C83169   5.400   9.733   5.223  0.7852  0.5897  0.5797
  617MOL0     C83170   5.252   9.752   5.245  0.2761 -0.9664  0.0307
  617MOL0     C83171   5.213   9.878   5.177 -0.5707 -0.3212  0.2871
  617MOL0     C83172   5.061   9.891   5.165  0.4759  0.1726 -0.3674
  617MOL0     C83173   5.036  10.023   5.097  0.5067 -0.5422  0.0941
  617MOL0     C83174   5.047  10.142   5.190  0.1335 -0.3855 -0.2863
  617MOL0     C83175   4.940  10.141   5.297 -0.1331  0.4187 -0.6110
  617MOL0     C83176   4.983  10.196   5.446  0.0733  0.3579 -0.7874
  617MOL0     N83177   5.106  10.141   5.502  1.4305  0.3825 -0.2594
  617MOL0     C83178   5.131  10.005   5.520  0.2575  0.0524  0.5985
  617MOL0     C83179   5.256   9.989   5.572  0.6081 -0.4327  0.1331
  617MOL0     C83180   5.315   9.860   5.595  0.3723  0.3250  0.4172
  617MOL0     C83181   5.410   9.857   5.725 -0.0968  1.0632 -0.4318
  617MOL0     C83182   5.485   9.721   5.725 -0.1763  0.2805 -0.3870
  617MOL0     C83183   5.598   9.721   5.830  0.1961  0.0492 -0.5490
  617MOL0     O83184   5.669   9.595   5.834  0.6937 -0.0954  0.3476
  617MOL0     C83185   5.795   9.565   5.768  0.7273 -0.2316  0.0401
  617MOL0     C83186   5.842   9.634   5.655 -0.3973 -0.1210  0.3296
  617MOL0     C83187   5.986   9.628   5.621  0.0700  0.4880 -0.2930
  617MOL0     C83188   6.038   9.706   5.497 -0.2852  0.6523 -0.2713
  617MOL0     C83189   6.073   9.540   5.700  0.7971 -0.0187  0.5413
  617MOL0     C83190   6.222   9.539   5.681  0.0019  0.2331 -0.4845
  617MOL0     O83191   6.271   9.449   5.776  0.1049 -0.3742 -0.2735
  617MOL0     C83192   6.405   9.436   5.790  0.1769 -0.7306 -0.1451
  617MOL0     C83193   6.477   9.538   5.840 -1.0361 -0.4606 -0.4667
  617MOL0     C83194   6.617   9.536   5.846 -0.9766 -1.4481 -0.0521
  617MOL0     C83195   6.686   9.413   5.836 -0.0844  0.4580 -0.4236
  617MOL0     O83196   6.823   9.392   5.860  0.1553  0.1501 -0.0448
  617MOL0     C83197   6.899   9.506   5.908 -0.2636 -0.2882  0.0496
  617MOL0     C83198   7.047   9.483   5.898 -0.1402  1.2296 -0.6735
  617MOL0     C83199   7.114   9.402   6.018 -0.8073  0.1596  0.5454
  617MOL0     C83200   7.263   9.372   5.992  0.3616 -0.2911  0.5094
  617MOL0     C83201   7.342   9.375   6.134 -0.0067  0.9146  0.1816
  617MOL0     C83202   7.487   9.313   6.111 -0.0168  0.0115 -0.5032
  617MOL0     C83203   7.588   9.378   6.219  0.6248  0.1580  0.3383
  617MOL0     C83204   7.735   9.332   6.203  0.5205  0.1414  0.0862
  617MOL0    Cl83205   7.751   9.158   6.247  0.1047 -0.2896 -0.6129
  617MOL0     C83206   6.606   9.300   5.801 -0.0486 -0.3096 -0.4717
  617MOL0     C83207   6.463   9.315   5.778 -0.1539  0.8425 -0.4692
  617MOL0     O83208   6.286   9.608   5.607 -0.1221  0.4114  0.1184
  617MOL0     C83209   6.008   9.462   5.801  0.5268  0.4690 -0.4342
  617MOL0     C83210   5.865   9.467   5.829 -0.0004  0.3616  0.0034
  617MOL0     N83211   5.311  10.115   5.576  0.1219 -0.2769 -0.3810
  617MOL0     N83212   5.220  10.205   5.526 -0.1184 -0.3073 -0.9899
  617MOL0     C83213   5.559   9.511   4.979 -0.4238  0.5683 -0.3008
  617MOL0     C83214   5.690   9.467   4.940  0.7409  0.6636  0.5356
  617MOL0     C83215   6.092   9.276   4.947  0.1422  0.1431 -0.7696
  617MOL0     C83216   6.139   9.137   4.940 -0.0613  0.4164 -0.0532
  617MOL0     C83217   6.265   9.094   4.907  0.6854 -0.3367  0.3609
  617MOL0     C83218   6.360   9.190   4.876 -0.4786  0.9596  0.6040
  617MOL0     O83219   6.479   9.145   4.851 -0.4894  0.7046  0.1817
  617MOL0     C83220   6.560   9.197   4.744  0.0550 -0.0471 -0.2165
  617MOL0     C83221   6.711   9.184   4.762 -0.2083  0.0944  0.3882
  617MOL0     C83222   6.771   9.267   4.879  0.5890 -0.0687 -0.2779
  617MOL0     C83223   6.799   9.176   4.995  0.1072  0.1209  0.1826
  617MOL0     C83224   6.842   9.246   5.121  0.0347  0.3153  0.5118
  617MOL0     C83225   6.885   9.307   5.222  0.5314  1.1685 -0.2990
  617MOL0     C83226   6.320   9.320   4.878 -0.6671 -0.0330 -0.3567
  617MOL0     C83227   6.191   9.366   4.914 -0.1591 -0.6964 -0.8919
  617MOL0     H83228   5.852   9.552   5.229  0.9114 -0.8459  0.6739
  617MOL0     H83229   5.645   9.644   5.285 -0.2285 -0.0269 -0.0451
  617MOL0     H83230   5.452   9.721   5.319  2.1173  0.1097 -0.1801
  617MOL0     H83231   5.442   9.820   5.172 -0.7494  0.1556 -1.5353
  617MOL0     H83232   5.197   9.665   5.208  2.0374 -0.9767 -2.8182
  617MOL0     H83233   5.232   9.764   5.352  0.3886  2.5090 -0.2255
  617MOL0     H83234   5.261   9.956   5.237 -0.4399  1.2076 -1.6859
  617MOL0     H83235   5.252   9.884   5.075 -1.2886  1.4579  0.0663
  617MOL0     H83236   5.011   9.815   5.104 -1.5888  1.5067 -0.4445
  617MOL0     H83237   5.010   9.878   5.261 -3.0159  0.1292 -2.0625
  617MOL0     H83238   5.113  10.038   5.020  1.0754 -4.8187 -0.3783
  617MOL0     H83239   4.936  10.036   5.055  0.6512 -0.2794 -0.1770
  617MOL0     H83240   5.142  10.137   5.245  0.8631  1.7611 -1.2249
  617MOL0     H83241   5.052  10.242   5.146 -1.3196  0.8226  2.0992
  617MOL0     H83242   4.857  10.208   5.274 -1.1015  0.5068  2.6222
  617MOL0     H83243   4.891  10.043   5.307  0.7821 -0.1867 -1.7857
  617MOL0     H83244   4.896  10.188   5.512  1.2705 -0.8701  0.7184
  617MOL0     H83245   5.011  10.297   5.418  0.1899  0.3825 -0.5840
  617MOL0     H83246   5.060   9.924   5.506  1.1238 -0.5840 -0.2267
  617MOL0     H83247   5.239   9.782   5.599  0.9149 -0.2592 -0.2937
  617MOL0     H83248   5.374   9.849   5.503  0.8809 -1.4230  0.9221
  617MOL0     H83249   5.346   9.864   5.813 -1.7340  1.3905 -1.5979
  617MOL0     H83250   5.475   9.944   5.723  0.6024  0.5625  0.1164
  617MOL0     H83251   5.536   9.708   5.629 -2.3353  1.0070 -1.7155
  617MOL0     H83252   5.412   9.642   5.745  1.0411 -1.3221 -1.8812
  617MOL0     H83253   5.559   9.741   5.931  1.6058  0.7272 -0.1145
  617MOL0     H83254   5.674   9.796   5.803  0.7016 -0.8655 -1.7562
  617MOL0     H83255   5.784   9.712   5.606  1.1209  0.6970 -0.2293
  617MOL0     H83256   5.961   9.744   5.429  0.3444 -0.6222 -1.7575
  617MOL0     H83257   6.113   9.778   5.532 -0.7562  1.3321 -0.6326
  617MOL0     H83258   6.080   9.640   5.421 -3.7694 -1.3149 -0.7264
  617MOL0     H83259   6.421   9.631   5.847 -2.3816 -1.2944  0.5945
  617MOL0     H83260   6.664   9.629   5.878 -0.6821 -0.0266 -4.0123
  617MOL0     H83261   6.880   9.601   5.857  1.1092  0.6388  1.1989
  617MOL0     H83262   6.875   9.521   6.014 -0.5070  1.7498 -0.2558
  617MOL0     H83263   7.080   9.428   5.809  0.0580 -4.0618  2.2782
  617MOL0     H83264   7.088   9.585   5.895  0.5554  0.9375 -3.3490
  617MOL0     H83265   7.060   9.311   6.047  0.4260 -0.4656  0.9101
  617MOL0     H83266   7.110   9.456   6.114  2.8372 -2.5274  2.4304
  617MOL0     H83267   7.275   9.274   5.946  0.2206  0.1499 -0.5063
  617MOL0     H83268   7.298   9.455   5.928  2.8967 -0.5829  1.4011
  617MOL0     H83269   7.304   9.307   6.210  0.3872 -0.6885 -1.0033
  617MOL0     H83270   7.354   9.477   6.172  1.2245  0.1920  1.8824
  617MOL0     H83271   7.487   9.204   6.120  1.4020 -0.0002 -0.4759
  617MOL0     H83272   7.516   9.334   6.008 -1.0567 -1.7754 -1.2097
  617MOL0     H83273   7.551   9.358   6.320 -0.0814 -3.4165 -0.5207
  617MOL0     H83274   7.583   9.487   6.205 -5.1305 -0.0864 -2.1568
  617MOL0     H83275   7.801   9.390   6.268 -2.4090  3.0276  0.7330
  617MOL0     H83276   7.767   9.350   6.100  2.1287  1.1669  0.7224
  617MOL0     H83277   6.656   9.205   5.787  0.1534  0.0754 -2.7002
  617MOL0     H83278   6.407   9.229   5.741  2.1980 -1.0008  0.0276
  617MOL0     H83279   6.069   9.402   5.867  1.3521  2.5612  0.8292
  617MOL0     H83280   5.818   9.404   5.904 -0.0343  0.4411  0.0494
  617MOL0     H83281   5.488   9.496   4.898 -1.5768  0.8263  0.6388
  617MOL0     H83282   5.704   9.411   4.848 -3.5959 -1.1739  0.7891
  617MOL0     H83283   6.068   9.061   4.974  1.7730 -2.0616 -1.4153
  617MOL0     H83284   6.293   8.990   4.921  0.3707 -0.3446  0.9651
  617MOL0     H83285   6.540   9.132   4.658  2.3829 -1.1816  0.0254
  617MOL0     H83286   6.526   9.298   4.721 -0.6600  0.2025  1.7562
  617MOL0     H83287   6.755   9.229   4.673 -3.4271  2.1822 -0.3075
  617MOL0     H83288   6.747   9.081   4.769  0.9784  0.4566 -0.1750
  617MOL0     H83289   6.700   9.347   4.902  1.6684  1.7709 -2.8388
  617MOL0     H83290   6.862   9.317   4.846  0.7512  0.0175  0.3041
  617MOL0     H83291   6.873   9.100   4.969 -2.0240 -2.6628  1.6158
  617MOL0     H83292   6.701   9.130   5.012 -1.2871  2.8872  0.1728
  617MOL0     H83293   6.935   9.351   5.305 -2.0527  1.1573  1.3671
  617MOL0     H83294   6.399   9.387   4.845 -0.9203 -0.1147 -1.1486
  617MOL0     H83295   6.171   9.473   4.923  2.8285 -0.1653  0.8613
  618MOL0     O83296   2.529  11.199   3.268 -0.6181  0.3975  0.4471
  618MOL0     C83297   2.597  11.112   3.322 -0.4191 -0.2608  0.0493
  618MOL0     O83298   2.544  11.001   3.381  0.7847 -0.3351 -0.5687
  618MOL0     C83299   2.410  10.983   3.393  0.4874 -0.1368 -1.0373
  618MOL0     C83300   2.355  10.864   3.361 -0.6736 -0.3984 -0.0894
  618MOL0     C83301   2.216  10.849   3.370  0.1450 -0.2525 -0.3446
  618MOL0     C83302   2.132  10.951   3.422  0.1281  0.1642  0.6904
  618MOL0     O83303   1.997  10.921   3.422 -0.8980  0.1277 -0.8480
  618MOL0     C83304   1.906  11.032   3.446 -0.2689 -0.3050 -0.2532
  618MOL0     C83305   1.755  10.999   3.411 -0.2239 -0.3016 -0.8656
  618MOL0     C83306   1.713  10.868   3.459 -0.4150 -0.1209 -0.6552
  618MOL0     C83307   1.561  10.868   3.433 -0.2038  0.3930 -0.2510
  618MOL0     C83308   1.495  10.735   3.451  0.1762 -0.4061  0.2349
  618MOL0     C83309   1.515  10.684   3.599 -0.1145 -0.0640  0.8349
  618MOL0     C83310   1.426  10.563   3.623  0.4124  0.5807  0.4686
  618MOL0     C83311   1.289  10.614   3.649  0.0214 -0.1083  0.4415
  618MOL0     N83312   1.187  10.511   3.650  0.3752 -0.5633 -0.0113
  618MOL0     C83313   1.168  10.426   3.753 -0.3552 -0.3205  0.2669
  618MOL0     C83314   1.042  10.382   3.737 -1.3075  0.2066  0.6221
  618MOL0     C83315   0.972  10.288   3.826  0.6271  0.3246  0.1627
  618MOL0     C83316   0.824  10.288   3.804  0.1815 -0.0087  0.6643
  618MOL0     C83317   0.753  10.197   3.905 -0.0428 -0.2211  0.9129
  618MOL0     C83318   0.604  10.210   3.882  0.5582  0.2122  0.5713
  618MOL0     O83319   0.535  10.104   3.952 -0.5299  0.1663 -0.6084
  618MOL0     C83320   0.404  10.093   3.983  0.5332 -0.4722  0.2143
  618MOL0     C83321   0.365   9.957   3.997  0.6753  0.0920  0.8385
  618MOL0     C83322   0.233   9.920   4.023  0.3321  0.3394  0.1865
  618MOL0     C83323   0.200   9.772   4.020  0.3654  0.4673  0.5223
  618MOL0     C83324   0.137  10.019   4.044  0.3908 -0.0863 -0.5376
  618MOL0     C83325  -0.006   9.984   4.074  0.3107 -0.1558  1.1054
  618MOL0     O83326  -0.105  10.030   3.985 -1.1384 -0.4667  0.0221
  618MOL0     C83327  -0.233  10.044   4.028  0.0244 -0.5538  0.0139
  618MOL0     C83328  -0.272  10.087   4.155 -0.2430 -0.0208 -0.4738
  618MOL0     C83329  -0.405  10.114   4.195  0.3843 -0.1797 -0.2501
  618MOL0     C83330  -0.504  10.099   4.095 -0.7868  0.7518 -1.3822
  618MOL0     O83331  -0.636  10.135   4.121  0.7403  0.6489  0.0216
  618MOL0     C83332  -0.675  10.162   4.256 -0.0921 -0.0485  0.7244
  618MOL0     C83333  -0.822  10.177   4.281  0.5588  0.4921 -0.2022
  618MOL0     C83334  -0.915  10.222   4.170 -0.8738 -0.2516  0.4147
  618MOL0     C83335  -1.060  10.213   4.209  0.0675  0.1496 -0.2949
  618MOL0     C83336  -1.145  10.247   4.088 -0.2972 -0.7402 -0.7349
  618MOL0     C83337  -1.144  10.405   4.067  0.5766  0.3172 -0.2638
  618MOL0     C83338  -1.243  10.442   3.961  0.7310 -0.4499  0.3903
  618MOL0     C83339  -1.208  10.399   3.814 -0.0858 -0.3031  0.3273
  618MOL0    Cl83340  -1.050  10.442   3.756 -0.2250  0.1048 -0.2765
  618MOL0     C83341  -0.461  10.066   3.967 -0.1648 -0.8339  0.3287
  618MOL0     C83342  -0.330  10.031   3.932 -0.6349 -0.3306 -0.0175
  618MOL0     O83343  -0.029   9.935   4.186  0.1145 -0.0462  0.4067
  618MOL0     C83344   0.182  10.153   4.047  0.3931 -0.1549  0.4417
  618MOL0     C83345   0.313  10.197   4.018 -0.2590  0.7316 -0.7480
  618MOL0     N83346   0.990  10.451   3.627  0.3962  0.0491 -0.1860
  618MOL0     N83347   1.070  10.530   3.578 -0.4823  0.2155 -0.1965
  618MOL0     C83348   2.197  11.072   3.466 -0.6626 -0.3573 -0.5169
  618MOL0     C83349   2.328  11.085   3.444  0.1035 -0.1381 -0.1274
  618MOL0     C83350   2.743  11.121   3.313 -0.8800  0.3874  0.3662
  618MOL0     C83351   2.827  11.043   3.394  0.0563 -0.3528  0.4934
  618MOL0     C83352   2.971  11.047   3.380 -0.4302 -0.8912 -0.0688
  618MOL0     C83353   3.029  11.146   3.293  0.3084 -0.2866 -0.7184
  618MOL0     O83354   3.170  11.160   3.309 -0.1912  0.6941 -0.4392
  618MOL0     C83355   3.237  11.216   3.201 -0.7437  0.1593 -0.2405
  618MOL0     C83356   3.388  11.182   3.198 -0.1647 -0.6320 -0.0279
  618MOL0     C83357   3.465  11.245   3.072 -0.2409  0.3845 -0.2111
  618MOL0     C83358   3.611  11.208   3.072  0.3772 -0.1940  0.8523
  618MOL0     C83359   3.673  11.256   3.197  0.1796  0.2280  0.3348
  618MOL0     C83360   3.728  11.291   3.306 -0.1555  0.7068  0.2088
  618MOL0     C83361   2.941  11.230   3.219  0.4575 -0.4886 -0.6506
  618MOL0     C83362   2.807  11.230   3.240  0.1076  0.5093  0.4370
  618MOL0     H83363   2.417  10.777   3.338 -0.1500  0.6781 -3.1983
  618MOL0     H83364   2.188  10.753   3.327  1.7161 -0.7853 -0.2210
  618MOL0     H83365   1.929  11.068   3.547  0.6953 -0.0458 -0.5578
  618MOL0     H83366   1.934  11.118   3.385 -1.1722 -0.6786 -1.2217
  618MOL0     H83367   1.705  11.091   3.443  0.4618 -0.1873 -0.0813
  618MOL0     H83368   1.753  11.006   3.302 -1.0984  2.5218 -0.7511
  618MOL0     H83369   1.766  10.800   3.392  2.3996  1.4995 -0.2065
  618MOL0     H83370   1.742  10.859   3.564 -1.2865  3.0658 -0.0326
  618MOL0     H83371   1.500  10.943   3.486 -0.7820 -0.2997  0.0847
  618MOL0     H83372   1.544  10.900   3.329  1.3178  0.3863 -0.5210
  618MOL0     H83373   1.389  10.756   3.435 -0.1368 -0.4962  2.0611
  618MOL0     H83374   1.528  10.668   3.371  1.4676  1.9955 -1.4133
  618MOL0     H83375   1.620  10.661   3.620 -1.0153 -4.1966  1.6845
  618MOL0     H83376   1.486  10.767   3.665 -0.3338 -0.3142  1.0539
  618MOL0     H83377   1.426  10.502   3.533 -0.1830  1.5602 -0.2101
  618MOL0     H83378   1.462  10.511   3.712  1.7717  0.3306 -0.2006
  618MOL0     H83379   1.267  10.683   3.567  2.9913  0.1322 -0.2772
  618MOL0     H83380   1.282  10.676   3.738  2.2134 -0.9528  1.2797
  618MOL0     H83381   1.241  10.422   3.834  0.1623  0.7766 -0.1208
  618MOL0     H83382   1.021  10.191   3.842 -1.7035 -1.0299 -0.4131
  618MOL0     H83383   0.979  10.335   3.924 -3.3065  0.5132  0.5098
  618MOL0     H83384   0.803  10.245   3.706 -3.7004  1.2942  0.7605
  618MOL0     H83385   0.789  10.391   3.817 -1.0075 -0.4237  0.9333
  618MOL0     H83386   0.776  10.224   4.008 -1.7153  0.4279  1.1444
  618MOL0     H83387   0.786  10.095   3.885 -0.3780  0.0535 -1.3244
  618MOL0     H83388   0.581  10.203   3.775 -2.1103  1.0808  1.0102
  618MOL0     H83389   0.577  10.312   3.912 -1.9946 -0.0848 -0.4348
  618MOL0     H83390   0.443   9.883   3.988 -0.1342 -0.5435 -2.0037
  618MOL0     H83391   0.110   9.745   3.964  3.0991 -3.6358 -2.4757
  618MOL0     H83392   0.270   9.703   3.973 -0.6685  0.2195 -0.7023
  618MOL0     H83393   0.174   9.735   4.120 -3.8514 -3.5965 -1.6712
  618MOL0     H83394  -0.201  10.098   4.237 -0.0351 -2.8767 -0.1720
  618MOL0     H83395  -0.430  10.163   4.288 -0.7032 -1.7204  0.2889
  618MOL0     H83396  -0.635  10.084   4.322  0.4696 -2.6745 -2.4364
  618MOL0     H83397  -0.633  10.262   4.271 -3.1526  1.3295  0.7916
  618MOL0     H83398  -0.862  10.078   4.306 -0.6223  1.2768  1.1006
  618MOL0     H83399  -0.837  10.238   4.370  0.1392  0.4188 -0.2234
  618MOL0     H83400  -0.895  10.166   4.078 -1.2190  1.2340 -0.6072
  618MOL0     H83401  -0.886  10.324   4.144 -0.1262 -0.4912  0.2457
  618MOL0     H83402  -1.088  10.114   4.248 -0.7365 -0.7952 -3.0299
  618MOL0     H83403  -1.080  10.294   4.279 -1.3400  0.3526 -0.8843
  618MOL0     H83404  -1.248  10.213   4.102 -1.2604  2.1687  0.1155
  618MOL0     H83405  -1.104  10.198   3.999 -0.3268 -0.5174 -0.8753
  618MOL0     H83406  -1.170  10.463   4.156  1.7988  4.0849 -2.1343
  618MOL0     H83407  -1.043  10.440   4.044  0.7929 -0.8312 -1.1473
  618MOL0     H83408  -1.255  10.550   3.967  1.6980 -0.1741 -1.7601
  618MOL0     H83409  -1.339  10.406   4.000  0.0923  2.9623  2.2937
  618MOL0     H83410  -1.286  10.434   3.746 -0.1905  1.4295  1.2955
  618MOL0     H83411  -1.215  10.290   3.802 -0.5172 -0.3277  0.7822
  618MOL0     H83412  -0.533  10.075   3.886 -0.3676  1.4248  0.7149
  618MOL0     H83413  -0.292  10.006   3.833 -0.3146  1.1033 -0.2847
  618MOL0     H83414   0.114  10.233   4.074  0.2783  0.5390 -1.7190
  618MOL0     H83415   0.335  10.303   4.016 -0.0813  0.7627 -4.7664
  618MOL0     H83416   2.150  11.157   3.514 -0.1905 -2.3203  3.9213
  618MOL0     H83417   2.374  11.180   3.469 -1.2397  0.0400  1.9021
  618MOL0     H83418   2.781  10.973   3.463 -2.1217  1.3444  0.8866
  618MOL0     H83419   3.035  10.981   3.438  0.6112  1.2726  1.3671
  618MOL0     H83420   3.189  11.168   3.114 -1.2431  0.1763  0.0212
  618MOL0     H83421   3.218  11.323   3.191 -0.1719  0.3955  1.0829
  618MOL0     H83422   3.424  11.080   3.216  0.6937 -0.2371  0.5403
  618MOL0     H83423   3.424  11.232   3.289 -0.8223 -1.2707  0.6007
  618MOL0     H83424   3.445  11.352   3.080  0.2388  0.4238  0.5068
  618MOL0     H83425   3.410  11.209   2.984 -2.0216 -2.0137  1.7280
  618MOL0     H83426   3.664  11.270   2.999  0.4990  0.4075  1.4432
  618MOL0     H83427   3.634  11.103   3.048  1.1185  0.3206 -0.8827
  618MOL0     H83428   3.757  11.344   3.394  0.1797  0.0918  0.4636
  618MOL0     H83429   2.978  11.318   3.168  4.0505 -0.9758  0.7968
  618MOL0     H83430   2.747  11.314   3.204  0.2332  1.3483  2.0911
  619MOL0     O83431  10.039   4.033   8.934  0.5828 -0.1713 -0.9078
  619MOL0     C83432  10.121   3.975   9.010 -0.3586 -0.0578  0.0077
  619MOL0     O83433  10.093   3.890   9.111 -0.4420 -0.0131  0.1300
  619MOL0     C83434   9.960   3.873   9.140 -0.5975  0.9305  1.0275
  619MOL0     C83435   9.888   3.972   9.195  1.2953 -0.4930 -0.4854
  619MOL0     C83436   9.751   3.955   9.209  0.2097 -0.0089 -0.1865
  619MOL0     C83437   9.685   3.839   9.155 -0.6142 -0.6544 -0.0928
  619MOL0     O83438   9.553   3.818   9.148  0.4719 -0.6083 -1.0466
  619MOL0     C83439   9.460   3.923   9.186 -0.3075  0.5307  0.0745
  619MOL0     C83440   9.325   3.850   9.200 -0.3213 -0.3325 -0.4575
  619MOL0     C83441   9.217   3.957   9.224  0.7028 -0.1865  0.7437
  619MOL0     C83442   9.090   3.880   9.232 -0.4354 -0.0209  0.1082
  619MOL0     C83443   8.970   3.952   9.300 -0.1511 -0.4536 -0.2487
  619MOL0     C83444   8.937   4.092   9.242 -0.5407 -0.1524 -0.4652
  619MOL0     C83445   8.861   4.192   9.331 -0.6291  0.9473  0.5094
  619MOL0     C83446   8.822   4.334   9.285  0.0268 -0.5728 -0.5674
  619MOL0     N83447   8.916   4.416   9.194  0.1281  0.5578 -0.5856
  619MOL0     C83448   8.944   4.548   9.211  0.1931  0.1241 -1.5276
  619MOL0     C83449   9.013   4.578   9.110 -0.0119  0.1559  0.0845
  619MOL0     C83450   9.076   4.717   9.079  0.0566 -0.1024  0.7073
  619MOL0     C83451   9.178   4.755   9.184  0.1181 -0.1756 -0.3848
  619MOL0     C83452   9.223   4.900   9.161 -0.4637 -0.3940 -0.0212
  619MOL0     C83453   9.370   4.919   9.216 -0.1539 -0.1181 -0.1747
  619MOL0     O83454   9.452   4.829   9.144 -0.6444 -0.4284  0.1419
  619MOL0     C83455   9.586   4.821   9.171  0.2766 -0.2184  0.2624
  619MOL0     C83456   9.650   4.904   9.256  0.4112  0.1471  0.2549
  619MOL0     C83457   9.788   4.902   9.283  0.0323 -0.4903 -0.8295
  619MOL0     C83458   9.837   5.007   9.373  0.9833 -0.1646 -0.9478
  619MOL0     C83459   9.868   4.804   9.230  0.3489  0.5790 -0.0318
  619MOL0     C83460  10.015   4.794   9.238  0.4644  0.3251 -0.6260
  619MOL0     O83461  10.079   4.895   9.298 -0.0036  0.7644 -0.5041
  619MOL0     C83462  10.208   4.867   9.339  0.5868 -0.5969  0.4911
  619MOL0     C83463  10.248   4.884   9.469 -0.7401  0.8219 -0.3270
  619MOL0     C83464  10.381   4.858   9.512 -1.0026  0.7072  0.1472
  619MOL0     C83465  10.478   4.837   9.413  0.0880  0.2774  0.2218
  619MOL0     O83466  10.610   4.836   9.437 -0.4016  0.2551 -0.2183
  619MOL0     C83467  10.651   4.748   9.537  0.5471 -0.5230 -0.9756
  619MOL0     C83468  10.785   4.694   9.505 -0.7829 -0.1273 -0.3988
  619MOL0     C83469  10.815   4.582   9.606  0.3908  0.0591  1.0454
  619MOL0     C83470  10.969   4.550   9.601 -0.1085  0.4791 -0.6809
  619MOL0     C83471  11.054   4.674   9.645  0.1287 -0.6532 -0.2898
  619MOL0     C83472  11.192   4.641   9.682 -0.7923 -0.7188 -0.4379
  619MOL0     C83473  11.279   4.595   9.561  0.4853 -0.1670 -0.0270
  619MOL0     C83474  11.421   4.575   9.599  0.4511 -0.5096 -0.5141
  619MOL0    Cl83475  11.448   4.406   9.652  0.4010 -0.3985 -0.1575
  619MOL0     C83476  10.434   4.820   9.282 -0.0548  0.9541  0.1273
  619MOL0     C83477  10.302   4.833   9.243 -0.1071 -0.4079 -0.0340
  619MOL0     O83478  10.072   4.689   9.186  0.2697 -0.1611 -0.1988
  619MOL0     C83479   9.804   4.712   9.144  0.2156 -0.5405 -0.0427
  619MOL0     C83480   9.667   4.715   9.117 -0.2466  0.8842 -0.4175
  619MOL0     N83481   9.024   4.468   9.024 -0.0118  0.0763  0.3310
  619MOL0     N83482   8.969   4.364   9.080 -0.4850 -0.6290  0.2838
  619MOL0     C83483   9.763   3.735   9.110  0.2235  0.1110  0.5986
  619MOL0     C83484   9.900   3.755   9.095 -0.4251 -0.0581  0.2254
  619MOL0     C83485  10.265   4.015   8.982  0.2171  0.7695 -0.0581
  619MOL0     C83486  10.360   3.980   9.076 -0.0826  0.5260  0.1322
  619MOL0     C83487  10.491   4.025   9.067  0.1366  0.1332  0.2245
  619MOL0     C83488  10.519   4.119   8.967  0.3576  0.5224 -0.0280
  619MOL0     O83489  10.645   4.174   8.973  0.0639 -0.5462  0.2691
  619MOL0     C83490  10.677   4.278   8.882  0.0709  0.5036  0.1801
  619MOL0     C83491  10.821   4.293   8.869  0.0945 -0.4504 -0.4736
  619MOL0     C83492  10.893   4.336   8.992 -0.1802 -0.6528  0.4795
  619MOL0     C83493  10.932   4.480   8.977 -0.0322  0.3761  0.8261
  619MOL0     C83494  10.986   4.530   9.103 -0.3416 -0.7732 -0.2503
  619MOL0     C83495  11.016   4.570   9.213 -0.0687  0.2885  0.5166
  619MOL0     C83496  10.419   4.158   8.877  0.1724  0.3727 -0.0354
  619MOL0     C83497  10.295   4.101   8.877 -0.7996 -0.2636 -0.4506
  619MOL0     H83498   9.941   4.060   9.232  0.3929  0.2731 -0.9568
  619MOL0     H83499   9.693   4.034   9.256 -0.4201 -1.9101  2.4989
  619MOL0     H83500   9.494   3.977   9.275 -1.7778 -0.4475  1.2967
  619MOL0     H83501   9.447   3.989   9.100 -2.5365 -0.6992 -0.6362
  619MOL0     H83502   9.299   3.807   9.102  2.0971 -1.2416 -0.7765
  619MOL0     H83503   9.328   3.764   9.268  3.4360 -1.3896 -1.6917
  619MOL0     H83504   9.244   4.015   9.313  0.5315  2.8957 -1.0915
  619MOL0     H83505   9.209   4.027   9.140 -0.9701 -0.7622  0.3850
  619MOL0     H83506   9.061   3.870   9.127 -4.5767  1.5126  0.9322
  619MOL0     H83507   9.099   3.780   9.275 -1.1916 -0.0788  0.1521
  619MOL0     H83508   8.881   3.889   9.285  0.6663 -1.5223 -0.7411
  619MOL0     H83509   8.989   3.962   9.407 -1.7229 -0.1726  0.0236
  619MOL0     H83510   9.038   4.127   9.220  0.4989 -1.9347  1.1480
  619MOL0     H83511   8.878   4.076   9.150 -0.3018 -1.5916 -0.3958
  619MOL0     H83512   8.767   4.142   9.353 -1.0781  0.4247 -2.2700
  619MOL0     H83513   8.920   4.206   9.422  0.2413  1.7325 -0.1538
  619MOL0     H83514   8.788   4.391   9.372  0.8233  0.3655 -0.8492
  619MOL0     H83515   8.727   4.318   9.234 -1.5928  1.0979  1.7377
  619MOL0     H83516   8.905   4.605   9.294 -0.3366 -1.5854 -0.5625
  619MOL0     H83517   9.123   4.719   8.981  4.3485 -0.1058  2.5497
  619MOL0     H83518   8.997   4.792   9.088  0.0521 -0.2116  1.8286
  619MOL0     H83519   9.264   4.688   9.198  0.2771 -0.3555 -2.0525
  619MOL0     H83520   9.124   4.766   9.278  0.5297  1.6644 -0.3310
  619MOL0     H83521   9.155   4.967   9.215 -0.5974  0.1916 -0.8939
  619MOL0     H83522   9.221   4.928   9.056 -0.9517 -0.1867  0.0424
  619MOL0     H83523   9.370   4.887   9.321  1.9404  0.0613 -0.0853
  619MOL0     H83524   9.413   5.019   9.204  1.7193 -0.9227 -0.5518
  619MOL0     H83525   9.591   4.966   9.322 -0.4076 -1.2244  0.8477
  619MOL0     H83526   9.912   5.067   9.322 -2.3500  4.5151 -1.0525
  619MOL0     H83527   9.763   5.079   9.410  0.4943 -0.6491 -0.9682
  619MOL0     H83528   9.876   4.964   9.465 -1.5755 -1.2951 -0.2987
  619MOL0     H83529  10.178   4.915   9.546 -1.2855  0.8002 -0.8082
  619MOL0     H83530  10.411   4.852   9.617 -1.0809 -1.3672  0.0889
  619MOL0     H83531  10.660   4.786   9.640 -0.1996 -1.6943 -0.4635
  619MOL0     H83532  10.582   4.664   9.543 -0.4526  0.3538  1.0968
  619MOL0     H83533  10.781   4.655   9.403 -1.6821  2.2475 -1.3634
  619MOL0     H83534  10.856   4.778   9.502 -0.8689  0.0669  1.6147
  619MOL0     H83535  10.755   4.493   9.585 -0.9435  1.0398  0.5780
  619MOL0     H83536  10.792   4.617   9.707  0.9350 -0.1235  1.2378
  619MOL0     H83537  10.990   4.464   9.665 -0.4607  0.9469  0.0834
  619MOL0     H83538  11.003   4.520   9.502  1.9872  1.1544 -0.2067
  619MOL0     H83539  11.023   4.734   9.731  0.0324  0.8424 -1.3346
  619MOL0     H83540  11.070   4.735   9.556  0.7065 -0.0240  0.2371
  619MOL0     H83541  11.228   4.736   9.723 -2.4545 -0.7055  1.1377
  619MOL0     H83542  11.210   4.569   9.763  1.9412  0.8477  0.4717
  619MOL0     H83543  11.276   4.676   9.488  0.1892 -1.3913 -1.4194
  619MOL0     H83544  11.228   4.507   9.520  0.0657  1.2542 -2.8105
  619MOL0     H83545  11.448   4.651   9.672 -1.5514 -1.5615  1.4850
  619MOL0     H83546  11.483   4.593   9.511 -1.2839  0.7413 -1.5553
  619MOL0     H83547  10.514   4.809   9.210  0.3744 -1.9912  0.9382
  619MOL0     H83548  10.278   4.830   9.137 -0.3795 -2.6106  0.0388
  619MOL0     H83549   9.859   4.636   9.090 -0.6949 -1.1854 -0.0761
  619MOL0     H83550   9.622   4.638   9.056  1.0236  2.0931 -3.0880
  619MOL0     H83551   9.710   3.647   9.075  1.1973  0.9073 -3.4094
  619MOL0     H83552   9.952   3.675   9.044 -3.0998 -0.4456 -2.1709
  619MOL0     H83553  10.338   3.906   9.152  1.0005  1.4963  1.4453
  619MOL0     H83554  10.561   3.980   9.136  0.2563 -0.5231 -0.3145
  619MOL0     H83555  10.641   4.266   8.780  4.4838 -4.4242 -1.2336
  619MOL0     H83556  10.628   4.367   8.924 -1.0148 -0.7479  1.7216
  619MOL0     H83557  10.832   4.366   8.788  1.6639 -0.8162 -0.6218
  619MOL0     H83558  10.857   4.197   8.829  1.5752  0.2507 -0.9087
  619MOL0     H83559  10.985   4.278   9.004  1.3056  1.0993 -1.5724
  619MOL0     H83560  10.832   4.331   9.082  0.0452  0.8903  0.7404
  619MOL0     H83561  10.849   4.541   8.941  1.5206  2.8057  1.1438
  619MOL0     H83562  11.014   4.487   8.905  1.6958  2.2175  2.8145
  619MOL0     H83563  11.052   4.622   9.299 -0.7868 -1.2409  1.7849
  619MOL0     H83564  10.438   4.231   8.799 -0.9426  2.1425  1.2537
  619MOL0     H83565  10.222   4.125   8.801 -0.3959  1.4362 -0.3474
  620MOL0     O83566   8.077   2.039   1.252 -0.0831 -0.7398  0.1345
  620MOL0     C83567   8.144   2.038   1.146  0.0739  0.0386  0.7085
  620MOL0     O83568   8.122   2.115   1.033 -0.0667  0.2161 -0.1265
  620MOL0     C83569   7.994   2.173   1.027 -0.7862  0.6846  0.4536
  620MOL0     C83570   7.979   2.316   1.016 -0.1872  0.8007  0.2799
  620MOL0     C83571   7.852   2.370   0.992 -0.5423  0.4582  0.4566
  620MOL0     C83572   7.737   2.287   0.974 -1.0952  0.8583  0.2112
  620MOL0     O83573   7.618   2.343   0.949  0.3269  0.6888 -0.2910
  620MOL0     C83574   7.517   2.267   0.870 -0.5288  0.1905 -0.1002
  620MOL0     C83575   7.446   2.374   0.793  1.3550  0.5343  0.3890
  620MOL0     C83576   7.344   2.312   0.697  0.5494  0.3702 -0.4732
  620MOL0     C83577   7.218   2.410   0.688 -0.0007  0.0204 -0.0887
  620MOL0     C83578   7.119   2.378   0.583  0.2029  0.3839  0.2313
  620MOL0     C83579   6.990   2.472   0.596 -1.1855 -0.4316  0.4967
  620MOL0     C83580   6.866   2.382   0.589  0.3360  0.8817  0.0497
  620MOL0     C83581   6.739   2.441   0.639  0.7999 -0.1322  0.3377
  620MOL0     N83582   6.688   2.545   0.550  0.4008 -0.0912 -1.1020
  620MOL0     C83583   6.583   2.527   0.458 -0.2162  0.9694 -0.0755
  620MOL0     C83584   6.553   2.648   0.414 -0.5190 -0.1283  0.3653
  620MOL0     C83585   6.457   2.679   0.305  0.5902 -0.6890  0.2639
  620MOL0     C83586   6.325   2.746   0.326  0.4974 -0.6961  0.4554
  620MOL0     C83587   6.243   2.669   0.428  0.0792  0.2631  0.0460
  620MOL0     C83588   6.101   2.705   0.437  0.7977 -0.0268  0.1005
  620MOL0     O83589   6.094   2.851   0.469  0.4983 -0.0039  0.6127
  620MOL0     C83590   6.008   2.924   0.390  0.3711  0.2100 -0.3480
  620MOL0     C83591   6.061   3.025   0.318  1.2504 -0.7759  0.3004
  620MOL0     C83592   5.964   3.113   0.247  0.1863 -0.1979 -0.3662
  620MOL0     C83593   6.015   3.233   0.174  0.7242 -0.0753 -0.6317
  620MOL0     C83594   5.820   3.098   0.265  0.1748  0.5644  0.4254
  620MOL0     C83595   5.716   3.186   0.194 -0.5750  0.5469 -0.0482
  620MOL0     O83596   5.595   3.120   0.182 -0.1684  0.2206  0.1197
  620MOL0     C83597   5.489   3.191   0.133  0.6645  0.4912  0.2266
  620MOL0     C83598   5.447   3.310   0.194 -1.2901 -0.8081  1.2451
  620MOL0     C83599   5.327   3.371   0.158  0.0493 -0.4745 -0.3306
  620MOL0     C83600   5.235   3.310   0.062 -0.1340  0.4175  0.2568
  620MOL0     O83601   5.106   3.351   0.037 -0.0940 -0.2475  1.2213
  620MOL0     C83602   5.062   3.477   0.082  0.7694 -0.1152 -0.5010
  620MOL0     C83603   4.949   3.536  -0.003 -0.3082  0.1077  0.4101
  620MOL0     C83604   4.827   3.442   0.030 -0.5455  0.7233 -0.5680
  620MOL0     C83605   4.705   3.491  -0.048 -0.5741  0.3884 -0.8151
  620MOL0     C83606   4.579   3.408  -0.018 -0.6909  0.9439 -0.3625
  620MOL0     C83607   4.485   3.452   0.099 -0.1693 -0.2461 -0.9870
  620MOL0     C83608   4.353   3.383   0.097  0.0456 -0.0051 -0.9558
  620MOL0     C83609   4.269   3.460   0.200  0.5574 -0.3628 -0.9670
  620MOL0    Cl83610   4.322   3.442   0.370  0.2048 -0.0972 -0.7326
  620MOL0     C83611   5.283   3.191   0.001  0.1611 -0.6125  0.2143
  620MOL0     C83612   5.408   3.140   0.027  0.2064  0.1680 -0.2382
  620MOL0     O83613   5.734   3.294   0.147 -0.3663 -0.0526  0.5712
  620MOL0     C83614   5.781   2.997   0.355  1.0135  0.5285 -0.1169
  620MOL0     C83615   5.873   2.905   0.410 -0.5129  0.4731  0.5611
  620MOL0     N83616   6.644   2.738   0.474  0.0094 -0.3177  0.1480
  620MOL0     N83617   6.719   2.676   0.552  0.6724  0.3694  0.4673
  620MOL0     C83618   7.748   2.143   0.981 -0.4754  0.8699 -0.2502
  620MOL0     C83619   7.880   2.091   0.999  0.2221  0.4550  0.8952
  620MOL0     C83620   8.245   1.934   1.137 -0.4486 -0.7066  0.4849
  620MOL0     C83621   8.313   1.907   1.248 -0.1155  0.1242 -0.5193
  620MOL0     C83622   8.407   1.803   1.254 -0.0199  0.1330 -0.1008
  620MOL0     C83623   8.432   1.729   1.133 -0.9343 -0.1359 -0.2249
  620MOL0     O83624   8.528   1.628   1.137  0.0505  0.2116 -0.2394
  620MOL0     C83625   8.537   1.537   1.023 -0.5128  0.6733  0.1418
  620MOL0     C83626   8.614   1.410   1.062 -0.9022  0.2709 -0.6211
  620MOL0     C83627   8.768   1.439   1.072  0.3585  0.2735  0.1426
  620MOL0     C83628   8.844   1.319   1.117  0.2692  0.2937  0.6762
  620MOL0     C83629   8.856   1.205   1.036  0.7255  0.1842  1.0940
  620MOL0     C83630   8.878   1.111   0.961 -0.1094  0.3036  0.9227
  620MOL0     C83631   8.369   1.765   1.019 -0.1990  0.0098  0.4549
  620MOL0     C83632   8.273   1.868   1.017 -0.3847  0.0025 -0.6084
  620MOL0     H83633   8.060   2.388   1.017  1.0868 -0.5894  0.0486
  620MOL0     H83634   7.843   2.478   0.987  3.0311  0.8829 -3.6417
  620MOL0     H83635   7.559   2.188   0.806  0.1653  1.1697 -0.8797
  620MOL0     H83636   7.444   2.220   0.936 -0.2939 -1.0911 -0.7011
  620MOL0     H83637   7.411   2.444   0.869  2.9770  1.1851  0.5731
  620MOL0     H83638   7.521   2.426   0.732  2.9858  1.0193  2.7037
  620MOL0     H83639   7.390   2.310   0.598  2.3357  0.2278  0.3270
  620MOL0     H83640   7.308   2.214   0.728  0.7942  1.1875  2.8009
  620MOL0     H83641   7.173   2.403   0.787  0.0866 -0.8410 -0.1080
  620MOL0     H83642   7.248   2.514   0.670 -1.6445  0.5972  0.2979
  620MOL0     H83643   7.148   2.386   0.477 -1.4039  0.1682 -0.2470
  620MOL0     H83644   7.094   2.272   0.589  0.2258  0.3681  0.0569
  620MOL0     H83645   6.991   2.512   0.698  1.0749  0.7223  0.0681
  620MOL0     H83646   6.993   2.550   0.520  1.2417 -0.0009  0.9635
  620MOL0     H83647   6.862   2.355   0.483  0.3352  0.0309  0.2554
  620MOL0     H83648   6.881   2.293   0.651 -0.5239  1.1287  0.6255
  620MOL0     H83649   6.756   2.482   0.739 -1.2692  0.9111  0.3174
  620MOL0     H83650   6.668   2.359   0.653  1.9803 -0.9179  2.1242
  620MOL0     H83651   6.537   2.431   0.438 -0.3017  0.6635  1.5194
  620MOL0     H83652   6.507   2.742   0.230  0.1294 -2.1412 -1.3146
  620MOL0     H83653   6.433   2.585   0.256  0.9119  0.6935 -2.7805
  620MOL0     H83654   6.266   2.745   0.234  2.3040 -1.9367 -0.7635
  620MOL0     H83655   6.345   2.847   0.362  1.8674  0.2032 -2.5231
  620MOL0     H83656   6.292   2.682   0.525  2.7323 -0.0701 -1.1831
  620MOL0     H83657   6.251   2.563   0.401 -0.4112 -0.0797  1.1787
  620MOL0     H83658   6.056   2.642   0.514 -2.2224 -0.5644 -1.9236
  620MOL0     H83659   6.049   2.688   0.342 -0.3193  0.7966  0.5544
  620MOL0     H83660   6.168   3.042   0.314  0.9226  1.9373  1.1908
  620MOL0     H83661   5.976   3.235   0.072 -2.2564  0.6296  0.4010
  620MOL0     H83662   6.001   3.326   0.230 -1.2512 -1.3082  1.0823
  620MOL0     H83663   6.124   3.223   0.171  0.7067 -2.4525  2.1218
  620MOL0     H83664   5.498   3.347   0.282  0.9559 -0.5054 -0.1031
  620MOL0     H83665   5.303   3.465   0.208 -1.4980  0.1061 -2.0529
  620MOL0     H83666   5.040   3.468   0.189 -0.9411 -0.5692 -0.8525
  620MOL0     H83667   5.144   3.549   0.074  1.4402 -0.4314  2.2902
  620MOL0     H83668   4.920   3.638   0.024 -0.5577 -0.1623  1.2059
  620MOL0     H83669   4.973   3.538  -0.110 -1.8830  1.9553  0.0373
  620MOL0     H83670   4.797   3.450   0.134  2.9290 -3.0281  1.0010
  620MOL0     H83671   4.848   3.338   0.004 -2.0826 -0.2711  1.9131
  620MOL0     H83672   4.675   3.593  -0.022 -0.1297  0.5699 -1.0042
  620MOL0     H83673   4.727   3.490  -0.155  5.1624  0.1215  0.0375
  620MOL0     H83674   4.598   3.301  -0.008  1.7364  1.3884  0.6480
  620MOL0     H83675   4.519   3.426  -0.107 -2.3207  1.0064  0.7163
  620MOL0     H83676   4.539   3.442   0.193 -1.2876  0.8376 -0.1831
  620MOL0     H83677   4.466   3.560   0.090 -0.1939  0.2130  2.9137
  620MOL0     H83678   4.356   3.277   0.124  1.5494  0.9199  3.1905
  620MOL0     H83679   4.308   3.386  -0.003 -1.6038  0.4028 -0.2244
  620MOL0     H83680   4.170   3.412   0.202  1.0259 -1.4716 -2.4669
  620MOL0     H83681   4.249   3.564   0.173  3.0316  0.1933 -0.8539
  620MOL0     H83682   5.222   3.146  -0.076  0.9312  0.8577 -1.3410
  620MOL0     H83683   5.437   3.042  -0.010  0.4602  1.7928 -4.8932
  620MOL0     H83684   5.680   2.984   0.392  1.6841  1.7049  2.3409
  620MOL0     H83685   5.842   2.821   0.471 -0.3155  0.0856  0.1372
  620MOL0     H83686   7.672   2.077   0.941  1.2232  0.9835 -4.1306
  620MOL0     H83687   7.887   1.983   0.987 -2.8787  0.4259 -1.9732
  620MOL0     H83688   8.303   1.973   1.334  1.3900 -0.8931  0.4826
  620MOL0     H83689   8.463   1.791   1.347  1.4171  0.2156 -0.9219
  620MOL0     H83690   8.433   1.515   0.998 -0.8226  1.8624  0.2875
  620MOL0     H83691   8.576   1.595   0.939  2.3072  0.2922  1.0817
  620MOL0     H83692   8.600   1.331   0.988 -0.0048 -1.4454  0.9782
  620MOL0     H83693   8.569   1.381   1.158 -2.8557 -0.8943 -1.8313
  620MOL0     H83694   8.798   1.507   1.152 -2.2073 -1.2782  2.6232
  620MOL0     H83695   8.800   1.471   0.973  0.1543  1.6576  0.5106
  620MOL0     H83696   8.788   1.289   1.206 -0.1080  2.5703  1.2737
  620MOL0     H83697   8.948   1.346   1.138  0.0888  0.1843  1.7616
  620MOL0     H83698   8.889   1.034   0.888  0.2151 -0.4202  1.7149
  620MOL0     H83699   8.383   1.715   0.924  1.7184 -1.3941  1.4050
  620MOL0     H83700   8.213   1.902   0.933 -1.8253 -4.9244 -1.8797
  621MOL0     O83701   5.747   6.581   3.885 -0.0057 -0.2916  0.5857
  621MOL0     C83702   5.778   6.690   3.825  0.2307  0.6829  0.5893
  621MOL0     O83703   5.692   6.763   3.743  0.0014 -0.1257 -0.3087
  621MOL0     C83704   5.567   6.714   3.734 -0.2602 -0.2767 -0.0326
  621MOL0     C83705   5.533   6.638   3.617  0.6157 -0.3153 -0.0242
  621MOL0     C83706   5.408   6.606   3.598  0.8982  0.4160 -0.1123
  621MOL0     C83707   5.312   6.633   3.695  0.6602 -0.1641 -0.7249
  621MOL0     O83708   5.186   6.583   3.691 -0.6421  0.1034 -0.2414
  621MOL0     C83709   5.157   6.467   3.611  0.6798 -0.0361  0.2342
  621MOL0     C83710   5.038   6.390   3.683 -1.1532  0.5310 -0.1673
  621MOL0     C83711   4.912   6.474   3.700 -0.0581  0.2949  0.5458
  621MOL0     C83712   4.812   6.402   3.782  0.6687  0.1632  0.6137
  621MOL0     C83713   4.673   6.483   3.789  0.1080  0.1599 -0.6764
  621MOL0     C83714   4.560   6.388   3.834  0.1441  0.0706 -0.1763
  621MOL0     C83715   4.593   6.302   3.955 -0.3043 -0.4678 -0.7474
  621MOL0     C83716   4.628   6.393   4.077  0.0834 -0.1993  0.4554
  621MOL0     N83717   4.518   6.489   4.112 -0.7243 -0.2634 -0.0929
  621MOL0     C83718   4.539   6.623   4.149 -0.2748  0.3292  0.5984
  621MOL0     C83719   4.419   6.661   4.202 -0.5442  0.3596  0.1200
  621MOL0     C83720   4.394   6.789   4.270 -0.5372  0.6007 -0.2666
  621MOL0     C83721   4.244   6.801   4.317  0.0800  0.1067  0.2483
  621MOL0     C83722   4.146   6.810   4.202  0.2067 -1.0026  0.5012
  621MOL0     C83723   3.998   6.810   4.249  0.3026 -0.1000 -0.9916
  621MOL0     O83724   3.983   6.930   4.330  0.1246 -0.7447  0.7255
  621MOL0     C83725   3.857   6.989   4.339  0.7857 -0.4546 -0.6816
  621MOL0     C83726   3.745   6.926   4.293 -0.4105 -0.2533 -0.6245
  621MOL0     C83727   3.619   6.981   4.302 -0.9626  0.6466 -0.2969
  621MOL0     C83728   3.511   6.900   4.246  0.9445  0.3269 -0.0956
  621MOL0     C83729   3.606   7.111   4.355 -0.2832 -0.0097 -1.1089
  621MOL0     C83730   3.485   7.188   4.361 -0.4251 -0.5205 -0.0468
  621MOL0     O83731   3.474   7.284   4.456  0.4179 -0.6133  0.4509
  621MOL0     C83732   3.357   7.354   4.463 -0.4984  0.4116 -0.5386
  621MOL0     C83733   3.286   7.375   4.583 -0.0152  0.1304 -0.0840
  621MOL0     C83734   3.170   7.462   4.587 -0.3977 -0.2682 -0.5225
  621MOL0     C83735   3.117   7.510   4.471  0.4457  0.5851  0.0117
  621MOL0     O83736   2.989   7.562   4.470 -0.1766  0.0452  0.2671
  621MOL0     C83737   2.918   7.586   4.344  0.1920  0.2333  0.5520
  621MOL0     C83738   2.770   7.594   4.378 -0.1647 -0.3633 -0.2268
  621MOL0     C83739   2.703   7.627   4.250  0.4341 -0.0307  0.3085
  621MOL0     C83740   2.564   7.679   4.274  0.4727  0.7018  0.1855
  621MOL0     C83741   2.490   7.686   4.138 -0.1090  0.6508  0.4617
  621MOL0     C83742   2.345   7.739   4.151  0.3756 -0.4783  0.1208
  621MOL0     C83743   2.267   7.754   4.013  0.2303 -0.3227  0.4112
  621MOL0     C83744   2.121   7.789   4.023 -0.6053  0.5044 -0.0181
  621MOL0    Cl83745   2.094   7.960   4.056 -0.0984 -0.1712  0.0797
  621MOL0     C83746   3.195   7.492   4.355 -0.6176 -0.8057  0.1773
  621MOL0     C83747   3.316   7.429   4.355  0.0267  0.0354  0.4642
  621MOL0     O83748   3.404   7.158   4.278 -0.1551  0.0702 -0.1066
  621MOL0     C83749   3.712   7.171   4.425 -0.1555  0.5245  0.2714
  621MOL0     C83750   3.836   7.110   4.408  0.0168 -0.2837 -0.2014
  621MOL0     N83751   4.334   6.559   4.177  0.1456 -0.1324  0.0134
  621MOL0     N83752   4.386   6.454   4.135 -0.2452  0.5226  0.4403
  621MOL0     C83753   5.346   6.702   3.819  0.3586  0.2054 -0.3134
  621MOL0     C83754   5.479   6.737   3.839  1.0173 -0.7300  0.8462
  621MOL0     C83755   5.919   6.729   3.830 -0.1385  0.1770 -0.2219
  621MOL0     C83756   6.015   6.649   3.897 -0.2754 -0.3694  0.5420
  621MOL0     C83757   6.154   6.699   3.902 -0.4618 -0.0436  0.5703
  621MOL0     C83758   6.187   6.825   3.837 -0.0344  0.3525 -0.0360
  621MOL0     O83759   6.311   6.884   3.841  0.2521 -0.4908 -0.2993
  621MOL0     C83760   6.419   6.808   3.909  0.2559  0.0144  0.8753
  621MOL0     C83761   6.538   6.900   3.914 -0.1094  0.2971  0.1700
  621MOL0     C83762   6.648   6.860   4.009  0.5365 -0.0818 -0.3491
  621MOL0     C83763   6.745   6.751   3.967 -0.8393 -0.9819  0.0660
  621MOL0     C83764   6.826   6.793   3.841  0.3566  0.4822  0.0356
  621MOL0     C83765   6.887   6.836   3.747  0.5188 -0.1714 -0.1360
  621MOL0     C83766   6.093   6.902   3.776  0.3831  0.1365  0.3685
  621MOL0     C83767   5.958   6.854   3.771  0.6498 -0.6107  0.4858
  621MOL0     H83768   5.603   6.633   3.534  3.7021  2.9658  2.0718
  621MOL0     H83769   5.380   6.562   3.503  1.5107 -0.0843 -0.0662
  621MOL0     H83770   5.133   6.496   3.508  1.2731 -2.9195 -0.8115
  621MOL0     H83771   5.236   6.392   3.604 -0.2691 -1.0996  0.6946
  621MOL0     H83772   5.024   6.300   3.622 -1.3392  1.4766 -1.5671
  621MOL0     H83773   5.075   6.365   3.783  1.0008 -0.1460 -1.0666
  621MOL0     H83774   4.931   6.574   3.740 -0.6079  0.3932  0.5654
  621MOL0     H83775   4.860   6.503   3.609 -2.3141 -3.3554  0.4746
  621MOL0     H83776   4.783   6.317   3.720  2.3526  0.4319 -0.6330
  621MOL0     H83777   4.850   6.375   3.881  0.0188  0.2124  0.8793
  621MOL0     H83778   4.686   6.565   3.860  0.6323  0.7273 -1.4082
  621MOL0     H83779   4.664   6.529   3.690  2.4235 -3.7357 -2.9560
  621MOL0     H83780   4.467   6.444   3.850  0.4860  0.3251  1.0673
  621MOL0     H83781   4.530   6.330   3.747 -1.9404  0.2555  0.3582
  621MOL0     H83782   4.501   6.247   3.978  0.0784 -1.2451 -1.0459
  621MOL0     H83783   4.675   6.231   3.943  0.2491  0.3045 -1.6814
  621MOL0     H83784   4.722   6.445   4.054  0.8653 -2.1775 -1.0458
  621MOL0     H83785   4.639   6.330   4.166 -2.8234 -1.2708  0.1628
  621MOL0     H83786   4.626   6.686   4.134  0.0174 -0.2128 -0.0467
  621MOL0     H83787   4.455   6.807   4.360 -0.4370  1.3904 -0.4831
  621MOL0     H83788   4.434   6.862   4.199 -1.1772  0.7860 -0.4399
  621MOL0     H83789   4.231   6.885   4.385  0.8768  0.0870  0.4382
  621MOL0     H83790   4.216   6.713   4.376  1.2854  0.1411  0.9111
  621MOL0     H83791   4.161   6.720   4.142  0.8778 -2.0558  2.1491
  621MOL0     H83792   4.163   6.893   4.133  1.4358 -2.1473 -0.6206
  621MOL0     H83793   3.973   6.723   4.311 -1.7318 -0.2613 -1.9581
  621MOL0     H83794   3.940   6.805   4.157  1.6432 -2.1552 -1.8112
  621MOL0     H83795   3.752   6.834   4.236  0.0808 -0.6392  0.0450
  621MOL0     H83796   3.526   6.901   4.138  3.9144 -0.6797  0.2315
  621MOL0     H83797   3.525   6.796   4.277  0.3892  1.1260  3.2580
  621MOL0     H83798   3.409   6.937   4.265  0.5147  0.0022 -1.6851
  621MOL0     H83799   3.329   7.335   4.674  3.5407  0.8941 -1.2867
  621MOL0     H83800   3.118   7.490   4.678 -1.0238 -0.7334 -0.7272
  621MOL0     H83801   2.947   7.686   4.311 -2.4606  1.4579  1.6143
  621MOL0     H83802   2.942   7.511   4.268  1.9227  1.0055  0.2794
  621MOL0     H83803   2.742   7.499   4.425 -2.6621  0.5668  0.3020
  621MOL0     H83804   2.764   7.672   4.454  0.5972  0.3798 -0.9124
  621MOL0     H83805   2.695   7.531   4.199  0.9533  0.5038 -0.8304
  621MOL0     H83806   2.768   7.691   4.189  1.6342 -0.5181  1.0492
  621MOL0     H83807   2.505   7.626   4.350  0.9045  0.4692  0.3624
  621MOL0     H83808   2.571   7.781   4.313 -3.4184  0.4234  2.1992
  621MOL0     H83809   2.498   7.593   4.080  1.5275 -0.6326  2.6069
  621MOL0     H83810   2.536   7.763   4.074  1.5665  0.5973  1.5315
  621MOL0     H83811   2.296   7.670   4.222  1.9829 -0.2409  1.5157
  621MOL0     H83812   2.361   7.835   4.200  0.3072 -0.0718 -0.6389
  621MOL0     H83813   2.271   7.666   3.949  1.7343  2.7064 -4.1170
  621MOL0     H83814   2.323   7.827   3.955  0.7671 -2.2218 -1.5995
  621MOL0     H83815   2.068   7.721   4.090 -0.2228 -0.1200 -0.3338
  621MOL0     H83816   2.079   7.762   3.925 -0.4326  1.1631 -0.2763
  621MOL0     H83817   3.159   7.535   4.262 -1.1131 -0.9145  0.3153
  621MOL0     H83818   3.382   7.431   4.268 -0.8732  1.0864 -0.2248
  621MOL0     H83819   3.705   7.270   4.469  3.5052  1.2129 -0.3699
  621MOL0     H83820   3.924   7.165   4.440 -0.8796  0.2831  1.3798
  621MOL0     H83821   5.267   6.707   3.892  0.3214 -0.5789 -0.2889
  621MOL0     H83822   5.510   6.785   3.931  0.8008  1.8869 -0.3526
  621MOL0     H83823   5.994   6.564   3.961 -0.3799 -0.5371  0.2900
  621MOL0     H83824   6.224   6.642   3.962  1.9879 -0.0434 -2.0600
  621MOL0     H83825   6.388   6.775   4.008 -0.2342 -3.4098 -0.2638
  621MOL0     H83826   6.436   6.719   3.847  0.5884  1.4512 -1.2053
  621MOL0     H83827   6.497   6.992   3.956 -0.8179 -0.6666  1.6890
  621MOL0     H83828   6.582   6.915   3.815 -1.1493 -1.0252 -0.5302
  621MOL0     H83829   6.607   6.824   4.104 -0.4284 -0.9173 -1.0576
  621MOL0     H83830   6.694   6.955   4.039 -1.0782  1.4462 -2.3421
  621MOL0     H83831   6.702   6.651   3.960 -1.8446 -0.5188 -0.6164
  621MOL0     H83832   6.823   6.739   4.043  0.1060  1.4674 -0.4307
  621MOL0     H83833   6.945   6.872   3.665  0.3557  0.3079 -0.0476
  621MOL0     H83834   6.100   7.006   3.744 -2.7324 -0.2491 -2.0310
  621MOL0     H83835   5.883   6.918   3.725  1.7316 -0.6480 -1.4090
  622MOL0     O83836   5.109  10.086   3.171 -0.4107 -0.0330 -0.3190
  622MOL0     C83837   5.154  10.117   3.282 -0.1114  0.5721  0.1494
  622MOL0     O83838   5.089  10.189   3.371  0.3516  0.1537 -0.4627
  622MOL0     C83839   4.959  10.216   3.360 -0.1263 -0.0853  0.2058
  622MOL0     C83840   4.917  10.343   3.406  0.1179  0.3038 -0.2471
  622MOL0     C83841   4.780  10.372   3.411 -0.4437 -0.1945  0.2157
  622MOL0     C83842   4.681  10.282   3.372 -0.3145  0.3337 -0.3468
  622MOL0     O83843   4.552  10.323   3.384  0.4389  0.9622 -0.2977
  622MOL0     C83844   4.496  10.271   3.506  0.5401 -0.0918  0.5017
  622MOL0     C83845   4.352  10.315   3.511  0.0960 -0.1909  0.2730
  622MOL0     C83846   4.257  10.203   3.455  0.6441 -0.3374 -0.6015
  622MOL0     C83847   4.113  10.240   3.447 -0.3589  0.0777  0.2599
  622MOL0     C83848   4.025  10.133   3.382 -0.9662  0.2564  0.1312
  622MOL0     C83849   3.876  10.142   3.404 -0.8136 -0.0296  0.1884
  622MOL0     C83850   3.815  10.018   3.342 -0.0471  0.3180  0.1084
  622MOL0     C83851   3.676   9.983   3.394  0.0269 -0.6410  0.2852
  622MOL0     N83852   3.595   9.880   3.309 -0.8739  0.1160  0.3398
  622MOL0     C83853   3.505   9.920   3.215  0.6172 -1.1403 -0.0998
  622MOL0     C83854   3.465   9.807   3.164  0.2309  0.3703 -0.3021
  622MOL0     C83855   3.364   9.797   3.054  0.5304 -0.4363  0.0287
  622MOL0     C83856   3.228   9.754   3.099 -0.0172  0.2834  0.2113
  622MOL0     C83857   3.156   9.834   3.204 -0.5758 -0.3448 -0.4985
  622MOL0     C83858   3.022   9.766   3.237  0.4401 -0.2556  0.0831
  622MOL0     O83859   2.919   9.830   3.160 -0.6033 -0.2496  0.9094
  622MOL0     C83860   2.791   9.798   3.195 -0.4716  0.4374  1.1074
  622MOL0     C83861   2.693   9.885   3.141 -0.1969 -0.1399  0.1274
  622MOL0     C83862   2.553   9.865   3.172 -0.3447 -0.4842 -0.3030
  622MOL0     C83863   2.460   9.966   3.106 -0.1225 -0.1855  0.4791
  622MOL0     C83864   2.520   9.759   3.260  0.8145  0.5371 -0.1871
  622MOL0     C83865   2.384   9.745   3.317 -0.2321  0.1816  0.2512
  622MOL0     O83866   2.350   9.629   3.379 -0.3079  0.2038 -0.3930
  622MOL0     C83867   2.218   9.609   3.423 -0.4719  0.3644  0.3656
  622MOL0     C83868   2.112   9.637   3.337  0.2845  0.1256  0.9984
  622MOL0     C83869   1.985   9.602   3.381  0.2035 -0.3508  0.2579
  622MOL0     C83870   1.959   9.545   3.506 -0.0170 -0.3625 -0.0979
  622MOL0     O83871   1.833   9.524   3.541 -0.4097  0.0897 -0.1735
  622MOL0     C83872   1.804   9.475   3.671 -0.0653 -0.5882 -0.0954
  622MOL0     C83873   1.659   9.507   3.697  0.0195  0.4089  0.0258
  622MOL0     C83874   1.591   9.415   3.812 -0.1355 -0.2241 -0.3146
  622MOL0     C83875   1.445   9.451   3.821  0.1471  0.2733  0.4099
  622MOL0     C83876   1.369   9.342   3.906 -0.0843  0.7284  0.2806
  622MOL0     C83877   1.228   9.394   3.940 -0.2575 -0.1830  0.9611
  622MOL0     C83878   1.132   9.281   3.984 -0.7331  0.3401  0.3331
  622MOL0     C83879   0.986   9.328   3.968  0.1474  0.3495 -0.1209
  622MOL0    Cl83880   0.862   9.218   4.022  0.1794  0.0467 -0.2555
  622MOL0     C83881   2.068   9.527   3.589 -0.5611 -0.2096 -0.4147
  622MOL0     C83882   2.197   9.553   3.548  0.3951  0.4487  0.1870
  622MOL0     O83883   2.309   9.845   3.319 -0.4353 -0.8897  0.0112
  622MOL0     C83884   2.622   9.669   3.311  0.8503 -0.8372  0.4913
  622MOL0     C83885   2.752   9.688   3.275  0.5419 -0.0725 -0.1475
  622MOL0     N83886   3.532   9.709   3.214 -0.1789 -0.3678 -0.0995
  622MOL0     N83887   3.611   9.748   3.308 -0.5893  1.0782  0.7319
  622MOL0     C83888   4.728  10.154   3.335  0.1301  0.0080 -0.6653
  622MOL0     C83889   4.861  10.121   3.321  0.3660 -0.4202  0.0344
  622MOL0     C83890   5.286  10.073   3.322 -0.2122 -0.0383 -0.3305
  622MOL0     C83891   5.330  10.088   3.456  0.4525  0.3806  0.0157
  622MOL0     C83892   5.454  10.051   3.495 -0.1479  0.0461  0.1858
  622MOL0     C83893   5.541   9.981   3.409  0.2680 -0.3748  0.0344
  622MOL0     O83894   5.663   9.963   3.468 -1.2427  0.6688 -0.4177
  622MOL0     C83895   5.748   9.868   3.409 -0.8858  0.5094  0.2972
  622MOL0     C83896   5.863   9.865   3.494 -0.6076  0.4529 -0.2418
  622MOL0     C83897   5.823   9.812   3.635  0.4337  0.8116 -0.1608
  622MOL0     C83898   5.946   9.834   3.718  0.1680  0.0823  0.1135
  622MOL0     C83899   5.900   9.827   3.858 -0.2518 -0.2058  0.0761
  622MOL0     C83900   5.872   9.839   3.979  0.6305  0.0902  0.5274
  622MOL0     C83901   5.490   9.952   3.277  0.6724 -0.3862 -0.8297
  622MOL0     C83902   5.372  10.010   3.235  0.2451  0.4454 -0.0308
  622MOL0     H83903   5.002  10.408   3.420  0.3173 -0.3546  2.0563
  622MOL0     H83904   4.746  10.471   3.441 -2.7716 -0.1295 -2.2640
  622MOL0     H83905   4.511  10.163   3.506  3.6513  0.2398 -0.0824
  622MOL0     H83906   4.540  10.312   3.598 -1.3734 -2.2274  2.4965
  622MOL0     H83907   4.326  10.322   3.618  1.1034  1.0808  0.4558
  622MOL0     H83908   4.331  10.417   3.479  1.5346  0.6917  1.9438
  622MOL0     H83909   4.297  10.172   3.358 -0.6398 -1.1589 -0.8883
  622MOL0     H83910   4.257  10.115   3.521 -1.7493 -0.6196 -0.9067
  622MOL0     H83911   4.073  10.256   3.548 -0.5770  1.1558  0.0210
  622MOL0     H83912   4.096  10.332   3.390 -0.6079  0.1859  0.5012
  622MOL0     H83913   4.042  10.146   3.275 -0.1599  0.8602  0.3229
  622MOL0     H83914   4.057  10.031   3.404 -0.7770 -0.6157 -3.5573
  622MOL0     H83915   3.857  10.156   3.511 -0.6298  0.9241  0.1010
  622MOL0     H83916   3.842  10.233   3.354  2.7233  1.0709 -0.4507
  622MOL0     H83917   3.810  10.034   3.234 -2.2379 -1.7330 -0.1841
  622MOL0     H83918   3.875   9.927   3.350 -0.2164 -0.0722 -2.2526
  622MOL0     H83919   3.618  10.075   3.395  0.8738 -0.0634 -1.2305
  622MOL0     H83920   3.688   9.939   3.494  2.5255 -2.2158 -0.5905
  622MOL0     H83921   3.462  10.016   3.185 -0.8717 -1.6884  0.2030
  622MOL0     H83922   3.360   9.889   2.995  0.5307 -2.4714 -3.4550
  622MOL0     H83923   3.401   9.722   2.983 -1.0308  0.3440 -1.6844
  622MOL0     H83924   3.248   9.652   3.132  1.1901  0.3255 -0.3404
  622MOL0     H83925   3.161   9.757   3.013 -1.7238 -3.0738  1.2627
  622MOL0     H83926   3.128   9.929   3.157 -0.5386 -0.1393 -0.1109
  622MOL0     H83927   3.220   9.845   3.293  0.6510  0.7846 -1.4812
  622MOL0     H83928   3.000   9.774   3.344  2.2591  1.0871  0.4075
  622MOL0     H83929   3.034   9.658   3.222  4.3981 -0.1838  1.4890
  622MOL0     H83930   2.719   9.965   3.072 -0.4076 -0.1141  0.0798
  622MOL0     H83931   2.365   9.923   3.073  0.0070  1.4883 -2.4240
  622MOL0     H83932   2.434  10.032   3.188  0.8657  0.5739  0.1953
  622MOL0     H83933   2.503  10.021   3.022 -0.0800  1.1706  1.3619
  622MOL0     H83934   2.122   9.680   3.237 -2.6132  0.2679  0.7083
  622MOL0     H83935   1.904   9.640   3.318  1.8886  1.1743 -1.0999
  622MOL0     H83936   1.819   9.367   3.666 -4.0012 -1.3329  1.4258
  622MOL0     H83937   1.853   9.520   3.758 -0.0134  1.6343 -1.1745
  622MOL0     H83938   1.658   9.610   3.735  2.3544 -0.1723  1.9398
  622MOL0     H83939   1.595   9.511   3.608 -0.2283 -0.1287  0.1752
  622MOL0     H83940   1.630   9.426   3.914 -3.0716 -3.3307  1.3476
  622MOL0     H83941   1.616   9.313   3.782 -1.2613  0.1164 -2.6299
  622MOL0     H83942   1.431   9.543   3.877 -4.1261 -1.9218  3.5194
  622MOL0     H83943   1.403   9.465   3.721  0.3805  1.8630  0.5205
  622MOL0     H83944   1.423   9.326   4.001 -0.2987 -3.8811 -0.1540
  622MOL0     H83945   1.361   9.250   3.848 -1.2829  0.6163  0.5972
  622MOL0     H83946   1.230   9.471   4.018  0.5694  0.9038 -0.0974
  622MOL0     H83947   1.193   9.440   3.847  0.8550 -1.2048  0.0009
  622MOL0     H83948   1.159   9.257   4.088  1.0051  2.8054  0.5407
  622MOL0     H83949   1.151   9.189   3.928 -0.1713 -0.2508  1.4446
  622MOL0     H83950   0.967   9.343   3.862  0.0939  2.6091  0.1636
  622MOL0     H83951   0.981   9.425   4.019  0.0274  0.7884 -0.9510
  622MOL0     H83952   2.052   9.494   3.691 -0.3647  1.7205  0.2854
  622MOL0     H83953   2.283   9.515   3.602  1.1713 -1.3389 -2.1519
  622MOL0     H83954   2.605   9.587   3.380  0.4403  0.9450  2.6344
  622MOL0     H83955   2.823   9.623   3.324 -0.6067 -1.4696 -0.2757
  622MOL0     H83956   4.650  10.085   3.305  0.6578 -0.9377  0.0727
  622MOL0     H83957   4.896  10.023   3.291 -0.2758 -0.8450  0.6452
  622MOL0     H83958   5.260  10.126   3.530 -0.8318 -1.2149 -0.3195
  622MOL0     H83959   5.493  10.060   3.596 -0.0771  0.2953  0.1362
  622MOL0     H83960   5.704   9.773   3.376 -0.9522 -0.0803  1.9776
  622MOL0     H83961   5.774   9.924   3.319  1.3794  0.9937  1.1894
  622MOL0     H83962   5.907   9.965   3.497  1.6943 -0.5265  1.8587
  622MOL0     H83963   5.934   9.796   3.448 -0.2382  0.3949  0.4112
  622MOL0     H83964   5.794   9.707   3.632 -0.0721  0.7535  3.0352
  622MOL0     H83965   5.748   9.876   3.683  0.5725  1.2300 -0.4940
  622MOL0     H83966   5.992   9.932   3.700  0.5779 -0.4951 -2.2477
  622MOL0     H83967   6.014   9.752   3.693 -0.6675 -0.4893 -0.3293
  622MOL0     H83968   5.843   9.857   4.080  0.9856  1.4906  0.4031
  622MOL0     H83969   5.550   9.893   3.208  1.5477 -1.4017  0.7246
  622MOL0     H83970   5.332  10.010   3.135 -0.2965 -1.3525  0.1534
  623MOL0     O83971  10.666   1.506   1.079  0.6001 -0.1192  0.2252
  623MOL0     C83972  10.694   1.510   0.965 -0.2404  0.6105  0.7254
  623MOL0     O83973  10.605   1.519   0.867 -0.3259 -0.1157 -0.3969
  623MOL0     C83974  10.474   1.538   0.885 -0.8230  0.0219 -0.4156
  623MOL0     C83975  10.414   1.618   0.991  0.0470  0.0481  0.2928
  623MOL0     C83976  10.279   1.656   0.984  0.1908 -0.6157  0.3704
  623MOL0     C83977  10.205   1.601   0.883  0.0394  0.1070 -0.1161
  623MOL0     O83978  10.063   1.601   0.894 -0.4948  0.2689  0.1789
  623MOL0     C83979   9.995   1.668   0.786 -0.4947 -0.4650 -0.7924
  623MOL0     C83980   9.908   1.789   0.834 -0.2873  0.0229 -0.0973
  623MOL0     C83981   9.794   1.734   0.936 -0.5938 -0.0416  0.2288
  623MOL0     C83982   9.700   1.839   0.977  0.4310  0.5195  0.0198
  623MOL0     C83983   9.567   1.794   1.040  0.3893 -0.2691 -0.8439
  623MOL0     C83984   9.453   1.893   1.046  1.3787 -0.5260 -0.0287
  623MOL0     C83985   9.431   1.966   0.916 -0.1818 -0.1102  0.5268
  623MOL0     C83986   9.292   2.030   0.880 -0.0412 -0.1693 -1.3849
  623MOL0     N83987   9.300   2.096   0.750  0.1637  0.0177  0.0272
  623MOL0     C83988   9.259   2.044   0.630  0.2047 -0.5475 -0.0577
  623MOL0     C83989   9.299   2.140   0.551  0.1660 -0.3075  0.5214
  623MOL0     C83990   9.289   2.124   0.401  0.6315  0.1348  1.3359
  623MOL0     C83991   9.166   2.200   0.337 -0.5021 -0.0537  0.6336
  623MOL0     C83992   9.031   2.126   0.376 -0.6296 -0.9234 -0.2811
  623MOL0     C83993   8.915   2.205   0.326 -0.0161  0.2291  0.5339
  623MOL0     O83994   8.797   2.154   0.375 -0.0871  0.7951  0.2991
  623MOL0     C83995   8.672   2.184   0.324 -0.0537  0.6021 -0.0384
  623MOL0     C83996   8.562   2.131   0.390 -0.5570  0.0619 -0.2084
  623MOL0     C83997   8.429   2.150   0.350 -0.3431 -0.3138  0.4073
  623MOL0     C83998   8.322   2.091   0.436 -0.2401 -0.2889  0.2301
  623MOL0     C83999   8.399   2.229   0.242 -0.3510 -0.9519  0.5774
  623MOL0     C84000   8.259   2.251   0.179  0.2657  0.2800 -0.0835
  623MOL0     O84001   8.251   2.343   0.084  0.8135  0.3006 -0.4844
  623MOL0     C84002   8.166   2.341  -0.017  0.4793 -0.0739  0.2102
  623MOL0     C84003   8.080   2.234  -0.049 -0.0548  0.9133 -0.1670
  623MOL0     C84004   8.005   2.228  -0.167  0.7560  0.5188 -0.0936
  623MOL0     C84005   8.002   2.332  -0.253  0.7591 -0.3827 -0.4597
  623MOL0     O84006   7.918   2.324  -0.359  0.3069 -0.5397 -0.1130
  623MOL0     C84007   7.890   2.448  -0.435 -0.0396  0.3669  0.0305
  623MOL0     C84008   7.754   2.434  -0.507  0.0379  0.4834 -0.0727
  623MOL0     C84009   7.758   2.359  -0.634 -0.2797  0.4356  0.1866
  623MOL0     C84010   7.620   2.380  -0.698  0.3784  0.2925 -0.6404
  623MOL0     C84011   7.627   2.336  -0.840 -0.0750  0.9215  0.1333
  623MOL0     C84012   7.498   2.339  -0.917 -0.3143 -0.0550 -0.0119
  623MOL0     C84013   7.516   2.321  -1.072 -0.0994  0.3123  0.3100
  623MOL0     C84014   7.389   2.277  -1.143 -0.3053  0.0369 -0.1987
  623MOL0    Cl84015   7.406   2.266  -1.317  0.2199  0.0495  0.1424
  623MOL0     C84016   8.080   2.441  -0.221 -0.8392 -0.5509  0.2018
  623MOL0     C84017   8.171   2.437  -0.115 -0.1911 -0.1136 -0.3608
  623MOL0     O84018   8.169   2.194   0.233  0.2702  1.2532 -0.2914
  623MOL0     C84019   8.515   2.296   0.179 -0.2345  0.8373  0.3075
  623MOL0     C84020   8.646   2.267   0.219 -0.5366 -0.2672 -0.4372
  623MOL0     N84021   9.355   2.254   0.614  0.5746 -0.0256 -0.0218
  623MOL0     N84022   9.347   2.225   0.737 -0.0255  0.1080 -0.5180
  623MOL0     C84023  10.254   1.517   0.781 -0.8562 -0.0818  0.4361
  623MOL0     C84024  10.392   1.495   0.782 -1.0076  0.7044 -0.5315
  623MOL0     C84025  10.832   1.509   0.928  0.3509  0.6110  0.2070
  623MOL0     C84026  10.931   1.577   0.996 -0.8824 -0.6840 -0.5416
  623MOL0     C84027  11.066   1.578   0.952  0.3581  0.8018 -0.3953
  623MOL0     C84028  11.096   1.510   0.832  0.3227 -1.1282 -0.4778
  623MOL0     O84029  11.221   1.514   0.772  0.1229  0.7082  0.1615
  623MOL0     C84030  11.319   1.608   0.804 -0.3278  0.0190  0.6090
  623MOL0     C84031  11.436   1.598   0.699  1.1078 -0.7755  0.4633
  623MOL0     C84032  11.537   1.494   0.733  0.2916 -0.6297 -0.2611
  623MOL0     C84033  11.634   1.465   0.623 -0.8411  0.7951  0.5714
  623MOL0     C84034  11.728   1.577   0.615 -0.6707 -0.3152  0.7104
  623MOL0     C84035  11.795   1.672   0.584 -0.6006 -0.4097 -0.7139
  623MOL0     C84036  10.998   1.445   0.761  0.7649 -0.8347 -0.2327
  623MOL0     C84037  10.870   1.452   0.803  0.4190  0.0196  0.1262
  623MOL0     H84038  10.465   1.661   1.077  3.9707 -1.4520 -1.0577
  623MOL0     H84039  10.231   1.729   1.048 -2.0211  0.9553 -2.8114
  623MOL0     H84040  10.064   1.709   0.711  1.6624 -0.4644  1.0766
  623MOL0     H84041   9.939   1.593   0.731 -0.2481 -0.4247 -1.1018
  623MOL0     H84042   9.969   1.865   0.884 -2.4460 -0.8385  4.3870
  623MOL0     H84043   9.861   1.842   0.750 -0.6502  0.0992  0.1528
  623MOL0     H84044   9.736   1.663   0.876  0.8465 -1.2004  0.1550
  623MOL0     H84045   9.825   1.682   1.026  0.4692 -1.2291 -0.7787
  623MOL0     H84046   9.748   1.918   1.036  4.5783  1.5331 -4.0848
  623MOL0     H84047   9.673   1.897   0.888  1.8757 -0.8490 -1.3749
  623MOL0     H84048   9.525   1.705   0.994 -0.4379  0.6222 -1.8808
  623MOL0     H84049   9.592   1.773   1.145 -3.1970 -1.1607 -0.0281
  623MOL0     H84050   9.362   1.835   1.061  0.7492 -0.5043 -3.0353
  623MOL0     H84051   9.467   1.956   1.134 -0.9259  0.0872 -0.0441
  623MOL0     H84052   9.504   2.047   0.907  1.3038 -1.5720 -2.0709
  623MOL0     H84053   9.451   1.895   0.835 -0.2890 -0.0171  0.4198
  623MOL0     H84054   9.272   2.108   0.954  0.5727  2.2876 -3.6693
  623MOL0     H84055   9.209   1.958   0.879 -0.2076 -0.0588  0.5406
  623MOL0     H84056   9.223   1.949   0.592 -1.6534  0.0717  0.0510
  623MOL0     H84057   9.387   2.159   0.366  0.0521  2.5713  2.0120
  623MOL0     H84058   9.276   2.018   0.375 -2.1939  0.4460  1.1461
  623MOL0     H84059   9.193   2.192   0.231  0.3885  2.8356  0.5404
  623MOL0     H84060   9.163   2.308   0.358  1.6265  0.9955 -3.3030
  623MOL0     H84061   9.036   2.111   0.484 -0.8515 -2.1776 -0.4278
  623MOL0     H84062   9.034   2.024   0.337  0.4415 -1.0970  0.1997
  623MOL0     H84063   8.922   2.194   0.217  1.0983  1.5478  0.4364
  623MOL0     H84064   8.924   2.312   0.348 -0.9433  0.1868  1.1729
  623MOL0     H84065   8.576   2.057   0.469 -0.3214  0.2722 -0.0518
  623MOL0     H84066   8.252   2.162   0.482 -1.0950  1.8315 -3.8830
  623MOL0     H84067   8.268   2.019   0.374  2.3517 -0.1786 -2.3836
  623MOL0     H84068   8.365   2.037   0.521 -1.5434 -1.5245  0.1405
  623MOL0     H84069   8.077   2.147   0.017 -0.6422  2.6510  2.2515
  623MOL0     H84070   7.949   2.137  -0.188  0.2818  0.9584 -0.7725
  623MOL0     H84071   7.889   2.543  -0.381  0.0109  2.2818 -3.0704
  623MOL0     H84072   7.969   2.461  -0.509  0.2801  2.2633  0.6322
  623MOL0     H84073   7.680   2.392  -0.438 -0.8374 -0.7702 -1.6855
  623MOL0     H84074   7.728   2.538  -0.526 -1.0231  0.5827  1.7681
  623MOL0     H84075   7.775   2.255  -0.603 -0.8097 -0.1128 -1.2853
  623MOL0     H84076   7.837   2.398  -0.699  0.9335 -0.6247  0.9539
  623MOL0     H84077   7.545   2.330  -0.635  0.4382  1.4886  0.4107
  623MOL0     H84078   7.592   2.485  -0.702 -0.3494  0.1919  0.8900
  623MOL0     H84079   7.683   2.242  -0.851 -0.5712  0.6211  0.1496
  623MOL0     H84080   7.695   2.412  -0.879  2.1820 -0.5988  0.8809
  623MOL0     H84081   7.426   2.266  -0.879 -1.3753  1.1455  0.3508
  623MOL0     H84082   7.457   2.439  -0.899  0.6468  0.9260 -2.6397
  623MOL0     H84083   7.600   2.254  -1.093 -1.9566 -2.1593  0.3313
  623MOL0     H84084   7.541   2.422  -1.106 -1.3411  0.0517 -1.4748
  623MOL0     H84085   7.301   2.336  -1.116  0.7690  0.9388  1.5234
  623MOL0     H84086   7.353   2.179  -1.109  0.1352 -0.0851 -0.0723
  623MOL0     H84087   8.095   2.521  -0.293  0.3551 -1.7225 -0.9136
  623MOL0     H84088   8.249   2.512  -0.109 -0.6001  0.3049 -0.1336
  623MOL0     H84089   8.503   2.358   0.091 -0.3708  0.2733 -0.0752
  623MOL0     H84090   8.732   2.313   0.170 -3.4129  2.2832 -3.6452
  623MOL0     H84091  10.186   1.488   0.702  1.3194  0.3292 -1.7138
  623MOL0     H84092  10.441   1.439   0.702 -0.9110 -1.1355  0.7496
  623MOL0     H84093  10.903   1.629   1.087 -0.6429  0.1354 -0.9292
  623MOL0     H84094  11.137   1.624   1.020 -1.5783  1.1175  1.5308
  623MOL0     H84095  11.270   1.706   0.798 -0.7228 -0.2626 -1.2725
  623MOL0     H84096  11.360   1.608   0.905 -1.5875 -0.8636  1.1434
  623MOL0     H84097  11.480   1.697   0.684 -1.4312  0.8737  2.9051
  623MOL0     H84098  11.403   1.565   0.600 -1.3880  0.5036  0.8039
  623MOL0     H84099  11.482   1.404   0.759 -2.0979  0.6856 -0.5425
  623MOL0     H84100  11.600   1.513   0.821  0.0652 -2.5561  0.3657
  623MOL0     H84101  11.588   1.462   0.524 -0.9304 -0.6395  0.6354
  623MOL0     H84102  11.683   1.368   0.635 -2.3527 -0.4768 -2.3385
  623MOL0     H84103  11.863   1.741   0.537 -0.1107 -0.7577 -0.5262
  623MOL0     H84104  11.022   1.389   0.670  2.1235 -2.4321  1.0499
  623MOL0     H84105  10.790   1.402   0.749  0.1291  2.0550 -1.4642
  624MOL0     O84106   6.204   5.693   0.604  0.0318 -0.1718  0.4161
  624MOL0     C84107   6.216   5.817   0.611  0.2243 -0.4157  0.4178
  624MOL0     O84108   6.107   5.905   0.605  0.0684 -0.3668 -0.2388
  624MOL0     C84109   5.972   5.868   0.602 -0.3114  0.2778  0.3251
  624MOL0     C84110   5.892   5.975   0.560  0.7357  0.7486 -0.6921
  624MOL0     C84111   5.750   5.947   0.558  0.1574 -0.4212  0.2059
  624MOL0     C84112   5.699   5.819   0.598  0.5674 -0.6730 -0.6095
  624MOL0     O84113   5.569   5.797   0.605  0.4113  0.0214 -0.0080
  624MOL0     C84114   5.521   5.719   0.498 -0.1303  0.1514  0.8711
  624MOL0     C84115   5.374   5.767   0.487 -0.0575  0.0662 -0.4657
  624MOL0     C84116   5.305   5.697   0.375  0.1180  0.2531 -0.2040
  624MOL0     C84117   5.149   5.723   0.354 -0.7693 -0.0083  0.2512
  624MOL0     C84118   5.081   5.600   0.299  0.1471 -0.0079  0.1692
  624MOL0     C84119   5.133   5.546   0.165 -0.0528 -0.0515 -0.0187
  624MOL0     C84120   5.112   5.657   0.054  0.7641 -0.0800  0.3297
  624MOL0     C84121   5.133   5.588  -0.080 -0.0138 -0.5905  0.3404
  624MOL0     N84122   5.029   5.488  -0.123 -0.3204 -0.2127  0.2957
  624MOL0     C84123   4.901   5.516  -0.175 -1.1134 -0.1626  0.6790
  624MOL0     C84124   4.835   5.395  -0.174 -0.1987 -0.0734  0.3169
  624MOL0     C84125   4.689   5.380  -0.216 -0.7171 -0.0777 -0.7516
  624MOL0     C84126   4.681   5.326  -0.363 -0.3359  0.7683  0.5293
  624MOL0     C84127   4.667   5.172  -0.375 -0.0148 -0.5656  0.5304
  624MOL0     C84128   4.611   5.131  -0.519 -0.1640  0.6491  0.1537
  624MOL0     O84129   4.587   4.992  -0.531  0.4313  0.2851  0.6863
  624MOL0     C84130   4.481   4.927  -0.466  0.4042 -0.6808 -0.3240
  624MOL0     C84131   4.470   4.792  -0.488  1.2363  0.2580  0.4188
  624MOL0     C84132   4.361   4.710  -0.442 -0.2030 -0.2468  0.1375
  624MOL0     C84133   4.362   4.567  -0.486  0.4760 -0.4539 -0.0826
  624MOL0     C84134   4.258   4.770  -0.372 -0.2481 -0.8235 -0.2002
  624MOL0     C84135   4.134   4.708  -0.317  0.1135 -0.1784  0.0906
  624MOL0     O84136   4.042   4.797  -0.260  0.5448 -0.7294 -0.5570
  624MOL0     C84137   3.920   4.752  -0.229 -0.2585  0.8950 -0.1325
  624MOL0     C84138   3.894   4.694  -0.106  0.5876 -0.3631 -0.6732
  624MOL0     C84139   3.764   4.639  -0.078  0.4367 -0.2295 -0.0305
  624MOL0     C84140   3.666   4.648  -0.176 -0.6217 -0.5117 -0.7910
  624MOL0     O84141   3.537   4.602  -0.166  0.4384  0.7027  0.8097
  624MOL0     C84142   3.458   4.664  -0.066  0.1307 -0.4322  0.6648
  624MOL0     C84143   3.338   4.572  -0.052  0.1644  0.6390 -0.0586
  624MOL0     C84144   3.206   4.658  -0.054 -0.3758  0.5935  0.9522
  624MOL0     C84145   3.085   4.571  -0.055 -0.2767  0.1397 -0.0669
  624MOL0     C84146   2.958   4.649  -0.067  0.0815 -0.1859 -0.0160
  624MOL0     C84147   2.824   4.572  -0.061  0.1595  0.6099 -1.1646
  624MOL0     C84148   2.698   4.662  -0.083 -0.1201  0.3229  0.2054
  624MOL0     C84149   2.675   4.745   0.040 -0.3078 -1.3242  0.4848
  624MOL0    Cl84150   2.532   4.848   0.015 -0.0069  0.3276  0.1542
  624MOL0     C84151   3.696   4.703  -0.294  0.2186  0.3046  0.1115
  624MOL0     C84152   3.820   4.755  -0.322 -0.4692 -0.6403  0.2496
  624MOL0     O84153   4.121   4.584  -0.327  0.3195 -0.2762 -0.1318
  624MOL0     C84154   4.276   4.908  -0.339  0.3239  0.1481 -0.5194
  624MOL0     C84155   4.375   4.983  -0.393 -0.2707 -0.4042 -0.4917
  624MOL0     N84156   4.923   5.295  -0.122  0.1328 -0.8344  0.5891
  624MOL0     N84157   5.042   5.353  -0.094  0.4726 -0.1366 -0.8702
  624MOL0     C84158   5.781   5.720   0.645  0.5042 -0.1366 -0.5558
  624MOL0     C84159   5.914   5.749   0.649  0.2754  0.4185  0.5353
  624MOL0     C84160   6.359   5.873   0.612  0.1378 -0.0946  0.1433
  624MOL0     C84161   6.469   5.789   0.611 -0.2065 -0.1728  0.2059
  624MOL0     C84162   6.607   5.841   0.622 -0.1197  0.1153 -0.4548
  624MOL0     C84163   6.619   5.982   0.630  0.0102 -0.4685 -0.2798
  624MOL0     O84164   6.737   6.042   0.654 -0.3886 -0.4584  0.1506
  624MOL0     C84165   6.858   5.978   0.609  0.8396 -0.2283  0.9097
  624MOL0     C84166   6.980   6.068   0.624 -0.2255 -0.3194 -0.0217
  624MOL0     C84167   7.111   6.016   0.574  0.2802  0.4289  0.5227
  624MOL0     C84168   7.180   5.907   0.664  0.1439 -0.7442 -0.5424
  624MOL0     C84169   7.155   5.765   0.629  1.1143  0.2458 -1.1496
  624MOL0     C84170   7.131   5.652   0.598  0.1964  0.0019  0.7680
  624MOL0     C84171   6.509   6.073   0.621  0.9734  0.8471 -0.3819
  624MOL0     C84172   6.378   6.018   0.621 -0.0982 -0.3363 -0.3142
  624MOL0     H84173   5.929   6.076   0.542 -0.3464  1.7227  2.0312
  624MOL0     H84174   5.685   6.028   0.528 -1.0338 -1.3126  0.3074
  624MOL0     H84175   5.574   5.746   0.406  0.1132  0.7928  1.1953
  624MOL0     H84176   5.526   5.615   0.532 -2.3811 -0.5570 -0.7375
  624MOL0     H84177   5.321   5.752   0.581  3.2534  3.9123  2.4018
  624MOL0     H84178   5.377   5.875   0.470  0.5197 -0.2209 -2.5543
  624MOL0     H84179   5.346   5.724   0.278  2.8529  0.6766  0.9682
  624MOL0     H84180   5.327   5.591   0.387  1.8539  0.6587  0.4668
  624MOL0     H84181   5.104   5.744   0.452 -1.7639  0.4852 -0.3000
  624MOL0     H84182   5.127   5.811   0.293 -4.6651 -1.5639 -0.8458
  624MOL0     H84183   5.094   5.527   0.379 -0.7748 -0.9961 -0.5444
  624MOL0     H84184   4.973   5.612   0.292 -0.1482 -1.7782  1.1384
  624MOL0     H84185   5.241   5.527   0.173  0.0749  0.3531 -0.6664
  624MOL0     H84186   5.075   5.455   0.145 -1.5544  0.8142  0.2633
  624MOL0     H84187   5.012   5.702   0.056  1.2083  1.1620 -1.8435
  624MOL0     H84188   5.182   5.741   0.065  0.8739 -0.1731  0.3442
  624MOL0     H84189   5.226   5.531  -0.090  0.1925 -0.2295  0.1762
  624MOL0     H84190   5.130   5.660  -0.161 -0.7272 -1.9925 -0.9240
  624MOL0     H84191   4.863   5.609  -0.215  1.6480  0.1098 -1.6485
  624MOL0     H84192   4.628   5.318  -0.149 -0.4933  0.0452 -0.4279
  624MOL0     H84193   4.642   5.478  -0.226 -2.8177 -0.9878 -0.3287
  624MOL0     H84194   4.769   5.354  -0.421 -0.0136 -2.2489 -0.6784
  624MOL0     H84195   4.594   5.380  -0.400 -0.0033  2.3797  2.0051
  624MOL0     H84196   4.593   5.136  -0.303 -0.8084 -2.1498 -0.9996
  624MOL0     H84197   4.762   5.123  -0.351 -0.3010 -2.0308 -1.1098
  624MOL0     H84198   4.678   5.169  -0.597 -0.5332  1.3949  0.1918
  624MOL0     H84199   4.516   5.180  -0.541  0.3041  1.9632  0.9361
  624MOL0     H84200   4.543   4.743  -0.551 -0.5524 -1.3509 -0.5013
  624MOL0     H84201   4.451   4.522  -0.531  0.5513 -2.1607  1.5981
  624MOL0     H84202   4.349   4.503  -0.398 -1.2593 -0.2468 -0.1596
  624MOL0     H84203   4.270   4.559  -0.545  0.4711 -0.0942 -0.1243
  624MOL0     H84204   3.983   4.685  -0.044  1.4149 -0.5063 -1.8443
  624MOL0     H84205   3.748   4.593   0.019  1.3675  0.7750  0.6252
  624MOL0     H84206   3.504   4.673   0.033 -1.8034 -2.0764  1.8021
  624MOL0     H84207   3.440   4.767  -0.095  0.1274  0.5245  3.6886
  624MOL0     H84208   3.333   4.499  -0.134  1.6270  1.1144 -0.6130
  624MOL0     H84209   3.329   4.512   0.039 -1.8245  2.9264  1.3820
  624MOL0     H84210   3.209   4.727  -0.139  0.8212  1.0976  1.3790
  624MOL0     H84211   3.212   4.730   0.028  3.0936  1.6037  0.0191
  624MOL0     H84212   3.089   4.502  -0.140  2.5774  2.4353 -2.0090
  624MOL0     H84213   3.091   4.509   0.035 -1.6854  0.2440  0.1183
  624MOL0     H84214   2.970   4.713  -0.155  1.3063 -1.6405 -0.9484
  624MOL0     H84215   2.971   4.715   0.020 -0.4832 -3.7898  3.0315
  624MOL0     H84216   2.823   4.495  -0.139  0.6164 -1.8497  1.1383
  624MOL0     H84217   2.812   4.520   0.034  1.1120  1.2802 -0.6624
  624MOL0     H84218   2.613   4.600  -0.112  1.2257 -1.3425 -0.3685
  624MOL0     H84219   2.715   4.729  -0.169 -0.0385  2.0100  1.4808
  624MOL0     H84220   2.763   4.810   0.048 -0.7330 -0.5991 -0.5008
  624MOL0     H84221   2.672   4.688   0.134  2.0549 -0.1945  1.3471
  624MOL0     H84222   3.622   4.713  -0.374  0.3564  1.5802  0.1237
  624MOL0     H84223   3.838   4.803  -0.417 -0.3439 -0.2906  0.4462
  624MOL0     H84224   4.200   4.961  -0.281 -0.0185  0.6616 -1.4205
  624MOL0     H84225   4.373   5.091  -0.378 -1.8046 -0.0005 -2.9949
  624MOL0     H84226   5.760   5.618   0.673  2.2147 -0.1294  1.0170
  624MOL0     H84227   5.981   5.675   0.691 -0.5161  1.0885  3.1837
  624MOL0     H84228   6.458   5.681   0.609  0.4615 -0.3123  1.8144
  624MOL0     H84229   6.694   5.776   0.616 -0.1483  0.0697 -0.3663
  624MOL0     H84230   6.870   5.897   0.682  1.5964 -0.3818  0.6188
  624MOL0     H84231   6.853   5.944   0.505  1.5411 -0.9053  1.0839
  624MOL0     H84232   6.986   6.085   0.732 -2.4979 -1.4491  0.3286
  624MOL0     H84233   6.966   6.167   0.578 -0.0469  1.0541  2.6335
  624MOL0     H84234   7.175   6.104   0.578  0.4377  0.3306  0.2061
  624MOL0     H84235   7.099   5.982   0.470  0.2449  0.8388  0.3906
  624MOL0     H84236   7.144   5.926   0.766 -1.5573 -0.4966 -1.1533
  624MOL0     H84237   7.288   5.920   0.665  0.3842 -2.4479  0.7696
  624MOL0     H84238   7.114   5.552   0.566  1.7103 -0.5796  1.6917
  624MOL0     H84239   6.531   6.179   0.631  1.7087  0.7413 -0.7791
  624MOL0     H84240   6.298   6.092   0.616  0.3189  0.1781  0.5215
  625MOL0     O84241   8.261   7.860   7.509 -0.3988  0.1459 -0.2792
  625MOL0     C84242   8.331   7.966   7.498  0.0776  0.7059  1.1506
  625MOL0     O84243   8.281   8.085   7.484 -0.6412  0.3884 -0.2925
  625MOL0     C84244   8.148   8.093   7.451 -0.5670 -0.3094 -0.1852
  625MOL0     C84245   8.044   8.029   7.517 -0.1917  0.0118 -0.4341
  625MOL0     C84246   7.910   8.030   7.469  0.5579 -0.3476  0.5713
  625MOL0     C84247   7.892   8.115   7.349  0.3481 -0.1255 -1.0850
  625MOL0     O84248   7.762   8.104   7.298  0.3349 -0.2023 -0.2827
  625MOL0     C84249   7.746   8.076   7.162 -0.6345  0.3114 -0.0313
  625MOL0     C84250   7.594   8.067   7.132 -0.5837 -0.0687 -0.2044
  625MOL0     C84251   7.528   8.196   7.183  0.3220  0.2407 -0.4132
  625MOL0     C84252   7.381   8.194   7.142 -0.0546  0.0901 -0.0988
  625MOL0     C84253   7.321   8.325   7.193  0.5536 -0.0882 -0.2205
  625MOL0     C84254   7.174   8.315   7.161  0.7543 -0.1605  0.5366
  625MOL0     C84255   7.087   8.428   7.225  0.3134 -0.8237 -0.1849
  625MOL0     C84256   6.940   8.436   7.171  0.6226  0.4485 -0.1776
  625MOL0     N84257   6.892   8.565   7.213  0.3250 -0.2334  0.4478
  625MOL0     C84258   6.823   8.593   7.332 -0.5962 -0.6258  0.1117
  625MOL0     C84259   6.802   8.724   7.328  0.1585 -0.7203 -0.6654
  625MOL0     C84260   6.760   8.812   7.439  0.2565  0.3753 -0.7978
  625MOL0     C84261   6.631   8.766   7.499 -0.6922 -0.0053  0.1356
  625MOL0     C84262   6.514   8.743   7.400  0.8541 -0.1054 -0.3621
  625MOL0     C84263   6.374   8.739   7.467 -0.6759  0.1988  0.3680
  625MOL0     O84264   6.347   8.860   7.545 -0.3634 -0.1102 -0.3484
  625MOL0     C84265   6.217   8.902   7.559 -0.3917  0.1874  0.5383
  625MOL0     C84266   6.193   9.039   7.571  0.6798 -0.2307 -0.1698
  625MOL0     C84267   6.059   9.082   7.563 -0.6834 -0.0875  0.1547
  625MOL0     C84268   6.042   9.236   7.554  0.3910  0.7907  0.1145
  625MOL0     C84269   5.950   8.990   7.553 -0.7006 -0.2439 -0.5922
  625MOL0     C84270   5.807   9.036   7.549 -0.3348 -0.1852 -0.2680
  625MOL0     O84271   5.761   9.152   7.601 -0.7168 -0.4285  0.2335
  625MOL0     C84272   5.638   9.188   7.579  0.3703  0.1984  0.5086
  625MOL0     C84273   5.535   9.137   7.665  0.0249 -0.1283  0.3539
  625MOL0     C84274   5.397   9.182   7.650  0.0991  0.1026  1.1563
  625MOL0     C84275   5.371   9.272   7.546  0.7605  0.6025  0.2119
  625MOL0     O84276   5.240   9.319   7.540  0.0128 -0.0373 -0.2291
  625MOL0     C84277   5.210   9.439   7.465  0.0848  0.4867  0.5089
  625MOL0     C84278   5.063   9.470   7.481 -0.9947 -0.8677 -0.0998
  625MOL0     C84279   5.025   9.483   7.630 -0.1962 -0.7817 -0.0840
  625MOL0     C84280   4.923   9.592   7.652  0.6971 -0.5813 -0.5103
  625MOL0     C84281   4.797   9.598   7.550 -0.8457  0.1615 -0.6007
  625MOL0     C84282   4.737   9.733   7.560  0.6279  0.7196 -0.0919
  625MOL0     C84283   4.796   9.828   7.452 -0.6697 -0.1153 -0.6029
  625MOL0     C84284   4.716   9.958   7.432  0.1335  0.2325  0.4980
  625MOL0    Cl84285   4.556   9.921   7.339 -0.5400  0.2097 -0.3618
  625MOL0     C84286   5.472   9.324   7.460  0.0424 -0.5321 -0.7879
  625MOL0     C84287   5.607   9.289   7.483 -0.2851 -0.2140 -0.5278
  625MOL0     O84288   5.737   8.958   7.486  0.2331  1.6002 -0.0790
  625MOL0     C84289   5.981   8.849   7.553 -0.2317 -0.6179 -0.2090
  625MOL0     C84290   6.114   8.804   7.558 -0.0065  0.0471 -0.1907
  625MOL0     N84291   6.868   8.780   7.222  0.1358 -0.3651  0.0909
  625MOL0     N84292   6.908   8.684   7.150  1.3457 -0.1399 -0.3121
  625MOL0     C84293   7.991   8.188   7.291 -0.6230 -0.6690 -0.1963
  625MOL0     C84294   8.119   8.180   7.341  0.0267 -0.2979  0.5476
  625MOL0     C84295   8.480   7.957   7.503  0.0961  0.3592 -0.9675
  625MOL0     C84296   8.531   7.881   7.605 -0.2761 -0.2336 -0.8563
  625MOL0     C84297   8.666   7.879   7.635  0.6950  0.3841 -0.1009
  625MOL0     C84298   8.756   7.926   7.546 -0.6023  0.0932  0.1027
  625MOL0     O84299   8.887   7.893   7.562  0.2757 -0.7640 -0.3303
  625MOL0     C84300   9.000   7.952   7.489 -0.7757  0.1459 -0.2770
  625MOL0     C84301   9.027   8.102   7.488  0.1314 -0.1683 -0.2249
  625MOL0     C84302   9.153   8.143   7.410  0.0609  0.2011 -0.5905
  625MOL0     C84303   9.290   8.071   7.442  0.0221  0.0327 -0.2832
  625MOL0     C84304   9.404   8.140   7.378 -0.0118 -0.3664 -0.3956
  625MOL0     C84305   9.502   8.188   7.329 -0.5851  0.2349 -0.1600
  625MOL0     C84306   8.712   7.997   7.431  0.0423 -0.1782 -0.7691
  625MOL0     C84307   8.570   8.012   7.408  0.1177  0.0172 -0.2134
  625MOL0     H84308   8.061   7.973   7.609  0.8741  1.9484  0.6260
  625MOL0     H84309   7.835   7.969   7.518  0.5241 -2.1201 -1.5339
  625MOL0     H84310   7.791   8.157   7.104 -1.6129  1.0817  0.2707
  625MOL0     H84311   7.801   7.986   7.132 -1.6070 -0.6164  0.8677
  625MOL0     H84312   7.584   8.050   7.024  1.5937  1.0167 -0.6439
  625MOL0     H84313   7.544   7.990   7.193  1.5867  0.0960  1.9290
  625MOL0     H84314   7.532   8.211   7.292 -0.7308 -2.2753  0.0423
  625MOL0     H84315   7.578   8.285   7.144 -0.4117  0.0810 -1.7578
  625MOL0     H84316   7.364   8.196   7.034 -1.2226  0.3550  0.0833
  625MOL0     H84317   7.339   8.102   7.183  3.2407 -1.4267  0.1763
  625MOL0     H84318   7.338   8.335   7.301 -0.8180  1.0023 -0.0763
  625MOL0     H84319   7.359   8.415   7.142 -2.5062  0.4491 -1.7827
  625MOL0     H84320   7.152   8.308   7.054 -1.4134 -3.5060  1.0573
  625MOL0     H84321   7.136   8.223   7.207 -0.4473 -0.7491 -1.5230
  625MOL0     H84322   7.087   8.414   7.333 -2.7066  1.9831  0.3278
  625MOL0     H84323   7.139   8.522   7.204  1.0309 -1.2316 -0.2721
  625MOL0     H84324   6.866   8.362   7.204  0.4744 -0.5467 -2.5363
  625MOL0     H84325   6.931   8.432   7.062 -0.8947  0.1651 -0.0715
  625MOL0     H84326   6.793   8.523   7.409  0.0665 -0.2475  0.7158
  625MOL0     H84327   6.842   8.808   7.512 -1.1487 -1.9016  0.7748
  625MOL0     H84328   6.742   8.914   7.404  0.0855 -0.4822 -3.3668
  625MOL0     H84329   6.603   8.849   7.565  2.4369 -0.2926  2.0175
  625MOL0     H84330   6.648   8.676   7.558  0.6787  0.5432  0.6399
  625MOL0     H84331   6.530   8.641   7.365 -1.1682 -0.5416 -0.1354
  625MOL0     H84332   6.514   8.823   7.324  1.2443  0.9224  0.6932
  625MOL0     H84333   6.368   8.647   7.526 -1.9601  0.9402  1.4399
  625MOL0     H84334   6.298   8.733   7.389 -0.4697  0.4090  0.1475
  625MOL0     H84335   6.269   9.114   7.587 -0.2169  0.4685  0.9790
  625MOL0     H84336   6.022   9.269   7.657 -1.7928 -1.2030  0.4111
  625MOL0     H84337   6.138   9.274   7.519 -0.1643  2.0076 -0.1641
  625MOL0     H84338   5.970   9.278   7.483  1.4719  2.7898  0.1358
  625MOL0     H84339   5.566   9.058   7.732  0.7389 -1.0027 -0.9528
  625MOL0     H84340   5.314   9.158   7.716 -1.1277 -0.2591 -0.4503
  625MOL0     H84341   5.267   9.529   7.490 -0.8037  1.1363  0.2533
  625MOL0     H84342   5.219   9.423   7.357  1.3714  2.1972  0.3304
  625MOL0     H84343   5.050   9.564   7.428  0.8215  1.1913  2.8198
  625MOL0     H84344   5.012   9.385   7.434  1.5651 -2.8561  0.5309
  625MOL0     H84345   5.112   9.512   7.690 -2.1374  2.7710  1.3159
  625MOL0     H84346   4.990   9.388   7.671 -1.6315 -0.6066 -0.8305
  625MOL0     H84347   4.878   9.565   7.747 -0.4939 -0.8741 -1.1355
  625MOL0     H84348   4.969   9.691   7.655 -0.8209  0.1356  0.0785
  625MOL0     H84349   4.725   9.521   7.578  0.1191 -0.2359  0.8945
  625MOL0     H84350   4.818   9.577   7.444  2.0235  3.4705 -0.8913
  625MOL0     H84351   4.629   9.726   7.545  0.3843  0.8178  1.4483
  625MOL0     H84352   4.755   9.772   7.660  1.4650  1.5675 -0.5531
  625MOL0     H84353   4.798   9.773   7.358 -1.8345 -0.0640 -0.6719
  625MOL0     H84354   4.899   9.850   7.482 -0.7158 -1.3914  0.5548
  625MOL0     H84355   4.780  10.024   7.372  0.8994  0.0670  1.1120
  625MOL0     H84356   4.700  10.016   7.523 -1.9552  2.0865 -0.9395
  625MOL0     H84357   5.462   9.403   7.387  0.4302 -0.9386 -1.2911
  625MOL0     H84358   5.678   9.336   7.416 -0.9759  1.3140 -0.2287
  625MOL0     H84359   5.903   8.774   7.544 -1.9147  1.1259 -1.1491
  625MOL0     H84360   6.126   8.697   7.546  1.3488 -0.0513  1.5300
  625MOL0     H84361   7.956   8.253   7.211 -0.7064  0.1939  0.5388
  625MOL0     H84362   8.197   8.241   7.296 -0.9405  3.1089  3.0590
  625MOL0     H84363   8.460   7.850   7.680 -1.1813  1.8368 -0.7876
  625MOL0     H84364   8.692   7.808   7.713 -2.6201 -2.5693 -1.3856
  625MOL0     H84365   9.089   7.906   7.533 -2.0927 -0.2983  2.0922
  625MOL0     H84366   8.995   7.916   7.386 -0.1254 -0.3709 -0.1395
  625MOL0     H84367   9.034   8.139   7.591 -0.7492 -0.6347  0.0177
  625MOL0     H84368   8.940   8.150   7.442 -1.0996 -1.0835  1.0486
  625MOL0     H84369   9.169   8.251   7.418  1.3007  0.0430 -0.7316
  625MOL0     H84370   9.122   8.117   7.308  1.2093  0.0470 -0.9186
  625MOL0     H84371   9.288   7.967   7.409 -2.5127 -0.3039  0.6948
  625MOL0     H84372   9.294   8.068   7.551 -0.0956 -0.8472 -0.2979
  625MOL0     H84373   9.584   8.238   7.282 -0.8813  0.0456 -0.8891
  625MOL0     H84374   8.779   8.025   7.350 -0.9882  0.1976 -1.5097
  625MOL0     H84375   8.544   8.055   7.312  0.6844 -1.3148 -0.9941
  626MOL0     O84376   7.161   9.974   6.216  0.1635 -0.8608  0.0982
  626MOL0     C84377   7.222   9.877   6.197  0.1021 -0.2043 -0.4192
  626MOL0     O84378   7.182   9.750   6.224  0.2131 -0.9540  0.3250
  626MOL0     C84379   7.050   9.713   6.261 -0.6532  0.8420  0.0168
  626MOL0     C84380   7.038   9.596   6.331  0.8063  0.6005 -0.7830
  626MOL0     C84381   6.913   9.548   6.379  0.6741 -0.2360  0.6395
  626MOL0     C84382   6.799   9.612   6.336  0.6131  0.6968  0.4524
  626MOL0     O84383   6.675   9.560   6.359 -0.3299  0.1638  0.0006
  626MOL0     C84384   6.640   9.569   6.502 -0.3416  0.7661  0.4498
  626MOL0     C84385   6.517   9.484   6.536 -0.2286  0.0235  0.7469
  626MOL0     C84386   6.466   9.492   6.678 -0.0242 -0.5915  0.2359
  626MOL0     C84387   6.332   9.423   6.713 -0.6439 -0.6847  0.4227
  626MOL0     C84388   6.213   9.515   6.673 -0.3943 -0.1414  0.1235
  626MOL0     C84389   6.080   9.453   6.722 -0.1069  0.7669  0.1689
  626MOL0     C84390   5.959   9.550   6.679 -0.6470  0.0453 -0.0074
  626MOL0     C84391   5.823   9.515   6.748 -0.3130  0.8949 -0.9150
  626MOL0     N84392   5.717   9.595   6.687  0.4070 -0.5415  0.7699
  626MOL0     C84393   5.709   9.732   6.694 -0.2256 -0.3074  0.5169
  626MOL0     C84394   5.586   9.764   6.643  0.3257 -0.4105 -0.5373
  626MOL0     C84395   5.526   9.896   6.625  0.3529  0.3459 -0.1073
  626MOL0     C84396   5.458   9.948   6.750 -0.8011 -0.2162  0.4463
  626MOL0     C84397   5.393  10.089   6.733 -0.3120 -0.2083  0.0081
  626MOL0     C84398   5.300  10.103   6.611  0.0204 -0.9419  0.1917
  626MOL0     O84399   5.219  10.225   6.627 -0.1822 -0.2695  0.2890
  626MOL0     C84400   5.108  10.239   6.546 -0.0537 -0.0780  0.6112
  626MOL0     C84401   5.054  10.129   6.479 -0.2423 -0.0480  0.5640
  626MOL0     C84402   4.936  10.138   6.406 -0.3932 -0.1775  0.5477
  626MOL0     C84403   4.886  10.008   6.356  0.3969  0.1657  0.2801
  626MOL0     C84404   4.872  10.263   6.384  0.4555 -0.2270 -1.5499
  626MOL0     C84405   4.752  10.279   6.309  0.4426  0.9829  0.4420
  626MOL0     O84406   4.664  10.377   6.354 -0.0668  0.3220  0.2264
  626MOL0     C84407   4.529  10.394   6.311  0.6263  0.0632 -0.7931
  626MOL0     C84408   4.479  10.518   6.284  1.2967  0.3035  0.1796
  626MOL0     C84409   4.350  10.545   6.228 -0.3164  0.5230 -0.4587
  626MOL0     C84410   4.267  10.440   6.192 -0.1589 -0.3246 -0.6483
  626MOL0     O84411   4.133  10.456   6.152 -0.7549  0.1965 -0.3614
  626MOL0     C84412   4.100  10.414   6.020 -0.1951 -0.2410 -0.0602
  626MOL0     C84413   3.953  10.378   6.001 -0.0218  0.0042 -0.2604
  626MOL0     C84414   3.858  10.483   6.050 -0.3032 -0.2974 -0.0921
  626MOL0     C84415   3.884  10.621   5.987  0.1844 -0.1772 -0.3802
  626MOL0     C84416   3.771  10.726   6.033 -1.0141  0.5195  1.0889
  626MOL0     C84417   3.756  10.731   6.190 -0.4309  0.1905  0.5326
  626MOL0     C84418   3.683  10.863   6.244 -0.0996 -0.2354  0.3928
  626MOL0     C84419   3.616  10.829   6.369 -0.5206  0.7087  0.1898
  626MOL0    Cl84420   3.474  10.722   6.350  0.1341  0.1984  0.5346
  626MOL0     C84421   4.321  10.316   6.210  0.8592  0.2127 -0.4779
  626MOL0     C84422   4.450  10.292   6.265 -0.1022 -0.4783 -0.5036
  626MOL0     O84423   4.728  10.198   6.214 -0.0127  0.0974  0.4378
  626MOL0     C84424   4.925  10.373   6.463 -0.0720 -0.2382  0.6165
  626MOL0     C84425   5.035  10.364   6.542 -1.2709  0.1167 -0.2642
  626MOL0     N84426   5.526   9.652   6.603  0.5345 -0.6291  0.3322
  626MOL0     N84427   5.602   9.549   6.634  0.6423 -0.0621 -1.1155
  626MOL0     C84428   6.810   9.738   6.276  0.5941  0.5147  0.2388
  626MOL0     C84429   6.934   9.785   6.234 -0.1844 -0.8998  0.3724
  626MOL0     C84430   7.355   9.889   6.144 -0.7858 -1.3648 -0.5334
  626MOL0     C84431   7.417  10.018   6.160  0.5022 -0.1595 -0.4980
  626MOL0     C84432   7.552  10.038   6.122 -0.8820  0.9745  0.5497
  626MOL0     C84433   7.634   9.932   6.085  0.5885  0.7589  1.4575
  626MOL0     O84434   7.765   9.951   6.037  0.4831  0.2949  0.5346
  626MOL0     C84435   7.833  10.077   6.045  0.6355 -0.0231 -0.9823
  626MOL0     C84436   7.958  10.062   5.968  0.2469 -0.5651  0.0576
  626MOL0     C84437   7.982  10.171   5.873  0.0774 -0.4466  0.0911
  626MOL0     C84438   8.111  10.174   5.795 -0.8472  0.0081  0.0045
  626MOL0     C84439   8.122  10.289   5.703 -0.9046  0.0848  0.1299
  626MOL0     C84440   8.118  10.377   5.628  0.6826 -0.6235  0.1632
  626MOL0     C84441   7.574   9.807   6.069  0.3600 -0.3310  0.4371
  626MOL0     C84442   7.440   9.781   6.096 -0.0826  0.6312  0.6735
  626MOL0     H84443   7.127   9.542   6.359 -0.5462 -0.4034  1.9937
  626MOL0     H84444   6.911   9.450   6.425  0.3208 -0.9698 -0.8496
  626MOL0     H84445   6.725   9.538   6.564  1.6178  3.2826 -0.8224
  626MOL0     H84446   6.616   9.674   6.522 -0.2017  0.9583 -0.3681
  626MOL0     H84447   6.432   9.505   6.470 -0.9683 -2.4521  0.7964
  626MOL0     H84448   6.545   9.381   6.510  1.2529  0.4016  0.7915
  626MOL0     H84449   6.540   9.445   6.743 -1.2550 -2.4163  0.3730
  626MOL0     H84450   6.451   9.596   6.708 -0.7793 -0.5646 -0.2280
  626MOL0     H84451   6.342   9.323   6.669  0.5827 -1.1760  1.7224
  626MOL0     H84452   6.321   9.406   6.821  0.1362  1.7265  0.9484
  626MOL0     H84453   6.220   9.619   6.703 -0.1335  0.2053 -1.0609
  626MOL0     H84454   6.219   9.514   6.563  1.3591 -0.2182  0.1882
  626MOL0     H84455   6.073   9.355   6.674  1.0818  1.2861 -1.1372
  626MOL0     H84456   6.084   9.447   6.831  1.5991  0.5083  0.1141
  626MOL0     H84457   5.987   9.652   6.706 -2.5174 -0.1682  3.2097
  626MOL0     H84458   5.943   9.537   6.572  0.7857 -0.0482 -0.2332
  626MOL0     H84459   5.820   9.533   6.856 -2.7568  0.8361 -0.9293
  626MOL0     H84460   5.801   9.408   6.741  0.5923  0.5505  0.8263
  626MOL0     H84461   5.787   9.799   6.730 -1.6134  0.9952  1.1729
  626MOL0     H84462   5.604   9.968   6.598  2.7547  0.2875  5.4046
  626MOL0     H84463   5.464   9.890   6.534  3.1476 -0.0106 -2.1268
  626MOL0     H84464   5.532   9.951   6.830  0.0021 -2.8723 -0.1075
  626MOL0     H84465   5.385   9.869   6.770 -2.9526  1.4885 -0.1992
  626MOL0     H84466   5.467  10.170   6.729  0.6437 -0.8747 -6.4273
  626MOL0     H84467   5.329  10.091   6.821  0.7250 -0.3532  0.7850
  626MOL0     H84468   5.244  10.010   6.621  2.9832 -2.7656  1.0485
  626MOL0     H84469   5.361  10.103   6.520 -1.3071  1.4762 -0.8030
  626MOL0     H84470   5.101  10.033   6.498 -0.0820  0.2993  2.0461
  626MOL0     H84471   4.949   9.924   6.387  1.3440  0.7869  0.1095
  626MOL0     H84472   4.784  10.006   6.394  0.6919  0.4236  1.1139
  626MOL0     H84473   4.872  10.010   6.248  0.1206 -0.6524  0.2930
  626MOL0     H84474   4.520  10.611   6.324  0.1891 -0.4928  3.5262
  626MOL0     H84475   4.317  10.648   6.219 -0.1390  0.7749  1.3265
  626MOL0     H84476   4.133  10.488   5.947 -1.8122  1.0599  0.4465
  626MOL0     H84477   4.154  10.322   5.999 -0.7135 -0.4359 -0.5650
  626MOL0     H84478   3.930  10.353   5.897 -2.8627  0.4018  0.1785
  626MOL0     H84479   3.931  10.289   6.061 -0.0352 -0.9864 -1.6845
  626MOL0     H84480   3.877  10.495   6.157 -0.1708 -0.2310 -0.1222
  626MOL0     H84481   3.754  10.452   6.034  0.0991 -1.0585 -1.4670
  626MOL0     H84482   3.976  10.658   6.033 -1.8898  1.2313  3.0482
  626MOL0     H84483   3.886  10.617   5.878 -0.0922 -2.1585 -0.3396
  626MOL0     H84484   3.677  10.696   5.988  0.9282 -0.3085 -2.8456
  626MOL0     H84485   3.783  10.825   5.989 -2.1021  0.8106  1.4329
  626MOL0     H84486   3.702  10.642   6.224  0.5438 -0.0376  1.5314
  626MOL0     H84487   3.854  10.721   6.237 -0.5991 -0.4252  0.7645
  626MOL0     H84488   3.607  10.904   6.177 -0.0175  1.1870  1.1115
  626MOL0     H84489   3.754  10.947   6.237  1.6383 -1.7902 -3.5358
  626MOL0     H84490   3.595  10.919   6.426 -0.6877  1.3318 -0.8213
  626MOL0     H84491   3.686  10.772   6.430 -1.9086  0.3483  1.4955
  626MOL0     H84492   4.269  10.226   6.179  1.7503 -0.8214  0.8873
  626MOL0     H84493   4.480  10.188   6.269  0.5006 -0.2876  0.1533
  626MOL0     H84494   4.869  10.466   6.462 -0.8035 -0.6586  1.2607
  626MOL0     H84495   5.081  10.443   6.600 -0.6214 -0.6907  0.3580
  626MOL0     H84496   6.724   9.800   6.252 -0.7569 -1.2332  0.3379
  626MOL0     H84497   6.946   9.884   6.190  0.1522 -1.8006 -1.6633
  626MOL0     H84498   7.358  10.102   6.196  1.6247  0.8330 -0.8963
  626MOL0     H84499   7.590  10.139   6.118  3.9068 -0.6267 -2.3240
  626MOL0     H84500   7.780  10.166   6.011  0.4955  0.5630  0.6466
  626MOL0     H84501   7.862  10.102   6.148 -0.3831  0.4565 -0.8031
  626MOL0     H84502   7.969   9.962   5.925  1.1938  0.4929 -2.2976
  626MOL0     H84503   8.030  10.084   6.048 -0.7386 -0.5562  0.9731
  626MOL0     H84504   7.963  10.264   5.927 -2.0639 -0.5872 -0.3586
  626MOL0     H84505   7.910  10.149   5.794  0.8137 -3.0317  0.0419
  626MOL0     H84506   8.111  10.081   5.738  0.3451  0.3601 -0.6150
  626MOL0     H84507   8.194  10.166   5.866 -0.9215 -1.9199 -0.0830
  626MOL0     H84508   8.109  10.465   5.567  1.3262  0.0035  0.9572
  626MOL0     H84509   7.636   9.724   6.037  1.3799  0.3322  0.6462
  626MOL0     H84510   7.410   9.676   6.094  1.3418  0.2119  0.0462
  627MOL0     O84511   5.836   8.973   2.929 -0.2440  0.2377 -0.2177
  627MOL0     C84512   5.858   9.093   2.914  0.5407  0.1207 -0.1548
  627MOL0     O84513   5.764   9.186   2.925  0.3179  0.2237 -0.2439
  627MOL0     C84514   5.636   9.152   2.896  0.3488  0.3133 -0.0252
  627MOL0     C84515   5.590   9.129   2.766  0.1346 -0.0942  0.7063
  627MOL0     C84516   5.450   9.112   2.740  0.1867 -0.5022  0.1810
  627MOL0     C84517   5.359   9.109   2.857 -1.1728  0.5533  0.3743
  627MOL0     O84518   5.223   9.099   2.848  0.5051  0.1029  0.1904
  627MOL0     C84519   5.153   9.130   2.730 -0.1947 -0.1255  0.3947
  627MOL0     C84520   5.007   9.111   2.772 -0.9911 -0.7915  0.5983
  627MOL0     C84521   4.917   9.094   2.645 -0.8415 -0.1031 -0.7622
  627MOL0     C84522   4.788   9.173   2.651 -0.5812 -0.5579 -0.4494
  627MOL0     C84523   4.810   9.323   2.672  0.3248 -0.6293 -0.4822
  627MOL0     C84524   4.678   9.395   2.649 -0.3836 -0.1220  0.1038
  627MOL0     C84525   4.703   9.549   2.655  0.3070  0.2781 -0.4769
  627MOL0     C84526   4.593   9.616   2.736 -0.5679 -0.6524 -0.9662
  627MOL0     N84527   4.470   9.628   2.659  0.5015 -0.5787 -0.3255
  627MOL0     C84528   4.350   9.697   2.689 -0.2361  0.9001 -0.3633
  627MOL0     C84529   4.254   9.661   2.600  0.3171 -0.2704 -0.7386
  627MOL0     C84530   4.125   9.738   2.606 -0.1702  0.3295  0.0369
  627MOL0     C84531   4.003   9.656   2.663 -1.2579 -0.0871  0.0179
  627MOL0     C84532   3.880   9.754   2.673  0.4509  0.0569 -0.0450
  627MOL0     C84533   3.739   9.696   2.713 -0.5543  0.1165  0.4915
  627MOL0     O84534   3.659   9.684   2.595 -0.1723 -0.2976 -0.0692
  627MOL0     C84535   3.524   9.647   2.613  0.0503 -0.1638 -0.6873
  627MOL0     C84536   3.439   9.692   2.524  0.6688 -0.4133 -0.1042
  627MOL0     C84537   3.300   9.689   2.537 -1.0781 -0.2836 -0.6935
  627MOL0     C84538   3.217   9.774   2.450 -0.4240 -0.2852 -0.6324
  627MOL0     C84539   3.248   9.629   2.652  0.3171  0.1562  0.3185
  627MOL0     C84540   3.101   9.634   2.693  0.0432  0.0962 -0.1479
  627MOL0     O84541   3.060   9.551   2.797 -0.0390  0.1309  0.1959
  627MOL0     C84542   2.925   9.542   2.815  0.0597 -0.4646 -0.0943
  627MOL0     C84543   2.851   9.642   2.887 -0.9591 -0.0341 -0.8719
  627MOL0     C84544   2.713   9.620   2.891  0.5622  0.4746 -1.1327
  627MOL0     C84545   2.642   9.505   2.827  0.1740  0.6860  0.3011
  627MOL0     O84546   2.508   9.470   2.849  0.9436 -0.0460  0.1370
  627MOL0     C84547   2.457   9.481   2.984  0.1720  0.3656 -0.5518
  627MOL0     C84548   2.348   9.376   2.994 -0.3300  1.3133  0.0951
  627MOL0     C84549   2.263   9.391   3.128 -0.2706 -0.0386  0.7598
  627MOL0     C84550   2.175   9.272   3.133 -0.1071  0.6553 -0.2790
  627MOL0     C84551   2.080   9.282   3.264 -1.1542  0.0431  0.1968
  627MOL0     C84552   2.041   9.138   3.307 -0.8362 -0.1044 -0.3254
  627MOL0     C84553   1.922   9.156   3.411 -0.1239  0.7170  0.0694
  627MOL0     C84554   1.883   9.026   3.487  0.5681 -0.3452  0.3800
  627MOL0    Cl84555   1.786   8.912   3.386 -0.1123 -0.1039  0.1615
  627MOL0     C84556   2.718   9.413   2.757 -0.6681 -0.2447 -0.3294
  627MOL0     C84557   2.856   9.441   2.742  0.2749  0.8315 -0.0719
  627MOL0     O84558   3.028   9.715   2.639  0.1350 -0.3729 -0.4894
  627MOL0     C84559   3.334   9.577   2.746 -0.4086  0.5163 -1.0358
  627MOL0     C84560   3.469   9.594   2.732 -0.8467 -0.4352 -0.4732
  627MOL0     N84561   4.306   9.559   2.527 -0.3207  0.1939  0.3326
  627MOL0     N84562   4.433   9.538   2.556 -0.3373 -0.6735  0.4179
  627MOL0     C84563   5.415   9.120   2.984 -0.6609 -0.1511  0.0780
  627MOL0     C84564   5.549   9.145   3.000 -0.1565 -0.0672 -1.1218
  627MOL0     C84565   5.993   9.142   2.879 -0.2796 -0.7703 -0.3846
  627MOL0     C84566   6.019   9.283   2.852  1.2517  0.5202 -0.0925
  627MOL0     C84567   6.140   9.329   2.822 -0.3737 -0.1170 -0.2726
  627MOL0     C84568   6.250   9.242   2.815  0.6171  0.3891  0.3384
  627MOL0     O84569   6.370   9.284   2.768 -0.8966  0.3592  0.2774
  627MOL0     C84570   6.480   9.196   2.729  0.4971 -0.0350  0.0354
  627MOL0     C84571   6.591   9.293   2.688  0.1232  0.5889 -0.2851
  627MOL0     C84572   6.715   9.205   2.653  0.0602 -0.5570 -0.3170
  627MOL0     C84573   6.837   9.289   2.590  0.0307  0.4532  0.8159
  627MOL0     C84574   6.914   9.363   2.696  0.2079 -0.3661 -0.5978
  627MOL0     C84575   6.984   9.412   2.781  0.2065 -0.8583  0.2416
  627MOL0     C84576   6.232   9.107   2.852  0.3419  0.3089 -0.0086
  627MOL0     C84577   6.106   9.057   2.885  0.3155  0.1092 -0.1880
  627MOL0     H84578   5.651   9.124   2.676  0.9814 -1.8853  1.3227
  627MOL0     H84579   5.403   9.092   2.644 -3.0344 -0.5594  1.6263
  627MOL0     H84580   5.174   9.233   2.701 -0.0089  0.2946  1.9485
  627MOL0     H84581   5.173   9.058   2.650 -1.2503  1.1076 -1.0284
  627MOL0     H84582   5.009   9.027   2.841  1.5003 -0.9153  0.4481
  627MOL0     H84583   4.972   9.196   2.831 -1.9463 -0.7776  0.0455
  627MOL0     H84584   4.968   9.127   2.555 -0.4924  0.2349 -0.4454
  627MOL0     H84585   4.911   8.986   2.627 -0.7379 -0.5265  1.3900
  627MOL0     H84586   4.720   9.149   2.569 -0.5782 -1.8415 -0.0881
  627MOL0     H84587   4.731   9.136   2.736 -1.0933 -1.3930 -1.1511
  627MOL0     H84588   4.844   9.355   2.771 -1.4282 -3.0751  1.0212
  627MOL0     H84589   4.885   9.369   2.607  1.1862 -2.4133 -0.8232
  627MOL0     H84590   4.646   9.370   2.547 -2.4101 -3.1455  1.3373
  627MOL0     H84591   4.604   9.369   2.726 -2.2961  4.5192  0.1725
  627MOL0     H84592   4.795   9.563   2.712 -1.5632 -0.4513  2.9991
  627MOL0     H84593   4.714   9.593   2.555 -0.1630  0.3643 -0.4936
  627MOL0     H84594   4.618   9.717   2.770 -1.5651 -0.3403 -1.1380
  627MOL0     H84595   4.580   9.556   2.826 -1.5638 -0.1358 -0.7607
  627MOL0     H84596   4.348   9.779   2.760 -1.0473  1.6493 -1.2214
  627MOL0     H84597   4.136   9.834   2.657 -0.7419  0.7218 -0.5676
  627MOL0     H84598   4.099   9.756   2.501 -1.1255  2.9666  0.6333
  627MOL0     H84599   4.019   9.615   2.763 -1.9865 -1.2538 -0.3141
  627MOL0     H84600   3.963   9.578   2.597 -0.0489 -0.9470  0.2840
  627MOL0     H84601   3.866   9.805   2.577  2.7842 -0.3151 -0.6537
  627MOL0     H84602   3.908   9.836   2.740  1.2264  1.2175 -1.7357
  627MOL0     H84603   3.701   9.756   2.796  0.8350  1.0664  0.4786
  627MOL0     H84604   3.751   9.595   2.753 -0.2955  0.4320  1.2206
  627MOL0     H84605   3.494   9.748   2.448  3.7493 -1.2502  1.3598
  627MOL0     H84606   3.271   9.811   2.362  1.1575 -1.5990 -0.2645
  627MOL0     H84607   3.123   9.729   2.417  0.5926 -2.3564 -0.8466
  627MOL0     H84608   3.189   9.863   2.508  1.4081 -0.2811  0.3014
  627MOL0     H84609   2.900   9.726   2.934  0.5950 -0.1361 -2.2365
  627MOL0     H84610   2.650   9.697   2.935  3.5123  1.5846  1.4391
  627MOL0     H84611   2.536   9.458   3.056 -0.6128  0.0678  0.2262
  627MOL0     H84612   2.421   9.581   3.006 -1.7530 -0.6801  1.3666
  627MOL0     H84613   2.283   9.375   2.907 -2.4730 -2.3954  1.5066
  627MOL0     H84614   2.393   9.277   2.989 -1.2787  0.9408 -3.8303
  627MOL0     H84615   2.202   9.482   3.133 -2.4597 -1.4139  0.4078
  627MOL0     H84616   2.323   9.396   3.220 -0.8202 -0.6732  1.1600
  627MOL0     H84617   2.113   9.273   3.043 -0.0738  0.3086 -0.3062
  627MOL0     H84618   2.241   9.186   3.146 -0.8067  0.1514  0.0152
  627MOL0     H84619   1.983   9.325   3.237 -1.4954 -1.5013 -1.1464
  627MOL0     H84620   2.125   9.336   3.348  1.0399 -1.1706 -0.1261
  627MOL0     H84621   2.010   9.075   3.223 -0.0933 -0.0492 -0.6489
  627MOL0     H84622   2.124   9.083   3.351 -1.4641 -1.6482 -1.0060
  627MOL0     H84623   1.830   9.193   3.365 -0.2589 -0.6319 -0.7809
  627MOL0     H84624   1.952   9.219   3.496  0.5509 -0.5688  0.8215
  627MOL0     H84625   1.814   9.054   3.568 -1.5291 -1.7852 -0.8052
  627MOL0     H84626   1.973   8.979   3.526  2.4024 -0.7453 -3.8212
  627MOL0     H84627   2.672   9.326   2.711 -1.7193 -0.0886  0.3711
  627MOL0     H84628   2.908   9.370   2.679 -1.9146 -0.7645 -0.1717
  627MOL0     H84629   3.294   9.546   2.842 -0.7005  1.5586 -0.8132
  627MOL0     H84630   3.543   9.567   2.807  0.0839  0.5694 -0.9917
  627MOL0     H84631   5.349   9.111   3.069  2.3469 -1.8950  2.4401
  627MOL0     H84632   5.590   9.164   3.098 -1.0736  1.9237 -1.0715
  627MOL0     H84633   5.938   9.354   2.861  0.1248 -0.7061 -0.2525
  627MOL0     H84634   6.157   9.434   2.805 -0.4498  0.0373  0.5681
  627MOL0     H84635   6.512   9.131   2.811  0.6327  1.8845  1.5801
  627MOL0     H84636   6.456   9.140   2.638  2.1711 -1.4869  0.4351
  627MOL0     H84637   6.615   9.353   2.776  1.0565  0.0699 -0.1780
  627MOL0     H84638   6.563   9.356   2.603 -0.0280  1.6969  0.5691
  627MOL0     H84639   6.691   9.128   2.579 -1.0046  0.1609 -0.7379
  627MOL0     H84640   6.758   9.158   2.742 -1.7581 -1.0878  0.3353
  627MOL0     H84641   6.796   9.369   2.527 -0.7071 -1.1513 -0.8617
  627MOL0     H84642   6.891   9.224   2.521  0.0642 -1.0698  2.1956
  627MOL0     H84643   7.047   9.470   2.844  1.9619  0.2949 -2.3824
  627MOL0     H84644   6.311   9.033   2.853  3.1034  3.0646  0.6403
  627MOL0     H84645   6.088   8.956   2.921 -2.1081  0.0096 -1.4146
  628MOL0     O84646   3.089   2.203  11.049  0.6966  0.5482  0.0829
  628MOL0     C84647   3.052   2.317  11.016 -0.2366  0.0174 -0.0273
  628MOL0     O84648   2.920   2.357  11.018 -0.6867 -0.1721  0.2174
  628MOL0     C84649   2.831   2.293  11.099  0.4356 -0.0445  0.5932
  628MOL0     C84650   2.701   2.271  11.048  0.5190  0.3057  0.3210
  628MOL0     C84651   2.603   2.195  11.117 -0.8557 -0.8566  0.0869
  628MOL0     C84652   2.646   2.144  11.243  0.1206  0.8079 -0.6279
  628MOL0     O84653   2.555   2.072  11.316 -0.6477 -0.0804 -0.3557
  628MOL0     C84654   2.430   2.149  11.340  0.8215  0.8850 -1.1846
  628MOL0     C84655   2.353   2.081  11.457  0.1648  0.3463 -1.0710
  628MOL0     C84656   2.298   1.950  11.418  0.6643  0.2374 -0.4560
  628MOL0     C84657   2.208   1.895  11.528  0.1564 -0.6543  0.5142
  628MOL0     C84658   2.156   1.758  11.482 -0.7345 -0.5646  0.0818
  628MOL0     C84659   2.036   1.709  11.571  0.6185 -0.3178 -0.0794
  628MOL0     C84660   1.972   1.584  11.503  0.7050  0.2670 -0.5151
  628MOL0     C84661   1.836   1.545  11.566 -0.0556  0.0782  0.3064
  628MOL0     N84662   1.726   1.642  11.560  0.4086 -0.7190 -0.0388
  628MOL0     C84663   1.647   1.675  11.450 -0.0520  0.1797  0.1685
  628MOL0     C84664   1.575   1.776  11.494  0.3672  0.4743  0.2482
  628MOL0     C84665   1.457   1.850  11.421 -0.2455 -0.0318 -0.0583
  628MOL0     C84666   1.393   1.964  11.504 -1.1226  0.3288  0.5204
  628MOL0     C84667   1.288   2.046  11.422 -0.0608  0.8526 -0.5934
  628MOL0     C84668   1.161   1.967  11.398 -0.7034  0.8537 -0.2005
  628MOL0     O84669   1.079   2.043  11.308  0.1611  0.5298  0.0713
  628MOL0     C84670   0.981   1.984  11.238  0.4708  0.3156  0.5074
  628MOL0     C84671   0.928   2.063  11.131  0.0477 -0.4724 -0.5280
  628MOL0     C84672   0.808   2.021  11.059  0.1775  0.4947  0.3561
  628MOL0     C84673   0.750   2.105  10.950  0.4559  0.8082  0.5705
  628MOL0     C84674   0.744   1.897  11.093 -0.8365 -0.7093  0.9046
  628MOL0     C84675   0.624   1.839  11.028 -0.0296  0.0750  0.2336
  628MOL0     O84676   0.544   1.908  10.947  0.4916 -0.2162  0.6289
  628MOL0     C84677   0.416   1.868  10.927  0.7959  0.6328  0.2367
  628MOL0     C84678   0.379   1.745  10.866 -0.2808  0.3721  0.4417
  628MOL0     C84679   0.244   1.711  10.853 -0.9629 -0.5043  0.1474
  628MOL0     C84680   0.148   1.793  10.909  1.0613 -0.5369 -0.0692
  628MOL0     O84681   0.016   1.758  10.896 -0.3887  0.4899  0.1539
  628MOL0     C84682  -0.098   1.848  10.939  0.5160  0.3704 -0.4299
  628MOL0     C84683  -0.225   1.766  10.925  0.2618  1.0635 -0.6549
  628MOL0     C84684  -0.324   1.811  11.032  0.6480  0.6040  0.1998
  628MOL0     C84685  -0.458   1.740  11.004 -0.4991 -0.0786 -0.0572
  628MOL0     C84686  -0.575   1.813  11.087  0.8219  0.6128 -0.1374
  628MOL0     C84687  -0.707   1.739  11.047  0.4677  0.4271 -0.6248
  628MOL0     C84688  -0.829   1.799  11.125  0.2044  0.1059  0.3098
  628MOL0     C84689  -0.879   1.939  11.092 -0.1947  0.5294 -0.6595
  628MOL0    Cl84690  -1.010   1.975  11.204 -0.1275 -0.5726  0.0725
  628MOL0     C84691   0.176   1.913  10.970 -0.6579  0.2068 -0.2723
  628MOL0     C84692   0.314   1.952  10.982 -0.8717  0.5421 -0.1405
  628MOL0     O84693   0.606   1.719  11.059  0.2476  0.0175  0.3810
  628MOL0     C84694   0.811   1.819  11.190  0.3447  0.8198 -0.2354
  628MOL0     C84695   0.931   1.862  11.260  0.7347  0.3343 -0.1433
  628MOL0     N84696   1.614   1.810  11.620  0.1484  0.3982  0.1679
  628MOL0     N84697   1.693   1.723  11.670 -0.1566  0.6607  0.2635
  628MOL0     C84698   2.770   2.163  11.297  0.2150 -0.3740  0.1140
  628MOL0     C84699   2.865   2.233  11.221  0.5261  0.7292 -0.6752
  628MOL0     C84700   3.148   2.412  10.951 -0.0681 -0.7713  0.9970
  628MOL0     C84701   3.107   2.537  10.904  0.4826 -0.9905 -0.1920
  628MOL0     C84702   3.194   2.629  10.837  0.5050  0.8894 -0.2577
  628MOL0     C84703   3.330   2.590  10.811  1.1250 -0.3388  0.0767
  628MOL0     O84704   3.420   2.661  10.735 -0.5201  0.2765 -0.3119
  628MOL0     C84705   3.409   2.804  10.733 -0.3361 -1.5058 -0.0425
  628MOL0     C84706   3.540   2.856  10.703  0.0038 -0.2034  0.6839
  628MOL0     C84707   3.655   2.819  10.806  0.2638 -0.0479 -0.2146
  628MOL0     C84708   3.787   2.820  10.747 -0.3059 -0.8211  0.7843
  628MOL0     C84709   3.890   2.765  10.839  0.2091 -0.2982  0.5261
  628MOL0     C84710   3.971   2.719  10.917  0.0448 -0.0540 -0.2702
  628MOL0     C84711   3.373   2.459  10.844  0.1425  0.5142  0.4467
  628MOL0     C84712   3.284   2.377  10.916  0.4490  0.2142 -0.0471
  628MOL0     H84713   2.681   2.312  10.949 -0.0622  1.4262  0.8893
  628MOL0     H84714   2.506   2.205  11.070 -1.3878  3.3433  1.6110
  628MOL0     H84715   2.450   2.253  11.367  1.6576 -0.0083  2.1163
  628MOL0     H84716   2.360   2.152  11.257 -2.0087 -1.4435  0.8913
  628MOL0     H84717   2.425   2.070  11.539 -2.2772  0.0404  1.1580
  628MOL0     H84718   2.276   2.143  11.505  2.0390  1.1276  1.1412
  628MOL0     H84719   2.232   1.955  11.331  1.2021  0.7873 -0.8344
  628MOL0     H84720   2.378   1.880  11.394  1.0401  0.4826  0.0715
  628MOL0     H84721   2.257   1.894  11.626 -1.4040  3.3540  1.5142
  628MOL0     H84722   2.134   1.974  11.536  1.3967  0.8113 -1.5413
  628MOL0     H84723   2.129   1.767  11.376 -1.0776 -2.6770 -0.0629
  628MOL0     H84724   2.240   1.689  11.495 -1.0590 -0.8112  1.0185
  628MOL0     H84725   2.073   1.692  11.672  0.7876 -0.1296 -0.1094
  628MOL0     H84726   1.970   1.795  11.586  0.8311 -0.1330 -0.2067
  628MOL0     H84727   1.948   1.600  11.397  0.6747  0.5833 -0.4628
  628MOL0     H84728   2.049   1.507  11.509  2.2318  1.7968  0.5747
  628MOL0     H84729   1.857   1.526  11.671 -1.0570 -1.7955  0.2191
  628MOL0     H84730   1.812   1.449  11.519 -2.1345 -1.5322  4.1771
  628MOL0     H84731   1.641   1.626  11.353  0.0393 -0.5410  0.5140
  628MOL0     H84732   1.487   1.895  11.326  1.8932 -1.6708 -0.2256
  628MOL0     H84733   1.387   1.769  11.402  0.6165 -0.3638 -2.0168
  628MOL0     H84734   1.480   2.025  11.532  0.7640 -1.2780 -1.5002
  628MOL0     H84735   1.346   1.911  11.587  0.1790 -2.6844 -0.5453
  628MOL0     H84736   1.336   2.062  11.325  1.5491 -0.1109  0.0151
  628MOL0     H84737   1.258   2.142  11.463  2.0039  0.4037  2.2492
  628MOL0     H84738   1.116   1.948  11.496  1.0254  1.3437  0.7422
  628MOL0     H84739   1.184   1.868  11.357 -0.4718 -0.1222  2.1358
  628MOL0     H84740   0.983   2.154  11.109  2.3655 -1.9903 -1.4467
  628MOL0     H84741   0.737   2.050  10.856 -1.0526  1.0149  0.6443
  628MOL0     H84742   0.661   2.157  10.985 -0.2112  0.9917 -1.2795
  628MOL0     H84743   0.820   2.181  10.914  0.8154  0.4920  0.5944
  628MOL0     H84744   0.460   1.678  10.841 -0.1892  0.2067  1.1730
  628MOL0     H84745   0.218   1.624  10.794 -0.3902  1.7672 -3.8858
  628MOL0     H84746  -0.081   1.878  11.043  2.4519 -0.3844 -0.4882
  628MOL0     H84747  -0.105   1.937  10.876 -0.5188  0.7097  0.1247
  628MOL0     H84748  -0.267   1.773  10.824 -0.8914  0.9064 -0.2019
  628MOL0     H84749  -0.202   1.659  10.928 -0.4506  0.8982 -0.7728
  628MOL0     H84750  -0.329   1.921  11.029 -1.5357  0.5190 -1.3732
  628MOL0     H84751  -0.282   1.777  11.127  2.0681 -2.3107 -1.3447
  628MOL0     H84752  -0.486   1.743  10.899 -0.2987 -3.5085 -0.3111
  628MOL0     H84753  -0.463   1.635  11.033 -0.6993 -0.6817 -2.1137
  628MOL0     H84754  -0.588   1.921  11.070 -1.0364  0.6123  0.9834
  628MOL0     H84755  -0.559   1.799  11.194 -0.4387 -2.7101 -0.2656
  628MOL0     H84756  -0.721   1.748  10.939  2.5170 -0.3857 -1.0091
  628MOL0     H84757  -0.687   1.634  11.071 -0.5801  0.4541  0.4508
  628MOL0     H84758  -0.801   1.795  11.231 -0.1643 -3.9458  0.3936
  628MOL0     H84759  -0.906   1.724  11.107  0.2600  0.1566 -0.1514
  628MOL0     H84760  -0.913   1.933  10.988 -0.0864  2.7836 -0.8765
  628MOL0     H84761  -0.807   2.021  11.096 -1.2415  1.6975 -3.2809
  628MOL0     H84762   0.095   1.982  10.992 -0.0286  1.8412 -2.6129
  628MOL0     H84763   0.340   2.040  11.040  2.8119 -0.0968 -0.5511
  628MOL0     H84764   0.783   1.717  11.215  0.8706  0.5596 -0.6867
  628MOL0     H84765   0.979   1.795  11.331 -1.1151 -2.4020 -1.2574
  628MOL0     H84766   2.794   2.114  11.391  1.9128  1.5657  0.7746
  628MOL0     H84767   2.964   2.258  11.257  0.7173  0.3784 -0.9525
  628MOL0     H84768   3.004   2.569  10.912  0.6657 -0.7074  1.2241
  628MOL0     H84769   3.150   2.722  10.802 -1.0188 -0.4498 -2.1476
  628MOL0     H84770   3.340   2.831  10.652 -0.1745  3.5553  1.1599
  628MOL0     H84771   3.377   2.852  10.826  0.7340  0.6475 -0.7235
  628MOL0     H84772   3.525   2.964  10.710  0.8995 -0.1387  1.7223
  628MOL0     H84773   3.569   2.823  10.603 -0.5238  0.5268  0.2825
  628MOL0     H84774   3.642   2.718  10.847 -2.3290 -0.3988 -1.6328
  628MOL0     H84775   3.633   2.891  10.885 -0.1455  2.0776 -2.1636
  628MOL0     H84776   3.806   2.923  10.714 -0.0836 -0.7464  1.1474
  628MOL0     H84777   3.792   2.759  10.656  1.7568 -0.0606  0.3279
  628MOL0     H84778   4.024   2.653  10.982 -0.8379 -1.2046 -0.6631
  628MOL0     H84779   3.466   2.403  10.839  0.3344  0.4931  2.8828
  628MOL0     H84780   3.320   2.280  10.950  0.8799 -0.1864 -1.5424
  629MOL0     O84781   9.647   6.607   7.041 -0.0633  0.5425 -0.2709
  629MOL0     C84782   9.693   6.558   6.937  0.5999  0.3767  0.6346
  629MOL0     O84783   9.618   6.519   6.826 -0.0020  0.0273  0.3963
  629MOL0     C84784   9.491   6.565   6.818  0.0382  0.0756  0.3688
  629MOL0     C84785   9.398   6.524   6.917 -0.6265  0.1519  0.5394
  629MOL0     C84786   9.274   6.592   6.912  0.6613 -0.3848 -0.0259
  629MOL0     C84787   9.241   6.699   6.822  0.1984  0.9838  0.3098
  629MOL0     O84788   9.109   6.740   6.814 -0.4414  0.0048 -0.7807
  629MOL0     C84789   9.091   6.876   6.778  0.2106  0.6841 -0.2673
  629MOL0     C84790   8.948   6.882   6.726  0.3857  0.2396 -0.1942
  629MOL0     C84791   8.855   6.908   6.847  0.3552 -0.0837 -0.0036
  629MOL0     C84792   8.710   6.900   6.807  0.4428 -0.1113 -0.0997
  629MOL0     C84793   8.657   7.039   6.764 -0.0511  0.5899 -0.4147
  629MOL0     C84794   8.517   7.035   6.696  0.9896  0.2885 -0.0198
  629MOL0     C84795   8.466   7.176   6.683  1.5110 -0.0572 -0.1140
  629MOL0     C84796   8.332   7.188   6.612  0.2945 -0.2087 -0.7045
  629MOL0     N84797   8.218   7.165   6.707  0.2019 -0.3015  0.0690
  629MOL0     C84798   8.195   7.236   6.821  0.0720  0.2281  0.4558
  629MOL0     C84799   8.069   7.206   6.856  0.0909 -0.6640  1.1724
  629MOL0     C84800   7.989   7.268   6.965 -0.0945  0.1624 -0.1590
  629MOL0     C84801   7.902   7.162   7.047 -0.1728 -0.2338  0.3027
  629MOL0     C84802   7.760   7.148   6.986  0.0849  0.1474  0.0982
  629MOL0     C84803   7.669   7.268   7.011  0.3514 -0.7658 -1.0910
  629MOL0     O84804   7.533   7.245   6.980  0.3881  0.3531  0.3947
  629MOL0     C84805   7.425   7.307   7.041 -0.9341  0.0801 -1.2035
  629MOL0     C84806   7.417   7.329   7.181  0.2071 -0.5540 -0.5160
  629MOL0     C84807   7.298   7.366   7.248  1.0507 -0.6131 -0.0957
  629MOL0     C84808   7.295   7.387   7.398 -0.1349 -0.0375  0.5697
  629MOL0     C84809   7.176   7.385   7.175  0.1804 -0.5206  0.1028
  629MOL0     C84810   7.044   7.435   7.221  0.3515 -0.2295 -0.2465
  629MOL0     O84811   6.968   7.498   7.128 -0.4590  0.0780  0.5574
  629MOL0     C84812   6.846   7.560   7.143  0.1584  0.5211 -0.7292
  629MOL0     C84813   6.824   7.672   7.066  0.0576 -0.5677  0.7127
  629MOL0     C84814   6.704   7.736   7.080 -0.0854  0.1524 -0.4446
  629MOL0     C84815   6.598   7.690   7.160  0.4011 -1.3190  0.8955
  629MOL0     O84816   6.468   7.736   7.170 -0.4725  0.5813 -0.3219
  629MOL0     C84817   6.433   7.856   7.109 -0.0236 -0.2322 -0.5633
  629MOL0     C84818   6.309   7.898   7.201 -0.3098 -0.1809 -0.7532
  629MOL0     C84819   6.188   7.806   7.163  0.4022 -0.4037  0.2453
  629MOL0     C84820   6.062   7.833   7.243 -0.3625  0.0219 -0.1229
  629MOL0     C84821   6.057   7.775   7.385 -0.1329  0.2316 -0.2355
  629MOL0     C84822   5.934   7.821   7.462 -0.0470 -0.0316  0.1535
  629MOL0     C84823   5.919   7.738   7.594 -1.4101 -0.6251 -0.6540
  629MOL0     C84824   5.794   7.769   7.665 -0.4192 -0.0851 -0.1199
  629MOL0    Cl84825   5.773   7.938   7.674  0.2068  0.2418  0.2784
  629MOL0     C84826   6.624   7.578   7.234  0.0066 -0.1277  0.5006
  629MOL0     C84827   6.746   7.516   7.233 -0.5354 -0.3647 -0.8925
  629MOL0     O84828   7.011   7.402   7.335 -0.5279 -0.0209 -0.0276
  629MOL0     C84829   7.195   7.372   7.036 -0.0356 -0.8308  0.5894
  629MOL0     C84830   7.303   7.316   6.977 -0.8582  0.3419  0.7807
  629MOL0     N84831   8.032   7.101   6.780  0.5196 -0.2919 -0.5965
  629MOL0     N84832   8.117   7.084   6.687  0.0208 -0.3806 -0.2226
  629MOL0     C84833   9.337   6.717   6.723 -0.4201 -0.3832 -0.8041
  629MOL0     C84834   9.464   6.654   6.723  0.3718  0.3700  1.4675
  629MOL0     C84835   9.838   6.535   6.931 -0.7912 -0.0190  0.4985
  629MOL0     C84836   9.913   6.563   7.040 -0.0010  0.1259 -0.5559
  629MOL0     C84837  10.053   6.546   7.032 -0.0118 -0.8538  0.2304
  629MOL0     C84838  10.118   6.491   6.930 -0.3780 -0.2757  0.3835
  629MOL0     O84839  10.249   6.471   6.958  1.3461  0.0347 -0.8522
  629MOL0     C84840  10.338   6.443   6.852 -0.8042 -0.4124  0.5721
  629MOL0     C84841  10.483   6.432   6.907 -0.1190  0.6508 -0.1624
  629MOL0     C84842  10.516   6.305   6.990 -0.0006  0.5790  0.0883
  629MOL0     C84843  10.661   6.325   7.040 -0.4400  0.1006  0.2624
  629MOL0     C84844  10.725   6.204   7.091 -0.5274  0.4952 -0.1023
  629MOL0     C84845  10.783   6.104   7.130 -0.0821 -0.3389 -0.7442
  629MOL0     C84846  10.047   6.459   6.815  0.2078  0.0386 -0.2662
  629MOL0     C84847   9.907   6.482   6.821 -0.3787 -0.1269  0.4443
  629MOL0     H84848   9.424   6.445   6.986  2.3110  1.3358  0.9001
  629MOL0     H84849   9.187   6.558   6.968  0.1408 -2.2537 -1.8244
  629MOL0     H84850   9.088   6.949   6.860 -1.7604  0.8053 -0.3926
  629MOL0     H84851   9.154   6.922   6.701 -1.3459  3.0550 -0.2490
  629MOL0     H84852   8.952   6.973   6.665  2.4482  1.7015  1.9523
  629MOL0     H84853   8.926   6.790   6.670 -0.3737  2.1520 -3.2723
  629MOL0     H84854   8.880   6.831   6.921 -1.4881 -2.7823 -1.9941
  629MOL0     H84855   8.877   7.005   6.893 -2.6183  1.0948 -0.8367
  629MOL0     H84856   8.704   6.838   6.717 -0.5276 -1.6461  0.9726
  629MOL0     H84857   8.653   6.861   6.892  1.5850 -1.8635 -0.0849
  629MOL0     H84858   8.653   7.110   6.847 -2.1774 -1.0044  0.9333
  629MOL0     H84859   8.718   7.069   6.678 -0.7677  1.6244 -0.5847
  629MOL0     H84860   8.518   6.990   6.596 -0.9325 -0.5346  0.3056
  629MOL0     H84861   8.455   6.974   6.761 -0.2740 -0.0612 -1.4980
  629MOL0     H84862   8.465   7.226   6.781  2.3996 -1.2093  0.5088
  629MOL0     H84863   8.527   7.228   6.609 -1.1857  1.2804 -1.5238
  629MOL0     H84864   8.330   7.112   6.533  3.5349 -2.7731  1.3717
  629MOL0     H84865   8.309   7.288   6.575 -0.8659  0.2741  1.1504
  629MOL0     H84866   8.249   7.322   6.858 -0.2917  0.4955  0.3756
  629MOL0     H84867   8.050   7.327   7.034  0.0709  0.3760 -0.4890
  629MOL0     H84868   7.928   7.346   6.921  0.6442  2.2952  2.3172
  629MOL0     H84869   7.890   7.201   7.149 -2.9535  1.0917 -0.4366
  629MOL0     H84870   7.962   7.071   7.059  3.8952  2.1871  0.1709
  629MOL0     H84871   7.706   7.067   7.035 -2.0356  0.8592 -0.9375
  629MOL0     H84872   7.771   7.126   6.879  5.8072  0.2329  0.3678
  629MOL0     H84873   7.709   7.355   6.957  2.7016 -0.7341  0.5496
  629MOL0     H84874   7.684   7.295   7.116  1.5643  0.2591 -1.4932
  629MOL0     H84875   7.505   7.306   7.241 -0.2715 -1.4014 -0.1244
  629MOL0     H84876   7.242   7.473   7.438 -2.9228 -0.5042 -1.7592
  629MOL0     H84877   7.263   7.295   7.448 -1.0802  0.3935  0.7861
  629MOL0     H84878   7.400   7.387   7.427  0.4620 -2.7193 -1.1858
  629MOL0     H84879   6.893   7.707   6.990 -2.5425  1.0506 -1.1040
  629MOL0     H84880   6.679   7.821   7.018  0.5913  0.6626 -0.0213
  629MOL0     H84881   6.509   7.933   7.122  1.1518 -1.5652  0.9462
  629MOL0     H84882   6.404   7.838   7.006 -1.5804 -0.2501 -0.1517
  629MOL0     H84883   6.336   7.896   7.307 -2.3918 -0.7917 -0.1980
  629MOL0     H84884   6.283   8.001   7.175  1.7710  0.6530  0.2055
  629MOL0     H84885   6.219   7.702   7.162 -1.2067 -0.9087 -0.5626
  629MOL0     H84886   6.164   7.834   7.060  2.5880 -5.3067 -1.9198
  629MOL0     H84887   6.061   7.940   7.261  1.5049  0.5563 -2.5944
  629MOL0     H84888   5.974   7.802   7.185 -0.4688  0.0308  0.0345
  629MOL0     H84889   6.153   7.796   7.432 -0.0701  2.3945 -1.2412
  629MOL0     H84890   6.057   7.666   7.378  1.6911 -0.2257  3.8905
  629MOL0     H84891   5.946   7.928   7.482 -0.0049  0.1053 -0.5694
  629MOL0     H84892   5.843   7.807   7.403  0.1800 -1.7799  0.1623
  629MOL0     H84893   5.996   7.755   7.669 -0.4629 -2.7353 -1.0929
  629MOL0     H84894   5.932   7.630   7.582  1.5783 -0.5442  0.9165
  629MOL0     H84895   5.807   7.727   7.765  0.6725 -1.2874 -0.7337
  629MOL0     H84896   5.708   7.722   7.615  0.4436 -0.4162 -1.3210
  629MOL0     H84897   6.549   7.531   7.297  0.6484  0.7794  1.9999
  629MOL0     H84898   6.760   7.431   7.299 -1.0725  1.5375  1.8404
  629MOL0     H84899   7.114   7.404   6.971  1.4268  3.0503  0.3684
  629MOL0     H84900   7.287   7.276   6.877 -1.7911 -2.8606  2.0938
  629MOL0     H84901   9.310   6.771   6.632  1.8570  2.1847 -0.1157
  629MOL0     H84902   9.540   6.655   6.646 -0.3235 -0.2068  0.7519
  629MOL0     H84903   9.881   6.594   7.138  2.9136 -0.4414  0.6890
  629MOL0     H84904  10.112   6.554   7.123  1.2393 -1.6001 -0.4878
  629MOL0     H84905  10.310   6.350   6.802  0.7904  0.1436 -1.4795
  629MOL0     H84906  10.331   6.526   6.781 -0.0420 -0.5680  0.3141
  629MOL0     H84907  10.504   6.519   6.969  0.1088 -0.1209  0.8745
  629MOL0     H84908  10.554   6.437   6.824 -0.8476 -1.0997 -0.9505
  629MOL0     H84909  10.494   6.211   6.939 -1.3502  0.7870  0.2529
  629MOL0     H84910  10.442   6.300   7.070 -0.7306 -4.5513 -0.5716
  629MOL0     H84911  10.673   6.405   7.113  1.6141 -0.1759  0.2960
  629MOL0     H84912  10.722   6.359   6.955  1.5204 -3.1035  0.2048
  629MOL0     H84913  10.833   6.017   7.168  1.2754  0.3461 -0.9232
  629MOL0     H84914  10.097   6.405   6.735  2.1760 -0.6193  1.3211
  629MOL0     H84915   9.849   6.450   6.735 -2.1055 -0.1150  1.5589
  630MOL0     O84916   9.331   8.589   7.621  0.0568 -0.0960 -0.2467
  630MOL0     C84917   9.259   8.536   7.537 -0.4578 -0.2490  0.3111
  630MOL0     O84918   9.133   8.476   7.562 -0.2679  0.6478  0.7790
  630MOL0     C84919   9.107   8.429   7.688 -0.3641 -0.1971 -0.8722
  630MOL0     C84920   8.972   8.432   7.711  0.1165  0.8226  0.7615
  630MOL0     C84921   8.912   8.390   7.832 -0.8570 -0.4482  0.2966
  630MOL0     C84922   9.001   8.360   7.936 -0.4288  0.5789 -0.0994
  630MOL0     O84923   8.972   8.322   8.068  0.4850 -0.0994  0.4320
  630MOL0     C84924   8.840   8.334   8.123 -0.0441  0.3517  0.3985
  630MOL0     C84925   8.857   8.323   8.280 -0.2825 -0.0118  0.6395
  630MOL0     C84926   8.727   8.304   8.356 -0.6373  0.0779 -1.1635
  630MOL0     C84927   8.616   8.400   8.331  0.2330 -0.5698 -0.2169
  630MOL0     C84928   8.491   8.355   8.407  1.3849  0.8736 -0.5180
  630MOL0     C84929   8.372   8.450   8.384  0.0458  0.5243 -0.3797
  630MOL0     C84930   8.290   8.468   8.516  0.0932  0.3985 -0.7151
  630MOL0     C84931   8.179   8.563   8.483  0.9239  0.5304 -0.3043
  630MOL0     N84932   8.064   8.566   8.579  0.2674 -0.1073  0.0701
  630MOL0     C84933   7.945   8.491   8.577 -0.0816 -0.0124  0.6134
  630MOL0     C84934   7.885   8.524   8.691 -0.4148 -1.6345 -0.0057
  630MOL0     C84935   7.753   8.474   8.747  0.2904  0.3965  0.2851
  630MOL0     C84936   7.635   8.571   8.737 -0.0784  0.1920 -0.0212
  630MOL0     C84937   7.612   8.655   8.611 -0.8993  0.1903  0.1434
  630MOL0     C84938   7.472   8.724   8.604 -0.1718  0.3695 -0.4173
  630MOL0     O84939   7.368   8.627   8.622 -0.2003 -0.8590 -0.5337
  630MOL0     C84940   7.235   8.665   8.606 -0.6698  0.0066 -0.4454
  630MOL0     C84941   7.145   8.564   8.574  0.2186 -0.3145  0.8787
  630MOL0     C84942   7.010   8.591   8.552  0.0842 -0.0069 -0.6384
  630MOL0     C84943   6.910   8.480   8.507 -0.6418  0.0742 -0.1236
  630MOL0     C84944   6.968   8.726   8.562 -0.3165  0.6374 -0.1329
  630MOL0     C84945   6.824   8.753   8.538 -0.0883 -0.7398 -0.6781
  630MOL0     O84946   6.755   8.788   8.647 -0.4024  0.4298  0.0318
  630MOL0     C84947   6.628   8.832   8.649 -0.5124  0.1855  0.3194
  630MOL0     C84948   6.538   8.768   8.724  0.4715  0.7518  0.5008
  630MOL0     C84949   6.401   8.801   8.734 -0.1705 -0.2814  0.3008
  630MOL0     C84950   6.358   8.909   8.655  0.3007 -0.3082 -0.2382
  630MOL0     O84951   6.220   8.938   8.650  0.4670  0.1103 -0.3547
  630MOL0     C84952   6.181   9.072   8.635  0.1269  0.1030 -0.5675
  630MOL0     C84953   6.031   9.086   8.631 -0.7786 -0.0809 -0.0610
  630MOL0     C84954   5.973   9.067   8.487  0.4644  0.8638 -0.0835
  630MOL0     C84955   5.822   9.018   8.484  0.5767 -0.0438  0.6882
  630MOL0     C84956   5.720   9.107   8.552 -0.2070 -0.5393 -0.4628
  630MOL0     C84957   5.576   9.051   8.541  0.3886  0.4099 -0.2749
  630MOL0     C84958   5.575   8.932   8.639 -0.2311  0.6315 -0.2858
  630MOL0     C84959   5.441   8.908   8.701 -0.0651 -0.6935 -0.4485
  630MOL0    Cl84960   5.405   9.056   8.816  0.1303 -0.3764  0.1585
  630MOL0     C84961   6.447   8.970   8.562  0.1622  0.6902  0.0429
  630MOL0     C84962   6.576   8.932   8.566  0.2287 -0.4191  0.3679
  630MOL0     O84963   6.787   8.774   8.421  0.4071  0.0387 -1.6672
  630MOL0     C84964   7.055   8.828   8.593 -0.4101 -0.0992 -0.2921
  630MOL0     C84965   7.185   8.794   8.622 -0.0788 -0.9423 -0.0858
  630MOL0     N84966   7.957   8.621   8.759 -0.8448  0.2416  1.0630
  630MOL0     N84967   8.070   8.634   8.696  0.6605 -0.6171 -0.0937
  630MOL0     C84968   9.137   8.367   7.915  0.0054 -0.2238 -0.0298
  630MOL0     C84969   9.195   8.391   7.786  0.1890 -0.6300 -0.5669
  630MOL0     C84970   9.318   8.530   7.399 -0.5730 -1.4518 -0.7297
  630MOL0     C84971   9.447   8.576   7.377  0.3417 -0.7741 -0.1878
  630MOL0     C84972   9.504   8.557   7.253 -0.0245 -0.6783  0.5481
  630MOL0     C84973   9.436   8.505   7.147 -0.1512  0.0434 -0.9332
  630MOL0     O84974   9.485   8.472   7.027  0.1392  0.9182 -0.5210
  630MOL0     C84975   9.609   8.519   6.978 -0.1052 -0.1976  0.2600
  630MOL0     C84976   9.617   8.508   6.823 -0.6473 -0.7227  0.5848
  630MOL0     C84977   9.756   8.558   6.780  0.2967 -0.4020  0.6711
  630MOL0     C84978   9.765   8.581   6.626 -0.3996  0.3802  0.9081
  630MOL0     C84979   9.906   8.591   6.595 -0.4086 -0.2615  0.7591
  630MOL0     C84980  10.032   8.599   6.577  0.3033  0.0682  0.2524
  630MOL0     C84981   9.306   8.461   7.174 -0.0810  0.1387  0.0215
  630MOL0     C84982   9.250   8.477   7.298  0.2636 -0.0876  0.0776
  630MOL0     H84983   8.901   8.473   7.640 -2.5677 -2.7211  1.1557
  630MOL0     H84984   8.805   8.392   7.849 -1.2903  0.1687 -2.1387
  630MOL0     H84985   8.781   8.424   8.103  0.0855  0.2944 -0.2345
  630MOL0     H84986   8.786   8.246   8.085  0.3144 -0.6566  2.1087
  630MOL0     H84987   8.924   8.248   8.323  1.0838  0.7162 -0.1660
  630MOL0     H84988   8.911   8.415   8.303  0.8045 -0.0867 -1.3837
  630MOL0     H84989   8.684   8.207   8.328 -3.3308 -0.0964  2.8428
  630MOL0     H84990   8.742   8.311   8.464 -0.7931  1.0016 -1.1911
  630MOL0     H84991   8.639   8.503   8.360 -1.5016  0.6149 -2.6840
  630MOL0     H84992   8.584   8.398   8.226  2.9369  0.9361 -1.1618
  630MOL0     H84993   8.457   8.254   8.382 -1.1752  1.7356 -0.8066
  630MOL0     H84994   8.521   8.363   8.512  2.4731  3.9492 -0.9402
  630MOL0     H84995   8.408   8.549   8.352  0.4235  0.0856 -1.3656
  630MOL0     H84996   8.310   8.419   8.300 -2.0242  0.8294  0.9688
  630MOL0     H84997   8.247   8.373   8.550 -0.0824  1.0522  0.9572
  630MOL0     H84998   8.350   8.503   8.600 -0.5442 -0.3065  0.0583
  630MOL0     H84999   8.143   8.554   8.380  0.2277 -0.4579  0.0078
  630MOL0     H85000   8.218   8.664   8.492 -0.3024  0.9910 -0.0127
  630MOL0     H85001   7.914   8.418   8.503 -1.0158  1.2517 -0.2579
  630MOL0     H85002   7.724   8.377   8.707  1.7559  0.3588 -0.7616
  630MOL0     H85003   7.763   8.457   8.854 -0.0003 -0.6403  0.1519
  630MOL0     H85004   7.648   8.644   8.818  1.1131  0.0149 -0.0332
  630MOL0     H85005   7.550   8.513   8.773  1.7300  0.1935  5.1850
  630MOL0     H85006   7.631   8.581   8.532  1.0266 -0.2564  0.9811
  630MOL0     H85007   7.685   8.736   8.605 -1.0616  0.4294  1.2068
  630MOL0     H85008   7.472   8.779   8.510  0.0812  0.1404 -0.5542
  630MOL0     H85009   7.470   8.790   8.691 -1.5166 -0.5136  0.2630
  630MOL0     H85010   7.188   8.466   8.559  2.5412  0.7178  0.4368
  630MOL0     H85011   6.954   8.386   8.541 -1.9942  0.1899  2.2341
  630MOL0     H85012   6.804   8.482   8.534 -0.6606 -3.0824  0.3730
  630MOL0     H85013   6.914   8.470   8.399  2.6872 -3.5832  0.0993
  630MOL0     H85014   6.577   8.682   8.778 -2.2954 -0.5894  0.5846
  630MOL0     H85015   6.328   8.741   8.789  1.3433 -3.7616 -1.1818
  630MOL0     H85016   6.225   9.139   8.709  1.2640 -0.5800 -0.6026
  630MOL0     H85017   6.220   9.105   8.538  0.3243 -2.6452 -1.5039
  630MOL0     H85018   5.989   9.022   8.709  1.2765 -1.1648  0.2299
  630MOL0     H85019   6.017   9.191   8.658  1.9565  0.5400 -0.7781
  630MOL0     H85020   6.023   8.992   8.425 -2.3847 -0.4506 -0.9973
  630MOL0     H85021   5.979   9.167   8.443 -1.4719  1.7288  1.4681
  630MOL0     H85022   5.794   9.006   8.380  4.6140 -0.5095 -0.5443
  630MOL0     H85023   5.823   8.919   8.531  0.4504 -0.2675  0.2196
  630MOL0     H85024   5.718   9.200   8.496  0.1873 -1.0025 -1.2551
  630MOL0     H85025   5.737   9.131   8.658 -0.4076  0.7765 -0.7197
  630MOL0     H85026   5.511   9.132   8.574  0.9799  1.5522 -1.7613
  630MOL0     H85027   5.549   9.022   8.439  0.5151 -1.1631  0.1180
  630MOL0     H85028   5.657   8.938   8.711  1.0482 -3.5336 -1.0657
  630MOL0     H85029   5.596   8.843   8.578 -0.5190  0.2798  0.1232
  630MOL0     H85030   5.431   8.816   8.759  1.2345  1.6901  4.0171
  630MOL0     H85031   5.368   8.914   8.619 -0.6223  0.8310  0.1278
  630MOL0     H85032   6.411   9.039   8.487 -0.1488  0.4375 -0.0415
  630MOL0     H85033   6.653   8.971   8.500  1.2555 -0.9480  1.2141
  630MOL0     H85034   7.017   8.928   8.613 -2.2900 -1.1673  1.8574
  630MOL0     H85035   7.233   8.882   8.663 -3.4463  0.5713  0.9830
  630MOL0     H85036   9.199   8.338   8.000  0.4723 -2.6784 -1.1327
  630MOL0     H85037   9.302   8.382   7.772  0.3719 -0.9560  0.9146
  630MOL0     H85038   9.499   8.625   7.459 -0.7121  2.6457 -1.3834
  630MOL0     H85039   9.603   8.602   7.247 -1.0045  1.5477  0.2066
  630MOL0     H85040   9.616   8.624   7.006 -3.6966  0.7140 -1.7670
  630MOL0     H85041   9.690   8.464   7.029 -0.5466 -1.4276 -0.3163
  630MOL0     H85042   9.534   8.565   6.779  0.9757  0.3358 -1.2403
  630MOL0     H85043   9.601   8.407   6.783 -2.0756 -0.2519 -0.1183
  630MOL0     H85044   9.829   8.486   6.815 -1.0531 -2.1419  0.0335
  630MOL0     H85045   9.769   8.647   6.843 -0.4772 -1.0043  1.7082
  630MOL0     H85046   9.722   8.678   6.599  1.0288  0.4822 -1.2210
  630MOL0     H85047   9.708   8.508   6.567 -2.5473  1.4341  1.5623
  630MOL0     H85048  10.139   8.601   6.575  0.3436  2.6378  1.0777
  630MOL0     H85049   9.250   8.421   7.090  2.6386  1.1844 -2.4656
  630MOL0     H85050   9.150   8.440   7.319 -0.1760  1.4408  0.7566
  631MOL0     O85051   0.497   7.042   0.762  0.6450  0.1003 -1.5316
  631MOL0     C85052   0.478   6.924   0.735  0.0143  0.1713  1.1332
  631MOL0     O85053   0.354   6.859   0.723 -0.0253  0.5938 -0.0200
  631MOL0     C85054   0.229   6.895   0.771  0.5410 -0.3450  0.4396
  631MOL0     C85055   0.122   6.837   0.718  0.1686  0.1721  0.4670
  631MOL0     C85056  -0.007   6.861   0.765  0.1913 -0.8906 -0.3615
  631MOL0     C85057  -0.032   6.955   0.865  0.0138  0.0839  0.5206
  631MOL0     O85058  -0.151   6.979   0.917  0.4917 -0.0504  0.0861
  631MOL0     C85059  -0.268   6.910   0.867  0.1311 -0.7439 -0.2037
  631MOL0     C85060  -0.396   6.977   0.933  0.0826  0.9824 -0.1345
  631MOL0     C85061  -0.535   6.920   0.903  0.1065  0.1995  0.0688
  631MOL0     C85062  -0.604   6.962   0.769 -0.1394 -0.0432  0.0640
  631MOL0     C85063  -0.748   6.919   0.768 -0.0312  0.0377  0.4164
  631MOL0     C85064  -0.775   6.764   0.765  0.4842  0.5346 -0.1506
  631MOL0     C85065  -0.924   6.747   0.762 -0.9031  0.2969  0.3510
  631MOL0     C85066  -0.969   6.605   0.801 -1.5470  0.0156 -0.2810
  631MOL0     N85067  -1.113   6.591   0.827  0.3292  0.0780 -0.3993
  631MOL0     C85068  -1.200   6.521   0.743 -0.2392  0.1292 -0.4089
  631MOL0     C85069  -1.320   6.551   0.798  0.2050 -0.4363  0.1237
  631MOL0     C85070  -1.447   6.517   0.741  0.0515 -0.1685  0.1368
  631MOL0     C85071  -1.470   6.608   0.619 -0.3942  0.4224 -0.1426
  631MOL0     C85072  -1.619   6.628   0.589  0.2187 -0.9044  0.1700
  631MOL0     C85073  -1.633   6.730   0.469  0.0252  0.7818 -0.3577
  631MOL0     O85074  -1.768   6.735   0.430 -0.6564  0.7254 -0.0816
  631MOL0     C85075  -1.859   6.808   0.502  0.0537  0.1012 -0.7646
  631MOL0     C85076  -1.976   6.747   0.545 -0.6734 -0.7411 -1.0710
  631MOL0     C85077  -2.069   6.820   0.615  0.5314 -0.1655  0.3520
  631MOL0     C85078  -2.174   6.741   0.680  0.4904  0.4082  0.4716
  631MOL0     C85079  -2.051   6.959   0.647  0.0294 -0.3842 -0.4961
  631MOL0     C85080  -2.144   7.043   0.728  0.5932 -0.3617  0.3065
  631MOL0     O85081  -2.262   6.989   0.772  0.0282  0.0606 -0.5472
  631MOL0     C85082  -2.355   7.053   0.853  0.1361  0.0152 -0.0654
  631MOL0     C85083  -2.395   7.190   0.852  0.3954 -0.7093  0.1366
  631MOL0     C85084  -2.498   7.229   0.936  0.5606 -0.4975  0.5356
  631MOL0     C85085  -2.567   7.137   1.009  0.5072 -0.3552  0.0461
  631MOL0     O85086  -2.674   7.185   1.076 -0.0428  0.0605  0.1892
  631MOL0     C85087  -2.760   7.103   1.152 -0.3440  0.0147  0.7748
  631MOL0     C85088  -2.882   7.165   1.215 -0.5896  0.0693 -0.2559
  631MOL0     C85089  -2.974   7.230   1.111  0.1901 -0.3680  0.2055
  631MOL0     C85090  -3.111   7.246   1.165  0.1274  0.6067  0.4910
  631MOL0     C85091  -3.198   7.326   1.072 -0.4937 -0.5078 -0.3408
  631MOL0     C85092  -3.347   7.297   1.108 -0.8053  0.2245 -0.4804
  631MOL0     C85093  -3.430   7.377   1.015  0.3761 -0.2562  0.1973
  631MOL0     C85094  -3.566   7.380   1.072  0.1151  0.1942 -0.3955
  631MOL0    Cl85095  -3.675   7.477   0.972 -0.0428  0.0808  0.4420
  631MOL0     C85096  -2.535   7.004   1.001 -0.3683 -0.2545 -0.0998
  631MOL0     C85097  -2.427   6.961   0.925  0.2771  0.9649  0.4610
  631MOL0     O85098  -2.112   7.160   0.750  0.5866  0.1604 -0.0506
  631MOL0     C85099  -1.932   7.018   0.593  0.0088 -0.3245  0.2872
  631MOL0     C85100  -1.832   6.939   0.531  0.0166 -0.4973 -0.2303
  631MOL0     N85101  -1.303   6.630   0.906  0.2744  0.0282  0.0352
  631MOL0     N85102  -1.184   6.658   0.920 -0.5519 -0.3012  0.8794
  631MOL0     C85103   0.082   7.013   0.926  0.2768 -0.2011  0.0658
  631MOL0     C85104   0.209   6.991   0.881  0.2821 -0.9471  0.3396
  631MOL0     C85105   0.606   6.862   0.689  0.3283 -0.0981 -0.0778
  631MOL0     C85106   0.724   6.885   0.758 -0.3511 -0.8793 -0.3770
  631MOL0     C85107   0.846   6.833   0.718 -0.6848 -0.6705  0.0382
  631MOL0     C85108   0.869   6.769   0.601 -0.0497 -0.5976 -0.6787
  631MOL0     O85109   0.992   6.731   0.569 -0.9367  0.2557  0.6025
  631MOL0     C85110   1.035   6.806   0.455 -0.0777  0.7872 -0.4362
  631MOL0     C85111   1.175   6.753   0.419 -0.3494  0.5382 -0.0173
  631MOL0     C85112   1.255   6.861   0.337 -0.3977 -0.1493 -0.4653
  631MOL0     C85113   1.400   6.822   0.316 -0.0799  0.5573  0.7642
  631MOL0     C85114   1.476   6.901   0.213  0.2272 -0.0223  0.1912
  631MOL0     C85115   1.541   6.955   0.127  0.7094 -0.3871  0.2665
  631MOL0     C85116   0.755   6.742   0.527  0.4908  0.4348 -0.0894
  631MOL0     C85117   0.621   6.782   0.568 -0.0730 -0.0775  0.5152
  631MOL0     H85118   0.124   6.755   0.647  0.9422 -1.1039  1.9138
  631MOL0     H85119  -0.098   6.816   0.726 -1.7193 -0.3229  3.0084
  631MOL0     H85120  -0.268   6.913   0.757  1.8857 -1.0237 -0.2413
  631MOL0     H85121  -0.260   6.803   0.890  4.5277 -0.6525 -0.4343
  631MOL0     H85122  -0.378   6.971   1.041  1.1350  3.3674 -0.1064
  631MOL0     H85123  -0.384   7.083   0.908  3.1767  1.0636  1.2188
  631MOL0     H85124  -0.528   6.811   0.901  3.0708  0.3438 -1.2615
  631MOL0     H85125  -0.592   6.955   0.990  1.1974  0.1983  0.7946
  631MOL0     H85126  -0.602   7.070   0.757 -1.3037 -0.1251 -1.0621
  631MOL0     H85127  -0.548   6.913   0.689 -4.6116 -1.4662 -2.5705
  631MOL0     H85128  -0.789   6.962   0.859  0.6944 -1.2944  1.4078
  631MOL0     H85129  -0.803   6.969   0.688 -1.8236  3.8305  3.6990
  631MOL0     H85130  -0.732   6.727   0.671 -0.5141  1.4748 -1.0058
  631MOL0     H85131  -0.728   6.712   0.849  2.0612  4.0674  1.3656
  631MOL0     H85132  -0.979   6.811   0.831 -0.7332  0.0320  0.7332
  631MOL0     H85133  -0.956   6.763   0.658  2.5975  0.7755 -0.8031
  631MOL0     H85134  -0.922   6.581   0.897 -0.7511 -1.1261 -0.9441
  631MOL0     H85135  -0.937   6.536   0.723 -0.9910  1.2379 -1.1735
  631MOL0     H85136  -1.176   6.459   0.656 -0.8524 -1.8233  0.7567
  631MOL0     H85137  -1.441   6.411   0.717 -1.4386 -1.1133  3.4185
  631MOL0     H85138  -1.529   6.530   0.811 -2.4151 -0.3344 -2.5171
  631MOL0     H85139  -1.418   6.564   0.533 -2.1024 -0.6339 -0.6734
  631MOL0     H85140  -1.422   6.704   0.642  1.2196 -0.5165  0.6168
  631MOL0     H85141  -1.671   6.658   0.681 -0.1847 -0.6172 -0.1509
  631MOL0     H85142  -1.666   6.533   0.562  0.6255 -0.7316 -1.2331
  631MOL0     H85143  -1.579   6.693   0.381 -0.9446  0.3296 -0.7797
  631MOL0     H85144  -1.588   6.825   0.496  1.6989 -0.6262  2.2249
  631MOL0     H85145  -1.989   6.640   0.538  0.2410 -1.1262  1.7682
  631MOL0     H85146  -2.154   6.634   0.684 -0.4805  0.2292  0.7945
  631MOL0     H85147  -2.180   6.773   0.785  0.1503  4.0220 -0.5222
  631MOL0     H85148  -2.272   6.754   0.633 -0.1163  0.8862  1.8231
  631MOL0     H85149  -2.337   7.250   0.782  0.8099 -1.2419  0.0126
  631MOL0     H85150  -2.520   7.335   0.946  3.0711  0.2610 -0.9115
  631MOL0     H85151  -2.802   7.026   1.086  0.2006  1.1572 -1.0060
  631MOL0     H85152  -2.696   7.059   1.229  2.6396  0.7219 -1.1097
  631MOL0     H85153  -2.936   7.092   1.277 -2.7144  2.7080  1.2439
  631MOL0     H85154  -2.846   7.234   1.292 -3.0795  0.6517  0.4770
  631MOL0     H85155  -2.974   7.155   1.032  0.8139 -0.4384  0.2630
  631MOL0     H85156  -2.927   7.325   1.082  1.5759 -1.3005 -0.7116
  631MOL0     H85157  -3.149   7.144   1.181  0.8421  0.1830 -0.4297
  631MOL0     H85158  -3.098   7.298   1.261  0.3887  1.1949  0.1417
  631MOL0     H85159  -3.183   7.304   0.966 -2.2566  0.5939 -0.8644
  631MOL0     H85160  -3.169   7.430   1.092 -0.0027 -1.1328  2.6276
  631MOL0     H85161  -3.367   7.190   1.098  1.7420 -0.3415 -0.1340
  631MOL0     H85162  -3.367   7.328   1.211  3.0320  0.5258  0.3384
  631MOL0     H85163  -3.424   7.331   0.916 -1.2547 -1.7047  0.7212
  631MOL0     H85164  -3.395   7.481   1.011 -1.3900  0.4430  1.4981
  631MOL0     H85165  -3.571   7.429   1.170 -1.1539  0.0288 -0.3589
  631MOL0     H85166  -3.600   7.276   1.086  0.0622  0.3433  0.7392
  631MOL0     H85167  -2.598   6.923   1.037 -0.8977 -0.2300 -0.9579
  631MOL0     H85168  -2.416   6.854   0.914 -3.7337  0.4527 -0.2244
  631MOL0     H85169  -1.927   7.123   0.621 -1.8510 -0.4110  1.0717
  631MOL0     H85170  -1.741   6.989   0.498  0.7770 -1.6147  0.1197
  631MOL0     H85171   0.087   7.089   1.003  2.3685  1.4812 -1.5882
  631MOL0     H85172   0.296   7.044   0.917  0.1996 -0.9765  0.5850
  631MOL0     H85173   0.734   6.963   0.833 -0.9830  1.0976 -2.2508
  631MOL0     H85174   0.931   6.860   0.780 -1.4072  0.9893  0.3319
  631MOL0     H85175   0.967   6.799   0.370 -2.0594 -0.7166  1.1870
  631MOL0     H85176   1.056   6.903   0.501  1.1037  0.0673  0.6184
  631MOL0     H85177   1.155   6.666   0.356  0.5997 -0.8616  1.5147
  631MOL0     H85178   1.226   6.733   0.514 -0.1098  1.2765  0.0204
  631MOL0     H85179   1.257   6.956   0.391  2.1454  0.3522 -1.3040
  631MOL0     H85180   1.215   6.883   0.238 -0.1691 -1.5280 -0.8883
  631MOL0     H85181   1.400   6.715   0.291 -0.5534  0.7253  0.0086
  631MOL0     H85182   1.451   6.840   0.411  0.1883  2.7483  0.2612
  631MOL0     H85183   1.608   7.001   0.057 -0.0253 -0.0534 -0.2270
  631MOL0     H85184   0.763   6.683   0.437  3.5799  0.2101  0.2396
  631MOL0     H85185   0.537   6.762   0.502 -0.3843  0.9790  0.5693
  632MOL0     O85186   3.228  10.155   4.494  0.1929 -0.1794  0.2082
  632MOL0     C85187   3.309  10.245   4.517 -0.1019 -0.1463 -0.4071
  632MOL0     O85188   3.281  10.361   4.586 -0.0410 -0.2992 -0.2037
  632MOL0     C85189   3.155  10.427   4.579  0.3680 -0.6090 -0.0920
  632MOL0     C85190   3.141  10.520   4.678 -0.0072 -0.0631 -0.1257
  632MOL0     C85191   3.016  10.589   4.701 -1.3285 -0.2403 -0.7763
  632MOL0     C85192   2.913  10.557   4.620 -0.2325 -0.7604  0.4305
  632MOL0     O85193   2.797  10.628   4.649  0.2295 -0.4770  0.2513
  632MOL0     C85194   2.699  10.636   4.540 -0.9159  0.1039 -0.8192
  632MOL0     C85195   2.584  10.729   4.585 -0.2973  0.3085 -0.2011
  632MOL0     C85196   2.455  10.693   4.523  0.3671  0.6856 -0.0764
  632MOL0     C85197   2.340  10.779   4.579  0.1575  0.6457  0.2147
  632MOL0     C85198   2.208  10.755   4.504 -0.6984  0.4882  0.3853
  632MOL0     C85199   2.098  10.850   4.558 -0.2027 -0.2461 -0.7725
  632MOL0     C85200   1.961  10.835   4.506 -0.2874 -0.4939 -0.2763
  632MOL0     C85201   1.867  10.952   4.540  0.1477 -0.4869  0.6505
  632MOL0     N85202   1.745  10.948   4.456  0.5597 -0.1573  0.3022
  632MOL0     C85203   1.697  11.049   4.370 -0.2713 -0.2436  0.5515
  632MOL0     C85204   1.570  11.011   4.343 -0.3314  0.4599  0.2231
  632MOL0     C85205   1.475  11.079   4.252 -0.4606  0.7416  0.0253
  632MOL0     C85206   1.347  11.122   4.318  0.0751  0.7178  0.9363
  632MOL0     C85207   1.367  11.206   4.440 -0.5127 -0.0922  0.0595
  632MOL0     C85208   1.228  11.247   4.499  0.5855  1.2931  0.0271
  632MOL0     O85209   1.142  11.317   4.406 -0.2754 -0.9011  0.0335
  632MOL0     C85210   1.004  11.321   4.424  0.1453  0.1691 -0.0775
  632MOL0     C85211   0.920  11.360   4.310 -0.5962 -0.4099 -0.2101
  632MOL0     C85212   0.779  11.371   4.326  0.1650 -0.7552  0.0917
  632MOL0     C85213   0.708  11.418   4.198 -0.3013  0.5046 -0.2483
  632MOL0     C85214   0.717  11.338   4.449 -0.4779  0.1860 -0.0984
  632MOL0     C85215   0.571  11.346   4.461  0.0807 -1.0104  0.0455
  632MOL0     O85216   0.498  11.300   4.358  0.0053  0.2055  0.2912
  632MOL0     C85217   0.379  11.228   4.379  0.2441 -0.2495  0.1498
  632MOL0     C85218   0.313  11.189   4.259  0.5928  0.3744 -0.0133
  632MOL0     C85219   0.191  11.119   4.270  0.9426 -0.0350  0.3593
  632MOL0     C85220   0.135  11.078   4.387  0.4632 -0.3856 -0.4302
  632MOL0     O85221   0.015  11.014   4.387  0.0828 -0.0689 -0.3336
  632MOL0     C85222  -0.001  10.900   4.463 -0.5110  0.2420  0.2177
  632MOL0     C85223  -0.096  10.808   4.389  0.5932 -0.2382  0.0325
  632MOL0     C85224  -0.137  10.692   4.484  0.4280  0.4142  0.0428
  632MOL0     C85225  -0.251  10.615   4.412 -0.1391 -0.3165 -0.0170
  632MOL0     C85226  -0.296  10.501   4.510  0.0608 -1.0091 -0.2874
  632MOL0     C85227  -0.404  10.403   4.454  0.0689 -0.1258 -0.2289
  632MOL0     C85228  -0.463  10.299   4.553  0.1736  0.4084 -0.0684
  632MOL0     C85229  -0.483  10.336   4.696 -0.8723  0.3264  0.0849
  632MOL0    Cl85230  -0.602  10.463   4.700 -0.0147 -0.2626 -0.0461
  632MOL0     C85231   0.209  11.103   4.504  0.0238 -0.6377 -0.1047
  632MOL0     C85232   0.329  11.182   4.498  0.0554 -0.3161  0.6686
  632MOL0     O85233   0.527  11.386   4.571 -0.1732 -0.4166  0.2107
  632MOL0     C85234   0.803  11.298   4.559  1.0516 -0.1370  0.3939
  632MOL0     C85235   0.940  11.293   4.545 -0.1500  0.4427  0.1573
  632MOL0     N85236   1.548  10.891   4.405  0.2830  0.1333  0.0412
  632MOL0     N85237   1.654  10.854   4.470  0.8206 -0.6970 -0.8652
  632MOL0     C85238   2.925  10.465   4.516 -0.1689  0.8188  0.3973
  632MOL0     C85239   3.051  10.399   4.497  0.0337  0.1851  0.2854
  632MOL0     C85240   3.449  10.210   4.488 -0.3797 -0.3554  0.2867
  632MOL0     C85241   3.556  10.290   4.543 -0.2939  0.2933  0.3796
  632MOL0     C85242   3.685  10.255   4.514 -0.0736 -0.2697  0.3669
  632MOL0     C85243   3.712  10.160   4.412 -0.2386  0.0205 -0.6846
  632MOL0     O85244   3.831  10.135   4.362 -0.3596  0.5187  0.0794
  632MOL0     C85245   3.951  10.191   4.423  0.2942 -0.7030  0.1819
  632MOL0     C85246   4.062  10.093   4.396  0.0871  0.5456 -0.4014
  632MOL0     C85247   4.134  10.117   4.263  0.0938 -0.2342  0.1755
  632MOL0     C85248   4.267  10.042   4.257  0.0899 -0.1054 -0.0879
  632MOL0     C85249   4.307  10.052   4.123 -0.3309  1.2624  1.2264
  632MOL0     C85250   4.320  10.088   4.002  0.1524  0.0491 -0.1977
  632MOL0     C85251   3.607  10.094   4.352 -0.2190 -0.5044  0.5393
  632MOL0     C85252   3.475  10.113   4.390  0.2147 -0.1277  0.4189
  632MOL0     H85253   3.230  10.538   4.737 -0.0849 -0.7211  0.1966
  632MOL0     H85254   3.004  10.665   4.777 -0.2447 -0.2299 -0.5962
  632MOL0     H85255   2.755  10.672   4.453  1.4940  1.5881  1.2237
  632MOL0     H85256   2.653  10.538   4.522  2.3018 -1.8069  0.5154
  632MOL0     H85257   2.582  10.721   4.694 -0.9768 -2.1642 -0.3401
  632MOL0     H85258   2.605  10.834   4.563  0.8633  0.2720  0.6010
  632MOL0     H85259   2.450  10.720   4.418 -1.9797  1.5099  0.1814
  632MOL0     H85260   2.438  10.585   4.525 -0.7856  0.8470 -0.0215
  632MOL0     H85261   2.324  10.756   4.685 -3.2505  1.3509 -0.0429
  632MOL0     H85262   2.365  10.885   4.590 -1.2086  1.0470 -0.3441
  632MOL0     H85263   2.215  10.757   4.395 -0.0634  1.0082  0.4313
  632MOL0     H85264   2.185  10.653   4.536  2.7776  0.0316  1.8705
  632MOL0     H85265   2.095  10.827   4.665  2.5893  0.0450 -0.5719
  632MOL0     H85266   2.135  10.949   4.531 -0.3644 -0.1370 -0.5913
  632MOL0     H85267   1.966  10.836   4.397  2.1202  1.6751 -0.2113
  632MOL0     H85268   1.916  10.737   4.527 -0.3081 -0.2365  0.9928
  632MOL0     H85269   1.923  11.041   4.510 -0.7792  1.0294  3.1685
  632MOL0     H85270   1.846  10.953   4.647  0.9229  0.7935  0.8110
  632MOL0     H85271   1.743  11.138   4.330  0.2253 -0.8061 -0.1624
  632MOL0     H85272   1.528  11.168   4.216  3.5549 -1.3273  0.2234
  632MOL0     H85273   1.456  11.012   4.167  1.7331 -1.8050  1.3880
  632MOL0     H85274   1.284  11.037   4.344 -2.0176  2.4055  1.7329
  632MOL0     H85275   1.303  11.187   4.242  2.0039  2.8316  1.5157
  632MOL0     H85276   1.418  11.295   4.402  2.0107 -1.0673  0.9761
  632MOL0     H85277   1.425  11.158   4.520 -2.0620 -0.9589  0.7130
  632MOL0     H85278   1.240  11.305   4.591  0.9297  1.5403 -0.1712
  632MOL0     H85279   1.176  11.157   4.532  2.1680  0.1858 -0.3791
  632MOL0     H85280   0.977  11.394   4.224  0.6856 -0.7246  0.4901
  632MOL0     H85281   0.656  11.510   4.225 -0.5903  0.7542 -1.5705
  632MOL0     H85282   0.779  11.443   4.119 -0.2616  1.2099  0.0049
  632MOL0     H85283   0.645  11.336   4.160 -0.0672  0.5318 -0.6931
  632MOL0     H85284   0.352  11.228   4.166 -0.6130 -3.8478 -2.5463
  632MOL0     H85285   0.144  11.100   4.174 -2.2400 -2.8524  2.2523
  632MOL0     H85286   0.094  10.846   4.472 -1.6211 -1.9742 -0.6183
  632MOL0     H85287  -0.039  10.923   4.563  1.2549  0.5625  0.8434
  632MOL0     H85288  -0.184  10.867   4.359 -1.7813 -2.2221  2.5601
  632MOL0     H85289  -0.051  10.774   4.295 -1.3077 -1.0406 -0.6389
  632MOL0     H85290  -0.165  10.735   4.580  0.2933  0.6793 -0.1145
  632MOL0     H85291  -0.047  10.631   4.500  0.4409  0.8508  1.8103
  632MOL0     H85292  -0.341  10.676   4.399 -0.2346 -0.5900 -0.6833
  632MOL0     H85293  -0.224  10.564   4.319 -0.3831  0.1785 -0.3600
  632MOL0     H85294  -0.341  10.559   4.591  0.9476 -0.7782  0.0502
  632MOL0     H85295  -0.212  10.439   4.542 -0.2164 -1.3004 -0.1149
  632MOL0     H85296  -0.479  10.465   4.404  1.6916 -0.5234 -3.3976
  632MOL0     H85297  -0.361  10.344   4.373  4.5826  0.8324  1.2054
  632MOL0     H85298  -0.399  10.211   4.552 -3.0661 -2.1503 -2.0193
  632MOL0     H85299  -0.561  10.279   4.510 -0.2632  0.7933  0.7233
  632MOL0     H85300  -0.388  10.366   4.740 -1.4714  1.3768  0.6827
  632MOL0     H85301  -0.525  10.249   4.747  1.0829 -1.8150 -1.7146
  632MOL0     H85302   0.182  11.064   4.601 -0.9292 -2.2938 -0.9984
  632MOL0     H85303   0.377  11.211   4.591  3.5025 -1.5751 -0.5664
  632MOL0     H85304   0.750  11.273   4.650 -1.6926 -1.9719 -1.5369
  632MOL0     H85305   0.995  11.272   4.637  0.5538  2.0766  0.1527
  632MOL0     H85306   2.837  10.444   4.455  0.5070  0.1440 -0.3803
  632MOL0     H85307   3.057  10.336   4.408 -0.4743  0.4812  0.0358
  632MOL0     H85308   3.539  10.384   4.595  0.3809  1.6819 -1.7701
  632MOL0     H85309   3.775  10.303   4.552  1.0058 -0.6209 -1.5923
  632MOL0     H85310   3.968  10.287   4.374 -1.3513 -0.7580 -0.5531
  632MOL0     H85311   3.944  10.211   4.531  0.3428  0.4961 -0.0237
  632MOL0     H85312   4.011   9.996   4.403 -0.2599  0.7157 -0.5660
  632MOL0     H85313   4.137  10.090   4.475 -0.1531 -1.2817 -0.1809
  632MOL0     H85314   4.164  10.222   4.251  0.4437 -0.1093  1.8040
  632MOL0     H85315   4.075  10.085   4.177 -0.3777 -0.8101  0.7086
  632MOL0     H85316   4.258   9.935   4.282  0.3429 -0.7386 -2.4662
  632MOL0     H85317   4.347  10.076   4.323  1.4660  1.0589 -2.2523
  632MOL0     H85318   4.331  10.123   3.901 -0.3741 -1.6455 -0.8861
  632MOL0     H85319   3.632  10.015   4.282 -1.9372 -1.1859  0.6416
  632MOL0     H85320   3.408  10.047   4.335 -0.4888  0.5568  0.4305
  633MOL0     O85321   8.841   3.844   3.593  0.0880 -0.3512  0.3618
  633MOL0     C85322   8.811   3.728   3.582  1.1619  0.5410 -1.0741
  633MOL0     O85323   8.683   3.677   3.602 -1.1521  0.0323 -0.7356
  633MOL0     C85324   8.583   3.770   3.609  0.3397  0.5326 -0.7677
  633MOL0     C85325   8.552   3.838   3.724 -0.8665 -1.2920 -0.8579
  633MOL0     C85326   8.432   3.904   3.733  0.2096  0.0615 -1.2553
  633MOL0     C85327   8.346   3.916   3.619 -0.5982 -0.4294  0.0551
  633MOL0     O85328   8.239   4.007   3.628  0.0355  0.4731  0.2196
  633MOL0     C85329   8.181   4.060   3.511  0.0653 -0.7667  0.3491
  633MOL0     C85330   8.097   4.188   3.540 -0.6187  0.3503  0.7324
  633MOL0     C85331   7.958   4.143   3.574  0.1152 -0.3027 -0.0031
  633MOL0     C85332   7.876   4.275   3.599  0.5571  0.2377  0.1913
  633MOL0     C85333   7.731   4.238   3.637  0.4438 -0.2521 -0.1300
  633MOL0     C85334   7.647   4.366   3.664 -0.0101  0.2370 -0.3454
  633MOL0     C85335   7.527   4.329   3.755 -0.8506  0.3486 -0.3428
  633MOL0     C85336   7.422   4.234   3.685  0.1711 -0.1926 -0.4032
  633MOL0     N85337   7.288   4.254   3.736  0.2600 -0.2009 -0.0818
  633MOL0     C85338   7.216   4.369   3.719  0.2478 -0.6887 -0.3162
  633MOL0     C85339   7.087   4.333   3.747  0.5468  0.3607 -0.0967
  633MOL0     C85340   6.968   4.420   3.737 -0.0929  0.4524 -0.1607
  633MOL0     C85341   6.836   4.344   3.728  0.9364  0.2694 -0.4711
  633MOL0     C85342   6.720   4.423   3.785  0.2139 -0.3501 -0.0744
  633MOL0     C85343   6.586   4.347   3.787 -0.4859  0.0142 -0.5675
  633MOL0     O85344   6.543   4.325   3.653 -0.4036 -0.5038 -0.5981
  633MOL0     C85345   6.418   4.275   3.649  0.3052  0.4965 -0.1335
  633MOL0     C85346   6.417   4.133   3.626  0.3376 -0.4001 -0.6071
  633MOL0     C85347   6.299   4.060   3.617  0.0359 -0.3177  0.3047
  633MOL0     C85348   6.311   3.915   3.611  0.1362  0.4632  0.4403
  633MOL0     C85349   6.179   4.131   3.611  0.1039 -0.2225 -0.1573
  633MOL0     C85350   6.043   4.074   3.584 -0.8752  0.5444 -1.2547
  633MOL0     O85351   5.940   4.141   3.628  0.4774 -0.5983 -0.1236
  633MOL0     C85352   5.812   4.109   3.583 -0.3769 -0.2332  0.2081
  633MOL0     C85353   5.708   4.093   3.676  0.7872 -0.5799 -0.4014
  633MOL0     C85354   5.579   4.080   3.640  0.2038  0.0900 -0.0151
  633MOL0     C85355   5.551   4.074   3.503  0.4919 -0.0068 -0.4797
  633MOL0     O85356   5.419   4.050   3.472  1.2368 -0.4823  0.6646
  633MOL0     C85357   5.365   4.133   3.370  0.2215  0.9221 -0.0049
  633MOL0     C85358   5.227   4.089   3.349 -0.5098 -0.2439 -0.5331
  633MOL0     C85359   5.137   4.125   3.467 -0.2467 -0.3128  0.1128
  633MOL0     C85360   4.990   4.107   3.438 -0.2142 -0.3729  0.6943
  633MOL0     C85361   4.896   4.165   3.537  0.8058  0.4431  0.1456
  633MOL0     C85362   4.746   4.141   3.511 -0.2321 -0.3555  0.2109
  633MOL0     C85363   4.661   4.237   3.584  0.1407  0.8741  0.4866
  633MOL0     C85364   4.513   4.203   3.570 -0.2324  0.3390 -0.1578
  633MOL0    Cl85365   4.419   4.347   3.626  0.3740  0.1451 -0.1368
  633MOL0     C85366   5.653   4.088   3.404 -0.2126 -0.0527  0.2932
  633MOL0     C85367   5.786   4.103   3.446 -0.2135  0.5873  0.2834
  633MOL0     O85368   6.044   3.972   3.516  0.2583  0.0367 -0.0314
  633MOL0     C85369   6.181   4.270   3.637  0.7708  0.4271  0.9175
  633MOL0     C85370   6.297   4.341   3.649 -0.0153 -0.0727 -0.3934
  633MOL0     N85371   7.082   4.205   3.793  0.4139  0.2605  0.0661
  633MOL0     N85372   7.205   4.158   3.789 -1.3584 -0.1080 -0.2077
  633MOL0     C85373   8.378   3.850   3.503 -0.1962 -0.2551  0.2813
  633MOL0     C85374   8.495   3.779   3.495 -0.0001  0.4052 -0.5957
  633MOL0     C85375   8.924   3.635   3.543 -0.2532  0.1814  0.1017
  633MOL0     C85376   9.055   3.665   3.575  0.0010 -0.6728  0.6651
  633MOL0     C85377   9.166   3.584   3.550  0.4896 -0.4192  0.3445
  633MOL0     C85378   9.142   3.456   3.494 -0.1799  0.3510  0.2163
  633MOL0     O85379   9.247   3.379   3.477 -0.0976  0.7517 -0.9391
  633MOL0     C85380   9.243   3.260   3.399 -0.4190  0.3170 -0.4328
  633MOL0     C85381   9.353   3.175   3.455  1.1227 -0.5538 -0.0266
  633MOL0     C85382   9.486   3.239   3.439 -0.5769 -0.6051 -0.0385
  633MOL0     C85383   9.611   3.159   3.492 -1.1167 -0.4789  0.0276
  633MOL0     C85384   9.624   3.049   3.400 -0.2628 -0.4649  0.4188
  633MOL0     C85385   9.642   2.965   3.316  0.3571  0.1898 -0.2923
  633MOL0     C85386   9.012   3.429   3.449  0.5124  0.1674  0.0607
  633MOL0     C85387   8.901   3.514   3.474 -0.1450 -0.8407  0.3291
  633MOL0     H85388   8.607   3.834   3.818 -3.4527 -1.7689  0.7349
  633MOL0     H85389   8.406   3.960   3.822  2.1129  1.1761 -1.3268
  633MOL0     H85390   8.271   4.086   3.455  0.0888  0.0161  0.7335
  633MOL0     H85391   8.120   3.990   3.453 -2.6475  1.6067  0.1462
  633MOL0     H85392   8.148   4.246   3.618  0.8336  0.4141 -0.2271
  633MOL0     H85393   8.087   4.248   3.449 -0.9397  1.1030  1.2574
  633MOL0     H85394   7.913   4.080   3.497 -0.0201 -2.2917  1.6288
  633MOL0     H85395   7.961   4.083   3.665  1.4072 -0.6343 -0.2512
  633MOL0     H85396   7.922   4.340   3.675 -0.8105  0.9121  0.4725
  633MOL0     H85397   7.874   4.329   3.504  1.4136  1.2483  0.7261
  633MOL0     H85398   7.679   4.180   3.561 -1.0111  0.5886  0.1875
  633MOL0     H85399   7.727   4.176   3.727 -2.6749 -2.4088 -1.5797
  633MOL0     H85400   7.708   4.434   3.724  0.7118 -1.5804  1.0743
  633MOL0     H85401   7.612   4.409   3.570 -1.4949 -1.0519 -0.4182
  633MOL0     H85402   7.568   4.272   3.838 -3.8872 -2.7946 -0.7364
  633MOL0     H85403   7.478   4.413   3.806 -0.6397  0.5976 -0.5458
  633MOL0     H85404   7.444   4.130   3.711 -1.1901 -0.1677  0.9710
  633MOL0     H85405   7.436   4.253   3.579  1.3221  3.0322  0.1967
  633MOL0     H85406   7.243   4.468   3.685  0.9239 -0.2584  1.3730
  633MOL0     H85407   6.975   4.478   3.829 -0.0610 -0.6035  0.5271
  633MOL0     H85408   6.963   4.493   3.656 -0.8678  1.5129  0.8153
  633MOL0     H85409   6.842   4.251   3.785 -1.3075 -0.0293 -0.6288
  633MOL0     H85410   6.812   4.319   3.625  1.5728  0.1587 -0.5981
  633MOL0     H85411   6.701   4.516   3.730  0.8565  0.2896  0.7560
  633MOL0     H85412   6.742   4.466   3.883 -0.0290 -0.4663  0.0308
  633MOL0     H85413   6.520   4.419   3.838  0.7486  1.3526 -0.8018
  633MOL0     H85414   6.596   4.253   3.841  0.5808  0.6043  0.3023
  633MOL0     H85415   6.509   4.076   3.633  0.4528 -0.1185  0.3720
  633MOL0     H85416   6.269   3.868   3.522  0.0931 -1.3636  1.3733
  633MOL0     H85417   6.414   3.883   3.625 -0.0181 -1.0197 -1.5153
  633MOL0     H85418   6.242   3.863   3.679  0.6977  1.6453  1.9767
  633MOL0     H85419   5.748   4.093   3.777 -1.4846  2.0670  0.6333
  633MOL0     H85420   5.504   4.057   3.714 -0.1816 -2.6523 -1.1388
  633MOL0     H85421   5.378   4.237   3.401 -0.5479  0.8902  0.4441
  633MOL0     H85422   5.415   4.117   3.274 -2.5803  2.1464 -1.8326
  633MOL0     H85423   5.188   4.139   3.260  0.7759 -0.0218 -0.9819
  633MOL0     H85424   5.213   3.983   3.326 -0.6487 -0.2862 -0.2522
  633MOL0     H85425   5.160   4.230   3.489  0.7215 -0.6128  0.5908
  633MOL0     H85426   5.156   4.066   3.557 -0.4769 -2.8923 -1.4337
  633MOL0     H85427   4.975   4.162   3.344  1.1244 -0.1622  0.5868
  633MOL0     H85428   4.968   4.002   3.420  1.3081 -0.8655  1.5485
  633MOL0     H85429   4.913   4.272   3.551  2.3762  0.2253  0.0209
  633MOL0     H85430   4.922   4.110   3.628  2.1400 -1.2393 -1.2009
  633MOL0     H85431   4.731   4.138   3.403  0.4892  0.2879  0.0823
  633MOL0     H85432   4.746   4.036   3.541  2.3876 -0.2485  0.8593
  633MOL0     H85433   4.672   4.332   3.531 -0.3678  0.9743  0.5541
  633MOL0     H85434   4.687   4.241   3.691 -2.3990  0.3389  1.1896
  633MOL0     H85435   4.492   4.114   3.630 -1.6744 -0.1648 -1.3434
  633MOL0     H85436   4.511   4.189   3.461 -1.1326 -0.1628 -0.0828
  633MOL0     H85437   5.632   4.080   3.298 -1.7642 -2.4249  0.6939
  633MOL0     H85438   5.866   4.135   3.380  0.7380 -0.5332  0.8571
  633MOL0     H85439   6.087   4.323   3.632 -0.6497 -2.0186  0.2932
  633MOL0     H85440   6.290   4.450   3.647  0.0101 -0.0391  0.6272
  633MOL0     H85441   8.316   3.866   3.415 -0.9935 -0.6643  0.7590
  633MOL0     H85442   8.533   3.737   3.402  1.1930 -1.1793  0.5529
  633MOL0     H85443   9.068   3.755   3.635 -2.0307 -1.9822  3.2344
  633MOL0     H85444   9.272   3.601   3.564  1.0206 -0.9276 -2.4129
  633MOL0     H85445   9.150   3.205   3.390 -1.3327  1.7765 -0.2620
  633MOL0     H85446   9.273   3.288   3.298 -1.4958  1.0362 -0.5721
  633MOL0     H85447   9.352   3.077   3.406  0.9677 -1.4503  1.6987
  633MOL0     H85448   9.331   3.145   3.558 -0.7004  0.4624 -0.0668
  633MOL0     H85449   9.489   3.328   3.503  0.9829 -1.8710  1.7561
  633MOL0     H85450   9.510   3.265   3.336  1.3142 -2.7159 -0.2099
  633MOL0     H85451   9.599   3.131   3.598  1.6383 -1.4488  0.1653
  633MOL0     H85452   9.704   3.215   3.494 -2.1573  1.3131  1.0544
  633MOL0     H85453   9.670   2.903   3.233  1.6137 -3.1899  2.3964
  633MOL0     H85454   8.986   3.329   3.415 -0.7276  0.3043  0.5306
  633MOL0     H85455   8.802   3.483   3.442 -0.6736 -1.2928  2.2741
  634MOL0     O85456   6.743   2.717   2.252  0.3149 -0.1064 -0.1008
  634MOL0     C85457   6.735   2.685   2.372  0.0122  0.1689  0.4767
  634MOL0     O85458   6.621   2.689   2.445 -0.2940  0.1683 -0.1016
  634MOL0     C85459   6.506   2.727   2.388  0.5420 -0.2227  0.6431
  634MOL0     C85460   6.474   2.859   2.373  0.3790 -0.7345 -0.0562
  634MOL0     C85461   6.376   2.910   2.293 -0.6074  0.2304 -0.0350
  634MOL0     C85462   6.290   2.816   2.237  0.3344 -0.0743 -0.0682
  634MOL0     O85463   6.185   2.851   2.150  0.5387  0.3439  0.7444
  634MOL0     C85464   6.173   2.994   2.116  0.4312 -0.1168  0.2464
  634MOL0     C85465   6.080   3.012   1.999  0.6087 -0.4264  0.2646
  634MOL0     C85466   5.940   2.992   2.039  0.9763 -0.6903  0.0390
  634MOL0     C85467   5.838   3.032   1.921 -0.2958 -0.1819  0.2055
  634MOL0     C85468   5.704   2.952   1.946  0.1821  1.0789  0.0175
  634MOL0     C85469   5.593   3.008   1.848  0.0848  0.4640 -0.7386
  634MOL0     C85470   5.452   2.944   1.871 -0.0572 -0.1566 -0.6523
  634MOL0     C85471   5.339   3.027   1.796  0.1348  0.2537 -0.8069
  634MOL0     N85472   5.205   2.959   1.786  0.2586 -0.0931 -1.0301
  634MOL0     C85473   5.171   2.845   1.720 -0.5497 -0.3022 -0.4037
  634MOL0     C85474   5.038   2.841   1.725  0.4441  0.4143 -0.4859
  634MOL0     C85475   4.954   2.726   1.674 -0.3444  0.3952 -0.6923
  634MOL0     C85476   4.825   2.705   1.755  0.1595  0.4330  0.2594
  634MOL0     C85477   4.714   2.795   1.704  0.1809 -0.0049  0.1925
  634MOL0     C85478   4.579   2.756   1.756  0.4014 -0.7052 -0.2123
  634MOL0     O85479   4.488   2.853   1.693 -0.3411 -0.4099 -0.9932
  634MOL0     C85480   4.353   2.858   1.723  0.3928 -0.0114  0.7173
  634MOL0     C85481   4.295   2.813   1.843  0.4102  1.2134  0.6882
  634MOL0     C85482   4.159   2.820   1.870 -0.4591  0.2194  0.0239
  634MOL0     C85483   4.109   2.755   1.998 -0.3824 -0.3307  0.4956
  634MOL0     C85484   4.071   2.881   1.778 -0.7688  0.6351  0.5601
  634MOL0     C85485   3.923   2.882   1.775 -0.9339 -0.0428 -0.4747
  634MOL0     O85486   3.855   2.929   1.671  0.7656 -0.6550 -0.7435
  634MOL0     C85487   3.722   2.972   1.687  1.0382 -0.8172  0.1162
  634MOL0     C85488   3.699   3.094   1.744 -0.7064  0.4770 -0.0921
  634MOL0     C85489   3.571   3.158   1.739 -0.6892 -0.0102  0.5292
  634MOL0     C85490   3.455   3.091   1.679 -0.8561 -0.6305  0.0385
  634MOL0     O85491   3.337   3.161   1.676 -0.0059  0.0640 -0.7098
  634MOL0     C85492   3.222   3.079   1.651  0.1182 -0.0580 -0.1001
  634MOL0     C85493   3.084   3.158   1.669 -0.4182 -0.0104 -0.6362
  634MOL0     C85494   2.961   3.068   1.696 -1.0408 -0.3653 -0.0053
  634MOL0     C85495   2.845   3.167   1.711 -0.0084 -0.4055  0.3634
  634MOL0     C85496   2.708   3.096   1.729 -0.4980  0.3934  0.3936
  634MOL0     C85497   2.612   3.198   1.769  0.1052  0.5333  0.5390
  634MOL0     C85498   2.491   3.133   1.827  0.7509  0.3878  0.0659
  634MOL0     C85499   2.412   3.237   1.909  0.0057 -0.2734  0.3817
  634MOL0    Cl85500   2.248   3.176   1.938 -0.2923 -0.4241 -0.0162
  634MOL0     C85501   3.486   2.964   1.619 -0.4209 -0.7431 -0.3684
  634MOL0     C85502   3.613   2.900   1.630 -0.4111 -0.1640  0.6659
  634MOL0     O85503   3.871   2.836   1.880 -0.9278  0.1954 -0.2429
  634MOL0     C85504   4.135   2.936   1.663 -0.2514  0.2458  0.4089
  634MOL0     C85505   4.266   2.922   1.636  0.1608  0.4079 -0.0822
  634MOL0     N85506   4.993   2.955   1.798  0.0006  0.7159  0.1441
  634MOL0     N85507   5.095   3.019   1.836  0.5223 -0.0797 -0.0597
  634MOL0     C85508   6.318   2.678   2.251  0.2745 -0.0600  0.0962
  634MOL0     C85509   6.423   2.641   2.336 -0.1338  0.6211  0.5831
  634MOL0     C85510   6.862   2.641   2.440 -0.2886  0.0508  0.1533
  634MOL0     C85511   6.862   2.616   2.579  0.0309 -0.2983 -0.0634
  634MOL0     C85512   6.978   2.554   2.630  0.0880 -0.6640 -0.2417
  634MOL0     C85513   7.095   2.524   2.561 -0.2991  0.4369  0.0929
  634MOL0     O85514   7.201   2.448   2.610  0.0475  0.8123 -0.2517
  634MOL0     C85515   7.328   2.452   2.537 -0.9815  0.2394 -0.0362
  634MOL0     C85516   7.451   2.403   2.619 -0.0700  0.5461  0.7429
  634MOL0     C85517   7.508   2.499   2.725  0.2980  0.3241 -0.6879
  634MOL0     C85518   7.442   2.495   2.859  0.2084  0.3254  0.0919
  634MOL0     C85519   7.524   2.580   2.950 -0.2913  0.1002 -0.4454
  634MOL0     C85520   7.588   2.638   3.038  0.6929 -0.9217  0.1108
  634MOL0     C85521   7.094   2.574   2.430  0.3902  0.3402  0.1749
  634MOL0     C85522   6.978   2.625   2.367 -0.8578  0.6145  0.3044
  634MOL0     H85523   6.536   2.926   2.432 -1.2564 -1.7979  3.1280
  634MOL0     H85524   6.372   3.017   2.275  0.2146  0.0237 -1.5887
  634MOL0     H85525   6.138   3.054   2.200 -0.6868  2.5452 -1.9709
  634MOL0     H85526   6.266   3.042   2.084 -0.0830  1.2246  0.7071
  634MOL0     H85527   6.087   3.108   1.947  0.8224 -0.0289  1.0269
  634MOL0     H85528   6.092   2.928   1.929 -2.9292 -1.7791  1.0999
  634MOL0     H85529   5.916   2.886   2.048  0.4110 -0.7398 -1.6188
  634MOL0     H85530   5.902   3.051   2.123 -2.3736  1.6488 -2.8059
  634MOL0     H85531   5.820   3.140   1.928  0.8132  0.0220  0.0148
  634MOL0     H85532   5.875   3.006   1.821 -0.7053 -0.5674  0.1542
  634MOL0     H85533   5.725   2.846   1.931  1.2908  1.1036  1.1918
  634MOL0     H85534   5.661   2.965   2.045 -1.6111 -1.3306 -0.3617
  634MOL0     H85535   5.587   3.113   1.876 -0.8566 -0.0456  1.1666
  634MOL0     H85536   5.631   2.989   1.747  3.0616 -1.9566  0.6612
  634MOL0     H85537   5.453   2.848   1.817  1.3396  1.4904 -3.8593
  634MOL0     H85538   5.436   2.944   1.979 -1.1901 -1.3464 -0.7916
  634MOL0     H85539   5.365   3.044   1.691 -1.4351 -0.4095 -1.3385
  634MOL0     H85540   5.332   3.123   1.848  3.0205 -0.9369  2.1083
  634MOL0     H85541   5.239   2.767   1.686  1.6055  1.0455  0.6428
  634MOL0     H85542   4.932   2.748   1.570  1.0301  0.5313 -0.9784
  634MOL0     H85543   5.021   2.639   1.674  0.8283  1.2790 -1.2531
  634MOL0     H85544   4.841   2.725   1.861  2.2400 -0.0520  0.0827
  634MOL0     H85545   4.791   2.601   1.741 -1.0143  0.8395 -0.0152
  634MOL0     H85546   4.690   2.798   1.597 -1.9967 -0.0757  0.6242
  634MOL0     H85547   4.732   2.895   1.743 -0.3925  1.0236 -2.0000
  634MOL0     H85548   4.575   2.773   1.864 -1.4096  2.0485 -0.5978
  634MOL0     H85549   4.550   2.657   1.719 -2.4301  0.2990 -0.9587
  634MOL0     H85550   4.356   2.758   1.914 -0.1699 -1.9189 -1.0242
  634MOL0     H85551   4.038   2.827   2.040  1.0078 -0.2280  2.8407
  634MOL0     H85552   4.061   2.661   1.972  2.6782 -2.3010  1.4884
  634MOL0     H85553   4.186   2.743   2.074  0.3113  3.1062  0.5187
  634MOL0     H85554   3.776   3.148   1.798  0.9578 -0.4035 -1.4944
  634MOL0     H85555   3.560   3.262   1.766  1.0765  0.1513  0.7174
  634MOL0     H85556   3.224   3.036   1.551  2.3187  2.5141 -1.2827
  634MOL0     H85557   3.212   2.993   1.718 -2.5378  0.6181  0.5096
  634MOL0     H85558   3.095   3.224   1.755  1.5974 -0.9738 -0.1075
  634MOL0     H85559   3.072   3.236   1.593  0.8829  0.8054 -0.0435
  634MOL0     H85560   2.967   3.006   1.787 -3.3218  0.4589  0.7725
  634MOL0     H85561   2.930   3.007   1.611  1.0195  0.7399 -1.6345
  634MOL0     H85562   2.869   3.227   1.799  1.2533 -2.3420  1.3954
  634MOL0     H85563   2.848   3.226   1.619  1.3283  0.1409  0.7295
  634MOL0     H85564   2.714   3.019   1.806 -1.7673  1.2256  1.3539
  634MOL0     H85565   2.689   3.055   1.629  1.8118 -0.5447  0.2724
  634MOL0     H85566   2.652   3.248   1.858  0.1673 -0.1706  0.9105
  634MOL0     H85567   2.586   3.274   1.694 -1.5114 -0.0187  0.5031
  634MOL0     H85568   2.515   3.041   1.882 -1.5956 -1.1052 -1.2420
  634MOL0     H85569   2.428   3.094   1.747  1.4090 -1.5191  0.4158
  634MOL0     H85570   2.405   3.328   1.850 -1.5055 -1.5342 -1.4873
  634MOL0     H85571   2.469   3.252   2.001  0.1863 -1.3006  0.4527
  634MOL0     H85572   3.412   2.902   1.570  2.7594 -1.7830 -4.3374
  634MOL0     H85573   3.628   2.806   1.579 -0.1135 -0.2363  0.8808
  634MOL0     H85574   4.079   2.980   1.581  0.1300 -0.4674 -0.2476
  634MOL0     H85575   4.308   2.968   1.547 -0.9117 -1.5271 -1.6546
  634MOL0     H85576   6.254   2.605   2.204  0.1549 -0.4055  0.7763
  634MOL0     H85577   6.449   2.540   2.366 -2.0620 -0.0661  0.0968
  634MOL0     H85578   6.779   2.638   2.644  0.4769 -1.4704  0.9508
  634MOL0     H85579   6.964   2.512   2.729 -0.2755 -2.0707 -0.8570
  634MOL0     H85580   7.317   2.396   2.444  0.9144  0.5646 -0.4983
  634MOL0     H85581   7.353   2.555   2.510 -1.1710 -0.2443 -2.2937
  634MOL0     H85582   7.527   2.375   2.546 -0.6292 -1.9458  1.0000
  634MOL0     H85583   7.421   2.310   2.669 -0.4290 -0.6513 -1.5435
  634MOL0     H85584   7.489   2.599   2.686  1.5685  0.9371  0.2071
  634MOL0     H85585   7.614   2.479   2.741 -0.6057 -2.5785  3.2818
  634MOL0     H85586   7.453   2.396   2.904  0.7460 -0.8812 -2.5192
  634MOL0     H85587   7.337   2.524   2.850  0.3662  1.3743  1.3042
  634MOL0     H85588   7.628   2.699   3.117 -3.2376  1.8316  0.2574
  634MOL0     H85589   7.179   2.571   2.363  0.1526  2.2187 -0.2478
  634MOL0     H85590   6.983   2.650   2.262  0.3306  1.8910  0.6376
  635MOL0     O85591   8.504   7.358   5.727 -0.0156 -0.0856 -0.3310
  635MOL0     C85592   8.585   7.396   5.808  0.5202  0.4534 -0.9332
  635MOL0     O85593   8.583   7.362   5.942  0.1490 -0.2283  0.5689
  635MOL0     C85594   8.469   7.347   6.015  0.6906 -0.0683 -0.0108
  635MOL0     C85595   8.331   7.342   5.959 -0.6875 -0.1719 -0.2184
  635MOL0     C85596   8.223   7.312   6.042 -0.8690  0.2933  0.2057
  635MOL0     C85597   8.245   7.292   6.180  0.0089  0.1429 -0.0012
  635MOL0     O85598   8.144   7.271   6.271 -0.4515  0.2237  0.1153
  635MOL0     C85599   8.012   7.252   6.244  0.1634  1.0128  0.0930
  635MOL0     C85600   7.947   7.234   6.383  0.5967  0.0427  0.4865
  635MOL0     C85601   7.801   7.234   6.367 -0.2108 -0.6064  0.4299
  635MOL0     C85602   7.742   7.226   6.506  0.5414  0.8880 -0.3591
  635MOL0     C85603   7.592   7.205   6.496  0.7461  0.4912 -0.1460
  635MOL0     C85604   7.543   7.185   6.635 -0.1082  0.0029  0.2920
  635MOL0     C85605   7.388   7.178   6.633 -1.0418 -0.3762  0.9005
  635MOL0     C85606   7.337   7.319   6.615 -0.5347  0.3548  0.5975
  635MOL0     N85607   7.190   7.318   6.595 -0.0608 -0.0111  0.3163
  635MOL0     C85608   7.128   7.285   6.475  0.2397 -0.1506  0.0334
  635MOL0     C85609   7.000   7.258   6.504  0.3080  0.0148 -0.3394
  635MOL0     C85610   6.882   7.208   6.426  0.0107  0.0600  0.0005
  635MOL0     C85611   6.781   7.315   6.390 -0.1677 -0.0437 -0.4222
  635MOL0     C85612   6.665   7.281   6.290 -0.0541 -0.3936  0.1381
  635MOL0     C85613   6.565   7.383   6.316  0.5872  0.7408  0.5485
  635MOL0     O85614   6.466   7.348   6.215 -0.3786  0.8076  0.6183
  635MOL0     C85615   6.342   7.399   6.214  0.9012 -0.8336 -0.0793
  635MOL0     C85616   6.261   7.382   6.100 -0.4242  0.4358 -0.0677
  635MOL0     C85617   6.128   7.422   6.098 -0.2302 -0.5870 -0.1525
  635MOL0     C85618   6.050   7.376   5.975 -0.0619 -0.4631 -0.6133
  635MOL0     C85619   6.078   7.501   6.206  0.1990 -0.1285 -0.2802
  635MOL0     C85620   5.938   7.561   6.208  0.5125 -0.0055  0.1576
  635MOL0     O85621   5.906   7.681   6.266 -0.0064  0.1379  1.0503
  635MOL0     C85622   5.777   7.729   6.283  0.0470  0.0010  0.0660
  635MOL0     C85623   5.700   7.687   6.389 -0.2228 -0.0386  0.2509
  635MOL0     C85624   5.578   7.750   6.422  0.6958  0.2382  0.3214
  635MOL0     C85625   5.532   7.867   6.348  0.1041 -0.6242  0.4160
  635MOL0     O85626   5.421   7.940   6.369 -0.1444  0.2403  0.0199
  635MOL0     C85627   5.335   7.894   6.473 -0.8062  0.0191 -0.3377
  635MOL0     C85628   5.221   7.988   6.489 -0.1110 -0.0986 -0.0291
  635MOL0     C85629   5.124   7.931   6.590 -0.2412  0.9127 -0.3171
  635MOL0     C85630   4.994   8.010   6.586 -0.0331  0.0800  0.4428
  635MOL0     C85631   4.894   7.966   6.684 -0.6703 -0.3251  0.0635
  635MOL0     C85632   4.774   8.050   6.671  0.0185 -0.7029  0.5379
  635MOL0     C85633   4.670   8.026   6.779  0.4409  0.7925  0.5390
  635MOL0     C85634   4.530   8.070   6.744  0.4895  0.7080  0.0290
  635MOL0    Cl85635   4.415   7.988   6.864 -0.1789 -0.1415  0.0641
  635MOL0     C85636   5.622   7.913   6.255 -0.9021 -0.3693  0.2074
  635MOL0     C85637   5.736   7.847   6.219 -0.2340  0.0671 -0.3635
  635MOL0     O85638   5.853   7.482   6.167 -1.0977  0.3338  0.2410
  635MOL0     C85639   6.166   7.542   6.308  0.2162  0.5209 -0.1721
  635MOL0     C85640   6.296   7.488   6.314 -0.5337  0.0368 -0.3226
  635MOL0     N85641   6.983   7.273   6.643 -0.6252 -0.0427 -0.0931
  635MOL0     N85642   7.096   7.312   6.695  0.2302 -0.6945  0.5144
  635MOL0     C85643   8.376   7.300   6.228  0.1861  0.4093  0.1296
  635MOL0     C85644   8.487   7.319   6.145 -0.0498  0.1815  0.5380
  635MOL0     C85645   8.705   7.461   5.763  0.1806  0.1138  0.1597
  635MOL0     C85646   8.807   7.507   5.846  0.5279  0.6253 -0.5144
  635MOL0     C85647   8.918   7.575   5.793 -0.0018  0.4990 -0.1295
  635MOL0     C85648   8.934   7.605   5.656 -0.1312  0.0780  0.1381
  635MOL0     O85649   9.042   7.663   5.601  0.4061 -0.5200  0.0217
  635MOL0     C85650   9.130   7.741   5.681  0.0083 -0.8413 -0.3216
  635MOL0     C85651   9.230   7.798   5.581 -0.0767 -0.0027 -0.2047
  635MOL0     C85652   9.325   7.897   5.638 -0.6109 -0.0979 -0.3151
  635MOL0     C85653   9.416   7.973   5.537 -0.4290 -0.0671 -0.4073
  635MOL0     C85654   9.332   8.076   5.479  0.6025  0.1784 -0.9187
  635MOL0     C85655   9.249   8.144   5.421 -0.1880  0.0558 -0.0480
  635MOL0     C85656   8.836   7.564   5.572 -0.0819 -0.5705 -0.2624
  635MOL0     C85657   8.724   7.496   5.622 -0.6886 -1.0729  0.2267
  635MOL0     H85658   8.310   7.380   5.859 -2.0128 -0.7498 -0.1798
  635MOL0     H85659   8.123   7.306   6.001 -0.3156  2.9332 -1.8239
  635MOL0     H85660   7.978   7.341   6.192 -0.7588 -0.3088 -1.6772
  635MOL0     H85661   7.996   7.164   6.181  0.3645  1.7217 -0.9657
  635MOL0     H85662   7.982   7.141   6.427 -2.7690 -1.4482  0.3436
  635MOL0     H85663   7.977   7.322   6.441  2.2033 -0.3824  0.3549
  635MOL0     H85664   7.755   7.318   6.313 -0.1954 -0.3962  0.7405
  635MOL0     H85665   7.776   7.142   6.315 -2.3390  0.5308 -0.7152
  635MOL0     H85666   7.786   7.142   6.561  1.2851  0.6965 -1.2327
  635MOL0     H85667   7.757   7.320   6.559  2.6663 -0.5044  1.7662
  635MOL0     H85668   7.553   7.299   6.454  1.0938  1.1081  0.8818
  635MOL0     H85669   7.578   7.112   6.440  1.7306 -0.2765  0.8338
  635MOL0     H85670   7.580   7.090   6.674 -2.7059 -1.4123 -0.4621
  635MOL0     H85671   7.582   7.258   6.706 -1.7044  1.8180 -0.6226
  635MOL0     H85672   7.362   7.113   6.550 -1.7896 -1.8714  2.2631
  635MOL0     H85673   7.356   7.131   6.727  1.8855 -1.6511  1.3812
  635MOL0     H85674   7.393   7.372   6.537 -0.4471  2.2354  1.8840
  635MOL0     H85675   7.348   7.376   6.708  0.9189  3.2480 -1.1827
  635MOL0     H85676   7.172   7.271   6.377  1.4693 -1.5410  0.7566
  635MOL0     H85677   6.910   7.163   6.330 -2.2540  0.9496 -1.1743
  635MOL0     H85678   6.837   7.129   6.487  2.4218 -1.3331  0.1164
  635MOL0     H85679   6.840   7.392   6.339  2.7451 -1.2879  0.8081
  635MOL0     H85680   6.754   7.359   6.487  0.4429 -1.7206  0.5497
  635MOL0     H85681   6.620   7.182   6.291 -1.2469  0.0657 -1.8384
  635MOL0     H85682   6.694   7.299   6.186  0.3196  1.3737  0.5153
  635MOL0     H85683   6.607   7.483   6.300 -0.6918  0.9261 -2.2594
  635MOL0     H85684   6.521   7.380   6.416 -4.1715  1.8539 -1.2177
  635MOL0     H85685   6.315   7.335   6.019  2.9701  2.1108  1.0195
  635MOL0     H85686   5.964   7.442   5.964 -0.1295 -0.0429  1.8593
  635MOL0     H85687   6.107   7.376   5.882  1.2021  0.2597  0.1366
  635MOL0     H85688   6.018   7.273   5.993  0.4980 -0.3122  1.5018
  635MOL0     H85689   5.735   7.595   6.435 -0.6421  0.3283  1.3472
  635MOL0     H85690   5.521   7.697   6.497  1.1029  0.7490  1.0037
  635MOL0     H85691   5.307   7.795   6.436  3.6515 -1.2751 -0.7851
  635MOL0     H85692   5.393   7.881   6.564  0.8545 -0.0245 -1.3681
  635MOL0     H85693   5.251   8.092   6.505 -0.1093  0.4450 -2.8803
  635MOL0     H85694   5.168   7.988   6.393  0.7401 -0.5675 -0.5234
  635MOL0     H85695   5.174   7.939   6.687 -0.4386  2.6471 -0.3305
  635MOL0     H85696   5.094   7.828   6.567  0.0582  0.9112 -0.7068
  635MOL0     H85697   5.013   8.113   6.620  0.3269 -0.4677  1.9809
  635MOL0     H85698   4.943   8.008   6.489 -1.7448  0.5581  1.2954
  635MOL0     H85699   4.937   7.982   6.783  1.9554  0.8895 -1.1802
  635MOL0     H85700   4.869   7.861   6.668  2.9515 -1.0825 -1.5506
  635MOL0     H85701   4.799   8.156   6.669 -1.5347 -0.2814  1.9066
  635MOL0     H85702   4.719   8.035   6.577 -1.1728  1.0026  0.9132
  635MOL0     H85703   4.703   8.056   6.879 -0.6118 -2.4738  2.0244
  635MOL0     H85704   4.662   7.917   6.788  0.2713  0.5682 -1.8008
  635MOL0     H85705   4.513   8.037   6.641  2.7857  0.7233 -0.4148
  635MOL0     H85706   4.523   8.179   6.757  0.8758  0.7363 -0.0012
  635MOL0     H85707   5.603   8.008   6.205  3.7485  1.2403  1.0491
  635MOL0     H85708   5.797   7.893   6.143  0.2158 -1.2436 -0.8246
  635MOL0     H85709   6.138   7.613   6.385  0.4124 -0.0109  0.3860
  635MOL0     H85710   6.362   7.519   6.394 -1.0970 -0.9453  0.5399
  635MOL0     H85711   8.398   7.281   6.332  1.9188  0.4915 -0.1940
  635MOL0     H85712   8.591   7.314   6.174  1.5093  1.1038 -4.1515
  635MOL0     H85713   8.795   7.478   5.950  0.3487  3.6572  0.3992
  635MOL0     H85714   8.995   7.596   5.866  2.8373  0.1582 -2.8034
  635MOL0     H85715   9.074   7.820   5.730  1.8998  0.1051  0.3994
  635MOL0     H85716   9.179   7.680   5.757  3.8012  0.2013 -1.6898
  635MOL0     H85717   9.164   7.842   5.506  0.8772  1.6806 -0.1147
  635MOL0     H85718   9.280   7.717   5.527 -1.7994 -1.4814  0.3096
  635MOL0     H85719   9.374   7.842   5.719 -1.0475 -0.0145  0.0101
  635MOL0     H85720   9.267   7.973   5.691  0.0488 -2.0182  3.5033
  635MOL0     H85721   9.443   7.907   5.454  0.8617 -0.2047  0.0954
  635MOL0     H85722   9.505   8.019   5.582  0.8548 -0.4761 -2.4029
  635MOL0     H85723   9.179   8.211   5.377  0.9346  0.7610 -0.8207
  635MOL0     H85724   8.844   7.582   5.465 -0.8935 -2.7589 -0.7432
  635MOL0     H85725   8.644   7.467   5.555 -1.2494 -2.7870  1.5539
  636MOL0     O85726   4.311   4.625   3.934  0.2319 -0.1729  0.5629
  636MOL0     C85727   4.258   4.540   3.866 -0.5033 -0.3608  0.2070
  636MOL0     O85728   4.221   4.411   3.906 -0.6608 -0.4637 -0.2842
  636MOL0     C85729   4.280   4.369   4.026 -0.3670 -0.3264 -0.5779
  636MOL0     C85730   4.417   4.339   4.030  0.4311 -0.1337  0.6459
  636MOL0     C85731   4.482   4.279   4.139  0.0180  0.3394  0.4010
  636MOL0     C85732   4.406   4.243   4.253 -0.2284 -0.7149 -0.5508
  636MOL0     O85733   4.475   4.194   4.358  0.5414 -0.1055  0.5942
  636MOL0     C85734   4.433   4.073   4.412  0.1411  0.0882  0.2048
  636MOL0     C85735   4.567   4.007   4.475  0.3677  0.3629  0.0920
  636MOL0     C85736   4.532   3.897   4.584 -0.3934 -0.3217  0.4152
  636MOL0     C85737   4.670   3.851   4.628  0.0145 -0.1817  0.5418
  636MOL0     C85738   4.658   3.716   4.710  0.7022  0.2531  0.0363
  636MOL0     C85739   4.794   3.646   4.735 -0.7162 -0.9516  0.2052
  636MOL0     C85740   4.769   3.504   4.804 -0.6479 -0.6590  0.3908
  636MOL0     C85741   4.901   3.430   4.784 -0.2341 -0.2766 -0.9674
  636MOL0     N85742   4.894   3.302   4.859 -0.0162 -0.8087  0.1232
  636MOL0     C85743   4.798   3.205   4.831  0.1224  0.3942 -1.2007
  636MOL0     C85744   4.829   3.111   4.922 -0.4281  0.7701 -0.5387
  636MOL0     C85745   4.752   2.986   4.927  0.7035 -0.3957 -0.3941
  636MOL0     C85746   4.617   3.005   4.984 -0.0239  0.2501  0.1858
  636MOL0     C85747   4.610   3.076   5.124  0.0952  0.2549 -0.2467
  636MOL0     C85748   4.486   3.038   5.216 -0.3570  0.4455 -0.0991
  636MOL0     O85749   4.363   3.078   5.149 -1.0411  0.3812 -0.8442
  636MOL0     C85750   4.251   3.109   5.218  0.9420 -0.4246 -0.1949
  636MOL0     C85751   4.242   3.109   5.362  0.2225  0.3928  0.0078
  636MOL0     C85752   4.124   3.145   5.426 -0.0219  0.9018 -0.5691
  636MOL0     C85753   4.115   3.154   5.576  0.4285  0.1612 -0.0427
  636MOL0     C85754   4.013   3.187   5.346  0.7405  0.4706  0.1432
  636MOL0     C85755   3.886   3.233   5.406  0.3552 -1.2422  0.3122
  636MOL0     O85756   3.881   3.325   5.508  0.8798  0.0735  0.4639
  636MOL0     C85757   3.760   3.344   5.570  0.4396 -0.0774 -0.3666
  636MOL0     C85758   3.684   3.236   5.625  0.5466 -0.1142  0.8520
  636MOL0     C85759   3.573   3.245   5.703  0.7717 -0.3865  1.3927
  636MOL0     C85760   3.525   3.382   5.726  0.3411 -0.2672  0.3250
  636MOL0     O85761   3.416   3.398   5.805 -0.0666 -0.3188  0.0517
  636MOL0     C85762   3.318   3.487   5.750  0.2096 -0.0349 -0.1131
  636MOL0     C85763   3.199   3.480   5.847  0.4332 -0.3115  0.7004
  636MOL0     C85764   3.093   3.579   5.810 -0.0738  0.5621 -0.9479
  636MOL0     C85765   2.956   3.545   5.870 -0.3270 -0.0292 -0.2812
  636MOL0     C85766   2.866   3.666   5.842  0.1015  0.2354 -0.4020
  636MOL0     C85767   2.725   3.660   5.916 -0.3318  0.2602 -0.2851
  636MOL0     C85768   2.649   3.787   5.884  0.6122 -0.0221  0.5193
  636MOL0     C85769   2.499   3.767   5.927  0.7374 -0.0527  0.2261
  636MOL0    Cl85770   2.480   3.654   6.075  0.4365  0.3644  0.5116
  636MOL0     C85771   3.587   3.501   5.668  0.0322  0.1455  0.5920
  636MOL0     C85772   3.713   3.477   5.603  0.3675 -0.4747  0.2196
  636MOL0     O85773   3.788   3.193   5.345  0.6978  0.4284  0.0313
  636MOL0     C85774   4.018   3.177   5.204 -0.5238  0.3087 -0.1152
  636MOL0     C85775   4.138   3.135   5.139 -0.5211 -0.5483  0.0091
  636MOL0     N85776   4.930   3.143   5.004  0.0762 -0.2372  0.0210
  636MOL0     N85777   4.964   3.263   4.972  0.2977  0.3617 -0.3225
  636MOL0     C85778   4.273   4.291   4.259  0.3336  0.8682  0.4943
  636MOL0     C85779   4.213   4.351   4.147 -0.6092  0.0046 -0.5093
  636MOL0     C85780   4.189   4.577   3.738 -0.8881  0.6185  0.3470
  636MOL0     C85781   4.225   4.692   3.670 -0.4684  0.0341 -0.5828
  636MOL0     C85782   4.179   4.723   3.543  0.0613 -0.2143 -0.1878
  636MOL0     C85783   4.076   4.653   3.484  0.1209  0.9101  0.2398
  636MOL0     O85784   4.031   4.672   3.354 -0.2660  0.2190  0.2923
  636MOL0     C85785   4.098   4.761   3.264 -0.0321 -0.4572 -0.3518
  636MOL0     C85786   4.047   4.904   3.275 -0.2175 -0.6846 -0.4896
  636MOL0     C85787   3.889   4.912   3.262  0.6376  0.1247 -0.8116
  636MOL0     C85788   3.832   5.054   3.281 -0.2210  0.5511  0.4875
  636MOL0     C85789   3.688   5.060   3.262 -0.1836  0.3503 -0.0484
  636MOL0     C85790   3.570   5.064   3.248  0.2318  0.6964  0.5025
  636MOL0     C85791   4.024   4.547   3.561 -0.8956  0.3827 -0.5580
  636MOL0     C85792   4.079   4.507   3.686  0.0449 -0.0397  0.0909
  636MOL0     H85793   4.491   4.361   3.954  2.2691  0.1550  2.4403
  636MOL0     H85794   4.589   4.262   4.127 -0.0665 -1.5694  1.8512
  636MOL0     H85795   4.363   4.096   4.493  0.4827  2.9005 -0.2057
  636MOL0     H85796   4.397   4.013   4.328  0.8401 -0.8081  0.5367
  636MOL0     H85797   4.617   3.959   4.390  1.2414 -0.2220  0.9246
  636MOL0     H85798   4.629   4.089   4.511 -1.9800  2.4261 -0.3080
  636MOL0     H85799   4.475   3.938   4.668  0.4410  0.2791  0.7008
  636MOL0     H85800   4.480   3.813   4.536  0.7759 -0.0387 -1.4247
  636MOL0     H85801   4.740   3.849   4.544  0.7636  1.4345  1.0906
  636MOL0     H85802   4.710   3.930   4.692  0.7910 -1.1780  1.3447
  636MOL0     H85803   4.604   3.742   4.801 -0.9252 -0.1982 -0.7621
  636MOL0     H85804   4.601   3.646   4.648  1.3869  0.0045 -0.3360
  636MOL0     H85805   4.853   3.641   4.643  2.0650  1.1233  1.7267
  636MOL0     H85806   4.852   3.712   4.799  0.0231  0.4863 -1.8355
  636MOL0     H85807   4.744   3.523   4.909  1.2996 -0.1253  0.8019
  636MOL0     H85808   4.690   3.449   4.752  0.8711 -3.5242  0.9723
  636MOL0     H85809   4.979   3.486   4.838 -2.1400  1.4295  0.1797
  636MOL0     H85810   4.935   3.422   4.681  1.3172 -0.1234 -0.5018
  636MOL0     H85811   4.726   3.203   4.749  0.9297  1.7587 -1.9713
  636MOL0     H85812   4.760   2.933   4.831  1.5332  0.4506 -0.8029
  636MOL0     H85813   4.805   2.919   4.995 -2.2346 -2.1239  0.4213
  636MOL0     H85814   4.570   2.907   4.995 -0.7253  0.5928  0.2918
  636MOL0     H85815   4.558   3.061   4.911 -1.9975 -0.1442  1.3927
  636MOL0     H85816   4.608   3.184   5.108 -2.3583  0.3520  0.3598
  636MOL0     H85817   4.695   3.059   5.192 -0.8011 -1.4148  0.5362
  636MOL0     H85818   4.495   3.098   5.307 -1.3362  1.5326 -0.7013
  636MOL0     H85819   4.486   2.930   5.234 -2.2458  0.4066 -0.0618
  636MOL0     H85820   4.326   3.096   5.430  0.2355  3.5640  0.7580
  636MOL0     H85821   4.013   3.120   5.596  0.2740 -0.4609 -1.6868
  636MOL0     H85822   4.180   3.084   5.630 -0.3538  0.8032  1.8265
  636MOL0     H85823   4.131   3.255   5.614  0.7453 -0.6817  2.2522
  636MOL0     H85824   3.721   3.136   5.608  0.5577 -0.7347  4.0300
  636MOL0     H85825   3.515   3.163   5.743  2.7923 -2.4933  0.2241
  636MOL0     H85826   3.353   3.591   5.748 -3.2322  1.2544 -1.9406
  636MOL0     H85827   3.288   3.476   5.646  4.0210  3.1223 -1.8233
  636MOL0     H85828   3.157   3.379   5.847  0.2974 -0.3772 -2.5807
  636MOL0     H85829   3.229   3.513   5.947  2.5011  1.1652 -0.3309
  636MOL0     H85830   3.072   3.567   5.703 -2.2748  3.6828 -1.0199
  636MOL0     H85831   3.129   3.681   5.828  0.7896 -0.0244  0.8068
  636MOL0     H85832   2.893   3.461   5.838 -0.2566 -0.7717  1.3776
  636MOL0     H85833   2.973   3.529   5.977 -2.0477 -2.0175 -0.2447
  636MOL0     H85834   2.856   3.676   5.734  0.6625 -1.2113 -0.6077
  636MOL0     H85835   2.920   3.757   5.871  1.5017 -0.5539 -0.4522
  636MOL0     H85836   2.665   3.572   5.892 -2.0466  1.6468 -1.3633
  636MOL0     H85837   2.749   3.645   6.021 -2.9764 -0.5581  0.2887
  636MOL0     H85838   2.636   3.799   5.776  0.4212 -1.7198  0.3206
  636MOL0     H85839   2.686   3.880   5.927  1.7282 -0.2605  0.1089
  636MOL0     H85840   2.450   3.714   5.845  0.2694 -1.1547  1.1915
  636MOL0     H85841   2.458   3.865   5.955  4.1888  1.0361  2.0396
  636MOL0     H85842   3.545   3.599   5.688 -2.8107 -1.4256  3.1619
  636MOL0     H85843   3.768   3.565   5.570 -2.4750  0.5964 -2.1960
  636MOL0     H85844   3.935   3.201   5.138 -0.4057 -1.1440 -0.8323
  636MOL0     H85845   4.141   3.128   5.031 -1.4501  2.8701 -0.3352
  636MOL0     H85846   4.209   4.290   4.346 -1.5615  4.3324 -0.6528
  636MOL0     H85847   4.111   4.385   4.162  0.0060  1.2313  1.2076
  636MOL0     H85848   4.289   4.769   3.710  2.1476 -0.1526 -3.9213
  636MOL0     H85849   4.214   4.818   3.504 -0.0938  1.0250  2.4294
  636MOL0     H85850   4.207   4.748   3.262  0.4739  2.8900 -1.4103
  636MOL0     H85851   4.073   4.712   3.170  2.0562 -1.4839 -0.4403
  636MOL0     H85852   4.102   4.965   3.202 -0.1185 -3.5675 -3.0490
  636MOL0     H85853   4.082   4.936   3.373  1.3195 -3.1209 -0.1751
  636MOL0     H85854   3.852   4.840   3.336 -1.5184 -0.2499 -2.1784
  636MOL0     H85855   3.854   4.863   3.172 -0.1914 -0.3919 -0.2202
  636MOL0     H85856   3.886   5.129   3.222 -1.2909  0.2365 -0.9152
  636MOL0     H85857   3.845   5.084   3.386 -1.2839  1.6347  0.3263
  636MOL0     H85858   3.463   5.067   3.236  0.3168 -1.1590 -1.2141
  636MOL0     H85859   3.943   4.493   3.513 -0.6515  0.2979 -0.8825
  636MOL0     H85860   4.054   4.413   3.735  3.3533 -1.1797 -0.1746
  637MOL0     O85861   1.623   5.201   2.673 -0.6009  0.0940  0.1092
  637MOL0     C85862   1.738   5.177   2.719  0.0168 -0.2612  0.1944
  637MOL0     O85863   1.789   5.052   2.749 -0.4520 -0.2809 -0.3918
  637MOL0     C85864   1.705   4.944   2.718 -0.9190 -0.1067 -0.9310
  637MOL0     C85865   1.577   4.930   2.771 -0.1802  0.8895 -0.4644
  637MOL0     C85866   1.509   4.813   2.727 -0.8271  0.3470  0.7907
  637MOL0     C85867   1.561   4.733   2.622 -0.5576 -0.1788 -0.6559
  637MOL0     O85868   1.488   4.630   2.580  1.0857  0.1370 -0.5367
  637MOL0     C85869   1.372   4.666   2.495  0.9134 -0.5024 -0.4337
  637MOL0     C85870   1.368   4.557   2.395  0.1482 -0.6776  0.7378
  637MOL0     C85871   1.265   4.577   2.285 -0.0688 -0.2106  0.5028
  637MOL0     C85872   1.247   4.450   2.203 -0.2037 -0.5812 -0.9901
  637MOL0     C85873   1.138   4.460   2.099 -0.2898 -0.1845 -0.7738
  637MOL0     C85874   1.171   4.555   1.982  0.3183 -0.9765  1.1401
  637MOL0     C85875   1.043   4.594   1.908  0.6512  0.2874  0.3800
  637MOL0     C85876   1.052   4.705   1.804 -0.2516  0.3134  0.2853
  637MOL0     N85877   0.917   4.731   1.752 -0.3458  0.1912  0.3020
  637MOL0     C85878   0.819   4.642   1.711 -0.1035 -0.4505  0.4554
  637MOL0     C85879   0.709   4.717   1.679  1.0445  0.3321 -0.6778
  637MOL0     C85880   0.575   4.665   1.636 -0.5886  0.0133 -0.8012
  637MOL0     C85881   0.514   4.564   1.727 -0.1509 -0.1744 -0.7508
  637MOL0     C85882   0.375   4.537   1.667  0.0822  0.0758 -0.1181
  637MOL0     C85883   0.313   4.415   1.738  0.6360  0.1478  0.5055
  637MOL0     O85884   0.365   4.287   1.685  0.0229  0.3650  0.0858
  637MOL0     C85885   0.340   4.181   1.767 -0.7702 -0.1417  0.7316
  637MOL0     C85886   0.285   4.073   1.710  0.0443  0.9978  0.7414
  637MOL0     C85887   0.238   3.969   1.781 -0.1366 -0.2061  0.0986
  637MOL0     C85888   0.144   3.864   1.724 -0.4892 -0.4127 -0.1790
  637MOL0     C85889   0.268   3.957   1.916 -0.0021 -0.6464 -0.9007
  637MOL0     C85890   0.212   3.847   2.009  0.5987  0.4418  0.6762
  637MOL0     O85891   0.207   3.890   2.135 -1.1226  0.1058  0.4368
  637MOL0     C85892   0.154   3.807   2.225 -0.3085  0.2953 -0.5478
  637MOL0     C85893   0.013   3.795   2.245 -0.8342 -0.0196 -0.0020
  637MOL0     C85894  -0.030   3.711   2.350  1.0169  0.5615  0.2247
  637MOL0     C85895   0.055   3.618   2.415  1.0460 -0.4738 -0.6980
  637MOL0     O85896   0.018   3.523   2.508 -0.2469  0.1601 -0.2588
  637MOL0     C85897  -0.118   3.517   2.560 -0.4462  0.7162  0.1076
  637MOL0     C85898  -0.133   3.404   2.663  0.2663 -0.0957  0.0711
  637MOL0     C85899  -0.094   3.269   2.608 -0.5862  0.0990 -0.5616
  637MOL0     C85900  -0.092   3.154   2.707 -0.3984 -0.1415 -0.7683
  637MOL0     C85901  -0.068   3.014   2.639  0.2097  0.0420  0.3887
  637MOL0     C85902   0.050   3.015   2.554 -0.7700  0.3181  0.6950
  637MOL0     C85903   0.075   2.884   2.477  0.1277 -0.9617  0.1992
  637MOL0     C85904   0.160   2.778   2.552  0.7319 -0.3093 -0.3375
  637MOL0    Cl85905   0.036   2.707   2.662  0.1310 -0.0657  0.2944
  637MOL0     C85906   0.188   3.628   2.386 -0.2028 -0.3181 -0.1579
  637MOL0     C85907   0.239   3.724   2.296  0.6239  0.4631 -0.6895
  637MOL0     O85908   0.178   3.733   1.973  0.3722 -0.1150  0.2763
  637MOL0     C85909   0.338   4.073   1.980 -0.1633  0.9430  0.0278
  637MOL0     C85910   0.374   4.188   1.902  0.0003  0.2702 -0.0405
  637MOL0     N85911   0.740   4.848   1.687  0.2351 -1.5715 -0.0412
  637MOL0     N85912   0.863   4.852   1.729 -0.6497 -0.2178 -0.4294
  637MOL0     C85913   1.684   4.756   2.565 -0.3301  0.3063  0.3205
  637MOL0     C85914   1.764   4.856   2.627  0.4527  0.2852  0.1739
  637MOL0     C85915   1.831   5.296   2.730  0.4530  0.2407 -0.3750
  637MOL0     C85916   1.806   5.413   2.660 -0.2179  0.1150 -0.5072
  637MOL0     C85917   1.896   5.522   2.654 -0.7949 -0.8556  0.6121
  637MOL0     C85918   2.018   5.514   2.728  0.3033 -0.7589 -0.5113
  637MOL0     O85919   2.112   5.613   2.728 -0.0441 -0.2686  0.0023
  637MOL0     C85920   2.114   5.716   2.633  0.8051 -0.5130  0.3713
  637MOL0     C85921   2.219   5.824   2.665  0.1170  0.1998 -1.1413
  637MOL0     C85922   2.368   5.795   2.633 -0.5643 -0.2114  0.6538
  637MOL0     C85923   2.399   5.735   2.493  0.0239 -0.9091  0.6578
  637MOL0     C85924   2.361   5.835   2.386 -0.1447  0.2613 -0.4959
  637MOL0     C85925   2.330   5.916   2.307  0.1952  0.3978 -0.1808
  637MOL0     C85926   2.045   5.393   2.796  0.0360  1.2403 -0.8315
  637MOL0     C85927   1.955   5.287   2.794  0.2039  0.5124  0.0130
  637MOL0     H85928   1.551   4.997   2.852  3.9583 -0.1921  2.0944
  637MOL0     H85929   1.408   4.804   2.763 -2.2219  1.8320 -2.3764
  637MOL0     H85930   1.292   4.669   2.569  3.6255 -1.5500  2.8102
  637MOL0     H85931   1.384   4.770   2.462  2.2858 -0.1503  1.0417
  637MOL0     H85932   1.469   4.561   2.353  1.1521  1.2638  3.0939
  637MOL0     H85933   1.357   4.467   2.457  1.7316 -2.1441 -0.9696
  637MOL0     H85934   1.173   4.611   2.334 -0.9176  0.7055 -1.5991
  637MOL0     H85935   1.303   4.655   2.219 -0.2236 -2.1032 -1.9424
  637MOL0     H85936   1.341   4.425   2.154  2.8863  3.0458  2.4274
  637MOL0     H85937   1.224   4.372   2.276  2.0420 -0.5852 -0.2194
  637MOL0     H85938   1.110   4.359   2.069 -0.9599 -0.5831  1.0660
  637MOL0     H85939   1.054   4.499   2.157 -1.2076 -2.0147 -0.8070
  637MOL0     H85940   1.216   4.648   2.017 -0.8975  0.7444 -1.5464
  637MOL0     H85941   1.246   4.507   1.917 -1.1211 -0.5589 -0.9286
  637MOL0     H85942   0.992   4.510   1.861  0.8660  0.5197 -0.2773
  637MOL0     H85943   0.977   4.636   1.985  2.1923  1.3987  1.1598
  637MOL0     H85944   1.118   4.679   1.721 -0.5187  1.6511 -0.3876
  637MOL0     H85945   1.091   4.798   1.847 -0.9504  0.4407  0.6677
  637MOL0     H85946   0.820   4.534   1.717 -1.4897 -0.8057 -3.0448
  637MOL0     H85947   0.500   4.744   1.640  0.3809  0.8986  0.8211
  637MOL0     H85948   0.602   4.627   1.537  0.6024 -1.8310  0.1715
  637MOL0     H85949   0.510   4.605   1.828 -0.3651 -0.7654 -0.5113
  637MOL0     H85950   0.564   4.466   1.730 -2.4453 -1.4960 -2.3181
  637MOL0     H85951   0.370   4.532   1.558 -2.6297 -0.9842 -0.0319
  637MOL0     H85952   0.316   4.624   1.698 -2.8267 -2.3453  1.7659
  637MOL0     H85953   0.204   4.422   1.731  0.4815 -1.3466  1.1170
  637MOL0     H85954   0.341   4.436   1.841 -2.4409  0.9169  1.2737
  637MOL0     H85955   0.269   4.089   1.604 -1.4709 -1.2307  0.5530
  637MOL0     H85956   0.050   3.859   1.778 -0.7058  1.7925 -0.2868
  637MOL0     H85957   0.116   3.875   1.619  0.0975  1.2884 -0.1868
  637MOL0     H85958   0.192   3.765   1.721 -2.6155 -1.4751 -1.0235
  637MOL0     H85959  -0.067   3.839   2.187 -1.0856  0.6177  0.8163
  637MOL0     H85960  -0.133   3.719   2.385  0.6986  0.7372 -0.7383
  637MOL0     H85961  -0.150   3.610   2.608 -0.9692  0.2307  0.7241
  637MOL0     H85962  -0.187   3.490   2.480 -0.0579  1.0716 -0.3443
  637MOL0     H85963  -0.069   3.416   2.751 -0.2384  1.0132  0.3040
  637MOL0     H85964  -0.235   3.405   2.705 -0.3344 -0.2101 -1.3309
  637MOL0     H85965   0.008   3.276   2.570 -0.0519 -0.0520  0.7924
  637MOL0     H85966  -0.176   3.243   2.540 -2.4537  1.4522  1.0157
  637MOL0     H85967  -0.015   3.168   2.783 -0.5614  2.5980 -1.0179
  637MOL0     H85968  -0.186   3.149   2.762  1.4309  1.6176  2.8574
  637MOL0     H85969  -0.160   2.988   2.586  0.6768 -0.6120 -0.1199
  637MOL0     H85970  -0.062   2.943   2.722 -2.1470  0.8344  1.3098
  637MOL0     H85971   0.029   3.087   2.474 -3.3692  0.0994  1.0745
  637MOL0     H85972   0.144   3.042   2.603  0.1109  1.6087 -1.5708
  637MOL0     H85973   0.143   2.912   2.397  1.2557 -1.0557  1.1056
  637MOL0     H85974  -0.012   2.834   2.432  2.0100 -1.2410 -3.4537
  637MOL0     H85975   0.246   2.819   2.604  0.4450  0.3734 -0.3937
  637MOL0     H85976   0.197   2.706   2.477  0.5033  1.7932 -2.6110
  637MOL0     H85977   0.272   3.565   2.413 -1.1065 -2.0408 -1.1405
  637MOL0     H85978   0.346   3.715   2.280  1.2038 -4.1314  3.4400
  637MOL0     H85979   0.353   4.065   2.087  0.8085  1.2598 -0.0784
  637MOL0     H85980   0.439   4.263   1.945  0.6081 -0.1175 -0.2696
  637MOL0     H85981   1.719   4.687   2.490 -1.3038  0.3368 -0.1849
  637MOL0     H85982   1.866   4.878   2.597  0.2645 -0.5445 -1.1223
  637MOL0     H85983   1.720   5.429   2.596 -1.8758  0.2574  1.6177
  637MOL0     H85984   1.877   5.595   2.576 -1.9772  1.0130  2.5311
  637MOL0     H85985   2.119   5.668   2.535 -3.0873 -1.0824  0.3065
  637MOL0     H85986   2.017   5.767   2.631  0.8794 -0.3505  0.7052
  637MOL0     H85987   2.217   5.830   2.774 -0.4766 -1.4253 -1.0361
  637MOL0     H85988   2.189   5.922   2.626  0.0456  0.5789 -0.1734
  637MOL0     H85989   2.419   5.723   2.698  2.6688 -0.3989 -1.8045
  637MOL0     H85990   2.423   5.889   2.637 -0.7862 -0.0251 -0.3585
  637MOL0     H85991   2.355   5.637   2.471  1.1951 -1.0299 -1.4219
  637MOL0     H85992   2.508   5.736   2.483  0.1308 -1.5936  1.5228
  637MOL0     H85993   2.314   5.987   2.228 -0.8096  0.1168 -0.2408
  637MOL0     H85994   2.134   5.388   2.858 -0.1148 -1.6412 -0.7189
  637MOL0     H85995   1.991   5.199   2.847  0.7469 -0.7813 -2.3393
  638MOL0     O85996   2.139   5.652   6.097 -0.2712 -0.2660 -0.1974
  638MOL0     C85997   2.238   5.576   6.107  0.5950 -0.6318  0.0950
  638MOL0     O85998   2.250   5.468   6.183  0.1605  0.4507  0.1964
  638MOL0     C85999   2.150   5.423   6.269  0.3922 -0.6277  0.8803
  638MOL0     C86000   2.182   5.417   6.409 -1.0483 -0.1644  0.2344
  638MOL0     C86001   2.109   5.337   6.499 -0.1939  0.5126 -0.5403
  638MOL0     C86002   1.990   5.281   6.451 -0.6554  0.1208  0.2759
  638MOL0     O86003   1.908   5.199   6.532 -0.6003 -0.8936 -0.2955
  638MOL0     C86004   1.968   5.127   6.642  0.1814 -0.6691 -0.9215
  638MOL0     C86005   1.907   4.989   6.645  0.4534 -0.0225 -0.1369
  638MOL0     C86006   1.760   4.998   6.676  0.9602  0.4161 -1.2439
  638MOL0     C86007   1.702   4.860   6.677 -0.1002  0.5285 -0.3072
  638MOL0     C86008   1.560   4.851   6.612  0.4392 -0.3883  0.2388
  638MOL0     C86009   1.461   4.749   6.672  1.1205 -0.2084 -1.1298
  638MOL0     C86010   1.331   4.748   6.602 -0.5147 -0.4313 -0.4771
  638MOL0     C86011   1.243   4.641   6.677  0.7516  0.2165  0.3678
  638MOL0     N86012   1.101   4.667   6.647  0.6157 -0.1266 -0.2286
  638MOL0     C86013   1.018   4.766   6.701 -0.0922 -0.5325  1.2283
  638MOL0     C86014   0.896   4.731   6.662 -0.4575 -0.4974  0.5802
  638MOL0     C86015   0.768   4.798   6.707 -0.0204  0.3522  0.3550
  638MOL0     C86016   0.710   4.736   6.835  0.6256 -0.4228 -0.0331
  638MOL0     C86017   0.610   4.627   6.808  0.2021  0.2661 -0.7459
  638MOL0     C86018   0.617   4.517   6.916 -1.1530 -0.9885  0.1771
  638MOL0     O86019   0.543   4.403   6.874  0.3509  0.2794 -0.2605
  638MOL0     C86020   0.409   4.421   6.841  0.4777 -0.6888 -0.7410
  638MOL0     C86021   0.365   4.354   6.736  0.3807 -0.0381  0.0415
  638MOL0     C86022   0.227   4.371   6.686 -0.1505 -0.5749 -0.0779
  638MOL0     C86023   0.180   4.309   6.561 -1.1600  0.5800 -0.1553
  638MOL0     C86024   0.140   4.467   6.755  0.7904 -0.4141  0.8567
  638MOL0     C86025  -0.004   4.505   6.714  0.7155  0.0069  0.1351
  638MOL0     O86026  -0.086   4.499   6.827 -0.2922 -0.6172  0.3022
  638MOL0     C86027  -0.216   4.529   6.811  0.4710 -0.0330  0.2738
  638MOL0     C86028  -0.294   4.441   6.733  0.5815 -0.3378 -0.7471
  638MOL0     C86029  -0.431   4.473   6.717  0.7554  0.9742 -0.6081
  638MOL0     C86030  -0.495   4.575   6.781  0.5968  0.0326 -0.1887
  638MOL0     O86031  -0.631   4.590   6.765  0.8531  0.4791  0.4109
  638MOL0     C86032  -0.676   4.727   6.755  0.5185  0.1623 -0.5253
  638MOL0     C86033  -0.821   4.740   6.719  1.0365  0.7375  0.3430
  638MOL0     C86034  -0.863   4.633   6.606  0.0348  0.6621  0.1487
  638MOL0     C86035  -0.994   4.671   6.535 -0.5794 -0.1385 -0.2648
  638MOL0     C86036  -1.119   4.654   6.626 -0.3514  0.3272 -0.0253
  638MOL0     C86037  -1.238   4.690   6.530 -0.3798  0.6163 -1.0310
  638MOL0     C86038  -1.376   4.694   6.612 -0.0360  0.3351 -0.4990
  638MOL0     C86039  -1.501   4.664   6.528 -0.0647  0.6468 -0.0665
  638MOL0    Cl86040  -1.511   4.493   6.488  0.2271  0.2261  0.2424
  638MOL0     C86041  -0.419   4.657   6.864 -1.1285  0.5614  0.4089
  638MOL0     C86042  -0.279   4.640   6.870 -0.7142  0.0556 -0.3875
  638MOL0     O86043  -0.041   4.515   6.599 -0.8600  0.4863 -0.4642
  638MOL0     C86044   0.188   4.523   6.876  0.0193 -0.3379  0.9961
  638MOL0     C86045   0.318   4.497   6.917  0.5663 -0.6275  0.8647
  638MOL0     N86046   0.905   4.621   6.588  0.3218 -0.9862 -0.2336
  638MOL0     N86047   1.029   4.578   6.580  0.1343  0.1228  0.2437
  638MOL0     C86048   1.954   5.298   6.316  0.5911 -0.4464 -0.7788
  638MOL0     C86049   2.030   5.367   6.227 -1.0539 -0.1354  0.0780
  638MOL0     C86050   2.342   5.603   6.015 -0.6633 -1.0774 -0.1572
  638MOL0     C86051   2.385   5.735   6.001 -0.0007  0.5276  0.9218
  638MOL0     C86052   2.485   5.768   5.911  0.0187  0.4255  0.1585
  638MOL0     C86053   2.554   5.657   5.838  0.2002 -0.1683 -0.2295
  638MOL0     O86054   2.658   5.685   5.751  0.4799 -0.5977  0.2585
  638MOL0     C86055   2.707   5.815   5.725  0.1290 -0.0752  0.0756
  638MOL0     C86056   2.830   5.800   5.639  0.3536  0.2326  0.0825
  638MOL0     C86057   2.937   5.719   5.717  0.1142 -0.2156 -0.2370
  638MOL0     C86058   3.074   5.709   5.643 -0.1801 -0.2553 -0.5786
  638MOL0     C86059   3.067   5.619   5.528 -0.6002 -0.3828  0.3420
  638MOL0     C86060   3.054   5.528   5.439  0.2285 -0.4753  0.0003
  638MOL0     C86061   2.503   5.532   5.851 -0.6074  0.7593  0.9793
  638MOL0     C86062   2.402   5.510   5.937  0.6936  0.5752  0.0434
  638MOL0     H86063   2.277   5.452   6.450 -0.0676 -1.8208 -0.5095
  638MOL0     H86064   2.143   5.321   6.601  1.4447  0.5365 -1.0643
  638MOL0     H86065   2.077   5.120   6.632  1.0106 -0.5065  4.7748
  638MOL0     H86066   1.947   5.184   6.733  1.0277 -1.0086 -0.4936
  638MOL0     H86067   1.913   4.937   6.549 -3.0688 -0.1594 -0.4075
  638MOL0     H86068   1.964   4.931   6.718  0.2591  0.0092  0.0405
  638MOL0     H86069   1.738   5.029   6.778 -0.0565 -0.8544 -1.0364
  638MOL0     H86070   1.702   5.064   6.611 -0.1707  0.0856 -0.6079
  638MOL0     H86071   1.769   4.793   6.621 -0.5500 -0.1622 -0.0341
  638MOL0     H86072   1.699   4.808   6.773 -2.0506  2.1690  0.5728
  638MOL0     H86073   1.505   4.945   6.624  0.8453  0.1063 -1.4378
  638MOL0     H86074   1.563   4.830   6.505 -1.4798 -2.9883  0.6136
  638MOL0     H86075   1.512   4.653   6.665  0.0615 -0.7328 -1.9315
  638MOL0     H86076   1.439   4.771   6.777 -0.0074 -0.1458 -1.3610
  638MOL0     H86077   1.283   4.844   6.622  0.1502 -0.5183  1.7773
  638MOL0     H86078   1.334   4.731   6.494 -3.3582  4.3768 -1.6415
  638MOL0     H86079   1.259   4.636   6.785 -0.6057  1.5206  0.6697
  638MOL0     H86080   1.262   4.546   6.626 -2.0622 -0.4920  0.4879
  638MOL0     H86081   1.041   4.846   6.771 -2.2758  0.1210  1.2931
  638MOL0     H86082   0.783   4.907   6.709  0.3963  0.2943  0.6616
  638MOL0     H86083   0.696   4.785   6.626  0.1011  2.7006 -0.2095
  638MOL0     H86084   0.652   4.817   6.880 -0.5085 -1.2755  0.1055
  638MOL0     H86085   0.785   4.700   6.906 -0.0158 -2.3340 -0.2635
  638MOL0     H86086   0.627   4.579   6.711 -2.1450 -0.1806 -0.9880
  638MOL0     H86087   0.515   4.681   6.804  1.1986  2.3406  1.1634
  638MOL0     H86088   0.574   4.563   7.006 -2.8866  0.5653 -1.3536
  638MOL0     H86089   0.720   4.483   6.929  0.9082  3.1051 -2.9670
  638MOL0     H86090   0.444   4.295   6.689 -0.2403 -0.4279 -0.5300
  638MOL0     H86091   0.193   4.382   6.480 -1.1752  0.5841 -0.1536
  638MOL0     H86092   0.232   4.214   6.548 -1.1714  0.5858 -0.2473
  638MOL0     H86093   0.076   4.277   6.571 -0.8780  0.1788  1.6493
  638MOL0     H86094  -0.252   4.349   6.693 -2.1482 -3.1471  2.2133
  638MOL0     H86095  -0.484   4.400   6.656 -2.6609  1.4400  1.5008
  638MOL0     H86096  -0.662   4.782   6.848 -1.3353  1.8217 -1.1649
  638MOL0     H86097  -0.625   4.775   6.670  0.8641 -0.6499 -0.7904
  638MOL0     H86098  -0.882   4.721   6.807  0.9945  0.8570  0.3399
  638MOL0     H86099  -0.833   4.845   6.689  0.6491  0.1674 -1.6494
  638MOL0     H86100  -0.875   4.541   6.664 -0.4670 -0.8034 -2.1401
  638MOL0     H86101  -0.777   4.611   6.542  0.5663 -1.7854  1.5702
  638MOL0     H86102  -0.997   4.772   6.494 -1.7277  0.2121  0.6068
  638MOL0     H86103  -1.004   4.609   6.446 -1.5166  0.8207 -0.8612
  638MOL0     H86104  -1.111   4.716   6.715 -0.7735  0.2665  0.0538
  638MOL0     H86105  -1.124   4.550   6.660  1.0154 -0.6252 -2.4214
  638MOL0     H86106  -1.216   4.786   6.482  1.5124 -0.0100 -1.4963
  638MOL0     H86107  -1.254   4.624   6.444 -3.9145 -0.7810  0.5334
  638MOL0     H86108  -1.394   4.794   6.651  1.8022  0.9617 -1.1542
  638MOL0     H86109  -1.368   4.629   6.699  0.4822  0.1617 -0.6743
  638MOL0     H86110  -1.501   4.726   6.438 -0.6426  3.0418  1.5063
  638MOL0     H86111  -1.594   4.695   6.576  0.7047 -0.3573  2.2186
  638MOL0     H86112  -0.472   4.728   6.926  0.6604  0.7113  1.8281
  638MOL0     H86113  -0.215   4.702   6.931  0.8439 -2.1820  0.4093
  638MOL0     H86114   0.129   4.581   6.947  2.2001  2.1954  0.8923
  638MOL0     H86115   0.347   4.544   7.010  0.4600  0.5351  0.3313
  638MOL0     H86116   1.857   5.261   6.286  0.2415 -0.9151  0.8279
  638MOL0     H86117   1.989   5.365   6.126 -2.0864 -0.5387  0.4867
  638MOL0     H86118   2.335   5.815   6.054  4.6195  3.6540  1.0305
  638MOL0     H86119   2.500   5.874   5.891 -0.6614  0.3204 -0.9448
  638MOL0     H86120   2.635   5.885   5.682  1.5917  3.1480  2.3969
  638MOL0     H86121   2.736   5.860   5.821  1.1795 -0.5943  0.0213
  638MOL0     H86122   2.869   5.901   5.625  1.5476 -0.3019 -0.5180
  638MOL0     H86123   2.806   5.763   5.538 -2.2191 -0.0529  0.7093
  638MOL0     H86124   2.894   5.620   5.735 -1.9740  0.6779 -0.0384
  638MOL0     H86125   2.962   5.759   5.816  0.1893 -1.5895  0.3223
  638MOL0     H86126   3.150   5.681   5.717 -1.5370  0.0992  1.0023
  638MOL0     H86127   3.115   5.806   5.612 -2.5811  0.2433 -2.4731
  638MOL0     H86128   3.046   5.440   5.378 -0.2710  0.0073 -0.6502
  638MOL0     H86129   2.555   5.455   5.795  0.6175  0.9364  1.8407
  638MOL0     H86130   2.379   5.404   5.943  0.1112  0.6553 -0.7211
  639MOL0     O86131   2.859   9.079   9.879 -0.2741  0.0002 -0.7226
  639MOL0     C86132   2.910   9.047   9.989 -0.0951 -0.1639 -0.0743
  639MOL0     O86133   2.841   9.023  10.099 -0.0346 -0.3874 -0.4135
  639MOL0     C86134   2.706   9.046  10.113  0.6317 -0.9297 -0.4781
  639MOL0     C86135   2.632   8.964  10.198 -0.3648 -0.5414 -0.6575
  639MOL0     C86136   2.506   9.002  10.237  0.5465  0.7383  0.4440
  639MOL0     C86137   2.437   9.109  10.178  0.1753 -0.2108 -0.9097
  639MOL0     O86138   2.298   9.120  10.204  0.0971 -0.0781 -0.3382
  639MOL0     C86139   2.223   9.214  10.125 -0.9542 -0.1635 -0.9462
  639MOL0     C86140   2.090   9.232  10.208 -0.1482 -0.0866  0.5638
  639MOL0     C86141   1.976   9.273  10.099 -0.3947 -0.3886 -0.5929
  639MOL0     C86142   1.847   9.310  10.175  0.2750  0.4072  0.6607
  639MOL0     C86143   1.737   9.339  10.067  0.1975 -0.9195  0.5595
  639MOL0     C86144   1.593   9.312  10.118 -0.0346 -0.1464  1.3083
  639MOL0     C86145   1.575   9.163  10.167 -1.0111  0.2782  0.7068
  639MOL0     C86146   1.437   9.130  10.222  0.1912  0.2698  0.5211
  639MOL0     N86147   1.328   9.152  10.119 -0.3461 -0.2732  0.2703
  639MOL0     C86148   1.275   9.054  10.040 -0.6275 -0.4058 -0.4522
  639MOL0     C86149   1.189   9.113   9.955  0.1817  0.1124 -0.0080
  639MOL0     C86150   1.097   9.046   9.862  0.7094 -0.4307  0.1791
  639MOL0     C86151   0.953   9.074   9.893  0.3313  0.0583 -0.4644
  639MOL0     C86152   0.869   8.963   9.810 -0.8525 -0.2366  0.2522
  639MOL0     C86153   0.723   8.978   9.859 -0.2098  0.2297 -0.5856
  639MOL0     O86154   0.662   9.102   9.810  0.1141 -0.3887  0.3019
  639MOL0     C86155   0.535   9.129   9.847 -0.1946 -0.7383 -0.1015
  639MOL0     C86156   0.441   9.037   9.891 -0.4296  0.9219  0.0579
  639MOL0     C86157   0.305   9.068   9.903  0.7571  0.5539  0.1890
  639MOL0     C86158   0.192   8.970   9.943 -0.7372  0.4988 -0.1947
  639MOL0     C86159   0.270   9.202   9.883 -0.1187 -0.1972 -0.0679
  639MOL0     C86160   0.123   9.245   9.885  0.1690  0.2517 -0.0490
  639MOL0     O86161   0.104   9.370   9.938 -0.0366 -0.3349  0.3686
  639MOL0     C86162  -0.022   9.418   9.909  0.1052 -0.8097  0.4454
  639MOL0     C86163  -0.141   9.389   9.979 -0.8661  0.1497  0.2212
  639MOL0     C86164  -0.267   9.433   9.931  0.5407 -0.1298  0.4255
  639MOL0     C86165  -0.273   9.505   9.820  0.2810  0.0651  0.4757
  639MOL0     O86166  -0.403   9.526   9.772  0.8029 -0.5016 -0.1757
  639MOL0     C86167  -0.423   9.601   9.650  0.5784 -0.3245  0.5776
  639MOL0     C86168  -0.534   9.548   9.555 -0.3873  0.0345 -0.0872
  639MOL0     C86169  -0.659   9.635   9.555 -0.4938 -0.8095  0.5913
  639MOL0     C86170  -0.770   9.597   9.657 -0.1635  0.9250  0.0879
  639MOL0     C86171  -0.877   9.714   9.665 -0.3740  0.0820  0.3456
  639MOL0     C86172  -0.967   9.713   9.543  0.1868 -0.1425 -0.5310
  639MOL0     C86173  -1.080   9.618   9.553  0.9842 -0.5343 -0.0503
  639MOL0     C86174  -1.206   9.691   9.608  0.5558 -0.5077  0.2342
  639MOL0    Cl86175  -1.189   9.754   9.778  0.0459 -0.3316 -0.1603
  639MOL0     C86176  -0.153   9.549   9.757 -0.4214 -0.2055  0.9756
  639MOL0     C86177  -0.025   9.505   9.800  0.0272 -0.6193  0.0243
  639MOL0     O86178   0.031   9.174   9.839 -0.5169 -0.8574  0.2966
  639MOL0     C86179   0.373   9.300   9.876 -0.0395 -0.2315 -0.3188
  639MOL0     C86180   0.504   9.264   9.835  0.2374  0.7013  0.6841
  639MOL0     N86181   1.195   9.246   9.991 -0.0908  0.0211 -0.2438
  639MOL0     N86182   1.279   9.268  10.081 -0.4375 -0.0906 -0.9111
  639MOL0     C86183   2.505   9.194  10.089  0.0157 -0.9517 -0.6784
  639MOL0     C86184   2.638   9.162  10.059  0.6338 -0.0603 -0.3370
  639MOL0     C86185   3.052   8.993   9.988  0.0615 -0.2992  0.2002
  639MOL0     C86186   3.105   8.951   9.865 -0.6433  0.3532 -0.4143
  639MOL0     C86187   3.240   8.899   9.855 -0.4344 -0.4945 -0.4443
  639MOL0     C86188   3.324   8.891   9.969  0.1522 -0.7706 -0.3847
  639MOL0     O86189   3.455   8.849   9.964 -0.1254 -0.2436  0.1907
  639MOL0     C86190   3.519   8.806   9.840  0.5313  0.2480 -0.3823
  639MOL0     C86191   3.658   8.758   9.877  0.3061 -0.1500  0.4470
  639MOL0     C86192   3.743   8.887   9.873 -0.2765  0.2339 -0.0260
  639MOL0     C86193   3.881   8.866   9.936 -0.2738 -0.1089  0.2349
  639MOL0     C86194   3.976   8.802   9.840  0.0268  0.7371 -0.3175
  639MOL0     C86195   4.058   8.746   9.772  0.5198  0.0126 -0.5497
  639MOL0     C86196   3.269   8.936  10.087 -0.0641 -0.3419  0.3959
  639MOL0     C86197   3.134   8.976  10.098 -0.2504 -0.3418 -0.0459
  639MOL0     H86198   2.693   8.892  10.251  1.1943  1.2592  0.0976
  639MOL0     H86199   2.450   8.943  10.309  0.8676 -1.1048 -0.7607
  639MOL0     H86200   2.284   9.304  10.110  2.7313 -2.5742 -1.5938
  639MOL0     H86201   2.197   9.163  10.031 -2.7746  0.2425 -0.7122
  639MOL0     H86202   2.061   9.142  10.263 -2.5550  1.3308  1.7740
  639MOL0     H86203   2.108   9.312  10.280  0.5204  1.3241 -1.1163
  639MOL0     H86204   2.007   9.361  10.042 -0.7839  0.3609  0.3209
  639MOL0     H86205   1.967   9.181  10.042 -0.4270 -1.7328  1.4741
  639MOL0     H86206   1.819   9.234  10.248 -1.6009  0.8073  0.4192
  639MOL0     H86207   1.860   9.400  10.236  2.5274 -0.6623  1.8625
  639MOL0     H86208   1.743   9.442  10.031 -0.1422 -1.3881 -0.8766
  639MOL0     H86209   1.761   9.280   9.978 -0.2002  0.5154 -0.5364
  639MOL0     H86210   1.560   9.373  10.202  0.8526 -1.4451  2.6452
  639MOL0     H86211   1.523   9.335  10.037  1.8366  0.3658 -0.2488
  639MOL0     H86212   1.603   9.106  10.078  0.1372  1.2451  0.4299
  639MOL0     H86213   1.644   9.136  10.248 -2.2359 -1.1948  1.3085
  639MOL0     H86214   1.411   9.214  10.287  0.5660  0.5849  0.2714
  639MOL0     H86215   1.432   9.033  10.273 -1.0196  0.8960  1.6485
  639MOL0     H86216   1.301   8.949  10.033 -1.1397 -0.6181  0.6842
  639MOL0     H86217   1.113   9.078   9.759  1.6335  0.2968  0.5329
  639MOL0     H86218   1.121   8.939   9.860  2.5834 -0.0224 -0.4435
  639MOL0     H86219   0.929   9.176   9.862  0.8499  1.4246  3.1437
  639MOL0     H86220   0.946   9.075  10.002  1.9680  0.4829 -0.3407
  639MOL0     H86221   0.901   8.859   9.822 -0.3102  0.2285  3.5039
  639MOL0     H86222   0.872   8.981   9.702 -1.5512  1.7884  0.5281
  639MOL0     H86223   0.710   8.981   9.967 -3.0021  4.6731 -0.8180
  639MOL0     H86224   0.664   8.892   9.825 -1.9345  1.6546 -1.4055
  639MOL0     H86225   0.474   8.935   9.905  0.6784  1.0630 -1.3230
  639MOL0     H86226   0.139   9.000  10.034  0.7061 -0.7109  1.0928
  639MOL0     H86227   0.132   8.939   9.857  0.9403 -0.9283 -0.9017
  639MOL0     H86228   0.238   8.878   9.979  1.4198  0.6585 -2.2764
  639MOL0     H86229  -0.137   9.329  10.070  1.4391  2.7076  1.9844
  639MOL0     H86230  -0.360   9.399   9.975  1.6906 -2.8767  0.9462
  639MOL0     H86231  -0.446   9.706   9.673 -1.7074 -0.2475 -1.6552
  639MOL0     H86232  -0.335   9.587   9.587  2.7498 -1.3000  3.6046
  639MOL0     H86233  -0.497   9.553   9.452 -2.9856 -0.8195 -1.1445
  639MOL0     H86234  -0.558   9.447   9.591  2.6234 -0.9273 -0.4652
  639MOL0     H86235  -0.686   9.635   9.449  0.3592 -0.3284  0.3650
  639MOL0     H86236  -0.630   9.739   9.571  1.7223 -0.6442 -3.2751
  639MOL0     H86237  -0.826   9.505   9.639 -0.4566  0.4026  3.1219
  639MOL0     H86238  -0.724   9.594   9.756  3.8295 -0.7222 -1.6198
  639MOL0     H86239  -0.834   9.815   9.661  2.0252 -0.9155 -2.4635
  639MOL0     H86240  -0.940   9.700   9.754 -1.9175  0.7012 -0.5982
  639MOL0     H86241  -1.008   9.813   9.524  1.8257  1.1539  2.1245
  639MOL0     H86242  -0.897   9.687   9.464  1.9583 -0.5316  1.0968
  639MOL0     H86243  -1.060   9.544   9.631 -1.5731  0.6357  1.8617
  639MOL0     H86244  -1.091   9.576   9.453  3.2832 -2.1913  0.3146
  639MOL0     H86245  -1.290   9.622   9.596  1.5109 -1.4262 -1.4148
  639MOL0     H86246  -1.232   9.769   9.535 -1.4437 -0.8763  0.5050
  639MOL0     H86247  -0.159   9.621   9.676 -1.2361  0.7927  1.8822
  639MOL0     H86248   0.069   9.536   9.755  1.0197 -2.2360  0.8654
  639MOL0     H86249   0.344   9.405   9.887  3.9408  0.9043  0.7471
  639MOL0     H86250   0.583   9.333   9.808  0.0350  0.9462  0.7069
  639MOL0     H86251   2.461   9.283  10.046 -1.2439 -0.8175  0.7939
  639MOL0     H86252   2.689   9.228   9.990  1.9733 -1.6308 -0.8965
  639MOL0     H86253   3.042   8.953   9.777  1.5914  2.5819 -2.1131
  639MOL0     H86254   3.284   8.877   9.758  1.4604 -0.2195  0.3319
  639MOL0     H86255   3.461   8.721   9.805 -0.4524  1.6831 -2.4740
  639MOL0     H86256   3.515   8.876   9.756 -0.6540 -0.2345 -0.7401
  639MOL0     H86257   3.688   8.684   9.803 -2.2815  1.4716 -2.4516
  639MOL0     H86258   3.672   8.724   9.980 -0.4416  0.2107  0.6799
  639MOL0     H86259   3.692   8.971   9.922  0.4800 -0.1198  1.4280
  639MOL0     H86260   3.763   8.909   9.768  1.1018  1.2851  0.4268
  639MOL0     H86261   3.879   8.820  10.036 -1.2873  1.7719  1.1297
  639MOL0     H86262   3.935   8.958   9.957  2.2062 -1.4979  0.3484
  639MOL0     H86263   4.130   8.702   9.706 -0.5555 -3.1070  0.2078
  639MOL0     H86264   3.330   8.920  10.175 -0.6281 -1.0623  0.6741
  639MOL0     H86265   3.096   9.006  10.195 -2.3266  0.6702 -1.1215
  640MOL0     O86266   9.775   2.144   9.516 -0.7717 -0.4405 -0.3933
  640MOL0     C86267   9.839   2.055   9.453  0.2275 -0.1541 -0.3310
  640MOL0     O86268   9.795   1.948   9.386 -0.3814  0.1167 -1.1347
  640MOL0     C86269   9.657   1.937   9.379  0.6484 -0.3891 -0.1017
  640MOL0     C86270   9.573   1.924   9.485  0.6377 -0.8343  0.5825
  640MOL0     C86271   9.437   1.898   9.472  0.3297 -0.4576  0.0815
  640MOL0     C86272   9.382   1.904   9.347  0.7112  0.1720  0.2472
  640MOL0     O86273   9.246   1.898   9.342  0.1720  0.1701  0.2573
  640MOL0     C86274   9.180   1.831   9.233  0.2012 -0.1590 -0.4900
  640MOL0     C86275   9.052   1.772   9.284 -0.2641 -0.5542  0.3129
  640MOL0     C86276   8.963   1.700   9.188  0.4993  0.8257 -0.1409
  640MOL0     C86277   8.856   1.619   9.253 -0.6430  0.0275 -0.4328
  640MOL0     C86278   8.794   1.517   9.152  0.3555  1.4227 -0.1806
  640MOL0     C86279   8.683   1.439   9.214 -0.1004 -0.4683  1.2188
  640MOL0     C86280   8.638   1.341   9.113 -0.4961 -0.5242  0.3864
  640MOL0     C86281   8.551   1.404   9.000  0.7023  0.4631 -0.3196
  640MOL0     N86282   8.429   1.327   8.963 -0.7165 -0.1466  0.0418
  640MOL0     C86283   8.324   1.304   9.045 -0.7245  0.4667  0.7675
  640MOL0     C86284   8.224   1.242   8.969 -0.0949  0.2252 -0.8755
  640MOL0     C86285   8.100   1.180   9.024  0.1438  0.7475  0.2721
  640MOL0     C86286   8.002   1.139   8.913  0.2929  0.2644 -0.1342
  640MOL0     C86287   7.874   1.079   8.977 -0.2794  0.6546 -0.5150
  640MOL0     C86288   7.779   1.019   8.879  0.0689  0.2793  0.3438
  640MOL0     O86289   7.688   0.934   8.950  0.0982  0.6301 -0.0453
  640MOL0     C86290   7.583   0.863   8.891  0.0346  0.3710 -0.2275
  640MOL0     C86291   7.567   0.850   8.756  0.0849 -0.4253 -0.2272
  640MOL0     C86292   7.453   0.788   8.700 -0.7279  0.7985 -0.2924
  640MOL0     C86293   7.449   0.791   8.550  0.7425 -0.0929 -0.8487
  640MOL0     C86294   7.367   0.719   8.786  0.8438  0.6880  0.1716
  640MOL0     C86295   7.249   0.634   8.745 -0.0159 -0.6362 -0.5309
  640MOL0     O86296   7.204   0.656   8.615 -0.5995 -0.0767  0.2478
  640MOL0     C86297   7.101   0.582   8.568 -0.6150 -0.3722 -0.3295
  640MOL0     C86298   7.105   0.549   8.429 -0.1579 -0.0935  0.0583
  640MOL0     C86299   7.002   0.483   8.371 -0.0864  1.1334  0.6634
  640MOL0     C86300   6.898   0.432   8.442  0.7943 -0.3370  0.9566
  640MOL0     O86301   6.795   0.371   8.371  0.2409  0.6231 -0.0761
  640MOL0     C86302   6.774   0.235   8.410 -0.4048 -0.3644  0.8648
  640MOL0     C86303   6.624   0.215   8.421 -0.1215  1.1329 -0.6774
  640MOL0     C86304   6.550   0.213   8.291  0.1824 -0.6755  0.1542
  640MOL0     C86305   6.399   0.185   8.327 -0.2577  0.5596 -0.9790
  640MOL0     C86306   6.305   0.242   8.228 -0.2893 -0.2789 -0.1683
  640MOL0     C86307   6.167   0.198   8.249  0.9072 -0.0944  0.0883
  640MOL0     C86308   6.079   0.283   8.169  0.4083 -0.7182 -0.1400
  640MOL0     C86309   5.937   0.219   8.164  0.6344 -0.2060 -0.4834
  640MOL0    Cl86310   5.912   0.069   8.077 -0.1712 -0.1683  0.2220
  640MOL0     C86311   6.890   0.471   8.578  0.0585  0.6928  0.3659
  640MOL0     C86312   6.992   0.542   8.639  1.0175  0.2153  1.0683
  640MOL0     O86313   7.195   0.565   8.834 -0.3420 -0.2037  0.2921
  640MOL0     C86314   7.389   0.724   8.923 -0.7312 -0.3252  0.9115
  640MOL0     C86315   7.490   0.802   8.976 -0.4922  0.2933 -0.1910
  640MOL0     N86316   8.285   1.215   8.843  0.4885  0.5497  0.5324
  640MOL0     N86317   8.407   1.268   8.845 -0.0026  0.1840 -0.3538
  640MOL0     C86318   9.461   1.937   9.233  0.9372 -0.3989 -0.3916
  640MOL0     C86319   9.595   1.957   9.254 -0.3092 -0.5123 -0.4613
  640MOL0     C86320   9.982   2.077   9.440  0.2375 -0.7130 -0.4285
  640MOL0     C86321  10.072   1.984   9.380  0.5446  0.1540  0.5303
  640MOL0     C86322  10.205   2.019   9.351 -0.0434 -0.5450 -0.1511
  640MOL0     C86323  10.254   2.148   9.370 -0.6412  0.3209  0.9388
  640MOL0     O86324  10.380   2.178   9.319  0.4015 -0.6329 -0.1771
  640MOL0     C86325  10.477   2.219   9.421 -0.3999 -0.8496 -0.3814
  640MOL0     C86326  10.544   2.094   9.480  0.0806 -0.1124  0.3154
  640MOL0     C86327  10.613   2.000   9.372 -0.2092  0.1947 -0.3456
  640MOL0     C86328  10.720   2.061   9.281 -0.6659  0.0547 -0.4885
  640MOL0     C86329  10.825   2.125   9.353  0.1075 -0.8160  0.3217
  640MOL0     C86330  10.910   2.172   9.422  0.0680  0.2845  0.4394
  640MOL0     C86331  10.176   2.239   9.435 -0.0299  0.2984  0.2625
  640MOL0     C86332  10.042   2.204   9.477  0.1631 -0.3501  0.6823
  640MOL0     H86333   9.617   1.925   9.584  2.8328  0.9658 -0.3234
  640MOL0     H86334   9.373   1.870   9.555  1.5904 -2.0513  0.5502
  640MOL0     H86335   9.151   1.893   9.148  0.1350  0.6316  0.0971
  640MOL0     H86336   9.249   1.760   9.189 -1.2714 -0.3089 -2.7131
  640MOL0     H86337   9.086   1.715   9.371  2.2778 -0.9491 -0.8451
  640MOL0     H86338   8.994   1.856   9.322 -2.5099 -0.7508 -2.4458
  640MOL0     H86339   8.908   1.765   9.120 -2.3764 -1.1915  0.0527
  640MOL0     H86340   9.021   1.636   9.120 -0.3276  1.0607 -1.0983
  640MOL0     H86341   8.904   1.564   9.335 -0.5469 -0.8288 -1.0539
  640MOL0     H86342   8.786   1.686   9.305 -1.4699 -1.6221  0.6945
  640MOL0     H86343   8.771   1.557   9.053 -2.5436  0.4406  0.0155
  640MOL0     H86344   8.881   1.451   9.145  0.0386  1.0021 -0.1590
  640MOL0     H86345   8.717   1.377   9.297 -0.2399  1.9500  3.2206
  640MOL0     H86346   8.604   1.510   9.242  0.4128  1.7943 -2.4238
  640MOL0     H86347   8.728   1.303   9.064  0.5048  1.6258  0.4612
  640MOL0     H86348   8.575   1.264   9.159  0.7603 -1.7332  0.1254
  640MOL0     H86349   8.609   1.404   8.907  0.6036 -1.3556 -0.4092
  640MOL0     H86350   8.512   1.502   9.028 -0.3473 -0.6089  2.2168
  640MOL0     H86351   8.328   1.336   9.149  2.7833  1.9417  0.3458
  640MOL0     H86352   8.124   1.095   9.088 -0.4281 -0.9847 -1.7055
  640MOL0     H86353   8.046   1.250   9.088 -0.5325 -0.0440  0.5840
  640MOL0     H86354   8.051   1.061   8.854 -0.8767  0.2245 -1.0788
  640MOL0     H86355   7.970   1.221   8.847 -3.6844  1.9625  3.4348
  640MOL0     H86356   7.814   1.149   9.036 -0.7263 -2.5760  3.2871
  640MOL0     H86357   7.893   1.005   9.056  0.7326  0.4882 -0.9026
  640MOL0     H86358   7.823   0.954   8.804 -2.8111  0.0682 -1.3144
  640MOL0     H86359   7.720   1.100   8.836 -0.5343  0.2200  1.0365
  640MOL0     H86360   7.639   0.888   8.683  0.0476  0.9185  0.4031
  640MOL0     H86361   7.532   0.847   8.506  0.0411  0.5650 -1.3648
  640MOL0     H86362   7.457   0.689   8.512 -1.3053 -0.0544 -1.4984
  640MOL0     H86363   7.355   0.834   8.513  0.9247  0.5217 -0.6057
  640MOL0     H86364   7.186   0.584   8.367 -0.8211 -2.3668 -2.2775
  640MOL0     H86365   7.004   0.469   8.263 -4.7600 -1.0969  0.6319
  640MOL0     H86366   6.810   0.164   8.335 -0.5624 -0.3151  0.7406
  640MOL0     H86367   6.815   0.213   8.508 -0.8130 -0.3629  1.0389
  640MOL0     H86368   6.610   0.123   8.478  3.4779  0.3538 -0.8219
  640MOL0     H86369   6.586   0.299   8.480 -4.0187 -1.1721  0.4621
  640MOL0     H86370   6.599   0.133   8.235  0.1307 -0.0336 -0.8336
  640MOL0     H86371   6.565   0.303   8.230  0.2706 -0.2662  0.7810
  640MOL0     H86372   6.384   0.076   8.326  1.8202  0.2386 -1.7105
  640MOL0     H86373   6.381   0.228   8.426  3.0425 -0.8442  0.3631
  640MOL0     H86374   6.335   0.210   8.127 -2.4695 -0.5931 -0.7707
  640MOL0     H86375   6.321   0.350   8.235  0.1319 -0.3356 -0.2099
  640MOL0     H86376   6.161   0.093   8.220 -0.4665  0.1468 -0.5574
  640MOL0     H86377   6.147   0.215   8.355  3.0299  2.1211  0.2549
  640MOL0     H86378   6.118   0.296   8.068 -0.5628  0.1847 -0.4194
  640MOL0     H86379   6.074   0.381   8.217 -1.5112 -1.1776  0.7116
  640MOL0     H86380   5.869   0.288   8.114  3.0423  0.8924 -2.4797
  640MOL0     H86381   5.911   0.217   8.270 -2.1147  0.1534 -1.0939
  640MOL0     H86382   6.798   0.450   8.631 -1.3028  2.8270 -0.9942
  640MOL0     H86383   6.972   0.571   8.742  1.2283 -2.8971  2.1106
  640MOL0     H86384   7.335   0.660   8.991 -1.3038  0.1762  0.9354
  640MOL0     H86385   7.496   0.811   9.084  2.3139 -1.5413 -0.0692
  640MOL0     H86386   9.412   1.935   9.136  0.9000 -0.3096 -0.3736
  640MOL0     H86387   9.652   1.991   9.168  2.0170 -1.3754  0.6711
  640MOL0     H86388  10.024   1.891   9.352 -3.4786  1.2711  2.9002
  640MOL0     H86389  10.279   1.959   9.299  1.0061 -0.3644  1.1141
  640MOL0     H86390  10.548   2.298   9.396  0.1657 -0.6607  1.6549
  640MOL0     H86391  10.426   2.256   9.511  0.8070  0.2891 -0.1490
  640MOL0     H86392  10.467   2.037   9.533 -1.7172  0.5363 -1.4665
  640MOL0     H86393  10.611   2.132   9.558 -0.9365  2.6604 -0.0445
  640MOL0     H86394  10.527   1.957   9.318 -1.4751  0.9314  0.9996
  640MOL0     H86395  10.662   1.920   9.428  0.6003 -0.4404 -1.8982
  640MOL0     H86396  10.680   2.123   9.200 -0.5810 -2.3389 -2.4837
  640MOL0     H86397  10.771   1.975   9.238  0.4299 -1.5097  3.4777
  640MOL0     H86398  10.972   2.238   9.478  1.8607 -0.3719 -0.6932
  640MOL0     H86399  10.200   2.343   9.452 -2.2536  1.6244 -3.5441
  640MOL0     H86400   9.980   2.278   9.525 -0.2764  0.7971 -1.5410
  641MOL0     O86401   2.735   5.640   2.867 -0.2188  0.6438 -0.2920
  641MOL0     C86402   2.777   5.663   2.979  0.2610 -0.6501 -0.4767
  641MOL0     O86403   2.698   5.728   3.082 -0.3715  0.3399  0.2050
  641MOL0     C86404   2.561   5.748   3.069  0.1846  1.5980  0.6030
  641MOL0     C86405   2.471   5.669   2.989 -0.7896  0.4075  0.7444
  641MOL0     C86406   2.337   5.687   3.004  0.3533  0.3952 -0.0423
  641MOL0     C86407   2.278   5.773   3.107  0.4276  0.0727  0.6512
  641MOL0     O86408   2.145   5.783   3.146 -0.2096 -0.1481 -0.1112
  641MOL0     C86409   2.054   5.710   3.063  0.3890  0.2194 -0.4109
  641MOL0     C86410   1.916   5.755   3.102 -0.6727 -0.0607 -0.4203
  641MOL0     C86411   1.813   5.663   3.033 -0.4265 -0.2106  0.1380
  641MOL0     C86412   1.666   5.699   3.053  0.2339  0.3983 -0.3985
  641MOL0     C86413   1.568   5.610   2.972  0.2830 -0.1320  0.9240
  641MOL0     C86414   1.426   5.610   3.039 -1.3680 -0.4006  0.3003
  641MOL0     C86415   1.332   5.541   2.940 -0.6833 -0.2516 -1.1031
  641MOL0     C86416   1.185   5.552   2.994  0.9061 -0.7003 -0.8786
  641MOL0     N86417   1.085   5.504   2.901  0.3225  0.3719  0.4150
  641MOL0     C86418   0.990   5.406   2.928  0.1727 -0.2063 -0.9847
  641MOL0     C86419   0.909   5.404   2.819 -0.8851  0.1270  0.3400
  641MOL0     C86420   0.789   5.320   2.788 -0.6548 -0.5354 -0.5136
  641MOL0     C86421   0.661   5.398   2.755  0.2787  0.2379 -0.2289
  641MOL0     C86422   0.545   5.297   2.738  0.1816 -0.0468  0.6381
  641MOL0     C86423   0.431   5.370   2.664  0.2699 -0.0260 -0.1512
  641MOL0     O86424   0.313   5.288   2.673 -0.3939  0.0533 -0.0548
  641MOL0     C86425   0.199   5.327   2.605  0.6635  0.0400 -0.4431
  641MOL0     C86426   0.094   5.238   2.597 -0.1793 -0.1625 -0.1035
  641MOL0     C86427  -0.027   5.266   2.540 -0.0901 -0.0535 -0.3491
  641MOL0     C86428  -0.129   5.158   2.549 -0.6563  0.4180  0.2950
  641MOL0     C86429  -0.055   5.397   2.497  0.7500  0.4689 -0.4295
  641MOL0     C86430  -0.193   5.446   2.471 -0.5703 -0.7573 -0.2510
  641MOL0     O86431  -0.215   5.566   2.534  0.4821 -0.4989  0.4427
  641MOL0     C86432  -0.339   5.593   2.585 -0.4334 -0.4647 -1.4043
  641MOL0     C86433  -0.394   5.723   2.566  0.2281  0.0392  0.5991
  641MOL0     C86434  -0.522   5.751   2.610  0.6778 -0.3568 -0.3725
  641MOL0     C86435  -0.597   5.655   2.678 -0.5478 -0.7934  0.8107
  641MOL0     O86436  -0.727   5.668   2.724  0.3727 -0.1256 -0.8616
  641MOL0     C86437  -0.775   5.805   2.748  0.3084  0.2617 -0.0893
  641MOL0     C86438  -0.925   5.793   2.794  0.8748  0.3999  0.2492
  641MOL0     C86439  -0.945   5.704   2.926  0.4735 -0.2478  0.2952
  641MOL0     C86440  -1.094   5.712   2.978 -0.3298  0.2611 -0.0255
  641MOL0     C86441  -1.099   5.827   3.078  0.2440  0.1187 -0.2459
  641MOL0     C86442  -1.239   5.873   3.123 -0.2819 -0.2908  0.1498
  641MOL0     C86443  -1.280   5.759   3.220 -0.0703 -0.1868 -0.3180
  641MOL0     C86444  -1.416   5.808   3.271 -0.1878 -0.3906  0.3367
  641MOL0    Cl86445  -1.539   5.842   3.148 -0.0137 -0.1362 -0.2971
  641MOL0     C86446  -0.542   5.532   2.705  0.6463  0.1632  0.3656
  641MOL0     C86447  -0.407   5.505   2.667 -0.0147  0.2831 -0.3386
  641MOL0     O86448  -0.267   5.382   2.398  0.3182 -0.0844  0.6351
  641MOL0     C86449   0.044   5.491   2.501  0.0559 -0.5293  0.1073
  641MOL0     C86450   0.172   5.456   2.542 -1.0139 -0.1353  0.4822
  641MOL0     N86451   0.962   5.505   2.733  0.2693  0.1197  0.2311
  641MOL0     N86452   1.065   5.566   2.783 -0.1926  0.5819  0.5866
  641MOL0     C86453   2.364   5.825   3.197 -0.3732  0.1955  0.1308
  641MOL0     C86454   2.505   5.830   3.170 -0.6147  0.1781  0.3823
  641MOL0     C86455   2.918   5.649   2.993  1.2072 -0.7134 -0.0996
  641MOL0     C86456   2.979   5.687   3.113  0.1131 -0.1584 -0.2279
  641MOL0     C86457   3.113   5.676   3.131 -0.6970 -0.3877  0.1809
  641MOL0     C86458   3.189   5.623   3.027 -0.6428 -0.3490 -0.3346
  641MOL0     O86459   3.324   5.606   3.047 -0.2550 -0.2428 -0.2624
  641MOL0     C86460   3.417   5.726   3.070 -0.4394 -0.1821 -0.7222
  641MOL0     C86461   3.529   5.722   2.958  0.6726  0.4713 -0.4122
  641MOL0     C86462   3.627   5.841   2.962 -0.4557 -0.4060 -0.3332
  641MOL0     C86463   3.744   5.819   2.864  0.0219  0.0903 -0.2683
  641MOL0     C86464   3.851   5.742   2.934  0.5968  0.1066 -0.4985
  641MOL0     C86465   3.931   5.689   3.001 -0.7251  0.0490 -0.0804
  641MOL0     C86466   3.135   5.592   2.910 -0.9177  0.0876  0.8367
  641MOL0     C86467   3.002   5.615   2.888  0.3589  0.2174  0.8978
  641MOL0     H86468   2.499   5.604   2.907 -2.7894 -0.4678  0.7133
  641MOL0     H86469   2.279   5.629   2.933  2.7029 -0.4376 -1.4043
  641MOL0     H86470   2.069   5.716   2.954 -0.8221  2.0632 -0.5233
  641MOL0     H86471   2.073   5.604   3.084  0.4786 -0.2098 -2.4511
  641MOL0     H86472   1.896   5.744   3.209  0.1899 -2.0935 -0.4252
  641MOL0     H86473   1.891   5.853   3.060  2.2403  0.9037 -0.0913
  641MOL0     H86474   1.831   5.669   2.926 -0.1787  0.3193  0.2050
  641MOL0     H86475   1.843   5.563   3.065 -0.5839 -0.8569 -1.6742
  641MOL0     H86476   1.641   5.694   3.160  1.2943 -0.4887 -0.1726
  641MOL0     H86477   1.647   5.804   3.029 -2.8906  0.5578  2.0998
  641MOL0     H86478   1.574   5.658   2.874  0.0417  1.7654  1.7918
  641MOL0     H86479   1.600   5.505   2.968 -0.0233 -0.2546  1.5180
  641MOL0     H86480   1.424   5.554   3.133 -0.9762 -1.8131 -0.4985
  641MOL0     H86481   1.394   5.712   3.063  0.4288  0.7424 -1.7960
  641MOL0     H86482   1.343   5.591   2.843  0.7002  2.9336  0.5538
  641MOL0     H86483   1.359   5.435   2.931  1.9020  0.2071  0.1797
  641MOL0     H86484   1.156   5.656   3.009 -1.7478 -1.6194  1.3076
  641MOL0     H86485   1.167   5.494   3.085  0.8023 -0.6180 -0.8471
  641MOL0     H86486   0.971   5.352   3.019  1.8788 -1.8891 -1.5492
  641MOL0     H86487   0.822   5.250   2.711 -1.1052 -4.3102  2.4230
  641MOL0     H86488   0.764   5.252   2.870 -1.0165 -2.8495 -2.4720
  641MOL0     H86489   0.671   5.449   2.659 -2.6144 -0.6627 -1.1091
  641MOL0     H86490   0.631   5.460   2.840 -1.7739  0.4567 -1.0679
  641MOL0     H86491   0.515   5.251   2.832  1.6807  0.9285  1.6360
  641MOL0     H86492   0.568   5.210   2.675 -0.5111  1.2442 -1.5080
  641MOL0     H86493   0.450   5.395   2.559 -1.2048 -1.9925 -0.9561
  641MOL0     H86494   0.414   5.463   2.720 -1.1574 -0.1872 -0.2772
  641MOL0     H86495   0.118   5.139   2.636 -0.4777  0.0779  0.7132
  641MOL0     H86496  -0.113   5.085   2.629 -1.7259 -0.6463 -0.4298
  641MOL0     H86497  -0.233   5.192   2.554 -1.9607 -2.9693 -0.6879
  641MOL0     H86498  -0.129   5.095   2.460 -0.2477 -1.4592  1.5553
  641MOL0     H86499  -0.331   5.791   2.509 -0.2801 -2.5084 -3.4321
  641MOL0     H86500  -0.555   5.854   2.596  0.1421 -0.6897 -1.7590
  641MOL0     H86501  -0.709   5.847   2.824  1.7640 -0.6591 -0.7862
  641MOL0     H86502  -0.772   5.861   2.654 -0.3452 -0.4678 -0.5668
  641MOL0     H86503  -0.971   5.892   2.803  2.1593  1.0627 -0.3416
  641MOL0     H86504  -0.992   5.750   2.718 -0.9732  1.6632  1.0892
  641MOL0     H86505  -0.870   5.721   3.004  0.1927 -4.1451  1.6078
  641MOL0     H86506  -0.920   5.603   2.895 -1.5382 -1.2661  1.7853
  641MOL0     H86507  -1.171   5.717   2.901  1.2292 -4.9168 -2.3678
  641MOL0     H86508  -1.097   5.621   3.039  4.0343 -0.1425 -0.1146
  641MOL0     H86509  -1.055   5.917   3.033  0.6779 -0.2321 -0.5287
  641MOL0     H86510  -1.036   5.802   3.164  0.3624  2.5768  0.4777
  641MOL0     H86511  -1.232   5.971   3.172  1.8157  0.3208 -1.2108
  641MOL0     H86512  -1.309   5.888   3.040  0.3417  3.1111  0.0700
  641MOL0     H86513  -1.209   5.755   3.303  0.1455 -0.8009 -0.5257
  641MOL0     H86514  -1.287   5.665   3.165  1.4909 -0.0486 -0.8092
  641MOL0     H86515  -1.402   5.897   3.332  1.8623 -0.1577 -0.3706
  641MOL0     H86516  -1.465   5.731   3.330 -2.2235  1.0969  0.6883
  641MOL0     H86517  -0.609   5.468   2.763  0.0622  1.5581  1.2710
  641MOL0     H86518  -0.369   5.406   2.688 -0.7826  0.1666  0.6189
  641MOL0     H86519   0.024   5.595   2.477  2.0242 -0.1628 -0.1215
  641MOL0     H86520   0.245   5.536   2.536  0.1582 -1.1564  0.6972
  641MOL0     H86521   2.330   5.886   3.280 -3.3025  1.6167 -1.9493
  641MOL0     H86522   2.568   5.890   3.236 -0.2039 -1.1016  1.2116
  641MOL0     H86523   2.915   5.713   3.196 -2.5521  3.1724 -3.0119
  641MOL0     H86524   3.170   5.696   3.221 -1.7305 -1.7822  1.1686
  641MOL0     H86525   3.356   5.817   3.069 -0.4504 -0.1346  1.0188
  641MOL0     H86526   3.464   5.725   3.169 -1.5299 -1.2755 -0.1930
  641MOL0     H86527   3.485   5.718   2.858 -1.3646  1.0952  0.4022
  641MOL0     H86528   3.587   5.632   2.981 -3.1479 -1.4678  2.8628
  641MOL0     H86529   3.663   5.852   3.065  1.3761 -0.4045 -0.9278
  641MOL0     H86530   3.563   5.921   2.925 -0.2221 -0.6510 -1.2893
  641MOL0     H86531   3.801   5.911   2.842  2.2153 -1.0135  0.5192
  641MOL0     H86532   3.707   5.772   2.772 -3.6878  0.9193  0.6748
  641MOL0     H86533   4.008   5.638   3.056  0.1411  1.0030 -0.3808
  641MOL0     H86534   3.199   5.565   2.827 -0.6794  0.8499  0.7627
  641MOL0     H86535   2.953   5.590   2.794 -0.0318  0.7734  0.9473
  642MOL0     O86536  11.183   0.010   9.933 -0.2414  0.4280 -0.3708
  642MOL0     C86537  11.180   0.118   9.872  0.4809 -0.3162  0.2989
  642MOL0     O86538  11.119   0.144   9.749  0.2576  0.2483 -0.5103
  642MOL0     C86539  11.051   0.040   9.691 -1.1762 -0.5895 -0.2442
  642MOL0     C86540  10.929   0.058   9.639 -0.1077 -0.7707  0.4565
  642MOL0     C86541  10.859  -0.040   9.566  0.5766  0.2728  0.2844
  642MOL0     C86542  10.923  -0.169   9.544  0.9133  0.9953  0.3533
  642MOL0     O86543  10.845  -0.269   9.480  0.2626 -0.2201 -0.4417
  642MOL0     C86544  10.874  -0.408   9.503 -0.0211 -0.1624 -1.0626
  642MOL0     C86545  10.766  -0.490   9.439 -0.0786  0.2132 -0.4831
  642MOL0     C86546  10.629  -0.462   9.508 -0.2412  0.5133  0.7835
  642MOL0     C86547  10.533  -0.559   9.447  0.3661  0.7707 -0.0086
  642MOL0     C86548  10.384  -0.552   9.496  0.0767  0.2085  0.5845
  642MOL0     C86549  10.314  -0.678   9.453  0.5116  0.5906 -0.2106
  642MOL0     C86550  10.168  -0.676   9.505 -0.6442  0.3333  0.1359
  642MOL0     C86551  10.071  -0.589   9.426 -0.4255  0.8495 -0.0038
  642MOL0     N86552   9.927  -0.608   9.464 -0.3868  0.3698 -0.3806
  642MOL0     C86553   9.886  -0.636   9.599 -1.3497  0.2839 -0.3106
  642MOL0     C86554   9.753  -0.636   9.584  0.4134 -0.0764 -0.6800
  642MOL0     C86555   9.649  -0.689   9.685 -0.9679 -0.1515  0.5924
  642MOL0     C86556   9.546  -0.581   9.707  0.0803 -0.2932 -0.0348
  642MOL0     C86557   9.451  -0.613   9.830  0.2160  0.3440 -0.2078
  642MOL0     C86558   9.504  -0.547   9.957 -0.0625  0.0426 -0.6205
  642MOL0     O86559   9.501  -0.406   9.951 -0.2742  0.3744  0.5084
  642MOL0     C86560   9.383  -0.340   9.969 -0.0486  0.5039  1.0045
  642MOL0     C86561   9.384  -0.204   9.960  0.1633 -0.6885  0.7590
  642MOL0     C86562   9.262  -0.130   9.978 -0.8664 -0.6186 -0.2011
  642MOL0     C86563   9.267   0.019   9.964  0.1419  0.2099 -0.4733
  642MOL0     C86564   9.140  -0.199  10.014  0.0505 -0.0502 -0.3501
  642MOL0     C86565   9.012  -0.131  10.028  0.4058 -0.0921 -0.4724
  642MOL0     O86566   8.950  -0.079   9.918  0.2378 -0.6718  0.4669
  642MOL0     C86567   8.825  -0.026   9.927 -0.8863  0.2013 -0.8540
  642MOL0     C86568   8.806   0.105   9.965 -1.3528  0.1539 -0.0792
  642MOL0     C86569   8.691   0.173   9.966  0.2573  0.1924  0.1143
  642MOL0     C86570   8.574   0.093   9.954  0.3329  0.9093  0.2434
  642MOL0     O86571   8.451   0.159   9.976  0.2247 -0.2000 -0.1729
  642MOL0     C86572   8.327   0.085   9.968 -0.1716  1.4574 -0.2584
  642MOL0     C86573   8.214   0.188   9.989 -0.6148  0.5025 -0.4188
  642MOL0     C86574   8.072   0.141   9.956  0.2587  0.0448  0.1715
  642MOL0     C86575   7.975   0.240  10.025  0.3962  0.1781  0.3899
  642MOL0     C86576   7.822   0.201   9.985  0.2462 -0.6387  0.1129
  642MOL0     C86577   7.716   0.277  10.059  0.6161  0.8393 -0.1079
  642MOL0     C86578   7.578   0.221  10.014 -0.1680 -0.7308  0.2452
  642MOL0     C86579   7.457   0.271  10.093 -0.1796 -0.2647 -0.9739
  642MOL0    Cl86580   7.317   0.180  10.016 -0.1472 -0.2024  0.1998
  642MOL0     C86581   8.584  -0.052   9.927 -0.2590 -0.1882 -0.8324
  642MOL0     C86582   8.714  -0.110   9.916  0.0811  1.2813 -0.5174
  642MOL0     O86583   8.965  -0.118  10.147 -0.2511  0.4361 -1.2574
  642MOL0     C86584   9.139  -0.337  10.011  0.8330  0.0471  0.9886
  642MOL0     C86585   9.258  -0.402   9.995  0.0436  0.4883  0.2589
  642MOL0     N86586   9.716  -0.615   9.452  0.0008  0.1135 -0.2548
  642MOL0     N86587   9.825  -0.598   9.380  0.1474 -0.0094  0.5204
  642MOL0     C86588  11.053  -0.187   9.592 -0.2675  0.5560 -0.2598
  642MOL0     C86589  11.109  -0.084   9.666  0.0489  0.2388 -0.1627
  642MOL0     C86590  11.270   0.222   9.923  0.3863 -0.2567 -0.1119
  642MOL0     C86591  11.353   0.197  10.036  0.1042 -0.2467 -0.0366
  642MOL0     C86592  11.432   0.299  10.088 -0.2126  0.3305  0.2250
  642MOL0     C86593  11.442   0.420  10.026  0.1821 -0.7867  0.3635
  642MOL0     O86594  11.527   0.518  10.069  0.7924 -0.1196  0.3737
  642MOL0     C86595  11.579   0.505  10.197  0.5405 -0.4397  0.3225
  642MOL0     C86596  11.682   0.616  10.182  0.2890 -0.1025 -0.5962
  642MOL0     C86597  11.806   0.576  10.096  0.8545 -0.3287 -0.2385
  642MOL0     C86598  11.880   0.698  10.031  0.1408  0.1477 -0.4946
  642MOL0     C86599  11.960   0.772  10.129  0.9772 -0.2460  0.2701
  642MOL0     C86600  12.018   0.848  10.202 -0.0825  0.0083  0.1936
  642MOL0     C86601  11.369   0.442   9.912 -0.9615 -0.3414  0.4230
  642MOL0     C86602  11.284   0.345   9.857 -0.7331  0.5975 -0.6992
  642MOL0     H86603  10.880   0.148   9.673 -1.7578 -1.6183  0.4661
  642MOL0     H86604  10.755  -0.022   9.543  0.6579  2.1774  1.1658
  642MOL0     H86605  10.977  -0.432   9.476  0.5778 -0.5208  1.3379
  642MOL0     H86606  10.875  -0.424   9.611  0.6392 -2.5023 -1.3779
  642MOL0     H86607  10.759  -0.471   9.332  0.8046  1.0543 -0.4023
  642MOL0     H86608  10.805  -0.591   9.458  1.6476  1.2391  1.9931
  642MOL0     H86609  10.630  -0.479   9.616  1.4474  0.1369  0.7407
  642MOL0     H86610  10.587  -0.363   9.491 -1.5683 -0.4502 -2.1611
  642MOL0     H86611  10.532  -0.546   9.338  1.2445  2.5515  0.1562
  642MOL0     H86612  10.590  -0.651   9.462  0.5819  0.6640 -1.3320
  642MOL0     H86613  10.383  -0.542   9.605  0.4417  3.3507  0.3778
  642MOL0     H86614  10.336  -0.460   9.461  0.2467 -0.5172 -1.7319
  642MOL0     H86615  10.322  -0.696   9.345 -2.7007 -1.2397 -0.2618
  642MOL0     H86616  10.359  -0.761   9.508 -3.5641 -1.0970  0.8857
  642MOL0     H86617  10.124  -0.776   9.499  3.4460 -1.6905  0.6277
  642MOL0     H86618  10.152  -0.638   9.607 -1.4719  2.2448 -0.6437
  642MOL0     H86619  10.077  -0.618   9.320 -0.2760 -0.7087  0.4030
  642MOL0     H86620  10.100  -0.483   9.429  0.6854  0.7473 -3.0379
  642MOL0     H86621   9.952  -0.649   9.684 -0.1568 -0.9525 -1.3871
  642MOL0     H86622   9.598  -0.779   9.650 -0.2216 -0.2839 -0.2056
  642MOL0     H86623   9.710  -0.724   9.769 -0.9635 -0.5893  0.4100
  642MOL0     H86624   9.492  -0.574   9.613  1.3678  0.7918 -0.7310
  642MOL0     H86625   9.597  -0.485   9.725  0.4730 -0.8238  1.9310
  642MOL0     H86626   9.443  -0.722   9.835  0.5816  0.3688  2.5195
  642MOL0     H86627   9.351  -0.580   9.802  0.3340 -1.3441 -2.9985
  642MOL0     H86628   9.603  -0.582   9.985 -0.8735 -1.0330  1.0900
  642MOL0     H86629   9.440  -0.583  10.037  1.7680 -1.8548  0.0562
  642MOL0     H86630   9.478  -0.158   9.934 -0.4728  1.3708  1.9278
  642MOL0     H86631   9.195   0.063   9.894 -1.2910  2.0644  1.9952
  642MOL0     H86632   9.243   0.057  10.064 -0.8320 -2.2235  0.2818
  642MOL0     H86633   9.373   0.043   9.949  0.2306 -0.6044 -1.1718
  642MOL0     H86634   8.889   0.170   9.993  0.3096 -1.5097 -0.9264
  642MOL0     H86635   8.679   0.278   9.988 -0.8424 -0.1262  1.1945
  642MOL0     H86636   8.328   0.031   9.874 -0.8352  1.6366 -0.3784
  642MOL0     H86637   8.325   0.006  10.043 -0.5547 -0.8614 -2.5772
  642MOL0     H86638   8.220   0.202  10.098  1.1401 -2.6947  0.0080
  642MOL0     H86639   8.238   0.283   9.940  2.1146  0.4092  0.5873
  642MOL0     H86640   8.060   0.042  10.002  1.6010  0.9526  2.5991
  642MOL0     H86641   8.036   0.131   9.853 -1.3058 -0.6738  0.7595
  642MOL0     H86642   7.987   0.224  10.132 -0.4133 -0.6188  0.3691
  642MOL0     H86643   8.000   0.344   9.999 -2.3803  0.7775 -0.1668
  642MOL0     H86644   7.805   0.094   9.996  3.0936 -1.4505 -2.1149
  642MOL0     H86645   7.808   0.231   9.881 -0.0919 -3.1326 -0.6156
  642MOL0     H86646   7.729   0.262  10.167  0.7090 -0.8477 -0.3259
  642MOL0     H86647   7.741   0.381  10.037  1.0016  0.8981  0.5773
  642MOL0     H86648   7.565   0.112  10.023 -2.8973 -0.3815  1.6303
  642MOL0     H86649   7.572   0.261   9.912  1.4946  1.6133  0.9981
  642MOL0     H86650   7.445   0.378  10.070  1.5356 -0.2536 -1.9761
  642MOL0     H86651   7.448   0.248  10.199 -0.1675 -0.8939 -1.1095
  642MOL0     H86652   8.492  -0.109   9.915  0.5200 -1.4481 -0.9908
  642MOL0     H86653   8.724  -0.217   9.899 -2.0828  1.2031 -1.5430
  642MOL0     H86654   9.047  -0.387  10.040  0.9175 -0.0716  1.0520
  642MOL0     H86655   9.257  -0.510  10.005 -0.0247  0.5752  1.2514
  642MOL0     H86656  11.109  -0.279   9.576  0.5934  1.3797 -2.4694
  642MOL0     H86657  11.208  -0.108   9.702  1.1222  1.8903 -1.8087
  642MOL0     H86658  11.361   0.101  10.087 -0.2117  0.4053  1.2846
  642MOL0     H86659  11.487   0.276  10.179 -1.1970  1.2827  1.0842
  642MOL0     H86660  11.503   0.532  10.271 -0.5058 -1.9469 -0.1726
  642MOL0     H86661  11.617   0.407  10.228 -2.3681 -1.7656  0.0079
  642MOL0     H86662  11.713   0.647  10.282 -1.8879 -2.6018  0.9989
  642MOL0     H86663  11.625   0.706  10.159 -0.5323  0.0110  1.5967
  642MOL0     H86664  11.765   0.504  10.025  1.5283 -0.2835 -0.6776
  642MOL0     H86665  11.883   0.528  10.156  0.7911  0.8045  0.8001
  642MOL0     H86666  11.802   0.768   9.998  1.3912 -0.3149 -5.1984
  642MOL0     H86667  11.947   0.686   9.945  2.7550 -2.3297  1.7165
  642MOL0     H86668  12.054   0.907  10.283 -0.3851 -2.0492  1.9097
  642MOL0     H86669  11.367   0.544   9.873 -2.5095 -0.3471  0.4635
  642MOL0     H86670  11.227   0.353   9.765 -0.3802 -1.9160 -1.2151
  643MOL0     O86671   4.719   8.379   2.339  0.7280 -0.4439 -0.2957
  643MOL0     C86672   4.740   8.423   2.228  0.1522 -0.4905  0.5935
  643MOL0     O86673   4.659   8.428   2.120  0.9338  0.3541 -0.4188
  643MOL0     C86674   4.530   8.389   2.150  0.4680 -0.8717 -0.3682
  643MOL0     C86675   4.446   8.493   2.197 -0.4409 -0.3891  0.1911
  643MOL0     C86676   4.308   8.468   2.221 -0.8295  0.1176 -0.8726
  643MOL0     C86677   4.258   8.338   2.198 -0.5860  0.2214 -0.3348
  643MOL0     O86678   4.132   8.308   2.213 -0.0487 -0.0362 -0.8196
  643MOL0     C86679   4.028   8.411   2.229  0.0252  0.2777 -0.9063
  643MOL0     C86680   3.900   8.338   2.177  0.6561  0.6520 -0.4932
  643MOL0     C86681   3.772   8.356   2.261 -1.2582 -0.0962 -0.5493
  643MOL0     C86682   3.678   8.246   2.222 -0.6567 -0.2484 -0.1750
  643MOL0     C86683   3.554   8.249   2.317 -0.4697 -0.5257  0.4329
  643MOL0     C86684   3.450   8.351   2.269  0.4717 -0.5650  0.5525
  643MOL0     C86685   3.323   8.337   2.366 -0.0069 -0.0735  0.1124
  643MOL0     C86686   3.242   8.201   2.337  0.4831 -0.1514  1.0729
  643MOL0     N86687   3.134   8.175   2.426 -0.6370  0.2954  0.5723
  643MOL0     C86688   3.141   8.132   2.563 -0.2289 -0.1680  0.3763
  643MOL0     C86689   3.012   8.093   2.582  0.2467  0.8513 -0.0103
  643MOL0     C86690   2.971   8.023   2.704  0.7880  0.4572 -0.9014
  643MOL0     C86691   2.916   8.126   2.806  0.4532 -0.1354 -0.3187
  643MOL0     C86692   2.906   8.048   2.948 -0.7795 -0.2809  0.2415
  643MOL0     C86693   2.910   8.154   3.067 -0.5736  0.2751 -0.6527
  643MOL0     O86694   2.870   8.105   3.197  0.9732  0.1624  0.0483
  643MOL0     C86695   2.957   8.039   3.279  0.4783 -0.0688 -0.6023
  643MOL0     C86696   3.096   8.026   3.262  0.5275  0.3713 -0.5526
  643MOL0     C86697   3.179   7.961   3.354  0.2782 -0.0398 -0.4591
  643MOL0     C86698   3.331   7.964   3.324  0.2704 -0.7180 -0.5432
  643MOL0     C86699   3.119   7.899   3.471  0.2575 -0.0128  0.6268
  643MOL0     C86700   3.199   7.816   3.563 -0.1143 -0.2659 -1.0154
  643MOL0     O86701   3.135   7.753   3.663  0.1199 -0.0982 -0.3372
  643MOL0     C86702   3.212   7.697   3.764 -0.4719 -0.4300  0.7421
  643MOL0     C86703   3.308   7.598   3.735  0.3767 -0.2253 -0.2242
  643MOL0     C86704   3.402   7.558   3.831  0.0422 -0.2497 -0.8087
  643MOL0     C86705   3.406   7.600   3.960 -0.1490  0.1813  0.5599
  643MOL0     O86706   3.500   7.552   4.035 -0.0968  1.3492 -0.4493
  643MOL0     C86707   3.522   7.621   4.154 -0.0940  0.8526  0.7468
  643MOL0     C86708   3.614   7.531   4.233  0.3257  0.0707 -0.0220
  643MOL0     C86709   3.762   7.586   4.204  1.0366  0.1328 -0.0778
  643MOL0     C86710   3.855   7.480   4.269 -1.5602 -0.8498 -0.1841
  643MOL0     C86711   4.003   7.516   4.254 -0.1425 -0.2287 -0.0975
  643MOL0     C86712   4.057   7.604   4.367  0.0318 -0.3136 -0.2712
  643MOL0     C86713   4.205   7.629   4.338 -0.5669 -0.4501 -0.0076
  643MOL0     C86714   4.264   7.697   4.459  0.1283  0.5215 -0.2633
  643MOL0    Cl86715   4.232   7.871   4.468  0.2317  0.3335 -0.4210
  643MOL0     C86716   3.300   7.699   3.990 -0.4170  0.4711  0.6975
  643MOL0     C86717   3.207   7.749   3.891  0.3059  0.6142  0.0325
  643MOL0     O86718   3.320   7.815   3.547  0.1476 -0.4847 -0.3052
  643MOL0     C86719   2.980   7.904   3.483 -0.7102 -0.3507 -0.7129
  643MOL0     C86720   2.905   7.977   3.394  0.8896 -0.6629  0.2280
  643MOL0     N86721   2.931   8.124   2.472 -0.4116  0.2052 -0.1583
  643MOL0     N86722   3.005   8.185   2.387  0.2661  0.1206  0.3006
  643MOL0     C86723   4.352   8.234   2.161 -1.0171 -0.1099  0.0076
  643MOL0     C86724   4.484   8.262   2.142 -0.2311 -0.4926  0.3698
  643MOL0     C86725   4.881   8.461   2.208 -0.5830 -0.7652  0.1016
  643MOL0     C86726   4.970   8.465   2.319  0.4433  0.1167  0.9171
  643MOL0     C86727   5.105   8.508   2.310 -0.0801  0.2153  0.2705
  643MOL0     C86728   5.165   8.531   2.183 -0.3202 -0.2066 -0.4248
  643MOL0     O86729   5.294   8.561   2.175 -0.2937  0.4144  0.2959
  643MOL0     C86730   5.363   8.576   2.049  0.5133  0.4173 -0.9210
  643MOL0     C86731   5.385   8.716   1.995 -0.1217  0.3089 -0.3514
  643MOL0     C86732   5.533   8.773   2.021  0.7668  0.8476 -0.5485
  643MOL0     C86733   5.552   8.926   1.987  0.1945 -0.9467  0.0458
  643MOL0     C86734   5.510   8.953   1.845  0.0848 -0.3641 -0.1772
  643MOL0     C86735   5.475   8.966   1.732 -0.0422  0.7860  0.4579
  643MOL0     C86736   5.073   8.534   2.078 -0.8098 -0.5987  0.1126
  643MOL0     C86737   4.941   8.501   2.083 -0.6381 -0.0282  0.0501
  643MOL0     H86738   4.467   8.599   2.205 -1.5069 -0.1848  0.5243
  643MOL0     H86739   4.239   8.542   2.260 -0.4690 -0.0885  0.1738
  643MOL0     H86740   4.010   8.436   2.334 -2.3936  2.8873 -1.8105
  643MOL0     H86741   4.045   8.505   2.175  0.1019  0.3905 -0.6834
  643MOL0     H86742   3.878   8.368   2.075  2.1499 -1.5262 -1.5492
  643MOL0     H86743   3.919   8.230   2.173  0.4354  0.5394  0.9718
  643MOL0     H86744   3.788   8.358   2.369 -0.7263 -1.9056 -0.5507
  643MOL0     H86745   3.716   8.448   2.244  0.6384  0.7782 -2.5570
  643MOL0     H86746   3.642   8.271   2.122 -0.0387 -0.6407 -0.5033
  643MOL0     H86747   3.730   8.150   2.225 -2.9794 -1.5710  0.4644
  643MOL0     H86748   3.512   8.148   2.319 -0.0526 -0.6990  0.6094
  643MOL0     H86749   3.579   8.274   2.420 -0.1847  0.0633  0.2275
  643MOL0     H86750   3.496   8.450   2.277  0.9458 -0.4203 -2.6894
  643MOL0     H86751   3.415   8.324   2.169 -0.2518 -2.7571  1.3417
  643MOL0     H86752   3.360   8.353   2.467 -1.1994  2.0553  0.2770
  643MOL0     H86753   3.249   8.418   2.358 -1.2350 -0.8872  2.5430
  643MOL0     H86754   3.309   8.114   2.330  2.1747  0.9867  2.2428
  643MOL0     H86755   3.190   8.205   2.241  0.2321  0.6612  1.2326
  643MOL0     H86756   3.217   8.121   2.641 -0.1648  0.3448  0.3880
  643MOL0     H86757   2.894   7.948   2.685  1.7431 -1.5791  2.4338
  643MOL0     H86758   3.055   7.968   2.749 -0.3901 -1.6316 -1.1553
  643MOL0     H86759   2.818   8.166   2.777  1.0557  1.5802 -0.1163
  643MOL0     H86760   2.980   8.214   2.813  0.5299 -0.2757  0.9520
  643MOL0     H86761   2.990   7.978   2.950 -1.2479 -0.8838 -0.5826
  643MOL0     H86762   2.818   7.983   2.952 -0.8858 -0.1042  0.9313
  643MOL0     H86763   2.834   8.226   3.037 -0.2922  0.6251 -0.5297
  643MOL0     H86764   3.003   8.212   3.068 -1.0263  1.0294  1.0606
  643MOL0     H86765   3.144   8.060   3.171  0.9695 -1.5490 -1.0781
  643MOL0     H86766   3.371   8.008   3.416  0.0683  0.5286 -1.0202
  643MOL0     H86767   3.360   7.861   3.302  1.1210 -0.9464  1.4321
  643MOL0     H86768   3.358   8.033   3.244 -1.2846  1.4280  0.6592
  643MOL0     H86769   3.324   7.568   3.632 -2.8387 -1.5478 -0.4620
  643MOL0     H86770   3.487   7.497   3.799 -0.6287 -1.8852  0.3595
  643MOL0     H86771   3.559   7.723   4.142 -0.2590  1.0554  1.8191
  643MOL0     H86772   3.425   7.623   4.204 -0.3508 -1.3265  0.4595
  643MOL0     H86773   3.594   7.554   4.338  0.8937  0.5870 -0.0211
  643MOL0     H86774   3.598   7.425   4.213  0.4444 -0.4177  2.2311
  643MOL0     H86775   3.783   7.685   4.246 -0.2488  1.2514 -1.9288
  643MOL0     H86776   3.785   7.588   4.097 -2.0590  1.8281 -0.8178
  643MOL0     H86777   3.832   7.462   4.375 -1.3856  2.2354  0.4639
  643MOL0     H86778   3.841   7.383   4.221 -0.1173  0.6268 -3.9305
  643MOL0     H86779   4.016   7.556   4.153  0.7218 -2.3264 -0.8672
  643MOL0     H86780   4.061   7.424   4.265  2.8890  1.7877  4.0453
  643MOL0     H86781   4.006   7.700   4.377 -0.3654 -0.5344 -0.1402
  643MOL0     H86782   4.060   7.548   4.461  0.0876  0.6340  0.3038
  643MOL0     H86783   4.210   7.702   4.257 -1.6031  1.3518  1.4672
  643MOL0     H86784   4.257   7.538   4.307  0.5067 -0.0516  0.5596
  643MOL0     H86785   4.369   7.689   4.430 -0.2430 -1.5772 -1.2110
  643MOL0     H86786   4.241   7.651   4.555 -0.0644  0.6869 -0.2292
  643MOL0     H86787   3.288   7.746   4.087  0.1619  0.2924  0.8578
  643MOL0     H86788   3.132   7.826   3.906  0.3815  0.7510 -0.2802
  643MOL0     H86789   2.928   7.858   3.566 -1.7540  0.5024 -0.8778
  643MOL0     H86790   2.800   7.973   3.419  0.7050 -1.8014 -0.6655
  643MOL0     H86791   4.323   8.131   2.140  0.3840 -0.2154 -1.5653
  643MOL0     H86792   4.540   8.176   2.107  3.2342  1.2258  1.2315
  643MOL0     H86793   4.934   8.439   2.418 -0.1596  1.4204  1.0578
  643MOL0     H86794   5.183   8.497   2.386 -0.0392  4.2349  1.0569
  643MOL0     H86795   5.456   8.519   2.040  0.9040  1.1497 -1.6681
  643MOL0     H86796   5.309   8.521   1.971  2.7880  1.4790 -3.3894
  643MOL0     H86797   5.321   8.785   2.051  2.0115  1.7454  0.4774
  643MOL0     H86798   5.367   8.726   1.888 -1.0638  1.1416 -0.1385
  643MOL0     H86799   5.600   8.711   1.960 -1.5734 -2.0211 -0.4320
  643MOL0     H86800   5.563   8.756   2.125 -0.8366 -0.4655 -0.2577
  643MOL0     H86801   5.654   8.964   1.999 -1.0058  2.8862 -0.5035
  643MOL0     H86802   5.495   8.988   2.057  1.1410  0.4853 -0.4123
  643MOL0     H86803   5.470   8.967   1.624 -1.2979  0.0327  0.4838
  643MOL0     H86804   5.104   8.548   1.975 -1.8696  0.4951 -0.0807
  643MOL0     H86805   4.880   8.493   1.993  1.5895 -0.3536 -1.5147
  644MOL0     O86806   3.523   0.458   3.711  0.3239 -0.1531 -0.3477
  644MOL0     C86807   3.630   0.483   3.654  0.5448 -0.0535 -0.0486
  644MOL0     O86808   3.633   0.506   3.518 -0.4285 -0.4881  0.3057
  644MOL0     C86809   3.524   0.489   3.444 -0.3731 -0.7734  0.0950
  644MOL0     C86810   3.429   0.592   3.421 -0.0053  0.7569  0.0480
  644MOL0     C86811   3.320   0.572   3.349 -0.1464  0.4173 -0.1818
  644MOL0     C86812   3.294   0.447   3.300  0.3379  0.6933  0.6311
  644MOL0     O86813   3.185   0.401   3.236 -1.0692  0.3554  0.0649
  644MOL0     C86814   3.056   0.449   3.266  0.3218  0.0752 -0.5770
  644MOL0     C86815   2.945   0.352   3.238  0.5772 -0.6900 -0.5463
  644MOL0     C86816   2.813   0.405   3.286  0.3845  0.0388  0.2068
  644MOL0     C86817   2.697   0.337   3.234  0.9283  0.6146  0.4251
  644MOL0     C86818   2.558   0.414   3.259 -0.4043 -0.0444 -0.9903
  644MOL0     C86819   2.443   0.329   3.203 -0.5375 -0.1707  0.4157
  644MOL0     C86820   2.308   0.413   3.223  1.1848 -0.5348 -0.2414
  644MOL0     C86821   2.180   0.336   3.175  0.6020  0.2752 -0.4021
  644MOL0     N86822   2.062   0.426   3.170 -0.8362  0.6293  0.8278
  644MOL0     C86823   2.076   0.550   3.110  0.4299 -0.2777  0.6674
  644MOL0     C86824   1.954   0.602   3.127 -0.5146  0.4453 -0.0786
  644MOL0     C86825   1.895   0.728   3.071  0.1586 -0.0387  0.8420
  644MOL0     C86826   1.749   0.763   3.128  0.0664 -0.1160 -0.6514
  644MOL0     C86827   1.684   0.888   3.071  0.2488 -0.6312  0.5044
  644MOL0     C86828   1.545   0.891   3.124 -0.0162  0.2852  0.3085
  644MOL0     O86829   1.453   0.807   3.052 -0.3832 -0.0197  0.0448
  644MOL0     C86830   1.315   0.824   3.056 -0.0834  0.5194  0.2008
  644MOL0     C86831   1.256   0.909   3.146  0.2433 -0.6590 -0.7560
  644MOL0     C86832   1.118   0.920   3.153 -0.2236 -0.2208  0.0188
  644MOL0     C86833   1.074   1.021   3.245  0.5954 -0.6443 -0.6964
  644MOL0     C86834   1.039   0.844   3.061 -0.6794 -0.6192  0.2580
  644MOL0     C86835   0.885   0.837   3.051 -0.2061  0.9962 -0.3439
  644MOL0     O86836   0.819   0.790   3.154 -0.2192  0.2533 -0.2565
  644MOL0     C86837   0.682   0.758   3.138 -0.3385 -0.3603  0.7948
  644MOL0     C86838   0.641   0.660   3.044 -0.2469 -0.4345 -0.9595
  644MOL0     C86839   0.506   0.619   3.042 -0.0772  0.5053  0.0489
  644MOL0     C86840   0.410   0.687   3.117 -0.3513 -0.6816  0.4076
  644MOL0     O86841   0.272   0.657   3.124 -0.0035  0.0029 -0.9576
  644MOL0     C86842   0.220   0.562   3.031  0.3705 -0.3660  0.2708
  644MOL0     C86843   0.067   0.554   3.041  1.2212 -0.0099 -0.1022
  644MOL0     C86844   0.021   0.482   3.166 -0.8757 -0.2706  1.4742
  644MOL0     C86845  -0.133   0.454   3.149 -0.3947 -0.8942 -0.5733
  644MOL0     C86846  -0.173   0.377   3.274 -0.5239  0.8819 -0.1595
  644MOL0     C86847  -0.309   0.315   3.250 -0.6556 -0.6112 -0.3875
  644MOL0     C86848  -0.362   0.223   3.364  0.5284 -0.5058  0.0718
  644MOL0     C86849  -0.510   0.179   3.356 -0.0208  0.2486 -0.0663
  644MOL0    Cl86850  -0.560   0.034   3.463  0.3915 -0.5310 -0.4265
  644MOL0     C86851   0.451   0.793   3.193  0.3460 -0.7118 -0.5804
  644MOL0     C86852   0.586   0.830   3.210  0.8216  0.2767  0.3612
  644MOL0     O86853   0.847   0.841   2.935 -0.0176 -0.0597 -0.6260
  644MOL0     C86854   1.103   0.754   2.975 -0.4427 -0.7040 -0.6621
  644MOL0     C86855   1.243   0.743   2.969  0.9257  0.2150 -0.1423
  644MOL0     N86856   1.874   0.518   3.208  0.3138  0.8193  0.3938
  644MOL0     N86857   1.950   0.415   3.239  0.6564 -0.2549  0.9096
  644MOL0     C86858   3.388   0.341   3.312 -0.1536 -0.2939 -0.5253
  644MOL0     C86859   3.504   0.364   3.386 -0.4322 -0.0586  0.0728
  644MOL0     C86860   3.759   0.484   3.731 -0.0272  0.3102  0.9539
  644MOL0     C86861   3.759   0.440   3.862  0.1407  1.0330  0.1503
  644MOL0     C86862   3.884   0.419   3.925  0.0098  0.0129 -0.0473
  644MOL0     C86863   4.007   0.434   3.870 -1.2121 -0.3391 -0.1186
  644MOL0     O86864   4.118   0.391   3.945 -0.6553  0.4522 -0.0479
  644MOL0     C86865   4.249   0.408   3.891 -0.7758 -0.1889  0.2141
  644MOL0     C86866   4.354   0.437   4.003 -0.0895 -0.8310 -0.2482
  644MOL0     C86867   4.356   0.330   4.116  0.1891 -0.2123  0.0070
  644MOL0     C86868   4.442   0.209   4.068  0.4196 -0.9839 -0.1757
  644MOL0     C86869   4.490   0.132   4.183  0.6138 -0.7488  0.1365
  644MOL0     C86870   4.522   0.065   4.277  0.5738  0.1214  0.0966
  644MOL0     C86871   4.008   0.480   3.737  0.4674 -0.0750  0.0286
  644MOL0     C86872   3.884   0.495   3.672  0.2103 -0.2955 -0.0055
  644MOL0     H86873   3.462   0.689   3.456 -0.4954  0.8216  0.3309
  644MOL0     H86874   3.258   0.658   3.327  1.1473  0.9138 -2.1778
  644MOL0     H86875   3.042   0.468   3.373 -1.5233  1.2681 -0.9975
  644MOL0     H86876   3.047   0.544   3.213 -1.7695  0.6261  0.6790
  644MOL0     H86877   2.948   0.325   3.132 -0.8377 -0.4552 -0.6562
  644MOL0     H86878   2.945   0.253   3.286 -0.1544 -0.7340 -0.6229
  644MOL0     H86879   2.806   0.400   3.395 -1.9537 -0.0534  0.0866
  644MOL0     H86880   2.808   0.511   3.259 -2.6831  0.3017  1.4707
  644MOL0     H86881   2.702   0.338   3.125  0.3944 -0.2209  0.3858
  644MOL0     H86882   2.700   0.237   3.278 -0.6922  0.7770  0.9859
  644MOL0     H86883   2.548   0.438   3.365  3.5968  2.5504 -1.0080
  644MOL0     H86884   2.570   0.511   3.211  0.7748  1.4185  2.0372
  644MOL0     H86885   2.449   0.309   3.095 -3.3372 -2.3225  0.5241
  644MOL0     H86886   2.440   0.226   3.241 -1.3154 -0.4147 -0.2710
  644MOL0     H86887   2.297   0.438   3.329  2.0243 -2.8012  0.4546
  644MOL0     H86888   2.313   0.508   3.169  0.8919 -1.0136 -1.1429
  644MOL0     H86889   2.147   0.262   3.248  0.1916 -0.6746 -1.5139
  644MOL0     H86890   2.198   0.286   3.079 -0.2624 -1.7532  0.4351
  644MOL0     H86891   2.161   0.587   3.054  2.1635 -1.4178  2.4282
  644MOL0     H86892   1.975   0.801   3.084 -1.7686  2.4063 -0.3173
  644MOL0     H86893   1.892   0.716   2.962 -2.2289  0.2289  0.8309
  644MOL0     H86894   1.751   0.780   3.236  0.5995  1.8644 -0.9308
  644MOL0     H86895   1.685   0.677   3.106 -1.5155  1.0778 -0.8924
  644MOL0     H86896   1.672   0.893   2.963  2.3660 -1.5963  0.1855
  644MOL0     H86897   1.732   0.982   3.100 -2.0667  2.0134 -3.3018
  644MOL0     H86898   1.521   0.997   3.110  1.7360  0.6117 -0.4745
  644MOL0     H86899   1.555   0.864   3.229 -2.0559 -2.8167 -0.1848
  644MOL0     H86900   1.319   0.967   3.213 -0.6469  0.5697 -0.9552
  644MOL0     H86901   1.114   0.988   3.341 -0.8425 -1.2517 -0.2886
  644MOL0     H86902   1.102   1.123   3.215 -2.8272  0.1890 -1.5499
  644MOL0     H86903   0.964   1.023   3.241  0.5379 -0.9047  0.4056
  644MOL0     H86904   0.725   0.616   2.990  1.7116  0.4333  1.1804
  644MOL0     H86905   0.482   0.531   2.983  1.9650 -0.0441 -0.0611
  644MOL0     H86906   0.245   0.592   2.928  0.5336 -0.0372  0.4045
  644MOL0     H86907   0.268   0.467   3.056  1.7896 -0.4151 -2.2775
  644MOL0     H86908   0.016   0.648   3.019 -0.5939 -1.0987 -0.8138
  644MOL0     H86909   0.031   0.495   2.956  1.6520 -0.4843  0.0369
  644MOL0     H86910   0.037   0.544   3.254  1.3323  0.6874  0.4871
  644MOL0     H86911   0.078   0.390   3.178  1.0263  0.5585 -0.5120
  644MOL0     H86912  -0.198   0.541   3.137  0.0196 -0.7902 -2.4432
  644MOL0     H86913  -0.162   0.401   3.058  0.5335 -1.0860 -0.7679
  644MOL0     H86914  -0.158   0.451   3.354  4.2006 -0.2518  0.3279
  644MOL0     H86915  -0.101   0.297   3.294  0.0683  1.3958 -0.2026
  644MOL0     H86916  -0.376   0.397   3.222  1.7994  2.1905  1.3580
  644MOL0     H86917  -0.304   0.256   3.158  0.1769 -0.7853 -0.2435
  644MOL0     H86918  -0.352   0.270   3.462 -0.8615  0.5024 -0.2519
  644MOL0     H86919  -0.307   0.128   3.369 -0.7533 -1.2763  0.0910
  644MOL0     H86920  -0.548   0.150   3.258 -0.4737  0.7205 -0.0330
  644MOL0     H86921  -0.566   0.268   3.385  2.0890  2.1454 -1.4308
  644MOL0     H86922   0.377   0.849   3.250  2.3705  2.1285 -0.4917
  644MOL0     H86923   0.615   0.902   3.286 -1.1484 -0.3054  1.7390
  644MOL0     H86924   1.043   0.704   2.900 -2.8019  2.7333 -1.3158
  644MOL0     H86925   1.294   0.672   2.904  1.5436 -0.5782  1.1701
  644MOL0     H86926   3.364   0.247   3.264 -0.2241 -0.1951 -0.6834
  644MOL0     H86927   3.576   0.283   3.396  0.2558  0.3766 -1.2257
  644MOL0     H86928   3.661   0.420   3.906 -0.4358  2.9779 -0.1332
  644MOL0     H86929   3.887   0.385   4.028  1.5044 -0.0059 -0.0752
  644MOL0     H86930   4.280   0.324   3.829 -0.5788 -2.1316  2.7463
  644MOL0     H86931   4.255   0.493   3.823 -0.0995 -0.6583 -0.3211
  644MOL0     H86932   4.322   0.527   4.057  3.1279  0.6577 -0.5795
  644MOL0     H86933   4.454   0.450   3.960  0.3513 -1.6136  0.5001
  644MOL0     H86934   4.252   0.301   4.136  0.3748 -1.0555 -0.1835
  644MOL0     H86935   4.394   0.374   4.208  0.0069  2.3118 -1.0596
  644MOL0     H86936   4.527   0.256   4.017  0.0008  0.8630  0.7341
  644MOL0     H86937   4.384   0.156   3.992  0.8559  2.3135 -3.0745
  644MOL0     H86938   4.545   0.011   4.367  2.8675  0.7856 -0.0339
  644MOL0     H86939   4.100   0.480   3.679 -0.5325  0.7200 -1.6204
  644MOL0     H86940   3.891   0.512   3.565  4.8967 -2.4671 -0.2730
  645MOL0     O86941   4.299   7.710   3.051  0.3201  0.6189  0.1668
  645MOL0     C86942   4.234   7.614   3.065 -1.0142  0.2854  0.8447
  645MOL0     O86943   4.095   7.618   3.076 -0.2301 -0.8681 -0.0192
  645MOL0     C86944   4.028   7.741   3.074  0.1243 -0.0177  0.4027
  645MOL0     C86945   4.073   7.868   3.106  0.0773 -0.2362  0.3252
  645MOL0     C86946   3.993   7.985   3.090 -0.8621 -0.2787 -0.2957
  645MOL0     C86947   3.864   7.982   3.032 -0.1456 -0.0762  0.4533
  645MOL0     O86948   3.768   8.083   3.018 -0.3231  0.4060  0.6944
  645MOL0     C86949   3.783   8.181   3.124  0.0252 -0.1562  0.0784
  645MOL0     C86950   3.674   8.289   3.097  0.3529 -0.7566  0.1950
  645MOL0     C86951   3.547   8.243   3.177 -0.4736 -0.7209  0.7100
  645MOL0     C86952   3.432   8.351   3.175  0.5717  0.1304 -0.2184
  645MOL0     C86953   3.312   8.310   3.254  0.7988 -0.3689  0.2613
  645MOL0     C86954   3.225   8.423   3.308 -0.3377  0.4120  0.1465
  645MOL0     C86955   3.104   8.383   3.377  1.3485 -0.9394 -0.5370
  645MOL0     C86956   3.042   8.506   3.429 -0.0538 -0.8421 -0.3151
  645MOL0     N86957   2.919   8.476   3.499 -0.1615 -0.1388  0.1570
  645MOL0     C86958   2.811   8.425   3.439 -0.0116 -0.1833  0.0934
  645MOL0     C86959   2.725   8.400   3.533  0.1970  0.6452  0.0704
  645MOL0     C86960   2.580   8.354   3.512 -0.9304  0.6087  0.4346
  645MOL0     C86961   2.572   8.205   3.462 -0.3413 -0.6553 -0.0817
  645MOL0     C86962   2.435   8.141   3.480 -0.1558 -0.1901 -0.0197
  645MOL0     C86963   2.335   8.200   3.382  0.3311  0.1902 -0.1365
  645MOL0     O86964   2.213   8.137   3.402 -0.0306 -0.5241  0.0601
  645MOL0     C86965   2.142   8.128   3.282  0.5637 -0.0018  0.1179
  645MOL0     C86966   2.163   8.019   3.201  0.0810 -0.4236 -0.1070
  645MOL0     C86967   2.094   8.011   3.075  0.6894 -0.2365  0.5302
  645MOL0     C86968   2.115   7.887   2.990  0.1507  0.2906 -0.6795
  645MOL0     C86969   2.005   8.108   3.035  0.2656  0.2051  0.3927
  645MOL0     C86970   1.925   8.109   2.901  0.2700  0.8798 -0.8425
  645MOL0     O86971   1.953   8.019   2.800  0.0112  0.0679 -0.5055
  645MOL0     C86972   1.857   7.995   2.707  0.2160 -0.2581 -0.3413
  645MOL0     C86973   1.863   8.021   2.575  0.0763  0.1781  0.5790
  645MOL0     C86974   1.764   7.975   2.492 -0.1703 -0.6121  0.0193
  645MOL0     C86975   1.656   7.905   2.545  0.6554 -0.3769  0.4592
  645MOL0     O86976   1.564   7.841   2.463 -0.4834  0.0549 -0.0295
  645MOL0     C86977   1.572   7.831   2.318 -0.0774  0.0980 -0.8724
  645MOL0     C86978   1.469   7.738   2.285 -0.3528  0.3493 -0.0243
  645MOL0     C86979   1.331   7.787   2.325  0.3021  1.9067 -0.6995
  645MOL0     C86980   1.230   7.671   2.285  0.3787  0.8387  0.1065
  645MOL0     C86981   1.082   7.691   2.331 -0.5148 -0.4819 -0.5624
  645MOL0     C86982   0.994   7.572   2.319 -0.7890  0.6585 -0.2113
  645MOL0     C86983   0.844   7.613   2.300 -0.4022  0.0787  0.5920
  645MOL0     C86984   0.755   7.492   2.296  0.5522  0.5501 -0.2553
  645MOL0    Cl86985   0.748   7.431   2.469 -0.0951  0.4669  0.1850
  645MOL0     C86986   1.647   7.875   2.684 -0.6680  0.2289  0.2972
  645MOL0     C86987   1.753   7.919   2.761 -0.2566  0.2566 -0.0218
  645MOL0     O86988   1.826   8.182   2.902  0.1920  0.4311 -0.8569
  645MOL0     C86989   1.982   8.212   3.127  0.1735 -0.8672  0.2549
  645MOL0     C86990   2.055   8.223   3.249 -0.4597 -0.0601  0.5665
  645MOL0     N86991   2.781   8.437   3.649  0.1914  0.0762  0.0357
  645MOL0     N86992   2.891   8.491   3.626  0.1274 -0.1882 -0.2981
  645MOL0     C86993   3.816   7.858   2.995  0.4143 -0.6186  0.8236
  645MOL0     C86994   3.901   7.742   3.016 -0.2482 -0.3150  0.1621
  645MOL0     C86995   4.302   7.477   3.048  0.9584 -0.8848 -0.5727
  645MOL0     C86996   4.242   7.359   3.102 -0.1867 -0.2078  0.1809
  645MOL0     C86997   4.309   7.237   3.081 -0.4349  1.1353  0.8225
  645MOL0     C86998   4.431   7.228   3.013  0.0261 -0.4318 -0.6865
  645MOL0     O86999   4.470   7.100   2.976  0.5827 -0.8157 -0.4484
  645MOL0     C87000   4.589   7.081   2.899 -0.2473 -0.5977 -0.2062
  645MOL0     C87001   4.575   6.941   2.838 -0.2556  0.2355 -0.0885
  645MOL0     C87002   4.694   6.896   2.763 -1.0238  0.1373 -0.0143
  645MOL0     C87003   4.692   6.754   2.723  0.1078 -0.6423  0.7082
  645MOL0     C87004   4.813   6.697   2.649 -0.0087 -0.1878 -0.3359
  645MOL0     C87005   4.908   6.645   2.592  0.1889  0.2891 -0.0213
  645MOL0     C87006   4.497   7.350   2.985 -0.6421 -0.8444  0.6233
  645MOL0     C87007   4.435   7.473   3.001  0.3001  0.6071 -0.1327
  645MOL0     H87008   4.172   7.882   3.148 -0.4889 -0.3365  1.7301
  645MOL0     H87009   4.039   8.083   3.105  2.9472 -2.1339  1.4936
  645MOL0     H87010   3.786   8.137   3.224  1.0281 -0.0236  0.1198
  645MOL0     H87011   3.877   8.237   3.113  0.1845 -0.6411 -1.2194
  645MOL0     H87012   3.705   8.388   3.131 -1.5261 -0.0725  0.0462
  645MOL0     H87013   3.653   8.294   2.989  0.4580  2.4846  0.2312
  645MOL0     H87014   3.514   8.145   3.142  1.7900 -1.6275  0.9626
  645MOL0     H87015   3.575   8.223   3.281  0.8766  1.6190  0.8840
  645MOL0     H87016   3.465   8.447   3.216  0.1834 -0.4308  1.5269
  645MOL0     H87017   3.390   8.370   3.076  0.7509  1.2871 -0.0851
  645MOL0     H87018   3.244   8.244   3.199  0.5237 -0.1008  0.2736
  645MOL0     H87019   3.343   8.251   3.341  0.5100 -2.6074 -1.0799
  645MOL0     H87020   3.295   8.480   3.369  0.9747  0.1040 -1.0018
  645MOL0     H87021   3.189   8.485   3.225 -0.4097  0.9355  0.5662
  645MOL0     H87022   3.037   8.334   3.306 -0.3214 -0.2866  0.5174
  645MOL0     H87023   3.122   8.322   3.465 -1.5557  0.2227  1.0123
  645MOL0     H87024   3.024   8.573   3.345 -2.0693  0.4678  1.0489
  645MOL0     H87025   3.112   8.549   3.501 -0.5458  0.2459 -0.4559
  645MOL0     H87026   2.806   8.410   3.331  0.0427  3.5062 -0.5322
  645MOL0     H87027   2.539   8.358   3.614  1.9971 -2.3234  1.9153
  645MOL0     H87028   2.522   8.426   3.454 -2.3259  2.7170  4.1157
  645MOL0     H87029   2.643   8.145   3.520  0.4228 -0.6363 -0.9731
  645MOL0     H87030   2.611   8.207   3.360  5.1480 -0.3604  1.6993
  645MOL0     H87031   2.404   8.139   3.585 -0.0775 -1.6254 -0.0077
  645MOL0     H87032   2.458   8.042   3.439  0.2347  0.5451 -1.6666
  645MOL0     H87033   2.372   8.207   3.279  0.1543  2.9089 -0.1054
  645MOL0     H87034   2.319   8.306   3.406  3.0652  0.8069 -0.6853
  645MOL0     H87035   2.231   7.940   3.230 -2.1560 -2.0920  0.8954
  645MOL0     H87036   2.015   7.844   2.975  0.2902 -1.1348  1.7915
  645MOL0     H87037   2.161   7.914   2.895  0.9959  0.1402 -0.3238
  645MOL0     H87038   2.172   7.806   3.036  0.1248  1.0905  0.8528
  645MOL0     H87039   1.951   8.069   2.534  0.6894 -1.7185 -0.4634
  645MOL0     H87040   1.785   8.011   2.392  3.3782 -0.1878  0.7858
  645MOL0     H87041   1.554   7.922   2.261  0.0195 -1.2381 -3.1513
  645MOL0     H87042   1.671   7.792   2.292  1.7062  3.6927 -0.1722
  645MOL0     H87043   1.480   7.717   2.179  2.0516 -3.2874  0.7570
  645MOL0     H87044   1.487   7.639   2.327 -0.1990 -0.0713 -1.0817
  645MOL0     H87045   1.315   7.880   2.269 -1.9199  2.0723  0.1140
  645MOL0     H87046   1.316   7.807   2.432  0.1573  1.5945 -0.6604
  645MOL0     H87047   1.221   7.655   2.178 -1.0119  2.0046  0.0181
  645MOL0     H87048   1.248   7.568   2.318 -2.1812  0.1566 -0.4512
  645MOL0     H87049   1.038   7.769   2.267  1.1296  0.6327 -0.3797
  645MOL0     H87050   1.091   7.727   2.434 -1.4565 -0.8121 -0.3579
  645MOL0     H87051   1.026   7.508   2.236  1.8809  1.9678 -0.2716
  645MOL0     H87052   1.015   7.526   2.416  3.1328  2.4608 -0.0365
  645MOL0     H87053   0.822   7.666   2.207 -4.5125 -0.6327  0.9481
  645MOL0     H87054   0.824   7.677   2.387  0.5921  1.1227  0.0808
  645MOL0     H87055   0.794   7.414   2.230 -1.3385  1.1336 -2.2058
  645MOL0     H87056   0.651   7.510   2.264  0.3201  0.0566  0.2048
  645MOL0     H87057   1.560   7.826   2.727 -2.5268 -0.0939 -3.4338
  645MOL0     H87058   1.746   7.899   2.868  0.5650  2.7478  0.5714
  645MOL0     H87059   1.909   8.291   3.113  0.5316 -0.7045 -0.7316
  645MOL0     H87060   2.040   8.310   3.311  2.3204  0.4426  0.6536
  645MOL0     H87061   3.714   7.860   2.960  1.1769  0.1580 -1.5689
  645MOL0     H87062   3.872   7.642   2.986 -3.0430  0.2024  0.8554
  645MOL0     H87063   4.148   7.376   3.154  0.1194 -2.6583  1.7194
  645MOL0     H87064   4.255   7.152   3.121  0.0491 -1.6027 -3.6626
  645MOL0     H87065   4.595   7.156   2.820 -1.0993  0.2724  0.5250
  645MOL0     H87066   4.680   7.093   2.957  0.2013 -0.8842 -0.8412
  645MOL0     H87067   4.485   6.943   2.776 -0.4615  0.9177  0.2290
  645MOL0     H87068   4.558   6.867   2.917  1.7387  0.1614  0.3022
  645MOL0     H87069   4.779   6.915   2.828 -3.4864  1.3478  3.1310
  645MOL0     H87070   4.699   6.954   2.670 -1.2219 -1.8474 -1.3376
  645MOL0     H87071   4.616   6.732   2.647  1.5613  0.7100 -1.2481
  645MOL0     H87072   4.677   6.704   2.819 -0.1678 -1.5656  0.1988
  645MOL0     H87073   4.997   6.606   2.546  1.9058 -0.1815  3.3937
  645MOL0     H87074   4.599   7.338   2.949 -0.6978 -0.4019  0.3125
  645MOL0     H87075   4.482   7.562   2.961 -1.1547  2.7386  2.5321
  646MOL0     O87076   5.553   0.035   9.584 -0.0876  0.0486  0.2793
  646MOL0     C87077   5.641   0.049   9.496  0.4045  1.0069  0.0445
  646MOL0     O87078   5.639  -0.012   9.377 -0.4206  0.2320 -0.0656
  646MOL0     C87079   5.564  -0.119   9.348  0.6484 -0.3999  0.1498
  646MOL0     C87080   5.430  -0.139   9.388  0.2357 -0.0536  0.3085
  646MOL0     C87081   5.362  -0.249   9.341 -0.0759  0.3123  0.1689
  646MOL0     C87082   5.416  -0.339   9.251  0.0834 -0.3785 -0.2981
  646MOL0     O87083   5.332  -0.432   9.195 -0.0620  0.3973 -0.0445
  646MOL0     C87084   5.344  -0.568   9.250 -0.4334 -0.0757  0.7812
  646MOL0     C87085   5.223  -0.654   9.231  0.1658  0.1125  0.0336
  646MOL0     C87086   5.236  -0.802   9.272  0.1330 -0.3734 -0.0997
  646MOL0     C87087   5.357  -0.875   9.204 -0.0261  0.3149 -0.9352
  646MOL0     C87088   5.343  -1.033   9.215  0.3192 -0.9292 -0.4197
  646MOL0     C87089   5.276  -1.089   9.094 -0.3867 -1.0448 -0.8791
  646MOL0     C87090   5.203  -1.228   9.105  0.1454 -0.0332  0.1834
  646MOL0     C87091   5.297  -1.350   9.135  0.1023 -0.4520 -0.1107
  646MOL0     N87092   5.218  -1.474   9.155  0.4439 -0.1057 -0.3624
  646MOL0     C87093   5.139  -1.512   9.266 -0.0471  0.7451  1.2166
  646MOL0     C87094   5.059  -1.615   9.217  0.7487  0.3852  0.2749
  646MOL0     C87095   4.946  -1.673   9.301  0.4482 -0.5626 -0.6115
  646MOL0     C87096   4.817  -1.583   9.297 -0.0546  0.3801 -0.1592
  646MOL0     C87097   4.779  -1.576   9.147  1.6401  0.9574 -0.4625
  646MOL0     C87098   4.635  -1.553   9.118 -0.8288  0.0400 -0.2268
  646MOL0     O87099   4.633  -1.537   8.977  0.3483 -0.9056 -0.7124
  646MOL0     C87100   4.508  -1.516   8.922  0.1948  0.0527 -0.2611
  646MOL0     C87101   4.504  -1.445   8.807 -0.5493 -0.1269 -0.9018
  646MOL0     C87102   4.387  -1.433   8.732  0.3528 -0.7636 -0.6013
  646MOL0     C87103   4.397  -1.366   8.601  0.1142  0.1359  0.0217
  646MOL0     C87104   4.269  -1.497   8.781 -0.5462 -0.4045  0.2225
  646MOL0     C87105   4.134  -1.483   8.711  0.0734  0.0314  0.2499
  646MOL0     O87106   4.118  -1.378   8.626 -0.2289  0.3702  0.0135
  646MOL0     C87107   3.991  -1.355   8.584  0.7666 -0.3235 -0.1564
  646MOL0     C87108   3.889  -1.348   8.683 -0.3960 -0.2745  0.1277
  646MOL0     C87109   3.753  -1.336   8.643 -0.0774 -0.1040 -0.3645
  646MOL0     C87110   3.724  -1.327   8.506  0.7999 -0.0801 -0.0384
  646MOL0     O87111   3.592  -1.303   8.480 -0.0693 -0.6336 -0.0336
  646MOL0     C87112   3.542  -1.307   8.350  0.0966 -0.5160 -0.3512
  646MOL0     C87113   3.394  -1.302   8.347  0.1864 -0.0805  0.2142
  646MOL0     C87114   3.339  -1.311   8.204 -0.6599  0.0557 -0.0969
  646MOL0     C87115   3.189  -1.293   8.203 -0.5802  0.1766 -0.2601
  646MOL0     C87116   3.112  -1.325   8.079  0.9268 -0.0957  0.7504
  646MOL0     C87117   2.969  -1.350   8.114  0.7235  0.1115 -0.7231
  646MOL0     C87118   2.873  -1.369   7.998  1.0198  0.0381  0.5819
  646MOL0     C87119   2.726  -1.378   8.052  0.1943 -0.3928 -0.2740
  646MOL0    Cl87120   2.667  -1.208   8.112 -0.3586  0.0176 -0.1074
  646MOL0     C87121   3.821  -1.352   8.407 -0.0341 -0.2163  0.4590
  646MOL0     C87122   3.955  -1.359   8.451  0.4151  0.7170  0.2116
  646MOL0     O87123   4.053  -1.572   8.736  0.3540 -0.2473 -0.0339
  646MOL0     C87124   4.274  -1.570   8.901  0.3613  0.1946 -0.3180
  646MOL0     C87125   4.399  -1.583   8.960  0.5824  0.2971 -0.3467
  646MOL0     N87126   5.110  -1.641   9.084  0.0826 -0.3088 -0.4237
  646MOL0     N87127   5.208  -1.556   9.052 -0.0642  0.3769  0.0274
  646MOL0     C87128   5.550  -0.319   9.205  0.1433  0.1679  0.3817
  646MOL0     C87129   5.617  -0.204   9.253  0.6502  0.2275  0.1749
  646MOL0     C87130   5.763   0.125   9.529 -0.7684 -0.2589 -0.2952
  646MOL0     C87131   5.892   0.109   9.462  0.7349 -0.3195  0.5483
  646MOL0     C87132   5.998   0.197   9.490  0.0718  0.3328 -0.2680
  646MOL0     C87133   5.986   0.296   9.590  0.5068  0.1256 -0.0286
  646MOL0     O87134   6.090   0.387   9.598  0.1843 -0.0227 -0.4825
  646MOL0     C87135   6.103   0.496   9.695 -0.2838  0.0408  0.6598
  646MOL0     C87136   6.035   0.620   9.649 -0.2757  0.5512  0.3592
  646MOL0     C87137   6.055   0.722   9.758  0.3209  0.1105  0.0278
  646MOL0     C87138   5.985   0.863   9.725  0.0003 -0.6147 -0.8161
  646MOL0     C87139   5.841   0.844   9.713  0.4740 -0.4967  0.6017
  646MOL0     C87140   5.721   0.813   9.707 -1.4885  0.3905 -0.9159
  646MOL0     C87141   5.863   0.313   9.652  0.2423 -0.0924 -0.6484
  646MOL0     C87142   5.754   0.229   9.631 -0.6629  0.0714  0.3115
  646MOL0     H87143   5.381  -0.062   9.448  1.1566  0.3587  0.5488
  646MOL0     H87144   5.261  -0.264   9.377  0.0652 -1.8066 -0.1851
  646MOL0     H87145   5.422  -0.617   9.191 -0.6593  1.5040 -0.8921
  646MOL0     H87146   5.360  -0.562   9.359 -4.4240  1.1815  1.4270
  646MOL0     H87147   5.142  -0.611   9.290  1.1557 -1.2215  2.5236
  646MOL0     H87148   5.193  -0.659   9.126  2.3285 -1.8804 -0.5773
  646MOL0     H87149   5.247  -0.823   9.378  2.7235 -2.8084 -0.7437
  646MOL0     H87150   5.143  -0.850   9.240 -0.0170 -0.8247  1.0070
  646MOL0     H87151   5.362  -0.837   9.102 -0.6126 -0.3245 -1.2104
  646MOL0     H87152   5.449  -0.844   9.254 -0.3985  1.5212 -0.9469
  646MOL0     H87153   5.438  -1.087   9.217  0.8287 -0.1495  2.6453
  646MOL0     H87154   5.288  -1.049   9.308  1.6749  1.7905  0.9994
  646MOL0     H87155   5.193  -1.021   9.076 -1.1161 -2.3518 -2.8402
  646MOL0     H87156   5.348  -1.095   9.011  0.6639 -1.7348  0.0528
  646MOL0     H87157   5.132  -1.225   9.188  1.9329  0.0301  1.7663
  646MOL0     H87158   5.149  -1.238   9.010 -0.5565  1.2505  0.4262
  646MOL0     H87159   5.355  -1.327   9.225 -1.2362 -2.5172  1.3645
  646MOL0     H87160   5.370  -1.357   9.054  1.9702 -0.7560  1.5155
  646MOL0     H87161   5.140  -1.472   9.367 -0.4456  0.3961  1.3601
  646MOL0     H87162   4.925  -1.779   9.287  0.4269 -0.8611  1.4256
  646MOL0     H87163   4.970  -1.674   9.408  0.6883  0.9422 -0.6250
  646MOL0     H87164   4.829  -1.477   9.324 -0.6791  0.1019  1.2737
  646MOL0     H87165   4.737  -1.631   9.354  0.5700 -0.0232  0.4024
  646MOL0     H87166   4.804  -1.664   9.087  2.1810  1.0977 -0.4414
  646MOL0     H87167   4.840  -1.495   9.107  1.2963  0.7250 -1.4921
  646MOL0     H87168   4.612  -1.456   9.163 -0.8180 -0.5164  1.0287
  646MOL0     H87169   4.575  -1.636   9.159 -0.2996  0.4579  1.4793
  646MOL0     H87170   4.601  -1.407   8.777 -0.1559 -1.7795 -1.8825
  646MOL0     H87171   4.326  -1.283   8.591 -0.2141 -0.2750 -1.1789
  646MOL0     H87172   4.496  -1.319   8.592 -0.0548  0.5318  0.1863
  646MOL0     H87173   4.389  -1.428   8.511  0.4799  2.1394 -1.4612
  646MOL0     H87174   3.909  -1.359   8.789  1.0007 -1.9450 -0.2555
  646MOL0     H87175   3.669  -1.350   8.711 -0.6118 -3.0520 -1.4841
  646MOL0     H87176   3.589  -1.228   8.291  1.2291 -0.4512  0.5893
  646MOL0     H87177   3.576  -1.404   8.311 -1.0319 -0.9726 -0.2179
  646MOL0     H87178   3.354  -1.393   8.392 -1.3456  1.2780  1.7593
  646MOL0     H87179   3.365  -1.214   8.406  3.0769 -0.3050  2.1233
  646MOL0     H87180   3.357  -1.415   8.175 -0.6391  0.5884 -2.1025
  646MOL0     H87181   3.390  -1.244   8.134  4.1597 -0.4357  2.4653
  646MOL0     H87182   3.154  -1.369   8.274 -1.7141 -0.2053 -1.1968
  646MOL0     H87183   3.160  -1.203   8.256  0.9703 -0.1981  1.3366
  646MOL0     H87184   3.152  -1.410   8.023  0.9213 -0.5936  1.4828
  646MOL0     H87185   3.109  -1.238   8.014  2.5157 -0.4505  0.1617
  646MOL0     H87186   2.966  -1.441   8.175  1.3401  0.2744 -0.4351
  646MOL0     H87187   2.940  -1.266   8.178 -0.4004 -0.1875 -0.8314
  646MOL0     H87188   2.888  -1.461   7.942  0.8021  1.1623 -1.3965
  646MOL0     H87189   2.878  -1.296   7.918 -3.0243 -1.1532 -1.0213
  646MOL0     H87190   2.726  -1.442   8.140 -0.0613  1.5010  1.1665
  646MOL0     H87191   2.657  -1.408   7.973  0.4146  0.2390 -0.7132
  646MOL0     H87192   3.806  -1.361   8.300  0.7017  0.7543  0.2539
  646MOL0     H87193   4.032  -1.375   8.377  1.5990 -0.7639  1.6842
  646MOL0     H87194   4.185  -1.617   8.940  0.6742  0.6055  0.9441
  646MOL0     H87195   4.406  -1.651   9.046 -0.6004 -2.6368 -2.4038
  646MOL0     H87196   5.588  -0.386   9.128  1.3705  2.0077 -0.7111
  646MOL0     H87197   5.710  -0.182   9.202 -0.2704  1.3212 -1.0906
  646MOL0     H87198   5.906   0.038   9.381 -0.5014  1.6104 -1.4616
  646MOL0     H87199   6.089   0.183   9.432  1.6913  0.1633  2.1719
  646MOL0     H87200   6.068   0.465   9.794  0.0277  0.9455  1.0661
  646MOL0     H87201   6.207   0.524   9.719 -0.9917  0.7902  3.2280
  646MOL0     H87202   5.930   0.591   9.642  0.3019 -1.3007 -3.4550
  646MOL0     H87203   6.070   0.654   9.551  0.4164  0.4040  0.5470
  646MOL0     H87204   6.162   0.741   9.764  0.5141  0.2826 -2.7667
  646MOL0     H87205   6.016   0.686   9.854 -0.4083  2.2048  0.5880
  646MOL0     H87206   6.035   0.914   9.642 -4.4680  2.9866 -1.6948
  646MOL0     H87207   6.004   0.934   9.806  0.4929 -1.6647  0.0211
  646MOL0     H87208   5.619   0.781   9.696 -1.1553 -1.0409 -0.2227
  646MOL0     H87209   5.850   0.390   9.727 -1.2862  0.2574 -1.2363
  646MOL0     H87210   5.656   0.240   9.677 -0.6080 -1.5302  0.8680
  647MOL0     O87211   6.514   6.641   9.991  0.5203 -0.7331 -0.3148
  647MOL0     C87212   6.544   6.554   9.914  0.0070  0.8216 -0.2445
  647MOL0     O87213   6.463   6.513   9.817  0.4997 -0.3288  0.2123
  647MOL0     C87214   6.338   6.575   9.796 -0.1902 -0.2096  0.1220
  647MOL0     C87215   6.218   6.506   9.825  0.5198  0.1953 -0.0585
  647MOL0     C87216   6.088   6.568   9.803 -0.8413 -0.1916  0.3802
  647MOL0     C87217   6.077   6.684   9.726  0.5211 -0.2780 -0.0155
  647MOL0     O87218   5.954   6.722   9.696  1.0720 -0.2972  0.1292
  647MOL0     C87219   5.927   6.820   9.592  0.2672 -0.1902  0.7369
  647MOL0     C87220   5.776   6.812   9.567  0.8485 -0.1800  0.3459
  647MOL0     C87221   5.724   6.715   9.459 -0.7231  0.4643  0.4921
  647MOL0     C87222   5.604   6.765   9.388 -0.1029  0.7293 -0.6987
  647MOL0     C87223   5.481   6.773   9.481  0.3054  0.4542 -0.2042
  647MOL0     C87224   5.351   6.793   9.403 -0.8441  0.0201  0.1100
  647MOL0     C87225   5.227   6.815   9.485 -0.3602  0.6150 -0.3278
  647MOL0     C87226   5.170   6.691   9.549 -0.3555 -0.2320  0.4090
  647MOL0     N87227   5.061   6.709   9.649  0.0337  0.0970  0.8520
  647MOL0     C87228   5.066   6.793   9.757 -0.2164  0.1899  0.0546
  647MOL0     C87229   4.941   6.787   9.810  0.0719  1.1807  0.7875
  647MOL0     C87230   4.906   6.841   9.948  0.1579  0.3128  0.7535
  647MOL0     C87231   4.780   6.789  10.015  0.0842 -0.3117  0.3906
  647MOL0     C87232   4.653   6.869   9.969  0.5062 -0.3535 -0.3846
  647MOL0     C87233   4.526   6.842  10.059 -0.6050 -0.2195  0.6672
  647MOL0     O87234   4.412   6.896   9.985 -0.0299 -0.2828 -0.4166
  647MOL0     C87235   4.287   6.910  10.045  0.4035 -0.2756 -0.7808
  647MOL0     C87236   4.267   6.871  10.180 -0.0132 -0.4973  0.1939
  647MOL0     C87237   4.148   6.900  10.254 -0.3582 -0.7353 -1.4451
  647MOL0     C87238   4.150   6.850  10.406  0.8740 -0.2507  0.0980
  647MOL0     C87239   4.041   6.962  10.187 -0.3764 -0.0223 -0.1140
  647MOL0     C87240   3.908   7.004  10.248  0.2142  0.2336 -0.1845
  647MOL0     O87241   3.813   7.042  10.162 -0.4294  0.2524  0.3472
  647MOL0     C87242   3.681   7.051  10.206 -0.5340  0.1741 -0.5051
  647MOL0     C87243   3.625   6.926  10.212  0.1538  0.7111  0.5635
  647MOL0     C87244   3.495   6.906  10.261  0.5862 -0.4751  0.0855
  647MOL0     C87245   3.414   7.020  10.291 -0.4389 -0.2116 -0.0711
  647MOL0     O87246   3.287   6.997  10.325  1.0677 -0.1215  0.0013
  647MOL0     C87247   3.253   7.028  10.465  0.5165 -0.1486 -0.0890
  647MOL0     C87248   3.131   6.955  10.514  0.2653 -0.4534  0.5022
  647MOL0     C87249   3.111   6.984  10.665 -0.6329 -0.5492 -0.6111
  647MOL0     C87250   2.992   6.918  10.729 -0.0515  0.8420 -0.0671
  647MOL0     C87251   2.947   6.954  10.872 -1.5657  0.3318 -0.2729
  647MOL0     C87252   2.921   7.099  10.899 -0.0415  0.3125 -0.1597
  647MOL0     C87253   2.865   7.106  11.046  0.1564  0.8875  0.2812
  647MOL0     C87254   2.800   7.238  11.079 -0.1729 -1.0337  0.3949
  647MOL0    Cl87255   2.645   7.281  10.996  0.1068  0.4100 -0.2074
  647MOL0     C87256   3.473   7.147  10.291  0.5920  0.0383  0.1616
  647MOL0     C87257   3.608   7.162  10.250  0.1603 -0.3114 -0.0550
  647MOL0     O87258   3.894   7.009  10.368 -0.0244  0.4451 -0.4236
  647MOL0     C87259   4.063   6.998  10.055  0.2231  0.6083  0.5001
  647MOL0     C87260   4.186   6.966   9.979  0.8286 -0.4349 -0.0503
  647MOL0     N87261   4.863   6.697   9.730  0.8793  0.3803  0.4970
  647MOL0     N87262   4.934   6.652   9.637  0.4197 -0.0891  0.6802
  647MOL0     C87263   6.203   6.745   9.687  1.5647 -0.5348 -0.4149
  647MOL0     C87264   6.328   6.695   9.720  0.4189 -0.7469  0.0672
  647MOL0     C87265   6.682   6.499   9.908 -0.4767  0.3710  0.4858
  647MOL0     C87266   6.733   6.419   9.804 -0.0153  0.8962  0.3763
  647MOL0     C87267   6.854   6.347   9.807  0.2132 -0.2437 -0.1551
  647MOL0     C87268   6.937   6.370   9.921  0.0804 -0.2111  0.6346
  647MOL0     O87269   7.061   6.304   9.940  0.6245 -0.0850 -0.0342
  647MOL0     C87270   7.091   6.194   9.855 -0.0828  0.3156 -0.5721
  647MOL0     C87271   7.211   6.131   9.928 -0.7494  0.5688 -0.0537
  647MOL0     C87272   7.327   6.222   9.952 -0.0796 -0.1127  0.4064
  647MOL0     C87273   7.460   6.153   9.953  0.1514 -0.3521 -0.1770
  647MOL0     C87274   7.480   6.071  10.072  0.6441 -0.0147 -0.2624
  647MOL0     C87275   7.496   6.012  10.175  0.1266 -0.0217 -0.0178
  647MOL0     C87276   6.896   6.464  10.012 -0.4316 -0.3708 -0.2815
  647MOL0     C87277   6.770   6.528  10.012  0.2730  0.8797  0.3288
  647MOL0     H87278   6.242   6.419   9.886  0.3761  0.1668 -0.0428
  647MOL0     H87279   5.999   6.512   9.828 -1.1350 -0.1120 -0.4542
  647MOL0     H87280   5.946   6.920   9.634 -4.2760  0.1154  2.7112
  647MOL0     H87281   5.973   6.802   9.495 -0.6142  0.7074  0.1245
  647MOL0     H87282   5.725   6.781   9.658  1.9345  1.5853  1.6219
  647MOL0     H87283   5.753   6.917   9.543  0.9502  0.3291  2.3514
  647MOL0     H87284   5.808   6.703   9.391 -0.5391  0.3050  0.7437
  647MOL0     H87285   5.705   6.614   9.498  1.9000 -0.0155  0.7315
  647MOL0     H87286   5.628   6.864   9.350  1.3207  0.2737 -1.0776
  647MOL0     H87287   5.581   6.702   9.301  0.3433  0.9932 -1.0131
  647MOL0     H87288   5.462   6.679   9.534 -1.5075  1.1165  0.3976
  647MOL0     H87289   5.504   6.852   9.553  0.5787 -1.1998  1.6059
  647MOL0     H87290   5.362   6.883   9.342 -3.0282 -0.8039 -1.6329
  647MOL0     H87291   5.331   6.706   9.339 -3.6520  0.3275  0.4239
  647MOL0     H87292   5.237   6.894   9.560  1.4507  0.7249 -0.6248
  647MOL0     H87293   5.146   6.849   9.420  0.3099 -0.7350 -1.9390
  647MOL0     H87294   5.253   6.653   9.608  0.3930  2.2933  1.1158
  647MOL0     H87295   5.142   6.618   9.472  1.2694 -0.6732  0.2114
  647MOL0     H87296   5.159   6.833   9.797  0.6853 -3.5552  2.2427
  647MOL0     H87297   4.987   6.816  10.017 -0.8264 -2.6620  1.0062
  647MOL0     H87298   4.910   6.950   9.944  0.1841  0.3265  1.1585
  647MOL0     H87299   4.794   6.800  10.123  0.0490  0.3657  0.3284
  647MOL0     H87300   4.769   6.681   9.999  1.4674 -0.2100 -1.7181
  647MOL0     H87301   4.627   6.843   9.866 -0.6158 -0.1015 -0.1857
  647MOL0     H87302   4.670   6.976   9.974 -1.8167  0.2265 -2.6023
  647MOL0     H87303   4.541   6.893  10.154  2.0491  0.5859 -0.1131
  647MOL0     H87304   4.522   6.733  10.070  1.4595 -0.2982  0.9065
  647MOL0     H87305   4.346   6.816  10.229 -1.1915 -1.3256  1.2395
  647MOL0     H87306   4.236   6.786  10.430  0.1319 -2.3061 -2.2545
  647MOL0     H87307   4.149   6.943  10.463  1.1271  0.7234 -1.4113
  647MOL0     H87308   4.057   6.797  10.425  0.8561 -1.0013 -1.7973
  647MOL0     H87309   3.667   6.831  10.180 -3.6254 -0.7416 -0.7383
  647MOL0     H87310   3.447   6.809  10.265 -0.3321 -0.0077  0.9074
  647MOL0     H87311   3.341   6.998  10.523 -0.0143 -0.1364  0.7405
  647MOL0     H87312   3.227   7.133  10.479 -1.5254 -0.6102 -0.1521
  647MOL0     H87313   3.043   6.990  10.459 -0.5254 -0.4917  1.6865
  647MOL0     H87314   3.135   6.847  10.495  0.3793  0.1058 -3.5179
  647MOL0     H87315   3.114   7.091  10.683 -1.5839 -0.9835  2.9638
  647MOL0     H87316   3.202   6.949  10.714 -0.1644  3.3684  1.6529
  647MOL0     H87317   2.911   6.949  10.662  1.3136  1.8900 -1.2851
  647MOL0     H87318   3.015   6.811  10.729 -1.8909  0.3859 -1.8803
  647MOL0     H87319   3.025   6.916  10.938 -0.8451  2.2318  0.0528
  647MOL0     H87320   2.860   6.890  10.888 -1.7434  0.3623 -1.0649
  647MOL0     H87321   3.011   7.161  10.894 -1.4866  2.5793  0.4743
  647MOL0     H87322   2.840   7.134  10.834 -1.4905  1.5621  2.1982
  647MOL0     H87323   2.952   7.087  11.109 -0.1544 -1.7168  0.0389
  647MOL0     H87324   2.806   7.017  11.069 -0.1796  0.9504 -0.3318
  647MOL0     H87325   2.877   7.316  11.077 -0.8802 -0.3125  0.8675
  647MOL0     H87326   2.777   7.233  11.186  0.2875  1.0028  0.6284
  647MOL0     H87327   3.411   7.226  10.332  1.5667  0.4815  0.8108
  647MOL0     H87328   3.653   7.261  10.263  0.6098 -0.6375  1.0590
  647MOL0     H87329   3.979   7.046  10.005  0.1508 -0.3490 -0.3495
  647MOL0     H87330   4.202   6.989   9.874 -1.4689  0.8849 -0.1556
  647MOL0     H87331   6.197   6.831   9.621  1.0098 -0.6076 -0.4697
  647MOL0     H87332   6.419   6.752   9.708 -1.0193  1.7704  0.4725
  647MOL0     H87333   6.662   6.397   9.724  0.4737  0.2542  0.1111
  647MOL0     H87334   6.876   6.297   9.713  2.0455  0.3064 -0.0514
  647MOL0     H87335   7.010   6.123   9.836  1.3278 -1.0973 -1.5501
  647MOL0     H87336   7.118   6.226   9.754 -1.4432 -1.9355 -1.7352
  647MOL0     H87337   7.241   6.043   9.870  1.9626 -0.1573  2.2681
  647MOL0     H87338   7.174   6.098  10.026  1.9773 -2.0257  0.2422
  647MOL0     H87339   7.301   6.264  10.049 -2.5054  0.0530 -0.2383
  647MOL0     H87340   7.334   6.300   9.875 -0.3787  0.2989  0.7962
  647MOL0     H87341   7.536   6.231   9.957 -0.5073  0.4419 -1.9970
  647MOL0     H87342   7.486   6.108   9.856 -0.8674  3.1246 -2.2757
  647MOL0     H87343   7.500   5.934  10.249  0.8120  0.2175  0.2090
  647MOL0     H87344   6.967   6.478  10.093 -0.5466 -2.4475  0.2260
  647MOL0     H87345   6.732   6.582  10.099  0.0776  2.7097 -0.8304
  648MOL0     O87346   2.561   8.002   8.872 -0.5624  0.2675 -0.7283
  648MOL0     C87347   2.606   7.891   8.894 -0.6274 -0.3036 -0.8085
  648MOL0     O87348   2.530   7.777   8.928 -0.6932  0.0912 -0.5498
  648MOL0     C87349   2.399   7.796   8.897 -0.3979  0.3798  0.4643
  648MOL0     C87350   2.359   7.727   8.784  0.1203 -0.3893  0.6311
  648MOL0     C87351   2.224   7.725   8.755  0.6401  0.4869 -0.3625
  648MOL0     C87352   2.136   7.792   8.834  0.2918  0.2325 -0.1177
  648MOL0     O87353   2.009   7.791   8.791 -0.0904 -0.3678  0.0420
  648MOL0     C87354   1.939   7.913   8.794  0.9128 -0.1010  0.1644
  648MOL0     C87355   1.858   7.935   8.670  0.9646 -0.5063  0.3988
  648MOL0     C87356   1.761   7.822   8.643  0.2375 -0.2268 -0.3015
  648MOL0     C87357   1.641   7.863   8.557  0.7871 -0.4011 -0.9440
  648MOL0     C87358   1.566   7.739   8.492  0.2767  0.4892 -0.6780
  648MOL0     C87359   1.469   7.684   8.593  0.7638 -0.2196 -0.3587
  648MOL0     C87360   1.342   7.767   8.610 -0.7724  0.1324 -0.4882
  648MOL0     C87361   1.223   7.693   8.681  0.2149 -0.5255  0.6065
  648MOL0     N87362   1.100   7.747   8.623  0.1549  0.1120  0.2247
  648MOL0     C87363   1.050   7.699   8.504 -0.4510  0.5216  0.4458
  648MOL0     C87364   0.937   7.778   8.481  0.3553 -0.1909  0.4379
  648MOL0     C87365   0.821   7.746   8.381  0.0027  0.2846 -0.0134
  648MOL0     C87366   0.867   7.761   8.241  0.1599  0.1009  0.0274
  648MOL0     C87367   0.859   7.908   8.186 -0.2783  0.1560  0.4336
  648MOL0     C87368   0.957   8.012   8.245  0.7315  0.4450  0.7267
  648MOL0     O87369   1.089   7.964   8.263  0.4590 -0.2340  0.2788
  648MOL0     C87370   1.186   8.042   8.319 -0.0225 -0.9911  0.0246
  648MOL0     C87371   1.308   8.034   8.256 -0.5741  0.4463 -0.2816
  648MOL0     C87372   1.421   8.105   8.302 -0.8080  0.9091  0.3504
  648MOL0     C87373   1.559   8.085   8.238 -0.2308  0.5401 -0.9998
  648MOL0     C87374   1.408   8.200   8.403 -0.0197 -1.5552 -0.1483
  648MOL0     C87375   1.525   8.285   8.457 -0.2056 -0.0676  0.9694
  648MOL0     O87376   1.506   8.416   8.454 -1.0509 -0.3519 -0.5738
  648MOL0     C87377   1.606   8.497   8.486 -1.2367  0.0523  0.6488
  648MOL0     C87378   1.594   8.572   8.593  0.3289 -0.2019 -0.1531
  648MOL0     C87379   1.694   8.666   8.628 -0.5743  0.2275 -0.4905
  648MOL0     C87380   1.805   8.682   8.541 -0.5087 -0.3725 -0.4825
  648MOL0     O87381   1.896   8.784   8.586  0.1182  0.3364  0.5320
  648MOL0     C87382   1.987   8.826   8.485  1.0517  0.0393 -0.0919
  648MOL0     C87383   2.077   8.940   8.539  0.5298 -0.6352  0.6880
  648MOL0     C87384   2.165   8.987   8.425  0.0890 -0.6950  0.6375
  648MOL0     C87385   2.267   9.091   8.458  1.0451 -0.1592 -0.0086
  648MOL0     C87386   2.336   9.139   8.336 -0.2623  0.1085  0.2943
  648MOL0     C87387   2.459   9.223   8.378 -0.1828  0.0201  0.1102
  648MOL0     C87388   2.488   9.320   8.260  0.0248 -0.1055  0.4605
  648MOL0     C87389   2.581   9.436   8.310  0.4138 -0.2484 -0.0423
  648MOL0    Cl87390   2.580   9.573   8.188 -0.3581 -0.1525  0.2786
  648MOL0     C87391   1.807   8.603   8.425  0.4812 -0.1442 -0.1993
  648MOL0     C87392   1.713   8.505   8.396 -0.4533  0.0227 -0.7626
  648MOL0     O87393   1.622   8.229   8.501 -0.0406 -0.5016 -0.0709
  648MOL0     C87394   1.284   8.215   8.464  0.3787 -0.2506 -0.8914
  648MOL0     C87395   1.173   8.135   8.425  0.5751  0.1536 -0.6746
  648MOL0     N87396   0.913   7.859   8.591 -0.3300  0.2920 -0.1341
  648MOL0     N87397   1.013   7.838   8.674  0.4994  0.3102  1.0159
  648MOL0     C87398   2.178   7.852   8.947  0.8102 -1.0776 -0.5121
  648MOL0     C87399   2.307   7.857   8.976 -0.3571  0.1599 -0.2296
  648MOL0     C87400   2.748   7.868   8.894 -0.7445 -0.9152  0.2150
  648MOL0     C87401   2.805   7.743   8.875  0.7040 -0.8148 -0.1789
  648MOL0     C87402   2.943   7.728   8.891 -0.0043 -0.1364 -0.2946
  648MOL0     C87403   3.026   7.836   8.926  0.2752  0.1275  0.4090
  648MOL0     O87404   3.160   7.806   8.940 -0.0886 -0.3191 -0.2696
  648MOL0     C87405   3.230   7.889   9.028 -1.1357 -0.2023 -0.3473
  648MOL0     C87406   3.357   7.805   9.071  0.4924 -0.2596  0.1061
  648MOL0     C87407   3.450   7.906   9.145  0.2456 -1.1263  0.5824
  648MOL0     C87408   3.586   7.846   9.169 -0.0799 -0.4676 -0.0613
  648MOL0     C87409   3.590   7.732   9.258 -1.2724 -0.5127  0.1743
  648MOL0     C87410   3.601   7.623   9.318  0.5614  0.0320 -0.5721
  648MOL0     C87411   2.975   7.964   8.929  0.3321  0.3049 -0.0323
  648MOL0     C87412   2.835   7.975   8.908  0.5455 -0.5163  0.5971
  648MOL0     H87413   2.425   7.666   8.724 -3.2556 -3.1419 -0.6310
  648MOL0     H87414   2.183   7.665   8.675 -1.5798 -1.9725  2.3780
  648MOL0     H87415   1.868   7.913   8.877 -1.1444  1.4692 -1.4995
  648MOL0     H87416   2.011   7.995   8.802 -0.9595  1.4313  2.4629
  648MOL0     H87417   1.815   8.035   8.674  0.1348 -0.7583 -1.1051
  648MOL0     H87418   1.924   7.930   8.583 -1.7369 -0.8133 -1.7851
  648MOL0     H87419   1.815   7.737   8.599  2.3087  0.7793  0.1609
  648MOL0     H87420   1.721   7.783   8.736 -1.9316  2.9680  0.2897
  648MOL0     H87421   1.570   7.932   8.605  1.2861  1.4834 -2.8005
  648MOL0     H87422   1.684   7.928   8.481  3.9371  3.1117  3.2986
  648MOL0     H87423   1.499   7.770   8.412 -0.9973 -0.5024 -0.0244
  648MOL0     H87424   1.637   7.661   8.464 -0.8881 -1.2932  1.1323
  648MOL0     H87425   1.448   7.583   8.556  2.3043 -0.1213 -1.6207
  648MOL0     H87426   1.515   7.685   8.692 -0.5983 -0.0154  0.3015
  648MOL0     H87427   1.367   7.864   8.654 -0.1068  0.5077 -1.6663
  648MOL0     H87428   1.310   7.777   8.506 -2.0692 -1.6613 -0.3089
  648MOL0     H87429   1.232   7.713   8.789 -0.2859 -0.6102  0.6679
  648MOL0     H87430   1.233   7.585   8.665  2.8720 -0.0920 -1.2072
  648MOL0     H87431   1.078   7.618   8.437 -2.6444  0.3225 -0.3032
  648MOL0     H87432   0.782   7.645   8.398 -0.9087  0.5476 -0.4663
  648MOL0     H87433   0.733   7.805   8.408 -1.1586 -1.9194  1.3692
  648MOL0     H87434   0.794   7.693   8.196  1.0152 -1.6397  1.1359
  648MOL0     H87435   0.964   7.712   8.227 -0.4392 -1.1236 -0.0277
  648MOL0     H87436   0.761   7.955   8.182 -0.0659  0.5501 -2.0607
  648MOL0     H87437   0.885   7.894   8.080  0.1129 -2.3599  0.8011
  648MOL0     H87438   0.918   8.050   8.340 -0.0254  0.0493  0.5851
  648MOL0     H87439   0.958   8.099   8.178 -0.6374  0.6304  0.9204
  648MOL0     H87440   1.321   7.966   8.172  0.6940  0.0276  0.2217
  648MOL0     H87441   1.638   8.070   8.311  0.0066  2.5550 -0.7955
  648MOL0     H87442   1.551   7.999   8.171  0.0831  1.2474 -1.9710
  648MOL0     H87443   1.592   8.172   8.181  1.7080  0.4391 -0.1028
  648MOL0     H87444   1.501   8.560   8.648  0.9374 -0.5553  0.8211
  648MOL0     H87445   1.686   8.724   8.719 -0.2155 -0.6058  0.0880
  648MOL0     H87446   2.043   8.736   8.458 -2.1900 -2.4856  0.8675
  648MOL0     H87447   1.932   8.864   8.398  0.0051 -0.6513  0.2452
  648MOL0     H87448   2.019   9.026   8.573  0.2514 -0.6067  0.1566
  648MOL0     H87449   2.141   8.903   8.619 -0.9836 -5.4526 -0.0319
  648MOL0     H87450   2.103   9.031   8.346  0.2701 -0.7557  0.4601
  648MOL0     H87451   2.215   8.900   8.382 -1.1628 -0.2419 -1.8969
  648MOL0     H87452   2.225   9.172   8.518 -0.9282  0.8687 -2.5838
  648MOL0     H87453   2.345   9.045   8.518  1.4423  0.5714  0.0482
  648MOL0     H87454   2.267   9.192   8.270  0.3696  0.7426  0.1295
  648MOL0     H87455   2.368   9.062   8.265 -1.2270  0.5400 -0.6297
  648MOL0     H87456   2.457   9.275   8.474  0.3189 -0.3570  0.3324
  648MOL0     H87457   2.538   9.148   8.390 -1.8603 -1.6469  1.2836
  648MOL0     H87458   2.394   9.360   8.220 -0.1119  1.3785  2.1637
  648MOL0     H87459   2.540   9.281   8.172 -1.2208  0.6013 -0.6258
  648MOL0     H87460   2.683   9.400   8.324  0.4465 -0.6129 -1.1249
  648MOL0     H87461   2.541   9.483   8.400 -2.0870  0.9959 -1.6723
  648MOL0     H87462   1.884   8.614   8.349  1.1014  1.0347  0.5838
  648MOL0     H87463   1.725   8.438   8.311 -0.7851  0.6250 -1.2981
  648MOL0     H87464   1.279   8.290   8.543  0.3208  0.6838 -1.7695
  648MOL0     H87465   1.074   8.142   8.469  1.0282  1.4422  0.1887
  648MOL0     H87466   2.104   7.891   9.017  1.6777  0.0394 -0.1923
  648MOL0     H87467   2.332   7.904   9.071  0.4675  2.4978 -1.5132
  648MOL0     H87468   2.741   7.659   8.851 -1.3213 -0.0357  2.0257
  648MOL0     H87469   2.972   7.624   8.880  0.1263 -0.4578  2.2828
  648MOL0     H87470   3.256   7.984   8.981  0.6973 -0.1025  0.7672
  648MOL0     H87471   3.167   7.902   9.116  0.0057 -2.2445  0.8654
  648MOL0     H87472   3.406   7.765   8.982  2.0912 -0.5485  1.0837
  648MOL0     H87473   3.320   7.726   9.136 -2.6488 -0.4608 -1.7120
  648MOL0     H87474   3.414   7.914   9.248 -0.9403 -0.4574  0.1336
  648MOL0     H87475   3.456   8.004   9.098  0.1092 -0.7761  1.2826
  648MOL0     H87476   3.651   7.920   9.215 -0.9178  1.2130 -1.4200
  648MOL0     H87477   3.640   7.827   9.076  2.6655  2.8733  0.6562
  648MOL0     H87478   3.624   7.537   9.377 -1.0440 -0.0612 -0.0231
  648MOL0     H87479   3.034   8.053   8.948 -0.5127  1.1001 -1.0241
  648MOL0     H87480   2.804   8.079   8.920 -2.5532 -1.0231 -1.6816
  649MOL0     O87481   2.433   8.422  10.514  0.5763 -0.0455 -0.2765
  649MOL0     C87482   2.396   8.532  10.563  0.2031  0.5862 -0.0246
  649MOL0     O87483   2.265   8.559  10.604  0.4964  0.3974  0.3232
  649MOL0     C87484   2.160   8.489  10.555  0.4171 -0.8099  0.0179
  649MOL0     C87485   2.150   8.403  10.446  0.2054 -0.8935  0.6265
  649MOL0     C87486   2.030   8.333  10.409 -0.0524  0.0031 -0.3395
  649MOL0     C87487   1.913   8.353  10.492  0.5619 -0.6391 -0.6767
  649MOL0     O87488   1.804   8.295  10.452  0.0952 -0.0968  0.0611
  649MOL0     C87489   1.678   8.364  10.476 -0.1976 -0.4413 -0.3395
  649MOL0     C87490   1.559   8.288  10.404 -0.5102  0.1765 -0.2636
  649MOL0     C87491   1.490   8.363  10.281 -0.5870  0.3315 -0.3862
  649MOL0     C87492   1.414   8.488  10.324  0.1665  0.2046 -0.7184
  649MOL0     C87493   1.373   8.579  10.211  0.8859  0.7809  0.5139
  649MOL0     C87494   1.243   8.669  10.232  0.0899 -0.0048 -0.1633
  649MOL0     C87495   1.234   8.753  10.358  0.2747 -0.6238 -0.0754
  649MOL0     C87496   1.127   8.867  10.341 -1.1177 -1.2019 -0.2091
  649MOL0     N87497   0.999   8.815  10.291 -0.1987  0.4891 -0.1731
  649MOL0     C87498   0.924   8.718  10.350 -0.1385 -0.3321 -0.3623
  649MOL0     C87499   0.819   8.699  10.266  0.5125 -0.4700 -0.3625
  649MOL0     C87500   0.698   8.620  10.284  0.9452 -0.3924  0.9984
  649MOL0     C87501   0.611   8.664  10.402  0.3267 -0.7160 -0.0250
  649MOL0     C87502   0.507   8.767  10.353  0.2014  0.1207  0.0235
  649MOL0     C87503   0.392   8.714  10.272 -0.0408  0.3993  0.0719
  649MOL0     O87504   0.299   8.827  10.263 -0.1796 -0.4947 -0.8188
  649MOL0     C87505   0.172   8.786  10.280 -0.7173 -0.8728  0.5606
  649MOL0     C87506   0.118   8.674  10.213  0.2975 -0.5078  0.2408
  649MOL0     C87507  -0.020   8.631  10.232 -0.2368 -0.5006 -0.7206
  649MOL0     C87508  -0.063   8.501  10.172  0.8338  0.5051 -0.0905
  649MOL0     C87509  -0.099   8.722  10.309  0.1453  0.5540  1.2358
  649MOL0     C87510  -0.242   8.702  10.326 -0.0879  0.1168  0.0633
  649MOL0     O87511  -0.312   8.647  10.221  0.2876  0.7391 -0.0056
  649MOL0     C87512  -0.439   8.592  10.222  0.5071 -0.2710  0.9132
  649MOL0     C87513  -0.501   8.543  10.335 -0.1996  0.1397  0.0573
  649MOL0     C87514  -0.629   8.489  10.324  0.3994 -1.2852 -0.0998
  649MOL0     C87515  -0.710   8.497  10.202  0.2654 -0.1187 -0.1196
  649MOL0     O87516  -0.843   8.461  10.193  0.3787  0.1207  0.1084
  649MOL0     C87517  -0.906   8.389  10.302 -1.3882 -0.2527 -0.5061
  649MOL0     C87518  -1.056   8.376  10.267  0.1748  0.0214 -0.0448
  649MOL0     C87519  -1.066   8.329  10.120 -0.4837 -0.1899 -0.0826
  649MOL0     C87520  -1.216   8.285  10.089  0.0804 -0.2792  0.2285
  649MOL0     C87521  -1.214   8.243   9.944  0.6231  0.9886 -0.7752
  649MOL0     C87522  -1.356   8.193   9.911  0.6569  0.2286 -0.4613
  649MOL0     C87523  -1.362   8.144   9.770  0.2694 -1.0058  0.1707
  649MOL0     C87524  -1.269   8.028   9.730 -0.2046  1.0075  0.6366
  649MOL0    Cl87525  -1.259   8.008   9.552  0.2720 -0.2947  0.0330
  649MOL0     C87526  -0.644   8.551  10.088 -0.6849 -0.4095  0.5948
  649MOL0     C87527  -0.510   8.592  10.102  0.0726 -0.5625 -0.3484
  649MOL0     O87528  -0.287   8.724  10.436  0.1069 -0.4823 -0.0171
  649MOL0     C87529  -0.039   8.821  10.379  0.0385  0.0537  0.6614
  649MOL0     C87530   0.091   8.858  10.362 -0.3261 -0.3785  0.2830
  649MOL0     N87531   0.832   8.788  10.158 -0.4317  0.1934 -0.0818
  649MOL0     N87532   0.939   8.854  10.179 -0.3824  0.2027  0.1500
  649MOL0     C87533   1.929   8.427  10.606  0.3615  0.6464 -0.3830
  649MOL0     C87534   2.042   8.498  10.637 -0.2660  0.2320  0.1318
  649MOL0     C87535   2.499   8.626  10.608 -0.0895  0.4106  0.1728
  649MOL0     C87536   2.634   8.579  10.607  0.5137 -0.5095 -0.2539
  649MOL0     C87537   2.738   8.660  10.648  0.3245 -0.3792  0.9002
  649MOL0     C87538   2.713   8.793  10.680 -0.1353  0.0796  0.4257
  649MOL0     O87539   2.812   8.889  10.700 -1.1861  0.1011  0.0260
  649MOL0     C87540   2.930   8.850  10.775  0.3287 -0.0184 -0.1509
  649MOL0     C87541   2.980   8.977  10.837 -0.5246 -1.5946 -0.0097
  649MOL0     C87542   3.133   8.965  10.872 -0.4834 -0.5044  0.3136
  649MOL0     C87543   3.165   8.888  10.992 -0.0556  0.0065 -0.4618
  649MOL0     C87544   3.148   8.743  10.960  0.5021 -0.1112  0.6899
  649MOL0     C87545   3.133   8.623  10.944  0.0834 -0.8419 -0.0555
  649MOL0     C87546   2.582   8.844  10.682 -0.0241  0.0327 -0.5742
  649MOL0     C87547   2.478   8.757  10.653  0.3812  0.5991 -0.2330
  649MOL0     H87548   2.242   8.383  10.393  0.1233 -2.2807  0.9754
  649MOL0     H87549   2.020   8.255  10.335 -0.0967 -2.1989  1.8497
  649MOL0     H87550   1.661   8.362  10.584  0.4885  0.3738 -0.2078
  649MOL0     H87551   1.689   8.466  10.437  2.0814 -1.0197 -1.3468
  649MOL0     H87552   1.598   8.188  10.380 -1.9818 -0.2330 -1.0689
  649MOL0     H87553   1.491   8.263  10.486  1.3736 -2.0246  0.7487
  649MOL0     H87554   1.560   8.382  10.199  3.1600  0.1004  2.5112
  649MOL0     H87555   1.416   8.294  10.238  1.3742 -2.6592  0.7194
  649MOL0     H87556   1.323   8.463  10.380 -1.3179  2.4866 -1.9210
  649MOL0     H87557   1.476   8.550  10.390 -0.3749 -0.0201  0.0220
  649MOL0     H87558   1.461   8.640  10.191  2.5363 -0.4066  3.6167
  649MOL0     H87559   1.358   8.511  10.127  0.8378  1.6374 -0.1819
  649MOL0     H87560   1.228   8.731  10.143 -2.8025 -2.3501 -1.4765
  649MOL0     H87561   1.152   8.609  10.227 -0.8578  1.4856 -3.2015
  649MOL0     H87562   1.219   8.692  10.447  1.6228  0.9443  1.2772
  649MOL0     H87563   1.334   8.797  10.357  0.4717 -1.0178 -2.2474
  649MOL0     H87564   1.166   8.937  10.266 -3.2220  1.2476  0.8220
  649MOL0     H87565   1.114   8.928  10.431  5.6687  1.0736 -0.1998
  649MOL0     H87566   0.958   8.675  10.444 -1.0715 -0.6628 -0.1641
  649MOL0     H87567   0.644   8.604  10.190 -0.4540 -0.6203  1.8077
  649MOL0     H87568   0.743   8.521  10.298 -0.9810 -1.2368  1.5334
  649MOL0     H87569   0.670   8.710  10.482  0.7766  3.9149 -2.6364
  649MOL0     H87570   0.558   8.574  10.435  2.1574 -1.6383  0.5755
  649MOL0     H87571   0.555   8.838  10.284  1.2781 -0.9685 -0.3894
  649MOL0     H87572   0.477   8.825  10.440  0.3774  0.1099  0.0911
  649MOL0     H87573   0.351   8.624  10.319  1.6307 -0.1900  0.4660
  649MOL0     H87574   0.427   8.693  10.171  1.5150  1.5858  0.3269
  649MOL0     H87575   0.183   8.622  10.143  1.6286  0.4377  0.7362
  649MOL0     H87576  -0.094   8.439  10.257  1.2469  1.8272  1.0637
  649MOL0     H87577  -0.140   8.507  10.095  1.4325 -1.6013 -0.9423
  649MOL0     H87578   0.013   8.441  10.122 -2.3561 -1.1943 -3.3710
  649MOL0     H87579  -0.451   8.554  10.431  1.4139 -0.7677 -0.6376
  649MOL0     H87580  -0.662   8.449  10.419 -0.5603 -1.3723 -0.4557
  649MOL0     H87581  -0.853   8.294  10.313  2.7071  1.4044 -3.3148
  649MOL0     H87582  -0.889   8.443  10.395  3.0166 -0.9986 -0.6919
  649MOL0     H87583  -1.107   8.304  10.332 -1.1139 -0.3060 -1.3544
  649MOL0     H87584  -1.101   8.473  10.288  0.8067  0.5285 -0.9433
  649MOL0     H87585  -0.991   8.250  10.114  0.8433  0.9566  0.9091
  649MOL0     H87586  -1.038   8.408  10.050 -0.2999  0.2773  0.5119
  649MOL0     H87587  -1.241   8.201  10.154  1.2945 -0.5288  0.3986
  649MOL0     H87588  -1.288   8.365  10.109 -1.1190 -1.5822  1.3370
  649MOL0     H87589  -1.133   8.171   9.927 -0.2081 -0.8948  2.3845
  649MOL0     H87590  -1.196   8.339   9.893 -0.0154  3.0917  2.6549
  649MOL0     H87591  -1.380   8.113   9.982 -0.4140  1.0831  0.1760
  649MOL0     H87592  -1.427   8.275   9.927  1.3533  1.1320 -1.7711
  649MOL0     H87593  -1.334   8.225   9.702 -1.0291 -2.2432 -1.9430
  649MOL0     H87594  -1.468   8.120   9.754 -0.7364  3.2011 -0.5098
  649MOL0     H87595  -1.305   7.931   9.766 -0.7695 -0.5688 -3.6018
  649MOL0     H87596  -1.169   8.050   9.767 -0.9802  1.0637  2.8422
  649MOL0     H87597  -0.679   8.566   9.986 -1.3643 -3.2278  0.3230
  649MOL0     H87598  -0.455   8.630  10.017 -1.3214  0.2143 -0.9342
  649MOL0     H87599  -0.089   8.869  10.462  1.0974  0.0896  1.3039
  649MOL0     H87600   0.143   8.929  10.425  2.8091 -1.8127 -0.4703
  649MOL0     H87601   1.843   8.437  10.672 -0.1105  0.0623 -0.9026
  649MOL0     H87602   2.045   8.557  10.728 -0.4263 -2.4768  2.0200
  649MOL0     H87603   2.664   8.481  10.572 -0.4405 -1.3003  1.0630
  649MOL0     H87604   2.837   8.618  10.644  1.9469  2.7507  3.7469
  649MOL0     H87605   2.910   8.785  10.861  2.4944  0.4504  0.7614
  649MOL0     H87606   2.999   8.802  10.706  1.7649  0.8874  0.6170
  649MOL0     H87607   2.922   9.014  10.921 -1.5192  0.1042 -1.3808
  649MOL0     H87608   2.982   9.058  10.764  1.2126 -2.0145 -0.4859
  649MOL0     H87609   3.169   9.068  10.883  1.2619 -1.1000  0.4603
  649MOL0     H87610   3.188   8.921  10.788 -0.1824  0.0075  0.2341
  649MOL0     H87611   3.103   8.921  11.075  2.0054 -0.2591  1.2835
  649MOL0     H87612   3.269   8.893  11.027 -0.6598  0.6762  1.3287
  649MOL0     H87613   3.103   8.527  10.906  0.0861 -0.5852 -0.7183
  649MOL0     H87614   2.565   8.947  10.713 -0.3403 -0.0753 -0.3806
  649MOL0     H87615   2.375   8.786  10.674 -0.6111 -3.4300  1.6230
  650MOL0     O87616   2.547   1.743   0.243 -0.1647  0.4271  0.2305
  650MOL0     C87617   2.664   1.705   0.232 -0.3820  0.6235  0.5640
  650MOL0     O87618   2.702   1.576   0.194 -0.0440  0.5059  0.3380
  650MOL0     C87619   2.599   1.500   0.141  0.2002  0.0434  0.8367
  650MOL0     C87620   2.476   1.461   0.209  0.4664  0.7549  0.0745
  650MOL0     C87621   2.377   1.388   0.143 -0.5359  0.2970  0.0499
  650MOL0     C87622   2.405   1.340   0.010 -0.1749 -0.3911  1.0933
  650MOL0     O87623   2.315   1.253  -0.051 -0.2120 -0.7485  0.0105
  650MOL0     C87624   2.183   1.298  -0.036 -0.1406 -0.2099  0.2281
  650MOL0     C87625   2.094   1.178  -0.001 -0.2137  0.2820 -0.6584
  650MOL0     C87626   1.955   1.218   0.051  1.0444 -0.3390 -0.9492
  650MOL0     C87627   1.877   1.301  -0.048 -0.2709  0.3847 -0.2615
  650MOL0     C87628   1.727   1.287  -0.033 -0.3689  0.3035  0.1618
  650MOL0     C87629   1.645   1.380  -0.124  0.0492  0.8970 -0.1709
  650MOL0     C87630   1.508   1.399  -0.072 -0.0890  0.4172 -0.7019
  650MOL0     C87631   1.418   1.497  -0.151 -0.5660 -0.0635 -0.1746
  650MOL0     N87632   1.277   1.498  -0.105 -0.3815 -0.3557 -0.5114
  650MOL0     C87633   1.201   1.389  -0.087  0.4040 -0.6338  0.6370
  650MOL0     C87634   1.074   1.437  -0.060  0.4585  0.0152  0.2532
  650MOL0     C87635   0.955   1.361  -0.016  0.0481  0.4108  0.3459
  650MOL0     C87636   0.824   1.384  -0.082  0.3048  1.1056  0.3541
  650MOL0     C87637   0.716   1.290  -0.021  0.0539 -0.4940  0.0869
  650MOL0     C87638   0.585   1.290  -0.098 -0.0786  0.2553  0.7468
  650MOL0     O87639   0.486   1.227  -0.018 -0.4081  0.5107  0.5126
  650MOL0     C87640   0.358   1.222  -0.076  0.3814 -0.3102  0.1779
  650MOL0     C87641   0.325   1.107  -0.152  0.3825  0.1106  0.2866
  650MOL0     C87642   0.198   1.092  -0.215 -0.3652 -0.4373 -0.2990
  650MOL0     C87643   0.162   0.965  -0.296  0.2325  0.6624 -0.3029
  650MOL0     C87644   0.095   1.193  -0.194 -1.1176  0.0052 -0.1270
  650MOL0     C87645  -0.051   1.176  -0.229  0.1837  0.4265 -0.0165
  650MOL0     O87646  -0.090   1.092  -0.332  0.6559 -0.7055 -0.1101
  650MOL0     C87647  -0.221   1.067  -0.370  1.3691  0.0684  0.0390
  650MOL0     C87648  -0.237   0.974  -0.473  0.1415 -0.2233  0.4429
  650MOL0     C87649  -0.360   0.935  -0.521  0.0457  0.6152  0.3523
  650MOL0     C87650  -0.476   0.998  -0.475  0.5315 -0.8604 -0.0919
  650MOL0     O87651  -0.609   0.970  -0.519 -0.6030  0.4447 -0.5510
  650MOL0     C87652  -0.634   0.870  -0.618 -0.1678  0.5623 -0.2285
  650MOL0     C87653  -0.783   0.826  -0.608 -1.0011 -0.1829  0.1098
  650MOL0     C87654  -0.810   0.687  -0.662  0.8082  0.0675  0.4517
  650MOL0     C87655  -0.951   0.652  -0.622  0.6726 -0.3667  0.7033
  650MOL0     C87656  -0.985   0.504  -0.654  0.6576  1.1513  0.1117
  650MOL0     C87657  -1.139   0.487  -0.627  0.0382 -0.3284 -0.4662
  650MOL0     C87658  -1.186   0.345  -0.629 -0.5117  0.6433  0.1267
  650MOL0     C87659  -1.313   0.328  -0.554  0.1725  0.7295  1.1571
  650MOL0    Cl87660  -1.445   0.430  -0.628 -0.2234 -0.2163  0.0521
  650MOL0     C87661  -0.467   1.102  -0.375 -0.3194 -0.3634  0.6952
  650MOL0     C87662  -0.338   1.137  -0.332  0.0521  0.5591  0.1445
  650MOL0     O87663  -0.121   1.237  -0.154  0.9587  0.0401 -0.5334
  650MOL0     C87664   0.134   1.309  -0.112 -0.6966 -0.1979  0.2632
  650MOL0     C87665   0.262   1.324  -0.064  0.2608  0.1094 -0.5244
  650MOL0     N87666   1.077   1.578  -0.085 -0.7806  0.4738  0.0990
  650MOL0     N87667   1.197   1.612  -0.112 -1.2249 -0.3404 -0.5679
  650MOL0     C87668   2.528   1.375  -0.056  0.5323  0.7195  0.6282
  650MOL0     C87669   2.621   1.451   0.007  0.0795  0.0280  0.1770
  650MOL0     C87670   2.764   1.810   0.257  0.3591 -0.8463  0.3685
  650MOL0     C87671   2.900   1.791   0.233 -0.0039  0.1680  0.5219
  650MOL0     C87672   2.998   1.873   0.283  0.9544 -0.4718 -0.2300
  650MOL0     C87673   2.967   1.992   0.350 -0.0366  0.1115 -0.3782
  650MOL0     O87674   3.048   2.084   0.399 -0.3509  0.4409 -0.0258
  650MOL0     C87675   3.177   2.100   0.343 -0.0117 -0.0099  0.6351
  650MOL0     C87676   3.172   2.116   0.193  0.0482 -0.2313  0.1193
  650MOL0     C87677   3.291   2.193   0.130 -0.1822 -0.5070 -1.0760
  650MOL0     C87678   3.392   2.092   0.073  0.3213  0.3675  0.1418
  650MOL0     C87679   3.514   2.160   0.086 -0.3873  0.5800 -0.2743
  650MOL0     C87680   3.619   2.215   0.094  0.1162 -0.0041 -0.2550
  650MOL0     C87681   2.839   2.016   0.381  0.7120  0.4851  0.3632
  650MOL0     C87682   2.734   1.918   0.344  0.3694 -0.2008  0.9041
  650MOL0     H87683   2.467   1.486   0.314 -1.7489  0.9297 -0.1235
  650MOL0     H87684   2.295   1.358   0.207 -0.1714 -1.6576 -0.3322
  650MOL0     H87685   2.169   1.373   0.043 -1.0055 -1.4555  1.2791
  650MOL0     H87686   2.147   1.350  -0.125  0.2938  0.5185  0.4657
  650MOL0     H87687   2.098   1.103  -0.080  2.8211 -0.8153  0.3787
  650MOL0     H87688   2.147   1.124   0.079 -0.6250  0.8648  0.0244
  650MOL0     H87689   1.904   1.121   0.053  1.1390 -0.4607  3.0924
  650MOL0     H87690   1.949   1.252   0.155 -0.5745 -2.3548 -0.3225
  650MOL0     H87691   1.909   1.405  -0.059 -0.0351  0.3309 -0.0881
  650MOL0     H87692   1.890   1.248  -0.143  0.1127 -0.6286  0.3386
  650MOL0     H87693   1.693   1.185  -0.053 -4.0222  1.6431 -1.3531
  650MOL0     H87694   1.692   1.324   0.064  1.1727  0.6831  0.6100
  650MOL0     H87695   1.697   1.476  -0.134  2.7690 -0.6298 -2.3290
  650MOL0     H87696   1.641   1.337  -0.225  1.2792 -0.0337  0.1429
  650MOL0     H87697   1.458   1.302  -0.077 -0.5315  0.6629 -1.0711
  650MOL0     H87698   1.512   1.441   0.029 -3.0075 -0.2442 -0.2316
  650MOL0     H87699   1.424   1.476  -0.258  4.7364 -1.6940  0.1287
  650MOL0     H87700   1.470   1.593  -0.144  2.0505 -1.2963 -1.2739
  650MOL0     H87701   1.236   1.286  -0.077  1.6970 -0.2230  0.5934
  650MOL0     H87702   0.978   1.254  -0.023 -0.4853  0.3426 -0.6320
  650MOL0     H87703   0.940   1.384   0.090 -0.6151  2.0579 -0.0660
  650MOL0     H87704   0.845   1.349  -0.184 -1.0280 -5.7646  1.9167
  650MOL0     H87705   0.799   1.491  -0.081 -1.4415  0.7209  1.2165
  650MOL0     H87706   0.702   1.325   0.082  2.3030 -2.9154  1.3551
  650MOL0     H87707   0.756   1.189  -0.026  0.1805 -0.5985  2.1940
  650MOL0     H87708   0.600   1.243  -0.195 -0.4304 -0.3669  0.9851
  650MOL0     H87709   0.546   1.388  -0.124  0.4600  0.4637  0.7071
  650MOL0     H87710   0.405   1.038  -0.173  1.2234  0.9081  0.7741
  650MOL0     H87711   0.254   0.906  -0.303 -0.1350 -0.2363  1.6962
  650MOL0     H87712   0.081   0.903  -0.257  1.6890 -2.0770 -1.3631
  650MOL0     H87713   0.139   0.978  -0.402 -0.2920 -0.3082 -0.3184
  650MOL0     H87714  -0.147   0.931  -0.514 -1.3839 -1.3758 -1.9605
  650MOL0     H87715  -0.358   0.868  -0.606 -0.6479  0.3229  0.5554
  650MOL0     H87716  -0.606   0.889  -0.722  1.2362  1.3237  0.2642
  650MOL0     H87717  -0.583   0.778  -0.588 -3.2724 -1.2325 -0.0151
  650MOL0     H87718  -0.806   0.830  -0.501 -1.9899  0.7585 -0.1169
  650MOL0     H87719  -0.844   0.903  -0.656  0.2636  1.3323  0.8454
  650MOL0     H87720  -0.743   0.614  -0.615 -0.8112 -0.8046  1.5016
  650MOL0     H87721  -0.807   0.680  -0.771  1.3496  1.1263  0.3818
  650MOL0     H87722  -0.983   0.672  -0.519 -1.2891 -0.7706  0.2181
  650MOL0     H87723  -1.015   0.721  -0.677 -0.9066  0.4618  3.3965
  650MOL0     H87724  -0.922   0.437  -0.595 -0.8056 -1.5281 -1.1962
  650MOL0     H87725  -0.960   0.488  -0.759 -1.0414  1.5229 -0.3981
  650MOL0     H87726  -1.147   0.516  -0.521  0.1731 -0.1837 -0.4939
  650MOL0     H87727  -1.199   0.552  -0.691  0.4250 -1.5801 -2.1667
  650MOL0     H87728  -1.111   0.280  -0.583 -1.5823 -1.8219 -1.4132
  650MOL0     H87729  -1.204   0.313  -0.732  0.6781 -0.1617  0.1523
  650MOL0     H87730  -1.296   0.359  -0.451 -0.7997  2.3686  0.8605
  650MOL0     H87731  -1.336   0.221  -0.544  1.0521  0.5840  1.6829
  650MOL0     H87732  -0.559   1.150  -0.344  0.0522  0.4011  0.6436
  650MOL0     H87733  -0.325   1.229  -0.276 -1.2565 -0.2462  1.8544
  650MOL0     H87734   0.060   1.382  -0.080 -1.1313 -0.5150 -0.0043
  650MOL0     H87735   0.292   1.416  -0.016  0.5276 -0.7838  1.0960
  650MOL0     H87736   2.531   1.337  -0.158  0.0513 -0.6075  1.0945
  650MOL0     H87737   2.715   1.475  -0.041  0.9562  0.6687  2.1004
  650MOL0     H87738   2.939   1.705   0.181  2.1351  0.4870  1.4783
  650MOL0     H87739   3.104   1.855   0.271  0.9446  0.0363 -1.1492
  650MOL0     H87740   3.232   2.184   0.385  0.3843 -0.3471  0.8039
  650MOL0     H87741   3.244   2.015   0.361  0.0319 -0.0916  0.0989
  650MOL0     H87742   3.087   2.180   0.169  0.3401  0.4557  0.8816
  650MOL0     H87743   3.162   2.012   0.159  2.3505 -0.6944  0.6549
  650MOL0     H87744   3.331   2.259   0.208  0.9319  0.3400 -2.3038
  650MOL0     H87745   3.248   2.247   0.045 -0.2749  1.1953 -0.0032
  650MOL0     H87746   3.353   2.066  -0.026  0.6323  0.4690 -0.0058
  650MOL0     H87747   3.405   1.997   0.126  1.5614  0.3760 -0.1309
  650MOL0     H87748   3.707   2.272   0.071 -1.2711  2.0240 -0.8557
  650MOL0     H87749   2.813   2.098   0.447 -2.0993 -0.4483  0.5379
  650MOL0     H87750   2.635   1.932   0.385 -1.1993 -0.5399 -2.4329
  651MOL0     O87751   0.060   4.856   5.928 -0.1673  0.1908 -0.5968
  651MOL0     C87752   0.113   4.746   5.942  0.6581 -0.6925  0.0269
  651MOL0     O87753   0.052   4.630   5.989  0.5432 -0.3557 -1.1130
  651MOL0     C87754  -0.078   4.657   6.029 -0.2697  0.4669 -0.6501
  651MOL0     C87755  -0.193   4.660   5.934 -0.0319  1.2553 -0.4946
  651MOL0     C87756  -0.323   4.686   5.990  0.1210 -0.1535  0.4348
  651MOL0     C87757  -0.355   4.686   6.122 -0.2370 -0.9763 -0.0815
  651MOL0     O87758  -0.488   4.706   6.159  0.0253 -0.3697 -0.5322
  651MOL0     C87759  -0.514   4.742   6.293  0.2341  1.0664 -1.1669
  651MOL0     C87760  -0.660   4.764   6.301  0.2562  0.8586  0.2484
  651MOL0     C87761  -0.715   4.888   6.227  0.9923  0.1645  0.2623
  651MOL0     C87762  -0.864   4.915   6.263 -0.4789  0.9875  0.9251
  651MOL0     C87763  -0.930   5.014   6.165  1.4226 -0.4672 -1.4642
  651MOL0     C87764  -1.071   5.034   6.219 -0.0919  0.4622  0.9763
  651MOL0     C87765  -1.137   5.150   6.142 -0.5550 -0.1589 -0.1019
  651MOL0     C87766  -1.281   5.186   6.199  0.2236  0.0235 -0.3737
  651MOL0     N87767  -1.344   5.309   6.154  0.6976  1.3170 -1.6119
  651MOL0     C87768  -1.334   5.362   6.031 -0.2845  0.2706 -0.2707
  651MOL0     C87769  -1.426   5.461   6.031 -0.3771 -0.1217  0.9742
  651MOL0     C87770  -1.450   5.567   5.921 -0.6689 -0.5746  0.2559
  651MOL0     C87771  -1.560   5.509   5.840 -0.4286 -0.3676  0.2045
  651MOL0     C87772  -1.629   5.611   5.761 -0.1941 -0.2951  0.7586
  651MOL0     C87773  -1.747   5.543   5.686 -0.1749 -0.5276 -0.0173
  651MOL0     O87774  -1.792   5.631   5.586  0.0572 -0.3259  0.6520
  651MOL0     C87775  -1.893   5.603   5.507 -0.1210 -0.4820 -0.3809
  651MOL0     C87776  -1.935   5.701   5.421  0.0094  0.5131  0.0395
  651MOL0     C87777  -2.037   5.668   5.333  0.5531  0.0658  0.3074
  651MOL0     C87778  -2.085   5.774   5.236 -0.5154  0.2215 -0.1707
  651MOL0     C87779  -2.099   5.546   5.330 -0.3002 -0.6021 -0.3197
  651MOL0     C87780  -2.207   5.509   5.245  0.3461  0.6405  0.2723
  651MOL0     O87781  -2.193   5.531   5.113  0.5177 -0.0749 -0.6316
  651MOL0     C87782  -2.284   5.488   5.023  0.1178 -0.1144 -0.0941
  651MOL0     C87783  -2.299   5.348   5.008 -0.1507 -0.0956  0.5954
  651MOL0     C87784  -2.395   5.301   4.926 -0.6027  0.2360  0.4296
  651MOL0     C87785  -2.470   5.384   4.841  0.6056 -0.1452  0.4846
  651MOL0     O87786  -2.547   5.326   4.743  0.5290  0.3934  0.5161
  651MOL0     C87787  -2.630   5.411   4.646  0.4866 -0.2439  0.0516
  651MOL0     C87788  -2.717   5.309   4.567 -0.4749  0.9935  0.3475
  651MOL0     C87789  -2.829   5.373   4.497  0.7308  0.3245  0.3928
  651MOL0     C87790  -2.910   5.262   4.428  0.1649 -0.2919  0.2792
  651MOL0     C87791  -2.998   5.322   4.326  0.5931 -0.5105  0.0575
  651MOL0     C87792  -3.070   5.209   4.256  0.4331 -0.2671  0.4165
  651MOL0     C87793  -3.189   5.264   4.191 -0.5551 -0.5094 -0.7366
  651MOL0     C87794  -3.269   5.169   4.103 -0.2080 -0.3690 -0.4591
  651MOL0    Cl87795  -3.359   5.046   4.213 -0.1494  0.4179  0.1782
  651MOL0     C87796  -2.452   5.518   4.844 -0.0234  0.2416  0.0045
  651MOL0     C87797  -2.363   5.575   4.940 -0.4262 -0.0239  0.3623
  651MOL0     O87798  -2.305   5.456   5.296 -0.3030 -0.0506  0.4648
  651MOL0     C87799  -2.052   5.446   5.419  0.3567  0.2147  0.0395
  651MOL0     C87800  -1.955   5.478   5.514  0.1317  0.0748  0.1711
  651MOL0     N87801  -1.493   5.461   6.156 -0.1003  1.3021 -0.0570
  651MOL0     N87802  -1.447   5.363   6.221 -0.6500 -0.7790  0.3223
  651MOL0     C87803  -0.240   4.666   6.210 -0.0073 -0.8018  0.3656
  651MOL0     C87804  -0.104   4.666   6.163 -0.0369  0.4700  0.1778
  651MOL0     C87805   0.261   4.744   5.917 -0.1908 -0.0294  0.5182
  651MOL0     C87806   0.344   4.653   5.986 -0.8908 -0.6853 -0.2563
  651MOL0     C87807   0.481   4.652   5.961  0.4707  0.0682 -0.2883
  651MOL0     C87808   0.535   4.741   5.871  0.0172 -0.0529  0.4991
  651MOL0     O87809   0.667   4.743   5.838 -0.1264  0.5099 -0.1070
  651MOL0     C87810   0.747   4.623   5.837 -0.5990  0.2390  0.2596
  651MOL0     C87811   0.874   4.646   5.758  0.0189 -0.5223  0.0559
  651MOL0     C87812   0.950   4.525   5.731 -0.3861 -0.8180  0.4360
  651MOL0     C87813   1.003   4.442   5.843  0.2475 -0.0714  0.3150
  651MOL0     C87814   1.119   4.499   5.909  0.8202  0.4832  0.8402
  651MOL0     C87815   1.224   4.534   5.953 -0.5395 -0.9861 -0.1313
  651MOL0     C87816   0.458   4.841   5.802 -0.5696 -0.0231  0.2314
  651MOL0     C87817   0.320   4.840   5.831  1.1685 -0.4695  0.1426
  651MOL0     H87818  -0.166   4.659   5.829 -0.4666 -0.0323 -0.6141
  651MOL0     H87819  -0.403   4.711   5.922  1.1396 -0.8886 -1.0753
  651MOL0     H87820  -0.481   4.654   6.349  0.8519  1.6450 -0.5996
  651MOL0     H87821  -0.459   4.830   6.327  0.5010  0.1196  0.9885
  651MOL0     H87822  -0.711   4.679   6.254  1.1450 -0.6086  1.8137
  651MOL0     H87823  -0.695   4.767   6.405 -1.0537  0.5945 -0.1629
  651MOL0     H87824  -0.674   4.982   6.265 -0.2099  0.3227  1.2290
  651MOL0     H87825  -0.697   4.869   6.121  1.6094 -3.4986  0.8930
  651MOL0     H87826  -0.910   4.818   6.245  1.0622  0.2698  0.7349
  651MOL0     H87827  -0.866   4.944   6.369 -3.7649  1.7370  0.7729
  651MOL0     H87828  -0.870   5.105   6.158 -0.0682  0.5637 -1.3971
  651MOL0     H87829  -0.933   4.963   6.068 -2.7882 -0.0333 -1.7457
  651MOL0     H87830  -1.125   4.942   6.191 -1.3878  1.1550  1.0916
  651MOL0     H87831  -1.069   5.053   6.327  0.1217 -1.6601  1.4030
  651MOL0     H87832  -1.077   5.241   6.137  0.3500 -0.7402  0.0206
  651MOL0     H87833  -1.159   5.111   6.042 -2.5837  0.0064  0.2239
  651MOL0     H87834  -1.270   5.190   6.308  1.1968 -2.5918 -0.3019
  651MOL0     H87835  -1.355   5.112   6.169  1.6630 -1.2046 -1.0101
  651MOL0     H87836  -1.266   5.320   5.958 -0.8843 -2.8039  0.7702
  651MOL0     H87837  -1.473   5.662   5.970 -3.0620 -1.3995  0.8448
  651MOL0     H87838  -1.366   5.584   5.852 -2.2939  0.2961 -1.5979
  651MOL0     H87839  -1.640   5.477   5.908 -1.8679 -0.4523 -1.4660
  651MOL0     H87840  -1.525   5.425   5.780 -2.1162 -0.5021 -0.6405
  651MOL0     H87841  -1.556   5.645   5.687  2.4370  0.4257  3.5075
  651MOL0     H87842  -1.663   5.698   5.817  0.6775  0.1471  0.6124
  651MOL0     H87843  -1.825   5.526   5.760  0.8782 -2.0537  0.7894
  651MOL0     H87844  -1.718   5.446   5.645 -1.2648 -1.6294  1.7040
  651MOL0     H87845  -1.893   5.801   5.431 -5.3527  3.2719 -1.0777
  651MOL0     H87846  -2.059   5.740   5.136  1.4627  2.0046 -0.3431
  651MOL0     H87847  -2.189   5.806   5.241 -0.5472 -0.0769  1.5913
  651MOL0     H87848  -2.024   5.863   5.257  2.0373 -1.5818  0.5404
  651MOL0     H87849  -2.233   5.274   5.051  0.9687  0.4646 -0.1057
  651MOL0     H87850  -2.411   5.194   4.912  0.8460 -0.2594  2.2356
  651MOL0     H87851  -2.699   5.471   4.706  1.8563 -1.0860  2.6069
  651MOL0     H87852  -2.563   5.470   4.582  0.3992  0.2006  0.3623
  651MOL0     H87853  -2.648   5.267   4.492 -0.6362  1.2213  0.0690
  651MOL0     H87854  -2.745   5.226   4.633  1.0817 -0.3930 -0.6471
  651MOL0     H87855  -2.784   5.448   4.431  1.8241  1.5886  2.4630
  651MOL0     H87856  -2.883   5.433   4.569  2.3836  0.8347  1.2594
  651MOL0     H87857  -2.846   5.191   4.373 -1.2846 -0.3592 -1.4118
  651MOL0     H87858  -2.958   5.208   4.510 -0.3117  0.9477  0.8353
  651MOL0     H87859  -2.939   5.375   4.251 -1.7922  0.8062 -1.0071
  651MOL0     H87860  -3.072   5.390   4.370  0.3791  0.8155 -2.1919
  651MOL0     H87861  -3.007   5.160   4.181  1.2960 -0.4035  1.2024
  651MOL0     H87862  -3.086   5.135   4.335  2.4389 -1.4181 -0.1759
  651MOL0     H87863  -3.151   5.344   4.127 -1.6429 -0.1014 -0.8981
  651MOL0     H87864  -3.257   5.304   4.267  0.7102  1.6082 -0.6386
  651MOL0     H87865  -3.193   5.130   4.034 -0.0099 -0.9328  0.0677
  651MOL0     H87866  -3.339   5.222   4.039 -2.9181 -2.2820  0.7370
  651MOL0     H87867  -2.507   5.592   4.788 -1.3581  1.0934  2.3048
  651MOL0     H87868  -2.351   5.682   4.955  0.3319 -0.1749  0.8560
  651MOL0     H87869  -2.098   5.348   5.421 -1.4044  0.9858 -0.9544
  651MOL0     H87870  -1.931   5.394   5.579 -1.4458 -0.0632  0.6053
  651MOL0     H87871  -0.252   4.663   6.318  3.7316 -1.0351  0.9156
  651MOL0     H87872  -0.018   4.670   6.228 -0.2483  1.2746  0.4153
  651MOL0     H87873   0.296   4.592   6.062 -0.1583  1.4134  2.0003
  651MOL0     H87874   0.538   4.584   6.023 -2.3197 -1.9155  0.3212
  651MOL0     H87875   0.763   4.594   5.942  1.9388 -1.3619 -0.4849
  651MOL0     H87876   0.689   4.545   5.786 -3.0951  3.5810 -2.5060
  651MOL0     H87877   0.927   4.728   5.807 -0.3229  0.5806 -1.3373
  651MOL0     H87878   0.848   4.684   5.659  0.5697  2.5801  0.9931
  651MOL0     H87879   1.034   4.548   5.665 -0.8074 -1.2905 -0.2818
  651MOL0     H87880   0.884   4.456   5.678 -0.0537 -1.6554  1.0761
  651MOL0     H87881   1.029   4.340   5.812  1.1071  0.3897 -0.5103
  651MOL0     H87882   0.928   4.430   5.922  1.6543  0.7643  1.8425
  651MOL0     H87883   1.318   4.563   5.995  0.0111 -1.6156 -0.8978
  651MOL0     H87884   0.506   4.917   5.741 -0.1868 -0.4477 -0.0012
  651MOL0     H87885   0.268   4.914   5.771  1.4389  0.4221  0.9940
  652MOL0     O87886   5.215   3.077   8.517  0.3915 -0.2521 -0.7696
  652MOL0     C87887   5.340   3.083   8.529 -0.0121 -0.2786  0.7604
  652MOL0     O87888   5.431   3.109   8.431 -1.0612 -0.0134  0.6578
  652MOL0     C87889   5.377   3.128   8.304 -0.2004 -0.3506 -0.1007
  652MOL0     C87890   5.288   3.234   8.271 -0.5032 -0.8335  0.4602
  652MOL0     C87891   5.246   3.250   8.140 -0.0858  0.2507 -0.0221
  652MOL0     C87892   5.293   3.173   8.037  0.0954 -0.1837 -0.1263
  652MOL0     O87893   5.239   3.195   7.915 -0.4733  0.6767  0.0288
  652MOL0     C87894   5.259   3.107   7.806  0.2428 -0.0809  0.0302
  652MOL0     C87895   5.195   3.151   7.674  0.1454  1.5477  0.1667
  652MOL0     C87896   5.237   3.060   7.552 -0.6557  0.5223  0.0992
  652MOL0     C87897   5.210   3.113   7.410 -0.6204 -0.2708 -0.3689
  652MOL0     C87898   5.247   3.011   7.309  0.5533  0.5010 -1.1646
  652MOL0     C87899   5.238   3.060   7.161 -0.1359  0.1443 -0.3817
  652MOL0     C87900   5.319   2.965   7.068 -0.0189 -0.4151 -0.1091
  652MOL0     C87901   5.289   2.818   7.088 -0.6016 -0.1971  0.5377
  652MOL0     N87902   5.139   2.794   7.067 -0.6313  0.3932  0.0016
  652MOL0     C87903   5.070   2.853   6.960  0.6544 -0.1438 -0.7140
  652MOL0     C87904   4.940   2.823   6.990 -0.4968 -0.3228  0.1418
  652MOL0     C87905   4.823   2.853   6.900  0.0050  0.6781 -0.3339
  652MOL0     C87906   4.792   3.000   6.899 -0.1090 -0.1675  0.2234
  652MOL0     C87907   4.767   3.067   7.036 -0.6201 -0.0751 -0.5201
  652MOL0     C87908   4.697   3.198   7.023  0.3385 -0.5641 -0.1321
  652MOL0     O87909   4.571   3.172   6.948  0.1116  0.5678 -0.1463
  652MOL0     C87910   4.467   3.265   6.957  0.6102  0.5300  0.7063
  652MOL0     C87911   4.340   3.215   6.946 -0.1286 -0.4662  0.1401
  652MOL0     C87912   4.228   3.290   6.968  0.4676  0.8436  0.5831
  652MOL0     C87913   4.099   3.231   6.948 -0.1583 -0.2430  0.7889
  652MOL0     C87914   4.241   3.414   7.029  0.3495 -0.2824  0.6024
  652MOL0     C87915   4.120   3.492   7.087  0.4642  0.1397 -0.4618
  652MOL0     O87916   4.137   3.635   7.094 -0.3065 -0.0491 -0.1740
  652MOL0     C87917   4.045   3.723   7.136 -0.4232 -0.5685 -0.4710
  652MOL0     C87918   4.084   3.853   7.191  0.4430 -0.3174  0.5845
  652MOL0     C87919   3.995   3.943   7.250  0.2498  0.1018  0.4221
  652MOL0     C87920   3.856   3.917   7.238 -0.1909  0.3032  0.5408
  652MOL0     O87921   3.757   3.992   7.285 -0.3578  0.0832  0.6628
  652MOL0     C87922   3.789   4.080   7.401 -0.8838  0.4127 -0.0786
  652MOL0     C87923   3.663   4.154   7.439  1.2279  0.3973  0.1008
  652MOL0     C87924   3.697   4.252   7.556 -0.0441  0.4683  0.1784
  652MOL0     C87925   3.583   4.345   7.597 -0.1534 -0.3612 -0.1011
  652MOL0     C87926   3.474   4.260   7.674  0.2048 -0.4522  0.3097
  652MOL0     C87927   3.391   4.352   7.765 -0.7142  0.1143 -0.3738
  652MOL0     C87928   3.279   4.413   7.685 -0.2035  0.4248 -0.2860
  652MOL0     C87929   3.187   4.518   7.756 -0.3449  0.4128  0.3435
  652MOL0    Cl87930   3.072   4.441   7.880 -0.3220  0.1700 -0.2055
  652MOL0     C87931   3.814   3.803   7.176 -1.0665 -0.1161  0.7653
  652MOL0     C87932   3.906   3.701   7.136 -0.9567  0.7016 -0.6231
  652MOL0     O87933   4.016   3.433   7.129 -0.8384 -0.2103  0.1889
  652MOL0     C87934   4.366   3.468   7.028  0.1504  0.5434  1.0074
  652MOL0     C87935   4.481   3.393   6.995  1.0706 -0.3887 -0.0229
  652MOL0     N87936   4.937   2.744   7.107  0.6806  0.3661 -0.8696
  652MOL0     N87937   5.055   2.730   7.156 -0.4092 -0.2901  0.5209
  652MOL0     C87938   5.385   3.074   8.066 -0.2551 -0.1817  0.3452
  652MOL0     C87939   5.422   3.047   8.199  0.1105 -0.5417  0.3329
  652MOL0     C87940   5.379   3.061   8.663 -0.4514  0.3253  0.4440
  652MOL0     C87941   5.290   3.030   8.766 -0.1557  0.5659 -0.5028
  652MOL0     C87942   5.339   2.994   8.893  0.1513  0.5625 -0.5254
  652MOL0     C87943   5.475   2.994   8.928  0.2196 -0.2917  0.6843
  652MOL0     O87944   5.524   2.959   9.051 -0.2375 -0.2085  0.1857
  652MOL0     C87945   5.431   2.924   9.162  0.3409 -0.5615  1.1638
  652MOL0     C87946   5.509   2.858   9.269  0.4809 -0.2612  0.4220
  652MOL0     C87947   5.418   2.799   9.369  0.4860 -0.5409  0.3111
  652MOL0     C87948   5.468   2.704   9.486  0.7675  0.3005  0.3639
  652MOL0     C87949   5.363   2.662   9.578  0.2615  1.2540 -0.0674
  652MOL0     C87950   5.281   2.619   9.655 -1.0187 -0.3308  0.5420
  652MOL0     C87951   5.561   3.027   8.826  0.4020 -0.7918  0.2407
  652MOL0     C87952   5.513   3.050   8.696 -0.3319 -0.4954  1.0431
  652MOL0     H87953   5.238   3.293   8.346 -0.3121  0.5621 -0.4672
  652MOL0     H87954   5.172   3.327   8.123  0.1596  0.5119  0.0932
  652MOL0     H87955   5.368   3.100   7.797  0.8953  4.6382  1.4602
  652MOL0     H87956   5.210   3.012   7.827  0.2506  0.4700  2.8696
  652MOL0     H87957   5.086   3.147   7.670  0.1892  1.1800 -1.1835
  652MOL0     H87958   5.226   3.250   7.640  0.3449  1.1886 -0.7311
  652MOL0     H87959   5.344   3.040   7.553 -0.1901  1.6226 -4.6887
  652MOL0     H87960   5.185   2.964   7.556  0.2456  0.0763  2.1416
  652MOL0     H87961   5.107   3.145   7.396 -0.2224  1.2369  0.0069
  652MOL0     H87962   5.263   3.206   7.390  2.1316 -1.7105 -0.2744
  652MOL0     H87963   5.351   2.985   7.332  0.3475  1.0124  0.4827
  652MOL0     H87964   5.179   2.928   7.327 -1.4135  2.5944  2.0001
  652MOL0     H87965   5.134   3.074   7.131 -0.6480 -1.4620  0.5410
  652MOL0     H87966   5.294   3.154   7.164  0.5777 -0.2895  0.3534
  652MOL0     H87967   5.312   3.004   6.965  2.8537 -0.4428 -0.3853
  652MOL0     H87968   5.427   2.972   7.082  0.2285 -1.5691 -1.2343
  652MOL0     H87969   5.314   2.794   7.191  0.8862  0.7026  0.4015
  652MOL0     H87970   5.337   2.761   7.008 -1.3212 -2.6004  1.7114
  652MOL0     H87971   5.107   2.911   6.877  3.8148  2.1322  2.0280
  652MOL0     H87972   4.856   2.825   6.800  1.2135  0.4830  0.1031
  652MOL0     H87973   4.734   2.802   6.937  1.2739 -0.6344  1.0491
  652MOL0     H87974   4.706   3.008   6.832  0.1338 -2.1181 -0.3596
  652MOL0     H87975   4.876   3.051   6.851 -2.1154  2.8899 -0.3270
  652MOL0     H87976   4.856   3.072   7.100 -0.6866 -3.1696  0.0114
  652MOL0     H87977   4.693   3.015   7.098  1.2722  1.6425  3.5643
  652MOL0     H87978   4.755   3.276   6.972  3.0756 -2.7793 -0.6277
  652MOL0     H87979   4.681   3.231   7.126  1.4211  1.3008 -0.5176
  652MOL0     H87980   4.332   3.113   6.910 -2.8892 -0.0071 -0.7957
  652MOL0     H87981   4.018   3.290   6.904 -1.3560 -1.9926  0.5898
  652MOL0     H87982   4.102   3.137   6.894 -3.1415 -0.8958  1.5858
  652MOL0     H87983   4.062   3.203   7.047  1.4744 -4.3007  0.4493
  652MOL0     H87984   4.191   3.870   7.195  0.3301  0.1698  2.0367
  652MOL0     H87985   4.029   4.040   7.287  0.2017  0.2266  0.1404
  652MOL0     H87986   3.828   4.026   7.487  2.4878  3.1629  0.3146
  652MOL0     H87987   3.858   4.159   7.371 -0.4927  0.0963 -0.0099
  652MOL0     H87988   3.622   4.207   7.352  3.2271  0.5456 -0.8170
  652MOL0     H87989   3.587   4.083   7.471 -2.0588  3.5836 -0.0371
  652MOL0     H87990   3.783   4.315   7.530 -0.6613  1.6173  0.8480
  652MOL0     H87991   3.727   4.187   7.638 -0.2788  0.6291  0.3902
  652MOL0     H87992   3.630   4.427   7.652  1.5774  0.2037 -2.2930
  652MOL0     H87993   3.537   4.385   7.506 -3.6037 -0.5584  1.3837
  652MOL0     H87994   3.542   4.193   7.727  2.9927  3.4031  2.1114
  652MOL0     H87995   3.401   4.205   7.614 -1.3518  0.6114  1.1531
  652MOL0     H87996   3.349   4.291   7.846 -1.8816  0.9261 -0.3395
  652MOL0     H87997   3.452   4.425   7.819 -0.6895  0.6729 -1.1493
  652MOL0     H87998   3.216   4.336   7.638 -2.5436  0.1132  3.0017
  652MOL0     H87999   3.331   4.474   7.610 -0.5143  1.2804  0.1779
  652MOL0     H88000   3.111   4.564   7.691 -3.2771 -0.9353  2.5486
  652MOL0     H88001   3.244   4.593   7.811 -1.0289 -0.2314  2.0101
  652MOL0     H88002   3.709   3.791   7.150 -0.5800 -1.6345 -0.7011
  652MOL0     H88003   3.865   3.612   7.089  1.7799  0.2176 -2.3054
  652MOL0     H88004   4.365   3.576   7.039  0.2457  0.7138 -0.4833
  652MOL0     H88005   4.575   3.444   7.010  0.9067 -0.3944  1.1197
  652MOL0     H88006   5.426   3.014   7.985 -0.5520 -0.1357  0.1633
  652MOL0     H88007   5.493   2.966   8.212  0.1763 -0.2941  1.7165
  652MOL0     H88008   5.185   3.023   8.741  0.0300 -0.0540 -1.1551
  652MOL0     H88009   5.264   2.971   8.968  0.4821  0.5224 -0.1982
  652MOL0     H88010   5.393   3.019   9.202  0.1236 -0.8235  1.5791
  652MOL0     H88011   5.354   2.856   9.125 -3.7947  4.9801 -1.9563
  652MOL0     H88012   5.557   2.936   9.328  0.1739 -0.0673  0.4204
  652MOL0     H88013   5.571   2.777   9.230  0.2374  0.0403 -0.6351
  652MOL0     H88014   5.349   2.737   9.311 -0.6582 -1.0479  2.0994
  652MOL0     H88015   5.368   2.886   9.413 -1.6920  0.5330 -3.8216
  652MOL0     H88016   5.542   2.759   9.545  2.8332 -1.5336 -0.3605
  652MOL0     H88017   5.510   2.613   9.442  0.6733  0.9268 -1.0670
  652MOL0     H88018   5.205   2.590   9.726  0.6270 -2.0810  1.7027
  652MOL0     H88019   5.669   3.024   8.840  0.1636 -0.3237  2.4711
  652MOL0     H88020   5.585   3.072   8.617 -0.3788  2.0742  1.6409
  653MOL0     O88021   3.078  10.655   2.093 -0.0975  0.1708 -0.5258
  653MOL0     C88022   3.139  10.555   2.060 -0.4648  1.1721 -0.3688
  653MOL0     O88023   3.103  10.446   1.988  0.5874 -0.1114 -0.0684
  653MOL0     C88024   2.973  10.417   1.966 -0.1243 -0.8495 -0.1829
  653MOL0     C88025   2.856  10.466   2.029 -0.1694 -0.3735  0.6682
  653MOL0     C88026   2.727  10.437   1.980 -0.6465 -0.3675 -0.0612
  653MOL0     C88027   2.716  10.383   1.857 -0.1751 -0.4183 -0.7265
  653MOL0     O88028   2.595  10.394   1.790 -0.0291 -0.0074  0.2253
  653MOL0     C88029   2.591  10.495   1.690 -0.0141 -0.3516  0.7748
  653MOL0     C88030   2.514  10.617   1.734  0.9543 -0.0630 -0.1945
  653MOL0     C88031   2.375  10.579   1.800 -0.6264  0.3503 -0.1023
  653MOL0     C88032   2.294  10.706   1.814  0.5473  0.3588  0.1274
  653MOL0     C88033   2.175  10.667   1.897 -0.4650 -0.2286  0.2492
  653MOL0     C88034   2.093  10.791   1.957 -0.6020  0.1302 -0.5047
  653MOL0     C88035   1.968  10.743   2.022  0.1255  1.0891  0.1341
  653MOL0     C88036   1.853  10.731   1.915  0.1498 -1.3199  0.2522
  653MOL0     N88037   1.736  10.654   1.969  0.1114 -0.8440 -0.5071
  653MOL0     C88038   1.633  10.700   2.050  0.6755  0.2074  0.9875
  653MOL0     C88039   1.555  10.595   2.074  0.3381  1.6345 -0.2583
  653MOL0     C88040   1.431  10.600   2.158  0.2684 -0.1850  0.7445
  653MOL0     C88041   1.334  10.701   2.099  0.5000  0.4269 -1.4403
  653MOL0     C88042   1.218  10.738   2.191  0.1659 -0.0300 -0.3242
  653MOL0     C88043   1.092  10.649   2.162 -0.6789 -0.1311 -0.5452
  653MOL0     O88044   0.982  10.725   2.215 -0.4833  0.6050  0.3867
  653MOL0     C88045   0.859  10.662   2.227  0.3232  0.0922 -0.2301
  653MOL0     C88046   0.772  10.728   2.307  0.0943  0.1325 -1.2494
  653MOL0     C88047   0.641  10.690   2.337 -0.1613 -0.4837  1.0586
  653MOL0     C88048   0.569  10.774   2.435 -0.7139  0.0607  0.9729
  653MOL0     C88049   0.589  10.578   2.274 -0.5018  0.3831  0.2784
  653MOL0     C88050   0.449  10.531   2.282 -0.0150 -0.3698 -0.3133
  653MOL0     O88051   0.429  10.415   2.212  0.5617  0.3587  0.6816
  653MOL0     C88052   0.301  10.364   2.216 -0.2342  0.0213  0.0555
  653MOL0     C88053   0.274  10.252   2.293 -0.3485  0.4681  0.3694
  653MOL0     C88054   0.146  10.201   2.291  0.2575 -0.1745  0.7351
  653MOL0     C88055   0.044  10.262   2.222  0.3656 -0.3708 -0.4502
  653MOL0     O88056  -0.082  10.202   2.216  0.0150  0.1077 -0.9144
  653MOL0     C88057  -0.188  10.278   2.162  0.0749 -0.0662  0.4021
  653MOL0     C88058  -0.323  10.203   2.181 -0.3172 -1.0656 -0.2369
  653MOL0     C88059  -0.432  10.277   2.110  0.1572  0.0444  0.3369
  653MOL0     C88060  -0.554  10.180   2.091 -0.1341 -0.9990 -0.4072
  653MOL0     C88061  -0.648  10.239   1.985 -0.0709 -0.7020  0.2995
  653MOL0     C88062  -0.737  10.355   2.034 -0.9041  0.9040  0.4803
  653MOL0     C88063  -0.810  10.424   1.917 -1.0631  0.3405 -0.5877
  653MOL0     C88064  -0.911  10.532   1.969  0.2736 -0.3653  0.4390
  653MOL0    Cl88065  -1.035  10.429   2.042 -0.1836 -0.0463  0.1168
  653MOL0     C88066   0.082  10.376   2.150  0.5409 -0.3709 -0.6594
  653MOL0     C88067   0.201  10.423   2.144  0.4659 -0.6769 -0.2369
  653MOL0     O88068   0.362  10.589   2.349 -0.1882  0.3640 -0.2785
  653MOL0     C88069   0.685  10.506   2.196 -0.3442 -0.3702  0.1538
  653MOL0     C88070   0.814  10.549   2.166  0.1832 -0.3023 -0.2102
  653MOL0     N88071   1.612  10.477   2.024 -0.6933 -1.1207  0.1481
  653MOL0     N88072   1.723  10.516   1.967 -0.6624 -0.3239 -0.1943
  653MOL0     C88073   2.831  10.331   1.790 -0.5126  0.2197  0.5942
  653MOL0     C88074   2.960  10.343   1.848  0.1859  0.0986 -0.9033
  653MOL0     C88075   3.280  10.557   2.090 -1.1412  0.1212  0.1156
  653MOL0     C88076   3.344  10.674   2.144 -0.1644 -0.5204 -0.1169
  653MOL0     C88077   3.482  10.683   2.161  0.0468  0.3594 -0.6077
  653MOL0     C88078   3.567  10.584   2.112 -0.6174  0.4747  0.0928
  653MOL0     O88079   3.703  10.611   2.129  1.3503  0.2236  0.0512
  653MOL0     C88080   3.804  10.535   2.066 -0.9891  0.6848 -0.0268
  653MOL0     C88081   3.939  10.581   2.117  0.1747 -0.3281  0.9771
  653MOL0     C88082   4.050  10.524   2.034  0.3867  0.2209 -0.1327
  653MOL0     C88083   4.188  10.558   2.088 -0.0710 -0.2972  0.1052
  653MOL0     C88084   4.228  10.700   2.078  0.1564 -0.1441 -0.2976
  653MOL0     C88085   4.265  10.817   2.072 -0.1072  0.3045  0.1582
  653MOL0     C88086   3.510  10.470   2.051 -0.2147 -0.6849  0.0790
  653MOL0     C88087   3.368  10.464   2.041  0.1308  0.5808  0.2939
  653MOL0     H88088   2.869  10.526   2.118 -1.7266 -0.9167  1.3020
  653MOL0     H88089   2.639  10.491   2.013 -0.8932  1.2902 -3.1363
  653MOL0     H88090   2.689  10.518   1.648 -0.7583 -1.7708 -1.9328
  653MOL0     H88091   2.531  10.454   1.608  0.4497  0.3007  0.0922
  653MOL0     H88092   2.587  10.675   1.790  2.4017  0.2941 -2.3445
  653MOL0     H88093   2.505  10.692   1.654  2.7881  1.0847  0.5955
  653MOL0     H88094   2.332  10.513   1.725 -1.2565  0.3955  0.2147
  653MOL0     H88095   2.388  10.523   1.893 -2.0803  0.0717 -0.0560
  653MOL0     H88096   2.353  10.780   1.869 -0.1273  0.2631  1.0112
  653MOL0     H88097   2.264  10.747   1.716 -1.3087 -0.3597  0.3427
  653MOL0     H88098   2.106  10.606   1.837  0.9932 -2.2612  0.5511
  653MOL0     H88099   2.212  10.606   1.980  0.4689  1.4999  1.1569
  653MOL0     H88100   2.156  10.833   2.037  1.2500 -0.9650 -1.3247
  653MOL0     H88101   2.067  10.866   1.883  0.1446 -1.6593 -2.6928
  653MOL0     H88102   1.988  10.649   2.073  1.4838  0.3971 -1.5668
  653MOL0     H88103   1.937  10.821   2.092 -1.4822 -0.5832  1.3847
  653MOL0     H88104   1.891  10.680   1.826 -0.4272  1.4289 -1.6920
  653MOL0     H88105   1.823  10.828   1.874 -0.4924 -2.5424 -2.3893
  653MOL0     H88106   1.609  10.804   2.070  0.3568  0.9545 -2.5000
  653MOL0     H88107   1.381  10.503   2.168 -4.2416  1.9594  1.6417
  653MOL0     H88108   1.463  10.629   2.259  1.4102 -0.8451  0.5900
  653MOL0     H88109   1.299  10.674   1.999 -0.8625  0.5304 -1.0112
  653MOL0     H88110   1.402  10.787   2.092  2.7409 -1.1674 -0.5680
  653MOL0     H88111   1.202  10.843   2.169 -1.6491 -0.6854 -2.5662
  653MOL0     H88112   1.243  10.714   2.295  2.6936 -0.4369 -0.9580
  653MOL0     H88113   1.111  10.557   2.218  0.7373 -0.8120 -2.0740
  653MOL0     H88114   1.079  10.637   2.054 -0.5140 -0.4645 -0.5299
  653MOL0     H88115   0.810  10.817   2.354  3.5281 -1.9087  0.2302
  653MOL0     H88116   0.519  10.713   2.511 -1.7065 -0.5570 -0.1558
  653MOL0     H88117   0.640  10.842   2.484  0.4259  1.6455 -2.5777
  653MOL0     H88118   0.499  10.843   2.389  0.7422  0.3545 -0.9128
  653MOL0     H88119   0.350  10.210   2.359  0.0208  2.5817  1.3888
  653MOL0     H88120   0.116  10.118   2.353  1.2000 -0.7357  0.4706
  653MOL0     H88121  -0.184  10.379   2.204  3.1033  0.0990 -0.0719
  653MOL0     H88122  -0.177  10.280   2.053  1.4918 -2.6512  0.4229
  653MOL0     H88123  -0.311  10.106   2.132 -1.3980 -0.4303 -1.8600
  653MOL0     H88124  -0.345  10.209   2.288  1.8216  1.0402  0.1480
  653MOL0     H88125  -0.392  10.311   2.013  1.1828 -2.0470 -0.0247
  653MOL0     H88126  -0.469  10.363   2.166  1.5016  0.8551  0.0433
  653MOL0     H88127  -0.515  10.083   2.057  0.2715 -0.8491 -0.3842
  653MOL0     H88128  -0.612  10.170   2.183  0.3510  0.1958  0.0524
  653MOL0     H88129  -0.712  10.155   1.954  2.3276 -2.0091 -1.4981
  653MOL0     H88130  -0.584  10.265   1.900  0.2227 -0.9053  0.4554
  653MOL0     H88131  -0.807  10.299   2.097 -1.3460 -3.3443 -3.2592
  653MOL0     H88132  -0.675  10.427   2.088  1.0538  0.4681 -1.0609
  653MOL0     H88133  -0.866  10.356   1.852 -1.0599  0.4174 -0.6719
  653MOL0     H88134  -0.730  10.465   1.855 -1.0297 -0.7874 -1.3000
  653MOL0     H88135  -0.950  10.587   1.882  0.8058 -2.2481 -1.0533
  653MOL0     H88136  -0.881  10.603   2.047 -0.6441  0.0490  0.4283
  653MOL0     H88137   0.004  10.424   2.092  0.9060  0.4533 -0.4794
  653MOL0     H88138   0.215  10.515   2.089 -1.8657  0.9442  1.6614
  653MOL0     H88139   0.656  10.405   2.167 -1.4466  0.1250 -0.4852
  653MOL0     H88140   0.888  10.486   2.118  1.7409  1.3307 -0.0824
  653MOL0     H88141   2.850  10.287   1.693  1.3484  2.2718 -0.0733
  653MOL0     H88142   3.046  10.307   1.792 -0.0192  0.6395 -1.5735
  653MOL0     H88143   3.287  10.763   2.167  0.0848 -0.2509 -0.5314
  653MOL0     H88144   3.524  10.772   2.206  0.7827 -0.6204  0.7330
  653MOL0     H88145   3.790  10.431   2.099  4.4651 -0.7528 -1.1671
  653MOL0     H88146   3.795  10.549   1.958 -2.5762 -1.4780 -0.2483
  653MOL0     H88147   3.959  10.561   2.222  0.4561 -0.0727  0.9760
  653MOL0     H88148   3.947  10.690   2.123  1.3900 -0.3515  0.1888
  653MOL0     H88149   4.043  10.546   1.927  1.3890  2.4947  0.1975
  653MOL0     H88150   4.046  10.415   2.043 -0.1302  0.3212  1.0861
  653MOL0     H88151   4.253  10.494   2.028  0.5153 -2.1977  2.5990
  653MOL0     H88152   4.201  10.523   2.191  0.9782 -0.3430 -0.0363
  653MOL0     H88153   4.296  10.919   2.083 -2.4601  1.0179  0.7568
  653MOL0     H88154   3.569  10.390   2.008  1.3508  0.0827  0.7165
  653MOL0     H88155   3.328  10.375   1.993 -0.6199  1.9883 -1.8212
  654MOL0     O88156   2.163   7.465   1.948  0.0626  0.3505 -0.1568
  654MOL0     C88157   2.179   7.582   1.975 -0.0669  0.5213  0.6237
  654MOL0     O88158   2.082   7.682   1.961  0.0470  0.0511 -0.3683
  654MOL0     C88159   1.949   7.645   1.952  0.5557 -0.3035 -0.2337
  654MOL0     C88160   1.882   7.614   2.074  0.4110  0.4518  0.6102
  654MOL0     C88161   1.749   7.585   2.062  1.3103 -0.2726 -0.8289
  654MOL0     C88162   1.678   7.593   1.936  0.8479  0.2372 -0.5525
  654MOL0     O88163   1.546   7.560   1.920  0.5488 -0.3724  0.3783
  654MOL0     C88164   1.491   7.459   2.005 -0.8240  0.0413 -0.6097
  654MOL0     C88165   1.361   7.403   1.952 -0.5113  0.5615 -0.7004
  654MOL0     C88166   1.278   7.313   2.047 -0.2546 -1.1716  0.1907
  654MOL0     C88167   1.138   7.299   1.997  0.2470 -0.2361  0.8752
  654MOL0     C88168   1.076   7.192   2.080  0.9066  0.1349  0.2669
  654MOL0     C88169   0.939   7.153   2.030  0.5075  0.3199 -0.7637
  654MOL0     C88170   0.858   7.077   2.139 -0.0821 -0.4059  0.4749
  654MOL0     C88171   0.731   7.018   2.085 -0.4832 -0.4944 -0.0647
  654MOL0     N88172   0.616   7.110   2.090  0.6143 -0.0451 -0.2882
  654MOL0     C88173   0.592   7.213   1.998  0.0806  0.4351 -0.2633
  654MOL0     C88174   0.499   7.286   2.061 -0.0157 -0.7439 -0.7790
  654MOL0     C88175   0.431   7.413   2.005  0.6828  0.0662  0.3032
  654MOL0     C88176   0.274   7.403   1.993 -0.0472 -0.5559 -0.5348
  654MOL0     C88177   0.203   7.518   1.923 -0.4294  0.3118  0.2528
  654MOL0     C88178   0.058   7.530   1.969 -0.6882  0.2832 -0.2248
  654MOL0     O88179   0.003   7.659   1.932  0.9134 -0.2459  0.0156
  654MOL0     C88180  -0.131   7.682   1.921 -0.2191 -0.2442  0.0245
  654MOL0     C88181  -0.172   7.813   1.948  0.5053 -0.0560 -0.4544
  654MOL0     C88182  -0.295   7.864   1.926 -0.1894  0.5074 -0.0080
  654MOL0     C88183  -0.304   8.014   1.946  0.2751 -0.5325 -0.1821
  654MOL0     C88184  -0.397   7.772   1.888  0.7958 -0.1698 -0.2678
  654MOL0     C88185  -0.542   7.810   1.883 -0.8025 -0.2619  0.1364
  654MOL0     O88186  -0.619   7.706   1.836 -0.4446  0.2983  0.3233
  654MOL0     C88187  -0.743   7.720   1.795  0.6848 -0.0887 -0.0045
  654MOL0     C88188  -0.773   7.821   1.705  1.0656  0.0165 -0.4439
  654MOL0     C88189  -0.895   7.831   1.650 -0.4551  0.3254 -0.5967
  654MOL0     C88190  -0.996   7.748   1.685  0.1294  1.2824 -0.1553
  654MOL0     O88191  -1.123   7.752   1.626 -0.1894  0.0050  0.4604
  654MOL0     C88192  -1.141   7.802   1.489  0.4220  0.0113  1.0666
  654MOL0     C88193  -1.252   7.716   1.419 -0.0049  0.7959 -0.3463
  654MOL0     C88194  -1.384   7.716   1.506 -0.3444  0.2076 -0.7896
  654MOL0     C88195  -1.499   7.651   1.436 -0.6906 -0.1076  0.4083
  654MOL0     C88196  -1.624   7.651   1.527 -0.4819 -0.0664 -0.9240
  654MOL0     C88197  -1.740   7.594   1.449  0.3183  0.0551  0.1267
  654MOL0     C88198  -1.865   7.594   1.545  0.1133  0.3270 -0.2640
  654MOL0     C88199  -1.968   7.503   1.487 -0.5314 -0.4359  0.0786
  654MOL0    Cl88200  -1.918   7.338   1.512  0.3774 -0.0259 -0.3376
  654MOL0     C88201  -0.972   7.645   1.781 -0.2115  0.2911 -0.6911
  654MOL0     C88202  -0.845   7.630   1.838 -0.1979  0.3844  0.3352
  654MOL0     O88203  -0.584   7.911   1.933  1.0950  0.2510 -0.1591
  654MOL0     C88204  -0.363   7.632   1.874  0.3884  0.4562  0.7409
  654MOL0     C88205  -0.232   7.587   1.894  0.1131  0.3012 -0.0881
  654MOL0     N88206   0.483   7.247   2.194 -0.0245  0.4593  0.4218
  654MOL0     N88207   0.546   7.133   2.202 -0.4944 -0.2023 -0.9985
  654MOL0     C88208   1.746   7.637   1.819  0.2715  0.4112  0.2390
  654MOL0     C88209   1.886   7.663   1.829  0.1621 -0.3253 -0.3443
  654MOL0     C88210   2.318   7.631   1.981 -0.3703 -0.7510 -0.5246
  654MOL0     C88211   2.346   7.767   1.939  0.7019 -0.0084 -0.6998
  654MOL0     C88212   2.476   7.813   1.959  1.3092  0.0246  0.4516
  654MOL0     C88213   2.582   7.735   2.006 -0.5721 -0.4093  0.5713
  654MOL0     O88214   2.710   7.780   2.023  0.1691 -0.5347 -0.6437
  654MOL0     C88215   2.739   7.922   1.997 -1.0148 -0.1682 -0.0588
  654MOL0     C88216   2.886   7.950   1.989  0.3284 -0.0093 -0.2046
  654MOL0     C88217   2.944   7.886   1.864 -0.1344  0.8479  0.1778
  654MOL0     C88218   3.094   7.878   1.863  0.1975  0.1216  0.1597
  654MOL0     C88219   3.164   8.002   1.890 -0.2165  0.1454 -0.3762
  654MOL0     C88220   3.229   8.103   1.918 -0.0766 -0.7266  0.4575
  654MOL0     C88221   2.558   7.604   2.052 -0.2704  0.7150  0.3297
  654MOL0     C88222   2.426   7.552   2.035 -0.1516  0.2992  0.4210
  654MOL0     H88223   1.941   7.617   2.165 -0.4228  0.1417  1.1774
  654MOL0     H88224   1.693   7.545   2.145 -1.9643 -1.8187 -3.5088
  654MOL0     H88225   1.567   7.381   2.018  1.5491  2.0401 -1.6186
  654MOL0     H88226   1.471   7.502   2.104  0.7732  0.0789 -0.2706
  654MOL0     H88227   1.296   7.480   1.910 -2.2536 -1.2514 -1.4593
  654MOL0     H88228   1.396   7.348   1.865 -1.2018  0.5367 -0.9690
  654MOL0     H88229   1.333   7.219   2.055 -0.5019 -1.3364 -0.0183
  654MOL0     H88230   1.267   7.363   2.143  0.0075  1.6621 -1.1630
  654MOL0     H88231   1.079   7.391   1.999  0.2177 -0.2383  0.2584
  654MOL0     H88232   1.140   7.252   1.899 -0.2990 -0.2022  0.8447
  654MOL0     H88233   1.133   7.099   2.078 -2.0592 -1.9402  2.2914
  654MOL0     H88234   1.082   7.223   2.185 -1.5953 -0.3338  0.6004
  654MOL0     H88235   0.879   7.243   2.014 -0.7059 -0.3144  0.1024
  654MOL0     H88236   0.947   7.095   1.938 -1.1522 -0.7882 -0.2580
  654MOL0     H88237   0.917   6.991   2.173 -0.3884 -0.8283 -0.0416
  654MOL0     H88238   0.837   7.140   2.225  0.7872  1.1366 -0.4028
  654MOL0     H88239   0.703   6.928   2.141 -1.1102 -0.4405 -0.2899
  654MOL0     H88240   0.741   6.991   1.980  2.1672  2.1369 -0.6343
  654MOL0     H88241   0.629   7.230   1.897 -0.7330  0.4101 -0.5743
  654MOL0     H88242   0.459   7.501   2.063 -0.3314  0.0677  0.8140
  654MOL0     H88243   0.461   7.433   1.902 -1.4179 -1.1983 -0.6360
  654MOL0     H88244   0.243   7.395   2.098  2.4295 -2.2045  0.1664
  654MOL0     H88245   0.249   7.310   1.941  0.0273 -3.0307  3.4386
  654MOL0     H88246   0.200   7.525   1.814  1.7223  1.3806  0.2147
  654MOL0     H88247   0.248   7.613   1.951  1.2150  0.3701 -2.2227
  654MOL0     H88248   0.055   7.534   2.078 -0.5103 -1.2223 -0.1488
  654MOL0     H88249  -0.007   7.448   1.935 -1.8540  0.8681  0.5280
  654MOL0     H88250  -0.093   7.875   1.990  1.2720 -1.5763  0.4257
  654MOL0     H88251  -0.354   8.036   2.041  1.6472 -4.1112  1.5775
  654MOL0     H88252  -0.205   8.060   1.954 -0.0946  0.0222  1.6820
  654MOL0     H88253  -0.359   8.054   1.861 -0.2767  1.0205  0.8646
  654MOL0     H88254  -0.704   7.901   1.680  0.8227 -0.0594 -1.4169
  654MOL0     H88255  -0.905   7.921   1.589  3.2339  2.4889  1.5794
  654MOL0     H88256  -1.174   7.906   1.500 -0.1682 -0.1139  0.5250
  654MOL0     H88257  -1.047   7.808   1.432 -1.2706  1.0724 -1.8323
  654MOL0     H88258  -1.268   7.748   1.316 -1.3854  0.2578 -0.3230
  654MOL0     H88259  -1.211   7.615   1.414 -2.0885 -0.1481  0.2840
  654MOL0     H88260  -1.399   7.818   1.543 -0.1492 -0.5873  1.7058
  654MOL0     H88261  -1.356   7.655   1.593  3.1101 -0.4753 -2.2085
  654MOL0     H88262  -1.523   7.723   1.357  1.0854  1.3281  1.1243
  654MOL0     H88263  -1.474   7.551   1.399 -0.9507  0.7759 -2.3421
  654MOL0     H88264  -1.649   7.755   1.553 -1.2631 -0.8470  1.8027
  654MOL0     H88265  -1.601   7.585   1.611  0.3772 -0.7896 -1.7018
  654MOL0     H88266  -1.760   7.661   1.364  2.3771  0.0208 -0.4387
  654MOL0     H88267  -1.706   7.499   1.406 -1.1613  0.2621 -1.6519
  654MOL0     H88268  -1.891   7.699   1.557 -0.4189  0.2761 -0.9113
  654MOL0     H88269  -1.831   7.555   1.642  0.6047  0.2389 -0.4700
  654MOL0     H88270  -1.981   7.523   1.380  0.3276  2.3637  0.4122
  654MOL0     H88271  -2.062   7.518   1.542 -0.6078 -0.3609 -0.0709
  654MOL0     H88272  -1.048   7.582   1.826 -1.7395  2.2191 -0.4611
  654MOL0     H88273  -0.841   7.547   1.909 -0.5995 -1.0436 -1.2438
  654MOL0     H88274  -0.432   7.553   1.843  1.7236 -1.2160  1.8818
  654MOL0     H88275  -0.200   7.492   1.854  4.6591  1.1623  1.0021
  654MOL0     H88276   1.691   7.635   1.726 -2.2914 -0.4991  1.6847
  654MOL0     H88277   1.950   7.682   1.743 -0.5983 -0.0466 -0.8571
  654MOL0     H88278   2.267   7.822   1.889  0.8332  0.1889 -0.6908
  654MOL0     H88279   2.487   7.912   1.916  0.4926 -0.5656 -1.1784
  654MOL0     H88280   2.694   7.951   1.902 -2.0189  1.8415  0.9630
  654MOL0     H88281   2.690   7.976   2.078 -1.8468 -2.5583  1.1356
  654MOL0     H88282   2.934   7.907   2.078  1.7290  2.3424  0.2419
  654MOL0     H88283   2.905   8.057   1.987 -0.3397  0.1099 -0.2433
  654MOL0     H88284   2.904   7.932   1.774 -3.3132  0.8646  1.4718
  654MOL0     H88285   2.919   7.779   1.865  2.1143  0.2107 -1.8880
  654MOL0     H88286   3.119   7.844   1.763 -1.0451  0.4894 -0.2943
  654MOL0     H88287   3.117   7.812   1.947 -1.3802 -1.7881 -0.8235
  654MOL0     H88288   3.303   8.179   1.934  1.0413 -1.2474 -1.8112
  654MOL0     H88289   2.637   7.543   2.095 -0.9135 -1.1630 -1.0255
  654MOL0     H88290   2.401   7.451   2.068 -0.4518 -0.3836 -1.7214
  655MOL0     O88291  10.493   8.623   9.158 -0.7408 -0.1415 -0.0561
  655MOL0     C88292  10.534   8.733   9.199 -0.2628  0.4249 -0.5957
  655MOL0     O88293  10.465   8.809   9.280 -0.3222  0.0128  0.0341
  655MOL0     C88294  10.326   8.802   9.314  0.1895 -0.5409 -0.2173
  655MOL0     C88295  10.233   8.728   9.245 -0.0777  0.0387 -0.1927
  655MOL0     C88296  10.089   8.748   9.276 -0.2246  0.4735  0.5706
  655MOL0     C88297  10.049   8.841   9.372 -0.1661 -0.3087  0.0517
  655MOL0     O88298   9.918   8.860   9.395  0.7670  0.3143  0.2520
  655MOL0     C88299   9.869   8.984   9.460 -0.6514 -1.3626  0.1554
  655MOL0     C88300   9.722   9.002   9.418 -0.2202 -0.7307  0.8132
  655MOL0     C88301   9.633   8.923   9.512  0.1665  0.8718 -0.0441
  655MOL0     C88302   9.486   8.956   9.493  0.2075  0.3059 -0.5041
  655MOL0     C88303   9.389   8.880   9.584  0.0576 -0.1727  0.0697
  655MOL0     C88304   9.386   8.725   9.566 -0.2050  0.4538 -0.5368
  655MOL0     C88305   9.296   8.653   9.668 -0.1222 -0.3154 -0.4046
  655MOL0     C88306   9.150   8.656   9.633 -0.0568 -0.3968 -0.1517
  655MOL0     N88307   9.055   8.604   9.731 -0.1876 -0.1910 -1.2146
  655MOL0     C88308   9.057   8.484   9.787  0.0687  0.1428 -1.3711
  655MOL0     C88309   8.934   8.466   9.842  0.0826 -0.5690  0.0401
  655MOL0     C88310   8.872   8.352   9.908 -0.6368 -0.0421 -0.0210
  655MOL0     C88311   8.835   8.244   9.810  0.1414  0.2468  0.0916
  655MOL0     C88312   8.721   8.291   9.717  0.5556  0.5625  0.3670
  655MOL0     C88313   8.591   8.343   9.794 -0.4120  1.2130  0.0671
  655MOL0     O88314   8.565   8.262   9.905  0.1202  0.5381 -0.3696
  655MOL0     C88315   8.438   8.240   9.946  0.3778 -0.0037  0.4419
  655MOL0     C88316   8.322   8.254   9.872  0.1230  0.5905  0.0319
  655MOL0     C88317   8.197   8.257   9.929  0.0896 -0.3351 -1.2620
  655MOL0     C88318   8.080   8.274   9.834  1.4610  0.1649 -0.2024
  655MOL0     C88319   8.184   8.237  10.068  0.1809  0.3958  0.4703
  655MOL0     C88320   8.059   8.250  10.139  0.0657  0.1146 -0.2251
  655MOL0     O88321   8.055   8.177  10.253 -0.1950  0.3063 -0.4485
  655MOL0     C88322   7.936   8.164  10.326  0.8443  1.0146  0.5693
  655MOL0     C88323   7.813   8.157  10.259 -0.0897 -0.2025 -0.7599
  655MOL0     C88324   7.693   8.151  10.336 -0.3922 -0.3592  0.4190
  655MOL0     C88325   7.701   8.162  10.483  0.3460 -0.2186  0.5764
  655MOL0     O88326   7.590   8.138  10.565  0.2431  0.5551 -0.2559
  655MOL0     C88327   7.462   8.109  10.497 -0.3325  0.6019 -0.0159
  655MOL0     C88328   7.406   8.247  10.444 -0.4472  0.1615  0.0713
  655MOL0     C88329   7.256   8.228  10.399  0.0762  0.4098 -0.1929
  655MOL0     C88330   7.175   8.353  10.378  0.0334  0.0651 -0.3670
  655MOL0     C88331   7.017   8.332  10.381  0.1025  0.0224  0.6604
  655MOL0     C88332   6.967   8.442  10.287  0.3253  0.4865 -0.4254
  655MOL0     C88333   6.811   8.443  10.289 -0.1383  0.7066 -0.2347
  655MOL0     C88334   6.763   8.568  10.210  0.9361 -0.3609  0.2643
  655MOL0    Cl88335   6.590   8.582  10.192 -0.1944  0.0636  0.2764
  655MOL0     C88336   7.825   8.173  10.543 -0.6032 -0.0010 -0.2807
  655MOL0     C88337   7.939   8.173  10.465  0.1030 -0.1636 -0.2188
  655MOL0     O88338   7.980   8.331  10.097  0.0692 -0.7656  0.6929
  655MOL0     C88339   8.297   8.203  10.140  0.0487 -0.1317 -0.5394
  655MOL0     C88340   8.427   8.211  10.078  0.3553 -0.4800  0.7109
  655MOL0     N88341   8.869   8.589   9.835 -0.1950 -0.5428  0.5652
  655MOL0     N88342   8.942   8.666   9.766 -0.2297 -0.5080  0.9554
  655MOL0     C88343  10.150   8.897   9.452  0.1827  0.2706 -0.2537
  655MOL0     C88344  10.288   8.889   9.422  0.0232  0.1263  0.2469
  655MOL0     C88345  10.670   8.773   9.166 -0.3237 -0.5546 -0.0560
  655MOL0     C88346  10.723   8.898   9.230  0.4422  0.0794  0.5411
  655MOL0     C88347  10.860   8.924   9.221 -0.0486 -0.4823  0.3483
  655MOL0     C88348  10.944   8.846   9.132  0.0342  0.6622 -0.8288
  655MOL0     O88349  11.079   8.875   9.111  0.1023 -0.3351  0.0424
  655MOL0     C88350  11.125   9.001   9.158 -0.1985  1.0150  0.0441
  655MOL0     C88351  11.277   8.980   9.132  0.4553 -0.3512  0.4056
  655MOL0     C88352  11.358   9.110   9.138  0.4474  0.2975  0.2131
  655MOL0     C88353  11.500   9.066   9.109  0.8303  0.8645 -0.4390
  655MOL0     C88354  11.588   9.179   9.124 -0.2372  0.3048 -0.3449
  655MOL0     C88355  11.654   9.275   9.112  0.8823 -0.7091 -0.3801
  655MOL0     C88356  10.886   8.733   9.072 -0.4874  0.0210  0.5402
  655MOL0     C88357  10.749   8.695   9.084  0.5385 -0.1046 -0.4010
  655MOL0     H88358  10.269   8.660   9.168  0.2758 -0.7356  0.6278
  655MOL0     H88359  10.013   8.687   9.228  2.6535 -2.1845 -0.9814
  655MOL0     H88360   9.880   8.966   9.567 -3.2735 -3.8825  0.1213
  655MOL0     H88361   9.930   9.068   9.425 -0.5125 -0.8303  1.6199
  655MOL0     H88362   9.711   9.111   9.425  0.3275 -0.6239  0.1009
  655MOL0     H88363   9.693   8.974   9.317 -0.8907  1.1035  0.4638
  655MOL0     H88364   9.647   8.814   9.507  1.7779  1.0620 -0.3457
  655MOL0     H88365   9.658   8.950   9.615 -0.8841  4.7269 -0.6566
  655MOL0     H88366   9.472   9.059   9.529 -3.4414 -0.6878  1.4147
  655MOL0     H88367   9.459   8.939   9.388 -1.0604  2.0808 -0.5065
  655MOL0     H88368   9.408   8.893   9.691  0.6291  3.4757 -0.3439
  655MOL0     H88369   9.291   8.921   9.558 -0.0205 -0.2247  0.2852
  655MOL0     H88370   9.343   8.698   9.469  0.3120 -0.3457 -0.5563
  655MOL0     H88371   9.487   8.682   9.567 -0.6964 -0.7671 -0.7093
  655MOL0     H88372   9.328   8.549   9.676 -0.3358 -0.3506  0.0448
  655MOL0     H88373   9.309   8.698   9.768 -0.4128 -1.1887  0.0333
  655MOL0     H88374   9.142   8.594   9.543  2.8568 -0.3196 -0.5582
  655MOL0     H88375   9.124   8.761   9.616  0.5200 -0.2747 -0.2887
  655MOL0     H88376   9.128   8.402   9.778 -0.5093 -0.3669 -1.3126
  655MOL0     H88377   8.942   8.312   9.982 -1.3752  0.5337  1.0125
  655MOL0     H88378   8.784   8.386   9.964 -0.3982  1.3704 -0.4833
  655MOL0     H88379   8.817   8.147   9.857 -0.3869 -1.9624 -4.1651
  655MOL0     H88380   8.925   8.223   9.751  2.0222  1.2720  2.4025
  655MOL0     H88381   8.694   8.208   9.651 -1.5329  1.7694 -0.3889
  655MOL0     H88382   8.748   8.370   9.646  0.3438  1.3448  1.1402
  655MOL0     H88383   8.510   8.351   9.721 -1.2195  1.4274  0.9700
  655MOL0     H88384   8.592   8.449   9.819  0.5276  0.6860  2.5585
  655MOL0     H88385   8.328   8.265   9.764  0.8204 -1.6810 -0.1979
  655MOL0     H88386   8.101   8.224   9.739 -0.2512 -1.5047  0.2407
  655MOL0     H88387   7.985   8.234   9.870  1.0433  1.6227  0.3893
  655MOL0     H88388   8.071   8.381   9.812  2.6198  0.1575 -0.8267
  655MOL0     H88389   7.801   8.151  10.151  0.6291 -0.3308 -0.8426
  655MOL0     H88390   7.603   8.148  10.274  0.2772  2.4274 -0.8870
  655MOL0     H88391   7.478   8.033  10.421  1.3951 -0.1447  1.0442
  655MOL0     H88392   7.399   8.048  10.563  1.5004 -1.0207  0.3148
  655MOL0     H88393   7.413   8.320  10.525 -1.0248  2.5748 -1.9469
  655MOL0     H88394   7.467   8.297  10.368  0.8355  1.7855  2.0763
  655MOL0     H88395   7.195   8.171  10.470 -0.0230  1.0746  0.2655
  655MOL0     H88396   7.250   8.171  10.306 -0.3087 -1.5527  0.9659
  655MOL0     H88397   7.188   8.416  10.466 -3.0690 -0.7955  0.8343
  655MOL0     H88398   7.217   8.401  10.289  2.9316 -0.4201  0.6145
  655MOL0     H88399   6.971   8.337  10.480 -2.1734 -0.7640 -0.2968
  655MOL0     H88400   6.992   8.236  10.335  3.4325 -0.1238 -1.0957
  655MOL0     H88401   6.999   8.543  10.314  1.2719  0.2226 -0.5238
  655MOL0     H88402   6.998   8.418  10.185 -1.7572  0.6771 -1.1470
  655MOL0     H88403   6.782   8.452  10.394  1.0508  3.3381 -0.0657
  655MOL0     H88404   6.767   8.353  10.244 -1.5985  2.3324 -2.2353
  655MOL0     H88405   6.802   8.578  10.109 -0.9451  1.9853 -0.3271
  655MOL0     H88406   6.796   8.655  10.268 -0.6866 -0.5876  1.5935
  655MOL0     H88407   7.834   8.164  10.651 -1.2867  2.1825  0.0230
  655MOL0     H88408   8.039   8.197  10.502 -0.4385 -1.2149  2.1511
  655MOL0     H88409   8.293   8.158  10.239  0.3528 -0.4109 -0.6517
  655MOL0     H88410   8.518   8.208  10.138  0.5750  2.2900  0.6317
  655MOL0     H88411  10.129   8.956   9.541  1.6997  0.3694  0.0706
  655MOL0     H88412  10.352   8.960   9.474  0.3858 -0.3651  0.4836
  655MOL0     H88413  10.660   8.970   9.282  0.2693 -0.5357  1.1963
  655MOL0     H88414  10.898   9.013   9.269  1.5643 -0.9210 -0.0633
  655MOL0     H88415  11.085   9.088   9.105  1.0211  0.4280 -1.9650
  655MOL0     H88416  11.109   9.004   9.266 -0.0049 -2.3069  0.2660
  655MOL0     H88417  11.292   8.926   9.038  4.0546 -2.5952  2.0313
  655MOL0     H88418  11.309   8.913   9.213 -0.8822 -1.9297 -0.2973
  655MOL0     H88419  11.348   9.156   9.236 -0.2217  3.2368 -1.1314
  655MOL0     H88420  11.329   9.178   9.057 -2.1052 -2.6178 -1.5609
  655MOL0     H88421  11.520   9.025   9.009 -1.4702  1.5973 -1.2593
  655MOL0     H88422  11.537   9.001   9.188 -0.0390  1.1473  0.2086
  655MOL0     H88423  11.695   9.373   9.127 -1.3586 -0.1319  3.1377
  655MOL0     H88424  10.951   8.675   9.008 -2.4325 -1.3810 -0.2351
  655MOL0     H88425  10.717   8.601   9.041  0.3986 -0.2480  0.0163
  656MOL0     O88426   2.770   2.371   2.148 -0.0593  0.4299  0.0491
  656MOL0     C88427   2.745   2.261   2.112 -0.0354 -0.5834  0.8697
  656MOL0     O88428   2.620   2.216   2.081  0.7497  0.0928 -0.2415
  656MOL0     C88429   2.515   2.301   2.105 -0.4205  0.2195 -0.5058
  656MOL0     C88430   2.412   2.300   2.016 -1.1050 -0.5129 -1.0617
  656MOL0     C88431   2.299   2.369   2.032 -0.2778  0.7790  0.4436
  656MOL0     C88432   2.275   2.438   2.145  0.2733 -0.1733 -1.0767
  656MOL0     O88433   2.151   2.493   2.168 -0.1809  0.5577 -0.0722
  656MOL0     C88434   2.055   2.374   2.172 -0.9996 -0.1480  0.4603
  656MOL0     C88435   1.916   2.418   2.230 -0.7788 -0.4859 -0.6298
  656MOL0     C88436   1.920   2.541   2.323 -0.5826 -0.2055  0.4011
  656MOL0     C88437   1.812   2.531   2.430  0.0690 -1.1715  0.0594
  656MOL0     C88438   1.671   2.532   2.375  0.6030  0.2791  0.0550
  656MOL0     C88439   1.640   2.640   2.264 -0.7635  0.1207 -1.0342
  656MOL0     C88440   1.493   2.630   2.225 -0.4560 -0.2717  0.0800
  656MOL0     C88441   1.446   2.731   2.124  0.1009  0.1222  0.1870
  656MOL0     N88442   1.319   2.681   2.065 -0.3446 -0.4642 -0.0824
  656MOL0     C88443   1.194   2.681   2.123  0.7321 -0.3943  0.6566
  656MOL0     C88444   1.112   2.652   2.020  0.0251  0.2958  0.6618
  656MOL0     C88445   0.967   2.654   2.043 -0.3353 -0.6351  0.1725
  656MOL0     C88446   0.902   2.510   2.033 -0.2788  0.0672 -0.4085
  656MOL0     C88447   0.754   2.525   2.088  0.2273 -0.2122 -0.3472
  656MOL0     C88448   0.671   2.391   2.079  0.6294 -0.2122 -0.2286
  656MOL0     O88449   0.561   2.409   2.168  0.0795 -0.4132  0.7118
  656MOL0     C88450   0.470   2.309   2.170  1.9655 -0.7955  0.1145
  656MOL0     C88451   0.472   2.199   2.086 -0.3054  0.4759  0.2005
  656MOL0     C88452   0.366   2.103   2.085  0.0606 -1.1304  0.5327
  656MOL0     C88453   0.396   1.982   2.002 -0.3009 -0.2572 -0.1161
  656MOL0     C88454   0.246   2.135   2.156  0.3484  0.3688 -0.3192
  656MOL0     C88455   0.123   2.044   2.174 -0.5915  0.2402  0.3059
  656MOL0     O88456   0.042   2.066   2.278  0.2145  0.1532  0.2098
  656MOL0     C88457  -0.064   1.980   2.286  0.3490 -0.1165 -0.4249
  656MOL0     C88458  -0.172   1.980   2.198  0.2048  0.9739 -0.0077
  656MOL0     C88459  -0.283   1.893   2.222 -0.6521  0.0706  0.7563
  656MOL0     C88460  -0.299   1.826   2.334 -0.5070 -0.1589  0.4173
  656MOL0     O88461  -0.418   1.758   2.359 -0.0983 -0.7303  0.0423
  656MOL0     C88462  -0.426   1.678   2.476  0.5904  0.0056  0.2196
  656MOL0     C88463  -0.551   1.588   2.475  0.2025 -0.5364 -0.2997
  656MOL0     C88464  -0.679   1.666   2.467  0.1644 -0.1170  0.1935
  656MOL0     C88465  -0.797   1.572   2.480 -0.7492  0.0496 -0.4508
  656MOL0     C88466  -0.932   1.648   2.466 -0.4919 -0.5934  0.3603
  656MOL0     C88467  -1.055   1.583   2.500  0.3407  0.0597 -0.7437
  656MOL0     C88468  -1.177   1.661   2.454 -0.4177  0.4459  0.5364
  656MOL0     C88469  -1.315   1.594   2.493 -0.2720 -1.3139  1.1643
  656MOL0    Cl88470  -1.333   1.573   2.678 -0.2658  0.2510  0.2292
  656MOL0     C88471  -0.196   1.836   2.427 -0.3967 -0.1696 -0.4445
  656MOL0     C88472  -0.078   1.907   2.400 -1.1900  0.9608  0.1765
  656MOL0     O88473   0.129   1.942   2.107  0.7910 -0.1484  0.1759
  656MOL0     C88474   0.261   2.238   2.248  0.2947  0.3925 -0.1431
  656MOL0     C88475   0.362   2.328   2.255  0.0959  0.4225  0.4065
  656MOL0     N88476   1.185   2.627   1.909  0.0758 -0.1810 -0.4266
  656MOL0     N88477   1.307   2.654   1.931 -1.3162  0.2657  0.3910
  656MOL0     C88478   2.366   2.425   2.252  0.1352 -0.9594 -0.5740
  656MOL0     C88479   2.493   2.367   2.229 -0.4203 -0.0173 -0.4976
  656MOL0     C88480   2.860   2.169   2.104 -0.1675  0.4167  0.8387
  656MOL0     C88481   2.979   2.188   2.174 -0.5016  0.0968  0.2851
  656MOL0     C88482   3.082   2.101   2.157 -0.6652  0.0614 -0.5131
  656MOL0     C88483   3.077   1.991   2.066  0.7155 -0.1540  0.3040
  656MOL0     O88484   3.190   1.914   2.055 -0.2539 -0.0727  1.0741
  656MOL0     C88485   3.192   1.797   1.959 -0.4402  0.6933 -0.0451
  656MOL0     C88486   3.338   1.754   1.956 -0.6226 -0.0960  0.3813
  656MOL0     C88487   3.446   1.861   1.931 -0.1067 -0.2059  0.4069
  656MOL0     C88488   3.531   1.892   2.059 -0.4015  0.3801 -0.1650
  656MOL0     C88489   3.619   2.002   2.025 -0.4501  0.0378  0.0124
  656MOL0     C88490   3.695   2.098   2.007 -0.7338 -0.1492 -0.0847
  656MOL0     C88491   2.953   1.964   2.002  0.1944 -0.2981  0.4621
  656MOL0     C88492   2.842   2.056   2.010 -0.6614 -0.2030 -0.4936
  656MOL0     H88493   2.432   2.243   1.925 -1.7975 -0.1108 -1.4732
  656MOL0     H88494   2.222   2.358   1.956  0.0497 -4.2022  0.5578
  656MOL0     H88495   2.051   2.324   2.075 -2.9455  1.6423 -0.4816
  656MOL0     H88496   2.096   2.306   2.247 -2.4169  0.4139  1.7894
  656MOL0     H88497   1.859   2.466   2.150 -0.9963  1.5323  0.6638
  656MOL0     H88498   1.873   2.328   2.275 -0.0053 -0.8105 -0.5291
  656MOL0     H88499   2.004   2.539   2.393 -0.3555  0.3706  0.1491
  656MOL0     H88500   1.902   2.635   2.271  1.4506 -0.8496 -1.6862
  656MOL0     H88501   1.828   2.437   2.484  0.7665  0.3002  2.5730
  656MOL0     H88502   1.828   2.613   2.500 -3.0018 -0.8653  0.5744
  656MOL0     H88503   1.662   2.436   2.323 -1.8256  0.3825  0.1706
  656MOL0     H88504   1.601   2.541   2.459  0.0620  1.9552 -0.5333
  656MOL0     H88505   1.670   2.735   2.308  0.3050 -0.7058  0.1043
  656MOL0     H88506   1.704   2.615   2.179  1.8788 -0.5778  1.0169
  656MOL0     H88507   1.490   2.531   2.179 -0.1254  1.1155 -3.1725
  656MOL0     H88508   1.437   2.628   2.319  2.4448  0.6558  1.9733
  656MOL0     H88509   1.514   2.751   2.040 -0.9194  1.9699 -0.2593
  656MOL0     H88510   1.435   2.831   2.168  0.3369  0.1141  0.2645
  656MOL0     H88511   1.170   2.698   2.228 -0.6837 -0.9513  0.4411
  656MOL0     H88512   0.941   2.706   2.136  0.6735 -0.4374  0.3614
  656MOL0     H88513   0.919   2.710   1.962 -0.4361 -0.6137  0.2477
  656MOL0     H88514   0.957   2.441   2.098 -0.4877  1.0073  0.8044
  656MOL0     H88515   0.923   2.477   1.931  0.1793  1.8740 -0.9427
  656MOL0     H88516   0.697   2.608   2.046 -4.1264 -1.6724  2.0552
  656MOL0     H88517   0.769   2.548   2.194 -3.2336  0.5437  0.0866
  656MOL0     H88518   0.727   2.302   2.111  2.0888  0.6750 -0.2561
  656MOL0     H88519   0.636   2.382   1.976  0.3643 -0.1375 -0.1458
  656MOL0     H88520   0.552   2.186   2.015 -2.2883  1.3266 -2.3313
  656MOL0     H88521   0.429   1.907   2.074  1.9696  2.9177  2.4772
  656MOL0     H88522   0.311   1.952   1.940 -1.1399 -0.9959  1.3494
  656MOL0     H88523   0.480   2.004   1.935  2.4977 -1.9700  2.5818
  656MOL0     H88524  -0.175   2.048   2.114 -2.8934  0.6291 -0.2900
  656MOL0     H88525  -0.369   1.890   2.156  0.7554 -0.2572 -1.1639
  656MOL0     H88526  -0.351   1.599   2.486  2.2114  1.6963  3.2261
  656MOL0     H88527  -0.417   1.738   2.567  1.7221 -0.5817  0.5065
  656MOL0     H88528  -0.558   1.513   2.395 -1.1999 -0.1568 -0.5547
  656MOL0     H88529  -0.550   1.545   2.576  2.2804  1.4374  0.6171
  656MOL0     H88530  -0.687   1.734   2.381  2.5960 -1.4260 -1.1966
  656MOL0     H88531  -0.680   1.724   2.560 -0.2883 -0.2596  0.2766
  656MOL0     H88532  -0.794   1.494   2.404 -0.8258  0.4887 -0.9100
  656MOL0     H88533  -0.795   1.515   2.574  2.2311 -2.3664 -1.7950
  656MOL0     H88534  -0.932   1.677   2.361 -0.4532 -1.7383  0.0309
  656MOL0     H88535  -0.917   1.737   2.527  1.8996  0.2468 -1.2993
  656MOL0     H88536  -1.067   1.488   2.446 -1.9429 -1.2464  1.8030
  656MOL0     H88537  -1.068   1.558   2.606  2.7564  0.9646 -0.1820
  656MOL0     H88538  -1.176   1.684   2.347 -1.7935 -1.4914  0.0515
  656MOL0     H88539  -1.177   1.759   2.503 -1.2757 -0.2208  1.9389
  656MOL0     H88540  -1.324   1.499   2.440  1.7887 -0.4567 -0.8910
  656MOL0     H88541  -1.402   1.650   2.456  1.0579 -1.1358 -1.9750
  656MOL0     H88542  -0.206   1.781   2.520 -0.5868 -1.2438 -1.0862
  656MOL0     H88543   0.003   1.908   2.472 -0.8142 -0.8853 -0.1633
  656MOL0     H88544   0.177   2.262   2.311  0.0910  1.3521 -0.7550
  656MOL0     H88545   0.363   2.413   2.324 -1.1673  0.1619  0.7739
  656MOL0     H88546   2.324   2.485   2.333 -4.6105 -0.1087 -3.2998
  656MOL0     H88547   2.569   2.367   2.306 -1.2497  1.0676  0.3521
  656MOL0     H88548   2.982   2.269   2.245  3.9050  1.7492 -1.4156
  656MOL0     H88549   3.177   2.123   2.205 -0.8935  0.1310 -0.0889
  656MOL0     H88550   3.131   1.721   2.008  0.5551  0.2491  0.5507
  656MOL0     H88551   3.163   1.827   1.859  2.1969 -2.4395 -1.9811
  656MOL0     H88552   3.345   1.677   1.878  1.8477  0.6946 -0.2496
  656MOL0     H88553   3.364   1.702   2.049 -0.8856 -3.3067 -1.1756
  656MOL0     H88554   3.399   1.948   1.884  0.7153 -2.1017 -4.5963
  656MOL0     H88555   3.514   1.823   1.855  1.9247  0.5906  1.7563
  656MOL0     H88556   3.591   1.807   2.092 -0.5001  0.4195  0.1163
  656MOL0     H88557   3.469   1.922   2.144 -1.0127 -1.7204  0.1803
  656MOL0     H88558   3.757   2.183   1.988  3.5615 -3.4963 -2.8396
  656MOL0     H88559   2.943   1.891   1.923 -3.2397  1.3151 -0.7898
  656MOL0     H88560   2.758   2.046   1.943  0.1724  0.8054 -1.7353
  657MOL0     O88561   8.736  11.181   0.712 -0.3168 -0.0884  0.8203
  657MOL0     C88562   8.739  11.070   0.765 -0.4290  0.1396 -0.5874
  657MOL0     O88563   8.640  11.012   0.833 -0.2849  0.3670  0.3479
  657MOL0     C88564   8.543  11.087   0.886 -0.2317 -1.3601  0.7873
  657MOL0     C88565   8.561  11.207   0.955 -0.6032 -0.1953  0.5010
  657MOL0     C88566   8.458  11.282   1.004 -0.0683 -0.0986 -0.0588
  657MOL0     C88567   8.327  11.228   1.013  0.1925  0.1460  0.6918
  657MOL0     O88568   8.224  11.306   1.056 -0.2109  1.5134  0.2457
  657MOL0     C88569   8.212  11.441   0.993 -0.6010 -0.1797 -0.5194
  657MOL0     C88570   8.079  11.515   1.015 -0.7537  0.8702  0.0785
  657MOL0     C88571   7.954  11.438   0.970 -0.0469  1.1130  0.7026
  657MOL0     C88572   7.823  11.492   1.032 -0.7326 -0.0717  0.2258
  657MOL0     C88573   7.698  11.427   0.976 -0.5917  0.4327  0.2778
  657MOL0     C88574   7.573  11.497   1.012 -0.3794 -0.1133 -0.1255
  657MOL0     C88575   7.446  11.405   1.016 -0.4389 -0.2320  0.5142
  657MOL0     C88576   7.396  11.364   0.876  0.0712 -1.0369  0.7193
  657MOL0     N88577   7.258  11.311   0.900  0.5908 -0.5488 -0.1617
  657MOL0     C88578   7.229  11.177   0.903 -0.3220  0.4270 -0.7039
  657MOL0     C88579   7.092  11.169   0.909  0.7066 -0.1717 -0.4760
  657MOL0     C88580   6.999  11.054   0.914 -0.0476 -0.4052 -0.8408
  657MOL0     C88581   6.899  11.068   0.805 -0.2263  0.0149  0.8701
  657MOL0     C88582   6.769  10.995   0.844 -0.0380  0.4703  0.2326
  657MOL0     C88583   6.665  10.985   0.732  0.6586 -0.4972 -0.6955
  657MOL0     O88584   6.552  10.931   0.800  0.4798  0.5928  0.1849
  657MOL0     C88585   6.443  10.911   0.725  0.8421 -0.1303 -0.0012
  657MOL0     C88586   6.347  10.839   0.803  0.1956 -0.0824  0.3479
  657MOL0     C88587   6.223  10.809   0.746  0.8210 -0.2284 -0.4125
  657MOL0     C88588   6.125  10.729   0.830 -0.9362 -0.2704 -0.0876
  657MOL0     C88589   6.179  10.867   0.620 -0.0194  0.2431 -0.2523
  657MOL0     C88590   6.042  10.859   0.571 -0.4071  0.4775  0.3539
  657MOL0     O88591   6.042  10.855   0.433  0.0935 -0.0607  0.8674
  657MOL0     C88592   5.921  10.877   0.373  0.1783 -0.5241 -0.5478
  657MOL0     C88593   5.878  10.777   0.293  0.6433  0.4517 -0.1863
  657MOL0     C88594   5.753  10.783   0.232  0.5621  0.1655 -0.0550
  657MOL0     C88595   5.686  10.907   0.235 -0.4739  0.4668 -0.2306
  657MOL0     O88596   5.567  10.908   0.168  0.8454  0.1077  0.1637
  657MOL0     C88597   5.499  11.034   0.155  0.3713 -0.4828  0.3029
  657MOL0     C88598   5.373  11.018   0.071  0.2873 -0.6245  0.8557
  657MOL0     C88599   5.406  10.978  -0.074  0.2178  0.1486 -0.1164
  657MOL0     C88600   5.276  10.917  -0.140  0.2539  0.3092  0.3319
  657MOL0     C88601   5.297  10.860  -0.273  0.0255  0.3128 -1.3172
  657MOL0     C88602   5.163  10.796  -0.309  0.3972 -0.3506  1.1084
  657MOL0     C88603   5.190  10.687  -0.423 -0.6702 -0.3905 -0.7768
  657MOL0     C88604   5.057  10.614  -0.455  0.8266 -0.8472  0.1136
  657MOL0    Cl88605   5.072  10.517  -0.603  0.3146  0.2922  0.1219
  657MOL0     C88606   5.725  11.013   0.320  1.0537  0.4736  0.3679
  657MOL0     C88607   5.847  11.001   0.382 -0.0075 -0.2248  0.0459
  657MOL0     O88608   5.941  10.872   0.647 -0.1634 -0.3092 -0.1526
  657MOL0     C88609   6.274  10.933   0.541  0.2766 -0.2529 -0.3518
  657MOL0     C88610   6.401  10.968   0.600 -0.1776  0.0542  0.3912
  657MOL0     N88611   7.045  11.302   0.919  0.0672  1.0134 -0.6012
  657MOL0     N88612   7.143  11.381   0.916 -0.4201 -0.0350  0.1775
  657MOL0     C88613   8.306  11.103   0.951  0.0334 -0.1278 -0.4302
  657MOL0     C88614   8.408  11.040   0.884 -0.1398 -0.2618  0.2520
  657MOL0     C88615   8.863  10.991   0.736 -0.1554 -0.3006  0.1898
  657MOL0     C88616   8.871  10.855   0.756  0.0886 -0.5482  0.6308
  657MOL0     C88617   8.995  10.791   0.734 -0.2175  0.3612 -0.6299
  657MOL0     C88618   9.107  10.862   0.696  0.7604  0.0461 -0.1917
  657MOL0     O88619   9.215  10.789   0.658  0.0954 -0.1096 -0.0031
  657MOL0     C88620   9.341  10.867   0.637  0.4093  0.4523 -0.5581
  657MOL0     C88621   9.456  10.763   0.633 -0.2057  0.9345  0.8798
  657MOL0     C88622   9.577  10.818   0.559  0.2656 -0.2396 -0.0380
  657MOL0     C88623   9.681  10.709   0.537 -0.4695  1.1089  0.5512
  657MOL0     C88624   9.808  10.762   0.475  0.4168 -0.2105 -0.0321
  657MOL0     C88625   9.911  10.808   0.421  0.9803 -0.0628 -0.0946
  657MOL0     C88626   9.095  10.996   0.676 -0.4909 -1.0761  0.1229
  657MOL0     C88627   8.976  11.065   0.704 -1.1450  0.1078 -0.4677
  657MOL0     H88628   8.663  11.243   0.961 -0.9898  1.1051 -0.2181
  657MOL0     H88629   8.480  11.377   1.051  0.3476  1.4665 -3.1750
  657MOL0     H88630   8.291  11.510   1.020 -0.7936 -0.1123 -0.1194
  657MOL0     H88631   8.230  11.437   0.885  2.3525  2.3026 -0.2278
  657MOL0     H88632   8.081  11.539   1.122  2.2986 -1.3703  0.6420
  657MOL0     H88633   8.081  11.602   0.948 -3.3938 -1.4273 -3.3676
  657MOL0     H88634   7.948  11.444   0.861  0.5659 -2.0904  0.3824
  657MOL0     H88635   7.968  11.331   0.987 -2.4183  0.2589 -1.7791
  657MOL0     H88636   7.836  11.487   1.141  1.7970  0.6686  0.0394
  657MOL0     H88637   7.824  11.600   1.014 -0.2820 -0.1989 -0.5704
  657MOL0     H88638   7.706  11.429   0.866 -0.5409  2.1775  0.2781
  657MOL0     H88639   7.703  11.325   1.014 -2.1552  0.5894  0.9819
  657MOL0     H88640   7.595  11.553   1.103  1.4097  1.4201 -1.4082
  657MOL0     H88641   7.562  11.570   0.931 -2.0670 -2.2525 -1.9474
  657MOL0     H88642   7.479  11.319   1.076  1.2872  0.1292  0.1350
  657MOL0     H88643   7.370  11.459   1.074  0.1843  0.8791  0.3108
  657MOL0     H88644   7.471  11.298   0.833  1.2204  0.5559  0.1904
  657MOL0     H88645   7.381  11.450   0.810  0.9412 -1.3269  0.1267
  657MOL0     H88646   7.300  11.095   0.906 -0.5047  0.2885 -0.1051
  657MOL0     H88647   7.053  10.958   0.915 -0.2504 -0.5322 -1.4686
  657MOL0     H88648   6.953  11.061   1.013  3.2246  1.6950  0.6837
  657MOL0     H88649   6.935  11.031   0.708  0.1229  2.5643 -0.0511
  657MOL0     H88650   6.877  11.174   0.796 -0.6300 -0.0914  0.5706
  657MOL0     H88651   6.734  11.043   0.936 -0.0661  0.2279  0.3511
  657MOL0     H88652   6.797  10.891   0.862 -0.5921 -0.1395 -2.1418
  657MOL0     H88653   6.700  10.936   0.641  0.4363 -0.6116 -0.7204
  657MOL0     H88654   6.652  11.090   0.705  1.6420 -0.1478  0.1057
  657MOL0     H88655   6.376  10.798   0.899 -0.9670  0.1652  0.8288
  657MOL0     H88656   6.038  10.786   0.864 -0.8377 -0.8409  1.1441
  657MOL0     H88657   6.102  10.634   0.780 -1.6206  0.7380 -1.8030
  657MOL0     H88658   6.182  10.694   0.916  0.0161  1.6487  0.1205
  657MOL0     H88659   5.940  10.688   0.300 -0.5829 -0.4804 -0.8553
  657MOL0     H88660   5.703  10.718   0.161 -0.6938 -0.4246  1.3208
  657MOL0     H88661   5.474  11.073   0.254  0.9961 -1.2767  0.7840
  657MOL0     H88662   5.565  11.105   0.104  0.2790 -0.5411  0.1011
  657MOL0     H88663   5.317  10.939   0.120  1.7455 -0.5947  2.7163
  657MOL0     H88664   5.313  11.109   0.080  0.3184 -0.5801  0.6133
  657MOL0     H88665   5.479  10.898  -0.059 -1.7884 -2.4703 -3.1633
  657MOL0     H88666   5.452  11.063  -0.125 -0.6462  1.2218  0.8192
  657MOL0     H88667   5.253  10.835  -0.072  4.6355 -0.7393  0.8693
  657MOL0     H88668   5.201  10.997  -0.141 -0.0466  0.0325  0.6480
  657MOL0     H88669   5.371  10.780  -0.269 -0.8989 -0.5850 -1.8269
  657MOL0     H88670   5.322  10.936  -0.348  0.3943  0.5341 -0.9750
  657MOL0     H88671   5.120  10.740  -0.226  3.2702 -3.2641  0.8695
  657MOL0     H88672   5.099  10.873  -0.352 -0.1832 -2.3818 -1.9914
  657MOL0     H88673   5.266  10.615  -0.393  0.5075  1.2324  0.3500
  657MOL0     H88674   5.231  10.743  -0.508  0.4926  0.8683  0.5564
  657MOL0     H88675   4.975  10.685  -0.474 -1.1472 -3.4606 -1.8248
  657MOL0     H88676   5.030  10.554  -0.368  0.6914 -1.5981 -0.4414
  657MOL0     H88677   5.661  11.098   0.343 -1.0537 -0.9634  0.1880
  657MOL0     H88678   5.869  11.087   0.446 -2.1479 -0.3858  1.0985
  657MOL0     H88679   6.245  10.963   0.441  1.8368  0.9327 -0.4649
  657MOL0     H88680   6.471  11.037   0.554  0.2695  1.1353  2.5691
  657MOL0     H88681   8.216  11.043   0.957  1.6156 -2.5658  0.3102
  657MOL0     H88682   8.391  10.940   0.845  1.3238 -1.2298  1.9259
  657MOL0     H88683   8.784  10.794   0.778 -0.5414  1.2317  3.5812
  657MOL0     H88684   8.993  10.683   0.741  1.1853  0.3536 -0.0025
  657MOL0     H88685   9.336  10.938   0.553 -4.5353  1.8899  0.5844
  657MOL0     H88686   9.358  10.942   0.715 -1.2129  1.8448 -1.4673
  657MOL0     H88687   9.424  10.671   0.584  0.9773  0.5246  0.8397
  657MOL0     H88688   9.481  10.734   0.736 -0.0685  1.9255  1.1414
  657MOL0     H88689   9.617  10.905   0.611  0.2633  0.0482 -0.5108
  657MOL0     H88690   9.560  10.856   0.458 -0.4955 -0.9174 -0.1743
  657MOL0     H88691   9.637  10.631   0.474  2.2808 -0.6305  0.6322
  657MOL0     H88692   9.697  10.655   0.630  1.8559  3.7197  1.8196
  657MOL0     H88693  10.008  10.830   0.383  0.7125  0.1216 -0.6877
  657MOL0     H88694   9.171  11.058   0.630  0.6594  0.1219  3.3331
  657MOL0     H88695   8.967  11.171   0.682 -3.2528  0.3423  1.0854
  658MOL0     O88696   1.093   5.550   6.753  0.1381  1.2248 -0.5392
  658MOL0     C88697   1.097   5.669   6.763  0.5998  0.3278 -0.0753
  658MOL0     O88698   0.996   5.744   6.828 -0.3559  0.1135 -0.2732
  658MOL0     C88699   0.896   5.672   6.897  0.0036  0.1189 -0.2808
  658MOL0     C88700   0.925   5.629   7.029 -0.0736  0.8459  0.8406
  658MOL0     C88701   0.834   5.556   7.111 -0.2451  0.4069  0.1999
  658MOL0     C88702   0.708   5.523   7.046  0.5033  0.1996  0.3253
  658MOL0     O88703   0.598   5.467   7.111  0.1130 -0.6319 -0.5601
  658MOL0     C88704   0.615   5.411   7.245 -0.2234  0.0658 -0.3167
  658MOL0     C88705   0.465   5.383   7.281 -0.2004  0.1542  0.3659
  658MOL0     C88706   0.365   5.501   7.301  0.1388  0.6918  0.3876
  658MOL0     C88707   0.248   5.443   7.390  0.4438 -0.6960  1.2583
  658MOL0     C88708   0.129   5.540   7.389 -0.5456 -0.2567  1.4330
  658MOL0     C88709   0.017   5.492   7.488 -0.2394 -0.1810 -0.4049
  658MOL0     C88710  -0.119   5.556   7.459  0.0028  0.2341  0.2482
  658MOL0     C88711  -0.195   5.496   7.347  0.3868 -0.3521  0.4022
  658MOL0     N88712  -0.333   5.540   7.342  0.1262  0.3447  0.0915
  658MOL0     C88713  -0.443   5.455   7.335  0.1940  0.5598 -0.1406
  658MOL0     C88714  -0.548   5.534   7.308  0.0734 -0.3470  0.3240
  658MOL0     C88715  -0.695   5.500   7.337 -0.3536  0.2936  0.1273
  658MOL0     C88716  -0.772   5.474   7.204  0.4378 -0.0913  0.1531
  658MOL0     C88717  -0.893   5.562   7.196  0.3695  0.4089 -0.0756
  658MOL0     C88718  -0.984   5.528   7.078  0.0556  0.5382  0.5066
  658MOL0     O88719  -1.028   5.396   7.074  0.1540  0.5121 -0.2125
  658MOL0     C88720  -1.119   5.354   6.983  0.6856 -0.4798  0.8180
  658MOL0     C88721  -1.139   5.217   6.974 -0.8084  0.9358 -0.1527
  658MOL0     C88722  -1.225   5.168   6.875  0.2499 -0.1284 -0.1211
  658MOL0     C88723  -1.238   5.011   6.870 -0.1887  0.0903  0.4896
  658MOL0     C88724  -1.302   5.246   6.794 -0.1005 -0.5322  0.3605
  658MOL0     C88725  -1.404   5.197   6.698  0.6774  0.3434 -0.2735
  658MOL0     O88726  -1.462   5.073   6.719  0.5980  0.1611 -0.3029
  658MOL0     C88727  -1.565   5.043   6.639 -0.4269  0.2185 -0.2032
  658MOL0     C88728  -1.549   5.020   6.504 -0.1499  0.3862  0.4921
  658MOL0     C88729  -1.663   4.982   6.419 -0.1678  0.3728 -0.1084
  658MOL0     C88730  -1.794   4.963   6.470 -0.6220 -0.4166  0.0698
  658MOL0     O88731  -1.895   4.942   6.386  1.0141  0.3952  0.0068
  658MOL0     C88732  -2.023   4.890   6.437 -0.5920  0.3642  0.1601
  658MOL0     C88733  -2.130   4.895   6.323 -0.5231 -0.1160 -0.6770
  658MOL0     C88734  -2.079   4.843   6.191 -0.0264 -0.5487  0.8071
  658MOL0     C88735  -2.186   4.857   6.074  0.0127 -0.5711 -0.9015
  658MOL0     C88736  -2.120   4.839   5.940 -0.7232  0.0537  0.8675
  658MOL0     C88737  -2.208   4.909   5.835 -0.2881  0.3658  0.5816
  658MOL0     C88738  -2.337   4.847   5.784  0.4551 -0.3690  0.2933
  658MOL0     C88739  -2.318   4.709   5.716  0.1059 -0.7160  0.5180
  658MOL0    Cl88740  -2.474   4.649   5.646  0.5950  0.8236 -0.0677
  658MOL0     C88741  -1.804   4.981   6.607 -0.0886  0.1224  0.3007
  658MOL0     C88742  -1.690   5.021   6.687  0.3753  0.5699 -0.2338
  658MOL0     O88743  -1.436   5.271   6.603 -0.4598 -0.0795 -0.3883
  658MOL0     C88744  -1.296   5.387   6.810  0.6435  0.5397 -0.6082
  658MOL0     C88745  -1.204   5.435   6.901 -0.7018  0.2205 -0.2326
  658MOL0     N88746  -0.506   5.664   7.291  0.4911 -0.1191  0.1532
  658MOL0     N88747  -0.378   5.667   7.309  0.1690  0.9198 -0.1361
  658MOL0     C88748   0.683   5.573   6.918 -0.6749 -0.0990  0.0851
  658MOL0     C88749   0.774   5.644   6.843  0.3733  0.2765  0.2334
  658MOL0     C88750   1.208   5.747   6.702  0.0333 -0.6593  0.3331
  658MOL0     C88751   1.313   5.690   6.634 -0.8443  0.4306  0.6620
  658MOL0     C88752   1.414   5.776   6.581 -0.0500  0.3839  0.0715
  658MOL0     C88753   1.415   5.918   6.592  0.5250 -0.1237  1.0112
  658MOL0     O88754   1.518   5.994   6.555  0.9540  0.5825  0.7037
  658MOL0     C88755   1.618   5.989   6.651 -0.4747  0.3622  0.8274
  658MOL0     C88756   1.625   6.104   6.751 -0.0309 -0.0770 -0.2039
  658MOL0     C88757   1.639   6.243   6.675  0.0947  0.3346 -0.1704
  658MOL0     C88758   1.669   6.368   6.757  0.6496  0.9256  0.5133
  658MOL0     C88759   1.642   6.348   6.899  1.0334  0.6653 -0.5069
  658MOL0     C88760   1.621   6.316   7.012 -0.0621  0.2309 -0.0833
  658MOL0     C88761   1.299   5.973   6.639 -0.0602 -0.4526  0.0292
  658MOL0     C88762   1.206   5.887   6.704 -0.5673 -0.8218 -0.4851
  658MOL0     H88763   1.023   5.651   7.071  1.2865  0.2505 -1.8269
  658MOL0     H88764   0.850   5.522   7.213 -3.1586  1.4381  1.1094
  658MOL0     H88765   0.684   5.326   7.234 -0.4838 -0.1200 -0.5328
  658MOL0     H88766   0.649   5.480   7.322 -2.5053  0.8613  0.0447
  658MOL0     H88767   0.420   5.326   7.199 -3.7131  2.2548  0.6259
  658MOL0     H88768   0.461   5.323   7.373  0.6482 -1.5400 -0.6551
  658MOL0     H88769   0.418   5.585   7.347  1.9916 -1.2500  1.9878
  658MOL0     H88770   0.326   5.527   7.202  1.4371 -1.2129 -0.6737
  658MOL0     H88771   0.214   5.346   7.352 -1.7055  0.0182  1.2034
  658MOL0     H88772   0.284   5.432   7.493  1.9584 -1.8395  0.6459
  658MOL0     H88773   0.161   5.640   7.422 -0.9311  0.6732 -0.8402
  658MOL0     H88774   0.108   5.542   7.282  4.4943  1.7016  0.1842
  658MOL0     H88775   0.006   5.384   7.473  1.8277 -0.6831  1.1250
  658MOL0     H88776   0.053   5.521   7.588  1.0736  1.2729 -1.2534
  658MOL0     H88777  -0.179   5.532   7.547  1.4601 -0.2760  1.1436
  658MOL0     H88778  -0.113   5.665   7.450  3.5606  0.0050 -2.1182
  658MOL0     H88779  -0.194   5.387   7.361 -0.1975 -0.1471  2.2403
  658MOL0     H88780  -0.145   5.515   7.252 -0.2626 -1.4665 -0.1924
  658MOL0     H88781  -0.447   5.348   7.352  0.8336  0.5537 -0.0062
  658MOL0     H88782  -0.698   5.411   7.400 -0.8930  1.1841  1.4065
  658MOL0     H88783  -0.743   5.582   7.392 -0.8181  0.5232 -0.6000
  658MOL0     H88784  -0.806   5.372   7.184  0.6882  0.2397 -2.2604
  658MOL0     H88785  -0.710   5.507   7.120 -0.4724  0.1979 -0.4163
  658MOL0     H88786  -0.859   5.666   7.187  2.2366 -0.1129  0.5587
  658MOL0     H88787  -0.959   5.549   7.282 -2.1068 -0.4299 -1.9808
  658MOL0     H88788  -0.925   5.543   6.987  0.7047 -2.4443  0.3248
  658MOL0     H88789  -1.072   5.593   7.071 -0.7069 -0.6334 -1.8434
  658MOL0     H88790  -1.079   5.153   7.037 -1.4998 -0.5433 -0.9659
  658MOL0     H88791  -1.333   4.979   6.913 -0.0732 -0.9810 -0.0162
  658MOL0     H88792  -1.230   4.977   6.766  0.5905 -0.6437  0.7800
  658MOL0     H88793  -1.159   4.960   6.926 -0.5060 -4.7409 -2.8211
  658MOL0     H88794  -1.460   5.034   6.443 -0.4751 -1.6603 -0.5650
  658MOL0     H88795  -1.648   4.963   6.313 -1.3236  1.7715 -0.5481
  658MOL0     H88796  -2.004   4.789   6.473  2.5505  0.4504 -0.9294
  658MOL0     H88797  -2.059   4.932   6.532  2.7273 -0.6851  2.0299
  658MOL0     H88798  -2.224   4.848   6.354  0.2630 -2.3410 -1.4717
  658MOL0     H88799  -2.163   4.998   6.310 -0.6866  0.4958  3.3167
  658MOL0     H88800  -2.052   4.737   6.199 -0.9889 -0.7360  1.8721
  658MOL0     H88801  -1.990   4.902   6.168 -0.6071  0.4419  1.0656
  658MOL0     H88802  -2.273   4.792   6.088 -0.3468 -0.0303 -0.5691
  658MOL0     H88803  -2.224   4.957   6.095  3.8647  0.7487  0.6459
  658MOL0     H88804  -2.110   4.732   5.921 -1.7948  0.3547 -1.8671
  658MOL0     H88805  -2.020   4.882   5.927 -1.6590  1.7732 -1.4311
  658MOL0     H88806  -2.233   5.010   5.867 -0.3944  0.9653 -1.2567
  658MOL0     H88807  -2.140   4.914   5.750  1.8405  1.2688  2.2628
  658MOL0     H88808  -2.383   4.913   5.710  3.0033 -1.3907 -2.3989
  658MOL0     H88809  -2.411   4.840   5.864  1.3718 -0.2562  1.1774
  658MOL0     H88810  -2.281   4.638   5.791  0.4340 -0.5729  0.4956
  658MOL0     H88811  -2.239   4.727   5.642 -0.6582  1.2457  0.0997
  658MOL0     H88812  -1.902   4.981   6.654  0.2837  2.7366  1.2259
  658MOL0     H88813  -1.711   5.030   6.793  0.8870 -3.4352  0.3360
  658MOL0     H88814  -1.362   5.459   6.762  1.1423  2.9814  2.0525
  658MOL0     H88815  -1.198   5.542   6.920  1.9716 -0.4150  3.8195
  658MOL0     H88816   0.587   5.555   6.870 -1.1130  2.6592 -0.2457
  658MOL0     H88817   0.760   5.680   6.741  0.4422  0.7187  0.3802
  658MOL0     H88818   1.311   5.582   6.630 -3.5833  0.3775  1.6216
  658MOL0     H88819   1.499   5.727   6.534 -1.8931 -1.5321 -1.4857
  658MOL0     H88820   1.604   5.903   6.719 -2.1728  1.5905  2.1192
  658MOL0     H88821   1.712   5.970   6.599 -0.6425 -0.5666  0.8448
  658MOL0     H88822   1.704   6.091   6.825 -1.5168  1.4615  1.7712
  658MOL0     H88823   1.527   6.098   6.799 -0.6891 -1.3841 -1.6344
  658MOL0     H88824   1.548   6.260   6.617 -0.5818 -0.9441  0.4841
  658MOL0     H88825   1.716   6.232   6.598  0.6457 -0.9693  0.5285
  658MOL0     H88826   1.605   6.449   6.719  0.3965 -1.2558 -4.3916
  658MOL0     H88827   1.777   6.385   6.753  1.3057 -2.8104 -1.5568
  658MOL0     H88828   1.599   6.298   7.115 -1.1289 -2.9232 -0.7467
  658MOL0     H88829   1.298   6.081   6.649 -2.1250 -0.6012  2.4682
  658MOL0     H88830   1.127   5.928   6.768 -0.8683  0.0584 -1.3861
  659MOL0     O88831  10.590   7.823  11.225 -0.4391 -0.3379 -0.0832
  659MOL0     C88832  10.668   7.893  11.157  0.3497  0.0196  0.4683
  659MOL0     O88833  10.625   7.979  11.056 -0.0612  0.3669 -0.5026
  659MOL0     C88834  10.509   7.943  10.998 -0.1059 -0.4247  0.7693
  659MOL0     C88835  10.476   7.810  10.956  0.5137 -0.6048  0.4983
  659MOL0     C88836  10.353   7.791  10.878 -0.9949 -0.6092  0.5999
  659MOL0     C88837  10.264   7.895  10.851 -0.4632  0.0245 -1.1338
  659MOL0     O88838  10.142   7.880  10.794  0.4835  1.3986  0.3572
  659MOL0     C88839  10.131   7.789  10.679  0.0749 -0.3492  0.5476
  659MOL0     C88840  10.008   7.821  10.600 -0.2013  0.2798 -0.1317
  659MOL0     C88841   9.888   7.793  10.687 -0.2544  0.3126 -0.6282
  659MOL0     C88842   9.769   7.860  10.623  0.8845  0.0784  0.4447
  659MOL0     C88843   9.638   7.832  10.695  0.6049 -0.5611  0.2253
  659MOL0     C88844   9.597   7.694  10.679  0.3526  0.4928 -0.2135
  659MOL0     C88845   9.465   7.663  10.747 -0.6331  0.4237 -0.4985
  659MOL0     C88846   9.346   7.723  10.669  0.2162 -0.3498 -0.3500
  659MOL0     N88847   9.218   7.668  10.717 -0.7279 -0.3295  0.1639
  659MOL0     C88848   9.153   7.723  10.822  0.2548  0.3873 -0.7673
  659MOL0     C88849   9.032   7.659  10.821 -0.4954 -0.6202  0.4272
  659MOL0     C88850   8.940   7.703  10.926  0.3947  0.4128  0.4710
  659MOL0     C88851   8.984   7.673  11.069  0.2431  0.1654  0.3724
  659MOL0     C88852   8.880   7.699  11.177  0.6812  0.3792  0.0214
  659MOL0     C88853   8.804   7.834  11.162  0.6098 -0.1955 -0.0716
  659MOL0     O88854   8.690   7.813  11.081  0.4383  0.3032  0.3826
  659MOL0     C88855   8.596   7.913  11.055 -0.0420  1.1142  0.9172
  659MOL0     C88856   8.621   8.043  11.087  0.0245  0.3676  0.2298
  659MOL0     C88857   8.528   8.145  11.072 -0.4104  0.3592  0.3572
  659MOL0     C88858   8.570   8.282  11.108  0.0924 -0.5644  0.1294
  659MOL0     C88859   8.402   8.106  11.019  0.4706 -0.2950  0.4575
  659MOL0     C88860   8.291   8.207  10.983 -0.0255 -0.2063 -0.2481
  659MOL0     O88861   8.196   8.160  10.897  0.0318 -0.0812  0.3800
  659MOL0     C88862   8.082   8.239  10.877  0.5254 -0.1303 -0.3414
  659MOL0     C88863   7.957   8.202  10.927 -0.6143 -1.0236  0.2306
  659MOL0     C88864   7.838   8.280  10.892 -0.2557 -0.0555 -0.5303
  659MOL0     C88865   7.849   8.402  10.831  0.3204 -0.1499  0.1997
  659MOL0     O88866   7.743   8.488  10.795  0.1948 -0.8024  0.2338
  659MOL0     C88867   7.609   8.432  10.825 -0.9697  0.2971 -0.2139
  659MOL0     C88868   7.517   8.519  10.741 -0.0889  0.4077 -0.3129
  659MOL0     C88869   7.382   8.540  10.821  0.1203  0.7766  0.6530
  659MOL0     C88870   7.295   8.644  10.732 -0.0568  0.2914  0.8047
  659MOL0     C88871   7.160   8.656  10.800  1.0720  0.2430 -0.5326
  659MOL0     C88872   7.070   8.768  10.744 -0.1367  0.7192 -0.1716
  659MOL0     C88873   6.931   8.760  10.811  0.6167  0.5915  0.2736
  659MOL0     C88874   6.825   8.761  10.696 -0.1656  0.5743 -0.6913
  659MOL0    Cl88875   6.826   8.601  10.612  0.1292 -0.6592  0.0736
  659MOL0     C88876   7.975   8.441  10.788 -0.5034  0.4970  0.0304
  659MOL0     C88877   8.089   8.365  10.811  0.2877 -0.0919  0.8492
  659MOL0     O88878   8.283   8.317  11.043  0.1352 -0.0543  0.2484
  659MOL0     C88879   8.379   7.974  10.984 -0.6329  0.1241  0.0716
  659MOL0     C88880   8.476   7.876  10.991  0.3482 -0.2174 -0.3103
  659MOL0     N88881   9.024   7.571  10.721  0.6008  0.0635  0.4233
  659MOL0     N88882   9.136   7.576  10.652 -0.5444 -0.4536 -0.6583
  659MOL0     C88883  10.296   8.020  10.904  0.2972 -0.4589  0.1223
  659MOL0     C88884  10.416   8.043  10.963 -0.1592  0.2857 -1.0322
  659MOL0     C88885  10.815   7.877  11.178  0.4076  0.8879  0.3852
  659MOL0     C88886  10.864   7.778  11.279  0.4204 -0.6933  0.4191
  659MOL0     C88887  10.997   7.761  11.291 -0.6061 -0.8379  0.2209
  659MOL0     C88888  11.084   7.843  11.214  0.0640 -0.1761  0.1846
  659MOL0     O88889  11.213   7.828  11.229  0.0958 -0.3671 -0.4135
  659MOL0     C88890  11.289   7.777  11.115  0.6159 -0.9272 -0.0153
  659MOL0     C88891  11.417   7.862  11.088  0.4828  0.1740 -0.0778
  659MOL0     C88892  11.514   7.860  11.207  0.0372  0.1057  0.9416
  659MOL0     C88893  11.642   7.945  11.180 -0.0007 -0.5007 -0.0823
  659MOL0     C88894  11.698   7.962  11.307 -0.6470 -0.5399  0.0364
  659MOL0     C88895  11.743   7.997  11.414 -0.3886  0.0294  0.2371
  659MOL0     C88896  11.026   7.940  11.128 -0.4950  0.1430  0.1643
  659MOL0     C88897  10.895   7.966  11.108 -0.4379  0.1564  0.5139
  659MOL0     H88898  10.530   7.720  10.985 -1.0202 -1.0704  2.1640
  659MOL0     H88899  10.332   7.692  10.840  1.6965 -1.1906  0.3783
  659MOL0     H88900  10.218   7.805  10.615 -0.0134  0.2171  0.5639
  659MOL0     H88901  10.143   7.684  10.708  0.4514 -0.8168 -1.2053
  659MOL0     H88902  10.020   7.927  10.576  0.5017  0.6177  1.5568
  659MOL0     H88903  10.004   7.761  10.509 -1.2851 -1.3198  0.9157
  659MOL0     H88904   9.886   7.684  10.694  0.9419  0.2498 -1.0580
  659MOL0     H88905   9.909   7.847  10.781  0.5789  1.5680 -1.4973
  659MOL0     H88906   9.779   7.969  10.624 -1.2603  0.3581  3.5653
  659MOL0     H88907   9.755   7.831  10.518 -0.2903 -1.8781  1.0903
  659MOL0     H88908   9.637   7.851  10.803 -4.0175  2.4005 -0.0598
  659MOL0     H88909   9.560   7.897  10.655  0.8017  1.4520  2.8214
  659MOL0     H88910   9.592   7.669  10.572 -0.0453 -1.5323  0.2447
  659MOL0     H88911   9.674   7.623  10.710  0.4157  1.0882  1.0587
  659MOL0     H88912   9.469   7.555  10.763 -0.7585  0.5570  0.5491
  659MOL0     H88913   9.461   7.706  10.848 -0.7428  0.7540 -0.6417
  659MOL0     H88914   9.342   7.690  10.565 -3.3067 -2.2414  0.2151
  659MOL0     H88915   9.350   7.831  10.686  1.9035  0.2017 -3.4757
  659MOL0     H88916   9.173   7.806  10.888 -1.9569 -1.8602  3.0873
  659MOL0     H88917   8.911   7.808  10.919 -0.4969  0.1335 -0.1704
  659MOL0     H88918   8.845   7.653  10.906 -0.6813  2.2474  0.8550
  659MOL0     H88919   9.078   7.721  11.100 -0.4192 -0.3275  3.4683
  659MOL0     H88920   8.995   7.565  11.075 -0.9278 -0.2038 -2.5339
  659MOL0     H88921   8.929   7.691  11.274  0.3317 -1.1777  0.0996
  659MOL0     H88922   8.810   7.615  11.179  0.4056  0.6192  1.3851
  659MOL0     H88923   8.876   7.907  11.123 -0.3991  0.1871 -1.2693
  659MOL0     H88924   8.781   7.866  11.263  0.6282  0.8995 -0.4073
  659MOL0     H88925   8.716   8.069  11.132  1.5487 -2.8122 -0.8289
  659MOL0     H88926   8.482   8.327  11.155 -3.8382 -3.0433 -4.0393
  659MOL0     H88927   8.646   8.269  11.185 -0.2832 -3.5851  0.1231
  659MOL0     H88928   8.610   8.335  11.022 -1.7733 -0.0942 -0.4845
  659MOL0     H88929   7.955   8.104  10.972  0.2535  0.6073  4.3145
  659MOL0     H88930   7.747   8.226  10.915 -0.0030 -0.6695 -0.9433
  659MOL0     H88931   7.591   8.327  10.801 -3.3848  0.4706  0.6006
  659MOL0     H88932   7.586   8.453  10.930  0.1805  1.9128 -0.2499
  659MOL0     H88933   7.553   8.620  10.719 -0.8508  0.9656  0.8720
  659MOL0     H88934   7.492   8.479  10.642 -3.8372  0.4381  0.4596
  659MOL0     H88935   7.410   8.586  10.916 -1.2924  1.7528  0.6377
  659MOL0     H88936   7.337   8.441  10.832  0.5796  0.1996 -1.9430
  659MOL0     H88937   7.345   8.741  10.721 -1.0043  0.4879 -4.0193
  659MOL0     H88938   7.288   8.592  10.636  0.6999  0.8372  0.4390
  659MOL0     H88939   7.159   8.669  10.908 -2.2359  0.3355 -0.4870
  659MOL0     H88940   7.108   8.563  10.777  0.8815  0.0153  0.7494
  659MOL0     H88941   7.123   8.864  10.756  0.2662  0.6479 -1.2907
  659MOL0     H88942   7.051   8.755  10.638  0.1073  0.1582 -0.1508
  659MOL0     H88943   6.915   8.854  10.864 -0.8852 -0.4240  1.7436
  659MOL0     H88944   6.922   8.673  10.877  1.5342 -1.3683 -2.0427
  659MOL0     H88945   6.845   8.839  10.622  0.4022  1.3241  0.2480
  659MOL0     H88946   6.730   8.773  10.749  0.5244 -0.0698  0.7254
  659MOL0     H88947   7.971   8.535  10.734 -0.1445  0.3466 -0.2562
  659MOL0     H88948   8.187   8.404  10.785  1.1569 -3.2063 -1.0057
  659MOL0     H88949   8.284   7.941  10.942 -0.9867  1.9694 -0.6652
  659MOL0     H88950   8.451   7.776  10.957 -0.6601  1.1753 -4.1181
  659MOL0     H88951  10.228   8.104  10.914  0.9226  0.0987 -0.2058
  659MOL0     H88952  10.432   8.148  10.985  0.1459 -0.1326  0.9542
  659MOL0     H88953  10.792   7.713  11.328 -2.9161  0.5610 -2.3915
  659MOL0     H88954  11.033   7.682  11.356 -2.1746 -1.0534  0.8839
  659MOL0     H88955  11.309   7.669  11.122 -2.6195 -1.7429 -1.4052
  659MOL0     H88956  11.228   7.786  11.025  1.0085 -2.4044 -0.4607
  659MOL0     H88957  11.390   7.962  11.055 -2.8903 -0.5558  0.1564
  659MOL0     H88958  11.463   7.819  10.999 -2.5154 -0.3787 -1.4549
  659MOL0     H88959  11.542   7.758  11.234 -1.7112 -0.1507  1.9536
  659MOL0     H88960  11.470   7.904  11.297  0.0444 -0.3394  1.1650
  659MOL0     H88961  11.614   8.043  11.140 -0.7324 -0.3109  0.8684
  659MOL0     H88962  11.702   7.889  11.107 -0.1174 -1.6982  0.7102
  659MOL0     H88963  11.791   8.033  11.503  2.1469 -1.3065 -0.4903
  659MOL0     H88964  11.098   8.009  11.085 -0.0185 -1.1514 -1.2052
  659MOL0     H88965  10.853   8.037  11.038 -1.0043  0.2981  0.9893
  660MOL0     O88966   2.122   3.781   0.799  0.2328  0.5584 -0.4530
  660MOL0     C88967   2.128   3.664   0.837  0.2819  1.0025  0.0625
  660MOL0     O88968   2.024   3.588   0.892 -0.1483  0.0525  0.0316
  660MOL0     C88969   1.899   3.643   0.890 -0.5987 -0.3376 -0.1228
  660MOL0     C88970   1.872   3.723   0.993 -0.1134  0.1426  0.1380
  660MOL0     C88971   1.750   3.794   0.999 -0.7880  0.1411  0.2628
  660MOL0     C88972   1.644   3.772   0.908 -0.2040 -0.0558 -0.0501
  660MOL0     O88973   1.524   3.823   0.928  0.4041 -0.7854  0.3357
  660MOL0     C88974   1.407   3.734   0.941 -0.5029 -0.6623  0.2804
  660MOL0     C88975   1.325   3.714   0.812 -0.2522  0.1927  0.8482
  660MOL0     C88976   1.195   3.648   0.813  0.8547  0.3869 -0.1223
  660MOL0     C88977   1.098   3.747   0.871 -0.1025 -0.1428  0.4055
  660MOL0     C88978   0.952   3.695   0.870  0.5059 -0.3228 -0.0553
  660MOL0     C88979   0.843   3.808   0.870 -0.5751  0.1454 -0.1132
  660MOL0     C88980   0.700   3.755   0.890 -0.1410  0.4016  0.5900
  660MOL0     C88981   0.608   3.872   0.935  0.1237 -0.2670 -0.1804
  660MOL0     N88982   0.467   3.815   0.916  0.2859 -0.0118 -0.7775
  660MOL0     C88983   0.409   3.716   0.994 -0.5908 -0.2493 -0.6076
  660MOL0     C88984   0.280   3.705   0.940  0.3520  0.6068 -0.3371
  660MOL0     C88985   0.177   3.608   0.992 -0.9848  0.3765 -0.0929
  660MOL0     C88986   0.139   3.675   1.130  0.4221  0.0448  0.2073
  660MOL0     C88987   0.029   3.607   1.203 -0.3612 -0.4717  0.8735
  660MOL0     C88988  -0.101   3.603   1.133  0.6551  0.5950  0.1254
  660MOL0     O88989  -0.191   3.543   1.230  0.1810 -0.2664  0.6954
  660MOL0     C88990  -0.329   3.552   1.212 -0.7471  1.3803  0.0230
  660MOL0     C88991  -0.417   3.442   1.208 -0.3299  0.2913  0.6182
  660MOL0     C88992  -0.559   3.448   1.190 -0.4492 -0.2486 -0.7758
  660MOL0     C88993  -0.644   3.327   1.171 -0.2299 -0.6531  0.0215
  660MOL0     C88994  -0.617   3.586   1.199 -0.3589  0.0792  0.8995
  660MOL0     C88995  -0.761   3.622   1.171  0.6284  0.0569  0.8598
  660MOL0     O88996  -0.798   3.755   1.185 -0.0006 -0.1474 -0.1302
  660MOL0     C88997  -0.925   3.804   1.215  0.4765 -0.3720  0.0062
  660MOL0     C88998  -0.945   3.943   1.208 -1.3482  0.4080  1.2535
  660MOL0     C88999  -1.068   4.004   1.240 -0.3950  0.0325 -1.0499
  660MOL0     C89000  -1.175   3.926   1.290  0.3842 -1.0305  0.0735
  660MOL0     O89001  -1.300   3.985   1.305  0.3071  0.0135  0.7167
  660MOL0     C89002  -1.417   3.904   1.297 -0.1465 -0.5121  0.5251
  660MOL0     C89003  -1.527   3.993   1.332  0.1582  0.3261  0.3815
  660MOL0     C89004  -1.644   3.908   1.380  0.0143  0.7265 -0.3927
  660MOL0     C89005  -1.770   4.005   1.381 -0.8689 -0.0267  0.2679
  660MOL0     C89006  -1.840   4.025   1.246  0.7798 -0.1983 -0.1715
  660MOL0     C89007  -1.984   4.079   1.264 -0.4487 -0.0471  1.7567
  660MOL0     C89008  -2.084   3.983   1.325 -0.6061 -0.2770  0.2175
  660MOL0     C89009  -2.226   4.033   1.282  0.0318 -1.0664 -1.1032
  660MOL0    Cl89010  -2.296   4.179   1.361 -0.1480 -0.1489 -0.1611
  660MOL0     C89011  -1.159   3.788   1.293 -0.4519 -0.4473  0.0636
  660MOL0     C89012  -1.037   3.733   1.260  0.4384  0.6271  0.1349
  660MOL0     O89013  -0.837   3.532   1.133  0.1423 -0.1992 -0.2636
  660MOL0     C89014  -0.533   3.694   1.227 -0.6936  0.1507  0.1510
  660MOL0     C89015  -0.394   3.679   1.226 -0.5300  0.4501 -0.2081
  660MOL0     N89016   0.268   3.798   0.840  0.3187  0.0982 -0.4206
  660MOL0     N89017   0.382   3.853   0.812 -0.5204  0.0887 -0.7968
  660MOL0     C89018   1.670   3.681   0.804 -1.1063  0.1519  0.4002
  660MOL0     C89019   1.792   3.616   0.795 -0.2490  0.5589  0.1610
  660MOL0     C89020   2.259   3.601   0.823  0.3559  0.7772 -0.3692
  660MOL0     C89021   2.373   3.670   0.854  0.4957 -0.4115 -0.8111
  660MOL0     C89022   2.500   3.607   0.870 -0.3733  0.6080 -0.0180
  660MOL0     C89023   2.512   3.474   0.830  0.4165  0.7281  0.3371
  660MOL0     O89024   2.636   3.412   0.828 -0.2411 -0.2911 -0.1117
  660MOL0     C89025   2.757   3.485   0.865  1.0698  0.1012 -0.3488
  660MOL0     C89026   2.878   3.388   0.853  0.3889 -0.2634 -0.0429
  660MOL0     C89027   2.890   3.330   0.712 -0.8559  0.4971  0.3626
  660MOL0     C89028   2.981   3.196   0.710  0.1995 -0.2817 -0.0212
  660MOL0     C89029   3.102   3.206   0.783  0.4129  0.3370  0.2975
  660MOL0     C89030   3.204   3.211   0.849 -0.0811 -0.0154  0.9217
  660MOL0     C89031   2.394   3.403   0.802  0.5660 -0.4691  0.0870
  660MOL0     C89032   2.269   3.467   0.788  0.4250  0.2535 -0.3217
  660MOL0     H89033   1.956   3.750   1.055  0.2923 -1.2318  0.2123
  660MOL0     H89034   1.731   3.859   1.084 -0.7461  1.0610 -0.4235
  660MOL0     H89035   1.441   3.639   0.984  0.8974 -0.4346 -0.2564
  660MOL0     H89036   1.338   3.783   1.009 -1.4126 -0.0153 -1.0662
  660MOL0     H89037   1.306   3.814   0.770 -2.1396  1.9415  5.2122
  660MOL0     H89038   1.389   3.655   0.746  1.5289  1.5019  1.3269
  660MOL0     H89039   1.164   3.626   0.710 -0.3623  2.3719 -0.2242
  660MOL0     H89040   1.196   3.555   0.870  0.8750 -0.2055 -1.0605
  660MOL0     H89041   1.136   3.769   0.971  1.3480  1.4025 -0.4310
  660MOL0     H89042   1.099   3.834   0.804  2.7142  0.1423  0.7116
  660MOL0     H89043   0.927   3.639   0.780 -0.2751  0.4024 -0.2986
  660MOL0     H89044   0.935   3.622   0.950 -0.5721 -0.0976 -0.0771
  660MOL0     H89045   0.874   3.866   0.957  2.6228 -2.8645  0.9908
  660MOL0     H89046   0.859   3.872   0.783 -0.9514 -1.3524 -1.3316
  660MOL0     H89047   0.679   3.704   0.795 -1.7265  0.7411  0.7144
  660MOL0     H89048   0.695   3.681   0.970  1.5231 -2.9596 -2.1633
  660MOL0     H89049   0.634   3.957   0.872 -0.0681 -1.2619 -1.6541
  660MOL0     H89050   0.624   3.903   1.039  2.7449  1.2990 -0.9610
  660MOL0     H89051   0.448   3.650   1.071 -2.8761  0.5032  1.3267
  660MOL0     H89052   0.098   3.598   0.917  2.1974  1.4526 -3.9461
  660MOL0     H89053   0.227   3.511   0.999  1.5184  1.6497  0.9929
  660MOL0     H89054   0.108   3.774   1.097  0.4233 -1.0234 -3.4307
  660MOL0     H89055   0.228   3.673   1.193  0.4051  1.2698  0.2900
  660MOL0     H89056   0.011   3.661   1.296 -2.2960 -0.6561  0.6517
  660MOL0     H89057   0.058   3.505   1.230 -0.9607 -1.3623 -1.5887
  660MOL0     H89058  -0.098   3.541   1.043 -0.1279 -0.5044  0.8326
  660MOL0     H89059  -0.136   3.703   1.106  1.8698  1.2775  0.9978
  660MOL0     H89060  -0.370   3.345   1.223 -0.8881 -0.0451  0.2550
  660MOL0     H89061  -0.693   3.321   1.073  0.2546 -3.5167 -0.1249
  660MOL0     H89062  -0.591   3.234   1.188  0.9341 -0.2056 -1.0189
  660MOL0     H89063  -0.723   3.327   1.247  1.2921 -0.4488  1.6702
  660MOL0     H89064  -0.862   3.998   1.166 -0.0956 -2.3916 -0.2635
  660MOL0     H89065  -1.086   4.111   1.237  1.7884  0.4685 -0.1668
  660MOL0     H89066  -1.424   3.857   1.198 -3.0858  0.7607  0.0392
  660MOL0     H89067  -1.397   3.829   1.374  0.0952  1.3865  2.3799
  660MOL0     H89068  -1.491   4.060   1.412 -0.2868  0.4626  0.4715
  660MOL0     H89069  -1.555   4.053   1.245  0.5846  1.5852  1.0884
  660MOL0     H89070  -1.624   3.881   1.484 -1.4340  1.0922  0.0111
  660MOL0     H89071  -1.670   3.830   1.308  0.3613 -0.3732  0.6393
  660MOL0     H89072  -1.845   3.950   1.439  0.8018 -2.2539  0.4773
  660MOL0     H89073  -1.750   4.101   1.430 -0.8192  0.4882 -0.7367
  660MOL0     H89074  -1.839   3.941   1.177 -0.1755  2.1244 -3.2410
  660MOL0     H89075  -1.781   4.107   1.203  0.1374  1.6722  2.2833
  660MOL0     H89076  -1.982   4.171   1.323  0.8218  0.6338  0.6917
  660MOL0     H89077  -2.015   4.110   1.164 -0.6648 -0.6150  1.6435
  660MOL0     H89078  -2.081   3.993   1.434 -2.6115 -1.5570  0.4325
  660MOL0     H89079  -2.073   3.879   1.292 -0.1578 -0.2840  0.3789
  660MOL0     H89080  -2.301   3.958   1.307 -2.0681  1.6620  1.4321
  660MOL0     H89081  -2.233   4.060   1.176 -2.3733  3.9139  0.0182
  660MOL0     H89082  -1.242   3.723   1.319  0.4570 -2.0129 -0.7889
  660MOL0     H89083  -1.023   3.626   1.271 -0.5782  0.3821 -0.7763
  660MOL0     H89084  -0.577   3.792   1.237  1.4884  1.2525 -0.4105
  660MOL0     H89085  -0.340   3.773   1.228  1.5632 -0.6682 -0.8602
  660MOL0     H89086   1.587   3.650   0.743 -0.8969  3.1831 -1.6610
  660MOL0     H89087   1.809   3.536   0.723  1.6976  2.1791 -1.2963
  660MOL0     H89088   2.355   3.774   0.880 -0.1292 -0.7536  0.2228
  660MOL0     H89089   2.582   3.674   0.897  0.1127  0.9640 -2.1997
  660MOL0     H89090   2.773   3.568   0.796  2.3472 -1.4677 -2.0534
  660MOL0     H89091   2.758   3.516   0.970  1.3770 -0.6954 -0.1073
  660MOL0     H89092   2.878   3.312   0.932 -0.2241  0.3632  0.5855
  660MOL0     H89093   2.963   3.452   0.877 -0.1060  0.1387  0.6928
  660MOL0     H89094   2.934   3.409   0.650  1.4617  0.6236  2.0693
  660MOL0     H89095   2.793   3.304   0.667 -1.6431  1.3167  1.5270
  660MOL0     H89096   3.008   3.174   0.606 -0.0414 -1.7973  0.2147
  660MOL0     H89097   2.923   3.109   0.742 -1.4347  0.7566 -0.0526
  660MOL0     H89098   3.298   3.202   0.898 -0.0718 -2.2331  0.5714
  660MOL0     H89099   2.400   3.296   0.784 -1.2798 -0.2415 -2.3317
  660MOL0     H89100   2.176   3.413   0.772 -0.4928  1.8269 -0.4827
  661MOL0     O89101   5.555   4.811   7.706 -0.3574  0.7757 -0.2529
  661MOL0     C89102   5.635   4.798   7.611  0.4090  0.0989  0.1520
  661MOL0     O89103   5.595   4.783   7.480  0.2474  0.2167 -0.3366
  661MOL0     C89104   5.469   4.745   7.443  0.1687  0.6700 -0.2833
  661MOL0     C89105   5.444   4.617   7.383  0.3538 -0.3884 -0.3321
  661MOL0     C89106   5.316   4.574   7.358  0.3153  0.6355  0.3426
  661MOL0     C89107   5.208   4.657   7.376 -0.7274  0.4434 -0.4238
  661MOL0     O89108   5.089   4.608   7.330 -0.3684  0.0647 -0.0840
  661MOL0     C89109   4.967   4.684   7.344 -0.2371 -0.1701 -0.2068
  661MOL0     C89110   4.854   4.627   7.273  1.0280  1.0816 -0.4431
  661MOL0     C89111   4.787   4.506   7.352 -0.7877 -0.4107 -0.1915
  661MOL0     C89112   4.665   4.452   7.284  0.6686  0.6861 -0.0417
  661MOL0     C89113   4.584   4.365   7.377  0.4265  0.6098  0.2731
  661MOL0     C89114   4.464   4.292   7.310  0.4071 -0.0797 -0.3854
  661MOL0     C89115   4.351   4.377   7.278  0.6341 -0.5103  1.2989
  661MOL0     C89116   4.226   4.283   7.248  0.6936  1.4253 -0.5944
  661MOL0     N89117   4.105   4.356   7.205 -0.5254 -1.0875  0.5131
  661MOL0     C89118   4.107   4.461   7.118 -0.1880 -0.1665  0.1728
  661MOL0     C89119   3.977   4.497   7.131 -0.9125 -0.4747  1.1867
  661MOL0     C89120   3.892   4.611   7.057 -0.3198  0.1660  0.4116
  661MOL0     C89121   3.829   4.554   6.929 -1.0384 -0.4118 -0.7981
  661MOL0     C89122   3.756   4.657   6.839 -0.5699  0.0574  0.3962
  661MOL0     C89123   3.611   4.669   6.882 -0.4416 -0.4820  0.8001
  661MOL0     O89124   3.527   4.559   6.844  0.6287 -0.1569  0.4079
  661MOL0     C89125   3.396   4.559   6.876 -0.0031 -0.1120 -0.5085
  661MOL0     C89126   3.329   4.653   6.942  0.1869  0.1726  0.2782
  661MOL0     C89127   3.187   4.651   6.958  0.0437  0.0634 -0.3302
  661MOL0     C89128   3.115   4.758   7.040  0.3383 -0.0044  0.5864
  661MOL0     C89129   3.117   4.531   6.922  0.1857  0.0454 -0.4881
  661MOL0     C89130   2.976   4.500   6.943  0.6593  0.2654 -0.4166
  661MOL0     O89131   2.912   4.546   7.054  0.3655 -0.0464 -0.5922
  661MOL0     C89132   2.771   4.528   7.060 -0.7032  0.1082  0.4099
  661MOL0     C89133   2.685   4.562   6.957 -0.3019  0.3121  0.1536
  661MOL0     C89134   2.549   4.531   6.969 -0.8805  0.7586 -0.1709
  661MOL0     C89135   2.493   4.466   7.086  0.2431 -0.5210  0.1873
  661MOL0     O89136   2.360   4.464   7.089 -0.2353 -0.8142  1.0078
  661MOL0     C89137   2.280   4.411   7.203  0.7971 -0.0581 -0.4608
  661MOL0     C89138   2.127   4.442   7.184 -0.6113  0.4711  0.3086
  661MOL0     C89139   2.049   4.462   7.318 -0.1945  0.4075 -0.5036
  661MOL0     C89140   1.934   4.561   7.304  0.4977 -0.1331 -0.3580
  661MOL0     C89141   1.828   4.577   7.411 -0.4135  0.2525 -0.3759
  661MOL0     C89142   1.738   4.695   7.401  0.3613  0.0330 -0.1824
  661MOL0     C89143   1.799   4.834   7.420 -0.1195  0.7318 -0.1590
  661MOL0     C89144   1.687   4.931   7.440  0.1861  0.1894 -0.1515
  661MOL0    Cl89145   1.606   4.908   7.603 -0.0259 -0.0357 -0.3486
  661MOL0     C89146   2.576   4.429   7.186  0.7507 -0.4354 -0.0413
  661MOL0     C89147   2.716   4.461   7.170  0.3151 -0.6287  0.0940
  661MOL0     O89148   2.923   4.441   6.858  0.4904 -0.5064  0.2447
  661MOL0     C89149   3.187   4.441   6.841 -0.7506  0.1811 -0.1998
  661MOL0     C89150   3.324   4.457   6.816  0.5756  1.0974  0.1731
  661MOL0     N89151   3.912   4.440   7.237 -0.3133 -0.0522 -0.0578
  661MOL0     N89152   4.000   4.367   7.295 -0.3641 -0.0385 -0.1905
  661MOL0     C89153   5.232   4.797   7.413  0.2071  0.8026  0.6040
  661MOL0     C89154   5.364   4.832   7.453 -0.1076 -1.0728  0.2799
  661MOL0     C89155   5.775   4.820   7.631 -0.1683  0.1960 -0.2800
  661MOL0     C89156   5.877   4.767   7.546 -0.0294 -0.2501 -0.5884
  661MOL0     C89157   6.015   4.775   7.582 -0.0757 -0.4221  0.1922
  661MOL0     C89158   6.049   4.851   7.695 -0.0111 -0.5632  0.4374
  661MOL0     O89159   6.172   4.875   7.749 -0.5894  0.3970 -0.3503
  661MOL0     C89160   6.282   4.782   7.734  0.7906  0.2703  0.7353
  661MOL0     C89161   6.380   4.798   7.843  0.1646  0.8388  0.6206
  661MOL0     C89162   6.506   4.714   7.805 -0.2563 -0.1306  0.6896
  661MOL0     C89163   6.624   4.760   7.889 -1.0280 -0.4376 -0.3991
  661MOL0     C89164   6.609   4.733   8.032  0.0324 -0.8280 -0.3215
  661MOL0     C89165   6.595   4.696   8.150 -0.0644 -0.3195  0.1604
  661MOL0     C89166   5.954   4.909   7.779  0.1017  0.1715  0.2567
  661MOL0     C89167   5.817   4.895   7.746 -0.3379 -0.2210  0.3046
  661MOL0     H89168   5.519   4.543   7.359 -0.3963 -1.0177 -0.7448
  661MOL0     H89169   5.289   4.476   7.321 -0.3412  0.6700  0.7058
  661MOL0     H89170   4.949   4.709   7.449 -1.1876  0.4162 -0.4992
  661MOL0     H89171   4.983   4.777   7.289  1.1850  1.2432  2.4071
  661MOL0     H89172   4.782   4.709   7.265  2.0293  2.3421  2.1546
  661MOL0     H89173   4.894   4.601   7.175  2.4235  1.0735  0.1024
  661MOL0     H89174   4.858   4.423   7.358 -1.3028 -1.0340 -2.1698
  661MOL0     H89175   4.760   4.534   7.454 -0.1874  0.4130 -0.2496
  661MOL0     H89176   4.600   4.531   7.245 -1.2812  1.9039  4.9322
  661MOL0     H89177   4.693   4.394   7.195  2.4813 -0.3075  1.1149
  661MOL0     H89178   4.653   4.291   7.418 -0.9556 -1.2012 -0.5392
  661MOL0     H89179   4.542   4.424   7.459 -0.4052  2.2309 -1.2529
  661MOL0     H89180   4.498   4.236   7.222 -2.8648 -4.4026  0.7532
  661MOL0     H89181   4.425   4.225   7.388  0.4317  0.8346  0.4314
  661MOL0     H89182   4.319   4.451   7.352  1.1313  1.2374 -0.1514
  661MOL0     H89183   4.370   4.444   7.194 -4.2384  1.5598  1.4902
  661MOL0     H89184   4.210   4.216   7.333 -0.2536 -0.1980 -1.9765
  661MOL0     H89185   4.254   4.214   7.167  0.6520  0.1365  0.4451
  661MOL0     H89186   4.182   4.488   7.044  1.1142  2.7551  2.3374
  661MOL0     H89187   3.818   4.661   7.120  0.1636  0.6601  0.5905
  661MOL0     H89188   3.957   4.686   7.012 -0.6248 -0.9410 -2.0584
  661MOL0     H89189   3.771   4.462   6.940 -1.3202 -0.0171  1.4546
  661MOL0     H89190   3.914   4.515   6.872 -1.3811 -3.6205  0.6380
  661MOL0     H89191   3.771   4.611   6.741  0.3698 -0.9842  1.0096
  661MOL0     H89192   3.804   4.755   6.831 -0.4602  0.0069  0.4520
  661MOL0     H89193   3.573   4.754   6.824  0.1597  0.3569  1.6159
  661MOL0     H89194   3.601   4.697   6.987  0.1051 -1.8992  1.2536
  661MOL0     H89195   3.378   4.734   6.995  0.0739 -0.0865  0.7961
  661MOL0     H89196   3.012   4.768   7.006  0.4025 -0.3581  0.2801
  661MOL0     H89197   3.115   4.733   7.146 -2.4119 -2.4702  0.1422
  661MOL0     H89198   3.160   4.856   7.019 -2.4807  0.9106 -1.8285
  661MOL0     H89199   2.726   4.602   6.865  2.9920  1.6330  1.9805
  661MOL0     H89200   2.485   4.558   6.885 -1.2249  0.5652  0.0262
  661MOL0     H89201   2.301   4.305   7.221  0.0715 -0.3595 -1.3524
  661MOL0     H89202   2.310   4.452   7.300  0.6293 -1.0589  0.0325
  661MOL0     H89203   2.120   4.543   7.142 -3.2696  0.0808 -0.3345
  661MOL0     H89204   2.076   4.365   7.125 -1.5075 -1.0973  2.9524
  661MOL0     H89205   2.111   4.494   7.402 -2.5207  1.2340  0.9796
  661MOL0     H89206   2.013   4.362   7.342 -2.6577  0.4661 -3.3655
  661MOL0     H89207   1.983   4.658   7.314 -2.0675  1.1685  0.6654
  661MOL0     H89208   1.890   4.568   7.204 -0.5455  2.5440  0.2016
  661MOL0     H89209   1.875   4.582   7.509 -2.5217 -0.1810  0.7241
  661MOL0     H89210   1.769   4.485   7.398  0.5008 -0.2011 -1.6399
  661MOL0     H89211   1.677   4.693   7.310  0.1271  1.0484 -0.0647
  661MOL0     H89212   1.662   4.686   7.479  0.3006 -0.5363 -0.3076
  661MOL0     H89213   1.867   4.845   7.335 -0.0949 -3.3716 -0.8661
  661MOL0     H89214   1.867   4.838   7.505 -0.5069 -1.7454  0.3408
  661MOL0     H89215   1.610   4.924   7.363 -0.1492  1.6021  0.0317
  661MOL0     H89216   1.734   5.029   7.438 -1.7795  1.2165  0.8744
  661MOL0     H89217   2.538   4.364   7.264  1.4741  1.1168  1.6855
  661MOL0     H89218   2.791   4.419   7.237 -0.1551 -2.0779 -0.2442
  661MOL0     H89219   3.140   4.350   6.804  0.8301 -0.4803 -0.6792
  661MOL0     H89220   3.378   4.391   6.749  0.8071  0.6954  0.7467
  661MOL0     H89221   5.159   4.878   7.421  0.3760  0.8936  1.3985
  661MOL0     H89222   5.374   4.922   7.512 -3.4282 -1.8296  2.2358
  661MOL0     H89223   5.863   4.704   7.458  1.0327  0.9476 -1.6531
  661MOL0     H89224   6.085   4.723   7.518 -1.0475 -0.2297 -1.0765
  661MOL0     H89225   6.245   4.679   7.733 -1.7096  1.0855  1.6604
  661MOL0     H89226   6.329   4.802   7.637 -0.5326 -1.9205 -0.4257
  661MOL0     H89227   6.339   4.758   7.936 -1.1068 -1.5363 -0.8575
  661MOL0     H89228   6.405   4.903   7.853 -0.4932  1.7453 -4.3183
  661MOL0     H89229   6.537   4.737   7.703  0.8620  0.3092  1.1059
  661MOL0     H89230   6.481   4.608   7.813  0.9583 -0.6365 -1.4805
  661MOL0     H89231   6.641   4.867   7.872  1.7521 -1.1219 -2.9466
  661MOL0     H89232   6.713   4.706   7.857 -0.3056 -0.0706  0.9301
  661MOL0     H89233   6.602   4.651   8.247  3.5516 -1.6350 -0.5421
  661MOL0     H89234   5.985   4.963   7.868  0.2856  2.1070 -0.9211
  661MOL0     H89235   5.744   4.933   7.817 -1.4938 -1.6818 -0.0495
  662MOL0     O89236  10.732   9.189   9.517 -0.2807  0.5656 -0.8207
  662MOL0     C89237  10.783   9.239   9.417  0.7191  0.4036 -0.1353
  662MOL0     O89238  10.715   9.278   9.306  0.2531 -0.9255 -0.3124
  662MOL0     C89239  10.579   9.262   9.303  0.5272  0.4648 -0.1694
  662MOL0     C89240  10.496   9.315   9.399  0.0055 -0.6080 -0.4023
  662MOL0     C89241  10.362   9.292   9.392  0.0375 -0.3730 -0.7687
  662MOL0     C89242  10.298   9.227   9.281 -0.3897  0.1803 -0.3942
  662MOL0     O89243  10.160   9.217   9.284  0.4996  0.1846 -0.1590
  662MOL0     C89244  10.091   9.220   9.158 -0.1631 -0.3399  0.5795
  662MOL0     C89245   9.953   9.269   9.183  0.0475 -0.3786 -0.2315
  662MOL0     C89246   9.848   9.216   9.089 -0.5206  0.0231 -0.0012
  662MOL0     C89247   9.708   9.263   9.119  1.0193 -0.4942 -0.1235
  662MOL0     C89248   9.608   9.215   9.014 -0.2453 -0.3430 -0.4219
  662MOL0     C89249   9.463   9.252   9.052  0.1563  0.1204  0.3847
  662MOL0     C89250   9.403   9.169   9.168 -0.0115  0.1172  0.7906
  662MOL0     C89251   9.315   9.242   9.272  0.3337  0.9007  0.1301
  662MOL0     N89252   9.195   9.301   9.215 -0.5812 -0.6497 -0.0638
  662MOL0     C89253   9.067   9.278   9.267  0.0911 -0.1331  0.2931
  662MOL0     C89254   8.983   9.311   9.166  0.1276 -0.2306  0.5092
  662MOL0     C89255   8.833   9.299   9.166  0.8662  0.6474 -0.0217
  662MOL0     C89256   8.770   9.392   9.274 -1.3472  0.1294  0.0122
  662MOL0     C89257   8.641   9.452   9.230 -0.3522  0.8147 -0.1081
  662MOL0     C89258   8.584   9.550   9.342  0.3438  0.0874  0.1375
  662MOL0     O89259   8.467   9.486   9.399 -0.2466 -0.4285  0.1811
  662MOL0     C89260   8.352   9.470   9.325  0.3348  0.3118  0.1994
  662MOL0     C89261   8.238   9.402   9.375 -0.1976 -0.9519 -0.5986
  662MOL0     C89262   8.115   9.385   9.310  0.1303 -0.4165 -0.0170
  662MOL0     C89263   8.005   9.314   9.386 -0.1356 -0.2680  0.1949
  662MOL0     C89264   8.106   9.445   9.178 -0.6310  0.3025  0.4248
  662MOL0     C89265   7.985   9.435   9.083  0.3090  0.3323  0.0490
  662MOL0     O89266   7.991   9.498   8.954 -0.2527  0.8146 -0.4166
  662MOL0     C89267   7.888   9.481   8.860 -0.1792 -0.1241 -0.2525
  662MOL0     C89268   7.851   9.594   8.791  0.5542 -0.2726  0.4355
  662MOL0     C89269   7.753   9.600   8.692 -0.3519 -1.0095 -0.0432
  662MOL0     C89270   7.673   9.483   8.655  0.1786  0.3525 -0.2642
  662MOL0     O89271   7.566   9.473   8.567  0.1551 -0.2252  0.3863
  662MOL0     C89272   7.495   9.594   8.535 -0.7328  0.4788  0.0774
  662MOL0     C89273   7.384   9.571   8.430  0.9818 -0.6719 -0.1036
  662MOL0     C89274   7.308   9.694   8.388 -0.2093  0.1150 -0.1726
  662MOL0     C89275   7.200   9.649   8.283  0.4617 -0.0755 -0.0393
  662MOL0     C89276   7.114   9.758   8.236 -0.4097  0.2299  0.4310
  662MOL0     C89277   7.012   9.790   8.350 -0.0116  0.0224 -1.0644
  662MOL0     C89278   6.908   9.891   8.297  0.1934 -0.2225 -0.7012
  662MOL0     C89279   6.778   9.822   8.249  0.3520 -0.4264  0.1089
  662MOL0    Cl89280   6.666   9.797   8.387  0.3941  0.3174  0.3113
  662MOL0     C89281   7.701   9.375   8.739 -0.0476  0.4626  0.2897
  662MOL0     C89282   7.806   9.371   8.832 -0.0371  0.8350  0.5249
  662MOL0     O89283   7.882   9.383   9.126  0.2088  0.2153 -0.0151
  662MOL0     C89284   8.215   9.514   9.129 -0.7354 -0.9176 -0.1463
  662MOL0     C89285   8.336   9.523   9.198 -0.3611  0.7593  0.4653
  662MOL0     N89286   9.050   9.376   9.072 -0.3027  0.3190  0.1411
  662MOL0     N89287   9.177   9.356   9.094 -0.3039  0.4445 -0.5418
  662MOL0     C89288  10.381   9.186   9.177 -0.7872 -0.5898  0.5440
  662MOL0     C89289  10.521   9.200   9.189 -0.0334  0.5862 -0.4182
  662MOL0     C89290  10.930   9.261   9.416  0.0017 -0.0825  0.4008
  662MOL0     C89291  11.005   9.252   9.534  0.0181 -0.8053  0.8861
  662MOL0     C89292  11.147   9.284   9.543 -0.2902  0.3088 -0.6668
  662MOL0     C89293  11.215   9.331   9.431  0.1785  0.9390 -0.1333
  662MOL0     O89294  11.351   9.362   9.418  0.1350  0.9191 -0.2394
  662MOL0     C89295  11.436   9.306   9.518  0.0351 -0.8098  0.4029
  662MOL0     C89296  11.582   9.356   9.496  0.4052  0.2910  0.2698
  662MOL0     C89297  11.606   9.504   9.509  0.9065  0.1613 -0.7610
  662MOL0     C89298  11.749   9.542   9.514  0.5399  0.4032 -0.1740
  662MOL0     C89299  11.799   9.554   9.375  0.6598 -0.4575  0.4721
  662MOL0     C89300  11.836   9.557   9.267 -0.7982 -0.2114  0.2567
  662MOL0     C89301  11.139   9.327   9.309  0.1131 -0.2408 -0.0552
  662MOL0     C89302  11.001   9.294   9.305  0.1248 -0.4998 -0.3369
  662MOL0     H89303  10.534   9.364   9.488  1.2398 -0.5655 -0.9458
  662MOL0     H89304  10.306   9.320   9.481  0.1386 -1.3868 -0.3756
  662MOL0     H89305  10.140   9.292   9.091 -1.6055  1.3785  1.2830
  662MOL0     H89306  10.089   9.117   9.122  1.5385  0.3526 -1.7811
  662MOL0     H89307   9.926   9.245   9.286  0.0394  0.0249 -0.1358
  662MOL0     H89308   9.953   9.379   9.179  2.5908 -0.2338  1.6318
  662MOL0     H89309   9.872   9.239   8.985 -0.2522  1.2231  0.3048
  662MOL0     H89310   9.852   9.108   9.106 -1.8066 -0.4720 -2.4532
  662MOL0     H89311   9.680   9.219   9.215 -1.2199 -0.6775 -0.7898
  662MOL0     H89312   9.709   9.373   9.113 -1.1123 -0.4746 -1.4946
  662MOL0     H89313   9.626   9.277   8.926 -2.8085  0.3239 -0.5812
  662MOL0     H89314   9.616   9.107   8.999 -5.0148 -0.6237 -2.9629
  662MOL0     H89315   9.463   9.358   9.077 -1.1877  0.4202 -0.7427
  662MOL0     H89316   9.395   9.230   8.969  0.6404 -1.0449  0.2633
  662MOL0     H89317   9.341   9.087   9.132  1.7805 -0.0998 -2.1162
  662MOL0     H89318   9.488   9.111   9.207  1.1468 -0.5803 -2.4650
  662MOL0     H89319   9.366   9.330   9.313 -0.2684  1.4008 -0.1763
  662MOL0     H89320   9.286   9.172   9.350 -1.7571  1.5286 -0.0306
  662MOL0     H89321   9.038   9.225   9.357 -1.7136 -1.3744 -0.9568
  662MOL0     H89322   8.797   9.333   9.069  0.7092 -0.2079 -0.2730
  662MOL0     H89323   8.788   9.199   9.169  2.3859 -0.1904 -2.3160
  662MOL0     H89324   8.835   9.475   9.302 -0.0667 -0.0276 -2.2062
  662MOL0     H89325   8.761   9.333   9.366  1.5718  1.9666  1.6124
  662MOL0     H89326   8.571   9.370   9.211 -1.2451  1.2885  1.0237
  662MOL0     H89327   8.658   9.510   9.139 -0.4743 -0.7119 -1.1334
  662MOL0     H89328   8.557   9.648   9.300 -0.3552 -0.5154 -0.8622
  662MOL0     H89329   8.655   9.573   9.422 -0.2033 -0.7297  0.8828
  662MOL0     H89330   8.257   9.357   9.472  2.3073 -1.2258 -1.1379
  662MOL0     H89331   7.954   9.236   9.328  0.2189  0.2306 -0.7966
  662MOL0     H89332   8.056   9.262   9.468  2.1881 -2.9466 -2.6800
  662MOL0     H89333   7.922   9.380   9.410 -1.6420 -1.7867 -0.6113
  662MOL0     H89334   7.909   9.682   8.817  0.8627 -0.2748 -0.2337
  662MOL0     H89335   7.731   9.699   8.656 -2.5149 -1.1922  0.5994
  662MOL0     H89336   7.457   9.645   8.623 -1.2888  1.0885 -0.5105
  662MOL0     H89337   7.571   9.662   8.495 -0.2996  0.9185  1.5791
  662MOL0     H89338   7.423   9.531   8.336  1.5232 -1.7012  0.5421
  662MOL0     H89339   7.310   9.495   8.455 -2.2591  2.1076 -0.6204
  662MOL0     H89340   7.379   9.770   8.353  1.0085  0.3243  2.4603
  662MOL0     H89341   7.256   9.742   8.472  1.3612  1.3570  0.1455
  662MOL0     H89342   7.254   9.612   8.196  2.0384 -2.0581  1.6809
  662MOL0     H89343   7.142   9.563   8.318  0.1171  0.1707  0.0027
  662MOL0     H89344   7.059   9.712   8.153  2.3017  0.0951 -1.4400
  662MOL0     H89345   7.169   9.844   8.198  0.1957 -0.5296 -0.4782
  662MOL0     H89346   6.971   9.698   8.393  1.2113 -0.2179 -0.3645
  662MOL0     H89347   7.062   9.848   8.428 -2.0143  1.1892 -0.5633
  662MOL0     H89348   6.955   9.942   8.212 -0.4838 -0.2948 -1.1264
  662MOL0     H89349   6.876   9.965   8.370  0.1366 -0.4731 -0.4716
  662MOL0     H89350   6.810   9.736   8.189 -2.1994 -1.4357  0.0718
  662MOL0     H89351   6.726   9.887   8.177 -2.2441 -0.4276  1.8741
  662MOL0     H89352   7.637   9.289   8.723 -1.5748  1.2069  1.9520
  662MOL0     H89353   7.833   9.281   8.887  2.6332  0.9526 -0.4647
  662MOL0     H89354   8.202   9.558   9.031  0.0906 -1.9908 -0.7557
  662MOL0     H89355   8.420   9.565   9.144 -0.5122 -3.0550 -3.3121
  662MOL0     H89356  10.351   9.128   9.090  2.5714  0.6921 -1.7055
  662MOL0     H89357  10.590   9.161   9.114  0.0664  1.2583 -0.6931
  662MOL0     H89358  10.962   9.241   9.633  2.7699 -1.1962  2.1282
  662MOL0     H89359  11.198   9.273   9.638 -1.6413 -0.9450 -0.0498
  662MOL0     H89360  11.408   9.335   9.620  0.9239  1.2081  0.1328
  662MOL0     H89361  11.443   9.199   9.500 -1.1576 -0.4708 -2.6021
  662MOL0     H89362  11.621   9.317   9.401 -0.8116 -2.9354  0.9922
  662MOL0     H89363  11.635   9.313   9.581 -1.4926  1.0719  1.9291
  662MOL0     H89364  11.560   9.532   9.605  0.9501 -1.7505 -0.1415
  662MOL0     H89365  11.553   9.560   9.431  1.4539 -1.0857 -2.0761
  662MOL0     H89366  11.817   9.472   9.562  1.6809  0.9703 -0.9187
  662MOL0     H89367  11.761   9.638   9.564 -0.9700  0.1075  0.8085
  662MOL0     H89368  11.877   9.559   9.169  2.5152  1.3937  1.5086
  662MOL0     H89369  11.190   9.345   9.215 -1.1888  0.3946 -0.6551
  662MOL0     H89370  10.952   9.297   9.208  1.2168  1.7109 -0.8790
  663MOL0     O89371   4.578  10.645   0.275 -0.0696  0.0695  0.1456
  663MOL0     C89372   4.628  10.757   0.301 -0.7290  0.1522 -0.9448
  663MOL0     O89373   4.580  10.878   0.258  0.2495 -0.3734  0.1405
  663MOL0     C89374   4.463  10.866   0.189 -0.9532  0.7260  0.1934
  663MOL0     C89375   4.334  10.875   0.252 -1.1040  0.3386  0.7632
  663MOL0     C89376   4.217  10.863   0.173 -0.1557  0.3104  0.3248
  663MOL0     C89377   4.233  10.843   0.034 -0.8441  0.4033  0.3684
  663MOL0     O89378   4.123  10.832  -0.053 -0.2232 -0.7418  0.3382
  663MOL0     C89379   4.007  10.773  -0.005 -0.2547  0.3990  0.5717
  663MOL0     C89380   3.896  10.866   0.033  0.3645 -0.6335 -0.1373
  663MOL0     C89381   3.829  10.943  -0.072  0.2869  0.0463 -0.4649
  663MOL0     C89382   3.766  10.859  -0.183 -0.0464 -0.0491  0.4071
  663MOL0     C89383   3.738  10.926  -0.314  0.7764  0.2316  0.2399
  663MOL0     C89384   3.630  11.026  -0.292  0.9308 -0.2320 -0.1910
  663MOL0     C89385   3.597  11.096  -0.425 -0.8017 -0.7206  0.0684
  663MOL0     C89386   3.483  11.198  -0.425  0.1288  0.1619  0.3967
  663MOL0     N89387   3.354  11.138  -0.394  0.8197  0.2915 -0.4873
  663MOL0     C89388   3.269  11.078  -0.480 -0.1335  0.7004  0.1601
  663MOL0     C89389   3.164  11.044  -0.413  0.0901 -0.5351 -0.4728
  663MOL0     C89390   3.028  10.999  -0.476  0.2306 -0.0564  0.0974
  663MOL0     C89391   2.944  11.117  -0.498  0.3889  0.0294  0.0741
  663MOL0     C89392   2.820  11.063  -0.578 -0.4719  0.4577 -0.3279
  663MOL0     C89393   2.747  11.177  -0.647  0.9450 -0.1182 -0.4764
  663MOL0     O89394   2.663  11.258  -0.562  0.8843  0.3119  0.3848
  663MOL0     C89395   2.526  11.230  -0.555  0.4843 -0.1547  0.0270
  663MOL0     C89396   2.464  11.118  -0.609 -0.2135 -0.1961  0.0728
  663MOL0     C89397   2.326  11.095  -0.604  0.1950 -0.3745 -0.2223
  663MOL0     C89398   2.278  10.968  -0.660  0.4434 -0.2753 -0.0043
  663MOL0     C89399   2.246  11.195  -0.530 -0.0644 -0.3452  1.7258
  663MOL0     C89400   2.096  11.192  -0.529  0.2404  0.1930  0.0027
  663MOL0     O89401   2.028  11.297  -0.471  0.3555  0.1280  0.4511
  663MOL0     C89402   1.895  11.288  -0.435 -0.5049 -0.1391 -0.6344
  663MOL0     C89403   1.846  11.171  -0.379 -0.5447  0.8455 -0.0410
  663MOL0     C89404   1.707  11.156  -0.342 -0.0831 -0.1027 -0.5087
  663MOL0     C89405   1.621  11.264  -0.369  0.4802 -0.0723  0.8849
  663MOL0     O89406   1.487  11.263  -0.334  0.5214 -0.0675  0.3875
  663MOL0     C89407   1.457  11.215  -0.196 -0.8189 -0.5131 -0.1151
  663MOL0     C89408   1.341  11.300  -0.150  0.3646 -0.7339  0.3878
  663MOL0     C89409   1.210  11.273  -0.230  0.5658 -0.1787 -0.2395
  663MOL0     C89410   1.095  11.361  -0.175  0.3277 -0.6431 -0.4513
  663MOL0     C89411   0.976  11.383  -0.273  0.1635  1.2390 -0.2752
  663MOL0     C89412   0.864  11.467  -0.213  0.2073  0.2428 -0.0649
  663MOL0     C89413   0.749  11.471  -0.314  0.3266  0.1833 -0.5316
  663MOL0     C89414   0.625  11.548  -0.257 -0.8045 -0.6150  0.7661
  663MOL0    Cl89415   0.478  11.518  -0.348 -0.0225  0.4477 -0.1530
  663MOL0     C89416   1.671  11.378  -0.429  0.4785 -0.1081  0.1101
  663MOL0     C89417   1.804  11.387  -0.469  0.2613 -0.0833 -0.7677
  663MOL0     O89418   2.040  11.105  -0.593 -0.7266 -0.7600  0.4312
  663MOL0     C89419   2.308  11.301  -0.476 -0.0153  0.0149  0.3074
  663MOL0     C89420   2.444  11.329  -0.493  0.5767 -0.0690  0.3239
  663MOL0     N89421   3.181  11.079  -0.280  0.5944  0.3445 -0.7732
  663MOL0     N89422   3.306  11.124  -0.262  0.1795 -2.0725 -0.3156
  663MOL0     C89423   4.358  10.858  -0.031  0.3541  0.3385 -0.4997
  663MOL0     C89424   4.477  10.853   0.041  0.3938 -0.2700 -0.2123
  663MOL0     C89425   4.771  10.757   0.337  0.3869  0.0980  0.5710
  663MOL0     C89426   4.866  10.817   0.251  0.0503 -0.3621 -1.2537
  663MOL0     C89427   5.001  10.812   0.285 -0.0221 -0.0592 -1.1790
  663MOL0     C89428   5.034  10.734   0.400  0.1492 -0.1091 -0.2217
  663MOL0     O89429   5.165  10.725   0.446  0.0382 -0.3509  0.1275
  663MOL0     C89430   5.272  10.785   0.377 -0.1885 -0.2817  0.1107
  663MOL0     C89431   5.400  10.723   0.426  0.0509 -0.3525 -0.3764
  663MOL0     C89432   5.475  10.823   0.525  0.2207  0.5491 -1.2736
  663MOL0     C89433   5.604  10.771   0.594 -1.1311 -0.3947 -0.6222
  663MOL0     C89434   5.574  10.668   0.690  0.5626  0.4971  0.2151
  663MOL0     C89435   5.545  10.593   0.781 -0.6034 -0.8435  0.4821
  663MOL0     C89436   4.939  10.671   0.482 -0.3363 -0.2299  0.7064
  663MOL0     C89437   4.806  10.667   0.442 -0.6741  0.4734  1.2838
  663MOL0     H89438   4.343  10.877   0.360  3.9211 -2.2280  0.6529
  663MOL0     H89439   4.120  10.871   0.220  0.7543  1.1505  2.1827
  663MOL0     H89440   3.969  10.707  -0.083  1.5453  0.4353 -0.3921
  663MOL0     H89441   4.029  10.701   0.074  0.3894 -2.8962 -2.3755
  663MOL0     H89442   3.818  10.799   0.068 -2.2215  1.8252 -0.8200
  663MOL0     H89443   3.905  10.950   0.104 -5.7398  2.7935 -2.6493
  663MOL0     H89444   3.751  10.998  -0.018  1.2213  2.0712 -1.0791
  663MOL0     H89445   3.891  11.026  -0.107  0.2688  0.2564 -0.0067
  663MOL0     H89446   3.834  10.776  -0.202  0.7739  0.0404  2.6187
  663MOL0     H89447   3.668  10.827  -0.146 -0.5689  0.5155 -0.4557
  663MOL0     H89448   3.825  10.983  -0.349 -0.5559  1.8918 -0.4788
  663MOL0     H89449   3.714  10.850  -0.389  1.8403  1.0148 -0.9417
  663MOL0     H89450   3.544  10.970  -0.254 -0.2871  2.0848  0.6109
  663MOL0     H89451   3.650  11.106  -0.221  1.7677 -0.3180 -0.3200
  663MOL0     H89452   3.687  11.147  -0.461 -1.0000 -0.7600 -0.5065
  663MOL0     H89453   3.577  11.021  -0.503 -0.3905  0.4701 -1.2142
  663MOL0     H89454   3.499  11.249  -0.520  2.5709 -0.4492  0.4176
  663MOL0     H89455   3.508  11.260  -0.338  0.4397 -1.3787  1.4334
  663MOL0     H89456   3.271  11.071  -0.588 -0.9636  0.1895  0.1710
  663MOL0     H89457   3.044  10.956  -0.576 -1.1647  0.2854 -0.2996
  663MOL0     H89458   2.978  10.930  -0.408 -0.6668  1.4123  0.9829
  663MOL0     H89459   2.998  11.190  -0.559  1.0444 -0.5496 -0.0508
  663MOL0     H89460   2.912  11.171  -0.408  0.5219  0.0029  0.1375
  663MOL0     H89461   2.751  11.014  -0.508 -1.0158  0.8593 -0.5733
  663MOL0     H89462   2.842  10.991  -0.657  0.4191  4.1624 -3.7502
  663MOL0     H89463   2.675  11.140  -0.720 -1.2062  0.8643  1.0454
  663MOL0     H89464   2.813  11.246  -0.700 -1.0989  3.5491  1.4145
  663MOL0     H89465   2.526  11.036  -0.642 -0.7510 -1.7919  2.7029
  663MOL0     H89466   2.225  10.922  -0.576 -1.0259 -0.8242 -1.1820
  663MOL0     H89467   2.213  10.971  -0.748 -1.5300 -1.6475  1.3250
  663MOL0     H89468   2.364  10.907  -0.688  0.4005 -0.3486  0.0256
  663MOL0     H89469   1.911  11.086  -0.360 -1.3949  0.0729 -0.4835
  663MOL0     H89470   1.677  11.062  -0.298 -1.4204  1.4227  2.1212
  663MOL0     H89471   1.433  11.108  -0.200  0.0908 -0.8636  2.2484
  663MOL0     H89472   1.542  11.234  -0.130 -2.7552  2.3883  1.7884
  663MOL0     H89473   1.319  11.280  -0.045 -0.9632 -2.1078 -0.1125
  663MOL0     H89474   1.360  11.403  -0.181  1.9904 -1.6860 -2.1511
  663MOL0     H89475   1.178  11.169  -0.221  1.3077 -0.2238  3.3190
  663MOL0     H89476   1.216  11.294  -0.337 -3.3685 -0.6135 -0.6784
  663MOL0     H89477   1.057  11.322  -0.080  1.8716 -2.6322 -0.5734
  663MOL0     H89478   1.140  11.458  -0.152 -0.4496  0.1064 -1.9449
  663MOL0     H89479   0.935  11.284  -0.297  0.7920  0.5736  1.2741
  663MOL0     H89480   1.003  11.422  -0.371  2.3897  0.2777 -0.0891
  663MOL0     H89481   0.823  11.410  -0.130  1.9998  0.0167  0.7186
  663MOL0     H89482   0.900  11.564  -0.177 -1.1312  1.9969 -3.0545
  663MOL0     H89483   0.719  11.367  -0.332  0.8719  0.0467 -0.6753
  663MOL0     H89484   0.784  11.511  -0.410 -0.9191  0.1961 -1.0023
  663MOL0     H89485   0.651  11.652  -0.240  1.6280 -1.0647  0.1377
  663MOL0     H89486   0.616  11.505  -0.157 -0.4206  0.4661  1.2689
  663MOL0     H89487   1.595  11.452  -0.447 -0.2325 -0.8697 -0.0586
  663MOL0     H89488   1.827  11.478  -0.523 -0.7072  0.4434 -0.3124
  663MOL0     H89489   2.255  11.379  -0.421 -1.7610 -0.5576 -0.5149
  663MOL0     H89490   2.496  11.410  -0.441  1.8804 -0.4566 -0.3238
  663MOL0     H89491   4.357  10.869  -0.139  1.3867  1.6536 -0.3973
  663MOL0     H89492   4.568  10.846  -0.017 -1.4901 -0.4071 -3.3665
  663MOL0     H89493   4.836  10.865   0.159 -0.6890  4.5049  1.1629
  663MOL0     H89494   5.086  10.835   0.222  1.8652  1.3452  1.6624
  663MOL0     H89495   5.261  10.762   0.270 -1.6042  0.3427  0.1029
  663MOL0     H89496   5.270  10.893   0.394  1.4801 -0.6403  3.2163
  663MOL0     H89497   5.461  10.701   0.337 -0.4721 -0.1502 -0.7903
  663MOL0     H89498   5.372  10.632   0.478  2.0803 -0.5905  0.4072
  663MOL0     H89499   5.415  10.864   0.606  1.2354 -1.4324  0.5927
  663MOL0     H89500   5.501  10.911   0.467  0.2040  1.4791  0.0889
  663MOL0     H89501   5.647  10.854   0.653  2.6474 -1.4827 -1.5319
  663MOL0     H89502   5.688  10.738   0.531  0.0054 -2.5379  1.8221
  663MOL0     H89503   5.515  10.517   0.850  3.2408 -3.2318 -0.2024
  663MOL0     H89504   4.985  10.626   0.570  0.5447  2.9530  2.0059
  663MOL0     H89505   4.727  10.616   0.496 -1.4854  0.3345  0.0092
  664MOL0     O89506   6.241   1.021  10.778 -0.2800 -0.4298  0.0966
  664MOL0     C89507   6.282   1.133  10.793 -0.1330 -0.0357  0.8928
  664MOL0     O89508   6.212   1.242  10.770 -0.5768  0.6517 -0.2402
  664MOL0     C89509   6.077   1.231  10.756 -0.3197  0.8392 -1.4078
  664MOL0     C89510   5.994   1.261  10.865 -0.1587  0.4438 -0.4302
  664MOL0     C89511   5.859   1.276  10.847  0.0128  0.1364  0.9448
  664MOL0     C89512   5.799   1.244  10.723  0.4190  0.0974 -0.3212
  664MOL0     O89513   5.662   1.246  10.721 -0.9806  0.1141  0.1196
  664MOL0     C89514   5.596   1.219  10.598  0.2612  0.1570 -0.3901
  664MOL0     C89515   5.448   1.252  10.601 -0.4012 -0.5175  0.3377
  664MOL0     C89516   5.373   1.149  10.672  0.3182  0.1769 -1.1285
  664MOL0     C89517   5.223   1.194  10.704  0.4531  0.6376 -0.1957
  664MOL0     C89518   5.116   1.071  10.704 -0.1722  0.4974 -0.0209
  664MOL0     C89519   4.976   1.136  10.701 -0.0008 -0.4457  0.2275
  664MOL0     C89520   4.856   1.038  10.710 -0.2757 -0.1788  0.6842
  664MOL0     C89521   4.733   1.117  10.729  0.1586  0.1537  0.1753
  664MOL0     N89522   4.622   1.068  10.649 -0.3500 -0.2350  0.7680
  664MOL0     C89523   4.570   1.122  10.532 -0.5355 -0.3847  0.2940
  664MOL0     C89524   4.456   1.050  10.504  0.1567 -0.7520 -0.8546
  664MOL0     C89525   4.359   1.089  10.395 -0.3360 -0.3753 -0.1048
  664MOL0     C89526   4.328   0.972  10.311 -0.5491 -0.1666 -0.0550
  664MOL0     C89527   4.278   1.006  10.169 -0.4298 -0.4303  1.0884
  664MOL0     C89528   4.141   1.069  10.162 -0.6801 -0.8309 -0.0669
  664MOL0     O89529   4.049   0.992  10.228 -0.1266  0.3586 -0.7356
  664MOL0     C89530   3.923   1.021  10.221 -0.1578  0.1840  0.4406
  664MOL0     C89531   3.877   1.117  10.125  0.6258 -0.4722 -0.8239
  664MOL0     C89532   3.733   1.139  10.112  0.9737  0.0221  0.6721
  664MOL0     C89533   3.684   1.245  10.004  0.7954 -0.1760  0.0874
  664MOL0     C89534   3.639   1.088  10.204 -0.1199 -0.2605  0.4802
  664MOL0     C89535   3.485   1.112  10.205 -0.5924  0.8203  0.2021
  664MOL0     O89536   3.422   1.045  10.303  0.2134 -0.0354 -0.6778
  664MOL0     C89537   3.292   1.074  10.347 -0.7529 -0.6514 -0.1914
  664MOL0     C89538   3.279   1.013  10.470  0.1002  0.2612  0.4801
  664MOL0     C89539   3.157   1.024  10.536  0.0745 -0.0222  0.4733
  664MOL0     C89540   3.049   1.082  10.475 -0.5873 -0.2308  0.8561
  664MOL0     O89541   2.934   1.085  10.549 -0.1194 -0.7545 -0.4842
  664MOL0     C89542   2.803   1.123  10.496  0.1247  0.0818 -0.2894
  664MOL0     C89543   2.698   1.088  10.602  0.3084 -0.9485 -0.2275
  664MOL0     C89544   2.554   1.082  10.544  0.5961 -0.3800 -0.2721
  664MOL0     C89545   2.497   1.218  10.501 -1.0445  1.0449  0.1268
  664MOL0     C89546   2.347   1.229  10.521 -0.8935  0.6832 -0.0791
  664MOL0     C89547   2.308   1.266  10.665  0.6553  0.0821 -1.2650
  664MOL0     C89548   2.157   1.265  10.681  1.1567 -0.4951 -0.0635
  664MOL0     C89549   2.121   1.342  10.801 -0.1636  0.7055 -0.6239
  664MOL0    Cl89550   1.951   1.307  10.862  0.0290  0.6797  0.2024
  664MOL0     C89551   3.064   1.133  10.348  0.0682  0.9182  0.1100
  664MOL0     C89552   3.184   1.127  10.278 -0.3739 -0.5856  0.5520
  664MOL0     O89553   3.429   1.178  10.126  0.1217 -0.5935 -0.0450
  664MOL0     C89554   3.694   0.988  10.292 -0.2381 -0.3135 -0.0553
  664MOL0     C89555   3.830   0.953  10.295  0.5721  0.8524 -0.0349
  664MOL0     N89556   4.431   0.971  10.621  0.1896  0.8909 -0.1508
  664MOL0     N89557   4.530   0.990  10.709  0.1915 -0.3943  0.1777
  664MOL0     C89558   5.880   1.200  10.619 -0.1988 -0.5222  0.2092
  664MOL0     C89559   6.020   1.199  10.632 -0.2739  0.4905  0.5064
  664MOL0     C89560   6.423   1.132  10.822 -0.4067  0.8560 -0.2168
  664MOL0     C89561   6.506   1.011  10.812  0.7691  0.8027 -0.5575
  664MOL0     C89562   6.643   1.010  10.848  0.0214 -0.2385 -0.4387
  664MOL0     C89563   6.707   1.137  10.867  0.1713  0.4500 -0.4664
  664MOL0     O89564   6.842   1.148  10.893  0.3319  0.9176  0.0122
  664MOL0     C89565   6.922   1.030  10.904  0.1753 -0.4545  0.1301
  664MOL0     C89566   7.073   1.048  10.886 -0.2721  0.0610  0.4937
  664MOL0     C89567   7.134   1.163  10.971 -0.0648 -0.1506  0.2676
  664MOL0     C89568   7.277   1.138  11.013  0.4245  0.8695 -0.1405
  664MOL0     C89569   7.372   1.111  10.901 -0.6538  0.5031 -0.2161
  664MOL0     C89570   7.459   1.080  10.817  0.0725  0.5664  0.4289
  664MOL0     C89571   6.625   1.250  10.863 -0.1953 -0.0599 -1.1830
  664MOL0     C89572   6.493   1.248  10.848  0.1572 -0.0829 -0.4668
  664MOL0     H89573   6.030   1.278  10.965 -1.3575 -0.7403  0.2373
  664MOL0     H89574   5.800   1.316  10.929  1.0236  2.1266  0.7585
  664MOL0     H89575   5.635   1.273  10.511  2.6807  0.7049  0.9561
  664MOL0     H89576   5.611   1.111  10.588 -0.9011 -0.2799  1.9274
  664MOL0     H89577   5.443   1.356  10.636  1.2986  0.3699 -1.8548
  664MOL0     H89578   5.408   1.240  10.500 -3.3247  1.2546  1.1570
  664MOL0     H89579   5.381   1.056  10.616  4.7519 -0.6348  0.4051
  664MOL0     H89580   5.420   1.126  10.768 -1.1111  1.2312 -0.1266
  664MOL0     H89581   5.214   1.261  10.790 -2.7101 -0.1444  0.2121
  664MOL0     H89582   5.191   1.259  10.622  0.2023 -2.2684 -2.5803
  664MOL0     H89583   5.141   1.009  10.617  0.9509  0.2821  0.4422
  664MOL0     H89584   5.121   1.009  10.794 -2.8295 -2.3428 -1.6074
  664MOL0     H89585   4.975   1.203  10.787 -1.2187 -0.4946  0.2694
  664MOL0     H89586   4.965   1.194  10.609  3.3412 -0.0818 -0.0808
  664MOL0     H89587   4.868   0.986  10.614  2.0901  2.5857 -0.6643
  664MOL0     H89588   4.870   0.972  10.796 -5.3399  1.3417  3.0345
  664MOL0     H89589   4.750   1.224  10.716 -2.5720  0.7587  0.7863
  664MOL0     H89590   4.714   1.117  10.837  2.3622  0.7680  0.6133
  664MOL0     H89591   4.608   1.208  10.477 -2.6688  1.5866  1.6902
  664MOL0     H89592   4.283   1.159  10.432 -0.3441  0.4048 -1.4996
  664MOL0     H89593   4.424   1.151  10.332 -1.1818  0.1354 -0.4906
  664MOL0     H89594   4.269   0.892  10.357 -1.4582 -0.7201 -2.0536
  664MOL0     H89595   4.423   0.921  10.288 -1.1475 -2.4024  1.9357
  664MOL0     H89596   4.277   0.912  10.113  0.9069  0.6707 -0.9341
  664MOL0     H89597   4.348   1.072  10.116 -1.4307  0.1406  0.4449
  664MOL0     H89598   4.120   1.073  10.054 -1.4764  0.2041  0.1151
  664MOL0     H89599   4.153   1.164  10.215  0.9513 -0.6994 -0.6120
  664MOL0     H89600   3.945   1.178  10.066  1.9524 -1.3024 -0.2033
  664MOL0     H89601   3.649   1.335  10.055 -3.8390 -1.0072 -1.0841
  664MOL0     H89602   3.760   1.276   9.932  0.2104  0.7783 -0.1356
  664MOL0     H89603   3.591   1.209   9.958 -0.3458 -0.1201  2.2115
  664MOL0     H89604   3.365   0.972  10.522  0.8792  0.1408 -0.8598
  664MOL0     H89605   3.150   0.992  10.639 -0.8882  3.9509  1.8186
  664MOL0     H89606   2.805   1.227  10.461 -0.3679  0.3688  0.4851
  664MOL0     H89607   2.791   1.058  10.410 -0.3526  2.5354 -2.2043
  664MOL0     H89608   2.720   0.984  10.626 -1.2685 -1.4870 -0.9513
  664MOL0     H89609   2.708   1.158  10.685  0.2148 -0.6356 -0.4799
  664MOL0     H89610   2.476   1.025  10.595  0.4392 -0.0313 -0.1143
  664MOL0     H89611   2.564   1.022  10.453 -1.1803 -2.8126  1.0338
  664MOL0     H89612   2.543   1.299  10.559 -1.2160  1.2480 -0.0213
  664MOL0     H89613   2.521   1.239  10.397 -1.4519  1.1543  0.0535
  664MOL0     H89614   2.297   1.136  10.492  0.2657  0.4582 -1.5059
  664MOL0     H89615   2.308   1.303  10.450 -1.5153 -0.2508 -0.7373
  664MOL0     H89616   2.360   1.202  10.736 -0.6678 -2.3797 -2.3997
  664MOL0     H89617   2.346   1.367  10.686  1.1891 -0.2713 -0.5192
  664MOL0     H89618   2.116   1.165  10.694 -2.3523  0.7783 -0.2208
  664MOL0     H89619   2.114   1.312  10.592  1.3300  0.9370  0.5871
  664MOL0     H89620   2.137   1.449  10.783  0.4247  0.3273 -2.5272
  664MOL0     H89621   2.188   1.305  10.879  1.2637  0.1459 -2.0769
  664MOL0     H89622   2.980   1.182  10.300 -1.8557 -0.8024  1.5537
  664MOL0     H89623   3.189   1.175  10.181  1.0392 -0.5558  0.6161
  664MOL0     H89624   3.620   0.933  10.349 -2.6817  1.6715 -1.0900
  664MOL0     H89625   3.858   0.868  10.356  0.3245 -0.5422 -1.7639
  664MOL0     H89626   5.849   1.169  10.519  3.4936  0.5666 -1.4621
  664MOL0     H89627   6.090   1.176  10.552  1.0274 -0.9324  1.9719
  664MOL0     H89628   6.470   0.912  10.786 -0.3963  1.1027 -0.1237
  664MOL0     H89629   6.704   0.920  10.844 -1.3715 -1.1802 -1.3851
  664MOL0     H89630   6.902   0.978  10.997 -0.5046 -0.3720  0.0313
  664MOL0     H89631   6.899   0.969  10.816 -1.5849 -0.1254  0.3328
  664MOL0     H89632   7.096   1.073  10.782  0.1144 -1.7783  0.1085
  664MOL0     H89633   7.122   0.955  10.916  2.6926  1.1277 -0.6645
  664MOL0     H89634   7.080   1.167  11.067 -0.8716 -0.8614 -0.1373
  664MOL0     H89635   7.129   1.259  10.920  1.0634 -0.9785 -1.4922
  664MOL0     H89636   7.291   1.054  11.082  1.0624  0.7761 -0.3806
  664MOL0     H89637   7.313   1.226  11.067  3.9608 -0.2885 -0.4123
  664MOL0     H89638   7.537   1.054  10.748  0.2919  0.4807  0.7086
  664MOL0     H89639   6.677   1.345  10.866  1.9902 -1.1455  1.8843
  664MOL0     H89640   6.449   1.347  10.843  0.5236  0.0751 -0.6485
  665MOL0     O89641   7.490   7.605  10.436  0.1061  0.2451 -0.0284
  665MOL0     C89642   7.566   7.699  10.392 -0.8487 -0.2041  0.0086
  665MOL0     O89643   7.513   7.817  10.337 -0.6205 -0.4382 -0.6277
  665MOL0     C89644   7.379   7.824  10.324  0.8846 -0.4342  0.1440
  665MOL0     C89645   7.335   7.869  10.193  0.3627  0.5533 -0.1916
  665MOL0     C89646   7.196   7.891  10.178 -0.0441  0.0744  1.0294
  665MOL0     C89647   7.109   7.875  10.282  0.5115 -0.7338 -0.0829
  665MOL0     O89648   6.975   7.909  10.276  0.6306 -0.0937  0.7771
  665MOL0     C89649   6.908   7.914  10.151  0.5106 -0.3647 -0.0526
  665MOL0     C89650   6.756   7.978  10.165 -0.3901 -0.5123 -0.1073
  665MOL0     C89651   6.686   7.996  10.031 -0.1192  0.1913 -0.3806
  665MOL0     C89652   6.556   8.069  10.078  0.0514 -0.1639 -0.3852
  665MOL0     C89653   6.447   8.104   9.971 -0.1489  0.7897 -0.1744
  665MOL0     C89654   6.306   8.148  10.014 -0.2789  0.1642 -0.6633
  665MOL0     C89655   6.288   8.240  10.138 -0.6992 -0.3075 -0.7131
  665MOL0     C89656   6.145   8.278  10.161 -0.1334 -0.1376 -0.3178
  665MOL0     N89657   6.075   8.167  10.235 -0.4672  1.1101  0.4470
  665MOL0     C89658   6.007   8.069  10.161 -0.4521 -1.0300  0.8309
  665MOL0     C89659   5.936   8.000  10.245 -0.2424 -0.6880  0.0509
  665MOL0     C89660   5.837   7.890  10.206  0.4509 -0.3504  0.8130
  665MOL0     C89661   5.703   7.915  10.277 -0.2217 -0.3282  0.3622
  665MOL0     C89662   5.601   7.812  10.231 -0.5475  0.1214  0.8410
  665MOL0     C89663   5.465   7.837  10.297  0.1161  0.1001 -0.1153
  665MOL0     O89664   5.402   7.939  10.224  0.5207 -0.2839 -0.0272
  665MOL0     C89665   5.294   7.999  10.285 -0.1864 -0.0699  0.4113
  665MOL0     C89666   5.255   8.129  10.248  0.7938 -0.5788  0.0381
  665MOL0     C89667   5.142   8.190  10.298 -0.2008 -0.1065  0.2533
  665MOL0     C89668   5.129   8.335  10.242  0.8135  0.3404  0.8593
  665MOL0     C89669   5.056   8.120  10.389  0.3441 -0.8256 -0.8541
  665MOL0     C89670   4.929   8.184  10.437 -0.1692 -0.3754 -0.9459
  665MOL0     O89671   4.868   8.266  10.349  0.5006  0.7380 -0.1062
  665MOL0     C89672   4.743   8.318  10.392  0.1556 -0.1133  0.4621
  665MOL0     C89673   4.639   8.309  10.297  1.1180 -0.7948 -0.3646
  665MOL0     C89674   4.525   8.379  10.317  0.4810  0.2545  0.2235
  665MOL0     C89675   4.502   8.463  10.425  0.0924 -0.1878 -0.4546
  665MOL0     O89676   4.381   8.527  10.436  0.8475  0.7190 -0.1315
  665MOL0     C89677   4.348   8.593  10.554 -0.0274 -0.4028  0.1734
  665MOL0     C89678   4.389   8.740  10.535 -0.7940 -0.2783 -0.6654
  665MOL0     C89679   4.276   8.853  10.520  0.7029  0.2914  0.4018
  665MOL0     C89680   4.207   8.893  10.651 -0.4607  0.3546  0.0835
  665MOL0     C89681   4.091   8.985  10.646 -0.2186  0.4945  0.4018
  665MOL0     C89682   4.129   9.123  10.610 -0.9290  0.0178  0.3409
  665MOL0     C89683   4.004   9.210  10.629  0.4865 -0.1096  0.1999
  665MOL0     C89684   4.030   9.356  10.602 -0.0998 -0.9058  0.6684
  665MOL0    Cl89685   3.877   9.428  10.608  0.1201 -0.2252 -0.5145
  665MOL0     C89686   4.610   8.485  10.511 -0.3982 -0.0079 -0.5314
  665MOL0     C89687   4.728   8.409  10.498  0.1415 -0.2855  0.7082
  665MOL0     O89688   4.884   8.143  10.548  0.0944  0.3088  0.1919
  665MOL0     C89689   5.096   7.991  10.428 -0.4066 -0.0051  0.6694
  665MOL0     C89690   5.212   7.930  10.378 -0.4296 -0.2591 -0.3025
  665MOL0     N89691   5.956   8.055  10.369 -0.1077  0.0887 -1.0779
  665MOL0     N89692   6.036   8.157  10.366 -0.0283  0.9144  0.4194
  665MOL0     C89693   7.152   7.827  10.405  0.9259  0.1630 -0.5539
  665MOL0     C89694   7.284   7.797  10.426  1.0263  0.7045 -0.3778
  665MOL0     C89695   7.707   7.705  10.432 -0.3171 -0.4069  0.1951
  665MOL0     C89696   7.765   7.604  10.510 -0.8739  0.0991  0.0764
  665MOL0     C89697   7.903   7.609  10.553 -0.6571  0.2295 -0.2116
  665MOL0     C89698   7.981   7.713  10.506  0.0811  0.1917  0.9781
  665MOL0     O89699   8.108   7.721  10.560  0.1704  0.5588  1.1332
  665MOL0     C89700   8.164   7.856  10.570 -0.3754 -1.3638  0.6107
  665MOL0     C89701   8.279   7.851  10.677 -0.0533  0.8463 -0.8023
  665MOL0     C89702   8.408   7.789  10.606 -0.1212 -0.7951 -0.8844
  665MOL0     C89703   8.531   7.777  10.704 -0.3575 -0.1280 -0.1257
  665MOL0     C89704   8.645   7.737  10.619  0.2098  0.4328  0.0943
  665MOL0     C89705   8.749   7.699  10.570 -0.3131  0.0812  0.2162
  665MOL0     C89706   7.934   7.807  10.415  0.1536  0.6390 -0.5267
  665MOL0     C89707   7.798   7.806  10.385 -0.3172  0.3637 -0.1310
  665MOL0     H89708   7.408   7.891  10.116 -0.8565  1.0604 -1.2346
  665MOL0     H89709   7.173   7.924  10.077 -0.2482  0.2933  1.1470
  665MOL0     H89710   6.963   7.993  10.099  0.1988 -0.3656 -0.3837
  665MOL0     H89711   6.901   7.817  10.100 -0.2882  0.6144 -1.8911
  665MOL0     H89712   6.701   7.913  10.234 -0.9039  0.5701  0.5320
  665MOL0     H89713   6.771   8.072  10.219  0.7264 -0.4516 -0.4872
  665MOL0     H89714   6.755   8.054   9.970  0.8052 -1.3430 -0.8293
  665MOL0     H89715   6.666   7.898   9.987  1.0854 -0.8100  1.2035
  665MOL0     H89716   6.504   7.994  10.138  0.5805 -0.7357 -0.6323
  665MOL0     H89717   6.580   8.163  10.130 -1.6565 -0.0940  0.3516
  665MOL0     H89718   6.485   8.175   9.897  2.9511 -1.8885 -1.3896
  665MOL0     H89719   6.435   8.010   9.916  0.5794  0.9446 -0.6074
  665MOL0     H89720   6.258   8.204   9.933 -0.6276  1.4851  0.4263
  665MOL0     H89721   6.254   8.055  10.036  2.3882 -1.3454 -0.3131
  665MOL0     H89722   6.332   8.187  10.223  0.1706 -0.8532 -1.5019
  665MOL0     H89723   6.337   8.336  10.119 -0.5750 -0.4255 -0.9807
  665MOL0     H89724   6.085   8.305  10.073 -3.5225  1.5050  2.2739
  665MOL0     H89725   6.138   8.367  10.224  1.0103  0.7429 -1.3850
  665MOL0     H89726   6.009   8.055  10.054  0.7421  4.1867 -0.1046
  665MOL0     H89727   5.834   7.899  10.097  2.9000 -1.2232  0.6245
  665MOL0     H89728   5.875   7.790  10.227  0.4119 -0.6026 -0.3052
  665MOL0     H89729   5.668   8.017  10.258 -1.9774 -1.2422 -1.7677
  665MOL0     H89730   5.696   7.913  10.386  1.0408  4.0343  0.6789
  665MOL0     H89731   5.631   7.715  10.270 -0.9162  0.6148  2.4423
  665MOL0     H89732   5.598   7.813  10.122 -0.2018  0.2059  0.8326
  665MOL0     H89733   5.475   7.870  10.400  2.2809  3.0721 -1.1469
  665MOL0     H89734   5.402   7.747  10.291  0.4101 -0.0231 -2.1375
  665MOL0     H89735   5.312   8.185  10.175 -1.5996  4.3718  1.4844
  665MOL0     H89736   5.107   8.405  10.323 -0.7253  1.9755 -0.8757
  665MOL0     H89737   5.218   8.370  10.189 -0.4941  2.2282 -0.2071
  665MOL0     H89738   5.049   8.341  10.168  1.1156  1.5815  0.6045
  665MOL0     H89739   4.662   8.260  10.203  3.5280  0.2301 -0.3808
  665MOL0     H89740   4.442   8.369  10.248 -0.2161 -0.7378  1.1759
  665MOL0     H89741   4.243   8.588  10.587 -0.0961 -1.6564 -0.1863
  665MOL0     H89742   4.405   8.561  10.641 -0.9214 -0.9083  0.5840
  665MOL0     H89743   4.448   8.772  10.621 -1.1539 -0.2135 -0.4407
  665MOL0     H89744   4.455   8.741  10.447 -1.8108 -1.8963 -1.4929
  665MOL0     H89745   4.198   8.811  10.456  2.4647 -1.6762 -0.6125
  665MOL0     H89746   4.318   8.940  10.470  1.4952 -0.6912 -0.7009
  665MOL0     H89747   4.177   8.801  10.702  1.2528 -0.9134 -1.1024
  665MOL0     H89748   4.289   8.929  10.714 -1.3815  0.8684  1.0304
  665MOL0     H89749   4.038   8.978  10.742 -1.0776 -1.2035 -0.1450
  665MOL0     H89750   4.025   8.940  10.571 -0.5046  0.4663  0.6661
  665MOL0     H89751   4.207   9.157  10.678 -1.2233 -1.6566  1.5760
  665MOL0     H89752   4.151   9.113  10.503 -2.4493  1.3171 -0.1319
  665MOL0     H89753   3.979   9.212  10.735  0.3153  0.9859  0.1492
  665MOL0     H89754   3.929   9.183  10.554 -0.9700  1.1063  1.1757
  665MOL0     H89755   4.082   9.369  10.507 -1.3823  2.2457  0.2751
  665MOL0     H89756   4.093   9.404  10.677  1.5155 -0.9548 -0.5937
  665MOL0     H89757   4.606   8.567  10.582 -1.4264  1.5324 -2.2756
  665MOL0     H89758   4.809   8.424  10.569  1.3655  0.4061 -0.7631
  665MOL0     H89759   5.037   7.931  10.497 -1.3026  0.2450  0.1249
  665MOL0     H89760   5.231   7.824  10.393 -0.3441 -0.2099 -0.0477
  665MOL0     H89761   7.076   7.814  10.481  2.7262 -0.1559  1.3031
  665MOL0     H89762   7.306   7.776  10.530 -0.4972 -2.4288 -0.5593
  665MOL0     H89763   7.712   7.525  10.561  0.7993  0.3849  2.4396
  665MOL0     H89764   7.942   7.528  10.613 -1.5028  0.2478  0.3844
  665MOL0     H89765   8.195   7.899  10.475 -1.6829  0.0610  0.7938
  665MOL0     H89766   8.090   7.931  10.597  1.9447  1.4372 -0.3457
  665MOL0     H89767   8.251   7.795  10.766  1.0518 -0.9959 -1.5502
  665MOL0     H89768   8.297   7.955  10.708  0.9711 -0.1873  2.4609
  665MOL0     H89769   8.445   7.863  10.534 -1.0049  0.1002 -0.4579
  665MOL0     H89770   8.391   7.695  10.554  0.3385 -0.8797 -0.8815
  665MOL0     H89771   8.524   7.704  10.786  3.0837 -1.6662 -1.0630
  665MOL0     H89772   8.552   7.875  10.747 -0.8709 -0.3143  0.5821
  665MOL0     H89773   8.841   7.660  10.531 -0.6978  1.3835 -2.1850
  665MOL0     H89774   8.004   7.887  10.394  2.3299 -0.4506  1.9297
  665MOL0     H89775   7.753   7.885  10.326  0.1205  0.5788 -0.1749
  666MOL0     O89776   7.977   9.965   6.723  0.2658  0.4610 -0.3397
  666MOL0     C89777   8.057   9.890   6.671  0.8170  0.4268  0.2429
  666MOL0     O89778   8.041   9.756   6.650 -0.1886  0.3637 -0.4904
  666MOL0     C89779   7.928   9.686   6.682  0.1402 -0.1456  0.3777
  666MOL0     C89780   7.828   9.716   6.777 -0.3175 -0.3422  0.4078
  666MOL0     C89781   7.730   9.622   6.815  0.1942  0.0905 -1.2130
  666MOL0     C89782   7.724   9.497   6.747  0.4726  0.1772  0.0864
  666MOL0     O89783   7.624   9.408   6.793 -0.0480 -0.3997 -0.7923
  666MOL0     C89784   7.567   9.331   6.686 -0.1634  0.2113  0.4556
  666MOL0     C89785   7.455   9.405   6.613 -0.3551 -0.6232  0.0729
  666MOL0     C89786   7.324   9.400   6.698  0.3094 -0.4032  0.5092
  666MOL0     C89787   7.264   9.544   6.687  0.6744 -0.3751 -1.0286
  666MOL0     C89788   7.142   9.554   6.788  0.1707  0.0691 -0.0902
  666MOL0     C89789   7.028   9.642   6.740 -0.2105  0.2568 -0.2543
  666MOL0     C89790   7.058   9.794   6.755  0.6656  1.3144 -0.7794
  666MOL0     C89791   6.937   9.869   6.697 -0.8923  0.5680  0.1105
  666MOL0     N89792   6.966  10.010   6.671  0.3407 -0.6628  0.4483
  666MOL0     C89793   7.017  10.070   6.556  0.2865  0.6040 -1.1419
  666MOL0     C89794   7.023  10.201   6.582 -0.3994 -0.3296  0.0018
  666MOL0     C89795   7.056  10.305   6.475 -0.1477 -0.2184 -0.7410
  666MOL0     C89796   7.198  10.311   6.428 -0.3409 -0.3575  0.4848
  666MOL0     C89797   7.220  10.431   6.335 -0.7110 -0.6985 -0.4359
  666MOL0     C89798   7.362  10.429   6.282 -0.1232 -0.8070  0.3874
  666MOL0     O89799   7.456  10.370   6.369 -0.5896 -0.6052 -0.1127
  666MOL0     C89800   7.590  10.375   6.342  0.4934  0.6251  0.0544
  666MOL0     C89801   7.668  10.314   6.441  0.2720  0.5955 -0.1124
  666MOL0     C89802   7.801  10.282   6.419  0.4252 -0.6314 -0.2229
  666MOL0     C89803   7.875  10.220   6.536 -0.1219  0.2555  0.8270
  666MOL0     C89804   7.870  10.331   6.309 -0.3480 -0.1053 -0.1727
  666MOL0     C89805   8.015  10.307   6.281 -0.3675 -0.4409 -1.0783
  666MOL0     O89806   8.054  10.333   6.155  0.4210 -0.5211 -0.7794
  666MOL0     C89807   8.187  10.324   6.114 -0.5515 -0.5690  0.2625
  666MOL0     C89808   8.276  10.220   6.145 -0.6331  0.8491 -0.2531
  666MOL0     C89809   8.406  10.227   6.095  1.0700  0.4919 -1.4479
  666MOL0     C89810   8.444  10.339   6.028  0.7732  0.4023 -0.1436
  666MOL0     O89811   8.575  10.335   5.986 -0.0217 -0.5745 -0.3596
  666MOL0     C89812   8.616  10.290   5.859 -0.0725 -0.0923 -0.1567
  666MOL0     C89813   8.757  10.241   5.864 -0.2409 -0.5901  0.4346
  666MOL0     C89814   8.848  10.356   5.900  0.2907 -0.8046 -0.1752
  666MOL0     C89815   8.993  10.312   5.891 -0.4707  0.4928  0.6881
  666MOL0     C89816   9.091  10.425   5.949  0.0119  0.0356  0.7105
  666MOL0     C89817   9.234  10.378   5.945 -0.4438  0.0186  0.0776
  666MOL0     C89818   9.340  10.490   5.956  0.0193 -0.2391 -0.0801
  666MOL0     C89819   9.473  10.484   5.878 -0.7287 -0.2495 -0.6983
  666MOL0    Cl89820   9.457  10.450   5.702 -0.2269 -0.2596  0.1660
  666MOL0     C89821   8.363  10.447   5.995  0.6503 -0.5721 -0.9193
  666MOL0     C89822   8.231  10.432   6.045 -0.1815  0.6039  0.0217
  666MOL0     O89823   8.101  10.264   6.368  0.3824 -0.5401 -0.3670
  666MOL0     C89824   7.786  10.404   6.213 -0.4714  0.3035  0.5874
  666MOL0     C89825   7.650  10.426   6.230 -0.6220 -0.9145  0.3168
  666MOL0     N89826   6.969  10.220   6.709 -0.5285  0.3951  0.0073
  666MOL0     N89827   6.942  10.105   6.760  0.6661  0.7375 -0.0478
  666MOL0     C89828   7.816   9.475   6.640 -0.2115  0.1682  1.2638
  666MOL0     C89829   7.916   9.563   6.613  0.5701  0.6552  0.5215
  666MOL0     C89830   8.180   9.947   6.608  0.5256 -0.8627 -0.8060
  666MOL0     C89831   8.192  10.090   6.600 -0.9504  0.1761 -0.5441
  666MOL0     C89832   8.312  10.147   6.539 -0.1221  0.1960 -0.4712
  666MOL0     C89833   8.415  10.066   6.492 -0.4298  0.1440 -0.5919
  666MOL0     O89834   8.531  10.108   6.435 -0.8975 -0.4288  0.3349
  666MOL0     C89835   8.557  10.248   6.407  0.1138 -0.1973 -0.7437
  666MOL0     C89836   8.696  10.254   6.339  0.4944 -0.5840 -0.2160
  666MOL0     C89837   8.817  10.258   6.437 -0.0319 -0.2186 -0.2859
  666MOL0     C89838   8.958  10.241   6.356 -0.0654 -0.2839 -1.1314
  666MOL0     C89839   9.067  10.310   6.431  0.1935  0.3424  0.3965
  666MOL0     C89840   9.160  10.352   6.504  0.6023 -0.2087 -0.0626
  666MOL0     C89841   8.407   9.930   6.511  0.3891  0.5347 -0.2572
  666MOL0     C89842   8.290   9.872   6.574  0.4033  0.2886  0.1116
  666MOL0     H89843   7.833   9.808   6.835 -3.2440  1.4055 -1.8343
  666MOL0     H89844   7.662   9.634   6.899  0.0885  2.2994 -1.5692
  666MOL0     H89845   7.644   9.291   6.618  0.8747  1.7383  0.6734
  666MOL0     H89846   7.525   9.239   6.728 -1.6011  1.2127  1.3058
  666MOL0     H89847   7.481   9.508   6.590 -0.4989 -0.5034  0.4477
  666MOL0     H89848   7.438   9.357   6.516  0.3603  0.3854 -0.5806
  666MOL0     H89849   7.257   9.330   6.647 -1.4389  1.2173  0.4714
  666MOL0     H89850   7.347   9.368   6.800 -0.2464  0.0831  0.7952
  666MOL0     H89851   7.333   9.626   6.709 -1.4912  1.2625 -0.0128
  666MOL0     H89852   7.224   9.548   6.585  0.5563 -1.6059 -1.0489
  666MOL0     H89853   7.091   9.458   6.779 -1.1756  0.6747  0.8508
  666MOL0     H89854   7.175   9.576   6.890 -2.4473  0.9569  0.6513
  666MOL0     H89855   6.992   9.621   6.639 -1.0636 -1.0930  0.3026
  666MOL0     H89856   6.945   9.619   6.807  0.1787  1.7944  0.7931
  666MOL0     H89857   7.080   9.830   6.856 -0.1834 -0.6987  0.1984
  666MOL0     H89858   7.142   9.821   6.691  1.8754 -0.3558  0.0057
  666MOL0     H89859   6.853   9.860   6.767 -0.7522 -0.8214  0.1222
  666MOL0     H89860   6.913   9.835   6.596  0.8557  0.4912 -0.3199
  666MOL0     H89861   7.036  10.019   6.462  0.2223 -0.4726 -0.5806
  666MOL0     H89862   7.001  10.287   6.382 -0.4304  3.1500 -1.3724
  666MOL0     H89863   7.024  10.403   6.513 -1.1571 -0.1003 -1.8385
  666MOL0     H89864   7.221  10.223   6.368 -0.3601 -0.7426  1.0285
  666MOL0     H89865   7.263  10.318   6.516  0.8667 -0.6924 -0.3471
  666MOL0     H89866   7.200  10.527   6.384 -0.3922  1.6018 -4.3557
  666MOL0     H89867   7.147  10.423   6.254 -0.4435  0.9017 -0.8711
  666MOL0     H89868   7.368  10.534   6.252 -2.3395 -0.6328  0.3448
  666MOL0     H89869   7.350  10.367   6.192 -0.9829 -1.5556  1.0042
  666MOL0     H89870   7.622  10.288   6.536 -2.5013  0.7350 -1.3007
  666MOL0     H89871   7.950  10.291   6.573 -1.4080  2.0860  0.0751
  666MOL0     H89872   7.808  10.188   6.617 -1.4142 -0.1927 -0.3763
  666MOL0     H89873   7.924  10.130   6.497 -2.7152 -0.2423 -1.5863
  666MOL0     H89874   8.249  10.130   6.199 -1.5618  2.2851  1.8210
  666MOL0     H89875   8.479  10.151   6.121  0.4331 -0.7698 -3.1498
  666MOL0     H89876   8.557  10.211   5.812  1.6537  1.0514 -4.7860
  666MOL0     H89877   8.605  10.367   5.783 -0.8843 -1.9113 -1.9882
  666MOL0     H89878   8.759  10.164   5.941 -2.7361 -0.2380  0.9075
  666MOL0     H89879   8.777  10.209   5.761  1.0788  1.2224  0.0597
  666MOL0     H89880   8.833  10.382   6.005  0.3614 -2.8333  0.3657
  666MOL0     H89881   8.839  10.442   5.833  0.0360 -0.8526 -0.2062
  666MOL0     H89882   9.013  10.222   5.949 -1.1722 -1.4281 -1.8840
  666MOL0     H89883   9.025  10.290   5.789  3.9353  1.3628  1.6703
  666MOL0     H89884   9.059  10.446   6.052  2.1207  2.0273  1.0436
  666MOL0     H89885   9.068  10.517   5.895  0.6289 -0.3443 -0.2235
  666MOL0     H89886   9.253  10.296   6.016  1.6690 -1.9259 -2.4733
  666MOL0     H89887   9.254  10.342   5.843 -0.1092 -0.5261  0.3307
  666MOL0     H89888   9.362  10.492   6.063 -2.2497 -2.5209  0.5357
  666MOL0     H89889   9.306  10.590   5.928 -2.7308 -1.4421 -1.4416
  666MOL0     H89890   9.546  10.419   5.928 -0.7702  0.9144  0.9306
  666MOL0     H89891   9.515  10.582   5.901 -2.5067 -0.1852  3.0113
  666MOL0     H89892   8.395  10.530   5.933  1.6027 -0.0811  0.1831
  666MOL0     H89893   8.159  10.512   6.025 -1.5166 -1.1105 -2.7350
  666MOL0     H89894   7.831  10.432   6.118 -5.2794  1.2700 -1.7499
  666MOL0     H89895   7.594  10.485   6.159 -0.2565 -1.4695 -0.4538
  666MOL0     H89896   7.809   9.385   6.580 -0.2596  0.6974  0.4576
  666MOL0     H89897   7.981   9.544   6.529 -0.3412 -1.6687  0.2813
  666MOL0     H89898   8.115  10.160   6.631 -1.2252  0.6505 -2.1884
  666MOL0     H89899   8.315  10.253   6.513  2.8218  0.7104  1.4767
  666MOL0     H89900   8.490  10.278   6.326 -1.7327 -1.8606  0.0811
  666MOL0     H89901   8.534  10.303   6.499  0.1406  1.1273 -1.5119
  666MOL0     H89902   8.708  10.344   6.277  2.0583  0.1119  1.0442
  666MOL0     H89903   8.705  10.167   6.273  3.2772  0.4527 -1.3267
  666MOL0     H89904   8.809  10.180   6.514 -0.2971 -0.7159 -0.8099
  666MOL0     H89905   8.818  10.357   6.483 -0.7450 -0.4714  0.2987
  666MOL0     H89906   8.950  10.284   6.255  1.4524 -0.9928 -1.5708
  666MOL0     H89907   8.988  10.138   6.335  4.1986  0.7131 -0.7085
  666MOL0     H89908   9.247  10.375   6.562 -0.3600 -0.1833  1.4454
  666MOL0     H89909   8.489   9.867   6.476  0.8325  0.9166  0.0831
  666MOL0     H89910   8.283   9.763   6.573  0.6603  0.2535 -1.8407
  667MOL0     O89911   0.413  10.429   9.882  0.0193 -0.0279  0.3936
  667MOL0     C89912   0.487  10.390   9.795 -0.0618 -0.3240 -0.2667
  667MOL0     O89913   0.448  10.341   9.675 -0.0579  1.1846 -0.2408
  667MOL0     C89914   0.320  10.293   9.656 -0.8770  0.0218  0.0572
  667MOL0     C89915   0.221  10.258   9.745  0.5104  0.3572  0.1011
  667MOL0     C89916   0.093  10.228   9.699 -1.1874  0.1586 -0.0933
  667MOL0     C89917   0.061  10.234   9.565  0.0834 -0.0757 -0.3068
  667MOL0     O89918  -0.063  10.194   9.510 -0.5722  0.0726 -0.1883
  667MOL0     C89919  -0.165  10.131   9.588 -1.0729 -0.2009  0.2204
  667MOL0     C89920  -0.298  10.103   9.516  0.3666  0.7642 -0.4928
  667MOL0     C89921  -0.406  10.042   9.602  0.3438 -0.5912  0.9446
  667MOL0     C89922  -0.534  10.063   9.527  0.4081  0.9218 -0.5601
  667MOL0     C89923  -0.645  10.071   9.620 -0.0903  0.2474 -0.2122
  667MOL0     C89924  -0.772  10.087   9.539 -0.3030 -0.0982 -0.3082
  667MOL0     C89925  -0.892  10.119   9.631 -0.1482 -0.7113  0.1544
  667MOL0     C89926  -1.022  10.131   9.552 -0.3848 -0.3519 -0.2005
  667MOL0     N89927  -1.118  10.172   9.651 -0.4998  0.2874 -0.6090
  667MOL0     C89928  -1.224  10.095   9.682 -0.3627 -0.0051  0.0267
  667MOL0     C89929  -1.300  10.168   9.761 -0.2188 -1.4906  0.0432
  667MOL0     C89930  -1.412  10.111   9.837  0.6453  1.0501  0.8072
  667MOL0     C89931  -1.551  10.181   9.810  0.4287  1.0955  0.2605
  667MOL0     C89932  -1.670  10.090   9.851 -0.3580  0.1243 -0.6269
  667MOL0     C89933  -1.669  10.060  10.007 -0.7788  0.1704  0.3701
  667MOL0     O89934  -1.681  10.173  10.094  0.4436 -0.6165  0.5859
  667MOL0     C89935  -1.806  10.183  10.148  0.5332  0.2686  0.0950
  667MOL0     C89936  -1.818  10.156  10.290 -0.5448  0.8147  1.4008
  667MOL0     C89937  -1.936  10.145  10.347  0.4226  0.2869  0.5545
  667MOL0     C89938  -1.940  10.134  10.501  0.4132  0.1119  0.0187
  667MOL0     C89939  -2.057  10.177  10.280  0.0325 -0.2777  0.9036
  667MOL0     C89940  -2.188  10.176  10.334  0.1381 -0.3612 -0.0681
  667MOL0     O89941  -2.274  10.258  10.272  0.0446 -0.2088 -0.1483
  667MOL0     C89942  -2.406  10.241  10.308  0.3508 -0.4121 -0.5899
  667MOL0     C89943  -2.458  10.331  10.401 -0.2855  0.1413 -0.6387
  667MOL0     C89944  -2.595  10.347  10.430 -0.6741  0.0707 -0.0473
  667MOL0     C89945  -2.684  10.255  10.382 -0.3417  0.2960  0.5729
  667MOL0     O89946  -2.821  10.253  10.403 -0.3821  0.2043  0.3169
  667MOL0     C89947  -2.854  10.230  10.537 -0.1086 -0.1853  0.8260
  667MOL0     C89948  -2.997  10.280  10.568  0.1293  0.3467 -0.2313
  667MOL0     C89949  -3.101  10.216  10.477  0.1498 -0.5596  0.0008
  667MOL0     C89950  -3.244  10.243  10.525 -0.3748 -0.6045  0.2136
  667MOL0     C89951  -3.274  10.392  10.521  0.9704 -0.6774 -0.4555
  667MOL0     C89952  -3.418  10.417  10.561  0.5715  1.0868 -0.1829
  667MOL0     C89953  -3.478  10.544  10.500 -1.3186  0.0680  0.3326
  667MOL0     C89954  -3.630  10.554  10.540 -0.4727  0.6190 -0.3118
  667MOL0    Cl89955  -3.646  10.540  10.722  0.1176 -0.3215  0.2914
  667MOL0     C89956  -2.627  10.151  10.299  0.0996 -0.5517 -0.7611
  667MOL0     C89957  -2.494  10.150  10.258  0.5975 -0.1005 -0.1059
  667MOL0     O89958  -2.218  10.089  10.410 -0.2914  0.3818 -0.3899
  667MOL0     C89959  -2.047  10.191  10.135  0.2276 -0.4320  0.1997
  667MOL0     C89960  -1.926  10.197  10.077  1.1119 -0.6704  0.1904
  667MOL0     N89961  -1.248  10.298   9.767  0.0574  0.0882  0.0227
  667MOL0     N89962  -1.143  10.303   9.692  0.3416 -0.9399  0.0034
  667MOL0     C89963   0.166  10.262   9.475  0.1498  0.5840  0.1773
  667MOL0     C89964   0.295  10.299   9.520  0.5365 -0.6777 -0.9306
  667MOL0     C89965   0.626  10.421   9.825 -0.8332  0.9382 -0.5040
  667MOL0     C89966   0.724  10.369   9.743 -0.0969 -0.1296 -0.4998
  667MOL0     C89967   0.861  10.392   9.773  0.5357 -0.4386  0.6320
  667MOL0     C89968   0.901  10.464   9.886 -0.4472 -0.3924 -0.5443
  667MOL0     O89969   1.034  10.493   9.897 -0.3516  0.7474  0.7226
  667MOL0     C89970   1.077  10.573  10.002 -0.7523 -0.2175  0.1476
  667MOL0     C89971   1.217  10.635   9.985  0.4444  0.4115  0.4257
  667MOL0     C89972   1.261  10.707   9.852 -0.2964  0.5609 -0.7333
  667MOL0     C89973   1.176  10.824   9.802 -0.3051 -0.2138 -0.0883
  667MOL0     C89974   1.052  10.782   9.742  0.6642  0.5727  0.4210
  667MOL0     C89975   0.940  10.744   9.709  0.3888  0.3763 -0.3567
  667MOL0     C89976   0.796  10.504   9.972  0.7718 -0.5229  0.2431
  667MOL0     C89977   0.665  10.491   9.941 -0.0595 -0.2406  0.3003
  667MOL0     H89978   0.251  10.259   9.849  0.5689 -0.6588  0.1015
  667MOL0     H89979   0.014  10.207   9.770 -0.8583 -1.3394 -0.1299
  667MOL0     H89980  -0.127  10.033   9.619  0.8674  0.9099  1.5283
  667MOL0     H89981  -0.180  10.195   9.676 -0.0614 -0.4137  0.5617
  667MOL0     H89982  -0.325  10.199   9.471 -1.8143  0.6832  0.5555
  667MOL0     H89983  -0.281  10.033   9.433 -0.7878  0.5779 -0.5800
  667MOL0     H89984  -0.393   9.935   9.621 -0.8231 -1.1002 -0.8610
  667MOL0     H89985  -0.421  10.100   9.694 -3.5327  0.6519 -0.2805
  667MOL0     H89986  -0.533  10.147   9.458 -0.4614  0.9918 -0.5056
  667MOL0     H89987  -0.553   9.978   9.461 -1.2020 -0.1527  1.1889
  667MOL0     H89988  -0.648   9.979   9.678  1.5339 -0.0379 -0.5361
  667MOL0     H89989  -0.630  10.153   9.691 -0.8392 -2.5771  3.5002
  667MOL0     H89990  -0.755  10.165   9.464  0.0584  0.7219  0.6039
  667MOL0     H89991  -0.798   9.993   9.490 -2.9075  1.4377 -2.1808
  667MOL0     H89992  -0.901  10.035   9.701 -1.7192 -0.5348  0.1946
  667MOL0     H89993  -0.869  10.205   9.694  3.4317  0.5324 -2.5294
  667MOL0     H89994  -1.051  10.034   9.509  0.2928 -0.6753  0.0551
  667MOL0     H89995  -1.014  10.205   9.472 -0.8050 -0.5107 -0.3888
  667MOL0     H89996  -1.239   9.990   9.659 -0.4232  0.1427 -0.6216
  667MOL0     H89997  -1.410  10.002   9.826 -1.0417  0.9280  1.4159
  667MOL0     H89998  -1.392  10.130   9.943 -0.8682  0.2150  1.2746
  667MOL0     H89999  -1.565  10.206   9.704 -0.7443  1.7500  0.5470
  667MOL0     H90000  -1.556  10.282   9.854  1.1323  1.6381 -0.8592
  667MOL0     H90001  -1.670  10.004   9.784  1.5780  1.7287 -2.8394
  667MOL0     H90002  -1.770  10.128   9.831  0.1392  1.9551  0.1425
  667MOL0     H90003  -1.567  10.026  10.032  0.2438  2.0622 -0.9843
  667MOL0     H90004  -1.740   9.980  10.030  0.8197 -0.3676  4.2596
  667MOL0     H90005  -1.722  10.145  10.340  1.4009  1.0172 -1.9603
  667MOL0     H90006  -1.842  10.123  10.548 -0.6808 -0.3594  2.3356
  667MOL0     H90007  -1.994  10.220  10.542 -0.5711 -0.0262 -0.9286
  667MOL0     H90008  -1.995  10.042  10.523 -1.5618  0.9429 -1.0763
  667MOL0     H90009  -2.379  10.391  10.446 -1.1475  0.7969  0.0492
  667MOL0     H90010  -2.636  10.430  10.488 -0.9394  0.3691 -0.6561
  667MOL0     H90011  -2.836  10.124  10.560 -3.2066 -1.5313 -2.0730
  667MOL0     H90012  -2.789  10.286  10.604 -1.3888  1.2641  0.9046
  667MOL0     H90013  -3.025  10.273  10.674  0.1606 -0.5512 -0.2777
  667MOL0     H90014  -2.991  10.388  10.549  1.4791 -0.1046 -2.9140
  667MOL0     H90015  -3.082  10.109  10.473 -3.4356 -1.3216  0.2625
  667MOL0     H90016  -3.084  10.262  10.379 -0.2851  1.8876  1.0016
  667MOL0     H90017  -3.306  10.182  10.459  2.8632 -1.5267 -2.2790
  667MOL0     H90018  -3.248  10.206  10.627  0.4263 -2.3235 -0.3514
  667MOL0     H90019  -3.252  10.437  10.424  0.7169  0.1956 -0.1153
  667MOL0     H90020  -3.208  10.434  10.597  0.8867 -3.6865  1.4441
  667MOL0     H90021  -3.483  10.330  10.549  0.0647  1.2651  1.1299
  667MOL0     H90022  -3.410  10.410  10.670  1.6171 -1.7667 -0.3575
  667MOL0     H90023  -3.468  10.550  10.391  0.9857 -0.0006  0.4859
  667MOL0     H90024  -3.427  10.631  10.543 -3.1152  1.4678 -0.2237
  667MOL0     H90025  -3.686  10.469  10.500  0.5255 -0.7205  0.9964
  667MOL0     H90026  -3.653  10.652  10.498  3.0835  0.6888 -2.5453
  667MOL0     H90027  -2.695  10.072  10.267 -1.2414 -0.2050  1.1011
  667MOL0     H90028  -2.461  10.079  10.183  0.1539 -0.5202  0.0887
  667MOL0     H90029  -2.139  10.195  10.077 -0.5062 -0.9121  1.3028
  667MOL0     H90030  -1.912  10.201   9.970  0.8830 -0.3743  0.1705
  667MOL0     H90031   0.145  10.238   9.371  1.9181 -2.2112  0.3762
  667MOL0     H90032   0.381  10.326   9.460  2.6701  1.5553  2.7358
  667MOL0     H90033   0.701  10.305   9.658  1.7670 -2.3994  0.5819
  667MOL0     H90034   0.942  10.357   9.709 -1.2063  0.3877 -2.2243
  667MOL0     H90035   1.011  10.658  10.017 -1.4785 -0.5911 -0.8506
  667MOL0     H90036   1.080  10.516  10.096  2.5319  0.2080  0.4347
  667MOL0     H90037   1.291  10.559  10.010  0.2644 -0.8266 -2.4246
  667MOL0     H90038   1.230  10.707  10.066 -2.1575  2.0483 -0.4649
  667MOL0     H90039   1.271  10.631   9.773 -3.9720 -0.1351 -0.6740
  667MOL0     H90040   1.365  10.739   9.866  0.4569 -1.9663  0.1287
  667MOL0     H90041   1.232  10.884   9.729 -1.2024 -1.0578 -1.5273
  667MOL0     H90042   1.158  10.898   9.881 -1.1166  1.0907 -1.4372
  667MOL0     H90043   0.839  10.708   9.703  0.6763 -0.2684 -1.6756
  667MOL0     H90044   0.820  10.557  10.064 -0.5686  0.2412  0.1686
  667MOL0     H90045   0.599  10.534  10.016  3.2763  1.9534  2.2907
  668MOL0     O90046   2.766   7.987   0.974 -0.5411 -0.4587  0.5836
  668MOL0     C90047   2.820   7.875   0.949 -0.2540  0.5252 -0.6470
  668MOL0     O90048   2.756   7.761   0.959 -0.3708  0.0982  0.0958
  668MOL0     C90049   2.633   7.730   1.006 -0.5358 -0.0842  0.9214
  668MOL0     C90050   2.605   7.593   1.044 -0.7333  0.3557 -0.3986
  668MOL0     C90051   2.483   7.559   1.106 -0.9193 -0.4883 -0.1575
  668MOL0     C90052   2.377   7.658   1.109 -0.7329 -1.0099 -0.1096
  668MOL0     O90053   2.254   7.641   1.159  0.2694 -0.7494  0.2746
  668MOL0     C90054   2.205   7.507   1.184  0.2891 -0.2143 -0.1308
  668MOL0     C90055   2.067   7.513   1.260 -0.6998 -0.4338 -0.0481
  668MOL0     C90056   2.018   7.378   1.305  0.0375  0.6254 -0.1562
  668MOL0     C90057   2.005   7.274   1.189 -0.3044 -0.3769 -0.6398
  668MOL0     C90058   1.933   7.148   1.227  0.3223  0.6208  0.3881
  668MOL0     C90059   1.940   7.032   1.127 -0.5817  0.3393  0.1189
  668MOL0     C90060   2.078   6.996   1.061  0.9377  0.3020  0.3627
  668MOL0     C90061   2.072   6.870   0.983  0.4345  0.5839  0.2992
  668MOL0     N90062   1.998   6.861   0.855  0.2772  0.1751 -0.1285
  668MOL0     C90063   1.869   6.811   0.845  0.1397 -0.4261 -0.4051
  668MOL0     C90064   1.837   6.824   0.712 -0.6185 -0.0078 -0.0774
  668MOL0     C90065   1.718   6.777   0.647  0.7275  1.2877  0.1508
  668MOL0     C90066   1.598   6.861   0.685 -1.2316  0.2710 -0.1086
  668MOL0     C90067   1.617   7.019   0.662 -0.2691  0.6098 -0.5534
  668MOL0     C90068   1.654   7.062   0.516  0.2701 -0.6447  0.0981
  668MOL0     O90069   1.642   7.204   0.492 -0.5968  0.7080 -0.1732
  668MOL0     C90070   1.519   7.263   0.508  0.4074 -0.1153  0.3531
  668MOL0     C90071   1.511   7.398   0.476 -0.9883 -0.4413  0.0793
  668MOL0     C90072   1.382   7.462   0.453 -0.8255  0.4446  0.2806
  668MOL0     C90073   1.394   7.601   0.399  0.1140 -0.3553 -0.5380
  668MOL0     C90074   1.254   7.390   0.477 -1.1690  0.0446  0.2692
  668MOL0     C90075   1.124   7.467   0.463  0.0997  0.2638  0.2091
  668MOL0     O90076   1.117   7.567   0.371  0.0668 -0.3897 -0.3619
  668MOL0     C90077   1.002   7.646   0.380  0.0355 -0.1300  0.9261
  668MOL0     C90078   0.878   7.579   0.351  1.0270 -0.4584  0.7811
  668MOL0     C90079   0.748   7.644   0.364 -0.3108  0.1843  0.1336
  668MOL0     C90080   0.753   7.779   0.400 -0.1408  0.6873 -0.0235
  668MOL0     O90081   0.647   7.856   0.430  0.8567  0.0873  0.2323
  668MOL0     C90082   0.515   7.794   0.418 -1.0785  0.8047 -0.2200
  668MOL0     C90083   0.416   7.893   0.468 -0.1425  0.2916 -0.0918
  668MOL0     C90084   0.271   7.863   0.448 -0.7762 -0.7192  0.2888
  668MOL0     C90085   0.202   7.992   0.487 -0.0160  0.4013  0.4047
  668MOL0     C90086   0.059   7.988   0.551  0.0470  0.3812  0.7403
  668MOL0     C90087  -0.044   7.931   0.451 -0.1643  0.1159  0.9168
  668MOL0     C90088  -0.192   7.925   0.500  0.5165 -1.0415 -0.1639
  668MOL0     C90089  -0.243   8.048   0.569 -1.3305  0.1475 -0.8108
  668MOL0    Cl90090  -0.399   8.009   0.647  0.3116  0.3134 -0.2923
  668MOL0     C90091   0.874   7.846   0.425  0.2348  0.9303  0.9497
  668MOL0     C90092   0.995   7.781   0.418 -0.9269  0.3780 -1.0574
  668MOL0     O90093   1.036   7.430   0.537 -0.2131 -0.7217 -0.3676
  668MOL0     C90094   1.269   7.268   0.519  0.1897 -1.1524  0.0405
  668MOL0     C90095   1.393   7.203   0.531 -0.4622 -0.6500 -0.3640
  668MOL0     N90096   1.942   6.872   0.638 -0.1910  1.0682 -1.1458
  668MOL0     N90097   2.039   6.894   0.729 -1.0527  0.7743 -0.7269
  668MOL0     C90098   2.403   7.793   1.069  0.3305 -0.0432  0.1423
  668MOL0     C90099   2.534   7.827   1.025 -0.6438 -0.3400 -0.7712
  668MOL0     C90100   2.962   7.870   0.906 -0.2492  0.8978 -0.0333
  668MOL0     C90101   3.046   7.752   0.918 -0.2678 -0.4828 -0.5549
  668MOL0     C90102   3.180   7.756   0.877 -0.1181  0.1798  0.0123
  668MOL0     C90103   3.245   7.865   0.824 -0.7991 -0.1270 -0.3965
  668MOL0     O90104   3.377   7.866   0.789  0.0334  0.1951  0.1755
  668MOL0     C90105   3.425   7.964   0.693  0.0803  0.2420  0.3027
  668MOL0     C90106   3.558   7.926   0.638 -0.2315 -0.0359 -0.0632
  668MOL0     C90107   3.671   7.936   0.742  0.2482 -0.0185 -0.1856
  668MOL0     C90108   3.801   7.907   0.660  0.4460 -0.7470 -1.0674
  668MOL0     C90109   3.927   7.931   0.734  0.5409  0.3557 -0.1050
  668MOL0     C90110   4.034   7.935   0.791 -0.3136 -0.5632  0.7802
  668MOL0     C90111   3.165   7.978   0.819 -0.4591 -0.0864 -0.1729
  668MOL0     C90112   3.027   7.981   0.854 -0.2505  0.2845  0.3351
  668MOL0     H90113   2.679   7.514   1.045 -1.7232 -0.5917 -0.2314
  668MOL0     H90114   2.468   7.457   1.140 -2.7239  0.2911  1.5985
  668MOL0     H90115   2.180   7.468   1.085 -0.0156 -2.1041  0.6550
  668MOL0     H90116   2.282   7.443   1.228  0.8100  1.3113  1.2510
  668MOL0     H90117   2.089   7.574   1.348 -2.8019 -0.0314  0.2334
  668MOL0     H90118   1.994   7.565   1.198 -0.9867 -2.6442 -1.6890
  668MOL0     H90119   2.094   7.331   1.368  0.5935  2.1329  0.3445
  668MOL0     H90120   1.926   7.391   1.362 -0.9532 -0.5514 -1.4300
  668MOL0     H90121   1.970   7.318   1.095  1.4724 -1.3473 -1.8148
  668MOL0     H90122   2.106   7.242   1.160  0.3001  1.9599 -1.4115
  668MOL0     H90123   1.970   7.115   1.325  0.3409 -0.4186  0.0418
  668MOL0     H90124   1.827   7.171   1.233  0.1627  0.7162 -1.9832
  668MOL0     H90125   1.905   6.944   1.182 -0.0908  1.3673  2.1936
  668MOL0     H90126   1.866   7.052   1.050 -0.3826 -3.3911 -1.2617
  668MOL0     H90127   2.117   7.070   0.990 -1.2501  0.3368 -0.8877
  668MOL0     H90128   2.146   6.964   1.140  0.3965  0.6327  0.9764
  668MOL0     H90129   2.043   6.794   1.056 -2.1346  0.7485 -0.4631
  668MOL0     H90130   2.175   6.848   0.953 -0.4557 -1.0360 -1.7846
  668MOL0     H90131   1.813   6.773   0.929  1.9975 -2.6021 -0.0734
  668MOL0     H90132   1.731   6.776   0.538  0.9573 -0.8664  0.1527
  668MOL0     H90133   1.700   6.676   0.685  1.3954  0.7429 -0.9271
  668MOL0     H90134   1.580   6.843   0.791  0.3306  0.5692  0.2402
  668MOL0     H90135   1.504   6.838   0.634 -1.2586  0.8942 -0.3466
  668MOL0     H90136   1.708   7.044   0.717 -0.2529 -0.9561  0.2038
  668MOL0     H90137   1.540   7.077   0.715  3.1073  3.3955  1.7522
  668MOL0     H90138   1.591   7.009   0.443 -1.9731  1.9003  0.0348
  668MOL0     H90139   1.758   7.037   0.494  0.4497  1.4126 -1.7937
  668MOL0     H90140   1.591   7.468   0.455 -3.3405  2.1330 -0.9517
  668MOL0     H90141   1.325   7.656   0.463  0.0083 -3.0665  1.9119
  668MOL0     H90142   1.496   7.640   0.401 -0.5185  1.3616  1.2000
  668MOL0     H90143   1.355   7.605   0.297  1.0774 -0.7917 -0.9431
  668MOL0     H90144   0.887   7.477   0.315 -1.3597 -0.8903  1.2402
  668MOL0     H90145   0.653   7.593   0.347 -0.9574  1.0097  1.1166
  668MOL0     H90146   0.509   7.791   0.308 -3.8592 -1.0608 -0.1269
  668MOL0     H90147   0.511   7.694   0.461 -1.0033  1.1622  0.6393
  668MOL0     H90148   0.431   7.910   0.575  1.1635 -0.8561 -0.0723
  668MOL0     H90149   0.437   7.994   0.431 -1.2538 -0.3646 -2.7571
  668MOL0     H90150   0.236   7.780   0.511  0.3797 -0.2842  1.5742
  668MOL0     H90151   0.257   7.837   0.343 -1.3526  0.8365 -0.0439
  668MOL0     H90152   0.255   8.046   0.566  1.1639 -3.3908  2.4710
  668MOL0     H90153   0.195   8.043   0.391 -2.3863 -1.5320 -0.5473
  668MOL0     H90154   0.024   8.089   0.576 -3.4372  0.0909 -2.2033
  668MOL0     H90155   0.056   7.920   0.636  0.2956 -0.8656 -0.2165
  668MOL0     H90156  -0.036   7.974   0.351 -1.9846 -2.4896 -0.4629
  668MOL0     H90157  -0.010   7.829   0.428  3.1456  1.3262 -0.1374
  668MOL0     H90158  -0.207   7.845   0.573 -2.7224 -0.4343 -0.0163
  668MOL0     H90159  -0.262   7.907   0.418 -1.4340  0.3690  1.0847
  668MOL0     H90160  -0.249   8.124   0.490  0.8342  0.5036 -0.6835
  668MOL0     H90161  -0.181   8.081   0.652 -3.0013  0.3119  0.4031
  668MOL0     H90162   0.865   7.954   0.426 -0.3676  0.8855  2.1899
  668MOL0     H90163   1.089   7.834   0.430  0.0353 -1.4308 -0.1991
  668MOL0     H90164   1.176   7.217   0.543 -0.0413 -0.4691  0.6428
  668MOL0     H90165   1.391   7.094   0.539  0.8978 -0.5764  2.5029
  668MOL0     H90166   2.321   7.863   1.072 -2.6176 -3.1465 -1.0553
  668MOL0     H90167   2.557   7.932   1.009  3.7716 -1.2233 -1.5471
  668MOL0     H90168   3.017   7.656   0.961 -2.7177 -0.4094 -1.9221
  668MOL0     H90169   3.237   7.664   0.883  2.2572  1.3386 -2.2485
  668MOL0     H90170   3.360   7.977   0.606  2.3652  3.1191 -1.1483
  668MOL0     H90171   3.438   8.050   0.760  2.1640 -1.2623  1.9693
  668MOL0     H90172   3.576   7.982   0.545  1.1079  1.2225  0.9120
  668MOL0     H90173   3.552   7.819   0.617 -0.7515 -0.9564  3.9448
  668MOL0     H90174   3.667   7.866   0.827  2.4158  3.7563  3.4266
  668MOL0     H90175   3.673   8.035   0.789 -0.5295 -1.6718  3.8175
  668MOL0     H90176   3.800   7.975   0.575  1.8087 -0.0007 -0.5166
  668MOL0     H90177   3.792   7.805   0.623 -1.2273 -1.0716  0.1041
  668MOL0     H90178   4.132   7.950   0.832  1.2058  4.5239 -3.5123
  668MOL0     H90179   3.212   8.073   0.797 -1.5243  0.0603 -2.0383
  668MOL0     H90180   2.971   8.071   0.829 -0.0542 -0.1089 -1.7036
  669MOL0     O90181  10.921   3.273   7.780 -0.3070 -0.1242 -0.1064
  669MOL0     C90182  11.010   3.188   7.765  0.0214  0.1815  0.0998
  669MOL0     O90183  10.994   3.062   7.724 -0.0504 -0.3398 -0.3972
  669MOL0     C90184  10.867   3.008   7.717  0.5923 -0.5941 -0.0107
  669MOL0     C90185  10.852   2.880   7.768  0.2209  0.1555 -0.4401
  669MOL0     C90186  10.734   2.805   7.757  0.2085 -0.3790  0.1985
  669MOL0     C90187  10.623   2.870   7.697  0.3554  0.0604 -0.2293
  669MOL0     O90188  10.503   2.804   7.665 -0.2995 -0.5418 -0.2600
  669MOL0     C90189  10.496   2.660   7.670  0.0233 -0.1141  0.1019
  669MOL0     C90190  10.432   2.596   7.790  0.3518  0.3135 -0.0979
  669MOL0     C90191  10.293   2.645   7.819 -0.6757  0.2021 -0.1572
  669MOL0     C90192  10.260   2.579   7.957  0.0461 -0.0139 -0.0678
  669MOL0     C90193  10.109   2.563   7.953  0.0152 -0.4186 -0.0037
  669MOL0     C90194  10.054   2.442   7.870 -0.0890 -0.8808 -0.3922
  669MOL0     C90195   9.904   2.419   7.907 -0.0022  0.5509 -0.3220
  669MOL0     C90196   9.810   2.526   7.859  0.2557  0.5035 -0.3200
  669MOL0     N90197   9.685   2.537   7.933 -0.2025 -0.6130 -0.0891
  669MOL0     C90198   9.689   2.567   8.062 -0.2645 -0.1578 -0.0227
  669MOL0     C90199   9.558   2.543   8.098 -0.1946 -0.0099  0.1903
  669MOL0     C90200   9.502   2.534   8.235  0.3362 -0.0131 -0.5352
  669MOL0     C90201   9.386   2.628   8.249 -0.6445 -0.6878 -1.5197
  669MOL0     C90202   9.312   2.609   8.387 -0.0235 -0.7691 -1.1943
  669MOL0     C90203   9.201   2.712   8.413  0.2448 -0.1457 -0.6248
  669MOL0     O90204   9.094   2.685   8.311 -0.4782  0.2531  0.4962
  669MOL0     C90205   8.991   2.772   8.296 -0.3047  0.7020  0.0914
  669MOL0     C90206   8.891   2.732   8.206 -0.4295 -0.1115 -0.8554
  669MOL0     C90207   8.775   2.809   8.186 -0.1907 -0.5735  0.9331
  669MOL0     C90208   8.669   2.751   8.091  0.5793  0.1328 -0.0225
  669MOL0     C90209   8.770   2.944   8.235  0.0074 -0.3484 -0.0164
  669MOL0     C90210   8.640   3.027   8.226  0.1325 -0.0840 -0.3256
  669MOL0     O90211   8.556   3.004   8.121  0.7148  0.2509  1.4640
  669MOL0     C90212   8.426   3.049   8.128 -1.1061 -0.5279 -0.4019
  669MOL0     C90213   8.321   2.960   8.116 -0.2827  0.3365 -0.6260
  669MOL0     C90214   8.191   3.006   8.097  0.3125 -0.3003  0.9387
  669MOL0     C90215   8.164   3.138   8.083 -0.2223  0.5711 -0.5225
  669MOL0     O90216   8.035   3.159   8.050 -0.4366 -0.4597 -0.0137
  669MOL0     C90217   7.956   3.250   8.130 -0.7156  0.2621  0.1715
  669MOL0     C90218   7.805   3.198   8.139 -0.9619 -0.1748 -0.1920
  669MOL0     C90219   7.735   3.190   8.002  0.4935  0.1168  0.3284
  669MOL0     C90220   7.594   3.247   8.001  0.9460 -0.5539 -0.9373
  669MOL0     C90221   7.501   3.150   8.072  0.2101  0.4323 -0.0400
  669MOL0     C90222   7.362   3.216   8.083 -0.5250 -0.1801  1.0016
  669MOL0     C90223   7.292   3.247   7.945 -0.8093  0.3166 -0.2479
  669MOL0     C90224   7.139   3.251   7.954 -0.2281 -0.4298 -0.0228
  669MOL0    Cl90225   7.075   3.098   7.895 -0.2830 -0.0456 -0.0302
  669MOL0     C90226   8.268   3.236   8.090  0.9444  0.6459 -0.0535
  669MOL0     C90227   8.399   3.188   8.115 -0.8175 -1.1170  0.0332
  669MOL0     O90228   8.611   3.106   8.315 -0.5699  0.4737 -0.7132
  669MOL0     C90229   8.875   2.986   8.320  0.4443  0.4077 -0.8442
  669MOL0     C90230   8.985   2.894   8.358  0.4153 -0.3647  0.0065
  669MOL0     N90231   9.489   2.500   7.986  0.2393  0.2922 -0.1209
  669MOL0     N90232   9.573   2.486   7.894 -0.2745  0.0778  0.4350
  669MOL0     C90233  10.641   2.998   7.645  0.1584 -0.4469 -0.2273
  669MOL0     C90234  10.754   3.066   7.668 -0.5887 -0.1983  0.5297
  669MOL0     C90235  11.146   3.222   7.806  0.0441  0.4940 -0.7014
  669MOL0     C90236  11.241   3.130   7.803 -0.5196  0.4536  0.0015
  669MOL0     C90237  11.370   3.143   7.857  0.0232  0.2700  0.3912
  669MOL0     C90238  11.402   3.259   7.926 -1.5888 -0.8109  0.1285
  669MOL0     O90239  11.531   3.266   7.987  0.3369  0.6601  0.4320
  669MOL0     C90240  11.560   3.369   8.080 -0.0483  0.8951 -0.8243
  669MOL0     C90241  11.686   3.329   8.161 -0.6524  0.1271 -0.5029
  669MOL0     C90242  11.716   3.426   8.286 -0.4415  0.0029  0.1799
  669MOL0     C90243  11.613   3.406   8.401  0.6195  0.2536  0.2041
  669MOL0     C90244  11.613   3.265   8.448  1.0613 -0.4022 -0.2718
  669MOL0     C90245  11.600   3.154   8.487 -0.0207 -0.0663 -0.5328
  669MOL0     C90246  11.306   3.367   7.930 -0.3060  0.5350  0.2325
  669MOL0     C90247  11.178   3.346   7.867 -0.1563  0.8509 -0.0324
  669MOL0     H90248  10.937   2.835   7.818  0.4136  1.3105  0.3130
  669MOL0     H90249  10.730   2.705   7.799  0.7079 -0.1291  0.8671
  669MOL0     H90250  10.441   2.623   7.583  0.8653  0.2984 -0.6322
  669MOL0     H90251  10.596   2.615   7.664  0.2969  0.3867  0.8002
  669MOL0     H90252  10.421   2.488   7.780  2.5312 -0.2777  2.5436
  669MOL0     H90253  10.495   2.610   7.879 -0.5504 -0.9624  0.7791
  669MOL0     H90254  10.283   2.753   7.832 -1.2434  0.1881 -0.4303
  669MOL0     H90255  10.223   2.615   7.741 -1.2089 -0.0073  0.4016
  669MOL0     H90256  10.319   2.490   7.981 -0.0239 -0.8545 -2.6547
  669MOL0     H90257  10.287   2.653   8.033  1.3996  0.5815 -1.0981
  669MOL0     H90258  10.066   2.566   8.054 -0.3543 -2.6240 -0.0379
  669MOL0     H90259  10.072   2.652   7.902  1.5892 -0.0753 -0.5823
  669MOL0     H90260  10.068   2.455   7.762  0.5310 -1.6732 -0.4086
  669MOL0     H90261  10.117   2.357   7.897  0.5043 -0.0373  1.0026
  669MOL0     H90262   9.876   2.326   7.856 -0.2597  1.8616 -2.7673
  669MOL0     H90263   9.899   2.406   8.015  0.4431 -0.2641 -0.3954
  669MOL0     H90264   9.792   2.511   7.752  2.3674  1.3189 -0.8421
  669MOL0     H90265   9.868   2.618   7.863  0.7571  0.1587  1.0258
  669MOL0     H90266   9.777   2.590   8.121  2.0289  2.7893 -4.1473
  669MOL0     H90267   9.479   2.433   8.269 -2.0275  0.5632 -0.2640
  669MOL0     H90268   9.579   2.576   8.301 -0.8339 -1.3615  1.8059
  669MOL0     H90269   9.319   2.604   8.166 -2.2786 -1.1979 -0.1172
  669MOL0     H90270   9.415   2.733   8.239  0.1128 -0.7770 -0.4883
  669MOL0     H90271   9.396   2.615   8.457 -0.9945  0.8030 -0.0977
  669MOL0     H90272   9.266   2.510   8.393  1.4287 -1.4226 -0.3931
  669MOL0     H90273   9.244   2.813   8.410  0.1171 -0.0771 -0.2801
  669MOL0     H90274   9.157   2.690   8.511 -0.9013  0.4812 -0.9731
  669MOL0     H90275   8.901   2.627   8.178  1.1590 -0.7688  1.7501
  669MOL0     H90276   8.655   2.812   8.002 -4.5806  0.7116  0.8478
  669MOL0     H90277   8.687   2.645   8.069 -2.1301 -0.1267 -1.3910
  669MOL0     H90278   8.577   2.767   8.149  1.3846  0.7479  1.1155
  669MOL0     H90279   8.344   2.854   8.113  2.6484  0.8214  1.1493
  669MOL0     H90280   8.111   2.935   8.081 -1.0425  1.3002  0.2817
  669MOL0     H90281   7.986   3.258   8.235  1.9500  3.9048 -0.6506
  669MOL0     H90282   7.979   3.354   8.101  1.5349 -0.4743 -0.9715
  669MOL0     H90283   7.812   3.097   8.181  1.6795 -0.2371 -0.5890
  669MOL0     H90284   7.745   3.262   8.205 -1.5736 -0.2975 -0.6263
  669MOL0     H90285   7.712   3.090   7.965 -0.8147  0.3889  0.3562
  669MOL0     H90286   7.802   3.239   7.930 -0.5363  3.7596  1.6120
  669MOL0     H90287   7.605   3.340   8.058  0.3258 -1.4295  0.6732
  669MOL0     H90288   7.553   3.261   7.900 -2.3804  0.9824  0.4483
  669MOL0     H90289   7.537   3.105   8.165 -0.3159  0.6637  0.2754
  669MOL0     H90290   7.483   3.069   8.000  1.7440  2.2013 -2.6163
  669MOL0     H90291   7.288   3.147   8.126 -2.5060 -0.0190 -1.8259
  669MOL0     H90292   7.362   3.312   8.135 -0.1873  0.9057 -0.9014
  669MOL0     H90293   7.310   3.180   7.861 -7.1571 -0.1835 -1.7210
  669MOL0     H90294   7.326   3.347   7.917  0.7253  0.0397  0.5424
  669MOL0     H90295   7.107   3.326   7.882  0.1604 -0.0843  0.1585
  669MOL0     H90296   7.094   3.276   8.050  2.4034  0.1691  1.1505
  669MOL0     H90297   8.250   3.339   8.062 -1.0758  0.5927  0.8740
  669MOL0     H90298   8.474   3.267   8.117 -1.7084 -0.1554  3.6545
  669MOL0     H90299   8.867   3.086   8.363 -3.4291  0.5905 -1.5955
  669MOL0     H90300   9.064   2.928   8.424  0.8858 -3.0176  0.9330
  669MOL0     H90301  10.562   3.053   7.594 -0.1166 -1.1770 -0.6033
  669MOL0     H90302  10.762   3.165   7.623  0.0279 -0.3474  0.3068
  669MOL0     H90303  11.222   3.040   7.746  1.3420  0.4965 -0.7645
  669MOL0     H90304  11.454   3.077   7.841  1.3628  2.3133 -1.6214
  669MOL0     H90305  11.582   3.459   8.021  1.8129  0.6409 -0.5629
  669MOL0     H90306  11.486   3.391   8.158  0.0785 -1.0343 -0.1071
  669MOL0     H90307  11.777   3.335   8.101  0.2746  3.3318  0.9797
  669MOL0     H90308  11.687   3.225   8.195  1.6591  0.5428  0.9607
  669MOL0     H90309  11.720   3.531   8.256 -1.7253  0.8036  2.5410
  669MOL0     H90310  11.814   3.398   8.327  0.6026 -1.8962 -3.2392
  669MOL0     H90311  11.516   3.440   8.362 -0.1164 -0.1571  1.6167
  669MOL0     H90312  11.635   3.474   8.483  1.5437  0.1319  0.0654
  669MOL0     H90313  11.589   3.057   8.533 -1.6126  0.3387  0.0267
  669MOL0     H90314  11.332   3.458   7.983  0.3775  0.8841 -0.6796
  669MOL0     H90315  11.106   3.426   7.876  1.4010  2.1925  1.0482
  670MOL0     O90316   2.856   6.027   8.856 -0.0268 -0.7976  0.6992
  670MOL0     C90317   2.926   5.989   8.946 -0.2802 -0.4489  0.1492
  670MOL0     O90318   2.892   5.999   9.075 -1.1678  0.7558 -0.1470
  670MOL0     C90319   2.760   6.022   9.108 -0.1807 -0.0086  0.7755
  670MOL0     C90320   2.659   5.924   9.098 -0.2823 -0.1291 -0.2355
  670MOL0     C90321   2.529   5.954   9.125  0.4663 -0.8486  0.2571
  670MOL0     C90322   2.499   6.081   9.184  0.2017 -0.3438 -0.2665
  670MOL0     O90323   2.370   6.122   9.220 -0.2370  1.1548 -0.4808
  670MOL0     C90324   2.276   6.021   9.260 -0.8259 -0.2545 -1.3361
  670MOL0     C90325   2.316   5.971   9.398 -0.1548  0.2992  0.4122
  670MOL0     C90326   2.220   6.017   9.509  0.4631 -0.0601 -0.1652
  670MOL0     C90327   2.084   5.929   9.504 -0.5706 -0.3957 -0.4845
  670MOL0     C90328   2.000   5.960   9.628 -0.1508  0.1995  0.1709
  670MOL0     C90329   1.871   5.880   9.610 -0.5968  0.4481 -0.4054
  670MOL0     C90330   1.780   5.900   9.731 -0.4903 -0.6606 -0.2561
  670MOL0     C90331   1.654   5.805   9.732 -0.3703 -0.4196 -0.3011
  670MOL0     N90332   1.549   5.842   9.640  0.5720  0.4997 -0.4323
  670MOL0     C90333   1.476   5.954   9.608 -0.2767 -0.0548 -0.2143
  670MOL0     C90334   1.390   5.919   9.511  0.0806 -0.1390 -0.2121
  670MOL0     C90335   1.293   5.999   9.443  0.1695 -0.1590 -0.4320
  670MOL0     C90336   1.143   5.946   9.440  0.5287 -0.4128 -0.0083
  670MOL0     C90337   1.075   5.909   9.574  0.0116 -0.0715 -0.5129
  670MOL0     C90338   0.924   5.896   9.552 -0.1774 -0.6472 -0.5347
  670MOL0     O90339   0.861   5.920   9.682 -0.2994 -0.7777 -0.0049
  670MOL0     C90340   0.728   5.962   9.681  0.2781 -0.0198  0.2389
  670MOL0     C90341   0.676   6.026   9.795 -0.1372 -0.2972 -0.8226
  670MOL0     C90342   0.549   6.081   9.814 -0.2800 -0.1859  0.0166
  670MOL0     C90343   0.523   6.158   9.943  0.6363 -0.5133  0.2419
  670MOL0     C90344   0.452   6.045   9.718 -0.2144  0.1642  0.0408
  670MOL0     C90345   0.308   6.080   9.728  0.1192  0.1666 -0.3565
  670MOL0     O90346   0.226   6.057   9.617 -0.1093 -0.1790  0.2211
  670MOL0     C90347   0.090   6.051   9.641 -0.8408  0.0136  0.8050
  670MOL0     C90348   0.019   5.935   9.639 -1.1169  0.5991 -0.2798
  670MOL0     C90349  -0.121   5.934   9.645 -0.3767 -0.3069  0.0642
  670MOL0     C90350  -0.188   6.059   9.651 -0.3961 -0.6772 -0.4281
  670MOL0     O90351  -0.328   6.059   9.638 -0.1632  0.0653  0.0594
  670MOL0     C90352  -0.398   6.183   9.617  0.2586 -0.3196  0.2843
  670MOL0     C90353  -0.540   6.154   9.593 -0.6471  0.0688  0.1947
  670MOL0     C90354  -0.650   6.270   9.613 -0.1776  0.1249  0.0195
  670MOL0     C90355  -0.674   6.291   9.763  0.3358 -0.0143  0.1507
  670MOL0     C90356  -0.788   6.390   9.791  0.5088  0.8695  1.1023
  670MOL0     C90357  -0.936   6.333   9.761  0.2269 -0.1290 -0.4162
  670MOL0     C90358  -1.045   6.430   9.811 -0.5310  0.8292 -0.3610
  670MOL0     C90359  -1.190   6.383   9.775 -0.1398  0.4766  0.1448
  670MOL0    Cl90360  -1.209   6.214   9.851 -0.1776 -0.4587  0.1895
  670MOL0     C90361  -0.118   6.179   9.665  0.6862  0.3965 -0.2414
  670MOL0     C90362   0.017   6.164   9.654  0.7155 -0.9843 -0.5493
  670MOL0     O90363   0.268   6.135   9.833  0.1632  0.3302 -0.2016
  670MOL0     C90364   0.494   5.983   9.600 -0.5352 -0.5103  0.6752
  670MOL0     C90365   0.635   5.959   9.578 -0.2256  0.1164  0.0577
  670MOL0     N90366   1.412   5.788   9.477 -0.5650 -0.9526 -1.0446
  670MOL0     N90367   1.505   5.739   9.551 -0.2762  0.7265  0.6112
  670MOL0     C90368   2.600   6.172   9.199  0.0730 -0.1311 -0.7792
  670MOL0     C90369   2.728   6.146   9.154 -0.3269 -0.6155  0.3723
  670MOL0     C90370   3.066   5.973   8.904  0.1708  0.3348 -0.1319
  670MOL0     C90371   3.154   5.917   9.002  0.5890 -0.2466 -0.2893
  670MOL0     C90372   3.290   5.887   8.975  0.6266 -0.3617  0.3187
  670MOL0     C90373   3.339   5.919   8.850  1.0037  0.5892 -0.7799
  670MOL0     O90374   3.471   5.888   8.828 -0.4100 -0.3075 -0.1838
  670MOL0     C90375   3.512   5.891   8.686 -0.3258 -0.2494  0.8214
  670MOL0     C90376   3.659   5.828   8.684 -0.5476 -0.9148 -0.2135
  670MOL0     C90377   3.764   5.923   8.754  0.2629  0.4975 -0.1466
  670MOL0     C90378   3.907   5.878   8.738  0.7513  0.5442 -0.1686
  670MOL0     C90379   3.961   5.885   8.611 -0.2237  0.6157  0.5655
  670MOL0     C90380   4.011   5.887   8.499 -0.2222  0.6460  0.5180
  670MOL0     C90381   3.255   5.966   8.738  0.7015  0.5913 -1.1432
  670MOL0     C90382   3.118   5.989   8.771 -1.0139 -0.1914  0.1785
  670MOL0     H90383   2.682   5.823   9.065 -3.3841 -1.2992  0.8657
  670MOL0     H90384   2.450   5.880   9.116 -0.9210  0.5574  0.5533
  670MOL0     H90385   2.178   6.070   9.273 -1.5075 -2.2137  2.1862
  670MOL0     H90386   2.264   5.940   9.188 -0.5044 -1.0563 -0.5143
  670MOL0     H90387   2.320   5.862   9.394 -2.7135  0.1173  1.1755
  670MOL0     H90388   2.414   6.012   9.423 -0.3391  0.2791  1.1962
  670MOL0     H90389   2.271   6.024   9.606  1.0560  1.0800 -0.5503
  670MOL0     H90390   2.209   6.122   9.482 -0.5851 -0.7687 -2.7096
  670MOL0     H90391   2.018   5.932   9.417 -1.9013  2.7487  0.4614
  670MOL0     H90392   2.121   5.827   9.517  3.4622  0.7751 -1.3331
  670MOL0     H90393   2.055   5.935   9.719  1.6084 -1.2321 -1.2191
  670MOL0     H90394   1.970   6.065   9.628 -3.1714 -0.5648  0.9510
  670MOL0     H90395   1.817   5.901   9.518 -0.3568 -0.1930 -0.6951
  670MOL0     H90396   1.903   5.776   9.622  0.1759  0.7235  0.0407
  670MOL0     H90397   1.832   5.889   9.827 -2.3712 -2.0856  0.6625
  670MOL0     H90398   1.741   6.001   9.720 -2.8313 -1.4696  0.1307
  670MOL0     H90399   1.605   5.802   9.830  0.3701  0.5987  0.1105
  670MOL0     H90400   1.685   5.701   9.723  0.1378 -0.1660 -1.6558
  670MOL0     H90401   1.487   6.048   9.662  0.1489  0.1665 -0.6783
  670MOL0     H90402   1.287   6.099   9.487  0.4924 -0.4698  0.3379
  670MOL0     H90403   1.332   6.012   9.342  2.1048 -3.0737 -0.1939
  670MOL0     H90404   1.135   5.856   9.379  2.5359 -3.0201  3.2316
  670MOL0     H90405   1.091   6.031   9.394  0.9877 -0.2705 -0.2633
  670MOL0     H90406   1.095   5.991   9.644  3.9942  0.7122 -2.2586
  670MOL0     H90407   1.118   5.821   9.622  0.4596  1.0886  1.3472
  670MOL0     H90408   0.893   5.799   9.512  1.5261 -2.9821  3.2689
  670MOL0     H90409   0.892   5.974   9.482 -0.4784  1.1480  1.4585
  670MOL0     H90410   0.741   6.037   9.882 -1.5574 -3.0301  0.7230
  670MOL0     H90411   0.613   6.166  10.004 -0.1353 -0.2510  1.3602
  670MOL0     H90412   0.486   6.256   9.914  2.1435 -0.2440 -0.9118
  670MOL0     H90413   0.451   6.112  10.010  1.1426 -2.1057 -0.2460
  670MOL0     H90414   0.062   5.839   9.613  0.1283  0.8362  0.8050
  670MOL0     H90415  -0.185   5.847   9.649 -2.5195  1.1313 -0.8260
  670MOL0     H90416  -0.392   6.249   9.704 -0.0004 -1.0183  0.8429
  670MOL0     H90417  -0.353   6.229   9.528 -0.0945 -1.7709 -0.6775
  670MOL0     H90418  -0.547   6.121   9.489  2.4704 -0.3591  0.0253
  670MOL0     H90419  -0.569   6.071   9.658  0.1966 -1.3548 -1.1662
  670MOL0     H90420  -0.745   6.247   9.563 -1.0441  2.6004  0.3730
  670MOL0     H90421  -0.625   6.365   9.566  0.8604  0.2753  0.8282
  670MOL0     H90422  -0.705   6.202   9.820 -3.6466 -0.7142 -2.6520
  670MOL0     H90423  -0.581   6.336   9.799 -0.8119  0.7938  2.2598
  670MOL0     H90424  -0.782   6.478   9.727 -2.5520 -0.6908 -1.5933
  670MOL0     H90425  -0.779   6.427   9.894  2.0660  3.3605  0.1539
  670MOL0     H90426  -0.952   6.311   9.655 -3.5115  1.9903 -0.4597
  670MOL0     H90427  -0.949   6.240   9.817 -2.6787  0.7577  0.5384
  670MOL0     H90428  -1.021   6.529   9.771 -1.4677  0.5422 -1.6713
  670MOL0     H90429  -1.038   6.443   9.920 -1.0526 -0.5225 -0.1460
  670MOL0     H90430  -1.210   6.388   9.667  0.5822  1.9868  0.0631
  670MOL0     H90431  -1.260   6.453   9.821  0.6648  1.6875 -0.4359
  670MOL0     H90432  -0.159   6.279   9.675 -1.8796 -0.4840 -0.9887
  670MOL0     H90433   0.079   6.254   9.648  1.7607 -1.5390  1.0517
  670MOL0     H90434   0.419   5.976   9.522 -0.3843 -4.1620  0.6805
  670MOL0     H90435   0.664   5.922   9.480  1.2260 -2.3203  1.3168
  670MOL0     H90436   2.576   6.266   9.248  1.2392  0.8583 -2.0243
  670MOL0     H90437   2.808   6.218   9.161 -2.3137  1.9940 -1.5865
  670MOL0     H90438   3.113   5.897   9.100  0.5738 -0.2376 -0.2942
  670MOL0     H90439   3.357   5.846   9.050 -1.9958 -3.0140  1.4382
  670MOL0     H90440   3.458   5.821   8.622 -0.3806 -1.3069  1.9933
  670MOL0     H90441   3.513   5.994   8.648 -2.9361  0.4304  2.3059
  670MOL0     H90442   3.700   5.810   8.584 -0.1824 -2.4318  0.1681
  670MOL0     H90443   3.659   5.742   8.751 -0.7655  0.3142  1.4099
  670MOL0     H90444   3.736   5.939   8.858  0.3895  1.4008 -0.2406
  670MOL0     H90445   3.754   6.018   8.700 -1.5857 -0.2433 -1.2355
  670MOL0     H90446   3.902   5.773   8.766  1.1813  0.5559 -0.0487
  670MOL0     H90447   3.978   5.932   8.801  1.1696 -0.9699  0.7063
  670MOL0     H90448   4.061   5.873   8.406 -0.6167 -0.5619  0.4684
  670MOL0     H90449   3.300   5.992   8.643 -0.2700 -1.6505 -2.2802
  670MOL0     H90450   3.050   6.033   8.699 -0.9173  0.6585  0.6058
  671MOL0     O90451   7.197   5.373   5.089  0.4098  0.4280 -0.2764
  671MOL0     C90452   7.302   5.324   5.042  0.3750 -0.0427  0.0626
  671MOL0     O90453   7.307   5.215   4.969  0.5105 -0.3125  0.5577
  671MOL0     C90454   7.190   5.151   4.937 -0.7954 -0.6466  0.7095
  671MOL0     C90455   7.113   5.192   4.830 -0.2575 -0.0907 -0.1626
  671MOL0     C90456   6.980   5.148   4.812 -0.9295 -0.0458  0.3191
  671MOL0     C90457   6.931   5.050   4.890 -0.4089  0.8589  0.0370
  671MOL0     O90458   6.796   5.017   4.869 -0.4692 -0.3406 -0.0201
  671MOL0     C90459   6.720   5.003   4.986  0.2742  1.5733 -0.5138
  671MOL0     C90460   6.585   4.942   4.960 -0.6640  0.0358 -0.3415
  671MOL0     C90461   6.586   4.805   4.890  0.5168  0.2381  0.5241
  671MOL0     C90462   6.440   4.772   4.842  0.0501  0.5827 -0.4563
  671MOL0     C90463   6.338   4.744   4.957 -0.1641  0.4805 -0.3663
  671MOL0     C90464   6.199   4.717   4.899 -0.2854 -0.3131  0.0521
  671MOL0     C90465   6.176   4.580   4.836 -0.4543 -0.7427 -0.6607
  671MOL0     C90466   6.102   4.483   4.933 -0.2216  0.1711 -0.2356
  671MOL0     N90467   5.970   4.518   4.974 -0.1407 -0.1178  0.2916
  671MOL0     C90468   5.936   4.582   5.096  0.9656 -0.2191 -0.1511
  671MOL0     C90469   5.801   4.612   5.084 -0.8127  0.0302 -0.0270
  671MOL0     C90470   5.711   4.672   5.192 -0.2153 -0.1598 -1.1038
  671MOL0     C90471   5.680   4.817   5.170  0.2160  0.1940 -0.9529
  671MOL0     C90472   5.807   4.915   5.157  1.0470  0.6891  0.6572
  671MOL0     C90473   5.764   5.052   5.186  0.3808  0.1595 -0.2644
  671MOL0     O90474   5.758   5.079   5.332 -0.0967 -0.2871 -0.7055
  671MOL0     C90475   5.635   5.085   5.383 -0.7427  0.0892 -0.1914
  671MOL0     C90476   5.607   5.015   5.503  0.2744 -0.6445  0.6722
  671MOL0     C90477   5.487   5.031   5.570  0.0541 -0.4736 -0.2892
  671MOL0     C90478   5.475   4.959   5.705 -1.4825 -0.7883  0.3536
  671MOL0     C90479   5.389   5.119   5.518  0.3886 -0.4631  0.4119
  671MOL0     C90480   5.250   5.128   5.570 -0.2424  0.5530  0.3375
  671MOL0     O90481   5.172   5.235   5.523 -0.3883 -0.4383 -0.2261
  671MOL0     C90482   5.042   5.222   5.572 -0.2752 -0.2561  0.4427
  671MOL0     C90483   4.942   5.184   5.483  0.1089 -0.3359  0.4706
  671MOL0     C90484   4.805   5.165   5.523  0.2298 -0.4598  0.0117
  671MOL0     C90485   4.768   5.193   5.649  1.1755  0.0060 -0.3667
  671MOL0     O90486   4.639   5.173   5.698 -0.1957  0.0067 -1.2596
  671MOL0     C90487   4.518   5.186   5.619 -0.9038 -0.4394 -0.9324
  671MOL0     C90488   4.399   5.175   5.714  0.4285  0.9586  0.3200
  671MOL0     C90489   4.258   5.176   5.639  1.6913 -0.2033  0.3075
  671MOL0     C90490   4.147   5.173   5.746 -0.1386 -0.5622 -0.8973
  671MOL0     C90491   4.008   5.182   5.681  0.4070  0.8741 -0.5061
  671MOL0     C90492   3.905   5.190   5.801  1.0427  0.3971 -0.2703
  671MOL0     C90493   3.765   5.167   5.742  0.2375  0.0361  0.1254
  671MOL0     C90494   3.656   5.218   5.846 -0.4028 -0.1475  0.1314
  671MOL0    Cl90495   3.489   5.211   5.776 -0.2352 -0.0707  0.5604
  671MOL0     C90496   4.869   5.238   5.734  0.3112 -0.0778 -0.1294
  671MOL0     C90497   5.001   5.252   5.702  0.1400  0.4158  0.6603
  671MOL0     O90498   5.212   5.047   5.654 -0.4698 -0.4496 -0.1825
  671MOL0     C90499   5.418   5.179   5.393  0.0566  0.0926 -0.4696
  671MOL0     C90500   5.540   5.170   5.327  0.2562  0.8357 -0.5214
  671MOL0     N90501   5.763   4.573   4.957 -0.2744  0.0365 -0.5063
  671MOL0     N90502   5.864   4.516   4.895  0.4104  0.1573  0.3047
  671MOL0     C90503   7.004   5.005   5.005  0.1270 -0.0111  0.6264
  671MOL0     C90504   7.136   5.055   5.021 -0.0070 -0.6094  0.5668
  671MOL0     C90505   7.438   5.388   5.075 -0.0901 -0.0015 -0.3633
  671MOL0     C90506   7.432   5.521   5.123 -0.1290 -0.5011 -0.2697
  671MOL0     C90507   7.546   5.596   5.158 -0.2791 -0.3718  0.1846
  671MOL0     C90508   7.668   5.534   5.129 -0.2792  0.9294 -0.5832
  671MOL0     O90509   7.775   5.621   5.152 -0.4957  0.1012  0.6554
  671MOL0     C90510   7.909   5.581   5.092  0.7883  0.6480 -0.3929
  671MOL0     C90511   7.917   5.585   4.937  0.2483  0.3762  0.5472
  671MOL0     C90512   7.889   5.721   4.881  0.0745  0.1129 -0.2423
  671MOL0     C90513   7.886   5.716   4.731 -0.0353  0.3554  0.7003
  671MOL0     C90514   7.759   5.665   4.665 -0.9424 -0.0764  0.1113
  671MOL0     C90515   7.664   5.616   4.601 -0.6613 -0.7551 -0.0823
  671MOL0     C90516   7.676   5.398   5.088  0.8655 -0.0143 -0.0552
  671MOL0     C90517   7.561   5.323   5.068  1.1575 -0.1129  0.1790
  671MOL0     H90518   7.136   5.267   4.755 -0.6914 -1.0081 -1.2414
  671MOL0     H90519   6.927   5.183   4.725 -1.7201 -0.6808  0.5364
  671MOL0     H90520   6.764   4.937   5.062 -0.0197  1.8796 -0.0754
  671MOL0     H90521   6.712   5.096   5.042 -1.4560  1.4038 -0.4314
  671MOL0     H90522   6.535   4.954   5.057  2.1662  1.4095  1.0845
  671MOL0     H90523   6.525   5.005   4.894 -4.4378 -1.4324  1.3557
  671MOL0     H90524   6.654   4.813   4.805 -0.4555 -2.1992 -0.5752
  671MOL0     H90525   6.616   4.723   4.955 -3.4009 -0.3520  1.8687
  671MOL0     H90526   6.401   4.853   4.779  0.3630  0.5110 -0.7499
  671MOL0     H90527   6.442   4.685   4.776  0.2726 -0.3368  0.7333
  671MOL0     H90528   6.365   4.658   5.017 -1.9742  1.2930  1.7575
  671MOL0     H90529   6.338   4.834   5.019  1.1367  0.6268 -0.5514
  671MOL0     H90530   6.133   4.737   4.985  2.2021  0.1024  1.9984
  671MOL0     H90531   6.177   4.796   4.827  2.9390  1.1110  0.4560
  671MOL0     H90532   6.110   4.580   4.749 -1.3658  0.4496 -0.0076
  671MOL0     H90533   6.270   4.531   4.813 -1.4776 -2.6057 -1.0847
  671MOL0     H90534   6.150   4.459   5.028 -3.1729 -0.6992  1.1565
  671MOL0     H90535   6.086   4.394   4.870 -1.4240  0.2642 -0.0709
  671MOL0     H90536   6.006   4.609   5.174  1.6552  1.6638 -1.3575
  671MOL0     H90537   5.617   4.617   5.195  1.8574 -4.0497  0.9751
  671MOL0     H90538   5.756   4.659   5.291  0.3467 -0.3370 -1.3732
  671MOL0     H90539   5.620   4.840   5.258 -0.1267 -2.4412 -0.4136
  671MOL0     H90540   5.619   4.821   5.079 -0.0275 -0.1751 -0.8031
  671MOL0     H90541   5.847   4.902   5.056 -1.6395  1.2816 -0.5884
  671MOL0     H90542   5.877   4.880   5.233  1.0464  1.3423  0.9669
  671MOL0     H90543   5.674   5.086   5.134 -0.8563  0.0054  1.6424
  671MOL0     H90544   5.851   5.111   5.156  2.4233 -2.1736  0.7616
  671MOL0     H90545   5.680   4.949   5.550  0.3748 -0.8526  0.2262
  671MOL0     H90546   5.434   5.017   5.788  0.4669 -1.3515  1.7683
  671MOL0     H90547   5.409   4.873   5.687 -2.0056 -0.0101 -1.7621
  671MOL0     H90548   5.570   4.924   5.744 -0.1766 -1.1449 -2.8467
  671MOL0     H90549   4.967   5.160   5.381 -1.3421 -2.6466  0.5884
  671MOL0     H90550   4.732   5.132   5.449 -0.6802 -1.5587  1.3489
  671MOL0     H90551   4.510   5.290   5.586  2.1147  0.0613 -0.3400
  671MOL0     H90552   4.526   5.115   5.536 -0.4611  1.2729 -2.4026
  671MOL0     H90553   4.392   5.082   5.771 -0.8008  0.2343 -0.9579
  671MOL0     H90554   4.390   5.249   5.794 -2.5395 -2.4110  3.5515
  671MOL0     H90555   4.233   5.086   5.582  0.1425 -0.3777  1.2109
  671MOL0     H90556   4.247   5.264   5.576 -0.2968  0.0666  0.9761
  671MOL0     H90557   4.162   5.082   5.804 -0.8654 -0.5390 -0.6664
  671MOL0     H90558   4.156   5.263   5.808 -1.1504  0.1110 -1.6805
  671MOL0     H90559   3.975   5.097   5.622 -5.6116  0.5313  2.5549
  671MOL0     H90560   3.989   5.270   5.619 -1.2743  0.8097 -0.1250
  671MOL0     H90561   3.923   5.118   5.882  4.0077  0.6474 -0.5700
  671MOL0     H90562   3.908   5.290   5.844 -2.3703  0.3456  0.3688
  671MOL0     H90563   3.739   5.063   5.718 -1.3708  0.8906 -2.1490
  671MOL0     H90564   3.759   5.211   5.642  2.9100 -0.1405 -0.2001
  671MOL0     H90565   3.664   5.324   5.871 -0.0357 -0.5539  1.8466
  671MOL0     H90566   3.651   5.165   5.942  2.0793  1.7378  1.4076
  671MOL0     H90567   4.844   5.256   5.838 -1.9585  1.9876 -0.9249
  671MOL0     H90568   5.081   5.291   5.764  0.7791 -0.7970  0.6272
  671MOL0     H90569   5.338   5.237   5.347 -1.9207  0.2653  2.8963
  671MOL0     H90570   5.558   5.228   5.237 -0.7816  1.1724 -0.5349
  671MOL0     H90571   6.966   4.932   5.075 -0.3743 -0.4873 -0.1261
  671MOL0     H90572   7.204   5.023   5.099  2.1583  0.7499 -0.6464
  671MOL0     H90573   7.338   5.575   5.131  0.2986  0.2862 -0.4685
  671MOL0     H90574   7.531   5.701   5.182  1.9281  0.2851 -0.9791
  671MOL0     H90575   7.985   5.652   5.126  2.4551 -0.4683 -1.6084
  671MOL0     H90576   7.941   5.483   5.129  0.2653  0.6553  0.0922
  671MOL0     H90577   7.836   5.521   4.899 -1.7288  3.6453 -1.2534
  671MOL0     H90578   8.015   5.554   4.901  0.4952  2.5298 -0.8458
  671MOL0     H90579   7.956   5.793   4.928 -0.9454  1.7164 -1.1280
  671MOL0     H90580   7.788   5.753   4.911 -1.3657 -3.4254 -0.8839
  671MOL0     H90581   7.970   5.658   4.692 -0.1195  2.4752 -3.0672
  671MOL0     H90582   7.906   5.818   4.698  0.3970 -0.7848 -3.0530
  671MOL0     H90583   7.592   5.566   4.539 -2.3126 -1.5041  2.3057
  671MOL0     H90584   7.771   5.349   5.069  1.5807  2.4378 -3.7916
  671MOL0     H90585   7.580   5.216   5.057  1.6151 -0.1506  1.1642
  672MOL0     O90586   2.334   6.859  10.003  0.1121  0.0529 -0.7019
  672MOL0     C90587   2.319   6.749   9.958  0.3830 -0.7898 -0.1846
  672MOL0     O90588   2.191   6.687   9.932  0.1718  0.0051 -0.5789
  672MOL0     C90589   2.064   6.753   9.939 -0.2450  0.0130 -0.5816
  672MOL0     C90590   2.058   6.894   9.915  0.0921  0.5737 -0.3072
  672MOL0     C90591   1.950   6.967   9.953 -0.2416  0.6730  0.3465
  672MOL0     C90592   1.834   6.900  10.006 -0.6401 -0.6321  0.4190
  672MOL0     O90593   1.728   6.970  10.055 -0.1021  0.4496 -0.4038
  672MOL0     C90594   1.593   6.944  10.036 -0.2532  0.2915  1.2179
  672MOL0     C90595   1.534   7.065   9.959  0.4472 -0.9957 -0.7561
  672MOL0     C90596   1.385   7.042   9.914 -0.6353 -0.3296  0.2074
  672MOL0     C90597   1.287   7.049  10.035  1.0695  0.4204  0.0861
  672MOL0     C90598   1.138   7.067   9.986  0.1656  0.4987 -0.5316
  672MOL0     C90599   1.049   7.080  10.113 -0.0542 -0.0831 -0.0646
  672MOL0     C90600   0.906   7.110  10.063  0.5964 -0.5214  0.1736
  672MOL0     C90601   0.816   7.142  10.186  0.1920 -0.0424  0.4341
  672MOL0     N90602   0.677   7.143  10.148 -0.2912  0.0617  0.1484
  672MOL0     C90603   0.623   7.207  10.039 -0.7774 -0.0783 -0.2833
  672MOL0     C90604   0.507   7.143  10.014 -0.6562 -0.1841 -0.3250
  672MOL0     C90605   0.424   7.137   9.886 -0.3156 -0.2540 -1.2641
  672MOL0     C90606   0.366   7.272   9.853  0.4501  0.0594  0.5642
  672MOL0     C90607   0.285   7.288   9.723 -0.0164  0.4743 -0.0676
  672MOL0     C90608   0.148   7.216   9.733  0.8002 -0.6265 -0.4572
  672MOL0     O90609   0.075   7.234   9.610 -0.1900 -0.2126  0.1176
  672MOL0     C90610  -0.063   7.207   9.606 -0.3777 -0.5262 -0.7739
  672MOL0     C90611  -0.144   7.162   9.713  1.0991 -0.5261 -0.9285
  672MOL0     C90612  -0.284   7.141   9.701 -0.0081 -0.1928 -0.1453
  672MOL0     C90613  -0.350   7.079   9.823  0.1733 -0.0617 -0.2585
  672MOL0     C90614  -0.344   7.197   9.586 -0.4996  0.1875  0.4806
  672MOL0     C90615  -0.493   7.180   9.555  0.2061  0.7403  0.0682
  672MOL0     O90616  -0.580   7.221   9.657 -0.0539 -0.1976  0.1668
  672MOL0     C90617  -0.715   7.198   9.630  0.1645  0.4880 -0.6959
  672MOL0     C90618  -0.782   7.226   9.511 -0.6391 -0.0327  0.5108
  672MOL0     C90619  -0.919   7.205   9.497 -0.0818 -0.0589 -0.0234
  672MOL0     C90620  -0.997   7.159   9.602  0.6159  0.4268 -0.3831
  672MOL0     O90621  -1.135   7.144   9.610 -0.0297  0.1328  0.4526
  672MOL0     C90622  -1.214   7.119   9.486  0.4543  0.9809  0.2558
  672MOL0     C90623  -1.351   7.163   9.501  0.0229 -0.2967 -0.5226
  672MOL0     C90624  -1.436   7.078   9.599 -0.3597 -0.2994 -0.3478
  672MOL0     C90625  -1.591   7.099   9.586 -0.4966 -1.0111  0.0695
  672MOL0     C90626  -1.664   7.094   9.719 -0.1026  0.8916 -0.5561
  672MOL0     C90627  -1.811   7.118   9.700 -0.0857 -0.6846  0.1017
  672MOL0     C90628  -1.886   7.005   9.625  0.3411  0.1227  0.6173
  672MOL0     C90629  -2.007   6.959   9.707  0.8353  0.1189 -0.0841
  672MOL0    Cl90630  -2.083   6.825   9.611  0.2432  0.5888 -0.1215
  672MOL0     C90631  -0.931   7.145   9.722 -0.7379  0.8551 -0.0329
  672MOL0     C90632  -0.792   7.160   9.740  0.3467 -0.4212 -0.1599
  672MOL0     O90633  -0.519   7.136   9.445  0.1136  1.7962 -0.6454
  672MOL0     C90634  -0.263   7.248   9.486  0.2600 -0.4268 -0.0021
  672MOL0     C90635  -0.130   7.250   9.494 -0.5661 -0.2168 -0.1657
  672MOL0     N90636   0.481   7.058  10.113  0.7075 -0.2936  0.1472
  672MOL0     N90637   0.588   7.051  10.189  0.2777 -0.5072 -0.7508
  672MOL0     C90638   1.831   6.757  10.022 -0.2708  0.3781 -0.1012
  672MOL0     C90639   1.955   6.691   9.989  0.3827  0.3240  0.2058
  672MOL0     C90640   2.432   6.671   9.948 -0.2918  0.3416  0.1077
  672MOL0     C90641   2.558   6.722   9.956 -0.3393 -0.0973  0.0628
  672MOL0     C90642   2.675   6.651   9.929 -0.0515 -0.0728 -0.4528
  672MOL0     C90643   2.665   6.511   9.915  0.7286 -0.1165 -1.0997
  672MOL0     O90644   2.771   6.420   9.908  1.0003  0.6108 -0.2975
  672MOL0     C90645   2.873   6.478   9.833 -0.2489  0.7686 -0.2493
  672MOL0     C90646   2.982   6.376   9.838  0.6418  0.2642  0.0405
  672MOL0     C90647   3.109   6.452   9.803  0.3946 -0.0673  0.0381
  672MOL0     C90648   3.233   6.366   9.809 -0.7252 -0.8237  0.7643
  672MOL0     C90649   3.334   6.427   9.710  0.1606  0.0805  0.6833
  672MOL0     C90650   3.417   6.466   9.632  0.1075 -0.4810  0.0815
  672MOL0     C90651   2.533   6.455   9.916  0.2677  0.1182  1.0442
  672MOL0     C90652   2.421   6.534   9.921 -0.3453 -0.3058  0.7528
  672MOL0     H90653   2.139   6.939   9.858  1.1828 -0.9607 -0.0411
  672MOL0     H90654   1.954   7.074   9.937 -0.6586  0.6033 -0.2656
  672MOL0     H90655   1.581   6.851   9.979 -0.3680  1.0657 -0.0572
  672MOL0     H90656   1.549   6.928  10.135  2.2331  2.9200  2.8917
  672MOL0     H90657   1.541   7.147  10.030  1.4405 -2.8816  1.4727
  672MOL0     H90658   1.595   7.093   9.873  1.9374  1.4697  0.9782
  672MOL0     H90659   1.359   7.120   9.841 -2.3803  0.4780  1.6120
  672MOL0     H90660   1.382   6.946   9.862 -2.5138  0.4561 -1.2590
  672MOL0     H90661   1.290   6.961  10.100  3.3849  0.1186 -0.3524
  672MOL0     H90662   1.306   7.140  10.092 -2.0216  1.3000 -0.1408
  672MOL0     H90663   1.112   7.153   9.925 -2.8890  0.4127  0.4986
  672MOL0     H90664   1.102   6.980   9.930  1.3084 -1.2240  1.2943
  672MOL0     H90665   1.064   6.994  10.178 -0.2035  1.4800  2.1281
  672MOL0     H90666   1.079   7.171  10.166  2.5488  0.3743 -2.1144
  672MOL0     H90667   0.916   7.181   9.981 -1.5417 -2.0795 -1.5563
  672MOL0     H90668   0.860   7.023  10.014 -1.0424 -0.8724  2.1870
  672MOL0     H90669   0.844   7.230  10.245 -1.0468  0.0996  0.8289
  672MOL0     H90670   0.847   7.058  10.249  1.2481  1.0019  1.3556
  672MOL0     H90671   0.678   7.269   9.969  2.2063 -3.2320 -1.0042
  672MOL0     H90672   0.487   7.103   9.804  0.1526 -1.1931 -0.5379
  672MOL0     H90673   0.334   7.077   9.900 -0.5938 -0.0315 -2.0487
  672MOL0     H90674   0.452   7.340   9.843  0.0232  0.4663 -0.3968
  672MOL0     H90675   0.311   7.309   9.940  0.2756 -2.1748  1.4750
  672MOL0     H90676   0.343   7.241   9.644 -1.2318 -0.2775 -0.5420
  672MOL0     H90677   0.281   7.394   9.695 -0.8815  0.6396  0.6154
  672MOL0     H90678   0.093   7.260   9.817  0.2387 -0.8929 -0.6790
  672MOL0     H90679   0.166   7.109   9.747  0.9324 -0.6104 -0.4958
  672MOL0     H90680  -0.110   7.152   9.816 -1.3114  2.0342  0.2490
  672MOL0     H90681  -0.280   7.031   9.893  0.0034 -1.0678 -0.7636
  672MOL0     H90682  -0.399   7.155   9.884 -1.3922 -1.3186  0.1315
  672MOL0     H90683  -0.427   7.004   9.801  0.7172 -0.8922  0.5602
  672MOL0     H90684  -0.724   7.265   9.427  0.5232  0.8995  1.6961
  672MOL0     H90685  -0.968   7.234   9.404 -0.1407  1.4135  0.4355
  672MOL0     H90686  -1.175   7.182   9.407 -1.2504  1.5410 -0.1753
  672MOL0     H90687  -1.201   7.010   9.476 -3.0194  0.2870  1.8049
  672MOL0     H90688  -1.349   7.272   9.514  2.8284 -0.1121 -1.7892
  672MOL0     H90689  -1.400   7.155   9.403 -1.7763 -0.8217  0.3734
  672MOL0     H90690  -1.406   7.094   9.703 -0.0956  0.8776 -0.5907
  672MOL0     H90691  -1.405   6.975   9.577  0.1285  0.0360 -1.2672
  672MOL0     H90692  -1.605   7.206   9.569  3.3783 -0.3147  0.3768
  672MOL0     H90693  -1.637   7.042   9.505 -1.6280 -2.2207  1.5038
  672MOL0     H90694  -1.626   7.173   9.786 -0.4264  1.0341 -0.5378
  672MOL0     H90695  -1.650   6.999   9.770 -0.6442  1.0689 -0.0661
  672MOL0     H90696  -1.855   7.124   9.800  1.8776 -0.2022  0.9937
  672MOL0     H90697  -1.829   7.213   9.651  0.8987  0.5185  1.9373
  672MOL0     H90698  -1.821   6.917   9.613  0.5935  0.2999  0.6861
  672MOL0     H90699  -1.917   7.038   9.526  2.0146  0.6217  0.2166
  672MOL0     H90700  -2.079   7.039   9.730  0.7043 -0.4775  1.7335
  672MOL0     H90701  -1.966   6.928   9.804  1.6732 -1.8069 -1.0151
  672MOL0     H90702  -0.983   7.118   9.814 -1.5989  1.2799 -0.3870
  672MOL0     H90703  -0.752   7.142   9.839 -2.0514  2.6154  1.5538
  672MOL0     H90704  -0.304   7.304   9.403 -0.3781  2.0631  1.8591
  672MOL0     H90705  -0.071   7.294   9.414 -2.4749  0.8136 -1.0802
  672MOL0     H90706   1.744   6.707  10.064  0.3642 -1.2302 -0.6525
  672MOL0     H90707   1.956   6.586  10.014  0.2282  0.4663  0.8164
  672MOL0     H90708   2.560   6.826   9.989  0.8527 -0.0770 -0.0125
  672MOL0     H90709   2.773   6.696   9.933  0.6998 -1.7006  1.7101
  672MOL0     H90710   2.833   6.497   9.733 -2.2042 -0.2904  0.2715
  672MOL0     H90711   2.906   6.565   9.891 -0.6749  0.4252  0.5350
  672MOL0     H90712   2.966   6.287   9.776  0.1312 -0.0161  0.5620
  672MOL0     H90713   2.990   6.346   9.943  3.4190  2.0985  0.4519
  672MOL0     H90714   3.115   6.538   9.870  0.4017 -0.7312  0.9169
  672MOL0     H90715   3.100   6.492   9.702  0.4791  1.0067  0.4442
  672MOL0     H90716   3.211   6.263   9.779 -0.5086 -0.5158 -0.5174
  672MOL0     H90717   3.285   6.359   9.905  0.1035  2.4584  0.6768
  672MOL0     H90718   3.482   6.508   9.558  1.6256  1.2050  2.2226
  672MOL0     H90719   2.511   6.349   9.915 -3.3143  0.7341 -0.7768
  672MOL0     H90720   2.321   6.491   9.919 -0.3097 -0.6789  3.3489
  673MOL0     O90721   4.610   8.714   1.235  0.0796  0.1727 -0.3184
  673MOL0     C90722   4.642   8.712   1.119  0.1157 -0.1985 -0.1847
  673MOL0     O90723   4.556   8.723   1.006 -0.5242 -0.3838 -0.2880
  673MOL0     C90724   4.424   8.727   1.034 -0.1475 -0.9336 -0.0970
  673MOL0     C90725   4.349   8.844   1.054 -0.2868  0.0204 -0.2761
  673MOL0     C90726   4.210   8.849   1.069  0.0999 -0.9850 -0.7092
  673MOL0     C90727   4.140   8.727   1.058  0.4388  0.2667 -0.4441
  673MOL0     O90728   3.998   8.716   1.050  0.2125 -0.4328 -0.0320
  673MOL0     C90729   3.915   8.831   1.049 -1.0747  0.3004 -0.6302
  673MOL0     C90730   3.778   8.785   1.104  0.3070 -0.4601  0.1796
  673MOL0     C90731   3.707   8.686   1.021  0.2063 -0.3019  0.2453
  673MOL0     C90732   3.574   8.639   1.078  0.0050  0.6565  0.6559
  673MOL0     C90733   3.461   8.743   1.038  0.1811  0.2030 -0.4536
  673MOL0     C90734   3.325   8.687   1.052  0.9974  1.3289  0.2422
  673MOL0     C90735   3.207   8.792   1.067  0.4064  0.2625  0.1548
  673MOL0     C90736   3.067   8.730   1.111 -0.3241  0.0355 -0.6057
  673MOL0     N90737   2.957   8.827   1.128 -0.2865 -0.1008  0.2116
  673MOL0     C90738   2.887   8.879   1.239 -0.3175  0.2236  0.5127
  673MOL0     C90739   2.799   8.963   1.197  0.4557  0.2366 -0.7064
  673MOL0     C90740   2.715   9.047   1.289  0.1876  0.2514 -0.3045
  673MOL0     C90741   2.564   9.026   1.283 -0.0370 -0.3261 -0.0886
  673MOL0     C90742   2.521   9.058   1.141 -0.2241  0.4779  0.3259
  673MOL0     C90743   2.377   9.107   1.145  0.8659 -0.0793 -0.2139
  673MOL0     O90744   2.297   9.002   1.179  0.3192  0.1034  0.0218
  673MOL0     C90745   2.161   9.017   1.185 -0.6072 -0.2845  0.2434
  673MOL0     C90746   2.089   9.136   1.162 -1.5198  0.2283  0.2083
  673MOL0     C90747   1.952   9.139   1.168 -0.2143 -0.7144  0.7263
  673MOL0     C90748   1.886   9.270   1.143  0.2652  0.6736 -0.0674
  673MOL0     C90749   1.879   9.026   1.196 -0.2218  0.1002 -0.0110
  673MOL0     C90750   1.731   9.019   1.189  0.1991 -0.3132 -0.0841
  673MOL0     O90751   1.683   8.896   1.157 -0.5066  0.1009  0.3248
  673MOL0     C90752   1.547   8.877   1.169  1.1500 -0.3777 -0.5136
  673MOL0     C90753   1.483   8.880   1.294 -0.2904  0.4343 -0.8191
  673MOL0     C90754   1.343   8.851   1.294  0.4311 -0.6972 -0.8618
  673MOL0     C90755   1.273   8.841   1.177 -0.5545  0.1619 -0.4530
  673MOL0     O90756   1.130   8.852   1.176  0.2290  0.7654 -0.9829
  673MOL0     C90757   1.066   8.927   1.280  0.1387  0.2576 -0.3063
  673MOL0     C90758   0.917   8.955   1.238 -0.1397 -0.1324 -0.0882
  673MOL0     C90759   0.857   8.814   1.209  0.3582  0.8346  0.0691
  673MOL0     C90760   0.697   8.822   1.208 -0.5486 -0.6048 -0.3601
  673MOL0     C90761   0.645   8.899   1.094  0.5419 -0.0614 -0.3055
  673MOL0     C90762   0.495   8.915   1.093  0.2000  0.2154 -0.2314
  673MOL0     C90763   0.455   9.036   1.001  0.6643 -0.1246 -0.1754
  673MOL0     C90764   0.303   9.071   1.041  0.6157  0.2541 -0.1845
  673MOL0    Cl90765   0.262   9.221   0.958 -0.1397 -0.2664 -0.0633
  673MOL0     C90766   1.332   8.859   1.055 -0.2854 -0.1544  0.1028
  673MOL0     C90767   1.472   8.869   1.057  0.4368 -0.2922 -0.9076
  673MOL0     O90768   1.664   9.115   1.226 -0.7369 -0.3878  0.1712
  673MOL0     C90769   1.951   8.908   1.201 -0.2214  0.4075 -0.1252
  673MOL0     C90770   2.091   8.903   1.205  0.5195  0.6818  0.5408
  673MOL0     N90771   2.795   8.953   1.056 -0.9095 -0.3318  0.1804
  673MOL0     N90772   2.882   8.877   1.021  0.1743 -0.3054 -0.2547
  673MOL0     C90773   4.211   8.606   1.051  0.7326 -0.2490  0.2343
  673MOL0     C90774   4.354   8.609   1.030 -0.2019 -0.7020  0.2905
  673MOL0     C90775   4.785   8.689   1.087 -0.0700  0.4845 -0.1637
  673MOL0     C90776   4.826   8.620   0.972  0.3667 -0.3834  0.7963
  673MOL0     C90777   4.960   8.611   0.938  0.3371 -0.0409  0.5510
  673MOL0     C90778   5.056   8.654   1.027  1.6192  0.5398 -0.0867
  673MOL0     O90779   5.187   8.629   0.977  0.1067  0.0633 -0.4107
  673MOL0     C90780   5.298   8.669   1.066 -0.5941 -0.7836  0.2076
  673MOL0     C90781   5.345   8.817   1.063 -0.2120  0.7517  0.2197
  673MOL0     C90782   5.374   8.873   0.929 -0.1302 -0.4198  0.0947
  673MOL0     C90783   5.440   9.008   0.930 -0.1886  0.0783 -0.1157
  673MOL0     C90784   5.358   9.125   0.955 -0.5635 -1.0455  0.3617
  673MOL0     C90785   5.294   9.221   0.976  0.3146 -0.3684 -0.0179
  673MOL0     C90786   5.015   8.718   1.138  0.7259  0.0048 -0.5065
  673MOL0     C90787   4.883   8.736   1.177 -0.7474 -0.2500  0.5308
  673MOL0     H90788   4.401   8.938   1.068  0.5445 -0.5026  0.2094
  673MOL0     H90789   4.156   8.941   1.086 -0.2397 -1.4904  1.1707
  673MOL0     H90790   3.943   8.915   1.114 -3.4547  1.3868 -0.8940
  673MOL0     H90791   3.900   8.866   0.947  1.1026  0.6155 -0.8766
  673MOL0     H90792   3.795   8.733   1.199 -3.2239  0.5534  1.5122
  673MOL0     H90793   3.713   8.870   1.124 -2.0557 -2.4796  1.7379
  673MOL0     H90794   3.706   8.713   0.915  0.8986  1.2630  0.6077
  673MOL0     H90795   3.771   8.598   1.034 -0.1171 -0.6657 -0.5331
  673MOL0     H90796   3.549   8.539   1.044  1.0644  0.5578  0.1390
  673MOL0     H90797   3.584   8.629   1.187 -0.2556 -1.3891  0.5164
  673MOL0     H90798   3.469   8.828   1.106 -0.9303  1.1328 -1.4454
  673MOL0     H90799   3.484   8.775   0.936  1.2541 -1.8137 -0.9204
  673MOL0     H90800   3.312   8.625   0.963  2.9705  2.0833 -0.6337
  673MOL0     H90801   3.319   8.607   1.127 -0.4243 -0.5953 -1.7853
  673MOL0     H90802   3.233   8.864   1.145 -1.2381 -1.1792  2.1485
  673MOL0     H90803   3.190   8.838   0.969 -0.8145  0.4003  0.4229
  673MOL0     H90804   3.083   8.682   1.209  1.7572  1.5023 -0.1657
  673MOL0     H90805   3.031   8.661   1.034 -1.7461  1.8310 -1.6500
  673MOL0     H90806   2.913   8.859   1.343 -2.4746 -1.1115  0.8566
  673MOL0     H90807   2.758   9.035   1.389  1.5948 -0.8135 -1.0073
  673MOL0     H90808   2.734   9.146   1.247 -0.7392  0.5546 -0.0281
  673MOL0     H90809   2.518   9.095   1.355  1.1622 -0.0556  0.4410
  673MOL0     H90810   2.529   8.923   1.299  0.1841 -0.1602  1.6380
  673MOL0     H90811   2.524   8.966   1.081 -2.0829 -0.6379  1.8348
  673MOL0     H90812   2.583   9.139   1.102  0.6857  1.1010  2.8731
  673MOL0     H90813   2.334   9.150   1.054 -0.9980 -1.9535 -0.2967
  673MOL0     H90814   2.375   9.189   1.217 -0.7848 -0.5151  0.2836
  673MOL0     H90815   2.146   9.224   1.134  0.0364  0.0005  2.3985
  673MOL0     H90816   1.834   9.290   1.237  0.2208 -2.5238  0.6887
  673MOL0     H90817   1.959   9.352   1.150  0.8229  0.2265 -0.5190
  673MOL0     H90818   1.832   9.272   1.048  2.6317  0.1459 -1.5149
  673MOL0     H90819   1.537   8.901   1.386 -0.1109 -2.3456 -0.1876
  673MOL0     H90820   1.290   8.851   1.388  3.5831 -0.2711  1.0396
  673MOL0     H90821   1.074   8.873   1.374  3.2803 -0.6044 -0.9493
  673MOL0     H90822   1.128   9.012   1.307  0.2278 -0.3155  1.3879
  673MOL0     H90823   0.857   9.009   1.312  0.1061  2.3876 -1.6052
  673MOL0     H90824   0.925   9.018   1.148 -2.3197  2.1373  1.1758
  673MOL0     H90825   0.885   8.735   1.281  0.1705 -1.6166 -2.3820
  673MOL0     H90826   0.895   8.775   1.114  1.5547 -2.7256  1.8090
  673MOL0     H90827   0.655   8.722   1.197 -1.4555 -0.1573 -1.0271
  673MOL0     H90828   0.662   8.861   1.304 -0.6516 -2.6326  0.4784
  673MOL0     H90829   0.681   8.857   0.999  1.4872 -0.0606  0.0382
  673MOL0     H90830   0.692   8.997   1.108 -0.1822  0.0468  1.5504
  673MOL0     H90831   0.447   8.825   1.057 -3.6400  1.6530  0.8434
  673MOL0     H90832   0.463   8.927   1.197  2.6920 -0.4838  0.6914
  673MOL0     H90833   0.458   8.999   0.898 -1.7479 -0.3917 -0.2041
  673MOL0     H90834   0.529   9.113   1.024  1.5784 -1.6079  2.2208
  673MOL0     H90835   0.291   9.077   1.150  1.6394 -2.9092  0.1928
  673MOL0     H90836   0.239   8.990   1.004  0.7472 -1.1650  2.4563
  673MOL0     H90837   1.277   8.858   0.961 -1.7790 -0.5633  0.9412
  673MOL0     H90838   1.538   8.869   0.972 -1.3269 -0.7377 -2.3553
  673MOL0     H90839   1.901   8.811   1.201  0.4846  0.0317  0.4600
  673MOL0     H90840   2.142   8.808   1.219  0.7671  1.0557  2.4661
  673MOL0     H90841   4.153   8.517   1.028  0.3967  0.1324 -0.3984
  673MOL0     H90842   4.399   8.518   0.992 -0.2442 -0.8270  0.5365
  673MOL0     H90843   4.753   8.579   0.903 -0.0316  1.3658  0.1038
  673MOL0     H90844   4.986   8.557   0.847 -2.4093  0.8399 -0.8915
  673MOL0     H90845   5.283   8.641   1.170 -0.8459 -2.9244 -0.3430
  673MOL0     H90846   5.390   8.619   1.032  0.7653  1.4584  0.4073
  673MOL0     H90847   5.430   8.824   1.132 -0.1365  1.7133  0.0473
  673MOL0     H90848   5.263   8.865   1.118 -0.3831  1.2935 -0.4885
  673MOL0     H90849   5.281   8.888   0.873  1.0974  3.1631 -1.3021
  673MOL0     H90850   5.439   8.800   0.881 -0.4068 -0.6022 -0.0052
  673MOL0     H90851   5.496   9.023   0.838 -0.5664  0.9063 -0.2203
  673MOL0     H90852   5.516   9.004   1.009  1.5991 -2.8122 -1.8091
  673MOL0     H90853   5.238   9.302   1.018  0.8255  0.0563 -0.1460
  673MOL0     H90854   5.090   8.758   1.205  1.8470 -4.0391  0.9080
  673MOL0     H90855   4.865   8.785   1.272  1.6605  2.1604 -0.1050
  674MOL0     O90856   4.767   4.124   0.203  0.1242 -0.0190 -0.3132
  674MOL0     C90857   4.812   4.109   0.317  0.3463  0.2781  0.7165
  674MOL0     O90858   4.735   4.062   0.422 -0.2654 -0.3291  0.0309
  674MOL0     C90859   4.615   4.015   0.399  0.7847  0.8683  0.4990
  674MOL0     C90860   4.514   4.055   0.480  0.5631 -0.5405 -0.5899
  674MOL0     C90861   4.380   4.005   0.465 -0.3719 -0.1440 -0.4642
  674MOL0     C90862   4.345   3.924   0.355  0.5038 -0.0899  0.4338
  674MOL0     O90863   4.221   3.869   0.326  0.1207  0.1891  0.3366
  674MOL0     C90864   4.109   3.954   0.343  0.3098 -0.0713 -0.5716
  674MOL0     C90865   4.033   3.920   0.474 -0.5254  0.3140 -0.8925
  674MOL0     C90866   3.898   3.995   0.486 -0.0223  0.6640  0.0208
  674MOL0     C90867   3.773   3.950   0.419  0.2801  0.3099  0.4934
  674MOL0     C90868   3.643   3.979   0.492  0.6795 -0.1867 -0.1317
  674MOL0     C90869   3.604   3.847   0.563  0.2947 -0.7057  0.6252
  674MOL0     C90870   3.465   3.858   0.631 -0.0288 -0.2223  0.2779
  674MOL0     C90871   3.351   3.857   0.524  0.6197 -0.1129  0.2242
  674MOL0     N90872   3.220   3.841   0.588 -0.3357  0.3485  0.0506
  674MOL0     C90873   3.143   3.940   0.658  0.3843 -0.0032 -0.5754
  674MOL0     C90874   3.036   3.870   0.708  0.0735  0.3847 -1.0050
  674MOL0     C90875   2.915   3.940   0.758  0.0486 -0.0786  0.6867
  674MOL0     C90876   2.807   3.946   0.652  0.0365  0.3998  0.4632
  674MOL0     C90877   2.676   4.008   0.702  1.0788 -0.0993  1.0100
  674MOL0     C90878   2.594   4.050   0.579  0.8038 -0.6197 -0.6771
  674MOL0     O90879   2.464   4.107   0.604  0.6271  0.0285 -0.7255
  674MOL0     C90880   2.359   4.089   0.517 -0.0382 -0.3422  0.5337
  674MOL0     C90881   2.357   4.037   0.390 -0.0298 -0.0005 -0.6831
  674MOL0     C90882   2.238   4.037   0.305 -0.1301  0.1336  0.0693
  674MOL0     C90883   2.259   3.977   0.167  0.6679  0.4899  0.7422
  674MOL0     C90884   2.119   4.094   0.357 -0.0993 -0.3125 -0.1120
  674MOL0     C90885   1.996   4.108   0.281  0.1941 -0.4115 -0.0819
  674MOL0     O90886   1.925   4.214   0.323 -0.2758 -0.4730  0.2758
  674MOL0     C90887   1.802   4.243   0.272 -0.0676 -0.3921 -0.2536
  674MOL0     C90888   1.700   4.300   0.356 -0.0915  1.0335 -0.6184
  674MOL0     C90889   1.574   4.329   0.318  0.1200  0.9757  0.7537
  674MOL0     C90890   1.538   4.318   0.175  0.5320 -0.6636 -1.0358
  674MOL0     O90891   1.413   4.353   0.124 -0.4954 -0.0978  0.2410
  674MOL0     C90892   1.349   4.457   0.193 -0.1539  0.0273  0.1080
  674MOL0     C90893   1.246   4.415   0.291  0.8928  0.1704 -0.5780
  674MOL0     C90894   1.179   4.536   0.359  0.0046 -1.0245 -0.0716
  674MOL0     C90895   1.103   4.490   0.486  0.4903 -0.0800 -0.3228
  674MOL0     C90896   1.000   4.593   0.550 -0.1017 -0.2573  0.2059
  674MOL0     C90897   0.927   4.531   0.671 -0.4010  0.5534 -0.4042
  674MOL0     C90898   0.842   4.408   0.641  0.4180  0.2152 -0.2208
  674MOL0     C90899   0.829   4.302   0.755 -0.4320  0.8677 -0.2913
  674MOL0    Cl90900   0.730   4.366   0.887 -0.0134 -0.1327  0.0704
  674MOL0     C90901   1.632   4.260   0.097 -0.9965  0.4055  0.8690
  674MOL0     C90902   1.760   4.229   0.144  0.0559  0.4580  1.1411
  674MOL0     O90903   1.965   4.040   0.189  0.6982  0.8191  0.2912
  674MOL0     C90904   2.131   4.152   0.491  0.2823  0.6313  0.8486
  674MOL0     C90905   2.243   4.145   0.571  0.4642 -0.3363  0.2002
  674MOL0     N90906   3.049   3.731   0.671  0.1473  0.0326 -0.3291
  674MOL0     N90907   3.156   3.719   0.595  0.1368 -0.4109  0.0796
  674MOL0     C90908   4.456   3.884   0.272  0.1534  0.0645 -0.3612
  674MOL0     C90909   4.584   3.922   0.292 -0.5799 -0.0791 -0.4362
  674MOL0     C90910   4.958   4.144   0.328  0.0534  0.0092  0.0508
  674MOL0     C90911   5.017   4.121   0.450 -0.0039  0.6016  0.2180
  674MOL0     C90912   5.153   4.140   0.480  0.0409 -0.7155 -0.4556
  674MOL0     C90913   5.237   4.183   0.384  0.7100  0.3805  0.7969
  674MOL0     O90914   5.364   4.214   0.417  0.8713 -0.2190 -0.3722
  674MOL0     C90915   5.446   4.276   0.325  0.6192 -0.2139  1.2939
  674MOL0     C90916   5.590   4.251   0.351  0.5947 -0.0101  0.3082
  674MOL0     C90917   5.636   4.115   0.306 -0.5494  0.6664  0.4463
  674MOL0     C90918   5.690   4.028   0.423  0.2719 -0.0223 -0.4487
  674MOL0     C90919   5.572   3.976   0.497  0.9162  0.1620 -0.6348
  674MOL0     C90920   5.475   3.936   0.565 -0.3608  0.1958 -0.0052
  674MOL0     C90921   5.175   4.207   0.254  0.0289 -1.1765 -0.1599
  674MOL0     C90922   5.040   4.185   0.227 -0.9843  0.5776 -0.2317
  674MOL0     H90923   4.533   4.137   0.549 -0.8662  0.8161 -1.7220
  674MOL0     H90924   4.300   4.044   0.527 -0.2974  1.3616 -1.2689
  674MOL0     H90925   4.136   4.060   0.349  1.5119 -0.4166  3.7290
  674MOL0     H90926   4.038   3.925   0.265 -0.7604 -2.8290  1.2817
  674MOL0     H90927   4.016   3.812   0.467  1.6984 -0.2597  1.0733
  674MOL0     H90928   4.096   3.947   0.559 -2.6621  1.1430  0.5012
  674MOL0     H90929   3.875   3.992   0.593  2.1934 -1.2721  0.5327
  674MOL0     H90930   3.919   4.091   0.438  1.6583 -1.1629 -3.3377
  674MOL0     H90931   3.767   4.004   0.324 -1.1680  2.1631  1.5721
  674MOL0     H90932   3.783   3.844   0.391  3.1608  1.0910 -1.9528
  674MOL0     H90933   3.650   4.060   0.564  2.5839 -1.7338  1.5476
  674MOL0     H90934   3.560   4.007   0.428 -0.5678 -1.3320  0.9262
  674MOL0     H90935   3.608   3.768   0.488  2.1103  2.6503 -3.2076
  674MOL0     H90936   3.677   3.830   0.643 -1.7403  0.8151  2.9593
  674MOL0     H90937   3.466   3.770   0.695  0.5839 -0.8371 -0.5644
  674MOL0     H90938   3.451   3.946   0.696  3.8567  1.0775 -0.4031
  674MOL0     H90939   3.356   3.772   0.455 -2.1622  1.9100 -2.7599
  674MOL0     H90940   3.354   3.947   0.462  1.2764  1.5099  2.4821
  674MOL0     H90941   3.151   4.048   0.668  0.5623 -0.0461 -0.2338
  674MOL0     H90942   2.872   3.897   0.850  1.5317  0.5432  1.7190
  674MOL0     H90943   2.934   4.044   0.784  0.5235 -0.0934  0.4097
  674MOL0     H90944   2.793   3.840   0.627  0.4389  0.1486  1.2553
  674MOL0     H90945   2.844   3.993   0.561 -1.6175  0.6200 -0.1198
  674MOL0     H90946   2.695   4.101   0.758 -0.6998  1.2722 -0.5307
  674MOL0     H90947   2.624   3.939   0.769  0.0524  1.0924  1.4881
  674MOL0     H90948   2.582   3.958   0.522 -2.2783 -1.3182  0.8451
  674MOL0     H90949   2.651   4.129   0.530  2.0601  0.9827  2.9703
  674MOL0     H90950   2.451   3.993   0.358  1.7170  3.6244 -1.0969
  674MOL0     H90951   2.174   3.910   0.152  0.5849  0.7151  0.2032
  674MOL0     H90952   2.266   4.055   0.091 -0.3961 -0.4396 -0.3494
  674MOL0     H90953   2.354   3.921   0.169  2.6501  3.6110  0.5593
  674MOL0     H90954   1.734   4.301   0.459  1.2950 -2.0209 -0.9155
  674MOL0     H90955   1.499   4.364   0.389 -0.4250  2.4099 -0.4904
  674MOL0     H90956   1.420   4.522   0.246 -0.4454  0.0601  0.4564
  674MOL0     H90957   1.304   4.521   0.116 -1.1743 -1.3514 -0.4630
  674MOL0     H90958   1.172   4.358   0.234  0.9658 -2.1242  1.4446
  674MOL0     H90959   1.294   4.346   0.361 -0.9497 -0.3084  0.2838
  674MOL0     H90960   1.109   4.589   0.294 -0.1260 -1.8472 -0.6271
  674MOL0     H90961   1.254   4.607   0.394  1.5355 -1.9910 -1.2499
  674MOL0     H90962   1.049   4.400   0.459  1.6718 -1.0411  0.4176
  674MOL0     H90963   1.180   4.482   0.563 -0.9263  1.2515  1.3140
  674MOL0     H90964   0.930   4.621   0.471 -1.0272 -0.4853  0.9350
  674MOL0     H90965   1.055   4.685   0.573 -2.6216  1.5824 -0.6942
  674MOL0     H90966   1.007   4.507   0.742  0.2963 -3.4605 -2.3104
  674MOL0     H90967   0.875   4.617   0.715 -2.9015 -0.9730 -0.2200
  674MOL0     H90968   0.894   4.351   0.564 -0.8986 -0.0747 -0.9145
  674MOL0     H90969   0.738   4.424   0.610  0.4942  0.2110 -0.4764
  674MOL0     H90970   0.928   4.276   0.794  1.0333  3.1192 -2.1988
  674MOL0     H90971   0.791   4.213   0.705  1.8450  0.2924 -1.1219
  674MOL0     H90972   1.601   4.244  -0.006  1.7649 -1.2685  0.2110
  674MOL0     H90973   1.830   4.196   0.069 -2.6851  1.4120 -2.0710
  674MOL0     H90974   2.050   4.197   0.547 -0.5445 -1.8994  1.7843
  674MOL0     H90975   2.255   4.186   0.671  3.5616  1.0791 -0.6291
  674MOL0     H90976   4.435   3.813   0.192  1.1522  1.0596 -1.5514
  674MOL0     H90977   4.661   3.880   0.228 -0.0814  0.9000 -0.5015
  674MOL0     H90978   4.951   4.081   0.526 -0.2630 -1.0868 -0.8515
  674MOL0     H90979   5.196   4.122   0.578 -0.6864 -0.5129 -0.0876
  674MOL0     H90980   5.425   4.245   0.222  0.0384  2.8425  0.3687
  674MOL0     H90981   5.426   4.383   0.335  0.3125  0.0308 -1.3112
  674MOL0     H90982   5.604   4.272   0.457 -0.6184 -0.0496  0.4946
  674MOL0     H90983   5.645   4.321   0.288 -1.1617  0.2084 -1.0801
  674MOL0     H90984   5.719   4.123   0.236 -1.0109  3.5633  0.1065
  674MOL0     H90985   5.557   4.060   0.255 -0.0075  1.5550 -1.4313
  674MOL0     H90986   5.749   4.088   0.492 -2.3503  1.9872  0.2456
  674MOL0     H90987   5.760   3.949   0.396  2.4585  1.7088 -0.1770
  674MOL0     H90988   5.384   3.897   0.604 -0.4367 -0.4649 -0.8264
  674MOL0     H90989   5.239   4.256   0.181  1.6686 -0.1019  1.8829
  674MOL0     H90990   5.005   4.211   0.128 -0.2422 -0.2110 -0.7062
  675MOL0     O90991  10.990   2.889   5.629  0.3486  0.5410 -0.5074
  675MOL0     C90992  11.030   2.783   5.583 -0.4338 -0.3569 -1.2013
  675MOL0     O90993  10.963   2.671   5.545 -0.6586  0.2270  0.0089
  675MOL0     C90994  10.834   2.664   5.573 -0.4425 -0.9164  0.4361
  675MOL0     C90995  10.761   2.713   5.684  0.1395 -0.1236  0.0072
  675MOL0     C90996  10.621   2.695   5.694 -0.5660 -0.6475 -0.7821
  675MOL0     C90997  10.553   2.620   5.593  0.7712  0.5731 -0.1310
  675MOL0     O90998  10.421   2.591   5.617  0.0723  0.5533 -0.3224
  675MOL0     C90999  10.356   2.497   5.535 -1.0899  0.5917  0.1938
  675MOL0     C91000  10.224   2.463   5.594  0.8293  0.1339 -0.0124
  675MOL0     C91001  10.118   2.441   5.475 -0.5870  0.2966 -0.1112
  675MOL0     C91002   9.974   2.427   5.526  0.3981 -0.6846  0.7736
  675MOL0     C91003   9.889   2.387   5.408  0.0592  0.4560  1.0218
  675MOL0     C91004   9.746   2.384   5.456  0.0459  0.0798 -0.8516
  675MOL0     C91005   9.637   2.336   5.358 -0.0922 -0.3797 -0.4565
  675MOL0     C91006   9.510   2.325   5.428  0.1534 -0.2610 -0.0908
  675MOL0     N91007   9.461   2.444   5.491 -0.6629 -0.4394  0.4723
  675MOL0     C91008   9.383   2.543   5.437  0.3756  0.1833  0.5204
  675MOL0     C91009   9.326   2.604   5.545  0.4649  0.1408 -0.2403
  675MOL0     C91010   9.232   2.720   5.538 -0.5049  0.0074 -0.3351
  675MOL0     C91011   9.243   2.814   5.656  0.1536  0.6802 -0.1244
  675MOL0     C91012   9.154   2.931   5.639 -0.4495 -0.1215  0.0198
  675MOL0     C91013   9.172   2.997   5.506  0.1661 -0.4759 -0.6470
  675MOL0     O91014   9.089   2.944   5.409  0.1072 -0.0004 -0.4402
  675MOL0     C91015   8.951   2.965   5.389 -0.4855 -0.1402  0.0373
  675MOL0     C91016   8.876   3.061   5.455 -0.0816  0.7897 -0.0534
  675MOL0     C91017   8.736   3.081   5.422 -0.0958  0.2949 -0.1374
  675MOL0     C91018   8.663   3.204   5.482  0.0010  1.7531  0.4402
  675MOL0     C91019   8.673   2.996   5.333 -0.2431 -0.3839  0.4725
  675MOL0     C91020   8.530   2.993   5.277  0.5702  1.0073 -0.1148
  675MOL0     O91021   8.489   2.887   5.192 -0.1758 -0.2178  0.5854
  675MOL0     C91022   8.363   2.866   5.153  0.5029 -0.1505  0.4430
  675MOL0     C91023   8.302   2.742   5.162  0.3125  0.0508 -0.1401
  675MOL0     C91024   8.180   2.714   5.105  0.4802  0.3624 -0.0465
  675MOL0     C91025   8.107   2.815   5.026  0.8383 -0.0314 -0.5518
  675MOL0     O91026   7.974   2.792   4.980  0.0583  0.1921  0.4946
  675MOL0     C91027   7.932   2.658   4.936 -0.4288  0.4456  0.1502
  675MOL0     C91028   8.012   2.617   4.811 -0.3829  0.0556  0.7175
  675MOL0     C91029   7.965   2.482   4.754  0.1974  0.5007  0.1936
  675MOL0     C91030   8.051   2.430   4.638  0.3294  0.1570  0.5396
  675MOL0     C91031   8.180   2.361   4.693  0.2112 -0.3780 -0.2886
  675MOL0     C91032   8.274   2.325   4.575  0.2687  0.7254 -0.5005
  675MOL0     C91033   8.421   2.281   4.608 -0.7256 -0.3743 -0.4162
  675MOL0     C91034   8.499   2.267   4.483 -0.4907 -0.3042 -0.3544
  675MOL0    Cl91035   8.539   2.425   4.423 -0.0518  0.4310  0.0863
  675MOL0     C91036   8.168   2.944   5.025 -0.5506 -0.4151  0.1178
  675MOL0     C91037   8.294   2.967   5.086 -0.1250  0.9166  0.4287
  675MOL0     O91038   8.458   3.094   5.301 -0.4690 -0.0852 -0.0041
  675MOL0     C91039   8.753   2.888   5.280 -0.0850  0.3801  0.3648
  675MOL0     C91040   8.890   2.878   5.300 -0.0380 -0.5544  0.3262
  675MOL0     N91041   9.384   2.551   5.659  0.8615  0.3884  0.1494
  675MOL0     N91042   9.457   2.456   5.630 -0.1696 -0.5856  0.8075
  675MOL0     C91043  10.623   2.571   5.474 -0.0803 -1.2785  0.1482
  675MOL0     C91044  10.763   2.601   5.466 -0.8714  1.2023  0.3047
  675MOL0     C91045  11.173   2.787   5.558 -0.5344  0.6622  0.3154
  675MOL0     C91046  11.254   2.664   5.552  0.1368 -0.9015  0.9289
  675MOL0     C91047  11.395   2.674   5.520 -0.2421 -0.0460 -0.0485
  675MOL0     C91048  11.456   2.794   5.501  0.3870 -0.1637 -0.3143
  675MOL0     O91049  11.585   2.827   5.466 -0.2088  0.5845  0.1579
  675MOL0     C91050  11.694   2.736   5.487  0.1907 -0.3397  0.0021
  675MOL0     C91051  11.831   2.799   5.477 -0.7376 -0.0216 -0.7694
  675MOL0     C91052  11.843   2.897   5.359  1.0840  0.5120 -0.0995
  675MOL0     C91053  11.819   2.823   5.225 -0.4903 -0.3485  0.8499
  675MOL0     C91054  11.822   2.915   5.113  0.5309  0.8390  0.3736
  675MOL0     C91055  11.812   2.989   5.017 -0.5906  0.6204 -0.4541
  675MOL0     C91056  11.375   2.907   5.506 -0.0421 -0.3244 -0.2062
  675MOL0     C91057  11.238   2.908   5.533  0.2177  1.4387 -0.3762
  675MOL0     H91058  10.825   2.724   5.771  1.1493  1.6326 -0.9102
  675MOL0     H91059  10.580   2.718   5.792  2.5692 -1.5284  0.8602
  675MOL0     H91060  10.333   2.545   5.439 -1.9207 -1.6810 -0.8230
  675MOL0     H91061  10.413   2.406   5.517 -2.2883 -0.3436  0.9619
  675MOL0     H91062  10.224   2.371   5.652 -2.9028 -0.5232 -0.8506
  675MOL0     H91063  10.197   2.544   5.663  1.8157 -1.1608  1.9642
  675MOL0     H91064  10.114   2.527   5.408 -0.4257 -0.0448 -0.5699
  675MOL0     H91065  10.148   2.352   5.419 -0.3398 -0.4139  1.1032
  675MOL0     H91066   9.976   2.364   5.615  0.7388 -1.9536 -0.0979
  675MOL0     H91067   9.937   2.523   5.563  0.5369 -1.6214  3.5500
  675MOL0     H91068   9.905   2.464   5.332  1.7451  0.7534  1.6268
  675MOL0     H91069   9.919   2.289   5.369 -0.8868  1.0250 -1.3327
  675MOL0     H91070   9.750   2.307   5.534  1.7831  2.0103  1.1273
  675MOL0     H91071   9.724   2.479   5.506 -3.1093  0.1492 -2.1611
  675MOL0     H91072   9.633   2.400   5.269 -1.8033  1.8625  1.1170
  675MOL0     H91073   9.660   2.233   5.328  0.6713 -0.8984  1.7269
  675MOL0     H91074   9.514   2.247   5.505  1.2993  0.8185  1.0044
  675MOL0     H91075   9.437   2.293   5.354 -2.1753 -0.3787  2.0880
  675MOL0     H91076   9.388   2.562   5.330  3.5270  0.4643  0.6220
  675MOL0     H91077   9.266   2.779   5.453  0.3388  0.5083  0.3402
  675MOL0     H91078   9.127   2.699   5.515 -0.2559  0.2550 -1.8105
  675MOL0     H91079   9.347   2.846   5.670 -0.3618  1.4458  2.6787
  675MOL0     H91080   9.220   2.760   5.749  0.7881 -0.3116 -0.5264
  675MOL0     H91081   9.188   3.000   5.717 -1.1287 -0.8226  0.9610
  675MOL0     H91082   9.050   2.903   5.661 -1.1978  1.9457 -0.5987
  675MOL0     H91083   9.276   2.994   5.471  0.0497  0.6608 -1.1380
  675MOL0     H91084   9.138   3.101   5.510 -0.0623 -0.5764  0.8459
  675MOL0     H91085   8.933   3.142   5.500 -1.4196  1.6497  0.1281
  675MOL0     H91086   8.717   3.247   5.568 -0.3771  0.0544  1.5823
  675MOL0     H91087   8.642   3.278   5.405  0.9684  0.8325 -0.7444
  675MOL0     H91088   8.567   3.172   5.524  0.6788 -0.8690  0.2079
  675MOL0     H91089   8.341   2.654   5.213 -0.4150 -1.6378 -2.3151
  675MOL0     H91090   8.126   2.622   5.126 -1.8132  1.7246  0.3937
  675MOL0     H91091   7.958   2.595   5.022  2.2146 -0.4008 -1.1380
  675MOL0     H91092   7.827   2.664   4.909  0.0999  2.9472 -1.6426
  675MOL0     H91093   7.985   2.698   4.743  5.0004  2.6391  1.1045
  675MOL0     H91094   8.120   2.626   4.827 -0.4254  2.1836  0.0717
  675MOL0     H91095   7.858   2.489   4.732 -0.0688 -0.5740  1.0178
  675MOL0     H91096   7.972   2.414   4.840 -2.0123  2.6514  2.2161
  675MOL0     H91097   7.995   2.360   4.575  2.5843 -0.8154 -0.5029
  675MOL0     H91098   8.075   2.513   4.572  1.2316 -2.7153 -3.1190
  675MOL0     H91099   8.156   2.265   4.739  0.6240 -0.3845 -0.0836
  675MOL0     H91100   8.232   2.430   4.760 -1.0896  2.2038 -1.7878
  675MOL0     H91101   8.224   2.253   4.509 -0.9317  0.7356  0.3667
  675MOL0     H91102   8.278   2.417   4.516  1.1287  0.4513 -0.9053
  675MOL0     H91103   8.424   2.182   4.656  1.2811  0.3130  0.9955
  675MOL0     H91104   8.468   2.354   4.674 -0.9627  0.2810 -0.9584
  675MOL0     H91105   8.449   2.200   4.413 -2.4374 -1.0262  1.6140
  675MOL0     H91106   8.594   2.225   4.516  0.1471  2.0590  1.0085
  675MOL0     H91107   8.105   3.028   4.997 -0.0222  0.5107  1.6258
  675MOL0     H91108   8.348   3.057   5.057  0.6593 -0.0942 -1.3718
  675MOL0     H91109   8.703   2.819   5.214 -4.9000  5.1701 -1.7441
  675MOL0     H91110   8.953   2.810   5.245 -1.4497  0.0487 -2.1795
  675MOL0     H91111  10.561   2.522   5.399 -0.9546 -1.1095  0.7451
  675MOL0     H91112  10.814   2.563   5.379 -0.3948  1.6903  0.3589
  675MOL0     H91113  11.192   2.575   5.566 -1.3639 -0.7471 -3.4113
  675MOL0     H91114  11.454   2.583   5.513 -0.3323  0.0087 -3.2711
  675MOL0     H91115  11.680   2.694   5.587  0.0433  2.2556  1.1338
  675MOL0     H91116  11.683   2.655   5.413 -0.4993 -1.8752  1.7085
  675MOL0     H91117  11.899   2.717   5.453 -0.6874  0.2959 -1.7724
  675MOL0     H91118  11.853   2.845   5.574 -1.0105  0.5694 -0.9846
  675MOL0     H91119  11.936   2.954   5.362  0.5315  1.4075  0.4779
  675MOL0     H91120  11.774   2.982   5.371  0.8393  0.6477 -2.2190
  675MOL0     H91121  11.723   2.770   5.225 -0.3735 -0.6137  2.3999
  675MOL0     H91122  11.906   2.760   5.207 -0.0767 -0.2730  2.4296
  675MOL0     H91123  11.815   3.064   4.940 -1.1544  0.3884 -0.7057
  675MOL0     H91124  11.418   3.006   5.489  2.1935 -0.3351  4.0804
  675MOL0     H91125  11.183   3.002   5.536 -1.3861  0.5251 -0.5728
  676MOL0     O91126   4.916   4.019   3.088 -0.2013 -0.4210 -0.1848
  676MOL0     C91127   4.960   3.907   3.124  0.4064  0.0354 -0.1678
  676MOL0     O91128   4.892   3.823   3.206  0.7679 -0.1059  0.3784
  676MOL0     C91129   4.763   3.838   3.243 -0.7506 -0.1888 -0.1850
  676MOL0     C91130   4.669   3.898   3.165 -0.1791  0.0291  0.3555
  676MOL0     C91131   4.538   3.910   3.204  0.1200  0.0202 -0.0917
  676MOL0     C91132   4.505   3.844   3.327  0.3027  0.0249  0.0967
  676MOL0     O91133   4.374   3.828   3.371 -0.2126  1.0081  0.2356
  676MOL0     C91134   4.263   3.901   3.307  0.9586  0.6703 -0.4749
  676MOL0     C91135   4.144   3.861   3.383  0.1350 -0.1802 -1.0377
  676MOL0     C91136   4.014   3.900   3.313 -0.8549 -0.3953  0.0713
  676MOL0     C91137   3.980   3.784   3.224  0.1507 -0.0070 -0.4585
  676MOL0     C91138   3.857   3.813   3.133 -0.2813  0.9109 -0.4785
  676MOL0     C91139   3.730   3.842   3.209 -0.3379 -0.4592 -0.3281
  676MOL0     C91140   3.694   3.997   3.224 -0.1701 -0.0721 -0.1095
  676MOL0     C91141   3.662   4.063   3.089  0.1920  0.1491 -0.0972
  676MOL0     N91142   3.516   4.067   3.068 -0.1031 -0.1768  0.2529
  676MOL0     C91143   3.445   3.987   2.979 -0.2287 -0.1115 -0.0806
  676MOL0     C91144   3.321   4.035   2.975  0.0066  0.6103  0.0879
  676MOL0     C91145   3.206   3.988   2.894  0.4051 -0.0701  0.3356
  676MOL0     C91146   3.076   4.060   2.924  0.1685 -0.6270  0.1413
  676MOL0     C91147   2.962   4.010   2.837 -0.4352  0.7282 -0.5937
  676MOL0     C91148   2.841   4.097   2.854  0.2185  0.2782 -0.2783
  676MOL0     O91149   2.752   4.047   2.748 -0.1351  0.4950  0.3744
  676MOL0     C91150   2.622   4.087   2.744  0.0904  0.7205  0.8759
  676MOL0     C91151   2.561   4.064   2.626 -0.1259  0.4029  0.4877
  676MOL0     C91152   2.432   4.108   2.595 -0.5809 -0.5338 -0.1255
  676MOL0     C91153   2.380   4.071   2.462  0.2512  0.1947 -0.2199
  676MOL0     C91154   2.361   4.180   2.692  0.0016  0.0955  0.5256
  676MOL0     C91155   2.211   4.207   2.684  0.2050 -0.2188  0.9042
  676MOL0     O91156   2.165   4.277   2.794 -0.3597  0.0494 -0.0997
  676MOL0     C91157   2.037   4.304   2.815 -0.2406  0.1101  0.0513
  676MOL0     C91158   1.948   4.202   2.793  0.7599  0.5062 -0.5408
  676MOL0     C91159   1.810   4.223   2.809 -0.3388 -0.0554 -0.0438
  676MOL0     C91160   1.768   4.346   2.857  0.1737  0.5215  0.2643
  676MOL0     O91161   1.630   4.348   2.884  0.3818  0.2097 -0.2039
  676MOL0     C91162   1.555   4.443   2.812 -0.2206  0.7760  0.3673
  676MOL0     C91163   1.407   4.465   2.866 -0.2441  0.6662 -0.8794
  676MOL0     C91164   1.312   4.353   2.829  0.8767  0.1420 -0.3130
  676MOL0     C91165   1.168   4.382   2.879 -0.3755 -0.4564  0.0059
  676MOL0     C91166   1.089   4.255   2.893 -0.2204 -0.9971  0.4568
  676MOL0     C91167   1.065   4.184   2.753 -0.2057  0.2654  0.3309
  676MOL0     C91168   0.990   4.262   2.653 -0.2354 -0.1000  0.4788
  676MOL0     C91169   0.941   4.176   2.540  0.6631 -0.6112  0.2657
  676MOL0    Cl91170   1.069   4.106   2.447 -0.0013 -0.2614 -0.0757
  676MOL0     C91171   1.861   4.453   2.876  0.9273  0.5927 -0.3684
  676MOL0     C91172   1.989   4.428   2.855 -0.3705 -0.2194 -0.1910
  676MOL0     O91173   2.140   4.160   2.595  0.1289  0.0351 -0.6420
  676MOL0     C91174   2.428   4.217   2.809 -0.0328 -0.4321  0.4397
  676MOL0     C91175   2.557   4.176   2.829  0.3683 -0.1926 -0.0392
  676MOL0     N91176   3.322   4.142   3.064 -0.3749  0.0228  0.1311
  676MOL0     N91177   3.434   4.163   3.110  0.9874 -0.1696 -0.0524
  676MOL0     C91178   4.602   3.788   3.405 -0.3791  0.2303  0.3169
  676MOL0     C91179   4.732   3.780   3.363 -0.2101 -0.3159 -0.8980
  676MOL0     C91180   5.090   3.871   3.077 -0.1023  0.1687 -0.1731
  676MOL0     C91181   5.148   3.950   2.986 -0.1019 -0.0307  0.0275
  676MOL0     C91182   5.275   3.930   2.944 -1.0016 -0.3925  0.6197
  676MOL0     C91183   5.347   3.820   2.981 -0.2371  0.2990 -0.6408
  676MOL0     O91184   5.469   3.802   2.917 -0.1690  0.5420  0.4203
  676MOL0     C91185   5.552   3.691   2.962  0.3723 -0.8057 -0.3536
  676MOL0     C91186   5.491   3.552   2.916  0.2390 -0.3306  0.2945
  676MOL0     C91187   5.548   3.426   2.981  0.0472  0.1225 -0.2191
  676MOL0     C91188   5.458   3.304   2.995  0.3688 -1.0132  0.0347
  676MOL0     C91189   5.338   3.318   3.083 -0.0149  0.2714  0.5284
  676MOL0     C91190   5.238   3.325   3.143  0.5617  0.0830 -0.7285
  676MOL0     C91191   5.293   3.737   3.083  0.3680  0.3783  0.5272
  676MOL0     C91192   5.159   3.766   3.130 -0.8619  1.2091  0.0169
  676MOL0     H91193   4.692   3.936   3.066 -1.2843 -1.1754 -0.3979
  676MOL0     H91194   4.457   3.958   3.150  0.5083 -0.4435 -1.1019
  676MOL0     H91195   4.272   4.010   3.316  0.8024  0.7065 -0.7616
  676MOL0     H91196   4.249   3.863   3.206 -1.9653  0.3829 -0.0542
  676MOL0     H91197   4.137   3.759   3.420  1.9970  0.6251  1.8885
  676MOL0     H91198   4.141   3.929   3.469 -2.1346 -0.2244 -1.0320
  676MOL0     H91199   3.931   3.917   3.383 -0.7709  0.3912 -0.0186
  676MOL0     H91200   4.023   3.992   3.255 -0.7849  0.4931  1.4483
  676MOL0     H91201   4.066   3.757   3.161  2.2825  2.9707  0.9491
  676MOL0     H91202   3.956   3.698   3.288 -0.6377  0.5341 -0.0058
  676MOL0     H91203   3.892   3.890   3.063  0.2783 -0.0504 -1.2864
  676MOL0     H91204   3.834   3.723   3.073  0.9735 -1.6529  2.6175
  676MOL0     H91205   3.637   3.806   3.164 -0.8347  0.2051  0.1522
  676MOL0     H91206   3.739   3.804   3.312  0.4939  0.8191  0.0971
  676MOL0     H91207   3.607   4.015   3.287  0.4014 -2.1118  1.3672
  676MOL0     H91208   3.778   4.055   3.264 -1.1523  0.8331  0.6848
  676MOL0     H91209   3.717   4.011   3.010  1.5860 -0.3285  1.1445
  676MOL0     H91210   3.701   4.164   3.079 -1.4805  1.1832  2.7330
  676MOL0     H91211   3.499   3.912   2.921 -0.0770 -1.6408  1.9617
  676MOL0     H91212   3.225   4.003   2.787 -1.6168 -3.3954 -0.6486
  676MOL0     H91213   3.199   3.879   2.899 -0.9767 -0.1278 -1.5446
  676MOL0     H91214   3.088   4.166   2.902  1.4660 -1.2397 -2.4864
  676MOL0     H91215   3.054   4.051   3.031  1.3130  2.0928  0.6757
  676MOL0     H91216   2.932   3.909   2.867  0.8845  1.0073  1.9676
  676MOL0     H91217   2.990   3.995   2.733  1.6455  0.9858 -0.1157
  676MOL0     H91218   2.853   4.206   2.848  0.0674  0.5474  2.7344
  676MOL0     H91219   2.792   4.077   2.950  0.9604  1.3534  0.3472
  676MOL0     H91220   2.606   4.005   2.546 -2.2149 -1.5098  0.6186
  676MOL0     H91221   2.446   4.000   2.411 -1.3218  0.5816 -2.9832
  676MOL0     H91222   2.280   4.027   2.466  0.1686  0.4723  2.6379
  676MOL0     H91223   2.380   4.165   2.405 -1.6310 -0.5119 -1.5005
  676MOL0     H91224   1.977   4.103   2.758 -3.3306 -0.5668 -1.4869
  676MOL0     H91225   1.741   4.143   2.784  0.1382 -0.6059  0.3874
  676MOL0     H91226   1.610   4.537   2.811 -2.3979  2.2631  3.3448
  676MOL0     H91227   1.556   4.422   2.705  0.6372  1.5655  0.2126
  676MOL0     H91228   1.412   4.470   2.975  0.7781 -0.6613 -0.8362
  676MOL0     H91229   1.372   4.560   2.824  2.6228  2.5223  0.6376
  676MOL0     H91230   1.342   4.259   2.876  1.6168  0.2326 -0.5971
  676MOL0     H91231   1.302   4.335   2.721 -1.4855 -3.8436  0.3307
  676MOL0     H91232   1.175   4.431   2.976  0.9804 -1.1708  0.2956
  676MOL0     H91233   1.131   4.459   2.811  2.1059  1.2815  0.4560
  676MOL0     H91234   0.996   4.279   2.945  1.1792  1.9055  1.8485
  676MOL0     H91235   1.141   4.185   2.959 -1.3696 -1.2020  1.1623
  676MOL0     H91236   1.163   4.150   2.718  1.0811  0.0884  3.7462
  676MOL0     H91237   1.013   4.088   2.766  0.4277 -0.2317 -0.6647
  676MOL0     H91238   1.046   4.345   2.608  0.6976  0.0606  1.8758
  676MOL0     H91239   0.900   4.299   2.702 -0.5727  1.8365 -1.4043
  676MOL0     H91240   0.881   4.231   2.467  3.5828  0.7515 -1.3003
  676MOL0     H91241   0.870   4.103   2.580 -0.4796  1.0148  1.3260
  676MOL0     H91242   1.823   4.547   2.916  0.6506  0.1946  0.3206
  676MOL0     H91243   2.060   4.508   2.870  0.6598 -0.9809 -0.8170
  676MOL0     H91244   2.389   4.280   2.889 -1.7454  0.7142 -1.2254
  676MOL0     H91245   2.600   4.196   2.926  0.3581  3.1030 -0.6036
  676MOL0     H91246   4.561   3.744   3.495 -1.1915  1.6022  0.6519
  676MOL0     H91247   4.800   3.733   3.434  1.6480  1.0639 -1.6602
  676MOL0     H91248   5.093   4.035   2.946  2.1223  0.3552 -2.5058
  676MOL0     H91249   5.311   3.988   2.859 -1.4430 -0.7122  0.2058
  676MOL0     H91250   5.657   3.705   2.937 -0.1408  1.3899 -1.5946
  676MOL0     H91251   5.550   3.708   3.070 -0.3626  0.5199 -0.5420
  676MOL0     H91252   5.492   3.539   2.807  0.1539 -2.1243  0.4781
  676MOL0     H91253   5.385   3.558   2.942 -0.3309  1.1166 -2.0116
  676MOL0     H91254   5.587   3.458   3.078 -1.0453  3.0570 -0.6449
  676MOL0     H91255   5.634   3.399   2.920 -1.5877 -0.4493 -2.3919
  676MOL0     H91256   5.524   3.228   3.038  0.5608  0.1619  1.9433
  676MOL0     H91257   5.421   3.266   2.899  0.5403 -3.0145  0.7197
  676MOL0     H91258   5.144   3.341   3.192  1.7764 -0.0359  1.8263
  676MOL0     H91259   5.344   3.652   3.128  0.9951  0.7611  0.5470
  676MOL0     H91260   5.133   3.687   3.199  1.6363 -0.1036 -0.4475
  677MOL0     O91261  10.973  10.874  10.923  0.1937  0.1288 -0.2103
  677MOL0     C91262  11.066  10.859  10.995  0.2110  0.3728 -0.8228
  677MOL0     O91263  11.076  10.770  11.101 -0.5398  0.0014 -0.0591
  677MOL0     C91264  10.972  10.684  11.135  0.2761 -0.3723 -0.3476
  677MOL0     C91265  10.967  10.555  11.079  0.8434 -0.6050 -0.2604
  677MOL0     C91266  10.866  10.466  11.121 -0.1234  0.5232 -0.0607
  677MOL0     C91267  10.779  10.500  11.220 -0.8065 -0.4621 -0.2276
  677MOL0     O91268  10.686  10.417  11.272  0.1985  0.2294 -0.1070
  677MOL0     C91269  10.595  10.348  11.191  0.0117 -0.6888  0.0974
  677MOL0     C91270  10.455  10.354  11.260  0.3471 -0.6586 -0.3448
  677MOL0     C91271  10.373  10.476  11.231  0.1997  0.0897 -0.5539
  677MOL0     C91272  10.225  10.478  11.287  0.1790 -0.5669 -0.2576
  677MOL0     C91273  10.129  10.568  11.206 -0.5507  0.1334  0.7580
  677MOL0     C91274   9.981  10.550  11.226  0.3277  0.0576 -1.3154
  677MOL0     C91275   9.934  10.584  11.370 -0.7519  0.4797 -0.5579
  677MOL0     C91276   9.782  10.580  11.388 -1.5680  0.1968 -0.8454
  677MOL0     N91277   9.711  10.691  11.334  0.3884  0.3667 -0.6778
  677MOL0     C91278   9.616  10.760  11.409  0.3344 -0.1874  0.1460
  677MOL0     C91279   9.562  10.851  11.326  0.1447  0.9487  0.1875
  677MOL0     C91280   9.444  10.946  11.364 -0.0408  0.6146 -0.1922
  677MOL0     C91281   9.435  10.976  11.519 -0.5972 -0.3460  0.5728
  677MOL0     C91282   9.339  11.087  11.565  0.3405 -0.1190  0.1919
  677MOL0     C91283   9.197  11.073  11.514 -0.3126  0.2351 -0.1998
  677MOL0     O91284   9.124  11.194  11.533 -0.4639 -1.0322 -0.3264
  677MOL0     C91285   8.984  11.187  11.525  0.3535  0.0047 -0.1135
  677MOL0     C91286   8.917  11.159  11.405  0.7009  0.6951 -0.4673
  677MOL0     C91287   8.781  11.127  11.389  0.7589 -0.5955  0.4489
  677MOL0     C91288   8.734  11.077  11.251 -0.0789  0.7582  0.0473
  677MOL0     C91289   8.703  11.130  11.513 -0.8780 -0.4745  0.7463
  677MOL0     C91290   8.562  11.078  11.530 -0.2865  0.1262 -0.0215
  677MOL0     O91291   8.504  11.099  11.649  0.6693 -0.3606  0.4773
  677MOL0     C91292   8.377  11.058  11.686 -0.7800  0.6613  0.8467
  677MOL0     C91293   8.340  11.086  11.819  0.2370 -0.2126 -0.2085
  677MOL0     C91294   8.217  11.042  11.871  0.3831 -0.0515  0.2364
  677MOL0     C91295   8.122  10.975  11.789 -0.1449 -0.1281  0.3424
  677MOL0     O91296   7.988  10.945  11.824 -0.1104  0.2252 -0.1463
  677MOL0     C91297   7.940  10.982  11.959 -0.1740  0.0258 -0.0821
  677MOL0     C91298   7.785  10.980  11.965 -0.4375  0.9928  0.5626
  677MOL0     C91299   7.712  11.008  11.832  0.5269 -0.0603  0.5617
  677MOL0     C91300   7.561  11.027  11.848  0.0596  0.4687 -0.4515
  677MOL0     C91301   7.492  11.041  11.715  0.2630  0.0762 -0.4639
  677MOL0     C91302   7.338  11.037  11.738 -0.1642  0.2417 -0.1055
  677MOL0     C91303   7.279  10.894  11.727 -0.0782  0.2269  0.0527
  677MOL0     C91304   7.130  10.898  11.694  0.5779 -0.4429 -0.4733
  677MOL0    Cl91305   7.067  10.728  11.711  0.2900 -0.2092  0.6830
  677MOL0     C91306   8.154  10.948  11.662 -0.2572  0.5452 -0.3848
  677MOL0     C91307   8.286  10.978  11.608 -0.0709 -0.6446  0.3246
  677MOL0     O91308   8.505  11.025  11.434 -0.8532  0.2306  0.3865
  677MOL0     C91309   8.769  11.166  11.640  0.3262 -0.1668  0.3169
  677MOL0     C91310   8.908  11.192  11.644  0.2721  0.1168  0.5551
  677MOL0     N91311   9.617  10.831  11.200  0.4394 -0.8642 -0.5622
  677MOL0     N91312   9.696  10.732  11.205  0.0938 -0.3707 -0.1039
  677MOL0     C91313  10.775  10.634  11.274  0.4034  0.6845  0.1630
  677MOL0     C91314  10.873  10.721  11.228  0.6547  0.5463  0.0294
  677MOL0     C91315  11.192  10.926  10.974 -0.2199 -0.0020 -0.4550
  677MOL0     C91316  11.290  10.936  11.075  0.1529  0.5573 -0.0780
  677MOL0     C91317  11.408  11.002  11.037  0.7298 -0.3413 -0.0259
  677MOL0     C91318  11.435  11.052  10.911 -0.4217 -0.5375 -0.0953
  677MOL0     O91319  11.550  11.124  10.871  0.2528  0.2077  0.0886
  677MOL0     C91320  11.648  11.149  10.974 -0.2891 -0.9697  0.3820
  677MOL0     C91321  11.731  11.022  10.990  0.5082  0.2923  0.1165
  677MOL0     C91322  11.821  11.033  11.111  0.2549 -0.7729 -0.3905
  677MOL0     C91323  11.955  11.105  11.085  0.0551  0.5225  0.0242
  677MOL0     C91324  12.028  11.123  11.202  0.4458 -0.9834 -0.2513
  677MOL0     C91325  12.082  11.158  11.301 -0.3719  0.0175 -1.3071
  677MOL0     C91326  11.336  11.049  10.815 -1.1339 -0.2904 -0.0606
  677MOL0     C91327  11.219  10.984  10.845 -0.3774  0.2635  0.8841
  677MOL0     H91328  11.055  10.526  11.022  0.9540 -1.8303  0.5036
  677MOL0     H91329  10.870  10.363  11.085  0.4124  0.7322 -0.6078
  677MOL0     H91330  10.585  10.392  11.091  2.3239  0.6652  0.3928
  677MOL0     H91331  10.626  10.244  11.184  0.6986 -0.4260 -1.1246
  677MOL0     H91332  10.395  10.269  11.224  1.6697 -1.3930 -0.8830
  677MOL0     H91333  10.471  10.359  11.368 -0.2278  0.4460 -0.2997
  677MOL0     H91334  10.428  10.563  11.268 -1.9579  0.1444  2.9878
  677MOL0     H91335  10.362  10.497  11.124 -0.2044  1.1938 -0.3098
  677MOL0     H91336  10.185  10.376  11.285 -2.0968  0.2438  0.9617
  677MOL0     H91337  10.238  10.522  11.387  3.2180  2.6485 -1.8314
  677MOL0     H91338  10.157  10.673  11.225  2.1337  0.4465 -3.5909
  677MOL0     H91339  10.151  10.563  11.099  0.1819  0.0764  0.9061
  677MOL0     H91340   9.943  10.630  11.162 -0.4955 -0.7027 -1.8164
  677MOL0     H91341   9.952  10.457  11.175 -0.1383  1.3577 -3.5614
  677MOL0     H91342   9.994  10.516  11.432 -0.5865 -0.1568 -1.3952
  677MOL0     H91343   9.973  10.684  11.389 -0.2396  0.6689 -2.4232
  677MOL0     H91344   9.769  10.561  11.495 -1.5590 -1.7265 -1.1434
  677MOL0     H91345   9.748  10.487  11.341  0.1984 -1.6714  1.3264
  677MOL0     H91346   9.593  10.757  11.515  1.2012 -0.0732  0.3437
  677MOL0     H91347   9.462  11.045  11.321  3.6988  1.0138  1.9119
  677MOL0     H91348   9.352  10.899  11.326  1.1841 -0.1708 -2.3549
  677MOL0     H91349   9.537  10.996  11.552 -0.7972 -0.2492  1.1527
  677MOL0     H91350   9.413  10.884  11.574 -2.1011  0.5302  1.5036
  677MOL0     H91351   9.370  11.189  11.539  0.1483  0.5044  2.2055
  677MOL0     H91352   9.334  11.079  11.674 -0.7066 -3.4977  0.0017
  677MOL0     H91353   9.147  10.987  11.560  3.1601 -0.2020  3.2453
  677MOL0     H91354   9.201  11.064  11.405  1.8508  1.4123 -0.2676
  677MOL0     H91355   8.971  11.166  11.312  0.6906  1.0576 -0.4451
  677MOL0     H91356   8.728  10.968  11.237 -0.4341  0.8105 -0.2223
  677MOL0     H91357   8.639  11.130  11.238  0.2114  1.3144  0.1869
  677MOL0     H91358   8.792  11.112  11.165 -1.1909 -1.1509 -1.5862
  677MOL0     H91359   8.411  11.150  11.871 -1.2497  0.7108  0.7448
  677MOL0     H91360   8.189  11.076  11.970  1.9973 -0.7202  0.9619
  677MOL0     H91361   7.990  10.917  12.031 -0.1242 -0.6113 -0.6809
  677MOL0     H91362   7.972  11.086  11.970  0.6672 -0.0602 -1.4865
  677MOL0     H91363   7.748  10.887  12.008 -2.3080  2.2181  1.7778
  677MOL0     H91364   7.754  11.052  12.042  0.7502  1.0758  0.9825
  677MOL0     H91365   7.723  10.928  11.758  0.6420  0.6852 -0.2414
  677MOL0     H91366   7.760  11.098  11.792 -1.5076  1.7035  1.8610
  677MOL0     H91367   7.521  10.936  11.896 -1.2312 -0.5708 -3.2606
  677MOL0     H91368   7.539  11.115  11.910 -2.5197 -0.6455  0.3836
  677MOL0     H91369   7.518  10.965  11.641 -0.9261 -2.2973  1.4252
  677MOL0     H91370   7.514  11.140  11.675 -4.8055  1.2215 -1.1474
  677MOL0     H91371   7.309  11.091  11.829  1.3872  0.4782  0.2663
  677MOL0     H91372   7.288  11.086  11.654 -0.6604 -0.9721 -0.5440
  677MOL0     H91373   7.295  10.850  11.825 -0.2662 -1.7813 -0.7737
  677MOL0     H91374   7.339  10.839  11.654 -0.0421  0.1945  0.1076
  677MOL0     H91375   7.106  10.946  11.599 -1.4189  2.3734  1.3175
  677MOL0     H91376   7.085  10.961  11.771  1.5513  1.3129 -1.3061
  677MOL0     H91377   8.079  10.893  11.605 -2.3002  2.8059 -0.0424
  677MOL0     H91378   8.317  10.933  11.514  0.9151 -0.5930  0.6165
  677MOL0     H91379   8.726  11.168  11.740  1.0595 -1.4487  0.6806
  677MOL0     H91380   8.961  11.229  11.731 -0.0251  1.1725  0.3079
  677MOL0     H91381  10.691  10.657  11.340  0.0126 -0.7677  0.2000
  677MOL0     H91382  10.873  10.815  11.281  1.4729  1.4782 -1.5475
  677MOL0     H91383  11.268  10.898  11.174 -0.2846  2.2827  0.5297
  677MOL0     H91384  11.486  11.013  11.112 -0.9934 -0.3874  1.8527
  677MOL0     H91385  11.710  11.234  10.946  0.0311 -0.2984  2.8730
  677MOL0     H91386  11.602  11.186  11.066  3.3292  0.1820  1.9216
  677MOL0     H91387  11.779  11.000  10.895  0.6444 -2.8418  0.7975
  677MOL0     H91388  11.676  10.927  10.995  1.9570 -0.5682  0.2039
  677MOL0     H91389  11.851  10.935  11.148  1.7292 -1.2448 -2.6243
  677MOL0     H91390  11.768  11.074  11.197  1.1875  0.6899 -0.4823
  677MOL0     H91391  11.944  11.202  11.034  2.9025  0.5318 -0.7197
  677MOL0     H91392  12.017  11.058  11.008  0.3012  1.8994 -0.6723
  677MOL0     H91393  12.141  11.188  11.385 -3.4112  1.6725  0.4003
  677MOL0     H91394  11.356  11.091  10.716  0.7215 -0.6630  0.1172
  677MOL0     H91395  11.155  10.979  10.758  0.8016  2.2556 -0.1670
  678MOL0     O91396   1.020   4.890   9.134 -0.7989  0.8097  0.2001
  678MOL0     C91397   1.094   4.942   9.050  0.2491  0.1441 -0.5248
  678MOL0     O91398   1.068   5.057   8.982 -0.4518 -0.5820  0.4865
  678MOL0     C91399   0.952   5.122   9.018  0.1448  1.0082 -0.7545
  678MOL0     C91400   0.848   5.106   8.931 -0.4026  0.0178 -0.3217
  678MOL0     C91401   0.728   5.167   8.970 -0.2414  0.0866 -0.1806
  678MOL0     C91402   0.717   5.246   9.085  0.5032 -0.8706  1.0330
  678MOL0     O91403   0.612   5.334   9.113 -0.4957  0.3224  0.3585
  678MOL0     C91404   0.480   5.283   9.090  0.1461  0.0137  0.2970
  678MOL0     C91405   0.372   5.363   9.168 -0.2537  0.0449 -0.7103
  678MOL0     C91406   0.234   5.301   9.133 -0.0856  0.6274  0.6261
  678MOL0     C91407   0.117   5.374   9.207 -0.4748  0.3310  0.0975
  678MOL0     C91408  -0.011   5.314   9.162 -1.4599 -0.2488 -0.9550
  678MOL0     C91409  -0.132   5.405   9.184 -0.1574 -0.1943 -0.6568
  678MOL0     C91410  -0.264   5.336   9.154  0.0668  0.5973  0.1055
  678MOL0     C91411  -0.378   5.440   9.172 -0.8259  0.8320 -0.4125
  678MOL0     N91412  -0.500   5.413   9.096  0.9261 -0.5062 -0.6813
  678MOL0     C91413  -0.578   5.307   9.112 -0.4000  0.3053 -0.0990
  678MOL0     C91414  -0.683   5.333   9.042  0.2133 -0.3975  0.4285
  678MOL0     C91415  -0.794   5.234   9.020 -0.6178 -0.2054 -1.2146
  678MOL0     C91416  -0.907   5.268   9.107  0.0092 -0.0641 -0.2066
  678MOL0     C91417  -1.018   5.157   9.083 -0.2187 -0.0940  0.0494
  678MOL0     C91418  -1.152   5.202   9.127  0.5498  0.3832  0.7315
  678MOL0     O91419  -1.209   5.274   9.024 -0.1722 -0.0939 -0.4673
  678MOL0     C91420  -1.341   5.316   9.030 -0.2766  0.2309  0.2749
  678MOL0     C91421  -1.443   5.263   9.103 -0.0388  0.6559 -0.0184
  678MOL0     C91422  -1.582   5.292   9.085 -0.0571 -0.9967  0.7220
  678MOL0     C91423  -1.692   5.229   9.168 -0.6872 -0.0376  0.1837
  678MOL0     C91424  -1.616   5.392   8.990  0.3512  0.1866 -0.4513
  678MOL0     C91425  -1.756   5.428   8.938 -0.0735  0.2690  0.3204
  678MOL0     O91426  -1.780   5.558   8.887 -0.0639 -0.1087  0.2975
  678MOL0     C91427  -1.911   5.578   8.845 -0.7228 -0.3712  1.0304
  678MOL0     C91428  -1.996   5.662   8.911  1.3003  0.1070  0.6084
  678MOL0     C91429  -2.121   5.696   8.863  0.4398  0.5807  0.1868
  678MOL0     C91430  -2.170   5.627   8.752 -0.4307  0.8302 -0.4382
  678MOL0     O91431  -2.291   5.637   8.694  0.3355 -0.1186  0.3568
  678MOL0     C91432  -2.346   5.765   8.692  0.2839  0.1572  1.1534
  678MOL0     C91433  -2.468   5.759   8.596 -0.4214 -0.1569 -0.4085
  678MOL0     C91434  -2.578   5.652   8.640 -0.6271  0.3262  0.1033
  678MOL0     C91435  -2.678   5.643   8.522  0.4944 -0.0461 -0.2044
  678MOL0     C91436  -2.764   5.767   8.505 -0.1633 -0.4465 -0.4392
  678MOL0     C91437  -2.894   5.732   8.436  0.0504 -0.2833 -0.6790
  678MOL0     C91438  -2.874   5.717   8.284 -0.7732  0.0262 -0.6120
  678MOL0     C91439  -2.994   5.639   8.230 -0.1130  0.7550  0.9769
  678MOL0    Cl91440  -3.029   5.689   8.057 -0.2714 -0.2737  0.3363
  678MOL0     C91441  -2.082   5.529   8.686 -0.2205  0.2262 -0.0631
  678MOL0     C91442  -1.951   5.506   8.730 -0.0622 -0.6748 -0.7034
  678MOL0     O91443  -1.840   5.338   8.945 -0.2942  0.4452 -0.1183
  678MOL0     C91444  -1.509   5.462   8.932 -0.2232  0.1345  0.8609
  678MOL0     C91445  -1.375   5.412   8.936  0.1897 -0.5226 -0.2267
  678MOL0     N91446  -0.673   5.463   8.984  0.2251  0.0275  0.4739
  678MOL0     N91447  -0.561   5.507   9.024  0.1436  0.1520  0.4314
  678MOL0     C91448   0.823   5.267   9.165  0.6758 -0.5861  0.3964
  678MOL0     C91449   0.940   5.198   9.136 -1.1722 -0.9830 -0.5840
  678MOL0     C91450   1.235   4.890   9.028  0.6947  0.1651  0.0653
  678MOL0     C91451   1.294   4.794   9.105  0.5748  0.2677 -0.2573
  678MOL0     C91452   1.401   4.721   9.056 -0.5676 -0.6776 -0.6746
  678MOL0     C91453   1.460   4.753   8.931 -0.1384  0.1136  0.0516
  678MOL0     O91454   1.573   4.696   8.878 -0.1088  0.2935  0.0404
  678MOL0     C91455   1.654   4.617   8.967  0.0663 -0.1611 -0.1080
  678MOL0     C91456   1.771   4.575   8.891 -0.8128  0.4549  0.2952
  678MOL0     C91457   1.882   4.674   8.873 -0.1995  0.5561 -0.4397
  678MOL0     C91458   2.008   4.612   8.816 -0.2782 -0.1907  0.0463
  678MOL0     C91459   2.112   4.708   8.816  0.1489 -0.9738 -0.3223
  678MOL0     C91460   2.201   4.788   8.815  0.4726  0.2933 -0.4447
  678MOL0     C91461   1.407   4.859   8.858 -0.0041 -0.0481  0.5215
  678MOL0     C91462   1.296   4.922   8.907 -0.3118  0.1263 -0.1134
  678MOL0     H91463   0.840   5.054   8.837 -1.0092  0.9448 -0.8038
  678MOL0     H91464   0.641   5.160   8.905 -0.3744 -0.0448  0.0098
  678MOL0     H91465   0.453   5.270   8.985  0.3080  3.5870 -0.2930
  678MOL0     H91466   0.482   5.181   9.131  2.4213 -0.4020 -0.6996
  678MOL0     H91467   0.405   5.367   9.272  0.9259  1.9775 -1.1109
  678MOL0     H91468   0.363   5.467   9.133 -2.5024 -0.4119 -1.7276
  678MOL0     H91469   0.215   5.298   9.025 -0.0488 -2.5410  0.5877
  678MOL0     H91470   0.229   5.194   9.159 -0.9343  0.8731  1.5215
  678MOL0     H91471   0.132   5.367   9.315  0.8528 -0.2547 -0.1035
  678MOL0     H91472   0.123   5.482   9.190  2.3000  0.4763  1.3425
  678MOL0     H91473  -0.002   5.285   9.057  3.8509  2.1118 -1.4689
  678MOL0     H91474  -0.019   5.228   9.230  1.6962 -1.2113 -1.6219
  678MOL0     H91475  -0.128   5.442   9.287  5.2025 -1.4604 -0.1370
  678MOL0     H91476  -0.125   5.489   9.114 -0.8266  0.2306 -0.2166
  678MOL0     H91477  -0.269   5.298   9.052  0.0728  1.8711 -0.3860
  678MOL0     H91478  -0.276   5.246   9.215  1.3750  1.4719  1.7293
  678MOL0     H91479  -0.340   5.537   9.139 -1.2986  0.3932 -2.3919
  678MOL0     H91480  -0.403   5.465   9.276  1.0824  4.2684 -0.6457
  678MOL0     H91481  -0.557   5.224   9.178 -0.4625  0.9382  0.7245
  678MOL0     H91482  -0.815   5.232   8.912  0.2518  0.1892 -1.4044
  678MOL0     H91483  -0.763   5.133   9.048  0.5987  0.9797  2.2491
  678MOL0     H91484  -0.940   5.368   9.081  1.3895  1.0341  1.9930
  678MOL0     H91485  -0.871   5.278   9.209  0.6687  0.2853 -0.4647
  678MOL0     H91486  -0.985   5.066   9.133 -3.1094 -1.8961 -1.0664
  678MOL0     H91487  -1.020   5.131   8.976  0.0971  1.5966 -0.4106
  678MOL0     H91488  -1.150   5.255   9.222 -1.3082  0.5171  0.7308
  678MOL0     H91489  -1.218   5.115   9.139  0.6858  0.0639 -0.6173
  678MOL0     H91490  -1.428   5.191   9.182 -0.6036  0.3069 -0.2298
  678MOL0     H91491  -1.781   5.294   9.164 -0.0859  0.8384  0.6637
  678MOL0     H91492  -1.717   5.133   9.122  0.7468 -1.1767  1.6835
  678MOL0     H91493  -1.667   5.214   9.273 -2.5161 -0.3556  0.6185
  678MOL0     H91494  -1.963   5.712   9.002  1.5446 -1.0816  1.1980
  678MOL0     H91495  -2.165   5.773   8.925  1.4116  3.6007 -2.6152
  678MOL0     H91496  -2.371   5.799   8.793 -1.0158 -0.5289  1.0891
  678MOL0     H91497  -2.271   5.833   8.650  0.8035 -1.8818 -1.5387
  678MOL0     H91498  -2.515   5.858   8.591  2.3013  1.1717 -1.1298
  678MOL0     H91499  -2.427   5.729   8.499  0.7053 -0.0977  0.0374
  678MOL0     H91500  -2.622   5.678   8.737 -0.3504 -1.0421  0.6142
  678MOL0     H91501  -2.534   5.553   8.652  1.7926  1.5053  1.8765
  678MOL0     H91502  -2.632   5.622   8.425 -1.4127  1.0829 -1.4105
  678MOL0     H91503  -2.734   5.553   8.551  0.3060  0.4417  1.0221
  678MOL0     H91504  -2.716   5.853   8.457  0.9362 -0.3020  0.8696
  678MOL0     H91505  -2.794   5.798   8.606 -2.6563 -0.1806 -1.1972
  678MOL0     H91506  -2.935   5.639   8.476 -0.6237 -0.4369 -1.6877
  678MOL0     H91507  -2.959   5.817   8.455  3.1370  1.9350  0.8363
  678MOL0     H91508  -2.774   5.684   8.253 -0.9190 -1.6150  0.5487
  678MOL0     H91509  -2.893   5.818   8.247 -1.5500  0.2527  0.3642
  678MOL0     H91510  -3.082   5.641   8.295 -2.2156 -5.2174 -1.0625
  678MOL0     H91511  -2.976   5.531   8.236 -3.2710  0.1387  1.0694
  678MOL0     H91512  -2.106   5.464   8.603  0.9110 -0.7980  0.3812
  678MOL0     H91513  -1.873   5.444   8.686  1.1982  1.1282 -1.0965
  678MOL0     H91514  -1.536   5.540   8.862 -1.0058 -0.2812  0.6896
  678MOL0     H91515  -1.293   5.448   8.873  1.0534  0.0042  1.1497
  678MOL0     H91516   0.812   5.333   9.250 -3.2315  1.2410 -1.2811
  678MOL0     H91517   1.032   5.207   9.193 -1.4345 -1.3274 -0.0888
  678MOL0     H91518   1.242   4.751   9.191  3.6834  0.0845  1.6862
  678MOL0     H91519   1.449   4.652   9.124  2.1659  0.4692 -1.3022
  678MOL0     H91520   1.695   4.676   9.049 -0.8750 -1.1117  1.0873
  678MOL0     H91521   1.603   4.525   8.997 -0.4816 -0.0544 -0.7041
  678MOL0     H91522   1.734   4.534   8.797 -1.2955 -0.5680  0.9221
  678MOL0     H91523   1.815   4.484   8.932  1.4197  0.0882 -2.6004
  678MOL0     H91524   1.914   4.700   8.975  1.8519 -1.9776 -0.3225
  678MOL0     H91525   1.845   4.750   8.804 -2.1260  1.5329  1.5199
  678MOL0     H91526   1.984   4.568   8.719  0.5318  1.5828 -1.0161
  678MOL0     H91527   2.039   4.527   8.877 -0.2641 -0.2175  0.0011
  678MOL0     H91528   2.284   4.856   8.815  0.9300 -0.1813  1.8882
  678MOL0     H91529   1.453   4.883   8.763 -0.2487 -1.8995 -0.1108
  678MOL0     H91530   1.266   5.005   8.844  1.9522  2.4966  1.6947
  679MOL0     O91531   6.270   7.501   0.737 -0.1010 -0.1442 -0.1729
  679MOL0     C91532   6.307   7.446   0.836  0.4531 -0.4019  0.0976
  679MOL0     O91533   6.227   7.381   0.922 -0.0033  0.0928 -0.5699
  679MOL0     C91534   6.091   7.383   0.903  0.2879 -0.9274  0.1351
  679MOL0     C91535   6.026   7.335   0.793 -0.8921  0.2961 -0.1891
  679MOL0     C91536   5.890   7.329   0.786  0.1846 -0.4273 -0.2744
  679MOL0     C91537   5.803   7.396   0.884  0.4847  0.3987 -0.2703
  679MOL0     O91538   5.666   7.414   0.867 -0.4181  0.3490 -0.4326
  679MOL0     C91539   5.606   7.391   0.740 -0.6533  0.3054  0.3284
  679MOL0     C91540   5.465   7.438   0.756 -0.0887 -0.9069 -0.3394
  679MOL0     C91541   5.380   7.334   0.836 -0.3816  0.3465  0.0705
  679MOL0     C91542   5.224   7.345   0.830  0.4151 -0.6246 -0.5581
  679MOL0     C91543   5.163   7.250   0.940  0.2654  0.0059  0.0761
  679MOL0     C91544   5.011   7.241   0.915 -0.2660 -0.0008  0.0072
  679MOL0     C91545   4.952   7.134   1.000 -0.3464 -0.1153 -0.1735
  679MOL0     C91546   4.808   7.096   0.974 -0.3344  0.5454 -0.2446
  679MOL0     N91547   4.713   7.203   0.994 -0.4324  0.2661  0.0938
  679MOL0     C91548   4.664   7.248   1.115 -0.2656  0.0379  0.3185
  679MOL0     C91549   4.569   7.337   1.093 -0.0883 -0.1243  1.0853
  679MOL0     C91550   4.480   7.410   1.197 -0.3975  0.8077 -0.0140
  679MOL0     C91551   4.350   7.318   1.221 -0.8981  0.0552  0.3646
  679MOL0     C91552   4.282   7.351   1.357  0.4910  0.1097 -0.0781
  679MOL0     C91553   4.156   7.275   1.391  0.3920 -0.7608  0.3681
  679MOL0     O91554   4.053   7.322   1.307  0.6475 -0.2320 -0.0098
  679MOL0     C91555   3.930   7.256   1.317 -0.3120 -0.2208  0.0500
  679MOL0     C91556   3.871   7.188   1.426  0.2235 -0.0141  0.3109
  679MOL0     C91557   3.742   7.135   1.425 -0.0437 -1.1815 -0.5460
  679MOL0     C91558   3.691   7.066   1.552 -1.1225 -0.4090 -0.4458
  679MOL0     C91559   3.656   7.153   1.313 -0.5382  0.3048  0.6882
  679MOL0     C91560   3.521   7.092   1.299 -0.2110  0.3268 -0.0000
  679MOL0     O91561   3.444   7.145   1.201 -0.1002  0.2112 -0.4138
  679MOL0     C91562   3.320   7.095   1.160 -0.4667  0.3915  0.1640
  679MOL0     C91563   3.299   7.076   1.024  0.0869 -0.6839  0.5871
  679MOL0     C91564   3.174   7.029   0.978  0.5379 -0.2375 -0.4692
  679MOL0     C91565   3.069   6.987   1.064 -0.0438  0.1726  1.4326
  679MOL0     O91566   2.959   6.931   0.990 -0.2929 -0.5942  0.6558
  679MOL0     C91567   2.842   6.874   1.050  0.3633 -0.1005  0.0353
  679MOL0     C91568   2.727   6.865   0.954 -0.2953 -0.1819 -0.2885
  679MOL0     C91569   2.616   6.777   0.997 -0.3968 -0.1626  0.1696
  679MOL0     C91570   2.526   6.747   0.879  0.1365  0.1345  0.5223
  679MOL0     C91571   2.425   6.638   0.930 -0.1493  0.5612 -0.0080
  679MOL0     C91572   2.337   6.603   0.809 -0.5591 -0.0328 -0.3321
  679MOL0     C91573   2.221   6.515   0.863 -0.2004  0.0010  0.2424
  679MOL0     C91574   2.115   6.493   0.745  0.6076  0.0119 -0.0522
  679MOL0    Cl91575   2.191   6.375   0.628 -0.0072 -0.1321  0.0240
  679MOL0     C91576   3.083   7.004   1.198  0.3650  0.7392  0.0788
  679MOL0     C91577   3.210   7.056   1.244 -0.3322 -0.4517  0.8108
  679MOL0     O91578   3.496   6.999   1.375  0.6619  0.1386  0.2892
  679MOL0     C91579   3.720   7.216   1.196 -0.6471  1.0458 -0.2615
  679MOL0     C91580   3.848   7.265   1.202 -0.4744 -0.1849 -0.1531
  679MOL0     N91581   4.579   7.359   0.953  0.5913  0.1215 -0.3481
  679MOL0     N91582   4.662   7.272   0.896  0.6836 -1.1569 -0.4016
  679MOL0     C91583   5.867   7.434   0.999  0.3256  0.2366 -0.7939
  679MOL0     C91584   6.015   7.437   1.005  0.4827 -0.0442  0.0232
  679MOL0     C91585   6.449   7.448   0.876 -0.1112 -0.5286  0.4218
  679MOL0     C91586   6.546   7.492   0.784 -0.0435 -0.5705 -0.0646
  679MOL0     C91587   6.683   7.489   0.818  0.2229 -0.6595  0.0700
  679MOL0     C91588   6.723   7.439   0.941 -0.8750 -0.0162 -0.3433
  679MOL0     O91589   6.855   7.428   0.953  0.5510  0.4945  0.2323
  679MOL0     C91590   6.918   7.540   1.016  0.5062 -0.3735 -0.2323
  679MOL0     C91591   7.070   7.531   1.012 -0.0881  1.1285 -0.4879
  679MOL0     C91592   7.124   7.398   1.074  0.2185 -1.6194  0.2390
  679MOL0     C91593   7.258   7.441   1.155  0.2737 -0.2416 -0.5417
  679MOL0     C91594   7.330   7.319   1.206 -0.0110 -0.3692 -0.3215
  679MOL0     C91595   7.381   7.218   1.239 -0.4921  1.0648 -0.0459
  679MOL0     C91596   6.629   7.397   1.035 -0.1978 -0.0052  0.2348
  679MOL0     C91597   6.494   7.393   0.994  1.0752  0.1522  0.4854
  679MOL0     H91598   6.080   7.301   0.705  0.3284  0.9381  0.2846
  679MOL0     H91599   5.842   7.277   0.704 -1.6707  1.9011 -0.7901
  679MOL0     H91600   5.653   7.448   0.659 -2.2412  0.8592 -0.2394
  679MOL0     H91601   5.611   7.286   0.711 -1.2447  0.2490  0.4111
  679MOL0     H91602   5.452   7.533   0.810 -0.8768 -1.6513  0.8527
  679MOL0     H91603   5.421   7.451   0.657 -1.5260 -0.4464  0.3255
  679MOL0     H91604   5.404   7.234   0.800  0.9283  0.9369 -0.7813
  679MOL0     H91605   5.409   7.342   0.942 -1.6901  1.6156  0.3731
  679MOL0     H91606   5.187   7.446   0.849 -0.2380 -0.6397 -1.6863
  679MOL0     H91607   5.193   7.324   0.727 -1.1044  0.9952 -0.4572
  679MOL0     H91608   5.200   7.148   0.937  1.5209  0.4661 -1.1035
  679MOL0     H91609   5.176   7.289   1.042 -2.1054 -1.3173  0.9717
  679MOL0     H91610   4.960   7.336   0.931  1.1704  1.3249 -2.5215
  679MOL0     H91611   5.002   7.220   0.808  2.9627 -0.2046 -0.3085
  679MOL0     H91612   5.013   7.044   0.990  0.7400  0.4982  0.6560
  679MOL0     H91613   4.964   7.170   1.103  2.5852  3.6541 -1.5488
  679MOL0     H91614   4.791   7.019   1.050 -0.7707  2.5727  1.8271
  679MOL0     H91615   4.792   7.065   0.871 -1.4585  0.9841 -0.2136
  679MOL0     H91616   4.677   7.202   1.213 -1.4562  2.2098  1.5827
  679MOL0     H91617   4.523   7.430   1.296 -1.4960  0.2457  0.5958
  679MOL0     H91618   4.451   7.508   1.157 -0.6308  0.1229 -1.6005
  679MOL0     H91619   4.378   7.212   1.225 -2.1661 -0.3506 -0.6656
  679MOL0     H91620   4.277   7.339   1.142 -0.4348 -0.1161 -0.1150
  679MOL0     H91621   4.270   7.460   1.361  2.2507  0.2906  1.5597
  679MOL0     H91622   4.355   7.331   1.436 -0.5392  2.2566  1.5366
  679MOL0     H91623   4.134   7.294   1.496  0.1006  2.4915 -0.1456
  679MOL0     H91624   4.168   7.168   1.375 -2.7153 -0.9438 -1.8441
  679MOL0     H91625   3.920   7.186   1.523 -0.6129  0.6764  0.7653
  679MOL0     H91626   3.665   6.963   1.527  0.5818 -0.1594 -3.6809
  679MOL0     H91627   3.763   7.077   1.634 -0.5158  0.5920 -1.0913
  679MOL0     H91628   3.599   7.117   1.583  0.3330  0.4736  2.9259
  679MOL0     H91629   3.367   7.109   0.946 -0.8176  1.6428  0.6994
  679MOL0     H91630   3.170   7.019   0.870  0.4159  2.5057 -0.8084
  679MOL0     H91631   2.879   6.777   1.083  1.0493  0.3995  0.7720
  679MOL0     H91632   2.798   6.925   1.137 -3.4029 -1.8173 -0.6682
  679MOL0     H91633   2.687   6.966   0.943 -0.1805  0.0501  1.1566
  679MOL0     H91634   2.772   6.836   0.859  0.4795 -1.7519  0.4984
  679MOL0     H91635   2.550   6.818   1.074  0.3153 -0.3723  0.9016
  679MOL0     H91636   2.660   6.683   1.033  3.4161  1.4983  0.2808
  679MOL0     H91637   2.467   6.832   0.844 -1.8867 -1.4986 -0.2472
  679MOL0     H91638   2.572   6.719   0.784 -0.1454  3.7339 -0.8418
  679MOL0     H91639   2.357   6.682   1.004  1.9167 -0.6581  2.7854
  679MOL0     H91640   2.465   6.544   0.970 -2.7416  0.4640  2.7202
  679MOL0     H91641   2.300   6.690   0.754 -0.5191 -0.5898 -1.2667
  679MOL0     H91642   2.399   6.544   0.740  1.9925 -0.6665  2.2987
  679MOL0     H91643   2.176   6.564   0.950  2.8916  1.6593  1.0389
  679MOL0     H91644   2.265   6.419   0.893  3.1723  1.1934 -0.4515
  679MOL0     H91645   2.087   6.595   0.714  1.8436  1.1002  2.1603
  679MOL0     H91646   2.026   6.437   0.776  1.7904 -2.1744 -0.4349
  679MOL0     H91647   3.006   6.969   1.266  1.3091 -1.7205  0.0082
  679MOL0     H91648   3.226   7.071   1.350 -1.4320  2.9740  0.5914
  679MOL0     H91649   3.668   7.212   1.100  0.5343 -1.9283 -0.8969
  679MOL0     H91650   3.899   7.307   1.116  1.1054 -0.0368  0.8113
  679MOL0     H91651   5.815   7.466   1.089 -1.4099 -2.6828 -0.6076
  679MOL0     H91652   6.063   7.487   1.088  1.7184  0.9416 -1.2242
  679MOL0     H91653   6.522   7.525   0.684  4.7848  2.2552 -0.5995
  679MOL0     H91654   6.758   7.526   0.749 -0.8363  1.7575  0.1160
  679MOL0     H91655   6.895   7.637   0.972  0.3711 -0.0232  0.5781
  679MOL0     H91656   6.878   7.547   1.118  1.1747 -0.5114  0.0480
  679MOL0     H91657   7.110   7.611   1.075  4.2111 -1.4757  0.5099
  679MOL0     H91658   7.096   7.530   0.906  1.9024 -4.7932 -0.3439
  679MOL0     H91659   7.137   7.326   0.993  0.8072  0.6836 -1.8482
  679MOL0     H91660   7.060   7.348   1.148  0.3770  1.4609  2.6789
  679MOL0     H91661   7.235   7.506   1.240  3.5298 -1.7992  1.7549
  679MOL0     H91662   7.321   7.498   1.086 -2.2647  0.7745 -2.1715
  679MOL0     H91663   7.444   7.136   1.266 -0.1427  1.8013  1.4442
  679MOL0     H91664   6.647   7.364   1.137 -1.1085  2.3364  1.2260
  679MOL0     H91665   6.420   7.357   1.064 -0.0678  0.5106 -0.5028
  680MOL0     O91666   3.988   0.731   9.095 -0.7934  0.1061 -0.1785
  680MOL0     C91667   3.993   0.833   9.165  0.1298  0.0604  0.6485
  680MOL0     O91668   3.900   0.929   9.176 -0.6079 -0.0771 -0.7334
  680MOL0     C91669   3.766   0.913   9.147  0.6439 -0.7738 -0.0957
  680MOL0     C91670   3.710   0.812   9.062 -0.6310 -0.7284 -0.3829
  680MOL0     C91671   3.574   0.822   9.024  0.2084  0.6070  0.4395
  680MOL0     C91672   3.483   0.920   9.067 -0.7527 -0.2722 -0.9379
  680MOL0     O91673   3.351   0.916   9.037 -0.2796  0.4023 -0.6872
  680MOL0     C91674   3.259   0.966   9.130  0.9592 -0.7083  0.5394
  680MOL0     C91675   3.116   0.980   9.089  1.2200 -0.0883 -0.0440
  680MOL0     C91676   3.062   0.841   9.082  0.4419 -0.2617 -0.3512
  680MOL0     C91677   2.916   0.857   9.036  0.6882 -0.1536  0.4642
  680MOL0     C91678   2.833   0.726   9.078 -0.1374 -0.5691  0.0513
  680MOL0     C91679   2.742   0.735   9.201 -0.8356  1.7905 -0.3359
  680MOL0     C91680   2.654   0.609   9.208 -0.1010  0.5000  0.1464
  680MOL0     C91681   2.728   0.487   9.262  0.4096 -1.1352 -0.3665
  680MOL0     N91682   2.643   0.369   9.276 -0.1057  0.1341 -0.9402
  680MOL0     C91683   2.519   0.341   9.223  0.0584 -0.3084 -0.0453
  680MOL0     C91684   2.470   0.234   9.286  0.4972  0.5138 -1.2484
  680MOL0     C91685   2.346   0.167   9.252  0.6092 -0.0775  0.5374
  680MOL0     C91686   2.213   0.253   9.259  0.9582  0.0120  0.3580
  680MOL0     C91687   2.153   0.291   9.398  0.4800 -0.1619  0.6857
  680MOL0     C91688   2.012   0.357   9.390 -1.2828 -0.3760  0.4830
  680MOL0     O91689   2.018   0.482   9.310 -0.1389  0.6843 -0.6224
  680MOL0     C91690   1.902   0.552   9.284  0.1772  0.8640  0.3815
  680MOL0     C91691   1.908   0.672   9.218  0.3603 -0.0822  0.2366
  680MOL0     C91692   1.796   0.747   9.175 -0.7926 -0.3611 -0.0427
  680MOL0     C91693   1.831   0.878   9.114  0.7107  0.5206 -0.0591
  680MOL0     C91694   1.668   0.699   9.195  0.2702 -0.0584 -0.1180
  680MOL0     C91695   1.543   0.760   9.143  0.1387 -0.1452 -0.0668
  680MOL0     O91696   1.432   0.679   9.130  0.0948 -0.1991  0.3616
  680MOL0     C91697   1.307   0.733   9.097  0.0175  0.7597  0.3985
  680MOL0     C91698   1.220   0.756   9.197  0.2161  0.4668  0.3541
  680MOL0     C91699   1.089   0.809   9.166  0.4741 -0.7152 -0.3316
  680MOL0     C91700   1.049   0.838   9.032 -0.0445  0.3805  0.2240
  680MOL0     O91701   0.921   0.896   9.011 -0.0460  0.2969  0.6547
  680MOL0     C91702   0.903   0.980   8.895 -0.0654 -0.0399 -0.5792
  680MOL0     C91703   0.763   1.036   8.897  0.7949  0.4093  0.5534
  680MOL0     C91704   0.757   1.155   8.993  0.2513  0.0658  0.1946
  680MOL0     C91705   0.700   1.128   9.132 -0.9009 -0.2887  0.2810
  680MOL0     C91706   0.559   1.178   9.136 -0.0915  0.3176  0.5159
  680MOL0     C91707   0.495   1.156   9.271 -0.0730 -0.3770 -0.3266
  680MOL0     C91708   0.368   1.244   9.281 -1.0037 -0.6474 -0.1162
  680MOL0     C91709   0.351   1.307   9.414  0.3420  0.0962 -0.4248
  680MOL0    Cl91710   0.340   1.176   9.538  0.2695  0.2378  0.6343
  680MOL0     C91711   1.148   0.820   8.931 -0.7003 -0.5840  0.7246
  680MOL0     C91712   1.275   0.763   8.966  0.0494  0.5442  0.0686
  680MOL0     O91713   1.538   0.878   9.119 -0.1089 -0.1434  0.0696
  680MOL0     C91714   1.648   0.580   9.262  0.7580  0.2524 -1.5152
  680MOL0     C91715   1.763   0.506   9.301  0.6655  0.0201  0.4508
  680MOL0     N91716   2.575   0.192   9.371 -0.1542 -0.8072 -0.6007
  680MOL0     N91717   2.674   0.273   9.363 -0.1756 -0.1502 -0.0767
  680MOL0     C91718   3.549   1.016   9.154  0.6242  0.0950  0.4080
  680MOL0     C91719   3.677   1.012   9.194  0.2996  0.1718 -0.7230
  680MOL0     C91720   4.117   0.858   9.232 -0.6834 -0.6983 -0.3371
  680MOL0     C91721   4.232   0.773   9.211  0.2635 -0.2625 -1.1559
  680MOL0     C91722   4.353   0.807   9.258 -0.0928  0.3807  0.4231
  680MOL0     C91723   4.376   0.913   9.339 -0.3384  0.4527  0.3684
  680MOL0     O91724   4.509   0.938   9.376  0.7416 -0.6716 -0.7388
  680MOL0     C91725   4.543   1.048   9.463 -0.2313  0.2569  0.5194
  680MOL0     C91726   4.684   1.054   9.502 -0.0918 -0.0784  0.1704
  680MOL0     C91727   4.723   0.934   9.568 -0.5918  0.5158  0.2666
  680MOL0     C91728   4.874   0.942   9.599 -0.7232  0.0372 -0.6174
  680MOL0     C91729   4.913   0.841   9.701 -0.3711  0.1818  0.4518
  680MOL0     C91730   4.958   0.757   9.777  0.2060  0.0527  0.0082
  680MOL0     C91731   4.267   1.002   9.368 -0.0582  0.4318 -0.2637
  680MOL0     C91732   4.139   0.977   9.317  0.8022  0.5753  0.2770
  680MOL0     H91733   3.775   0.733   9.026  1.7653  0.8985  0.1426
  680MOL0     H91734   3.530   0.738   8.971  2.0220 -1.4894  2.0940
  680MOL0     H91735   3.268   0.908   9.223  0.7969  1.1952  1.7995
  680MOL0     H91736   3.285   1.072   9.142 -0.2825 -0.5243  1.8876
  680MOL0     H91737   3.056   1.032   9.164  1.2731 -1.2542  0.8247
  680MOL0     H91738   3.113   1.021   8.987 -2.4915  1.5943  0.5653
  680MOL0     H91739   3.120   0.776   9.015  0.1650 -5.6455  3.8721
  680MOL0     H91740   3.070   0.783   9.175 -1.0680 -0.1983 -0.1499
  680MOL0     H91741   2.863   0.943   9.080 -2.2543 -2.5944  2.1547
  680MOL0     H91742   2.912   0.871   8.928  0.8343  1.7225  0.6658
  680MOL0     H91743   2.781   0.696   8.986 -0.4362  4.2758 -1.7045
  680MOL0     H91744   2.911   0.651   9.088  0.8044 -0.4268 -4.1650
  680MOL0     H91745   2.793   0.744   9.297 -1.2874  1.4981 -0.0647
  680MOL0     H91746   2.694   0.833   9.191 -0.9267  1.9190  1.1727
  680MOL0     H91747   2.567   0.622   9.273 -1.7435 -0.2592 -1.7998
  680MOL0     H91748   2.627   0.590   9.104 -0.8169 -0.2433  0.4564
  680MOL0     H91749   2.778   0.507   9.357 -1.4592  2.5576  0.0205
  680MOL0     H91750   2.811   0.456   9.198  1.1518  0.8257 -0.4226
  680MOL0     H91751   2.472   0.385   9.136 -0.4560 -1.8570 -0.5817
  680MOL0     H91752   2.360   0.133   9.149 -2.7611  1.0497 -0.4599
  680MOL0     H91753   2.340   0.079   9.316  2.2265 -0.0066  0.8168
  680MOL0     H91754   2.138   0.203   9.198  0.7477  1.0418 -0.2510
  680MOL0     H91755   2.230   0.345   9.202  2.9277 -0.5006  0.0237
  680MOL0     H91756   2.220   0.360   9.450  0.5975 -0.0933  0.4449
  680MOL0     H91757   2.137   0.203   9.462 -0.7554  0.2126  0.9191
  680MOL0     H91758   1.974   0.373   9.492  0.9378 -1.7361  1.5957
  680MOL0     H91759   1.950   0.292   9.328 -2.0760  2.7170 -2.2395
  680MOL0     H91760   2.011   0.700   9.195  0.7911 -2.0664 -0.4715
  680MOL0     H91761   1.920   0.858   9.055 -0.1920 -1.5256 -0.8234
  680MOL0     H91762   1.750   0.908   9.046 -0.3791  1.3035  1.5146
  680MOL0     H91763   1.854   0.955   9.188 -1.8435 -0.5965  2.0837
  680MOL0     H91764   1.258   0.742   9.298  1.3490  0.1518 -0.0999
  680MOL0     H91765   1.019   0.828   9.247  0.2720 -0.8505 -0.4760
  680MOL0     H91766   0.979   1.059   8.896 -0.0079 -0.0945 -0.1983
  680MOL0     H91767   0.924   0.915   8.810  1.2241  0.1726 -0.4410
  680MOL0     H91768   0.754   1.073   8.795  3.0284  0.0463  0.1674
  680MOL0     H91769   0.687   0.959   8.918  1.4979 -0.4331  0.1000
  680MOL0     H91770   0.704   1.231   8.935  1.8622 -0.7601 -2.5999
  680MOL0     H91771   0.854   1.204   9.007 -0.7376  1.8596  1.0065
  680MOL0     H91772   0.697   1.024   9.166 -0.5726 -0.1856  0.6289
  680MOL0     H91773   0.756   1.178   9.211  0.3936  0.1012 -0.8615
  680MOL0     H91774   0.503   1.138   9.052 -1.5009  1.8408  0.6693
  680MOL0     H91775   0.555   1.287   9.132  0.9540  0.4623  2.2637
  680MOL0     H91776   0.475   1.049   9.286  0.7962 -0.1410  3.3997
  680MOL0     H91777   0.571   1.180   9.346  0.7147  0.5947 -1.3877
  680MOL0     H91778   0.280   1.186   9.251  0.4048 -3.4082  0.7082
  680MOL0     H91779   0.376   1.338   9.226  0.3726 -0.2787  0.6538
  680MOL0     H91780   0.258   1.364   9.419  0.0119 -0.3397 -1.3827
  680MOL0     H91781   0.420   1.388   9.438 -2.1051  3.2957 -3.1136
  680MOL0     H91782   1.136   0.858   8.830 -0.3652 -0.6707  0.6520
  680MOL0     H91783   1.341   0.733   8.886 -1.6347 -0.6344 -0.9544
  680MOL0     H91784   1.552   0.535   9.285  1.7551 -2.5201 -2.3632
  680MOL0     H91785   1.752   0.414   9.356 -0.7640  0.7432  1.4534
  680MOL0     H91786   3.495   1.104   9.188  2.4611  0.4347  2.6491
  680MOL0     H91787   3.726   1.092   9.249  0.4938 -1.1063  1.0607
  680MOL0     H91788   4.217   0.699   9.133 -1.0661 -0.3732 -0.8035
  680MOL0     H91789   4.440   0.750   9.227 -0.1294  1.1397 -1.1310
  680MOL0     H91790   4.508   1.138   9.412 -1.3322 -0.3784  0.1109
  680MOL0     H91791   4.472   1.046   9.546 -3.9276  3.1801 -2.2421
  680MOL0     H91792   4.717   1.144   9.555 -1.4007  2.9689 -3.6985
  680MOL0     H91793   4.734   1.067   9.406  1.5431  2.1809  1.2461
  680MOL0     H91794   4.701   0.855   9.497  2.3650 -1.0892  0.9612
  680MOL0     H91795   4.663   0.900   9.653  0.1566 -0.9216  0.2404
  680MOL0     H91796   4.901   1.043   9.633 -0.0101  0.5514 -2.5294
  680MOL0     H91797   4.931   0.927   9.506 -3.0790 -1.3610 -1.9296
  680MOL0     H91798   4.970   0.681   9.852  3.7550 -0.4797 -0.9249
  680MOL0     H91799   4.283   1.089   9.431 -0.5482  1.7451 -1.8722
  680MOL0     H91800   4.051   1.035   9.343  2.4488  2.9842  0.7957
  681MOL0     O91801   1.628   2.450   4.927 -0.1293  0.3200 -0.6259
  681MOL0     C91802   1.671   2.560   4.887 -0.1574 -0.0625 -0.0068
  681MOL0     O91803   1.596   2.653   4.809 -0.4595 -0.3869  0.0550
  681MOL0     C91804   1.461   2.637   4.789  0.6461 -0.9810 -0.1317
  681MOL0     C91805   1.373   2.745   4.827 -0.0189  0.1166 -0.0560
  681MOL0     C91806   1.234   2.736   4.809  0.3239  0.0472 -0.0081
  681MOL0     C91807   1.178   2.624   4.754  0.2886  0.1337 -0.4125
  681MOL0     O91808   1.046   2.603   4.718  0.1927 -0.2582 -0.2251
  681MOL0     C91809   0.950   2.674   4.792  0.0969 -0.3116  0.1579
  681MOL0     C91810   0.814   2.622   4.755  1.0497 -0.3336 -0.0578
  681MOL0     C91811   0.704   2.687   4.850  0.1594 -0.0705  0.3292
  681MOL0     C91812   0.565   2.653   4.807 -0.1004 -0.7354  0.2303
  681MOL0     C91813   0.512   2.527   4.887 -0.0806 -0.0456  1.1462
  681MOL0     C91814   0.370   2.485   4.841  0.4161 -0.3239  0.3893
  681MOL0     C91815   0.307   2.359   4.919  0.4421 -0.6003 -0.3289
  681MOL0     C91816   0.392   2.231   4.903  1.1045  0.5607 -0.2100
  681MOL0     N91817   0.328   2.103   4.939  0.2001 -0.1110  0.5129
  681MOL0     C91818   0.219   2.037   4.879 -0.0197 -0.3970  0.9566
  681MOL0     C91819   0.182   1.939   4.966  0.6507  0.9019  0.3636
  681MOL0     C91820   0.074   1.828   4.951  0.0443 -0.7468  0.6366
  681MOL0     C91821  -0.057   1.841   5.025  0.3366 -0.7757 -0.2306
  681MOL0     C91822  -0.164   1.731   4.987 -0.2489 -0.4723  0.2791
  681MOL0     C91823  -0.293   1.759   5.052 -0.1075 -0.2823  0.6355
  681MOL0     O91824  -0.394   1.669   5.004  0.6502 -0.1481  0.2671
  681MOL0     C91825  -0.521   1.681   5.053 -0.6871  0.3009 -0.4064
  681MOL0     C91826  -0.619   1.597   5.005 -0.8215  0.1247  0.3423
  681MOL0     C91827  -0.752   1.607   5.031  0.2252 -0.0736  0.5353
  681MOL0     C91828  -0.838   1.501   4.967 -0.5902  1.3068 -0.4892
  681MOL0     C91829  -0.800   1.720   5.106  0.2322  0.2206  0.1755
  681MOL0     C91830  -0.939   1.743   5.141  0.2609 -0.2506  0.7868
  681MOL0     O91831  -1.025   1.691   5.051  0.0985  0.7149 -0.2034
  681MOL0     C91832  -1.155   1.681   5.080 -0.6627  0.1302  0.3938
  681MOL0     C91833  -1.210   1.554   5.103 -0.4281 -0.7646 -0.4161
  681MOL0     C91834  -1.348   1.533   5.133 -0.1303  0.1978  0.2365
  681MOL0     C91835  -1.434   1.650   5.156 -0.9378  0.2529  0.4115
  681MOL0     O91836  -1.560   1.616   5.195 -0.5640  0.3508 -0.4202
  681MOL0     C91837  -1.648   1.719   5.219 -0.3075 -0.0731  0.1333
  681MOL0     C91838  -1.786   1.662   5.275 -0.7477 -0.6331  0.4534
  681MOL0     C91839  -1.871   1.776   5.330 -0.0766 -0.0400  0.3598
  681MOL0     C91840  -2.018   1.759   5.296  0.1814 -0.3877  0.7856
  681MOL0     C91841  -2.085   1.900   5.300  1.0887  0.3292 -0.7291
  681MOL0     C91842  -2.091   1.959   5.445  0.8659  0.7474 -0.1218
  681MOL0     C91843  -2.126   2.110   5.438 -1.1403  0.1061  0.1456
  681MOL0     C91844  -2.145   2.159   5.584 -0.3348 -0.3906 -0.2110
  681MOL0    Cl91845  -1.989   2.144   5.666  0.0631 -0.0990 -0.2341
  681MOL0     C91846  -1.375   1.778   5.131  0.6463 -0.0295  0.5436
  681MOL0     C91847  -1.238   1.791   5.104  0.5688 -0.0582 -0.3827
  681MOL0     O91848  -0.968   1.810   5.239 -0.0863 -0.2677  0.1359
  681MOL0     C91849  -0.701   1.809   5.160 -1.0468  0.1573 -0.5243
  681MOL0     C91850  -0.562   1.789   5.135 -0.1553 -0.3032 -0.1651
  681MOL0     N91851   0.269   1.946   5.080  0.3401 -0.8964  0.5370
  681MOL0     N91852   0.352   2.037   5.053  0.0009  0.4898  0.4216
  681MOL0     C91853   1.264   2.512   4.728  0.0162  0.0390 -0.3468
  681MOL0     C91854   1.406   2.519   4.751  0.6964  0.0029  0.1190
  681MOL0     C91855   1.808   2.595   4.916 -0.0912 -0.1067 -0.4854
  681MOL0     C91856   1.874   2.535   5.026 -0.8344  1.0213 -0.1072
  681MOL0     C91857   2.006   2.553   5.052 -0.0215  0.4922  0.1227
  681MOL0     C91858   2.082   2.636   4.969  0.3316 -0.2156  0.4191
  681MOL0     O91859   2.214   2.670   4.984 -0.3601  0.1585 -0.7596
  681MOL0     C91860   2.303   2.554   4.988  0.2872  0.4003  0.1121
  681MOL0     C91861   2.321   2.512   4.845 -0.9385  0.5419 -0.1670
  681MOL0     C91862   2.438   2.403   4.837  0.1109 -0.0936  0.9866
  681MOL0     C91863   2.449   2.361   4.690  0.1716 -0.4406  0.5063
  681MOL0     C91864   2.560   2.264   4.667 -0.0634  0.6153 -0.2714
  681MOL0     C91865   2.645   2.173   4.660  0.2307 -0.4489  0.0261
  681MOL0     C91866   2.017   2.696   4.857  0.3353  0.0121 -0.4591
  681MOL0     C91867   1.876   2.676   4.838  0.6878  0.1230 -0.2389
  681MOL0     H91868   1.396   2.840   4.873 -2.2033 -0.9192  3.5723
  681MOL0     H91869   1.165   2.819   4.824 -0.5914 -1.1263  2.8614
  681MOL0     H91870   0.964   2.658   4.900  0.0317 -1.0351  0.0600
  681MOL0     H91871   0.957   2.782   4.777  0.5887 -0.4191 -0.4451
  681MOL0     H91872   0.784   2.639   4.652 -0.2090 -0.2835  0.3022
  681MOL0     H91873   0.807   2.513   4.754 -0.8986 -0.2455 -1.8354
  681MOL0     H91874   0.708   2.640   4.948 -1.8438 -1.9472 -0.4007
  681MOL0     H91875   0.733   2.792   4.854  2.7762 -0.5307 -2.2558
  681MOL0     H91876   0.493   2.733   4.823 -2.2260 -2.4411 -0.4193
  681MOL0     H91877   0.564   2.630   4.700 -0.7078 -4.5518  0.8949
  681MOL0     H91878   0.581   2.445   4.862 -0.7804 -0.2552 -0.2288
  681MOL0     H91879   0.520   2.551   4.993  0.0314  1.7496  0.7777
  681MOL0     H91880   0.306   2.572   4.862 -1.3936 -1.5237  0.1393
  681MOL0     H91881   0.366   2.462   4.734 -0.7157 -1.8625  0.7242
  681MOL0     H91882   0.299   2.389   5.024 -0.0429 -1.9368  0.0377
  681MOL0     H91883   0.204   2.344   4.888  0.0975 -0.6980  0.8091
  681MOL0     H91884   0.477   2.248   4.970  0.4085  1.9121  0.3682
  681MOL0     H91885   0.425   2.224   4.799 -2.5184  3.9339 -1.8693
  681MOL0     H91886   0.163   2.058   4.789  2.1538  0.7070 -0.1935
  681MOL0     H91887   0.048   1.817   4.845 -2.6613 -3.7765  1.4937
  681MOL0     H91888   0.126   1.736   4.977  3.3420  1.1900  1.5923
  681MOL0     H91889  -0.104   1.938   5.008 -0.8478 -1.2129  0.4076
  681MOL0     H91890  -0.042   1.852   5.132 -3.5264  3.5040  0.1748
  681MOL0     H91891  -0.125   1.635   5.023 -0.6116 -0.4705  0.6782
  681MOL0     H91892  -0.171   1.726   4.878 -3.3883  0.7965  0.3243
  681MOL0     H91893  -0.320   1.858   5.015  1.0960 -0.3236 -0.4352
  681MOL0     H91894  -0.282   1.762   5.161 -1.0810  0.9537  0.7251
  681MOL0     H91895  -0.578   1.522   4.938 -0.2921  0.1242  0.6677
  681MOL0     H91896  -0.912   1.460   5.036  0.4392 -0.2123 -0.2542
  681MOL0     H91897  -0.891   1.539   4.880 -0.9962 -0.1591 -0.9096
  681MOL0     H91898  -0.772   1.419   4.939 -0.0895  0.7673  2.0377
  681MOL0     H91899  -1.151   1.463   5.096  2.6011  1.1559 -2.4414
  681MOL0     H91900  -1.382   1.433   5.157  1.7602 -0.3607  0.8315
  681MOL0     H91901  -1.597   1.782   5.292 -3.5024  1.0426  1.5797
  681MOL0     H91902  -1.672   1.785   5.135 -1.8423 -1.6205 -0.7017
  681MOL0     H91903  -1.836   1.589   5.210  1.4812 -0.7827 -1.1978
  681MOL0     H91904  -1.753   1.609   5.365  1.5211  1.5565  1.0083
  681MOL0     H91905  -1.842   1.870   5.282 -0.8488 -0.5138 -1.0789
  681MOL0     H91906  -1.865   1.783   5.439 -2.3126 -0.2065  0.5435
  681MOL0     H91907  -2.017   1.730   5.191 -1.1683  0.6381  0.4620
  681MOL0     H91908  -2.061   1.681   5.360  0.8944 -1.8446 -0.4312
  681MOL0     H91909  -2.180   1.916   5.249  0.3237  0.0900  0.5672
  681MOL0     H91910  -2.018   1.967   5.246  0.5513  0.4775 -1.2154
  681MOL0     H91911  -2.157   1.904   5.512  0.9214  0.8818  0.0446
  681MOL0     H91912  -1.993   1.948   5.493  0.6952  1.1281  0.3234
  681MOL0     H91913  -2.223   2.119   5.389 -1.4075  0.4678  0.7332
  681MOL0     H91914  -2.049   2.166   5.384  1.4918 -2.2229  1.2408
  681MOL0     H91915  -2.218   2.090   5.625  3.2603 -3.3013  1.8803
  681MOL0     H91916  -2.170   2.266   5.590  2.5850  0.4015 -0.1993
  681MOL0     H91917  -1.434   1.868   5.145 -0.1303 -0.4663  0.1684
  681MOL0     H91918  -1.197   1.891   5.092 -1.1104  0.6117 -0.7704
  681MOL0     H91919  -0.727   1.899   5.214  0.9238 -0.8888  2.5251
  681MOL0     H91920  -0.499   1.865   5.180 -4.0888  2.8509  0.6376
  681MOL0     H91921   1.222   2.421   4.687  0.8701 -0.5684  0.1046
  681MOL0     H91922   1.473   2.443   4.713 -0.0788  0.9291 -3.4871
  681MOL0     H91923   1.835   2.460   5.095 -0.5810  1.8316  0.9544
  681MOL0     H91924   2.050   2.499   5.134 -3.4399 -1.5005  0.8549
  681MOL0     H91925   2.395   2.584   5.040 -0.1458  2.7490 -0.3954
  681MOL0     H91926   2.269   2.467   5.045 -0.3994 -1.2206 -2.6006
  681MOL0     H91927   2.341   2.596   4.778  1.5821 -0.9791 -1.4966
  681MOL0     H91928   2.231   2.459   4.813  0.1903 -0.6881 -1.4513
  681MOL0     H91929   2.410   2.320   4.903 -2.1149 -0.2522 -0.0798
  681MOL0     H91930   2.538   2.439   4.862  0.3406  0.5734 -0.7834
  681MOL0     H91931   2.466   2.453   4.634 -1.0771  0.8280  2.1511
  681MOL0     H91932   2.357   2.321   4.647  0.6423  0.4180 -1.4182
  681MOL0     H91933   2.705   2.084   4.657 -1.6007 -1.8549  2.0994
  681MOL0     H91934   2.075   2.768   4.800  0.2513  0.7356  0.3491
  681MOL0     H91935   1.844   2.729   4.749  0.8286 -1.2869 -1.1695
  682MOL0     O91936   3.567   8.849   2.989 -0.0955  0.2684 -0.3738
  682MOL0     C91937   3.606   8.893   2.880 -0.3235 -0.9361  0.4055
  682MOL0     O91938   3.537   8.973   2.799 -0.3745 -0.4807 -0.4256
  682MOL0     C91939   3.403   9.002   2.823  0.2298  0.3692  0.6587
  682MOL0     C91940   3.315   8.895   2.835  0.4633 -1.1170 -0.2847
  682MOL0     C91941   3.177   8.919   2.849  0.3787 -0.3615  0.1936
  682MOL0     C91942   3.133   9.054   2.850  0.7792  0.7545 -0.0781
  682MOL0     O91943   3.005   9.093   2.854 -0.0715  0.0802 -0.3308
  682MOL0     C91944   2.898   8.992   2.873 -0.6910  0.5934  0.2579
  682MOL0     C91945   2.764   9.050   2.834 -0.3980 -0.4802 -0.4642
  682MOL0     C91946   2.668   8.941   2.849  0.4329 -0.6728  0.8819
  682MOL0     C91947   2.526   9.000   2.856  0.1516 -0.2919 -0.5797
  682MOL0     C91948   2.416   8.886   2.846 -0.5150  0.0916  0.0750
  682MOL0     C91949   2.395   8.827   2.707 -0.8551 -0.4425 -0.1151
  682MOL0     C91950   2.286   8.721   2.723 -0.1213  0.0698 -0.4642
  682MOL0     C91951   2.249   8.663   2.588 -0.3332  0.0544  0.2033
  682MOL0     N91952   2.143   8.744   2.527  1.2001 -0.2588  0.9172
  682MOL0     C91953   2.005   8.748   2.544  0.2055 -0.0163 -0.2302
  682MOL0     C91954   1.960   8.860   2.490 -1.0356 -0.0749 -0.7430
  682MOL0     C91955   1.818   8.916   2.489 -0.2602  0.0555 -0.0907
  682MOL0     C91956   1.703   8.817   2.511 -0.1464 -0.2539  0.1299
  682MOL0     C91957   1.578   8.894   2.532 -0.0885 -0.7909  0.7183
  682MOL0     C91958   1.459   8.804   2.572 -0.2607 -1.1999  1.0243
  682MOL0     O91959   1.333   8.889   2.584 -0.4522 -0.9028  0.4612
  682MOL0     C91960   1.236   8.856   2.672 -0.7982  0.1722 -0.6487
  682MOL0     C91961   1.236   8.729   2.721  0.0422 -0.4487  0.7777
  682MOL0     C91962   1.121   8.678   2.784  0.0609 -0.6062 -1.2587
  682MOL0     C91963   1.108   8.531   2.810  0.1379 -0.1748 -0.1492
  682MOL0     C91964   1.019   8.764   2.827  0.2308  0.1071  0.2928
  682MOL0     C91965   0.902   8.741   2.918  0.0066  0.5186  0.6130
  682MOL0     O91966   0.883   8.615   2.971 -0.3327 -0.4192  0.2802
  682MOL0     C91967   0.776   8.605   3.050  1.1623 -0.0069 -0.9170
  682MOL0     C91968   0.653   8.577   2.991  1.0012  0.4231 -0.3072
  682MOL0     C91969   0.549   8.526   3.068 -0.1317 -0.6629  0.5190
  682MOL0     C91970   0.560   8.523   3.208  0.0971 -0.5519  0.0960
  682MOL0     O91971   0.453   8.469   3.264  0.5786  0.1112 -0.2720
  682MOL0     C91972   0.435   8.465   3.410  0.3280  0.9135  0.1221
  682MOL0     C91973   0.391   8.602   3.458  0.1275  0.2551 -0.0345
  682MOL0     C91974   0.245   8.618   3.432 -0.7485 -0.3429  0.5409
  682MOL0     C91975   0.151   8.510   3.498  0.2012  0.5371 -0.2498
  682MOL0     C91976  -0.002   8.539   3.490  0.0231  0.4209 -0.8395
  682MOL0     C91977  -0.033   8.625   3.618  0.2427  0.1914 -0.1218
  682MOL0     C91978  -0.187   8.660   3.616  0.1651  0.0766 -0.2082
  682MOL0     C91979  -0.220   8.751   3.730  0.7106  1.1702 -0.3617
  682MOL0    Cl91980  -0.129   8.907   3.696 -0.1819 -0.3792 -0.1266
  682MOL0     C91981   0.675   8.580   3.273 -0.2700 -0.3027  0.1829
  682MOL0     C91982   0.785   8.615   3.191  0.2582 -0.8639  0.1150
  682MOL0     O91983   0.813   8.822   2.916  0.4132  0.0146 -0.0712
  682MOL0     C91984   1.027   8.899   2.776  0.6317  0.0118  0.1498
  682MOL0     C91985   1.130   8.936   2.697  0.0659 -0.8954  0.9564
  682MOL0     N91986   2.067   8.931   2.434  0.2389  0.2979  0.1439
  682MOL0     N91987   2.168   8.866   2.464 -0.1887  0.7263  0.3194
  682MOL0     C91988   3.228   9.155   2.833 -0.2223 -1.0112 -0.8290
  682MOL0     C91989   3.363   9.130   2.825  0.1813  0.3094  0.7831
  682MOL0     C91990   3.752   8.871   2.850  0.0004 -0.2737 -0.5361
  682MOL0     C91991   3.810   8.903   2.726 -0.2835 -0.0099  0.3917
  682MOL0     C91992   3.948   8.882   2.705 -0.5115 -0.1020  0.6825
  682MOL0     C91993   4.032   8.831   2.806  0.0931 -0.0307 -0.1861
  682MOL0     O91994   4.162   8.806   2.775 -0.1328 -0.3543  0.6102
  682MOL0     C91995   4.253   8.780   2.886 -0.2397  0.6791  0.2398
  682MOL0     C91996   4.396   8.812   2.830 -0.2530 -0.1389 -0.4936
  682MOL0     C91997   4.513   8.803   2.926 -0.1247  0.0258 -0.0960
  682MOL0     C91998   4.634   8.857   2.858  0.1386  0.2968  0.0334
  682MOL0     C91999   4.670   8.786   2.734 -0.8575  0.0950  0.0433
  682MOL0     C92000   4.708   8.748   2.623 -0.2258  0.6539  0.3740
  682MOL0     C92001   3.969   8.788   2.930 -0.0651 -0.0308 -0.5699
  682MOL0     C92002   3.833   8.811   2.949  0.1287 -1.2749 -1.4410
  682MOL0     H92003   3.342   8.790   2.830  1.2581 -1.0396  1.6297
  682MOL0     H92004   3.110   8.834   2.859 -1.1854  0.5458 -1.9272
  682MOL0     H92005   2.914   8.909   2.803 -0.6525 -0.5102  1.5365
  682MOL0     H92006   2.907   8.955   2.975  0.8516  0.5468  0.1337
  682MOL0     H92007   2.731   9.130   2.901  3.0881 -0.4088  1.3905
  682MOL0     H92008   2.759   9.083   2.730 -0.9097  2.2127  0.3322
  682MOL0     H92009   2.676   8.878   2.760  1.1024 -2.1129  1.8997
  682MOL0     H92010   2.690   8.883   2.940  0.0936 -1.7855  0.2753
  682MOL0     H92011   2.524   9.053   2.952 -0.4073  1.4098 -1.4895
  682MOL0     H92012   2.493   9.072   2.780 -0.7025  1.5499  1.4239
  682MOL0     H92013   2.449   8.802   2.907  0.1098 -0.5661 -1.1234
  682MOL0     H92014   2.327   8.918   2.900  0.3939 -0.3057  1.8717
  682MOL0     H92015   2.364   8.910   2.643 -3.3777 -1.0433  0.2095
  682MOL0     H92016   2.484   8.776   2.670 -0.4673  0.9084 -1.0914
  682MOL0     H92017   2.345   8.645   2.775 -0.1308 -0.0964 -0.6993
  682MOL0     H92018   2.190   8.746   2.770 -0.8780  0.2979 -2.0599
  682MOL0     H92019   2.204   8.563   2.596  0.8437 -0.4883  0.1950
  682MOL0     H92020   2.339   8.665   2.527 -1.1473  2.7164 -1.0707
  682MOL0     H92021   1.947   8.689   2.615 -1.6878  0.5842 -1.1992
  682MOL0     H92022   1.813   8.990   2.570 -0.9785 -3.3653  3.2949
  682MOL0     H92023   1.811   8.975   2.397 -0.1200  3.8477  2.1079
  682MOL0     H92024   1.729   8.767   2.605  0.1748 -0.4296 -0.0503
  682MOL0     H92025   1.702   8.750   2.424 -0.0533 -1.6141  1.1540
  682MOL0     H92026   1.555   8.943   2.437  0.7495  0.5926  1.1930
  682MOL0     H92027   1.595   8.971   2.608 -0.6959  2.0850 -1.8333
  682MOL0     H92028   1.481   8.774   2.675 -1.5522 -1.5833  1.2081
  682MOL0     H92029   1.449   8.720   2.504  3.5788 -0.4462 -0.7706
  682MOL0     H92030   1.311   8.653   2.703  1.7274  0.9460  1.6343
  682MOL0     H92031   1.004   8.501   2.796  0.3202 -1.7028  1.4530
  682MOL0     H92032   1.169   8.470   2.742  1.0094 -2.5825  2.6011
  682MOL0     H92033   1.139   8.509   2.913 -1.0964  2.1843  0.8035
  682MOL0     H92034   0.644   8.574   2.883  1.1967  1.4951 -0.3619
  682MOL0     H92035   0.464   8.485   3.015 -0.9551  3.9521 -2.2777
  682MOL0     H92036   0.373   8.383   3.449  1.0956  0.1789 -0.1681
  682MOL0     H92037   0.534   8.447   3.453  0.9650 -1.3918 -2.0896
  682MOL0     H92038   0.404   8.602   3.566  0.3235 -0.3383 -0.0561
  682MOL0     H92039   0.456   8.680   3.416  1.7923  0.2948  2.4163
  682MOL0     H92040   0.233   8.616   3.323  3.7842 -1.3961 -0.1333
  682MOL0     H92041   0.208   8.706   3.485 -2.8219 -1.1839  0.5856
  682MOL0     H92042   0.172   8.415   3.450  0.4980  0.8299 -0.7052
  682MOL0     H92043   0.187   8.503   3.601  1.9307 -0.4592 -0.8931
  682MOL0     H92044  -0.061   8.448   3.475  0.5700  0.0509 -0.7680
  682MOL0     H92045  -0.022   8.592   3.396  1.7702  0.3563 -1.2725
  682MOL0     H92046  -0.001   8.563   3.702  0.2746 -1.4764 -1.2912
  682MOL0     H92047   0.031   8.713   3.616 -0.3582  0.6586  0.5980
  682MOL0     H92048  -0.243   8.567   3.622  0.3599  0.0351  1.5792
  682MOL0     H92049  -0.221   8.714   3.527  2.9186 -0.6906 -1.8485
  682MOL0     H92050  -0.194   8.701   3.823 -0.5962  1.8474  0.3850
  682MOL0     H92051  -0.326   8.773   3.742  0.4259 -0.3467  0.0278
  682MOL0     H92052   0.690   8.595   3.379  1.4763  0.6966 -0.1614
  682MOL0     H92053   0.875   8.657   3.235 -0.9779  1.4973  0.4966
  682MOL0     H92054   0.953   8.977   2.792  1.0020  0.4545 -0.2530
  682MOL0     H92055   1.143   9.039   2.663  1.4174 -0.2128  3.3181
  682MOL0     H92056   3.189   9.256   2.842  1.4376 -0.4075 -0.0702
  682MOL0     H92057   3.428   9.216   2.810  0.2442  0.2520  0.7252
  682MOL0     H92058   3.754   8.941   2.641 -0.4241  0.7049  0.7922
  682MOL0     H92059   3.994   8.922   2.616  2.3271 -1.5586  1.3892
  682MOL0     H92060   4.220   8.829   2.977 -1.3167  2.3031 -0.9759
  682MOL0     H92061   4.248   8.672   2.902 -0.1932  0.6022 -0.2304
  682MOL0     H92062   4.405   8.909   2.780  1.8804 -1.0217 -1.9731
  682MOL0     H92063   4.413   8.743   2.747  3.2070 -1.5259  1.1507
  682MOL0     H92064   4.523   8.703   2.969 -1.3139 -0.5246 -1.0182
  682MOL0     H92065   4.503   8.867   3.014 -0.4289 -0.3018  0.1110
  682MOL0     H92066   4.719   8.856   2.927  0.5200  1.9446 -0.3645
  682MOL0     H92067   4.624   8.959   2.820  3.0976  0.9072  0.6431
  682MOL0     H92068   4.726   8.705   2.526 -1.6609  0.0912  0.3333
  682MOL0     H92069   4.024   8.743   3.011 -0.4022 -1.3870 -1.0773
  682MOL0     H92070   3.807   8.797   3.054  1.6658  1.7559 -0.5325
  683MOL0     O92071   5.013   1.456  10.869  0.4237 -0.8871  0.0136
  683MOL0     C92072   5.105   1.453  10.952 -0.4297 -0.8298  1.0157
  683MOL0     O92073   5.088   1.392  11.071  0.6412 -0.0507 -0.0663
  683MOL0     C92074   4.961   1.344  11.108 -0.4154 -0.3055 -0.0128
  683MOL0     C92075   4.917   1.216  11.074 -0.0348 -0.3182  0.0674
  683MOL0     C92076   4.784   1.180  11.100  0.0938 -0.0224  0.2211
  683MOL0     C92077   4.691   1.273  11.158 -0.4314  0.3010 -0.1069
  683MOL0     O92078   4.560   1.245  11.190  0.4042 -0.0286 -0.0162
  683MOL0     C92079   4.447   1.339  11.205 -0.5126  0.2505 -0.2736
  683MOL0     C92080   4.305   1.287  11.212 -0.8622  0.4972  0.0374
  683MOL0     C92081   4.258   1.202  11.335  0.4341 -0.2856  0.4286
  683MOL0     C92082   4.264   1.285  11.464  0.0139 -0.1271 -0.1780
  683MOL0     C92083   4.196   1.203  11.570 -0.3794  0.1873 -0.0498
  683MOL0     C92084   4.168   1.301  11.691  0.6002  0.6431  0.4483
  683MOL0     C92085   4.127   1.225  11.820 -0.3277  0.1572 -0.7576
  683MOL0     C92086   4.110   1.331  11.924 -0.1243 -0.5125  0.2858
  683MOL0     N92087   4.044   1.260  12.033  0.3233  0.3755 -1.0478
  683MOL0     C92088   3.907   1.231  12.041 -0.0358 -0.1158  0.8152
  683MOL0     C92089   3.901   1.125  12.126 -0.2240 -0.0545 -1.0557
  683MOL0     C92090   3.785   1.046  12.164  0.0065 -0.4748 -1.1849
  683MOL0     C92091   3.783   0.976  12.300 -0.7888  0.0349  0.2234
  683MOL0     C92092   3.820   1.050  12.424 -0.4799 -0.8330  0.0618
  683MOL0     C92093   3.725   1.154  12.477 -0.6012 -0.1402  1.0301
  683MOL0     O92094   3.704   1.253  12.375  0.0914  0.5396  0.3636
  683MOL0     C92095   3.580   1.298  12.383 -0.1466 -0.2367 -0.3307
  683MOL0     C92096   3.520   1.335  12.265  0.4400 -0.2103  0.3686
  683MOL0     C92097   3.386   1.370  12.259  0.0262 -0.9063 -1.4537
  683MOL0     C92098   3.339   1.390  12.119 -0.9235 -0.8578  0.3246
  683MOL0     C92099   3.311   1.392  12.382 -0.0031 -0.2898 -0.5390
  683MOL0     C92100   3.177   1.453  12.381 -0.7629  0.4426  0.5045
  683MOL0     O92101   3.104   1.443  12.505 -0.0272 -0.7456  0.3843
  683MOL0     C92102   2.980   1.506  12.507  0.0669  0.6364 -0.0803
  683MOL0     C92103   2.879   1.423  12.537 -0.2371 -0.2727  0.6756
  683MOL0     C92104   2.748   1.466  12.526 -0.2469 -0.2920  0.1706
  683MOL0     C92105   2.720   1.603  12.487 -0.6743 -0.2289  0.9617
  683MOL0     O92106   2.600   1.656  12.466 -0.0105 -0.1683  0.3309
  683MOL0     C92107   2.523   1.665  12.592  0.1895 -0.5875 -0.1563
  683MOL0     C92108   2.382   1.720  12.574  0.4559 -0.0272  0.4127
  683MOL0     C92109   2.314   1.717  12.709  0.1844 -0.1077 -0.5837
  683MOL0     C92110   2.208   1.826  12.709 -0.4889 -0.1670  0.1973
  683MOL0     C92111   2.077   1.776  12.773 -0.2394  0.4537 -0.8877
  683MOL0     C92112   1.982   1.891  12.803 -0.2922  1.6114 -0.1721
  683MOL0     C92113   2.022   1.959  12.935 -0.4004  0.2558  0.1005
  683MOL0     C92114   1.906   2.029  12.996  0.3087 -0.2858  0.1628
  683MOL0    Cl92115   1.845   2.145  12.871  0.2342  0.3500 -0.0961
  683MOL0     C92116   2.832   1.688  12.468  1.0233  1.0656  0.6614
  683MOL0     C92117   2.960   1.639  12.474  0.5013  0.2480  1.0256
  683MOL0     O92118   3.135   1.517  12.285  0.0306  0.3038  0.4558
  683MOL0     C92119   3.371   1.364  12.497 -0.5529 -0.5937 -0.3144
  683MOL0     C92120   3.505   1.316  12.506  1.0204  0.4698 -0.8928
  683MOL0     N92121   4.024   1.095  12.164 -0.0209  0.5045  0.3168
  683MOL0     N92122   4.110   1.181  12.123  0.2488  0.3361 -0.3698
  683MOL0     C92123   4.739   1.402  11.177 -0.9328 -0.1506  0.3208
  683MOL0     C92124   4.871   1.444  11.153  0.2988  0.6213 -0.7839
  683MOL0     C92125   5.238   1.502  10.909  0.8860 -0.2971 -0.1322
  683MOL0     C92126   5.344   1.497  10.999  0.7477 -0.6842 -0.8142
  683MOL0     C92127   5.467   1.559  10.971 -0.2812  0.0773 -0.0283
  683MOL0     C92128   5.483   1.621  10.843  0.0260  0.8500  0.0400
  683MOL0     O92129   5.594   1.683  10.801  0.3897 -0.8981 -0.1713
  683MOL0     C92130   5.714   1.684  10.878 -0.3624  0.1482 -0.0699
  683MOL0     C92131   5.825   1.733  10.777  0.5316 -0.5432 -0.6736
  683MOL0     C92132   5.824   1.645  10.661 -0.2476  0.6092 -0.1892
  683MOL0     C92133   5.950   1.672  10.574 -0.7228 -0.9595 -0.1717
  683MOL0     C92134   5.926   1.763  10.468  0.5711 -0.2326  0.3996
  683MOL0     C92135   5.896   1.826  10.358  0.7564  0.2117 -0.4432
  683MOL0     C92136   5.380   1.611  10.753  0.6518  0.1234 -0.5079
  683MOL0     C92137   5.261   1.557  10.781  0.6258 -0.0949 -0.4940
  683MOL0     H92138   4.980   1.136  11.035 -3.2820 -2.7989 -0.5053
  683MOL0     H92139   4.747   1.079  11.083 -4.6311  1.4374  0.5071
  683MOL0     H92140   4.465   1.396  11.297 -0.2665  1.1274 -0.8410
  683MOL0     H92141   4.456   1.411  11.123  0.1271  0.0470 -0.3875
  683MOL0     H92142   4.230   1.367  11.217 -0.4028  0.9009  0.5142
  683MOL0     H92143   4.284   1.224  11.126 -0.3225  0.2437  0.0889
  683MOL0     H92144   4.155   1.173  11.312  1.1418 -1.2894 -1.7768
  683MOL0     H92145   4.308   1.106  11.350 -0.4775 -0.5948  1.6711
  683MOL0     H92146   4.365   1.306  11.501  0.6193 -0.6860 -1.4512
  683MOL0     H92147   4.216   1.382  11.451 -0.9717 -0.4578  0.8104
  683MOL0     H92148   4.096   1.174  11.538 -0.0434 -0.6029 -0.4073
  683MOL0     H92149   4.257   1.114  11.591  0.5616 -0.2770 -3.9774
  683MOL0     H92150   4.256   1.365  11.707  4.8407 -3.4322 -3.4520
  683MOL0     H92151   4.090   1.372  11.664  0.9664 -0.0808 -2.9402
  683MOL0     H92152   4.032   1.174  11.801 -1.0152  1.2559 -0.3412
  683MOL0     H92153   4.208   1.159  11.853  0.1001  0.4309 -1.2443
  683MOL0     H92154   4.038   1.406  11.888 -0.7540 -2.0340 -1.7577
  683MOL0     H92155   4.200   1.383  11.958 -1.2006  1.1611  0.7093
  683MOL0     H92156   3.830   1.285  11.988  0.1446  0.7220  1.3768
  683MOL0     H92157   3.697   1.109  12.151  0.4910  0.2622 -0.9408
  683MOL0     H92158   3.776   0.967  12.088 -2.4171 -0.6500 -0.7934
  683MOL0     H92159   3.851   0.891  12.290  0.1020  0.8846 -1.3598
  683MOL0     H92160   3.686   0.927  12.310  0.1292 -2.1319 -0.6981
  683MOL0     H92161   3.921   1.093  12.420 -0.7406 -0.2439 -0.1693
  683MOL0     H92162   3.832   0.978  12.506  0.2063  0.7876  1.4384
  683MOL0     H92163   3.769   1.199  12.567  0.7701  0.1466  0.2452
  683MOL0     H92164   3.633   1.099  12.497 -1.3492  0.3508 -0.8666
  683MOL0     H92165   3.581   1.329  12.176 -1.1895 -1.6229 -0.7083
  683MOL0     H92166   3.379   1.326  12.041 -2.3185  0.2417 -1.3563
  683MOL0     H92167   3.232   1.381  12.099 -0.8410 -1.0042 -0.0494
  683MOL0     H92168   3.365   1.491  12.087 -0.5122 -1.4133 -1.1868
  683MOL0     H92169   2.895   1.318  12.559 -1.2575 -1.1205 -2.1537
  683MOL0     H92170   2.663   1.401  12.541 -1.5338  1.3163  0.0676
  683MOL0     H92171   2.504   1.569  12.642  1.1000 -0.5531  0.2659
  683MOL0     H92172   2.580   1.723  12.664 -1.6862 -0.0242  0.9466
  683MOL0     H92173   2.386   1.820  12.529  2.6153 -0.1777  0.1293
  683MOL0     H92174   2.335   1.654  12.500  2.3517  0.1658 -1.0473
  683MOL0     H92175   2.380   1.731  12.795 -1.6531 -1.7761  1.1956
  683MOL0     H92176   2.262   1.621  12.716 -0.5803  0.4113  3.1955
  683MOL0     H92177   2.255   1.914  12.756 -1.4041  0.8913 -0.8011
  683MOL0     H92178   2.194   1.856  12.604 -0.9154 -2.0153 -0.3004
  683MOL0     H92179   2.098   1.723  12.866  0.4453  1.6005 -0.3697
  683MOL0     H92180   2.028   1.709  12.701 -0.1867  0.1674 -0.6610
  683MOL0     H92181   1.980   1.961  12.719  1.8139 -0.1348 -1.7607
  683MOL0     H92182   1.886   1.839  12.815 -1.3405  2.2257 -4.2683
  683MOL0     H92183   2.110   2.022  12.920 -0.5652  0.7147  1.0183
  683MOL0     H92184   2.056   1.883  13.007 -1.3555 -2.0098 -1.7234
  683MOL0     H92185   1.933   2.073  13.093 -1.9470 -1.0511  1.2133
  683MOL0     H92186   1.823   1.960  13.012 -0.6570  0.7285 -0.3427
  683MOL0     H92187   2.809   1.792  12.447 -2.4298  0.6591  1.7944
  683MOL0     H92188   3.042   1.710  12.469  1.1614 -0.3145  2.8731
  683MOL0     H92189   3.319   1.381  12.591  1.1700 -0.5884  0.6758
  683MOL0     H92190   3.556   1.309  12.601 -2.3090  1.3871  1.1599
  683MOL0     H92191   4.674   1.479  11.217 -0.1970  0.3479  0.5730
  683MOL0     H92192   4.893   1.545  11.185  2.6466 -0.1920  0.4285
  683MOL0     H92193   5.337   1.454  11.099 -2.5970  1.6233  0.1312
  683MOL0     H92194   5.548   1.559  11.043  0.8702  0.6742 -1.2848
  683MOL0     H92195   5.702   1.759  10.956 -0.0491  2.3810 -2.0634
  683MOL0     H92196   5.740   1.587  10.922 -3.1367  0.4049  2.4925
  683MOL0     H92197   5.914   1.716  10.838 -0.2290  1.0171  0.9665
  683MOL0     H92198   5.798   1.836  10.753 -0.7338 -1.1509 -2.0090
  683MOL0     H92199   5.736   1.676  10.603  0.4281  2.9338 -0.0761
  683MOL0     H92200   5.817   1.538  10.683  0.3091  0.5403 -0.3443
  683MOL0     H92201   5.994   1.579  10.537  0.3362 -0.4876 -0.1325
  683MOL0     H92202   6.019   1.724  10.641 -2.9102  0.3968  1.1824
  683MOL0     H92203   5.861   1.865  10.264 -0.8944  1.5658  0.6592
  683MOL0     H92204   5.397   1.660  10.658 -0.8571 -1.1278 -1.4630
  683MOL0     H92205   5.180   1.565  10.710  0.0325  0.7220  0.2622
  684MOL0     O92206   5.041   3.676   6.760  0.8493  0.2054  0.3312
  684MOL0     C92207   4.938   3.606   6.777 -0.2019  0.1737  0.3684
  684MOL0     O92208   4.919   3.510   6.867 -0.3998 -0.5583  0.1696
  684MOL0     C92209   4.988   3.511   6.983 -0.6181  0.2346  0.0424
  684MOL0     C92210   5.033   3.394   7.043  0.3330  0.2722  0.0633
  684MOL0     C92211   5.091   3.395   7.171  0.2588 -0.8208 -0.4244
  684MOL0     C92212   5.109   3.509   7.235  0.1880  0.6057 -0.3297
  684MOL0     O92213   5.161   3.503   7.358 -0.2302 -0.0670  0.0404
  684MOL0     C92214   5.176   3.616   7.433 -0.0927  0.5409  0.6534
  684MOL0     C92215   5.243   3.592   7.570 -0.0276  0.0479  0.1858
  684MOL0     C92216   5.159   3.503   7.667 -0.1710 -0.3614  0.5076
  684MOL0     C92217   5.073   3.583   7.760  0.6036 -0.2358 -0.1268
  684MOL0     C92218   4.926   3.569   7.718 -0.2216  0.4553 -0.1528
  684MOL0     C92219   4.831   3.687   7.763  0.3372  0.6868 -0.6742
  684MOL0     C92220   4.824   3.706   7.912 -0.2496  0.3423 -0.2531
  684MOL0     C92221   4.737   3.596   7.975 -0.0689 -0.0901 -0.1506
  684MOL0     N92222   4.591   3.607   7.937  0.2778  0.2996 -0.5856
  684MOL0     C92223   4.522   3.536   7.845 -0.0186 -0.0173  0.3557
  684MOL0     C92224   4.399   3.588   7.852  0.3344 -0.4293  0.2434
  684MOL0     C92225   4.277   3.572   7.769  0.2635 -0.3194  0.0319
  684MOL0     C92226   4.154   3.542   7.848  0.5262  0.6904 -0.1271
  684MOL0     C92227   4.162   3.407   7.921  0.0171 -0.2383 -0.6368
  684MOL0     C92228   4.042   3.370   8.001  1.3957 -0.2615  0.2156
  684MOL0     O92229   3.934   3.341   7.908  0.1651 -1.1525  0.1185
  684MOL0     C92230   3.806   3.393   7.938  0.8014  0.1399  1.1832
  684MOL0     C92231   3.760   3.457   8.056 -0.0072  0.5666  0.2694
  684MOL0     C92232   3.628   3.506   8.063  0.3713 -0.2499 -0.0515
  684MOL0     C92233   3.597   3.590   8.184  0.3377 -0.4346  0.3633
  684MOL0     C92234   3.543   3.487   7.960  0.1693 -0.1511  0.0535
  684MOL0     C92235   3.401   3.531   7.963  0.1904  0.3503 -0.6091
  684MOL0     O92236   3.309   3.480   7.877 -0.1790  0.2282 -0.4269
  684MOL0     C92237   3.177   3.491   7.887  0.0853  0.0573 -0.6346
  684MOL0     C92238   3.113   3.506   8.014  0.9499  0.2269 -0.1262
  684MOL0     C92239   2.971   3.515   8.023  0.0660 -0.5873 -1.2592
  684MOL0     C92240   2.888   3.517   7.908  0.1749 -0.1769  0.3780
  684MOL0     O92241   2.754   3.523   7.902  0.2466  0.1813  0.3452
  684MOL0     C92242   2.676   3.511   8.022  0.9633  0.9830  0.6123
  684MOL0     C92243   2.596   3.633   8.045  0.3081 -0.1797 -0.6721
  684MOL0     C92244   2.673   3.751   8.091  0.2162  0.3615 -0.0714
  684MOL0     C92245   2.583   3.873   8.095 -0.1719  0.1717 -0.1913
  684MOL0     C92246   2.664   4.004   8.129  0.1757  0.8210 -0.6045
  684MOL0     C92247   2.586   4.106   8.213 -0.6498 -0.4846  0.1913
  684MOL0     C92248   2.645   4.246   8.221  0.1099  0.6921 -0.5472
  684MOL0     C92249   2.778   4.260   8.303  0.0516 -0.0683  0.1100
  684MOL0    Cl92250   2.736   4.228   8.473 -0.8790  0.0809  0.1376
  684MOL0     C92251   2.956   3.506   7.781  0.3674  0.1606  0.5578
  684MOL0     C92252   3.094   3.496   7.774  0.0702 -0.2177 -0.5736
  684MOL0     O92253   3.367   3.609   8.047 -0.5126 -0.6291 -0.0702
  684MOL0     C92254   3.583   3.424   7.847 -0.5575  0.5652  1.0325
  684MOL0     C92255   3.717   3.370   7.836  1.5908 -0.0498  0.8096
  684MOL0     N92256   4.392   3.691   7.949  0.4290  0.0410  0.1665
  684MOL0     N92257   4.509   3.691   8.002 -0.1189  0.5325  0.1626
  684MOL0     C92258   5.070   3.626   7.172 -0.6749 -0.5445  0.5819
  684MOL0     C92259   5.001   3.628   7.053  0.1164  0.7669  0.3332
  684MOL0     C92260   4.831   3.630   6.675 -0.4119  0.5013  0.7721
  684MOL0     C92261   4.872   3.671   6.549 -0.1823  0.1816 -0.1921
  684MOL0     C92262   4.773   3.702   6.459  0.3036  0.6444  0.7149
  684MOL0     C92263   4.637   3.669   6.466 -0.4616  0.0305 -1.7200
  684MOL0     O92264   4.560   3.702   6.363 -0.0712 -0.7405 -0.0772
  684MOL0     C92265   4.427   3.644   6.366 -0.2556 -0.4239 -0.0759
  684MOL0     C92266   4.355   3.674   6.230 -1.5483  0.1602  0.5669
  684MOL0     C92267   4.403   3.568   6.130  0.5421  0.1844 -0.5981
  684MOL0     C92268   4.301   3.547   6.019 -0.2251 -0.0437 -0.0483
  684MOL0     C92269   4.349   3.458   5.913 -0.0601 -0.4226 -0.4221
  684MOL0     C92270   4.390   3.373   5.833 -0.1681  0.3602 -0.3202
  684MOL0     C92271   4.598   3.627   6.593  0.3167  0.2829 -0.3567
  684MOL0     C92272   4.696   3.605   6.694  0.9400  0.2805  0.5419
  684MOL0     H92273   5.025   3.302   6.987  0.7624 -0.4450  1.1568
  684MOL0     H92274   5.114   3.294   7.204  1.1187 -1.2716 -2.2706
  684MOL0     H92275   5.231   3.689   7.373 -0.8281 -1.4405 -2.6761
  684MOL0     H92276   5.079   3.659   7.459 -0.9404 -2.4491  3.0310
  684MOL0     H92277   5.344   3.555   7.551 -0.7313 -1.3771 -0.9287
  684MOL0     H92278   5.274   3.687   7.615  0.3732  0.6728 -1.3322
  684MOL0     H92279   5.096   3.432   7.612 -1.0861  1.5117 -0.9660
  684MOL0     H92280   5.236   3.441   7.713 -1.0946 -0.8377  1.4416
  684MOL0     H92281   5.093   3.546   7.861 -0.6601  2.9082  1.4187
  684MOL0     H92282   5.110   3.686   7.767 -0.8058  0.3141 -0.5094
  684MOL0     H92283   4.911   3.559   7.610  0.5657 -1.2181 -0.1494
  684MOL0     H92284   4.887   3.478   7.765  1.3604  1.1000  2.5953
  684MOL0     H92285   4.859   3.781   7.716 -1.5276  0.2354 -2.8710
  684MOL0     H92286   4.733   3.657   7.725 -0.5762  3.8373 -1.0525
  684MOL0     H92287   4.923   3.712   7.960 -0.5726  2.2410  0.2943
  684MOL0     H92288   4.768   3.796   7.940  1.7736  1.5346  0.2128
  684MOL0     H92289   4.740   3.606   8.083 -0.8980 -1.3203  0.0062
  684MOL0     H92290   4.777   3.500   7.943  0.8738 -0.7459  2.7489
  684MOL0     H92291   4.572   3.464   7.781  2.0126 -0.2483  2.0908
  684MOL0     H92292   4.269   3.666   7.713 -1.3292 -0.8242 -0.6210
  684MOL0     H92293   4.291   3.495   7.693 -0.7769 -0.1478 -0.3451
  684MOL0     H92294   4.061   3.544   7.789  0.0302  0.3491  0.6385
  684MOL0     H92295   4.152   3.618   7.926 -0.6723  1.7183 -1.0951
  684MOL0     H92296   4.240   3.400   7.997 -1.8460 -0.1407  1.3963
  684MOL0     H92297   4.184   3.324   7.853 -3.0689 -1.7470  0.0340
  684MOL0     H92298   4.022   3.446   8.076  0.3869 -0.6923  0.3914
  684MOL0     H92299   4.072   3.277   8.052 -0.5274  0.4099  2.7837
  684MOL0     H92300   3.831   3.477   8.135  4.8908  1.7751 -3.9312
  684MOL0     H92301   3.525   3.544   8.252 -0.3597 -0.2252 -0.2181
  684MOL0     H92302   3.679   3.594   8.256 -2.3847  0.6161  3.6914
  684MOL0     H92303   3.572   3.694   8.160 -2.9302 -1.4894 -1.5132
  684MOL0     H92304   3.162   3.506   8.111  0.2737  2.6373  0.2984
  684MOL0     H92305   2.929   3.526   8.122  0.7774 -0.4688 -0.9616
  684MOL0     H92306   2.605   3.429   8.005  0.8630  1.4985 -1.9012
  684MOL0     H92307   2.737   3.485   8.109 -0.4065  2.9877  2.2789
  684MOL0     H92308   2.544   3.666   7.954 -1.4002 -1.0119 -0.0234
  684MOL0     H92309   2.525   3.602   8.121  3.4816 -0.8436  2.2577
  684MOL0     H92310   2.762   3.766   8.029 -0.9740  0.2045 -1.8785
  684MOL0     H92311   2.693   3.729   8.197 -1.2669 -1.2398 -0.0866
  684MOL0     H92312   2.536   3.893   7.998  2.1390 -0.6378 -1.5640
  684MOL0     H92313   2.514   3.845   8.174 -0.2235 -0.2522 -0.3824
  684MOL0     H92314   2.708   4.057   8.045  1.0435  0.6808 -0.2454
  684MOL0     H92315   2.755   3.973   8.181 -0.1538 -1.0379 -1.0583
  684MOL0     H92316   2.484   4.120   8.174  0.2723  0.4593 -2.0784
  684MOL0     H92317   2.578   4.072   8.316 -0.9409  0.4215  0.4777
  684MOL0     H92318   2.571   4.314   8.265 -0.3620 -0.6482  0.8273
  684MOL0     H92319   2.664   4.271   8.116 -3.0442  0.8126 -1.1690
  684MOL0     H92320   2.815   4.363   8.298  1.6951 -0.6516 -0.3130
  684MOL0     H92321   2.855   4.194   8.261 -0.1641 -0.0886 -0.2553
  684MOL0     H92322   2.894   3.525   7.694 -0.9900  1.5788  1.7771
  684MOL0     H92323   3.132   3.496   7.672  1.7387 -1.0261  0.0076
  684MOL0     H92324   3.513   3.401   7.768  1.9542  1.8198 -1.7382
  684MOL0     H92325   3.748   3.325   7.743  1.1051  1.4427 -0.1229
  684MOL0     H92326   5.089   3.727   7.207 -2.1919 -0.1371  0.2759
  684MOL0     H92327   4.960   3.722   7.019 -1.6529  0.1434  0.6093
  684MOL0     H92328   4.974   3.684   6.515 -0.0573  3.2917  1.0504
  684MOL0     H92329   4.791   3.762   6.370 -2.7053 -0.3425 -0.6934
  684MOL0     H92330   4.432   3.537   6.384  0.4730 -0.7597 -2.0418
  684MOL0     H92331   4.372   3.690   6.449 -0.0900  1.0636 -0.7494
  684MOL0     H92332   4.378   3.778   6.206  2.1136 -0.5842  0.2122
  684MOL0     H92333   4.247   3.665   6.237 -1.5564  0.6372  1.1422
  684MOL0     H92334   4.410   3.476   6.190 -0.1937  0.2829 -0.3485
  684MOL0     H92335   4.506   3.579   6.096  0.7362 -0.2765 -0.1846
  684MOL0     H92336   4.273   3.644   5.978 -3.2631 -0.6958  0.1950
  684MOL0     H92337   4.212   3.501   6.063  0.3052 -0.1046  0.9918
  684MOL0     H92338   4.433   3.303   5.764 -0.4747  2.3487 -2.6444
  684MOL0     H92339   4.499   3.585   6.606  0.0879 -0.0055 -2.5811
  684MOL0     H92340   4.660   3.571   6.791  2.1327 -0.3161  0.7963
  685MOL0     O92341  11.022   0.149   2.537 -0.3996  0.1177  1.0129
  685MOL0     C92342  11.029   0.264   2.495  0.5941  0.1476  0.4363
  685MOL0     O92343  10.923   0.345   2.468  0.0775  0.3205 -0.0304
  685MOL0     C92344  10.810   0.315   2.537  0.7048  0.2410  0.0880
  685MOL0     C92345  10.808   0.292   2.679  0.4733 -0.3548  0.9567
  685MOL0     C92346  10.675   0.288   2.734 -0.4594  0.5010  0.0338
  685MOL0     C92347  10.557   0.312   2.661  0.3440 -0.2709  0.0460
  685MOL0     O92348  10.426   0.308   2.703  0.3860 -0.2577 -0.3496
  685MOL0     C92349  10.395   0.278   2.842  0.1688  0.3280 -0.1338
  685MOL0     C92350  10.403   0.398   2.933 -0.2147 -0.6363  0.6128
  685MOL0     C92351  10.267   0.489   2.950 -0.1096  0.1789  0.8150
  685MOL0     C92352  10.225   0.548   2.817 -0.3932  0.9928  0.5796
  685MOL0     C92353  10.084   0.609   2.807  0.0946 -0.1514  0.1047
  685MOL0     C92354   9.973   0.503   2.812 -0.4197 -0.0310  0.2449
  685MOL0     C92355   9.826   0.564   2.817 -0.0359 -0.3205 -0.7330
  685MOL0     C92356   9.723   0.449   2.805 -0.5100 -0.6768  0.4608
  685MOL0     N92357   9.579   0.482   2.833 -0.5603 -0.2822 -0.1511
  685MOL0     C92358   9.530   0.611   2.828  0.6841  0.3121  1.1057
  685MOL0     C92359   9.404   0.586   2.879  0.1657 -0.1309  0.1008
  685MOL0     C92360   9.311   0.707   2.910 -0.3612  0.8423 -0.5393
  685MOL0     C92361   9.201   0.670   3.007  0.1639  0.4887 -0.2346
  685MOL0     C92362   9.104   0.784   3.037 -0.1205  0.0683 -0.9728
  685MOL0     C92363   8.970   0.774   2.963  0.6397 -0.4409 -0.3986
  685MOL0     O92364   8.894   0.886   3.010  0.0213  0.1422  0.0365
  685MOL0     C92365   8.763   0.911   2.961  0.0024 -0.0263 -1.3427
  685MOL0     C92366   8.696   1.023   3.001  0.0758 -0.3587  0.6486
  685MOL0     C92367   8.561   1.043   2.976 -0.3765 -0.1590 -0.6368
  685MOL0     C92368   8.491   1.171   3.030 -0.0975 -0.1787  0.1772
  685MOL0     C92369   8.493   0.939   2.914  0.7777 -0.4611 -0.3576
  685MOL0     C92370   8.348   0.942   2.900 -0.5703  0.2496  0.3336
  685MOL0     O92371   8.297   1.055   2.834 -0.2880  0.1241 -0.0357
  685MOL0     C92372   8.163   1.057   2.791 -1.1209 -0.0226 -0.0578
  685MOL0     C92373   8.100   1.178   2.790 -0.9780 -0.8898  0.1268
  685MOL0     C92374   7.981   1.199   2.718  0.1281  0.0465  0.3732
  685MOL0     C92375   7.912   1.094   2.660  0.6255  0.5111  0.8392
  685MOL0     O92376   7.799   1.124   2.586 -0.6439 -0.2351 -0.7946
  685MOL0     C92377   7.719   1.014   2.532 -0.2878 -1.0366 -0.5399
  685MOL0     C92378   7.594   1.070   2.452  0.9076  0.1109 -0.3317
  685MOL0     C92379   7.500   0.956   2.430  0.4254 -0.0401  0.8078
  685MOL0     C92380   7.396   1.023   2.336 -0.3044  0.7521  0.4307
  685MOL0     C92381   7.286   0.932   2.278  0.9049  0.7319  0.4077
  685MOL0     C92382   7.178   1.013   2.200  0.2319  0.1484 -0.0680
  685MOL0     C92383   7.087   0.914   2.126  0.0503 -0.6965  0.3498
  685MOL0     C92384   6.973   0.982   2.070 -0.3186 -0.3837  0.4428
  685MOL0    Cl92385   7.033   1.065   1.924  0.1312 -0.3352 -0.1488
  685MOL0     C92386   7.976   0.969   2.661 -0.1763 -1.0063 -0.1226
  685MOL0     C92387   8.092   0.948   2.731 -0.4729 -0.4904 -0.4617
  685MOL0     O92388   8.285   0.845   2.928 -0.0494 -1.0415  0.2975
  685MOL0     C92389   8.556   0.828   2.860 -0.0550 -0.0185 -0.2259
  685MOL0     C92390   8.694   0.823   2.887 -0.5340  0.4309 -0.8035
  685MOL0     N92391   9.382   0.460   2.914  0.1473  0.1943 -0.1716
  685MOL0     N92392   9.488   0.396   2.877  0.0390 -0.2310  0.7425
  685MOL0     C92393  10.565   0.343   2.525 -0.3750 -0.0331  0.0678
  685MOL0     C92394  10.689   0.341   2.467  0.1448  0.1116  0.0868
  685MOL0     C92395  11.167   0.306   2.454 -0.3455  0.6355  0.2263
  685MOL0     C92396  11.275   0.217   2.479  0.6456  0.2180 -1.3383
  685MOL0     C92397  11.401   0.249   2.433 -0.2745 -0.3422  0.1888
  685MOL0     C92398  11.433   0.369   2.373 -0.2425 -0.5022 -0.2766
  685MOL0     O92399  11.569   0.382   2.355 -1.0569  0.1096 -0.2158
  685MOL0     C92400  11.612   0.506   2.308  0.2525  0.6063 -0.1115
  685MOL0     C92401  11.761   0.506   2.278 -0.5963  0.9476 -0.3637
  685MOL0     C92402  11.786   0.444   2.136  0.4094 -0.1257  0.0133
  685MOL0     C92403  11.747   0.297   2.116 -0.1689  0.7171 -0.2281
  685MOL0     C92404  11.803   0.256   1.992 -0.1459  0.8613 -0.1163
  685MOL0     C92405  11.832   0.227   1.886 -0.0082  0.2730  0.6840
  685MOL0     C92406  11.331   0.466   2.364 -0.2450  0.4704 -0.1065
  685MOL0     C92407  11.196   0.433   2.407 -0.2808 -0.1343 -0.7644
  685MOL0     H92408  10.899   0.270   2.736  1.3204  0.9965  0.1828
  685MOL0     H92409  10.676   0.263   2.839  1.0477  1.4136  0.2626
  685MOL0     H92410  10.295   0.236   2.855 -0.9309  2.3942 -1.2640
  685MOL0     H92411  10.460   0.195   2.868 -1.2516 -0.3586  1.4470
  685MOL0     H92412  10.410   0.360   3.036 -0.6991  0.1348  0.9377
  685MOL0     H92413  10.485   0.463   2.900  0.7428 -3.0000 -2.1029
  685MOL0     H92414  10.190   0.421   2.987  0.0127  0.3640  1.4331
  685MOL0     H92415  10.266   0.566   3.028  1.7312  1.2428 -0.1566
  685MOL0     H92416  10.288   0.635   2.796  1.3529 -0.6004 -1.1478
  685MOL0     H92417  10.234   0.474   2.738 -2.2219  0.4843  0.7887
  685MOL0     H92418  10.069   0.679   2.890  1.0687 -1.7874  1.7302
  685MOL0     H92419  10.070   0.663   2.713 -1.5799 -1.8793 -0.7128
  685MOL0     H92420   9.998   0.440   2.727  0.4769 -1.4127  1.4941
  685MOL0     H92421   9.989   0.448   2.905 -0.2385 -1.1029 -0.3965
  685MOL0     H92422   9.807   0.614   2.912 -0.8406  0.6050 -1.3659
  685MOL0     H92423   9.822   0.629   2.730 -0.6289 -1.1413 -1.3398
  685MOL0     H92424   9.752   0.360   2.863  1.2370 -2.5362 -2.9053
  685MOL0     H92425   9.733   0.411   2.702  2.3926 -1.8905  1.0934
  685MOL0     H92426   9.571   0.702   2.786 -0.4505  1.9872  3.4227
  685MOL0     H92427   9.374   0.787   2.951  0.3490 -0.4512  0.9828
  685MOL0     H92428   9.271   0.741   2.813 -1.2677 -1.1434 -0.9019
  685MOL0     H92429   9.241   0.627   3.099 -0.5166  1.8665  0.7400
  685MOL0     H92430   9.147   0.591   2.953 -1.6370  0.6614  1.2373
  685MOL0     H92431   9.148   0.884   3.044 -0.8278  0.2367  2.0574
  685MOL0     H92432   9.083   0.773   3.143  3.4718 -1.0032 -0.2096
  685MOL0     H92433   8.921   0.682   2.995 -1.7081  0.9764  0.2664
  685MOL0     H92434   8.976   0.778   2.854 -2.5717  1.5903 -0.6273
  685MOL0     H92435   8.768   1.092   3.045  0.8490 -1.3834  1.0220
  685MOL0     H92436   8.559   1.224   3.097 -0.1045 -2.0513  1.7505
  685MOL0     H92437   8.457   1.240   2.952  3.4956  2.8619  0.9658
  685MOL0     H92438   8.404   1.144   3.089  2.4120  1.4690  5.1655
  685MOL0     H92439   8.157   1.260   2.834 -0.4047 -1.9539  1.4332
  685MOL0     H92440   7.950   1.303   2.713  1.0439  0.2786 -1.2679
  685MOL0     H92441   7.779   0.949   2.466  0.3496  0.3587 -1.3764
  685MOL0     H92442   7.684   0.952   2.615  2.2822 -0.3841  1.1515
  685MOL0     H92443   7.550   1.157   2.500  1.4507 -0.3682  1.0960
  685MOL0     H92444   7.641   1.103   2.359 -1.1080 -0.6673 -1.7170
  685MOL0     H92445   7.447   0.927   2.521 -1.6866  0.6899 -0.1375
  685MOL0     H92446   7.556   0.876   2.381  2.4264  0.0179  2.8373
  685MOL0     H92447   7.354   1.109   2.389  2.0561  2.7808 -0.7660
  685MOL0     H92448   7.445   1.061   2.246 -1.9953 -0.2265 -0.9735
  685MOL0     H92449   7.226   0.879   2.352 -0.8956 -0.3531 -1.6989
  685MOL0     H92450   7.331   0.861   2.207  3.1448  0.1881  2.2416
  685MOL0     H92451   7.110   1.065   2.267 -1.2200 -2.5755  0.7203
  685MOL0     H92452   7.223   1.089   2.135 -1.6843  1.9175  0.5751
  685MOL0     H92453   7.054   0.847   2.206  0.0817  0.1055  1.0388
  685MOL0     H92454   7.134   0.856   2.045 -1.3613 -0.4543 -0.6809
  685MOL0     H92455   6.931   1.056   2.139 -1.2920 -0.0887 -0.4260
  685MOL0     H92456   6.891   0.911   2.055 -1.8037  1.5752 -1.4251
  685MOL0     H92457   7.940   0.881   2.608 -3.8139 -1.2925  2.3856
  685MOL0     H92458   8.148   0.856   2.717 -0.1400 -0.1292 -1.6422
  685MOL0     H92459   8.500   0.759   2.798 -2.3076  0.9942  0.5414
  685MOL0     H92460   8.746   0.737   2.845  1.9225  0.3939  2.0078
  685MOL0     H92461  10.478   0.363   2.464 -1.6532 -1.0920  1.4822
  685MOL0     H92462  10.690   0.350   2.359 -1.1668  1.4128  0.1606
  685MOL0     H92463  11.284   0.119   2.525  0.6004 -0.1247 -2.0385
  685MOL0     H92464  11.483   0.180   2.447  0.0995 -0.0650 -0.5949
  685MOL0     H92465  11.556   0.539   2.220 -0.2679  0.2779  0.0900
  685MOL0     H92466  11.603   0.584   2.384  1.7708  2.4476 -1.7228
  685MOL0     H92467  11.825   0.460   2.355 -0.7119  3.8491  1.6348
  685MOL0     H92468  11.787   0.612   2.283 -1.6508  1.2209 -0.4873
  685MOL0     H92469  11.894   0.446   2.117  0.2733  0.0448 -0.8175
  685MOL0     H92470  11.736   0.497   2.054 -0.0633 -1.0065 -0.2884
  685MOL0     H92471  11.638   0.287   2.122 -0.1511  0.4878 -0.2718
  685MOL0     H92472  11.789   0.244   2.202  0.1812 -0.0835 -0.8803
  685MOL0     H92473  11.852   0.215   1.782  0.2390  0.2700  0.7315
  685MOL0     H92474  11.347   0.568   2.333 -2.7686  0.6127 -1.2094
  685MOL0     H92475  11.117   0.506   2.420 -2.0050 -1.6892 -2.0904
  686MOL0     O92476   6.753   9.892   7.922 -0.4979 -0.1787 -0.9206
  686MOL0     C92477   6.773   9.770   7.900 -0.1536 -0.4019  0.6915
  686MOL0     O92478   6.679   9.674   7.908  0.2690  0.0751 -0.3457
  686MOL0     C92479   6.550   9.730   7.901  0.3638  0.2494  0.0595
  686MOL0     C92480   6.479   9.745   8.021 -0.7727 -0.6489  0.2653
  686MOL0     C92481   6.356   9.809   8.027  0.1844  1.1105  0.2835
  686MOL0     C92482   6.293   9.847   7.911 -0.0947  0.0014  0.4622
  686MOL0     O92483   6.171   9.915   7.924 -0.0922 -0.0916 -0.5329
  686MOL0     C92484   6.056   9.838   7.984 -0.9628  0.1090  0.3765
  686MOL0     C92485   6.008   9.719   7.907 -0.3356 -0.5421 -0.4582
  686MOL0     C92486   5.866   9.665   7.945 -0.1554 -0.3835  0.6683
  686MOL0     C92487   5.842   9.527   7.887  0.7455  0.2594  0.3981
  686MOL0     C92488   5.698   9.471   7.929 -0.3711 -0.1826 -0.2285
  686MOL0     C92489   5.579   9.529   7.851  0.4837 -0.3800 -0.4005
  686MOL0     C92490   5.450   9.516   7.944  0.2613  0.3205 -0.4266
  686MOL0     C92491   5.343   9.604   7.881  0.5453  0.0536 -0.0201
  686MOL0     N92492   5.222   9.610   7.965 -0.0024 -0.4428  0.3493
  686MOL0     C92493   5.138   9.505   8.000 -0.6772 -0.3580  0.0295
  686MOL0     C92494   5.029   9.566   8.053 -0.5108  0.7956 -0.9769
  686MOL0     C92495   4.916   9.488   8.120  0.0612  1.2757  0.2875
  686MOL0     C92496   4.803   9.478   8.010  0.4156  0.3129  0.2119
  686MOL0     C92497   4.671   9.429   8.072  0.3792 -0.3981 -0.2292
  686MOL0     C92498   4.569   9.421   7.966 -0.1742 -0.3097  0.3504
  686MOL0     O92499   4.528   9.552   7.938  0.3744 -0.3124 -0.2210
  686MOL0     C92500   4.412   9.565   7.872  0.1631 -0.7375 -0.0997
  686MOL0     C92501   4.400   9.681   7.787 -0.1795  1.0723 -0.9605
  686MOL0     C92502   4.290   9.714   7.706  0.3061 -0.1029  0.2593
  686MOL0     C92503   4.301   9.838   7.614 -1.0408  0.1974 -0.8210
  686MOL0     C92504   4.179   9.624   7.693 -0.6719  0.1359  0.4854
  686MOL0     C92505   4.057   9.652   7.614 -0.7557  0.4459 -0.3342
  686MOL0     O92506   3.963   9.554   7.611  0.7895 -0.4460  0.6115
  686MOL0     C92507   3.828   9.586   7.600  0.2570 -0.1690  0.1549
  686MOL0     C92508   3.759   9.464   7.590 -0.9631  0.0583  1.0061
  686MOL0     C92509   3.621   9.464   7.580  0.6208 -0.3768  0.1553
  686MOL0     C92510   3.548   9.584   7.570 -0.0328 -0.2479  0.5257
  686MOL0     O92511   3.415   9.586   7.545  0.7686 -0.2686 -0.1339
  686MOL0     C92512   3.341   9.695   7.598 -0.1433  0.4541  0.1090
  686MOL0     C92513   3.193   9.645   7.616  0.2505  0.4602  0.9732
  686MOL0     C92514   3.121   9.612   7.485 -0.4848  0.1448  0.2040
  686MOL0     C92515   2.971   9.600   7.496 -0.1491 -0.1337 -0.0486
  686MOL0     C92516   2.907   9.559   7.367  0.6900  0.5697  0.2506
  686MOL0     C92517   2.753   9.556   7.386 -0.4639  0.0864  0.2663
  686MOL0     C92518   2.675   9.551   7.257  0.5867 -0.7738  1.1125
  686MOL0     C92519   2.522   9.542   7.297 -0.3793  0.4557  0.5240
  686MOL0    Cl92520   2.422   9.525   7.140  0.3547 -0.1704  0.1618
  686MOL0     C92521   3.621   9.706   7.573 -0.0921  0.3184 -0.5024
  686MOL0     C92522   3.756   9.716   7.603 -0.2977  0.2297  1.0732
  686MOL0     O92523   4.040   9.770   7.576  0.6779  1.0718 -0.3852
  686MOL0     C92524   4.194   9.505   7.763  0.5228 -0.2337 -0.2760
  686MOL0     C92525   4.306   9.475   7.846 -0.5244 -0.1306 -0.2139
  686MOL0     N92526   5.050   9.705   8.044 -0.2003 -0.0160  0.1754
  686MOL0     N92527   5.162   9.728   7.993  0.5388 -0.0392 -0.8456
  686MOL0     C92528   6.359   9.834   7.786 -0.0762  0.2361  0.0980
  686MOL0     C92529   6.491   9.781   7.785  0.6472  0.4291 -0.4600
  686MOL0     C92530   6.919   9.718   7.901  0.1683  0.0224  0.8103
  686MOL0     C92531   6.949   9.583   7.898  0.5844  0.4487  0.4034
  686MOL0     C92532   7.081   9.543   7.886  0.1040  0.3203  0.1029
  686MOL0     C92533   7.192   9.631   7.889 -0.2895 -0.5252 -0.1419
  686MOL0     O92534   7.319   9.570   7.890  0.2457 -0.3990 -0.0247
  686MOL0     C92535   7.423   9.653   7.938 -0.1527  0.0432  0.1060
  686MOL0     C92536   7.545   9.567   7.960 -0.3695 -0.4904 -0.3135
  686MOL0     C92537   7.621   9.652   8.068 -0.4420 -0.2734  0.7842
  686MOL0     C92538   7.769   9.606   8.089  0.2460  0.0458 -0.9704
  686MOL0     C92539   7.842   9.601   7.959 -0.2111  1.0416 -0.2658
  686MOL0     C92540   7.911   9.605   7.858 -0.2877  0.8732 -0.3937
  686MOL0     C92541   7.164   9.766   7.880 -0.5462 -0.2347  0.8009
  686MOL0     C92542   7.023   9.810   7.877 -0.6201  0.1990  0.2818
  686MOL0     H92543   6.517   9.701   8.112  1.4746 -2.0096 -1.2490
  686MOL0     H92544   6.310   9.833   8.122 -3.4031 -0.6341 -0.8223
  686MOL0     H92545   6.069   9.808   8.089  0.5329 -2.3215 -0.4158
  686MOL0     H92546   5.971   9.908   7.979  0.7577  2.3080  0.5375
  686MOL0     H92547   6.013   9.741   7.800  1.7376  1.8526  0.0465
  686MOL0     H92548   6.081   9.638   7.918  1.0247  0.9575  3.3527
  686MOL0     H92549   5.865   9.666   8.054  3.0817 -2.1402  0.8294
  686MOL0     H92550   5.781   9.722   7.907 -0.2375 -1.1879 -0.3937
  686MOL0     H92551   5.854   9.504   7.780  2.6243 -0.4191  0.7200
  686MOL0     H92552   5.921   9.468   7.933  3.3046  2.0574 -1.3505
  686MOL0     H92553   5.700   9.362   7.917 -1.5663 -0.2152 -0.2582
  686MOL0     H92554   5.677   9.485   8.036 -1.4467 -0.8897 -0.3319
  686MOL0     H92555   5.599   9.636   7.834 -0.3484  0.0043  0.8511
  686MOL0     H92556   5.575   9.481   7.753  0.8193  0.6515 -0.9431
  686MOL0     H92557   5.426   9.409   7.949  2.4483 -0.2100 -0.2168
  686MOL0     H92558   5.467   9.563   8.040 -1.3267  0.0008  0.0478
  686MOL0     H92559   5.327   9.576   7.776  2.5504 -0.2796 -0.2851
  686MOL0     H92560   5.391   9.702   7.876  0.5654  0.0570  0.2596
  686MOL0     H92561   5.150   9.399   7.977 -0.2119 -0.7196  1.8274
  686MOL0     H92562   4.954   9.388   8.143  4.2612  2.6582  0.2708
  686MOL0     H92563   4.876   9.533   8.212  1.4096  2.7737  0.1884
  686MOL0     H92564   4.837   9.413   7.929 -1.0369  0.2792 -0.3884
  686MOL0     H92565   4.778   9.581   7.981  0.1299  0.3794  0.6836
  686MOL0     H92566   4.629   9.492   8.151 -2.1526 -0.6545 -1.2611
  686MOL0     H92567   4.687   9.331   8.119 -4.6665 -0.5311  1.8216
  686MOL0     H92568   4.489   9.358   8.006  0.0163  0.2012  1.5809
  686MOL0     H92569   4.599   9.376   7.871  1.3006  0.7998  0.2606
  686MOL0     H92570   4.477   9.756   7.799 -0.8799  1.7760 -0.7422
  686MOL0     H92571   4.400   9.884   7.624 -0.2693 -1.7651  2.7528
  686MOL0     H92572   4.286   9.816   7.508 -0.3068 -0.7622 -0.7519
  686MOL0     H92573   4.234   9.915   7.652 -0.4885  0.4259 -0.2843
  686MOL0     H92574   3.817   9.373   7.589  0.7937  1.1151  1.8223
  686MOL0     H92575   3.570   9.370   7.559 -0.1057  0.4049 -1.9370
  686MOL0     H92576   3.383   9.733   7.692 -2.6731  1.1414  1.0500
  686MOL0     H92577   3.343   9.780   7.530  0.0663 -0.6024 -1.2413
  686MOL0     H92578   3.198   9.556   7.680 -1.1295 -1.2464 -1.1503
  686MOL0     H92579   3.149   9.725   7.676  2.5104  0.5771  2.6124
  686MOL0     H92580   3.164   9.518   7.448  1.5626  1.0917  0.0442
  686MOL0     H92581   3.143   9.687   7.408  0.1015 -2.2009 -2.0509
  686MOL0     H92582   2.942   9.533   7.578  3.2043  0.0489  1.4437
  686MOL0     H92583   2.935   9.697   7.530  1.7241  1.0141 -1.1866
  686MOL0     H92584   2.935   9.459   7.332 -0.1057  0.6101 -0.5458
  686MOL0     H92585   2.924   9.636   7.290 -2.8230 -0.8791 -2.2591
  686MOL0     H92586   2.737   9.466   7.446  2.6965  0.1262  1.3756
  686MOL0     H92587   2.720   9.642   7.445 -3.2438  0.8341 -2.1202
  686MOL0     H92588   2.696   9.462   7.196 -0.6770 -0.6143  0.4202
  686MOL0     H92589   2.700   9.638   7.196  0.7605 -0.8134  1.1285
  686MOL0     H92590   2.490   9.632   7.351 -4.0419 -0.0137 -0.5846
  686MOL0     H92591   2.506   9.454   7.361  2.2042 -0.1493  0.4510
  686MOL0     H92592   3.569   9.799   7.553 -0.0319  1.1727  2.7892
  686MOL0     H92593   3.805   9.810   7.628 -1.2784  1.0444 -0.0232
  686MOL0     H92594   4.114   9.433   7.767  0.5308 -0.2064  0.7628
  686MOL0     H92595   4.308   9.379   7.897 -0.7414 -0.7069 -1.2671
  686MOL0     H92596   6.318   9.874   7.693 -0.9095 -3.7403 -1.4968
  686MOL0     H92597   6.551   9.773   7.695  1.0495  0.9817 -0.2519
  686MOL0     H92598   6.868   9.511   7.896  0.9232  0.0571  0.6364
  686MOL0     H92599   7.108   9.438   7.891 -0.9975 -0.0429 -0.9158
  686MOL0     H92600   7.444   9.733   7.867  1.1831  0.6914  1.1978
  686MOL0     H92601   7.397   9.707   8.029  0.6483  0.4975  0.0756
  686MOL0     H92602   7.609   9.556   7.872  1.1197 -0.0501  0.6822
  686MOL0     H92603   7.529   9.468   8.004  2.4668 -1.1381 -0.5252
  686MOL0     H92604   7.564   9.645   8.161 -1.0868  1.9198  0.6221
  686MOL0     H92605   7.622   9.757   8.039 -1.0464 -1.2488 -3.4922
  686MOL0     H92606   7.774   9.510   8.142  0.7313 -0.2392 -1.5088
  686MOL0     H92607   7.816   9.677   8.157 -0.5964  0.2951 -0.6447
  686MOL0     H92608   7.971   9.590   7.770 -0.3950  0.0319 -0.3351
  686MOL0     H92609   7.240   9.843   7.887 -1.6203  0.9382  0.0649
  686MOL0     H92610   7.014   9.915   7.851 -0.2462  0.8522  2.5742
  687MOL0     O92611   5.807   6.311   4.382 -0.3587 -0.7835  0.4489
  687MOL0     C92612   5.881   6.216   4.424  0.5596 -0.1589 -0.4541
  687MOL0     O92613   5.836   6.089   4.436  0.6290 -0.1473  0.0095
  687MOL0     C92614   5.710   6.035   4.422  0.8994  0.4378 -0.0748
  687MOL0     C92615   5.715   5.894   4.424 -0.2812  0.4343  0.0809
  687MOL0     C92616   5.604   5.813   4.395 -0.6550  0.7026  0.3305
  687MOL0     C92617   5.479   5.874   4.378  0.0423  0.6117  0.1898
  687MOL0     O92618   5.358   5.810   4.362  0.1505 -0.0724  0.2923
  687MOL0     C92619   5.354   5.669   4.401 -0.5038  0.7443 -0.0077
  687MOL0     C92620   5.214   5.618   4.392 -1.0022  0.3694  0.5919
  687MOL0     C92621   5.113   5.685   4.485  0.3839  0.0940  0.2904
  687MOL0     C92622   4.971   5.670   4.420  0.3986 -0.0578  0.5711
  687MOL0     C92623   4.863   5.718   4.522  0.5552  0.1940 -0.6268
  687MOL0     C92624   4.725   5.666   4.479  0.5615  0.5152 -0.2384
  687MOL0     C92625   4.627   5.694   4.594 -0.2949  0.7562  0.1608
  687MOL0     C92626   4.491   5.656   4.541  0.4934 -0.3655  0.7383
  687MOL0     N92627   4.389   5.670   4.643 -0.1268  0.2518 -0.2562
  687MOL0     C92628   4.417   5.684   4.774 -0.0071  0.0777 -0.5332
  687MOL0     C92629   4.307   5.660   4.842 -0.2370 -0.7818 -0.0345
  687MOL0     C92630   4.274   5.675   4.988  0.5939  0.3331  0.8785
  687MOL0     C92631   4.307   5.821   5.043  0.2103 -0.2914  0.0170
  687MOL0     C92632   4.241   5.845   5.184  1.2244 -0.0248 -0.3614
  687MOL0     C92633   4.083   5.872   5.177 -0.1066  0.3356  0.3370
  687MOL0     O92634   4.019   5.879   5.306 -0.5754 -0.1358 -0.1526
  687MOL0     C92635   3.894   5.947   5.318 -0.0211  0.3568  0.6589
  687MOL0     C92636   3.851   5.989   5.445 -0.1702 -0.1832  0.2798
  687MOL0     C92637   3.728   6.044   5.463 -0.0077 -0.6650  0.0367
  687MOL0     C92638   3.696   6.084   5.607 -0.4856  0.1215 -0.1124
  687MOL0     C92639   3.637   6.050   5.349 -0.2928  0.6563 -0.6292
  687MOL0     C92640   3.490   6.081   5.364 -0.2503  0.1366  0.5697
  687MOL0     O92641   3.412   6.026   5.272 -0.4187 -0.8009 -0.4275
  687MOL0     C92642   3.281   6.056   5.260 -0.4137  0.8031 -0.6285
  687MOL0     C92643   3.236   6.101   5.132 -0.4848  0.7449 -0.3605
  687MOL0     C92644   3.101   6.140   5.119  0.8844  0.3600 -0.1457
  687MOL0     C92645   3.014   6.126   5.224  0.2689 -0.1275  0.3881
  687MOL0     O92646   2.878   6.150   5.217 -0.2936  0.1541 -0.1730
  687MOL0     C92647   2.831   6.193   5.093 -0.0767  0.2408  0.5548
  687MOL0     C92648   2.673   6.205   5.114  0.3148 -0.6539 -0.1974
  687MOL0     C92649   2.582   6.226   4.988 -1.0803  0.4909 -0.5615
  687MOL0     C92650   2.438   6.183   5.017  0.1418  0.2754 -1.1916
  687MOL0     C92651   2.361   6.216   4.893  0.3833  0.4469 -0.6682
  687MOL0     C92652   2.213   6.199   4.908  0.7949  0.6069 -0.8749
  687MOL0     C92653   2.154   6.316   4.997  0.4614 -0.1952 -0.3716
  687MOL0     C92654   2.004   6.320   4.974 -0.5002  0.3508 -0.0506
  687MOL0    Cl92655   1.939   6.167   5.036  0.3075  0.4855  0.2641
  687MOL0     C92656   3.051   6.061   5.338 -0.5590  0.0795  0.5737
  687MOL0     C92657   3.192   6.037   5.357 -0.2096  0.1135  0.1434
  687MOL0     O92658   3.455   6.156   5.452 -0.1019  0.7881 -0.8567
  687MOL0     C92659   3.691   6.013   5.220 -0.3894 -0.0316 -0.9000
  687MOL0     C92660   3.811   5.948   5.203  0.5168  0.2437  0.6772
  687MOL0     N92661   4.205   5.640   4.750 -0.5837 -0.0861  0.4793
  687MOL0     N92662   4.256   5.649   4.630 -0.4121 -0.1926  0.3832
  687MOL0     C92663   5.472   6.014   4.381 -0.4183 -0.0159 -0.2703
  687MOL0     C92664   5.584   6.094   4.401 -0.7876 -0.6330 -0.7525
  687MOL0     C92665   6.028   6.234   4.443  0.1991  0.6004  1.1135
  687MOL0     C92666   6.111   6.130   4.409  0.3444  0.0954  0.0528
  687MOL0     C92667   6.245   6.146   4.408 -0.3201  0.1541  0.2435
  687MOL0     C92668   6.307   6.263   4.454  1.0937 -0.5944 -0.3047
  687MOL0     O92669   6.440   6.290   4.450 -1.0105 -0.2832  0.9096
  687MOL0     C92670   6.527   6.178   4.413 -0.5045 -0.7049 -0.2549
  687MOL0     C92671   6.679   6.209   4.428  0.6719  0.0540  0.2771
  687MOL0     C92672   6.722   6.256   4.566  0.3809 -0.6851  0.0204
  687MOL0     C92673   6.686   6.157   4.675  0.1522  1.0149 -0.0457
  687MOL0     C92674   6.788   6.054   4.694 -0.2315  0.3373 -0.1325
  687MOL0     C92675   6.885   5.978   4.701  0.7612 -0.2682  0.3865
  687MOL0     C92676   6.219   6.371   4.482  0.2696 -0.9254  0.3729
  687MOL0     C92677   6.077   6.361   4.485  0.0386  0.4067  1.2335
  687MOL0     H92678   5.814   5.860   4.452  0.2898  1.1554 -0.9881
  687MOL0     H92679   5.625   5.707   4.404  1.3577  1.0545  0.2224
  687MOL0     H92680   5.413   5.601   4.338  0.0017 -0.9799  2.2088
  687MOL0     H92681   5.395   5.662   4.502  2.2860 -1.9336 -1.1525
  687MOL0     H92682   5.184   5.626   4.287  1.2721  3.6508  0.0189
  687MOL0     H92683   5.212   5.511   4.412 -2.3888  0.6477  2.0850
  687MOL0     H92684   5.107   5.653   4.589 -0.0320 -1.3108 -0.1529
  687MOL0     H92685   5.134   5.792   4.492 -0.0457  0.2800 -0.9934
  687MOL0     H92686   4.970   5.720   4.323  2.1920 -1.4903 -0.2503
  687MOL0     H92687   4.951   5.566   4.392 -2.3241  0.2772  0.9401
  687MOL0     H92688   4.883   5.670   4.618  0.5005  2.4798  0.6041
  687MOL0     H92689   4.867   5.826   4.537 -0.1570  0.8991 -4.4846
  687MOL0     H92690   4.688   5.704   4.384 -1.6958 -0.0878  0.3305
  687MOL0     H92691   4.721   5.557   4.471 -1.2090  0.3919  1.3270
  687MOL0     H92692   4.649   5.626   4.677 -2.0830  0.2182  0.2315
  687MOL0     H92693   4.621   5.795   4.637 -4.1693  0.8350 -0.2384
  687MOL0     H92694   4.495   5.549   4.518  2.1497 -0.1842  0.0538
  687MOL0     H92695   4.470   5.716   4.453 -1.7898 -0.7669  0.9375
  687MOL0     H92696   4.514   5.706   4.817 -1.0829  1.3525  1.3882
  687MOL0     H92697   4.167   5.662   5.008  0.7087 -1.0312  0.6363
  687MOL0     H92698   4.324   5.597   5.046 -0.0965  1.0191  2.4484
  687MOL0     H92699   4.277   5.901   4.974 -1.4926 -1.5822 -0.8142
  687MOL0     H92700   4.415   5.834   5.050  0.1205  1.2960 -0.9896
  687MOL0     H92701   4.284   5.925   5.245  1.3180 -1.9699  2.3366
  687MOL0     H92702   4.257   5.752   5.240  0.0006 -0.8549 -1.3325
  687MOL0     H92703   4.038   5.794   5.115  0.1117  0.0951  0.4815
  687MOL0     H92704   4.066   5.964   5.119  0.2071  1.0191  1.3130
  687MOL0     H92705   3.926   5.971   5.522  1.9059 -0.8946 -1.8112
  687MOL0     H92706   3.677   6.192   5.615 -0.2092  0.1411  0.3120
  687MOL0     H92707   3.610   6.028   5.646  0.0924 -0.1777  0.7755
  687MOL0     H92708   3.779   6.055   5.671  0.5028 -1.9557 -2.2024
  687MOL0     H92709   3.310   6.114   5.054 -1.3445 -2.0531 -1.7610
  687MOL0     H92710   3.066   6.188   5.028 -2.2504 -1.4007  0.0255
  687MOL0     H92711   2.877   6.287   5.059  0.3767 -0.5416 -1.0662
  687MOL0     H92712   2.848   6.113   5.021 -1.1174  1.0658 -0.6692
  687MOL0     H92713   2.629   6.122   5.168 -3.6880  0.7088 -1.0194
  687MOL0     H92714   2.655   6.294   5.175 -0.9126 -1.3396  0.4673
  687MOL0     H92715   2.618   6.160   4.908 -1.0721 -1.5234  1.0342
  687MOL0     H92716   2.587   6.328   4.951  4.7760  0.8968  0.3849
  687MOL0     H92717   2.443   6.078   5.050  0.1119  0.6145 -0.0423
  687MOL0     H92718   2.402   6.239   5.104 -0.5734 -2.1986  0.2213
  687MOL0     H92719   2.395   6.152   4.811 -0.8280 -0.0088 -0.8232
  687MOL0     H92720   2.378   6.317   4.854 -1.7680  1.1990  0.1703
  687MOL0     H92721   2.160   6.203   4.812 -0.4434  1.1708 -0.1781
  687MOL0     H92722   2.196   6.101   4.952 -0.1784  2.3641  3.0594
  687MOL0     H92723   2.207   6.407   4.967  0.1346 -0.2495 -1.1285
  687MOL0     H92724   2.181   6.309   5.103  1.6712  1.5501 -0.5340
  687MOL0     H92725   1.996   6.331   4.866  3.2475 -1.3323 -0.6599
  687MOL0     H92726   1.958   6.405   5.025 -0.3877  0.9012 -0.8464
  687MOL0     H92727   2.975   6.049   5.416 -4.2285  1.0089 -2.5389
  687MOL0     H92728   3.228   5.997   5.451  1.5578  0.4059 -0.3629
  687MOL0     H92729   3.627   6.018   5.132 -1.6916 -1.0158 -0.0458
  687MOL0     H92730   3.827   5.896   5.109 -1.6849 -2.3643  1.5940
  687MOL0     H92731   5.377   6.065   4.370 -0.8072 -0.7796 -0.5144
  687MOL0     H92732   5.569   6.200   4.386  1.1627 -0.1516  0.4221
  687MOL0     H92733   6.060   6.040   4.377 -1.0202  1.1960 -1.0241
  687MOL0     H92734   6.308   6.059   4.390  1.3058  1.5075 -0.9556
  687MOL0     H92735   6.508   6.086   4.471 -1.0049  0.0395  0.7963
  687MOL0     H92736   6.504   6.151   4.310 -1.8771  0.6607 -0.3420
  687MOL0     H92737   6.715   6.292   4.365  0.5515 -0.1302 -0.0351
  687MOL0     H92738   6.733   6.121   4.393 -0.5500  0.5246 -3.2207
  687MOL0     H92739   6.677   6.353   4.586  0.7173 -0.6169  0.4471
  687MOL0     H92740   6.828   6.280   4.561 -0.3870  3.7926  1.0647
  687MOL0     H92741   6.590   6.107   4.657  1.6260 -1.3515 -2.0603
  687MOL0     H92742   6.679   6.206   4.773 -1.4049  0.4976  0.1310
  687MOL0     H92743   6.967   5.909   4.709  0.7284 -0.0817  3.6624
  687MOL0     H92744   6.265   6.466   4.507  0.2324 -0.1170 -2.3095
  687MOL0     H92745   6.019   6.448   4.513 -0.6883  1.5397 -3.0755
  688MOL0     O92746   3.204   9.166   3.258 -0.1738  0.7541  0.4566
  688MOL0     C92747   3.228   9.269   3.201  0.2720 -1.0593  0.2941
  688MOL0     O92748   3.136   9.368   3.166 -0.1408  0.3570 -0.4605
  688MOL0     C92749   3.005   9.341   3.214 -0.6830 -0.7156 -0.0213
  688MOL0     C92750   2.971   9.334   3.347 -0.4509 -0.5121 -0.2934
  688MOL0     C92751   2.843   9.321   3.396 -0.1962 -0.1040 -1.3939
  688MOL0     C92752   2.740   9.296   3.301 -0.4764  0.7267  0.5815
  688MOL0     O92753   2.604   9.286   3.326  0.6580 -1.2408 -0.3202
  688MOL0     C92754   2.569   9.281   3.464 -0.1645 -0.4470 -0.2358
  688MOL0     C92755   2.417   9.268   3.464 -0.1354  0.7359 -0.3315
  688MOL0     C92756   2.371   9.193   3.599 -0.5585  0.2269  0.7340
  688MOL0     C92757   2.229   9.194   3.624  0.0685 -0.0079  0.1040
  688MOL0     C92758   2.201   9.169   3.771  0.2227  0.0080 -0.3662
  688MOL0     C92759   2.056   9.135   3.777 -0.7254 -0.4544 -0.1585
  688MOL0     C92760   2.028   9.132   3.931 -0.6053 -0.0065 -0.1888
  688MOL0     C92761   1.880   9.105   3.960  0.4774  0.3594  0.1326
  688MOL0     N92762   1.829   8.974   3.909 -0.2712  0.4542 -0.5822
  688MOL0     C92763   1.854   8.850   3.967 -0.4839 -0.1403 -0.7425
  688MOL0     C92764   1.768   8.768   3.909 -0.1198  0.2663 -0.2999
  688MOL0     C92765   1.735   8.622   3.945 -0.3520  0.6998  0.0783
  688MOL0     C92766   1.841   8.558   4.030 -1.1008  0.0369 -0.2732
  688MOL0     C92767   1.838   8.408   4.019  1.3907 -0.0326  0.0450
  688MOL0     C92768   1.745   8.333   4.118  1.0559  0.2803  0.2222
  688MOL0     O92769   1.792   8.200   4.135 -0.0966  0.0105 -0.1617
  688MOL0     C92770   1.706   8.103   4.183 -0.6091 -0.2416  0.4159
  688MOL0     C92771   1.757   7.970   4.199 -0.3032 -0.2931 -0.0485
  688MOL0     C92772   1.684   7.858   4.239 -0.1226 -0.3127 -0.1693
  688MOL0     C92773   1.770   7.735   4.269  0.4481 -0.6339 -0.1919
  688MOL0     C92774   1.553   7.880   4.279 -0.1961 -0.4243 -0.3360
  688MOL0     C92775   1.464   7.777   4.342 -0.5324  0.2988  0.3223
  688MOL0     O92776   1.336   7.804   4.338 -0.1736  0.1660 -0.4734
  688MOL0     C92777   1.230   7.725   4.376  0.2967 -0.6432 -0.3574
  688MOL0     C92778   1.229   7.594   4.428 -0.0990 -0.5131  0.0480
  688MOL0     C92779   1.112   7.522   4.436  0.6978 -0.2355  0.2897
  688MOL0     C92780   0.989   7.585   4.395 -0.6532  0.1599 -0.1458
  688MOL0     O92781   0.876   7.502   4.387  0.1380  0.5292 -0.1716
  688MOL0     C92782   0.760   7.536   4.302 -0.5755 -0.4042  0.1278
  688MOL0     C92783   0.665   7.422   4.261 -0.0958  0.1939 -0.4450
  688MOL0     C92784   0.540   7.463   4.176 -0.1519  0.2813 -0.3883
  688MOL0     C92785   0.445   7.336   4.146  0.0291  0.3992  0.3421
  688MOL0     C92786   0.334   7.364   4.052 -0.1569  0.7442 -0.2553
  688MOL0     C92787   0.246   7.244   3.998 -0.7424 -1.2631 -0.2874
  688MOL0     C92788   0.113   7.213   4.063 -0.3822  0.4398  0.2635
  688MOL0     C92789   0.005   7.316   4.071  0.4339  0.1976  0.8364
  688MOL0    Cl92790  -0.104   7.276   3.935 -0.3415  0.0073 -0.2661
  688MOL0     C92791   0.990   7.719   4.355 -0.6115 -0.1074 -0.2627
  688MOL0     C92792   1.105   7.782   4.345 -0.0668  0.1466  0.0851
  688MOL0     O92793   1.518   7.674   4.392  0.4825  0.2379  0.4773
  688MOL0     C92794   1.500   8.007   4.263 -0.1650 -0.8420  0.5635
  688MOL0     C92795   1.569   8.113   4.204  0.0839  0.0459  0.6757
  688MOL0     N92796   1.698   8.840   3.809 -0.5463  0.8358  0.0650
  688MOL0     N92797   1.737   8.967   3.810 -0.1612 -0.0444  0.2106
  688MOL0     C92798   2.774   9.295   3.164  0.1995 -0.5425  0.4330
  688MOL0     C92799   2.906   9.305   3.128  0.2960 -0.2134 -0.3369
  688MOL0     C92800   3.368   9.272   3.160  0.0566  0.0651 -0.5539
  688MOL0     C92801   3.425   9.392   3.128 -0.5457  0.0705 -0.1509
  688MOL0     C92802   3.560   9.405   3.093 -0.9474 -0.3802 -0.3823
  688MOL0     C92803   3.638   9.290   3.087  0.0028 -0.0739 -0.2773
  688MOL0     O92804   3.776   9.294   3.075 -0.2063 -0.0769 -0.0962
  688MOL0     C92805   3.837   9.412   3.027 -0.4330  0.3221  0.5293
  688MOL0     C92806   3.890   9.507   3.132 -0.4589 -0.3890 -0.6780
  688MOL0     C92807   3.945   9.636   3.067  0.5061 -0.0904 -0.5841
  688MOL0     C92808   4.007   9.711   3.184 -0.1058  0.4240 -0.3136
  688MOL0     C92809   4.137   9.651   3.224 -1.2390 -0.6688 -0.3249
  688MOL0     C92810   4.243   9.596   3.246 -0.5728  0.4167  0.2825
  688MOL0     C92811   3.583   9.166   3.114  1.3683 -0.4442  1.0376
  688MOL0     C92812   3.447   9.158   3.148 -0.5745  0.1932 -0.7251
  688MOL0     H92813   3.050   9.361   3.417 -0.0721  0.9397 -1.2468
  688MOL0     H92814   2.820   9.328   3.502  2.1029 -1.7427 -0.7128
  688MOL0     H92815   2.608   9.187   3.503 -1.2791 -1.1642 -0.7839
  688MOL0     H92816   2.605   9.363   3.527  2.9943 -1.4262 -0.6179
  688MOL0     H92817   2.383   9.372   3.463 -1.4788  0.3413  0.6237
  688MOL0     H92818   2.384   9.207   3.380  1.2025  0.1972 -0.4940
  688MOL0     H92819   2.413   9.092   3.611  2.9823  1.2556 -1.5948
  688MOL0     H92820   2.422   9.249   3.679 -0.9049  2.1667 -0.3564
  688MOL0     H92821   2.181   9.286   3.588 -0.9565 -0.9048 -0.9400
  688MOL0     H92822   2.187   9.110   3.567 -1.0495  2.1939 -2.5682
  688MOL0     H92823   2.267   9.091   3.811 -1.8452 -1.3233  0.5639
  688MOL0     H92824   2.238   9.264   3.813 -4.0383  1.2922  0.9603
  688MOL0     H92825   1.991   9.214   3.737  1.3228  0.6600 -1.4368
  688MOL0     H92826   2.035   9.041   3.724 -0.3564 -0.8249  0.3458
  688MOL0     H92827   2.093   9.060   3.981 -1.1446  0.2824  0.9427
  688MOL0     H92828   2.053   9.235   3.959 -2.6043  0.4437  0.0522
  688MOL0     H92829   1.825   9.188   3.915  0.6430  0.0622 -0.6365
  688MOL0     H92830   1.857   9.111   4.067  1.9328  2.3060  0.3816
  688MOL0     H92831   1.912   8.828   4.057 -0.2146  0.7637 -0.6785
  688MOL0     H92832   1.636   8.623   3.992  0.5156 -0.2596  2.0230
  688MOL0     H92833   1.729   8.572   3.848 -2.0944  1.0930 -0.0422
  688MOL0     H92834   1.827   8.582   4.136  0.6408 -1.5488  0.3681
  688MOL0     H92835   1.943   8.589   4.006 -1.6169  1.8692 -0.1754
  688MOL0     H92836   1.942   8.372   4.018  2.1184  1.8308 -2.3763
  688MOL0     H92837   1.807   8.370   3.921 -1.2143 -1.9055  1.4785
  688MOL0     H92838   1.640   8.338   4.088 -0.2815  1.9146  4.4768
  688MOL0     H92839   1.740   8.382   4.216 -0.2495  2.1870 -0.7287
  688MOL0     H92840   1.865   7.963   4.203 -0.1205  1.7002  4.2753
  688MOL0     H92841   1.859   7.733   4.205  0.2213  0.8075 -0.5908
  688MOL0     H92842   1.801   7.733   4.374 -1.0879 -1.5737  0.2738
  688MOL0     H92843   1.714   7.644   4.248  0.7436 -0.8152 -0.2021
  688MOL0     H92844   1.314   7.533   4.459 -2.1362 -3.4372  0.3578
  688MOL0     H92845   1.102   7.420   4.471 -0.6648 -0.5012 -0.7747
  688MOL0     H92846   0.707   7.617   4.353 -2.0062 -1.2869  0.0877
  688MOL0     H92847   0.802   7.574   4.208 -1.8132 -0.0019 -0.2864
  688MOL0     H92848   0.720   7.354   4.196 -0.1932 -2.7266  2.3395
  688MOL0     H92849   0.642   7.369   4.354  2.2482 -1.3564 -0.6781
  688MOL0     H92850   0.569   7.513   4.083  0.0865  1.1475  0.1394
  688MOL0     H92851   0.476   7.535   4.227  1.8129  1.2089  0.9093
  688MOL0     H92852   0.507   7.253   4.109  0.9909 -0.4200  3.5196
  688MOL0     H92853   0.409   7.292   4.240 -3.0097  3.0064  0.5793
  688MOL0     H92854   0.372   7.417   3.964  0.6331 -2.6362 -2.1437
  688MOL0     H92855   0.269   7.434   4.106 -2.3268  0.2849 -2.1204
  688MOL0     H92856   0.211   7.269   3.897 -1.9522  1.5653  0.7382
  688MOL0     H92857   0.299   7.151   3.974 -0.8118 -0.9118 -1.9301
  688MOL0     H92858   0.140   7.183   4.165  1.4069 -1.2034 -0.6236
  688MOL0     H92859   0.075   7.121   4.020  0.2536  0.7982 -1.1110
  688MOL0     H92860   0.047   7.417   4.080  1.7709 -0.3020  0.4369
  688MOL0     H92861  -0.050   7.305   4.164  0.4437  1.6419  1.0327
  688MOL0     H92862   0.896   7.770   4.336  0.8488  2.3178 -1.5148
  688MOL0     H92863   1.118   7.883   4.308  4.1063  0.6925  2.4300
  688MOL0     H92864   1.398   8.028   4.294 -0.3766 -2.2011  0.8853
  688MOL0     H92865   1.521   8.209   4.188  1.9583  0.8948 -0.1929
  688MOL0     H92866   2.697   9.270   3.092  1.6816 -2.2244 -0.6338
  688MOL0     H92867   2.928   9.289   3.023  0.5559 -0.9697 -0.1691
  688MOL0     H92868   3.368   9.483   3.144 -1.8116 -0.7344  0.1133
  688MOL0     H92869   3.602   9.505   3.082  0.7723 -1.1620 -1.3752
  688MOL0     H92870   3.925   9.393   2.966 -0.6389  3.2468 -0.8465
  688MOL0     H92871   3.768   9.462   2.958  1.1286 -0.9228 -2.1181
  688MOL0     H92872   3.977   9.458   3.178 -1.2570  0.2569  1.6577
  688MOL0     H92873   3.810   9.526   3.204 -1.2116 -2.0427 -1.0479
  688MOL0     H92874   3.858   9.689   3.029  0.3889 -0.5806 -1.0010
  688MOL0     H92875   4.017   9.615   2.987 -0.2925 -0.4953 -1.2006
  688MOL0     H92876   3.932   9.723   3.263  2.1133  0.0808  1.9787
  688MOL0     H92877   4.032   9.814   3.157  3.2789 -0.1436  0.1653
  688MOL0     H92878   4.334   9.549   3.277 -0.2690  0.6989 -0.1710
  688MOL0     H92879   3.654   9.084   3.106 -1.3609 -2.9528  0.7528
  688MOL0     H92880   3.397   9.063   3.167 -2.1092  1.0853 -0.0219
  689MOL0     O92881   5.531  10.030   1.076  0.0215  0.0270  0.0960
  689MOL0     C92882   5.578   9.931   1.133 -0.3971 -0.3682 -0.1484
  689MOL0     O92883   5.687   9.864   1.092 -0.4641  0.8846 -0.3392
  689MOL0     C92884   5.738   9.870   0.965 -0.1873 -0.5504 -1.2608
  689MOL0     C92885   5.858   9.798   0.950  0.0899 -1.0319  0.1394
  689MOL0     C92886   5.921   9.803   0.824  0.8306  0.2428 -0.0397
  689MOL0     C92887   5.858   9.860   0.716  0.0931  1.1826 -0.1989
  689MOL0     O92888   5.929   9.856   0.594  0.7646  0.0429  0.0805
  689MOL0     C92889   5.896   9.963   0.502 -0.7236 -0.0244 -0.3110
  689MOL0     C92890   5.990   9.951   0.383 -0.1802  0.0062 -0.2695
  689MOL0     C92891   5.954  10.050   0.265 -0.0042 -0.5885  0.1121
  689MOL0     C92892   6.059  10.031   0.145  0.6539 -0.2359 -0.4306
  689MOL0     C92893   6.034  10.130   0.024  0.1720 -0.5062 -0.6055
  689MOL0     C92894   5.911  10.097  -0.061 -0.1274  0.2944  0.1545
  689MOL0     C92895   5.888  10.210  -0.161 -0.3286 -0.1691  0.3286
  689MOL0     C92896   5.749  10.208  -0.226 -0.6110 -0.1235  0.1644
  689MOL0     N92897   5.639  10.262  -0.151 -0.9078 -0.7001 -0.2758
  689MOL0     C92898   5.588  10.398  -0.156  0.2453 -0.1266  0.7907
  689MOL0     C92899   5.469  10.392  -0.094  0.1121 -0.0591  0.1611
  689MOL0     C92900   5.385  10.519  -0.059  0.1385 -0.4914 -0.4796
  689MOL0     C92901   5.227  10.497  -0.056 -0.3673 -0.3517 -0.8485
  689MOL0     C92902   5.152  10.552   0.069 -0.1155  0.0110 -0.1324
  689MOL0     C92903   4.996  10.544   0.059  0.2916  0.0196  0.1293
  689MOL0     O92904   4.960  10.656  -0.034  0.1315  1.1993  0.0425
  689MOL0     C92905   4.844  10.645  -0.098 -0.6141 -0.4393  0.3073
  689MOL0     C92906   4.829  10.716  -0.218 -1.0963  0.4921  0.1058
  689MOL0     C92907   4.712  10.704  -0.295 -0.0276 -0.3134  0.9400
  689MOL0     C92908   4.716  10.802  -0.414 -0.4401 -0.5647  0.6378
  689MOL0     C92909   4.610  10.615  -0.255 -0.3429  0.4960 -0.5587
  689MOL0     C92910   4.478  10.597  -0.330  0.5087 -0.0370  0.4810
  689MOL0     O92911   4.444  10.695  -0.422 -0.1803 -0.1951 -0.0685
  689MOL0     C92912   4.316  10.717  -0.464 -0.0515  0.4922  0.2100
  689MOL0     C92913   4.292  10.719  -0.606 -0.4002 -0.0852 -0.5440
  689MOL0     C92914   4.157  10.701  -0.648 -0.5903  0.0337  0.0256
  689MOL0     C92915   4.047  10.716  -0.559  0.5174  0.6330 -0.1516
  689MOL0     O92916   3.913  10.707  -0.581 -0.0303  0.3136 -0.0270
  689MOL0     C92917   3.870  10.774  -0.697 -0.8571  0.4490  1.0362
  689MOL0     C92918   3.717  10.758  -0.693  0.8742 -0.0964  0.1029
  689MOL0     C92919   3.636  10.858  -0.780  0.2584 -0.5260  0.4683
  689MOL0     C92920   3.503  10.790  -0.816  0.1635  0.2598 -0.0439
  689MOL0     C92921   3.399  10.884  -0.878 -0.0722  0.4935  0.6673
  689MOL0     C92922   3.268  10.817  -0.922 -0.0315  0.5511  0.5433
  689MOL0     C92923   3.167  10.909  -1.001 -0.7687 -0.1403  0.9706
  689MOL0     C92924   3.086  10.987  -0.898 -0.3742 -0.0138 -0.8193
  689MOL0    Cl92925   3.165  11.122  -0.816  0.3775  0.0047 -0.1601
  689MOL0     C92926   4.076  10.731  -0.423 -0.4655 -0.3569 -0.4550
  689MOL0     C92927   4.208  10.725  -0.377 -1.0335 -0.0465  0.9104
  689MOL0     O92928   4.415  10.500  -0.299 -1.0766  0.5338  0.0679
  689MOL0     C92929   4.630  10.539  -0.135  0.5130 -0.2376 -0.0472
  689MOL0     C92930   4.746  10.554  -0.057 -1.5260  0.6616 -0.2247
  689MOL0     N92931   5.449  10.262  -0.053 -0.2264 -0.1993 -0.8723
  689MOL0     N92932   5.551  10.192  -0.084 -0.0068 -0.1625 -0.2316
  689MOL0     C92933   5.732   9.924   0.730  1.3812 -0.3860 -0.1927
  689MOL0     C92934   5.676   9.929   0.857 -0.0736 -0.8882 -0.1177
  689MOL0     C92935   5.501   9.872   1.249 -0.4335  0.1580 -0.0100
  689MOL0     C92936   5.555   9.773   1.337  0.5598 -0.6264 -0.0985
  689MOL0     C92937   5.478   9.719   1.439 -0.1041  0.5974  0.3727
  689MOL0     C92938   5.344   9.751   1.458  0.3329 -0.7091  0.9874
  689MOL0     O92939   5.277   9.709   1.568  0.1137  0.3781 -0.2274
  689MOL0     C92940   5.135   9.720   1.581  0.7310  0.3174 -0.1321
  689MOL0     C92941   5.095   9.658   1.714  0.4101 -0.2479 -0.5021
  689MOL0     C92942   4.947   9.621   1.700  1.0777  0.4082 -0.0101
  689MOL0     C92943   4.898   9.564   1.826  0.0446  0.9618  0.6943
  689MOL0     C92944   4.927   9.423   1.842  0.7309 -0.4900 -0.9053
  689MOL0     C92945   4.946   9.309   1.883 -0.7399 -0.0750  0.3456
  689MOL0     C92946   5.287   9.850   1.376 -0.1230  0.8198 -0.1724
  689MOL0     C92947   5.368   9.906   1.273 -0.4131 -0.1553 -0.4615
  689MOL0     H92948   5.909   9.744   1.028 -0.0956 -1.1804  0.1564
  689MOL0     H92949   6.016   9.754   0.805 -0.2811 -2.1341  0.2630
  689MOL0     H92950   5.790   9.969   0.475 -1.2048  4.6580  1.7260
  689MOL0     H92951   5.908  10.062   0.546 -1.8919  1.1731 -2.4594
  689MOL0     H92952   6.091   9.963   0.425 -1.4817  0.7332  2.8826
  689MOL0     H92953   5.989   9.848   0.346  1.8002  0.1354 -0.8458
  689MOL0     H92954   5.858  10.030   0.216  0.2615  1.2918 -1.2811
  689MOL0     H92955   5.941  10.147   0.314 -3.5357 -2.4083  3.3631
  689MOL0     H92956   6.158  10.044   0.187 -0.5397 -0.1380  2.5771
  689MOL0     H92957   6.044   9.933   0.098  0.7542  0.6117 -2.3258
  689MOL0     H92958   6.024  10.231   0.065 -0.2082 -0.9360  0.3863
  689MOL0     H92959   6.131  10.130  -0.026  1.8019 -1.4765  2.2954
  689MOL0     H92960   5.928  10.000  -0.107 -0.0429  0.0751  0.6330
  689MOL0     H92961   5.823  10.091   0.005 -0.6059 -0.1762 -0.5159
  689MOL0     H92962   5.897  10.305  -0.107 -0.2575 -0.2507  0.4610
  689MOL0     H92963   5.963  10.205  -0.240 -1.4707  0.5888 -0.8582
  689MOL0     H92964   5.733  10.105  -0.259 -0.3219  0.4362 -1.8529
  689MOL0     H92965   5.751  10.275  -0.312  2.5561  0.3759  0.5022
  689MOL0     H92966   5.642  10.485  -0.193  0.7287  0.0434  1.8497
  689MOL0     H92967   5.420  10.564   0.035 -1.6725 -0.1694  0.0906
  689MOL0     H92968   5.405  10.593  -0.137  1.2679  0.7981  0.9766
  689MOL0     H92969   5.198  10.392  -0.060  1.0816 -0.8830  1.1152
  689MOL0     H92970   5.183  10.546  -0.143 -0.8106  1.5965  0.3976
  689MOL0     H92971   5.189  10.652   0.092  2.9348 -1.1689  0.7049
  689MOL0     H92972   5.179  10.499   0.161 -0.4423  0.3789  0.1805
  689MOL0     H92973   4.941  10.565   0.151 -0.7376 -1.2605 -0.1640
  689MOL0     H92974   4.977  10.447   0.012  1.9018  0.2704 -1.1467
  689MOL0     H92975   4.911  10.782  -0.246 -0.4907 -1.3921 -3.1025
  689MOL0     H92976   4.624  10.860  -0.412 -0.7525 -1.0334  0.2317
  689MOL0     H92977   4.806  10.863  -0.417  0.6498 -2.1388 -0.5362
  689MOL0     H92978   4.710  10.754  -0.513  1.3826 -0.8323  0.6300
  689MOL0     H92979   4.372  10.720  -0.680 -0.8791  0.6055 -1.0735
  689MOL0     H92980   4.133  10.680  -0.751  1.8076 -5.3284  0.2455
  689MOL0     H92981   3.907  10.877  -0.699 -1.0506  0.5236 -1.1108
  689MOL0     H92982   3.909  10.726  -0.787  1.5394  0.5262  1.9685
  689MOL0     H92983   3.692  10.654  -0.714 -1.0752  0.1044  1.2008
  689MOL0     H92984   3.688  10.790  -0.592  2.1551  3.1080 -0.4057
  689MOL0     H92985   3.694  10.878  -0.870 -0.7552 -0.6686 -0.2337
  689MOL0     H92986   3.619  10.954  -0.731  0.5027  1.6102 -3.2255
  689MOL0     H92987   3.536  10.711  -0.885 -2.8191 -0.9261 -0.2641
  689MOL0     H92988   3.462  10.739  -0.729  0.8758 -1.8884 -0.9114
  689MOL0     H92989   3.438  10.929  -0.969  1.4398 -0.1980  0.9402
  689MOL0     H92990   3.370  10.961  -0.806 -0.1381  0.7431  0.3758
  689MOL0     H92991   3.291  10.737  -0.992  1.0752 -0.6557  2.2080
  689MOL0     H92992   3.219  10.773  -0.835  1.3509 -0.0181  1.0573
  689MOL0     H92993   3.095  10.846  -1.054  0.1473 -1.6128  1.4158
  689MOL0     H92994   3.220  10.976  -1.070 -0.4718 -0.8415  0.5088
  689MOL0     H92995   3.042  10.918  -0.826  2.1065 -0.8107  0.0287
  689MOL0     H92996   3.004  11.038  -0.950 -1.8467  0.6305  1.9291
  689MOL0     H92997   3.995  10.742  -0.352 -0.4035 -0.5978 -0.3437
  689MOL0     H92998   4.232  10.727  -0.271 -1.0473  1.2493  0.9067
  689MOL0     H92999   4.548  10.480  -0.097 -0.1614  0.9667  0.4355
  689MOL0     H93000   4.750  10.499   0.037 -1.7984 -3.4047 -2.3490
  689MOL0     H93001   5.679   9.968   0.647  0.5101 -0.4666  0.3145
  689MOL0     H93002   5.581   9.979   0.873  0.6000 -0.1047  1.6042
  689MOL0     H93003   5.661   9.753   1.331  1.0319  0.2042  3.3123
  689MOL0     H93004   5.519   9.645   1.507 -2.1725 -1.5621 -0.5806
  689MOL0     H93005   5.097   9.823   1.585  1.6963  0.6599  2.1289
  689MOL0     H93006   5.087   9.658   1.505 -0.6511  0.1585  0.8204
  689MOL0     H93007   5.110   9.734   1.791  0.7891  1.8535 -2.5275
  689MOL0     H93008   5.159   9.571   1.728 -0.1503 -0.8252 -1.3964
  689MOL0     H93009   4.942   9.554   1.614  1.5918 -1.1473  1.1239
  689MOL0     H93010   4.887   9.710   1.680  0.1962  0.2361  1.6325
  689MOL0     H93011   4.789   9.568   1.832 -0.1095 -1.0073 -0.1123
  689MOL0     H93012   4.932   9.618   1.915 -3.1867  2.8526  0.9405
  689MOL0     H93013   4.978   9.214   1.920  3.0728  1.3836  1.2046
  689MOL0     H93014   5.184   9.885   1.381 -0.1582  0.9470 -1.3543
  689MOL0     H93015   5.316   9.976   1.209 -1.2294  0.2037  0.5621
  690MOL0     O93016   8.723   0.213   4.477  0.2797 -0.6268  0.3671
  690MOL0     C93017   8.730   0.119   4.548 -0.2089  1.0609  0.0362
  690MOL0     O93018   8.648   0.005   4.541  0.1747 -0.0426 -0.3221
  690MOL0     C93019   8.550   0.004   4.442  0.2376 -0.4593 -0.4130
  690MOL0     C93020   8.582  -0.027   4.307  0.5587 -0.2147 -0.2950
  690MOL0     C93021   8.491  -0.017   4.203 -0.6045  0.2624 -0.3986
  690MOL0     C93022   8.358   0.012   4.227  0.2796  0.2422 -0.9546
  690MOL0     O93023   8.259   0.025   4.128  0.7175  0.5472 -0.2354
  690MOL0     C93024   8.296   0.021   3.992 -0.2708 -0.3150  0.5037
  690MOL0     C93025   8.177   0.049   3.895  0.2235 -0.1187 -0.5493
  690MOL0     C93026   8.203  -0.011   3.757  0.2627  0.3888 -0.3343
  690MOL0     C93027   8.093   0.025   3.655 -0.2346 -0.0797  0.2299
  690MOL0     C93028   8.131  -0.033   3.521 -0.2114  0.1538 -0.9024
  690MOL0     C93029   8.012   0.005   3.424 -0.6248 -0.4055 -0.8502
  690MOL0     C93030   7.988  -0.106   3.323  1.0570  0.6637  0.7704
  690MOL0     C93031   7.901  -0.078   3.199 -0.2892 -0.5789  0.2092
  690MOL0     N93032   7.765  -0.038   3.227 -0.3032 -0.1775  0.1468
  690MOL0     C93033   7.729   0.084   3.283 -0.5069  0.4695  0.1934
  690MOL0     C93034   7.598   0.086   3.286 -0.0341 -1.1037  0.0070
  690MOL0     C93035   7.537   0.210   3.342  0.4868  0.3763  0.3621
  690MOL0     C93036   7.389   0.217   3.315 -0.3053  0.5934  0.1343
  690MOL0     C93037   7.317   0.341   3.378 -0.8824 -0.3329  0.3605
  690MOL0     C93038   7.168   0.325   3.342 -0.0944  0.0872 -0.0128
  690MOL0     O93039   7.083   0.435   3.386  0.1179 -0.1043 -0.0049
  690MOL0     C93040   6.958   0.438   3.334 -0.3690 -0.4858  0.2146
  690MOL0     C93041   6.895   0.556   3.354 -0.3524 -0.4877 -0.4225
  690MOL0     C93042   6.764   0.582   3.309 -0.0291  0.1927  0.3362
  690MOL0     C93043   6.694   0.708   3.368 -0.5882 -0.2972  0.2377
  690MOL0     C93044   6.698   0.473   3.236 -0.2611 -0.2505  1.2545
  690MOL0     C93045   6.562   0.488   3.176 -0.1753  0.0422 -0.2114
  690MOL0     O93046   6.518   0.619   3.161  0.5097 -0.3937 -0.5128
  690MOL0     C93047   6.391   0.653   3.110  0.5300 -0.5131  0.6782
  690MOL0     C93048   6.338   0.770   3.161 -0.3637  0.2151  0.4029
  690MOL0     C93049   6.211   0.813   3.109 -0.2548  0.5810 -0.3659
  690MOL0     C93050   6.140   0.726   3.015  0.4841 -0.2764 -0.5055
  690MOL0     O93051   6.015   0.764   2.966  0.3776  0.3315 -0.3518
  690MOL0     C93052   5.949   0.871   3.049  0.5053  0.1235 -0.1148
  690MOL0     C93053   5.817   0.891   2.981  0.4510  0.0295  0.2866
  690MOL0     C93054   5.729   0.774   3.004 -0.3218  0.9210  0.4354
  690MOL0     C93055   5.588   0.801   2.952  0.4136  0.4780  0.7147
  690MOL0     C93056   5.488   0.676   2.971 -0.4892  0.1427  0.4977
  690MOL0     C93057   5.551   0.537   2.947 -0.9534  0.4611  0.2515
  690MOL0     C93058   5.454   0.422   2.925 -0.1261  0.1062  0.7587
  690MOL0     C93059   5.388   0.354   3.048  0.6506  0.1388  0.5211
  690MOL0    Cl93060   5.330   0.206   2.972  0.0594  0.0872 -0.0662
  690MOL0     C93061   6.190   0.598   2.976  0.2709 -0.7639  0.6424
  690MOL0     C93062   6.317   0.568   3.031  0.3717 -0.0536 -0.0564
  690MOL0     O93063   6.503   0.385   3.154  0.4073 -0.6230  0.1806
  690MOL0     C93064   6.763   0.348   3.220  0.5155  0.6225 -0.2645
  690MOL0     C93065   6.891   0.333   3.265 -0.4133  0.3539 -0.8087
  690MOL0     N93066   7.554  -0.034   3.248 -0.4513 -0.5530  0.8533
  690MOL0     N93067   7.651  -0.112   3.215 -0.4536 -0.4804 -0.3973
  690MOL0     C93068   8.327   0.033   4.363  0.2811 -0.0613 -0.0136
  690MOL0     C93069   8.421   0.040   4.466 -0.1624  0.0422  0.3473
  690MOL0     C93070   8.837   0.108   4.645 -0.6139  0.1900 -0.7341
  690MOL0     C93071   8.839  -0.011   4.725 -0.2265  0.1240  0.7616
  690MOL0     C93072   8.933  -0.020   4.826 -0.5537  0.8094  0.2715
  690MOL0     C93073   9.034   0.078   4.840  0.7364 -0.9837  0.0145
  690MOL0     O93074   9.128   0.038   4.932 -0.1050 -0.1103 -0.1901
  690MOL0     C93075   9.246   0.118   4.940  0.0816  0.4293  0.0381
  690MOL0     C93076   9.255   0.195   5.079 -0.0645  0.3064  0.0934
  690MOL0     C93077   9.156   0.312   5.096  0.1925 -0.0317 -0.1720
  690MOL0     C93078   9.197   0.388   5.226  0.1332  0.2855  1.2140
  690MOL0     C93079   9.161   0.527   5.218 -0.6305  0.5171 -0.5211
  690MOL0     C93080   9.144   0.647   5.220  0.7283 -0.4259  1.5674
  690MOL0     C93081   9.020   0.198   4.767  0.4320 -0.2375  0.5444
  690MOL0     C93082   8.917   0.214   4.670 -0.6494 -0.3431  0.0724
  690MOL0     H93083   8.682  -0.063   4.281  0.4989 -0.0317 -0.7932
  690MOL0     H93084   8.530  -0.032   4.102  0.6188 -0.7608  0.1924
  690MOL0     H93085   8.376   0.091   3.969 -0.8149 -0.5897 -2.6330
  690MOL0     H93086   8.329  -0.081   3.970 -0.9967 -0.6898  1.0840
  690MOL0     H93087   8.086   0.008   3.940 -0.1203  1.0662 -0.1106
  690MOL0     H93088   8.169   0.158   3.903  4.4008  0.2432  2.0480
  690MOL0     H93089   8.304   0.017   3.726  1.2563 -1.8024  0.7143
  690MOL0     H93090   8.196  -0.116   3.785 -0.8886  0.4882 -0.2145
  690MOL0     H93091   7.996  -0.007   3.693  0.6524 -1.9267  1.0324
  690MOL0     H93092   8.097   0.133   3.637 -0.5371 -0.4874 -2.9608
  690MOL0     H93093   8.233   0.002   3.499 -0.2965 -0.1791 -1.8722
  690MOL0     H93094   8.136  -0.141   3.532 -0.0086  0.4396  3.5383
  690MOL0     H93095   7.922   0.014   3.484 -0.3000 -0.1202 -0.4035
  690MOL0     H93096   8.031   0.105   3.382  4.0733 -0.2336  1.1135
  690MOL0     H93097   8.083  -0.139   3.281  0.1905 -1.4380  0.3090
  690MOL0     H93098   7.941  -0.197   3.362  1.1041 -0.1333 -0.9391
  690MOL0     H93099   7.911  -0.155   3.122  1.6360 -0.4208  0.2503
  690MOL0     H93100   7.948   0.012   3.158  0.4866 -0.1373  1.9714
  690MOL0     H93101   7.797   0.164   3.313 -0.9898  0.3372  1.7100
  690MOL0     H93102   7.551   0.221   3.449  0.7624  0.0325  0.3627
  690MOL0     H93103   7.587   0.297   3.297 -1.3073  1.6963  0.7936
  690MOL0     H93104   7.336   0.132   3.358  2.2135  0.3544  3.1993
  690MOL0     H93105   7.379   0.221   3.206 -0.5628 -2.5278 -0.0439
  690MOL0     H93106   7.358   0.425   3.322  0.6452 -2.2734 -1.6049
  690MOL0     H93107   7.331   0.357   3.485 -0.7309 -0.0270  0.2971
  690MOL0     H93108   7.137   0.238   3.399  0.3754 -0.2228 -0.2284
  690MOL0     H93109   7.154   0.313   3.234 -1.7878  3.4745 -0.3186
  690MOL0     H93110   6.936   0.632   3.420 -1.0874 -1.3807  1.1052
  690MOL0     H93111   6.654   0.776   3.292 -1.4243  1.0219  1.8173
  690MOL0     H93112   6.618   0.674   3.439  0.5130  0.6712  1.9389
  690MOL0     H93113   6.768   0.771   3.418  0.3741 -0.3746 -1.0142
  690MOL0     H93114   6.393   0.826   3.236 -1.1015 -2.5826  3.2149
  690MOL0     H93115   6.167   0.899   3.159  1.3668  1.0225  0.3923
  690MOL0     H93116   5.932   0.840   3.152  1.0282  1.0903  0.2664
  690MOL0     H93117   6.004   0.965   3.048  0.5677  0.0996  0.8214
  690MOL0     H93118   5.764   0.974   3.029  0.0785 -0.2238  0.3121
  690MOL0     H93119   5.813   0.908   2.873  1.9188 -2.8595 -0.3371
  690MOL0     H93120   5.720   0.748   3.110  0.9899 -2.1530 -0.0987
  690MOL0     H93121   5.766   0.691   2.943  0.2671  1.9232 -0.6180
  690MOL0     H93122   5.560   0.892   3.007  1.2663  1.1041  0.1424
  690MOL0     H93123   5.606   0.824   2.847  0.7394 -2.6746 -0.0183
  690MOL0     H93124   5.396   0.691   2.913 -0.2619 -0.6341 -0.0890
  690MOL0     H93125   5.452   0.673   3.074 -0.0780 -0.8737  0.6268
  690MOL0     H93126   5.603   0.524   2.852 -0.8858 -0.0228  0.3467
  690MOL0     H93127   5.627   0.514   3.023  0.2230  1.2374 -0.6593
  690MOL0     H93128   5.512   0.348   2.869 -0.8263  0.4544 -0.4570
  690MOL0     H93129   5.374   0.459   2.860 -0.2995 -0.3016  0.7349
  690MOL0     H93130   5.299   0.400   3.092 -0.0668  1.4253 -2.0687
  690MOL0     H93131   5.468   0.331   3.119  1.7381  2.5643  0.1658
  690MOL0     H93132   6.147   0.548   2.890 -0.0683 -0.5308  0.6750
  690MOL0     H93133   6.360   0.474   2.999 -0.7772 -0.1131 -1.5094
  690MOL0     H93134   6.714   0.266   3.168 -0.5780  1.0479  0.0633
  690MOL0     H93135   6.932   0.233   3.265 -1.7119 -0.2346  1.3670
  690MOL0     H93136   8.232   0.076   4.395  1.3499  0.7594  2.2858
  690MOL0     H93137   8.384   0.079   4.560  1.3457  1.2038  0.4887
  690MOL0     H93138   8.768  -0.093   4.716 -2.7457  2.0239  2.0557
  690MOL0     H93139   8.940  -0.110   4.886 -0.1308  1.4344  1.1776
  690MOL0     H93140   9.333   0.051   4.935  1.1831  1.7387  0.8511
  690MOL0     H93141   9.255   0.192   4.860 -1.6023  1.6189  0.9011
  690MOL0     H93142   9.358   0.230   5.084  0.0902  0.6016 -3.3464
  690MOL0     H93143   9.231   0.128   5.162 -1.8878  3.1470  2.0776
  690MOL0     H93144   9.051   0.280   5.102 -0.0294  0.5331 -0.8562
  690MOL0     H93145   9.169   0.379   5.011 -2.0736  1.7178  0.7558
  690MOL0     H93146   9.306   0.385   5.239  0.3903 -1.2551 -0.6670
  690MOL0     H93147   9.155   0.340   5.314 -1.7314  0.1284  0.2957
  690MOL0     H93148   9.132   0.753   5.204  1.2252 -0.5666  0.1374
  690MOL0     H93149   9.081   0.288   4.770 -2.2888  1.7188  0.3956
  690MOL0     H93150   8.894   0.301   4.610 -0.3529 -0.9855 -1.0185
  691MOL0     O93151   7.908   4.494   7.543  0.0136 -0.1116  0.5226
  691MOL0     C93152   7.921   4.394   7.609  0.2641  1.0141  0.4920
  691MOL0     O93153   7.820   4.331   7.688 -0.7118  0.0717  0.3904
  691MOL0     C93154   7.702   4.404   7.697  0.8885  0.3661 -0.3473
  691MOL0     C93155   7.611   4.424   7.588  0.4715 -0.4841 -0.0629
  691MOL0     C93156   7.495   4.495   7.603 -0.5969 -0.4842 -0.3840
  691MOL0     C93157   7.470   4.558   7.730  0.2690 -0.2968  0.2859
  691MOL0     O93158   7.365   4.646   7.737  1.2841  0.2532  0.3563
  691MOL0     C93159   7.344   4.710   7.860  0.4752 -0.6785  0.7577
  691MOL0     C93160   7.207   4.775   7.842  0.2128  0.3270 -0.2574
  691MOL0     C93161   7.167   4.827   7.977  0.1184  0.3945 -0.1991
  691MOL0     C93162   7.046   4.911   7.963 -0.1389  0.0699 -0.1917
  691MOL0     C93163   7.017   4.963   8.098 -0.3256 -0.9584 -0.1307
  691MOL0     C93164   6.889   5.031   8.093  0.2609  0.6332  0.0883
  691MOL0     C93165   6.835   5.076   8.220 -0.4625 -0.3736 -0.7707
  691MOL0     C93166   6.684   5.096   8.225 -0.7405  0.0325 -0.3418
  691MOL0     N93167   6.623   5.165   8.338 -0.7402 -0.1490  0.0587
  691MOL0     C93168   6.529   5.104   8.413 -0.9410  0.0846  1.2400
  691MOL0     C93169   6.494   5.201   8.501 -0.4113  0.1685  0.0124
  691MOL0     C93170   6.395   5.187   8.615 -0.1987 -0.5887 -0.3138
  691MOL0     C93171   6.252   5.213   8.561  0.0874  0.6241  0.2226
  691MOL0     C93172   6.150   5.202   8.666  0.7322  0.3207 -0.5056
  691MOL0     C93173   6.012   5.234   8.611  0.1695  0.3849 -0.8698
  691MOL0     O93174   5.900   5.168   8.681 -0.1231 -0.0905 -0.1221
  691MOL0     C93175   5.775   5.226   8.674  0.5485  0.8678  0.3372
  691MOL0     C93176   5.732   5.297   8.564  0.2732  0.1930 -0.2882
  691MOL0     C93177   5.599   5.325   8.540  0.0473 -0.2671 -0.4403
  691MOL0     C93178   5.561   5.406   8.422  0.1406 -0.6476  0.1957
  691MOL0     C93179   5.501   5.273   8.633 -0.0701 -0.1214 -0.0627
  691MOL0     C93180   5.355   5.303   8.637 -0.3405  0.3897  0.0201
  691MOL0     O93181   5.281   5.228   8.728  0.6760 -0.2145 -0.3869
  691MOL0     C93182   5.142   5.233   8.709 -0.0460  0.0937  0.2422
  691MOL0     C93183   5.064   5.329   8.771  0.0649 -0.4844  0.4075
  691MOL0     C93184   4.924   5.329   8.747  0.1437 -0.0525 -0.6004
  691MOL0     C93185   4.861   5.227   8.677  1.1367  0.1298 -0.2982
  691MOL0     O93186   4.720   5.204   8.676  0.6094  0.6853 -0.2132
  691MOL0     C93187   4.633   5.297   8.756 -0.0447 -0.2857  0.1114
  691MOL0     C93188   4.495   5.243   8.779 -0.2565  0.7066 -0.1926
  691MOL0     C93189   4.505   5.096   8.846 -0.3472 -0.6568  1.1486
  691MOL0     C93190   4.370   5.069   8.925 -0.1615 -0.8923 -0.3354
  691MOL0     C93191   4.393   4.961   9.028 -0.6726 -0.9008 -0.0871
  691MOL0     C93192   4.272   4.904   9.095 -0.4451 -0.3255  0.0691
  691MOL0     C93193   4.200   4.790   9.018  0.6146  0.4676  0.5631
  691MOL0     C93194   4.084   4.721   9.097  0.3732 -0.4597  0.0469
  691MOL0    Cl93195   3.959   4.843   9.149 -0.1893  0.2107  0.4097
  691MOL0     C93196   4.947   5.124   8.625 -0.2660 -0.1375  0.8185
  691MOL0     C93197   5.077   5.126   8.635  0.0348 -0.1309  0.0606
  691MOL0     O93198   5.312   5.393   8.566  0.5531  0.3884  0.1955
  691MOL0     C93199   5.546   5.198   8.745 -0.3249 -0.5774  1.1225
  691MOL0     C93200   5.684   5.175   8.762 -0.1760 -0.1258  0.9247
  691MOL0     N93201   6.566   5.316   8.476  0.5735 -0.1097  0.4959
  691MOL0     N93202   6.650   5.294   8.380  0.2030  0.7959 -0.1463
  691MOL0     C93203   7.553   4.536   7.835  0.2806 -0.5610  1.1633
  691MOL0     C93204   7.674   4.461   7.824  0.3103  0.4071  0.2939
  691MOL0     C93205   8.060   4.348   7.618 -0.3117 -0.7056 -0.4613
  691MOL0     C93206   8.159   4.391   7.527 -0.4467 -0.4316 -0.1772
  691MOL0     C93207   8.292   4.361   7.548  0.0665  0.3098  0.0812
  691MOL0     C93208   8.338   4.314   7.672 -0.3384 -0.0915  0.3156
  691MOL0     O93209   8.472   4.304   7.698  0.5151  0.1632 -0.4350
  691MOL0     C93210   8.542   4.423   7.718 -0.3704 -0.4441  0.1280
  691MOL0     C93211   8.543   4.455   7.865  0.4780  0.5536 -0.7945
  691MOL0     C93212   8.610   4.591   7.895  0.3440 -0.3053 -0.4369
  691MOL0     C93213   8.626   4.614   8.051 -0.2576  0.4479 -0.1726
  691MOL0     C93214   8.745   4.541   8.117  0.5371  0.2612 -0.2146
  691MOL0     C93215   8.836   4.478   8.164 -0.1260 -0.7469  0.1072
  691MOL0     C93216   8.244   4.269   7.764 -0.1071 -0.7695  0.0622
  691MOL0     C93217   8.107   4.276   7.734  0.7589 -1.0525  0.4675
  691MOL0     H93218   7.617   4.380   7.489 -3.3124 -1.2213 -0.1045
  691MOL0     H93219   7.429   4.497   7.518 -0.4810  0.1263 -0.4613
  691MOL0     H93220   7.346   4.640   7.944 -0.3159 -0.6458  0.8066
  691MOL0     H93221   7.414   4.792   7.877 -1.4982  1.0739  0.7646
  691MOL0     H93222   7.206   4.860   7.772 -0.1761  1.5405  1.1635
  691MOL0     H93223   7.130   4.702   7.819 -1.2716  1.7133  0.1207
  691MOL0     H93224   7.150   4.743   8.045  1.6004  0.5513  0.4094
  691MOL0     H93225   7.252   4.888   8.010  1.3798 -0.7733 -1.1520
  691MOL0     H93226   7.066   4.993   7.894  1.8766 -2.1169 -2.3680
  691MOL0     H93227   6.960   4.859   7.920 -0.6394 -1.1276  2.0828
  691MOL0     H93228   7.015   4.888   8.178 -0.9892 -2.4904 -1.5210
  691MOL0     H93229   7.083   5.044   8.131 -1.2035  0.3842 -1.5444
  691MOL0     H93230   6.886   5.114   8.022  0.5572  0.4090 -0.1864
  691MOL0     H93231   6.823   4.956   8.049  0.0790  0.6700  0.2989
  691MOL0     H93232   6.868   5.015   8.304 -0.4352  1.7964  0.8727
  691MOL0     H93233   6.874   5.178   8.233  0.3030 -0.6865 -0.5356
  691MOL0     H93234   6.628   5.003   8.209  1.6474 -1.3685 -0.8944
  691MOL0     H93235   6.675   5.156   8.134  1.8580  0.2448 -0.5259
  691MOL0     H93236   6.490   5.004   8.399 -0.7706  0.1798 -0.0340
  691MOL0     H93237   6.396   5.090   8.665  0.8378 -0.1864  0.4591
  691MOL0     H93238   6.416   5.264   8.689 -2.0701 -0.2803 -0.0539
  691MOL0     H93239   6.229   5.136   8.487  0.2590  0.0750  0.7292
  691MOL0     H93240   6.234   5.307   8.509 -4.6945 -0.0157  0.3201
  691MOL0     H93241   6.165   5.281   8.741 -0.1205  0.5547 -0.5736
  691MOL0     H93242   6.153   5.107   8.721  0.7724 -0.8162 -2.4110
  691MOL0     H93243   6.009   5.196   8.508  0.8170  0.2537 -0.8463
  691MOL0     H93244   5.995   5.342   8.608 -0.3990  0.2821 -1.7856
  691MOL0     H93245   5.807   5.328   8.492 -0.8222  1.5630 -0.8748
  691MOL0     H93246   5.485   5.361   8.357 -0.8856  2.5343 -1.0265
  691MOL0     H93247   5.512   5.499   8.453 -0.1722 -0.0816 -1.7904
  691MOL0     H93248   5.642   5.447   8.360 -0.4133  1.4706  0.7938
  691MOL0     H93249   5.117   5.400   8.834 -3.1736  1.6116  1.0626
  691MOL0     H93250   4.871   5.406   8.802  0.3455  0.0456 -0.5450
  691MOL0     H93251   4.683   5.323   8.850  3.2470  0.5430 -1.7203
  691MOL0     H93252   4.630   5.388   8.696  2.1965  0.1734  0.6273
  691MOL0     H93253   4.434   5.307   8.844 -0.6865 -2.1455  2.4125
  691MOL0     H93254   4.439   5.234   8.686 -1.5498 -2.3580  0.7740
  691MOL0     H93255   4.594   5.081   8.908  0.2431  1.1330  0.8136
  691MOL0     H93256   4.513   5.016   8.771 -0.8189  2.5440 -2.6938
  691MOL0     H93257   4.329   5.161   8.966  0.1228 -0.9778  0.1521
  691MOL0     H93258   4.299   5.033   8.850 -0.5693 -1.6532  0.4004
  691MOL0     H93259   4.461   4.990   9.109 -0.9685  0.8877 -0.4224
  691MOL0     H93260   4.433   4.878   8.970 -1.4941 -1.0137 -0.5062
  691MOL0     H93261   4.300   4.851   9.186  0.6356  1.0180  0.5616
  691MOL0     H93262   4.208   4.989   9.120 -0.0692 -0.4222  1.4511
  691MOL0     H93263   4.279   4.721   8.987  0.8325  1.7190 -2.0145
  691MOL0     H93264   4.150   4.815   8.923  0.0883  2.1792  1.2388
  691MOL0     H93265   4.118   4.681   9.193  1.5898  1.8147  0.6380
  691MOL0     H93266   4.041   4.637   9.042  0.0214 -0.8673  0.9291
  691MOL0     H93267   4.909   5.034   8.578  2.0121 -1.0211  0.5211
  691MOL0     H93268   5.125   5.040   8.591 -1.4494 -0.3598 -1.1676
  691MOL0     H93269   5.488   5.154   8.826  0.3195 -0.6568  1.5486
  691MOL0     H93270   5.732   5.117   8.840 -1.9178 -2.2310  0.5343
  691MOL0     H93271   7.537   4.581   7.932  0.8794  0.6318  0.7304
  691MOL0     H93272   7.745   4.467   7.905  0.6140  0.5544  0.0209
  691MOL0     H93273   8.138   4.452   7.439 -2.2475 -1.8528 -0.7932
  691MOL0     H93274   8.357   4.411   7.477 -1.7315  1.8607 -0.5297
  691MOL0     H93275   8.645   4.397   7.692 -0.8764 -1.7625 -0.6681
  691MOL0     H93276   8.505   4.505   7.656  1.3772  0.1209 -0.2281
  691MOL0     H93277   8.599   4.383   7.925  0.1250  0.9448  0.0161
  691MOL0     H93278   8.442   4.445   7.907 -0.2437 -0.3251 -2.6257
  691MOL0     H93279   8.548   4.669   7.852 -0.2584  0.1564  1.1953
  691MOL0     H93280   8.698   4.606   7.832 -1.0138  0.4751 -2.2269
  691MOL0     H93281   8.530   4.586   8.094 -0.7883  0.5395 -1.2677
  691MOL0     H93282   8.638   4.721   8.071  0.6736 -0.2205  3.4420
  691MOL0     H93283   8.922   4.428   8.202  0.6734  1.3613  1.2386
  691MOL0     H93284   8.279   4.227   7.858  1.3255 -0.7443 -0.4327
  691MOL0     H93285   8.035   4.242   7.808 -0.1062  1.2528  0.7688
  692MOL0     O93286   4.014   5.622   0.335 -0.0361 -0.7754 -0.0206
  692MOL0     C93287   4.073   5.576   0.430  0.6102  0.6903  0.1642
  692MOL0     O93288   4.020   5.485   0.514  0.0831 -0.1040 -0.4779
  692MOL0     C93289   3.894   5.435   0.498 -1.2183 -0.1519 -0.3446
  692MOL0     C93290   3.876   5.300   0.522  0.7300 -0.8145 -0.4559
  692MOL0     C93291   3.745   5.249   0.524 -1.0259 -0.6018 -0.9159
  692MOL0     C93292   3.637   5.332   0.507 -0.2412 -0.3116  0.1786
  692MOL0     O93293   3.507   5.294   0.505  0.6251 -0.3973  0.0528
  692MOL0     C93294   3.471   5.199   0.409 -0.1699 -0.1788  0.4982
  692MOL0     C93295   3.355   5.261   0.325 -0.6477 -0.2236  0.7279
  692MOL0     C93296   3.219   5.218   0.376  0.1406 -0.0459 -0.4611
  692MOL0     C93297   3.119   5.331   0.360  0.0837 -0.9803  0.6572
  692MOL0     C93298   3.101   5.425   0.473 -0.2389 -0.3852  0.0124
  692MOL0     C93299   3.038   5.556   0.427  0.4205  0.7884  0.1063
  692MOL0     C93300   3.006   5.662   0.539 -0.6230  0.6464 -0.0590
  692MOL0     C93301   2.888   5.607   0.631  0.0033  0.4310 -0.6622
  692MOL0     N93302   2.766   5.543   0.588 -0.1267 -0.3890  0.2758
  692MOL0     C93303   2.675   5.615   0.519 -0.3349  0.1876 -0.4318
  692MOL0     C93304   2.582   5.519   0.478 -0.4034 -0.3819 -0.1407
  692MOL0     C93305   2.456   5.548   0.414  0.0838  0.0991  0.1784
  692MOL0     C93306   2.337   5.520   0.510  0.2858  0.4823 -0.4248
  692MOL0     C93307   2.202   5.525   0.433 -0.9579  0.1475 -0.3715
  692MOL0     C93308   2.093   5.501   0.533  0.7186  0.4718 -0.0392
  692MOL0     O93309   1.967   5.528   0.472 -0.3695 -0.2655 -0.1169
  692MOL0     C93310   1.874   5.582   0.549 -0.3986 -1.1541 -1.0790
  692MOL0     C93311   1.863   5.577   0.691 -0.5734  0.2017  0.5241
  692MOL0     C93312   1.765   5.640   0.758  0.9942 -0.5778 -0.0451
  692MOL0     C93313   1.772   5.659   0.910 -0.1246 -0.4530 -0.7989
  692MOL0     C93314   1.659   5.686   0.687  0.4808 -0.1606 -0.1078
  692MOL0     C93315   1.530   5.728   0.751 -0.9988 -0.5405 -0.1038
  692MOL0     O93316   1.489   5.658   0.857  0.3232  0.9492  0.6915
  692MOL0     C93317   1.379   5.699   0.928  0.2676  0.1768  0.0856
  692MOL0     C93318   1.245   5.674   0.897  0.1343  0.2777 -1.0394
  692MOL0     C93319   1.136   5.713   0.973  0.2176  0.2486 -0.8026
  692MOL0     C93320   1.168   5.794   1.089 -0.0732 -0.1783 -0.4422
  692MOL0     O93321   1.067   5.836   1.182 -0.4656 -0.2744  0.0583
  692MOL0     C93322   0.954   5.902   1.122  1.0360 -0.5239 -1.0816
  692MOL0     C93323   0.836   5.909   1.218  0.5023 -0.7673  0.3313
  692MOL0     C93324   0.766   5.780   1.237  0.3379  0.2864  0.2858
  692MOL0     C93325   0.652   5.788   1.343  0.3750  0.5240  0.0371
  692MOL0     C93326   0.565   5.655   1.326 -0.4205  0.0002 -0.3873
  692MOL0     C93327   0.452   5.652   1.433 -0.2774  0.3991 -0.1216
  692MOL0     C93328   0.355   5.773   1.422 -0.2629 -0.1123  0.1524
  692MOL0     C93329   0.241   5.753   1.522  0.2137  0.0206 -0.2181
  692MOL0    Cl93330   0.146   5.610   1.479 -0.1103 -0.2027 -0.3247
  692MOL0     C93331   1.301   5.830   1.124  0.3257 -0.1541  0.2298
  692MOL0     C93332   1.406   5.771   1.042 -0.6484 -0.4077 -1.0038
  692MOL0     O93333   1.474   5.828   0.704 -0.3931  0.2054  0.5389
  692MOL0     C93334   1.672   5.699   0.553 -0.7394 -0.4892  0.4502
  692MOL0     C93335   1.772   5.639   0.478  0.1643 -0.9474 -0.1697
  692MOL0     N93336   2.630   5.399   0.520 -0.2291  0.0334 -0.2165
  692MOL0     N93337   2.737   5.410   0.587 -0.5385 -0.1803 -0.3358
  692MOL0     C93338   3.655   5.469   0.503 -0.6486 -0.3940  1.5610
  692MOL0     C93339   3.780   5.517   0.480  0.4229 -0.5114  0.3845
  692MOL0     C93340   4.201   5.633   0.470  0.0646 -0.0205  0.7901
  692MOL0     C93341   4.258   5.602   0.596  0.4092 -1.0301  0.0733
  692MOL0     C93342   4.381   5.655   0.634 -0.0816 -0.6521 -0.4326
  692MOL0     C93343   4.448   5.745   0.552 -0.6041  0.1852  0.9112
  692MOL0     O93344   4.564   5.817   0.576  0.0718 -0.4188  0.0937
  692MOL0     C93345   4.673   5.729   0.600 -0.2119 -0.5058  0.2294
  692MOL0     C93346   4.791   5.810   0.668 -0.1458 -0.3568 -0.1109
  692MOL0     C93347   4.851   5.917   0.572 -0.0086 -0.1509  1.1618
  692MOL0     C93348   4.995   5.950   0.631 -0.0439  0.2933  0.3626
  692MOL0     C93349   5.059   6.037   0.531  0.9817 -0.4044  0.7691
  692MOL0     C93350   5.122   6.101   0.450 -0.0314 -0.5750  0.3124
  692MOL0     C93351   4.391   5.778   0.425  0.0360  0.1773 -1.2003
  692MOL0     C93352   4.269   5.729   0.389  0.4159 -0.2079 -0.1912
  692MOL0     H93353   3.948   5.225   0.552 -0.1433 -0.0979  4.2489
  692MOL0     H93354   3.713   5.145   0.518  0.0668 -1.3636  3.1538
  692MOL0     H93355   3.552   5.174   0.340  2.2355  2.7203  2.0596
  692MOL0     H93356   3.440   5.102   0.451  1.2900 -1.9522 -2.2204
  692MOL0     H93357   3.359   5.370   0.319  1.2644 -0.2299  1.1988
  692MOL0     H93358   3.357   5.222   0.223 -1.3108  1.2784  0.1104
  692MOL0     H93359   3.189   5.124   0.329  0.1635 -1.2004  1.7057
  692MOL0     H93360   3.228   5.176   0.477  3.7511  0.1363 -0.5726
  692MOL0     H93361   3.145   5.385   0.268 -1.5309  0.6315  1.0770
  692MOL0     H93362   3.017   5.297   0.337 -1.0934  4.1809 -4.1046
  692MOL0     H93363   3.039   5.373   0.547  0.0514 -0.0803  0.4744
  692MOL0     H93364   3.199   5.445   0.517  1.1609 -0.4034 -2.8761
  692MOL0     H93365   3.113   5.591   0.355  0.6092 -0.7007 -0.4588
  692MOL0     H93366   2.943   5.534   0.378  0.1212  2.6957 -0.2278
  692MOL0     H93367   3.097   5.681   0.598 -0.4537  0.9806 -0.4247
  692MOL0     H93368   2.986   5.755   0.485 -1.0402 -0.0593 -1.1681
  692MOL0     H93369   2.863   5.685   0.703 -0.7667  0.6956 -1.2079
  692MOL0     H93370   2.939   5.529   0.688 -1.5631 -0.0641  0.1272
  692MOL0     H93371   2.678   5.723   0.510  0.7745  0.5221  2.7134
  692MOL0     H93372   2.451   5.654   0.390 -1.9867 -0.1483 -0.6283
  692MOL0     H93373   2.444   5.491   0.322  0.2302  1.8228 -0.9560
  692MOL0     H93374   2.338   5.577   0.603  0.6581  0.7668 -0.6002
  692MOL0     H93375   2.350   5.418   0.549 -0.3230 -0.2211 -1.9814
  692MOL0     H93376   2.202   5.452   0.352  0.6053  1.6159 -1.7632
  692MOL0     H93377   2.176   5.622   0.389 -0.4163  0.7582  0.6116
  692MOL0     H93378   2.115   5.575   0.610 -1.4926  0.4470  0.6813
  692MOL0     H93379   2.101   5.402   0.579  0.5201  0.0882 -0.8112
  692MOL0     H93380   1.933   5.526   0.756  2.2483  4.2385  1.0779
  692MOL0     H93381   1.715   5.583   0.965 -0.5677  0.6199  0.2603
  692MOL0     H93382   1.876   5.664   0.942 -0.0330  1.9699 -1.3223
  692MOL0     H93383   1.722   5.752   0.937  2.1167  1.0768 -1.6355
  692MOL0     H93384   1.227   5.602   0.817  2.0997 -1.3116 -0.1395
  692MOL0     H93385   1.032   5.697   0.950  0.1265 -1.9172  0.7849
  692MOL0     H93386   0.974   6.009   1.112 -2.9363  0.3543 -1.0930
  692MOL0     H93387   0.926   5.870   1.021 -1.5582  0.0573 -0.6222
  692MOL0     H93388   0.865   5.949   1.315 -3.4048  2.9190  0.2186
  692MOL0     H93389   0.762   5.983   1.188  0.1063 -0.9160  0.9375
  692MOL0     H93390   0.842   5.710   1.273 -0.0242 -1.2384 -1.7411
  692MOL0     H93391   0.734   5.735   1.143 -1.4539 -1.8891  1.8128
  692MOL0     H93392   0.697   5.783   1.443  0.6770 -2.5256 -0.1490
  692MOL0     H93393   0.594   5.879   1.333  0.6961  0.6238 -1.1288
  692MOL0     H93394   0.641   5.577   1.330  1.2652  1.3858 -2.7421
  692MOL0     H93395   0.509   5.633   1.235  0.8032 -5.1053 -0.2167
  692MOL0     H93396   0.389   5.564   1.416 -0.5039 -0.8365  5.4556
  692MOL0     H93397   0.499   5.646   1.531 -0.0948 -3.4754 -0.2659
  692MOL0     H93398   0.318   5.776   1.319 -1.1622 -2.4990  0.3356
  692MOL0     H93399   0.408   5.866   1.444  1.2649 -1.4026  2.3745
  692MOL0     H93400   0.171   5.837   1.514  1.3154  0.9578 -0.4229
  692MOL0     H93401   0.282   5.746   1.623  0.0915 -1.1463 -0.2371
  692MOL0     H93402   1.318   5.885   1.215 -2.1251 -2.0391  1.9901
  692MOL0     H93403   1.511   5.774   1.066 -0.6143 -0.2606 -1.1647
  692MOL0     H93404   1.597   5.753   0.496  1.0911  2.3923  0.5370
  692MOL0     H93405   1.760   5.649   0.371 -2.0390 -1.0207  0.0107
  692MOL0     H93406   3.570   5.536   0.503 -1.3013 -1.1847  0.4161
  692MOL0     H93407   3.800   5.624   0.478 -0.1278 -0.3408  2.3163
  692MOL0     H93408   4.199   5.537   0.661 -1.4737  0.2856 -0.2249
  692MOL0     H93409   4.414   5.634   0.735  0.3079 -0.6190 -0.5535
  692MOL0     H93410   4.648   5.648   0.669  0.1402 -0.3931  0.4935
  692MOL0     H93411   4.702   5.689   0.502  1.5826  1.6905 -0.2052
  692MOL0     H93412   4.868   5.734   0.680  0.8970  0.5221 -1.0409
  692MOL0     H93413   4.754   5.862   0.757 -0.2914  1.0429 -0.9666
  692MOL0     H93414   4.789   6.007   0.566  0.5947  0.1569 -2.6271
  692MOL0     H93415   4.862   5.878   0.471 -0.7867  3.4993 -0.4800
  692MOL0     H93416   5.056   5.860   0.649  0.6286  1.1707  2.9213
  692MOL0     H93417   4.977   6.002   0.725  0.9135 -1.3823  1.5397
  692MOL0     H93418   5.183   6.173   0.400  1.2194 -1.9796 -0.2595
  692MOL0     H93419   4.453   5.847   0.369  1.0364  0.1430 -0.1552
  692MOL0     H93420   4.233   5.755   0.290  1.3814 -1.2767 -0.8520
  693MOL0     O93421   0.857   8.974   0.785  0.0511  0.0243  0.8892
  693MOL0     C93422   0.866   9.095   0.763 -0.4533 -0.0751 -0.0187
  693MOL0     O93423   0.785   9.166   0.681 -0.4120  0.0671  0.5318
  693MOL0     C93424   0.707   9.091   0.597  0.0108  0.0650 -0.3636
  693MOL0     C93425   0.761   9.012   0.495 -1.1935  0.2915  0.2859
  693MOL0     C93426   0.685   8.932   0.416 -0.5050  0.2772  0.1544
  693MOL0     C93427   0.547   8.933   0.439  0.3790  0.2780 -0.7392
  693MOL0     O93428   0.482   8.841   0.371  0.1418  0.5110 -0.1484
  693MOL0     C93429   0.343   8.864   0.342 -0.1900  0.2207 -1.3269
  693MOL0     C93430   0.285   8.748   0.266  0.4562 -0.1514 -0.1229
  693MOL0     C93431   0.131   8.760   0.253 -0.4935 -0.2139 -0.8821
  693MOL0     C93432   0.064   8.647   0.175  0.2579 -0.0516  0.3775
  693MOL0     C93433  -0.069   8.700   0.111 -1.1727 -0.2324 -0.0322
  693MOL0     C93434  -0.161   8.581   0.077 -0.0246 -0.0874  0.5002
  693MOL0     C93435  -0.311   8.620   0.065  0.1739 -0.1180 -0.0390
  693MOL0     C93436  -0.337   8.728  -0.047  0.1589  0.2028  0.0404
  693MOL0     N93437  -0.481   8.750  -0.064 -0.1867  0.1659  0.8203
  693MOL0     C93438  -0.517   8.844  -0.152  0.1913  0.8600  0.7210
  693MOL0     C93439  -0.649   8.849  -0.130  0.0293  0.4252 -0.2263
  693MOL0     C93440  -0.744   8.938  -0.202  0.7999 -0.7502 -0.3514
  693MOL0     C93441  -0.809   8.885  -0.324 -0.2187  0.9808 -0.2477
  693MOL0     C93442  -0.882   9.001  -0.396 -1.2435 -0.1625  0.4801
  693MOL0     C93443  -0.984   8.943  -0.491 -0.3631  0.6067 -1.1274
  693MOL0     O93444  -1.053   9.034  -0.576 -0.4181  1.3634  0.4536
  693MOL0     C93445  -1.142   8.987  -0.676  0.3419  0.7438 -0.1063
  693MOL0     C93446  -1.153   8.854  -0.712  0.3519  0.7112  0.3820
  693MOL0     C93447  -1.240   8.811  -0.807  0.9779 -0.1738  0.7327
  693MOL0     C93448  -1.232   8.669  -0.853  0.2876  0.7251  0.2112
  693MOL0     C93449  -1.321   8.905  -0.869 -0.4649 -1.0931  0.4911
  693MOL0     C93450  -1.435   8.862  -0.952 -0.5787 -0.0598  0.5081
  693MOL0     O93451  -1.462   8.936  -1.067  0.4435  0.0171 -0.1140
  693MOL0     C93452  -1.586   8.919  -1.135  0.0302 -0.1959 -0.5095
  693MOL0     C93453  -1.703   8.957  -1.067 -0.0199 -0.4127  0.2022
  693MOL0     C93454  -1.825   8.961  -1.141  0.0085 -1.0951 -0.3246
  693MOL0     C93455  -1.824   8.949  -1.280 -0.0328 -0.1797  0.5617
  693MOL0     O93456  -1.927   8.992  -1.357 -0.4590 -0.2759  0.0962
  693MOL0     C93457  -2.061   8.956  -1.317  0.6127 -0.2195  0.7631
  693MOL0     C93458  -2.153   9.012  -1.421 -0.6346  0.2772  0.3189
  693MOL0     C93459  -2.304   8.980  -1.404  0.6627  0.1044 -0.3959
  693MOL0     C93460  -2.378   9.027  -1.527 -0.7427  0.1018 -0.2933
  693MOL0     C93461  -2.521   9.049  -1.505  0.0252 -0.4923 -0.0393
  693MOL0     C93462  -2.576   9.107  -1.631  0.2537 -0.5613  0.1723
  693MOL0     C93463  -2.727   9.135  -1.609  0.0560 -0.3690 -0.8212
  693MOL0     C93464  -2.797   9.208  -1.721 -0.3989 -0.1773 -0.0048
  693MOL0    Cl93465  -2.800   9.121  -1.875 -0.3845  0.0724 -0.1470
  693MOL0     C93466  -1.705   8.905  -1.343  0.6879 -0.0962 -0.2278
  693MOL0     C93467  -1.584   8.905  -1.273  0.0898  0.4888 -0.4402
  693MOL0     O93468  -1.505   8.766  -0.912 -0.0965 -0.8447 -0.1288
  693MOL0     C93469  -1.304   9.038  -0.844  0.2282 -0.6298 -0.7106
  693MOL0     C93470  -1.216   9.080  -0.749  0.1483  0.2847  1.0647
  693MOL0     N93471  -0.684   8.759  -0.033  0.3503 -0.4642  0.8560
  693MOL0     N93472  -0.578   8.701   0.011  0.7581 -0.0845 -0.0682
  693MOL0     C93473   0.491   9.017   0.538 -0.0290 -0.2752  0.5349
  693MOL0     C93474   0.569   9.104   0.612  0.0012  0.5203  0.0359
  693MOL0     C93475   0.969   9.169   0.841 -0.6278  0.4921 -0.4794
  693MOL0     C93476   1.060   9.116   0.942 -0.4703 -0.0051 -0.5533
  693MOL0     C93477   1.163   9.194   0.993 -0.2242  0.1004  0.2242
  693MOL0     C93478   1.184   9.327   0.948 -0.6635 -0.5013 -0.4944
  693MOL0     O93479   1.282   9.409   1.007  0.7817 -0.4264 -0.1395
  693MOL0     C93480   1.396   9.344   1.066  0.7142  0.9709  0.2952
  693MOL0     C93481   1.521   9.432   1.071 -0.3962 -0.2700 -0.4270
  693MOL0     C93482   1.534   9.517   1.191 -0.4174 -0.8720  0.1792
  693MOL0     C93483   1.550   9.452   1.324 -0.1133  0.1333 -1.1119
  693MOL0     C93484   1.555   9.555   1.437 -0.0443  0.5360 -0.3524
  693MOL0     C93485   1.566   9.644   1.525  0.3342 -0.1284  0.1976
  693MOL0     C93486   1.096   9.383   0.854  0.0243  0.3854 -0.3387
  693MOL0     C93487   0.986   9.307   0.805 -0.3589  0.6382  0.2391
  693MOL0     H93488   0.868   9.009   0.482 -1.1397 -0.2516  0.8359
  693MOL0     H93489   0.716   8.878   0.327  1.8959  0.4980  0.7874
  693MOL0     H93490   0.292   8.873   0.438 -0.0074  3.3127 -1.4022
  693MOL0     H93491   0.329   8.964   0.299  1.3150  0.7507 -0.6249
  693MOL0     H93492   0.333   8.744   0.168 -1.2294  1.4324 -1.0757
  693MOL0     H93493   0.303   8.655   0.320  1.7411 -0.2315 -0.6646
  693MOL0     H93494   0.086   8.770   0.352 -3.7029 -1.6274 -2.0499
  693MOL0     H93495   0.100   8.850   0.199 -0.8437  0.6297  0.6711
  693MOL0     H93496   0.125   8.620   0.089 -0.4078  0.9869 -0.4457
  693MOL0     H93497   0.055   8.567   0.249 -1.0638  1.1883  1.6505
  693MOL0     H93498  -0.113   8.776   0.175 -1.6467 -0.7542  0.2762
  693MOL0     H93499  -0.046   8.748   0.015 -1.9480 -0.2017 -0.2111
  693MOL0     H93500  -0.131   8.521  -0.009 -1.1319 -0.2695  0.2259
  693MOL0     H93501  -0.152   8.516   0.164 -4.8419 -0.5527  0.8968
  693MOL0     H93502  -0.378   8.536   0.047  0.2468 -0.1185 -0.3120
  693MOL0     H93503  -0.346   8.656   0.162 -0.5611 -2.0529  0.4620
  693MOL0     H93504  -0.299   8.683  -0.140 -3.1603 -2.4710 -0.2219
  693MOL0     H93505  -0.289   8.822  -0.020  1.1939 -0.7715  1.8202
  693MOL0     H93506  -0.467   8.895  -0.234 -0.6400 -1.1255 -1.0993
  693MOL0     H93507  -0.826   8.979  -0.143 -1.4980 -1.8256 -2.5706
  693MOL0     H93508  -0.682   9.022  -0.234 -0.0498 -0.5979 -1.6693
  693MOL0     H93509  -0.876   8.802  -0.298  2.2089 -1.1343 -0.2980
  693MOL0     H93510  -0.733   8.844  -0.391 -0.0976  1.2875 -0.2962
  693MOL0     H93511  -0.811   9.050  -0.463 -1.9177 -2.2786 -1.9572
  693MOL0     H93512  -0.927   9.076  -0.329  0.0352  2.8488 -1.8040
  693MOL0     H93513  -1.056   8.890  -0.428  1.3924 -1.1449 -0.5287
  693MOL0     H93514  -0.929   8.874  -0.555  1.2183  0.0737  0.7227
  693MOL0     H93515  -1.092   8.781  -0.658 -2.2228 -1.0910  1.0609
  693MOL0     H93516  -1.128   8.637  -0.861  0.2726  0.4002  1.1219
  693MOL0     H93517  -1.286   8.605  -0.782  0.8856  0.8867  0.8258
  693MOL0     H93518  -1.269   8.660  -0.955  5.8909  1.9081 -2.2812
  693MOL0     H93519  -1.705   8.969  -0.959  1.9651 -0.2092  0.2591
  693MOL0     H93520  -1.916   8.994  -1.093  0.1488 -2.2908  0.8123
  693MOL0     H93521  -2.078   8.848  -1.321 -1.7474  0.1415 -1.2024
  693MOL0     H93522  -2.080   9.009  -1.223  1.4780 -0.1725  0.9202
  693MOL0     H93523  -2.131   9.119  -1.427  0.2056  0.2529  2.4093
  693MOL0     H93524  -2.118   8.971  -1.517  1.5189 -0.5679  1.4052
  693MOL0     H93525  -2.351   9.028  -1.317 -0.4088  0.2707 -1.0488
  693MOL0     H93526  -2.320   8.873  -1.388  0.4800  0.2181  0.2119
  693MOL0     H93527  -2.338   9.119  -1.570  0.5233 -0.9389 -1.4397
  693MOL0     H93528  -2.357   8.948  -1.601  3.8993  0.7859 -0.0157
  693MOL0     H93529  -2.531   9.122  -1.424  2.7089  0.5750 -0.5322
  693MOL0     H93530  -2.571   8.956  -1.478  0.6242 -0.5783  0.8438
  693MOL0     H93531  -2.517   9.196  -1.656  1.0699 -0.9117  0.8077
  693MOL0     H93532  -2.562   9.037  -1.714  1.5803 -0.4262  0.2562
  693MOL0     H93533  -2.743   9.188  -1.515 -1.7496  2.5968 -2.6628
  693MOL0     H93534  -2.773   9.037  -1.593 -0.0971 -0.1170  0.3054
  693MOL0     H93535  -2.746   9.304  -1.727  0.9167 -0.8413  0.2769
  693MOL0     H93536  -2.900   9.231  -1.693  0.2231  1.1552  1.3149
  693MOL0     H93537  -1.702   8.905  -1.451  0.5863  1.7569 -0.2650
  693MOL0     H93538  -1.492   8.897  -1.331 -0.9423  1.5627 -2.3175
  693MOL0     H93539  -1.374   9.109  -0.888 -0.6787 -0.0366  1.5368
  693MOL0     H93540  -1.198   9.185  -0.733 -1.3403  1.0296 -1.5939
  693MOL0     H93541   0.385   9.008   0.559  0.1216  0.3546  1.6187
  693MOL0     H93542   0.536   9.181   0.680  1.1253  1.3249 -0.2840
  693MOL0     H93543   1.057   9.011   0.972 -0.9071 -0.5931 -2.5028
  693MOL0     H93544   1.232   9.149   1.063  2.0467  0.5256 -1.6110
  693MOL0     H93545   1.367   9.307   1.165 -0.8365  2.5734  0.5068
  693MOL0     H93546   1.416   9.256   1.005 -2.9719  1.6427 -2.2587
  693MOL0     H93547   1.513   9.501   0.986 -0.3181 -0.8049 -0.8734
  693MOL0     H93548   1.614   9.377   1.058  0.3922  0.4103  1.8994
  693MOL0     H93549   1.435   9.564   1.193 -0.9275 -1.9505  1.6293
  693MOL0     H93550   1.606   9.597   1.170  1.2574 -3.0275 -3.2392
  693MOL0     H93551   1.647   9.403   1.330 -0.0009  0.5222  1.0322
  693MOL0     H93552   1.465   9.387   1.348 -0.5745  0.5621 -1.5494
  693MOL0     H93553   1.564   9.728   1.591 -2.3107 -0.9524  1.2705
  693MOL0     H93554   1.110   9.489   0.835  2.3097  0.8907  3.2869
  693MOL0     H93555   0.911   9.350   0.740 -1.8946 -1.4809  0.5377
  694MOL0     O93556   8.760   8.845   1.281  0.6697 -0.8291  0.3909
  694MOL0     C93557   8.850   8.773   1.266 -0.2511  0.5711  0.7603
  694MOL0     O93558   8.855   8.664   1.187  0.0269  0.6842 -0.0203
  694MOL0     C93559   8.748   8.640   1.097 -0.5034 -0.5852 -1.0825
  694MOL0     C93560   8.615   8.661   1.117  0.2469 -0.1557 -0.5219
  694MOL0     C93561   8.518   8.645   1.023 -0.6358  0.2943  0.7908
  694MOL0     C93562   8.546   8.611   0.890  0.3813  0.2979  0.3808
  694MOL0     O93563   8.436   8.598   0.808 -0.2572 -0.7960 -0.3128
  694MOL0     C93564   8.458   8.510   0.699  0.6517 -0.1595  0.4094
  694MOL0     C93565   8.322   8.473   0.653  0.3196  0.1852  0.1626
  694MOL0     C93566   8.252   8.591   0.585  0.4962  0.0329  0.7584
  694MOL0     C93567   8.114   8.556   0.521 -0.1279 -0.0591 -0.1219
  694MOL0     C93568   8.056   8.679   0.443  0.3456 -0.3332 -0.1213
  694MOL0     C93569   7.910   8.650   0.402 -0.4511  0.0230 -0.3505
  694MOL0     C93570   7.828   8.779   0.413  0.3660  0.5029  0.2285
  694MOL0     C93571   7.675   8.750   0.385  0.0806 -0.2046  0.0493
  694MOL0     N93572   7.618   8.659   0.483  0.5109 -0.3620 -0.3000
  694MOL0     C93573   7.584   8.690   0.611  0.0894  0.4596 -0.2606
  694MOL0     C93574   7.528   8.573   0.665  0.2191 -0.3050  0.0126
  694MOL0     C93575   7.457   8.562   0.798  0.4468 -0.4432  0.1460
  694MOL0     C93576   7.328   8.477   0.780  0.6209 -0.2277  0.1311
  694MOL0     C93577   7.226   8.496   0.894 -0.5501  0.0760  0.7257
  694MOL0     C93578   7.121   8.382   0.888 -1.2760  0.0615 -0.7573
  694MOL0     O93579   7.006   8.416   0.966 -0.1638 -0.8088  0.6553
  694MOL0     C93580   6.985   8.368   1.086  0.2253  0.7538 -0.0535
  694MOL0     C93581   7.091   8.342   1.182  0.2447  0.5349 -0.2108
  694MOL0     C93582   7.069   8.293   1.308  0.3514 -1.0455 -0.3646
  694MOL0     C93583   7.192   8.256   1.395  0.0293  0.5409  0.0874
  694MOL0     C93584   6.935   8.294   1.357  0.6314  0.4323 -0.2501
  694MOL0     C93585   6.892   8.278   1.495 -0.0196 -0.2882 -0.8885
  694MOL0     O93586   6.766   8.292   1.533 -0.2084  0.3590  0.4034
  694MOL0     C93587   6.741   8.343   1.660  0.5817  0.2805 -0.6857
  694MOL0     C93588   6.825   8.428   1.735  0.0679  0.1241  0.2468
  694MOL0     C93589   6.805   8.451   1.872 -0.7884  0.4166  0.5349
  694MOL0     C93590   6.690   8.407   1.935 -0.0491  0.1744  0.3762
  694MOL0     O93591   6.672   8.430   2.067  0.7677  0.0628  0.8006
  694MOL0     C93592   6.727   8.330   2.148 -1.1186  0.7453 -0.5094
  694MOL0     C93593   6.640   8.202   2.161 -0.3030  0.2264 -1.0072
  694MOL0     C93594   6.502   8.236   2.203 -0.0807  0.4469  0.1960
  694MOL0     C93595   6.410   8.110   2.217  0.4613 -0.5067 -1.0878
  694MOL0     C93596   6.271   8.150   2.264  0.7146 -0.0302  0.3406
  694MOL0     C93597   6.180   8.033   2.290 -0.1948 -0.2637  0.5818
  694MOL0     C93598   6.038   8.057   2.336 -0.1808  0.2472  0.3471
  694MOL0     C93599   5.949   7.933   2.310  0.0350  0.2691 -0.3399
  694MOL0    Cl93600   5.776   7.954   2.364  0.4656 -0.0720 -0.1722
  694MOL0     C93601   6.598   8.335   1.852  0.6433  0.2394  1.0712
  694MOL0     C93602   6.625   8.309   1.717  0.6722 -0.0938 -0.9761
  694MOL0     O93603   6.980   8.247   1.566  0.0329  0.7435 -0.9477
  694MOL0     C93604   6.837   8.325   1.266 -0.3387 -0.0601 -0.4542
  694MOL0     C93605   6.856   8.366   1.137 -0.4910 -0.1454 -0.3144
  694MOL0     N93606   7.547   8.478   0.564  0.0689 -0.3784 -1.0190
  694MOL0     N93607   7.598   8.529   0.461  0.1962  0.3278 -0.1649
  694MOL0     C93608   8.686   8.597   0.864  0.4276  0.1201  0.1902
  694MOL0     C93609   8.783   8.621   0.961 -0.0057  0.0794  0.6004
  694MOL0     C93610   8.964   8.796   1.362  0.1131  0.2624  0.6213
  694MOL0     C93611   9.071   8.705   1.347 -0.1077  0.2072 -0.7708
  694MOL0     C93612   9.167   8.698   1.450  0.7669 -0.2812 -0.2049
  694MOL0     C93613   9.176   8.796   1.560  0.5833 -0.0980 -0.1435
  694MOL0     O93614   9.288   8.798   1.646 -0.0941 -0.1346 -0.4949
  694MOL0     C93615   9.252   8.812   1.785 -0.4059 -0.4360  0.6048
  694MOL0     C93616   9.378   8.785   1.859 -0.2985 -0.2277  0.2409
  694MOL0     C93617   9.435   8.643   1.857 -0.8311  0.4447  0.4927
  694MOL0     C93618   9.576   8.648   1.917  0.6038  0.0422 -0.2302
  694MOL0     C93619   9.637   8.522   1.901 -0.1230  0.5444  0.1445
  694MOL0     C93620   9.707   8.429   1.878  0.5927 -0.5497 -0.2660
  694MOL0     C93621   9.073   8.893   1.561 -0.4908  0.3670  0.1973
  694MOL0     C93622   8.976   8.895   1.462  0.8026 -0.2379 -0.2040
  694MOL0     H93623   8.588   8.683   1.220 -2.3336 -0.6576 -1.0233
  694MOL0     H93624   8.417   8.662   1.061 -0.3927 -0.7926  1.9906
  694MOL0     H93625   8.509   8.575   0.628 -1.0744  1.7851  0.8729
  694MOL0     H93626   8.528   8.428   0.721  4.1523  1.8346 -2.2127
  694MOL0     H93627   8.316   8.393   0.579  0.1590  0.7217 -0.4109
  694MOL0     H93628   8.264   8.435   0.737  0.6467 -2.1271 -0.5779
  694MOL0     H93629   8.245   8.675   0.654  1.0094 -0.4800  1.4463
  694MOL0     H93630   8.315   8.619   0.499 -0.1858  1.3762  0.6698
  694MOL0     H93631   8.108   8.470   0.454  1.5291 -0.3632  0.0757
  694MOL0     H93632   8.048   8.527   0.603 -0.2895 -2.3231 -0.9715
  694MOL0     H93633   8.050   8.764   0.512  2.7135 -0.6577  0.5586
  694MOL0     H93634   8.118   8.701   0.357  1.5030 -1.5345  0.3672
  694MOL0     H93635   7.904   8.605   0.302  1.9569  0.3465 -0.7028
  694MOL0     H93636   7.864   8.576   0.467 -1.3345 -0.8709 -1.9321
  694MOL0     H93637   7.831   8.835   0.507  0.2258  2.2529 -0.7581
  694MOL0     H93638   7.860   8.840   0.327  0.5249 -1.6067 -1.2975
  694MOL0     H93639   7.667   8.701   0.288 -0.2969 -0.8942  0.4207
  694MOL0     H93640   7.630   8.849   0.375  1.0009  0.2188 -0.0710
  694MOL0     H93641   7.571   8.786   0.659 -1.3223  0.4092 -0.5047
  694MOL0     H93642   7.515   8.530   0.885 -1.6090 -2.4062  0.9064
  694MOL0     H93643   7.420   8.660   0.828  0.9425  0.3318 -1.6691
  694MOL0     H93644   7.357   8.371   0.778 -0.7736 -0.7025  2.1854
  694MOL0     H93645   7.279   8.500   0.686  1.8273 -1.8490 -0.9522
  694MOL0     H93646   7.179   8.593   0.878  0.6028  0.7199  1.1329
  694MOL0     H93647   7.283   8.489   0.987  0.6528 -1.0658 -0.0562
  694MOL0     H93648   7.176   8.289   0.907 -0.2795  0.7238 -0.3408
  694MOL0     H93649   7.090   8.370   0.784  0.7444  2.1663 -1.6862
  694MOL0     H93650   7.191   8.326   1.143  0.4729  0.6105  0.3324
  694MOL0     H93651   7.180   8.161   1.448  1.0344 -0.0316 -0.6580
  694MOL0     H93652   7.278   8.241   1.329 -2.8918 -3.4204 -3.3543
  694MOL0     H93653   7.212   8.341   1.461  2.0430  0.8238 -0.7973
  694MOL0     H93654   6.912   8.466   1.682 -0.0701 -0.6276 -0.5359
  694MOL0     H93655   6.879   8.505   1.931 -0.9885 -1.3936  2.5650
  694MOL0     H93656   6.826   8.308   2.105 -0.7974  1.6042 -0.2315
  694MOL0     H93657   6.741   8.367   2.250 -1.5342  2.3527 -1.0145
  694MOL0     H93658   6.637   8.138   2.072 -0.1229 -2.2685  0.6867
  694MOL0     H93659   6.687   8.137   2.235  0.4339  0.6177 -1.1190
  694MOL0     H93660   6.462   8.310   2.133  1.8022 -0.8795 -2.4784
  694MOL0     H93661   6.513   8.272   2.305 -3.7066 -1.7972  1.5901
  694MOL0     H93662   6.392   8.058   2.122  1.2433 -2.3521 -0.2825
  694MOL0     H93663   6.450   8.036   2.288 -2.1812 -1.7765 -0.7769
  694MOL0     H93664   6.214   8.210   2.192  0.9159 -0.3736 -0.1040
  694MOL0     H93665   6.276   8.200   2.361  1.2229  5.2554 -2.0470
  694MOL0     H93666   6.168   7.978   2.196 -1.3322 -0.5335  0.8775
  694MOL0     H93667   6.222   7.963   2.363 -2.8055  0.9852  3.5203
  694MOL0     H93668   5.996   8.144   2.285  0.6376  1.3941  1.5545
  694MOL0     H93669   6.039   8.091   2.440 -1.2191 -1.2706  0.8942
  694MOL0     H93670   5.992   7.853   2.371 -0.1632  0.6935  0.3652
  694MOL0     H93671   5.945   7.907   2.204 -1.5771 -0.8383 -0.0543
  694MOL0     H93672   6.500   8.315   1.895 -1.4749  3.4146 -1.7435
  694MOL0     H93673   6.570   8.243   1.652  0.0963 -1.0016  0.3907
  694MOL0     H93674   6.734   8.316   1.299 -0.6779 -1.8177 -1.7849
  694MOL0     H93675   6.774   8.403   1.077 -0.5817 -0.5330 -0.4302
  694MOL0     H93676   8.718   8.584   0.761  2.7418  0.3057  0.8201
  694MOL0     H93677   8.891   8.616   0.947 -0.0925  0.8109 -0.4391
  694MOL0     H93678   9.078   8.634   1.265  0.4049 -1.2665  0.5089
  694MOL0     H93679   9.253   8.632   1.442  2.3285  1.5902  0.3774
  694MOL0     H93680   9.211   8.912   1.803 -2.4255 -0.6240 -2.2669
  694MOL0     H93681   9.170   8.741   1.799 -2.0818  0.5119 -3.0390
  694MOL0     H93682   9.355   8.809   1.963  1.4341 -1.5780  0.9887
  694MOL0     H93683   9.446   8.859   1.815 -2.3671  0.7292 -1.5391
  694MOL0     H93684   9.443   8.614   1.752  0.0520 -4.4672  1.6614
  694MOL0     H93685   9.389   8.562   1.914  1.6893  0.5362  2.8860
  694MOL0     H93686   9.568   8.671   2.024 -1.4162 -0.0996 -0.3045
  694MOL0     H93687   9.631   8.727   1.866  0.6185  0.2420  0.0909
  694MOL0     H93688   9.753   8.334   1.855 -0.8316 -1.7406  1.5568
  694MOL0     H93689   9.060   8.948   1.653 -1.7160 -0.9191  0.8467
  694MOL0     H93690   8.900   8.973   1.464 -0.1247 -1.0453 -1.9292
  695MOL0     O93691   7.791   4.589   1.845 -0.7041 -0.1186 -0.1320
  695MOL0     C93692   7.817   4.655   1.943 -0.1870 -0.4975 -0.1029
  695MOL0     O93693   7.738   4.751   2.005  0.7256  0.0681 -0.2536
  695MOL0     C93694   7.629   4.803   1.941  0.4082 -0.1348 -0.1562
  695MOL0     C93695   7.520   4.720   1.896  0.4819 -0.6413  0.2577
  695MOL0     C93696   7.400   4.770   1.841 -0.4605  0.3597 -0.3940
  695MOL0     C93697   7.383   4.912   1.838  0.4567  0.0452 -0.2820
  695MOL0     O93698   7.266   4.972   1.811 -0.3950  0.1790  0.0072
  695MOL0     C93699   7.147   4.890   1.793 -0.5887 -0.0395 -0.5429
  695MOL0     C93700   7.024   4.977   1.776 -0.0955  0.0933  0.1784
  695MOL0     C93701   7.014   5.039   1.636 -0.2912 -0.3833  0.2920
  695MOL0     C93702   6.902   5.136   1.629  0.2384 -0.3471  0.4732
  695MOL0     C93703   6.767   5.079   1.671 -0.0987  0.3219 -0.7300
  695MOL0     C93704   6.668   5.180   1.620  1.2296 -0.5094  0.1933
  695MOL0     C93705   6.528   5.115   1.584  0.1192 -0.1189 -0.4396
  695MOL0     C93706   6.441   5.222   1.518 -0.6869 -0.0906  0.2896
  695MOL0     N93707   6.392   5.327   1.603 -0.5378 -0.3873 -0.4429
  695MOL0     C93708   6.289   5.312   1.692  0.6248  0.7271  0.3597
  695MOL0     C93709   6.243   5.434   1.717  0.1708 -0.6999  0.2664
  695MOL0     C93710   6.117   5.461   1.785 -0.1887  0.6834  0.1051
  695MOL0     C93711   6.025   5.558   1.702 -0.9350 -0.8172  0.2535
  695MOL0     C93712   5.893   5.584   1.771 -0.6475 -0.0170  0.3143
  695MOL0     C93713   5.890   5.713   1.855  0.6936  0.5941 -0.1775
  695MOL0     O93714   5.768   5.699   1.927  0.7635  0.5882  0.4515
  695MOL0     C93715   5.693   5.818   1.925 -0.7527  0.0020 -0.2951
  695MOL0     C93716   5.747   5.946   1.928  0.2178 -0.1980 -0.3842
  695MOL0     C93717   5.663   6.061   1.935  0.3977  0.3778  0.7524
  695MOL0     C93718   5.727   6.190   1.919 -0.0016  0.1489 -0.6142
  695MOL0     C93719   5.522   6.039   1.943  0.6422 -0.2099 -0.2015
  695MOL0     C93720   5.420   6.147   1.958  0.0958  0.2014 -0.1441
  695MOL0     O93721   5.296   6.109   1.904  0.1002 -0.2829  0.3744
  695MOL0     C93722   5.193   6.193   1.875  0.6178  0.1550  0.2721
  695MOL0     C93723   5.077   6.133   1.819  0.3766 -0.2256  0.8072
  695MOL0     C93724   4.957   6.211   1.801 -0.3791  0.7810  0.2125
  695MOL0     C93725   4.957   6.342   1.844  0.2379 -0.0039 -0.0332
  695MOL0     O93726   4.845   6.415   1.812 -0.4980 -0.2126 -0.3797
  695MOL0     C93727   4.789   6.497   1.915 -0.0398  0.3980  0.1827
  695MOL0     C93728   4.691   6.423   2.011  0.1602  0.5369 -0.1139
  695MOL0     C93729   4.567   6.359   1.946 -0.6041 -0.4519  0.7846
  695MOL0     C93730   4.464   6.463   1.898  0.7505 -0.4301 -0.4576
  695MOL0     C93731   4.355   6.391   1.813  0.4607 -0.3259  0.3314
  695MOL0     C93732   4.272   6.484   1.739  0.4192 -0.2489  0.3192
  695MOL0     C93733   4.184   6.411   1.635  0.3621 -0.4255  1.2156
  695MOL0     C93734   4.101   6.502   1.556 -0.3122  0.6241  0.1949
  695MOL0    Cl93735   4.001   6.411   1.447  0.2376  0.1961 -0.2143
  695MOL0     C93736   5.069   6.398   1.901  0.3138  0.3236  0.3260
  695MOL0     C93737   5.184   6.328   1.914 -0.2622 -0.0109 -0.3601
  695MOL0     O93738   5.444   6.243   2.031  0.0990 -0.3743 -0.1375
  695MOL0     C93739   5.474   5.910   1.926 -0.6324  0.4815  0.0496
  695MOL0     C93740   5.558   5.799   1.924 -0.2707 -0.5471 -0.3215
  695MOL0     N93741   6.332   5.522   1.661 -0.2700 -0.0804  0.4083
  695MOL0     N93742   6.416   5.463   1.584 -0.8565 -0.4858 -1.2034
  695MOL0     C93743   7.490   4.994   1.892  0.5832 -0.3211 -1.7931
  695MOL0     C93744   7.607   4.938   1.939  0.3501  0.7730 -0.0365
  695MOL0     C93745   7.943   4.637   2.017 -0.2838 -0.3430  0.0669
  695MOL0     C93746   8.042   4.555   1.977 -0.2286  1.1847 -0.1654
  695MOL0     C93747   8.163   4.543   2.057  0.5350  0.2021  0.2339
  695MOL0     C93748   8.181   4.616   2.175  0.2471 -0.4209 -0.2269
  695MOL0     O93749   8.298   4.612   2.249  0.4651  0.2374  0.1322
  695MOL0     C93750   8.369   4.490   2.261  0.0189  0.4902 -0.0318
  695MOL0     C93751   8.518   4.507   2.224 -0.5151  0.8455 -0.2597
  695MOL0     C93752   8.582   4.367   2.224  0.0627 -0.5270  0.2474
  695MOL0     C93753   8.727   4.378   2.165 -0.8151  0.5589 -0.6622
  695MOL0     C93754   8.772   4.246   2.135 -0.9103  0.1705  0.5865
  695MOL0     C93755   8.811   4.137   2.106  0.4103  0.4293  0.1273
  695MOL0     C93756   8.077   4.701   2.215 -0.4941 -0.2882 -0.0243
  695MOL0     C93757   7.961   4.704   2.145  0.7303 -0.3146 -0.1897
  695MOL0     H93758   7.536   4.613   1.897 -0.3695 -0.8063 -1.2995
  695MOL0     H93759   7.329   4.695   1.810 -0.0187 -0.7826  1.2174
  695MOL0     H93760   7.167   4.820   1.711  1.2608 -1.1664  0.7740
  695MOL0     H93761   7.136   4.835   1.887  2.6169 -2.1920 -1.2610
  695MOL0     H93762   6.940   4.909   1.792  1.3610 -1.4911  1.4674
  695MOL0     H93763   7.028   5.058   1.850  1.2747  0.0950  0.1250
  695MOL0     H93764   7.108   5.092   1.613 -0.8611  0.2199 -0.7255
  695MOL0     H93765   7.001   4.953   1.569  1.2893  0.2001 -0.8515
  695MOL0     H93766   6.916   5.223   1.693  2.6738  2.4805 -3.4554
  695MOL0     H93767   6.897   5.174   1.527  1.4830  1.0397  0.8895
  695MOL0     H93768   6.754   4.984   1.618  1.1755  1.1859 -2.7252
  695MOL0     H93769   6.756   5.069   1.779  1.7570  1.0711 -0.4270
  695MOL0     H93770   6.667   5.253   1.702 -0.2389 -0.7938  0.4607
  695MOL0     H93771   6.699   5.230   1.529 -1.5049  0.4511 -0.3237
  695MOL0     H93772   6.532   5.032   1.512  0.6209  0.8339 -1.5389
  695MOL0     H93773   6.481   5.074   1.674 -2.9636 -1.9095 -2.6786
  695MOL0     H93774   6.354   5.178   1.468 -2.2838  1.4988  1.5219
  695MOL0     H93775   6.507   5.266   1.442  1.7378 -0.2560  2.1990
  695MOL0     H93776   6.247   5.219   1.729 -1.8446  2.3724  2.0484
  695MOL0     H93777   6.059   5.369   1.801  1.4194 -0.6468 -1.2844
  695MOL0     H93778   6.134   5.506   1.883  2.8031 -1.4592  0.7276
  695MOL0     H93779   6.009   5.518   1.601  1.1968 -2.6768  0.5942
  695MOL0     H93780   6.073   5.655   1.686 -1.9544  0.1535  2.6671
  695MOL0     H93781   5.858   5.489   1.814  0.3442  0.3378  1.9647
  695MOL0     H93782   5.820   5.606   1.692 -3.7745 -1.5155  2.5784
  695MOL0     H93783   5.894   5.802   1.791 -0.5082  0.3783 -0.5840
  695MOL0     H93784   5.967   5.713   1.933 -2.1462  2.2307  2.9007
  695MOL0     H93785   5.853   5.967   1.925  0.1428  0.2982  0.1899
  695MOL0     H93786   5.653   6.259   1.877  0.9836  0.2230 -2.2848
  695MOL0     H93787   5.761   6.222   2.018 -0.0793 -2.7139  0.4228
  695MOL0     H93788   5.806   6.186   1.844  0.0470 -1.0067 -0.5249
  695MOL0     H93789   5.076   6.030   1.784 -2.9409  0.6279 -2.1394
  695MOL0     H93790   4.863   6.171   1.765  0.9304 -1.5236 -0.9018
  695MOL0     H93791   4.862   6.557   1.971 -0.8573  0.1698  1.5372
  695MOL0     H93792   4.726   6.570   1.863  3.1346  0.8739 -3.4356
  695MOL0     H93793   4.746   6.350   2.071 -1.0406 -0.0401  0.3187
  695MOL0     H93794   4.660   6.492   2.090 -0.2470 -0.8707  0.9874
  695MOL0     H93795   4.521   6.296   2.023 -1.8170  0.0894  0.5336
  695MOL0     H93796   4.591   6.286   1.867 -0.8204 -0.9692  1.1931
  695MOL0     H93797   4.420   6.511   1.986 -1.1522 -0.2260 -1.4664
  695MOL0     H93798   4.516   6.537   1.836 -0.2375 -1.5195 -2.7063
  695MOL0     H93799   4.280   6.348   1.880  0.1414 -0.3020 -0.0133
  695MOL0     H93800   4.401   6.314   1.750 -0.6339 -0.1775 -0.6668
  695MOL0     H93801   4.204   6.541   1.804 -0.2760  0.7221 -1.1897
  695MOL0     H93802   4.334   6.554   1.682 -2.1325  0.1435 -2.1790
  695MOL0     H93803   4.122   6.344   1.696 -0.7531 -1.1714 -0.6437
  695MOL0     H93804   4.244   6.349   1.568 -0.5886  1.1356 -1.2049
  695MOL0     H93805   4.155   6.577   1.498  2.2696 -2.2428 -1.3378
  695MOL0     H93806   4.037   6.559   1.625  1.1008  2.1713  0.2967
  695MOL0     H93807   5.080   6.503   1.927  0.6205  0.3888 -0.0580
  695MOL0     H93808   5.277   6.375   1.942 -0.3406 -1.4789  2.7863
  695MOL0     H93809   5.372   5.876   1.911  0.2008 -1.5257 -1.5493
  695MOL0     H93810   5.521   5.697   1.930  1.1194 -0.9833  1.6489
  695MOL0     H93811   7.479   5.102   1.885 -1.8231 -0.5989 -3.5046
  695MOL0     H93812   7.690   5.001   1.967 -0.8589  1.6657  1.7173
  695MOL0     H93813   8.043   4.487   1.893 -2.6813 -3.3203  2.9789
  695MOL0     H93814   8.242   4.476   2.023  0.3645 -0.1866  0.5921
  695MOL0     H93815   8.373   4.455   2.365 -0.8130 -0.0885 -0.1815
  695MOL0     H93816   8.321   4.413   2.200 -2.0380  2.5750 -1.1802
  695MOL0     H93817   8.564   4.576   2.296  1.6508  0.1483 -0.8990
  695MOL0     H93818   8.537   4.547   2.124 -2.4545  1.6264 -0.3580
  695MOL0     H93819   8.514   4.297   2.174  1.8810 -0.3675 -2.6943
  695MOL0     H93820   8.596   4.336   2.328  0.2773 -0.3163  0.2810
  695MOL0     H93821   8.789   4.428   2.240  0.4514  1.5765 -2.3140
  695MOL0     H93822   8.735   4.445   2.078 -1.8023  4.9783  2.2821
  695MOL0     H93823   8.840   4.034   2.104 -2.8243 -0.6055  0.9513
  695MOL0     H93824   8.094   4.747   2.312  2.4996 -1.6646  0.2285
  695MOL0     H93825   7.873   4.751   2.190  0.0113  0.2843 -2.1215
  696MOL0     O93826   5.182   1.473   4.449  0.3947 -0.5700  0.4895
  696MOL0     C93827   5.218   1.524   4.344 -0.4301 -0.0117 -0.3350
  696MOL0     O93828   5.140   1.537   4.234  0.5809  0.2984  0.3393
  696MOL0     C93829   5.015   1.482   4.245  0.4588 -0.4599  0.0874
  696MOL0     C93830   4.909   1.553   4.295 -0.1951 -0.1542  0.4750
  696MOL0     C93831   4.777   1.520   4.307 -0.1478  1.2017  0.2417
  696MOL0     C93832   4.744   1.389   4.265  0.2154  0.3103  0.1278
  696MOL0     O93833   4.621   1.324   4.273 -0.4245  0.2599 -0.2242
  696MOL0     C93834   4.507   1.391   4.226 -0.2045  0.6720  0.6104
  696MOL0     C93835   4.409   1.280   4.177 -0.2185 -0.2586  0.1133
  696MOL0     C93836   4.293   1.346   4.085 -0.4755  0.4785 -0.7283
  696MOL0     C93837   4.207   1.248   4.014 -0.0451  0.4720 -0.4560
  696MOL0     C93838   4.110   1.176   4.112 -0.7419 -0.3365  0.0852
  696MOL0     C93839   3.981   1.261   4.148 -0.2430 -0.1978  0.1153
  696MOL0     C93840   3.891   1.180   4.239 -0.1903 -0.5653  0.5640
  696MOL0     C93841   3.827   1.060   4.171 -0.3801 -0.0814  0.4210
  696MOL0     N93842   3.709   1.012   4.242 -0.3443 -0.1452 -0.9204
  696MOL0     C93843   3.591   1.064   4.220  1.2478 -0.2562 -0.0613
  696MOL0     C93844   3.506   1.006   4.311 -0.0486  0.4948 -0.0771
  696MOL0     C93845   3.361   1.032   4.332  0.8496 -0.0431  0.0141
  696MOL0     C93846   3.259   0.928   4.292 -0.0648  0.6498  0.4758
  696MOL0     C93847   3.250   0.812   4.396 -0.9208 -0.0604  0.2492
  696MOL0     C93848   3.159   0.835   4.512 -0.2396  0.2484 -0.0743
  696MOL0     O93849   3.024   0.812   4.466 -0.2201 -0.6949 -0.1834
  696MOL0     C93850   2.926   0.806   4.560 -0.2332  0.1547 -0.6477
  696MOL0     C93851   2.808   0.755   4.508  0.2988 -0.0183  0.0927
  696MOL0     C93852   2.692   0.765   4.581 -0.4538  0.8867  0.4604
  696MOL0     C93853   2.572   0.708   4.515 -0.8358  0.5822  0.7285
  696MOL0     C93854   2.694   0.799   4.718  0.3696 -1.4370 -0.6457
  696MOL0     C93855   2.571   0.800   4.797  0.6124 -1.1173  0.4728
  696MOL0     O93856   2.452   0.833   4.736 -0.3813 -0.5616 -0.8013
  696MOL0     C93857   2.336   0.835   4.813  0.2981 -0.8138  0.5388
  696MOL0     C93858   2.298   0.726   4.887  0.8232 -0.3800 -0.9607
  696MOL0     C93859   2.175   0.734   4.970 -1.0813 -0.1838 -0.0680
  696MOL0     C93860   2.093   0.844   4.972 -0.2569 -0.7494 -0.7282
  696MOL0     O93861   1.978   0.849   5.049 -0.6883  0.3180  0.6158
  696MOL0     C93862   1.850   0.884   4.979 -0.0590  0.6997 -0.3842
  696MOL0     C93863   1.742   0.785   5.036  0.3419  0.1162  0.2447
  696MOL0     C93864   1.625   0.752   4.958 -0.2753 -0.5646 -0.4501
  696MOL0     C93865   1.535   0.652   5.045 -0.5827 -0.4728  1.0983
  696MOL0     C93866   1.395   0.623   4.992 -0.3647 -0.4293  0.3076
  696MOL0     C93867   1.296   0.740   5.015  0.9649  0.1356  0.1875
  696MOL0     C93868   1.167   0.709   4.949 -0.4859  0.2299  0.1128
  696MOL0     C93869   1.063   0.819   4.958  0.0994  0.3048  0.8400
  696MOL0    Cl93870   1.001   0.828   5.124  0.0645  0.2126  0.0320
  696MOL0     C93871   2.136   0.954   4.896 -0.2633 -0.4046  0.4197
  696MOL0     C93872   2.254   0.957   4.818  0.5645 -0.6465 -0.4432
  696MOL0     O93873   2.578   0.767   4.909 -0.1890  0.2758  0.0326
  696MOL0     C93874   2.814   0.848   4.773  0.2540 -0.8107  0.1322
  696MOL0     C93875   2.926   0.858   4.694 -0.5369 -0.3534 -0.7245
  696MOL0     N93876   3.585   0.921   4.388  0.5607 -0.0428 -0.1196
  696MOL0     N93877   3.706   0.921   4.348  0.2015  0.1987 -0.2259
  696MOL0     C93878   4.850   1.310   4.217  0.6127  0.4011 -0.2561
  696MOL0     C93879   4.983   1.353   4.210  0.0833  0.6072  0.1625
  696MOL0     C93880   5.350   1.594   4.341  0.6358 -0.7752 -0.0113
  696MOL0     C93881   5.425   1.603   4.460  0.6912 -0.1903 -0.3128
  696MOL0     C93882   5.549   1.669   4.472  1.0261 -0.2801  0.6039
  696MOL0     C93883   5.612   1.705   4.353  0.1011  0.3576 -0.0651
  696MOL0     O93884   5.727   1.786   4.370  0.6111  0.4811 -0.3981
  696MOL0     C93885   5.806   1.844   4.264  0.4899 -0.0941 -0.8557
  696MOL0     C93886   5.931   1.902   4.340 -0.7767 -0.1809 -0.1926
  696MOL0     C93887   6.052   1.933   4.246  0.1381 -0.5203  1.7212
  696MOL0     C93888   6.188   1.935   4.307 -0.2334 -0.6551 -0.4413
  696MOL0     C93889   6.203   2.053   4.400 -0.5912  0.2806 -0.5083
  696MOL0     C93890   6.221   2.151   4.468  0.3461  0.7089 -0.9626
  696MOL0     C93891   5.541   1.691   4.234  0.2623 -0.2799  0.1258
  696MOL0     C93892   5.412   1.634   4.225 -0.1033  0.3248 -0.8060
  696MOL0     H93893   4.933   1.654   4.328  0.7351 -0.2531  0.1285
  696MOL0     H93894   4.706   1.595   4.342 -1.1381 -0.3782  1.8592
  696MOL0     H93895   4.465   1.443   4.313 -0.5828  0.2780  0.6695
  696MOL0     H93896   4.528   1.455   4.141 -0.4572 -0.8669 -0.6586
  696MOL0     H93897   4.466   1.212   4.114 -1.6241  0.0688 -1.5902
  696MOL0     H93898   4.367   1.216   4.256 -0.7071 -0.1287 -0.0375
  696MOL0     H93899   4.226   1.419   4.130 -1.6226 -0.2263 -1.2544
  696MOL0     H93900   4.355   1.396   4.010  1.7456 -0.5433  0.3030
  696MOL0     H93901   4.150   1.309   3.943  0.6693  0.8000 -0.7558
  696MOL0     H93902   4.273   1.181   3.957  0.3378 -0.0452  0.5694
  696MOL0     H93903   4.086   1.085   4.056 -1.3970  0.9740 -1.8625
  696MOL0     H93904   4.160   1.145   4.204  1.2749 -1.9435 -1.4445
  696MOL0     H93905   4.009   1.352   4.203 -4.0286 -0.8017  3.5544
  696MOL0     H93906   3.937   1.298   4.055  1.0876  2.2626  0.3807
  696MOL0     H93907   3.950   1.150   4.326  0.9274  0.4063  0.1690
  696MOL0     H93908   3.808   1.248   4.259  2.1119  1.9388  2.3405
  696MOL0     H93909   3.902   0.982   4.155  0.7417  1.3370 -1.8371
  696MOL0     H93910   3.810   1.081   4.065 -0.8806  0.7495  0.6542
  696MOL0     H93911   3.565   1.129   4.138  0.2329  0.5286  0.8458
  696MOL0     H93912   3.344   1.045   4.439 -2.7449 -0.5607 -0.3634
  696MOL0     H93913   3.333   1.131   4.294 -1.7794 -0.5516  0.4346
  696MOL0     H93914   3.302   0.890   4.199  3.4636 -0.2960  2.3233
  696MOL0     H93915   3.159   0.968   4.269 -0.8725  0.1424  2.8390
  696MOL0     H93916   3.347   0.788   4.440 -1.7384  0.6104  2.5407
  696MOL0     H93917   3.221   0.726   4.334 -0.6554 -0.5768  0.8219
  696MOL0     H93918   3.175   0.930   4.565  0.1988 -0.4568  1.0937
  696MOL0     H93919   3.187   0.759   4.585  1.0749 -0.3567 -1.1697
  696MOL0     H93920   2.796   0.715   4.407 -2.5178  0.1934  0.2747
  696MOL0     H93921   2.524   0.643   4.588 -1.1705 -0.8416 -0.6998
  696MOL0     H93922   2.506   0.794   4.498  0.2180  1.0954 -1.1233
  696MOL0     H93923   2.588   0.649   4.424  0.0080  1.0627  0.5537
  696MOL0     H93924   2.355   0.634   4.887  1.5976  0.0905 -0.1631
  696MOL0     H93925   2.155   0.647   5.031  0.5370 -1.6964 -1.5827
  696MOL0     H93926   1.819   0.988   4.991  3.3382  2.1270 -2.6663
  696MOL0     H93927   1.864   0.865   4.872 -0.7187 -0.8257 -0.2204
  696MOL0     H93928   1.795   0.692   5.059 -1.4933 -1.1066 -0.1830
  696MOL0     H93929   1.701   0.826   5.129 -1.1842  0.4115 -0.5131
  696MOL0     H93930   1.657   0.712   4.861 -1.1063  0.3585 -1.1383
  696MOL0     H93931   1.574   0.843   4.924 -2.0837 -1.9139 -1.5602
  696MOL0     H93932   1.590   0.557   5.046  0.4540  0.0782 -0.1514
  696MOL0     H93933   1.512   0.701   5.139 -0.3907  3.7652 -0.8251
  696MOL0     H93934   1.371   0.536   5.055 -0.2911  0.2576  1.3191
  696MOL0     H93935   1.387   0.586   4.890  1.5468 -0.6082  0.1958
  696MOL0     H93936   1.280   0.752   5.122 -0.5854 -0.3046  0.0281
  696MOL0     H93937   1.327   0.835   4.970 -1.9831  1.2800  0.3599
  696MOL0     H93938   1.124   0.610   4.967 -1.1358  0.8340  2.1003
  696MOL0     H93939   1.197   0.706   4.844  1.4672  2.0087  0.5672
  696MOL0     H93940   0.980   0.802   4.889 -0.2138  1.4350  0.9201
  696MOL0     H93941   1.105   0.914   4.925 -4.3100  1.9685 -0.7598
  696MOL0     H93942   2.076   1.042   4.879  1.0696  0.6937  1.2046
  696MOL0     H93943   2.293   1.042   4.763  2.9536  0.3924  2.5486
  696MOL0     H93944   2.808   0.887   4.874 -3.6500  1.4259 -0.7801
  696MOL0     H93945   3.003   0.908   4.753 -1.8791 -1.5352  2.2732
  696MOL0     H93946   4.827   1.208   4.188  0.8040 -0.1692  1.5030
  696MOL0     H93947   5.057   1.282   4.175 -1.0453 -1.1196  1.1301
  696MOL0     H93948   5.386   1.577   4.558  0.7612 -0.7407 -0.4275
  696MOL0     H93949   5.593   1.677   4.571 -0.5451  1.6397  1.2142
  696MOL0     H93950   5.832   1.764   4.194 -0.2877 -0.7882 -0.3569
  696MOL0     H93951   5.744   1.911   4.204 -0.9881 -0.6225  0.0282
  696MOL0     H93952   5.956   1.830   4.419 -0.0732  0.3313  0.0672
  696MOL0     H93953   5.907   1.996   4.391 -1.7649  0.3096 -1.5165
  696MOL0     H93954   6.022   2.026   4.197  0.6453  0.2873  2.8870
  696MOL0     H93955   6.059   1.855   4.169  1.6011 -0.6480  1.9463
  696MOL0     H93956   6.269   1.931   4.233 -1.5531 -0.7739 -1.9327
  696MOL0     H93957   6.203   1.856   4.381  0.0902 -0.9348 -0.7968
  696MOL0     H93958   6.251   2.238   4.521  1.8106 -0.1593 -0.3221
  696MOL0     H93959   5.584   1.733   4.144 -2.1015  0.1851 -0.8533
  696MOL0     H93960   5.358   1.641   4.131 -3.4327 -0.4159  0.9032
  697MOL0     O93961  11.241  11.046   7.676  0.2825  0.3335 -0.2149
  697MOL0     C93962  11.316  10.959   7.642  0.0231 -0.0500  1.2131
  697MOL0     O93963  11.280  10.852   7.561  0.2314  0.1584  0.8890
  697MOL0     C93964  11.148  10.822   7.525  0.3040  0.0418  0.0845
  697MOL0     C93965  11.039  10.836   7.613  0.1527 -0.6549  0.1050
  697MOL0     C93966  10.915  10.785   7.575 -0.2781 -0.1515 -0.2683
  697MOL0     C93967  10.889  10.746   7.446  0.7017 -0.9551  0.0451
  697MOL0     O93968  10.761  10.700   7.397 -0.1251 -0.1493 -0.7801
  697MOL0     C93969  10.677  10.645   7.497  0.3337  0.6051  0.4517
  697MOL0     C93970  10.554  10.568   7.430 -0.1056 -0.6909  0.3774
  697MOL0     C93971  10.583  10.491   7.301 -0.0627 -0.5783 -0.1048
  697MOL0     C93972  10.494  10.372   7.268  0.0367  0.4932  0.9637
  697MOL0     C93973  10.495  10.316   7.128 -0.7349 -0.6999  0.8360
  697MOL0     C93974  10.393  10.201   7.129 -0.0231 -0.0793  0.8201
  697MOL0     C93975  10.388  10.125   7.000  0.3086 -0.6582  0.1302
  697MOL0     C93976  10.271  10.031   6.987  0.7879  0.2602 -0.2514
  697MOL0     N93977  10.315   9.907   6.917  0.1461 -0.4008  0.0414
  697MOL0     C93978  10.409   9.894   6.819  0.5482  0.2554 -0.5416
  697MOL0     C93979  10.420   9.760   6.798  0.3091  0.5784  0.3784
  697MOL0     C93980  10.501   9.691   6.700 -0.0849  0.0248 -0.1485
  697MOL0     C93981  10.646   9.684   6.758 -0.0652 -0.1783  0.6332
  697MOL0     C93982  10.727   9.810   6.735  0.5958 -0.1799  0.3142
  697MOL0     C93983  10.783   9.791   6.588 -0.9659  0.6874  0.2846
  697MOL0     O93984  10.860   9.898   6.517  0.3911 -0.1939  0.0165
  697MOL0     C93985  10.986   9.941   6.553  0.0405  0.2086 -0.7052
  697MOL0     C93986  11.056  10.028   6.468  0.2159 -0.5369  0.3422
  697MOL0     C93987  11.190  10.070   6.478 -0.1435 -0.6955  0.2974
  697MOL0     C93988  11.254  10.161   6.375  0.2587  0.9484 -0.6389
  697MOL0     C93989  11.249  10.012   6.595  0.0805 -0.4950 -1.0150
  697MOL0     C93990  11.392  10.038   6.623  0.3361  0.1367 -0.2418
  697MOL0     O93991  11.482  10.033   6.517  1.3941 -0.6086 -0.1747
  697MOL0     C93992  11.606  10.014   6.552 -0.1316 -0.2670  0.2246
  697MOL0     C93993  11.645   9.892   6.610  0.6968 -0.0939 -0.5278
  697MOL0     C93994  11.780   9.881   6.658  1.0399 -0.2798 -0.2526
  697MOL0     C93995  11.861   9.986   6.659 -0.0209  0.3903  0.2737
  697MOL0     O93996  11.987   9.959   6.713  0.1405 -0.2265  0.1935
  697MOL0     C93997  12.097   9.974   6.625 -0.3425  0.3078 -0.3114
  697MOL0     C93998  12.158  10.113   6.647 -0.2910 -0.2661 -1.0332
  697MOL0     C93999  12.311  10.090   6.674  0.5354  0.3691  0.3244
  697MOL0     C94000  12.330  10.056   6.816 -0.0745  0.1149 -0.0335
  697MOL0     C94001  12.479  10.040   6.853  0.4283 -0.4280 -0.5256
  697MOL0     C94002  12.538   9.904   6.797 -0.4739 -0.3379  0.3193
  697MOL0     C94003  12.661   9.860   6.880  0.3763  0.1217  0.1462
  697MOL0     C94004  12.624   9.802   7.017 -0.2921 -0.1599  0.3868
  697MOL0    Cl94005  12.759   9.708   7.087 -0.5441 -0.2164  0.0012
  697MOL0     C94006  11.826  10.098   6.591  0.6062 -0.1565  0.1228
  697MOL0     C94007  11.698  10.120   6.541  0.5302  0.3642  0.4369
  697MOL0     O94008  11.415  10.059   6.742 -0.3638  0.4737 -0.5959
  697MOL0     C94009  11.192   9.909   6.665 -0.0976 -1.4057 -0.0176
  697MOL0     C94010  11.062   9.872   6.655  0.9644  0.6875 -0.2179
  697MOL0     N94011  10.333   9.696   6.891 -0.5860 -0.3431  0.3509
  697MOL0     N94012  10.271   9.785   6.960 -0.6391 -0.1704  0.2132
  697MOL0     C94013  10.997  10.728   7.358 -1.1857 -0.5360 -0.1583
  697MOL0     C94014  11.127  10.768   7.399 -0.1848 -0.1664  0.2531
  697MOL0     C94015  11.454  10.964   7.691  0.9953  0.3307 -0.6657
  697MOL0     C94016  11.548  10.868   7.645  0.2447 -0.6009 -0.3450
  697MOL0     C94017  11.682  10.889   7.683  0.0727  0.5317 -0.1820
  697MOL0     C94018  11.731  11.001   7.755  0.3998 -0.1265  1.0892
  697MOL0     O94019  11.863  11.022   7.765 -0.1428  0.1767  0.0365
  697MOL0     C94020  11.952  10.908   7.767  0.5630 -0.7870  0.3138
  697MOL0     C94021  12.080  10.955   7.830  0.2150  0.0138 -0.3847
  697MOL0     C94022  12.083  10.946   7.987 -0.1274  0.5448  0.5584
  697MOL0     C94023  11.990  11.041   8.051 -0.0244 -0.3417  0.6061
  697MOL0     C94024  12.031  11.177   8.022 -0.1355  0.1229 -0.1668
  697MOL0     C94025  12.063  11.293   8.011 -0.5838  0.5495  0.3049
  697MOL0     C94026  11.643  11.105   7.766  0.1232  0.0689  0.5359
  697MOL0     C94027  11.504  11.088   7.735 -0.4477  0.4820  0.8903
  697MOL0     H94028  11.057  10.890   7.705  0.8662  0.6401 -0.7528
  697MOL0     H94029  10.827  10.797   7.638 -2.2300  1.5098 -3.0736
  697MOL0     H94030  10.738  10.578   7.558 -1.3446 -0.6779  0.7986
  697MOL0     H94031  10.631  10.723   7.559 -0.0084 -1.0517  2.4134
  697MOL0     H94032  10.516  10.499   7.505 -0.3895 -0.1147  0.7659
  697MOL0     H94033  10.483  10.648   7.409  2.2279  0.9310 -2.1396
  697MOL0     H94034  10.569  10.564   7.221 -1.1764 -1.4687 -0.7462
  697MOL0     H94035  10.687  10.460   7.291  0.1992 -0.2908  1.4823
  697MOL0     H94036  10.516  10.293   7.340  0.6668 -1.3094 -1.1290
  697MOL0     H94037  10.388  10.396   7.284 -0.4565 -0.8081 -0.1983
  697MOL0     H94038  10.475  10.390   7.050  1.1598 -1.9309 -0.9292
  697MOL0     H94039  10.598  10.283   7.110  0.8556  3.6835  0.9116
  697MOL0     H94040  10.428  10.130   7.205  0.7512  0.4433  0.9639
  697MOL0     H94041  10.293  10.238   7.153 -0.4492  1.1682 -2.3222
  697MOL0     H94042  10.392  10.193   6.915 -1.8653  0.4828  0.8779
  697MOL0     H94043  10.472  10.054   6.999 -0.6192 -1.8597 -2.3587
  697MOL0     H94044  10.179  10.072   6.945  0.3355 -0.4456  0.0404
  697MOL0     H94045  10.237  10.002   7.087  0.0321 -1.3648 -0.9479
  697MOL0     H94046  10.458   9.975   6.766 -1.9050  1.2381 -1.4034
  697MOL0     H94047  10.454   9.593   6.694 -2.0003  0.8627  0.2425
  697MOL0     H94048  10.502   9.744   6.604  2.0988  0.7870  0.2284
  697MOL0     H94049  10.691   9.586   6.737 -2.1222 -1.1373  0.4920
  697MOL0     H94050  10.638   9.691   6.867 -2.4460  2.9936  0.4073
  697MOL0     H94051  10.810   9.831   6.804  0.9362  1.8578 -0.6200
  697MOL0     H94052  10.662   9.897   6.749 -0.9739 -1.4521  1.1225
  697MOL0     H94053  10.708   9.751   6.519  0.4125  1.1968 -1.5866
  697MOL0     H94054  10.857   9.713   6.603  2.9119  3.4124 -2.7188
  697MOL0     H94055  11.002  10.062   6.380  0.4586 -0.5383  0.1932
  697MOL0     H94056  11.337  10.110   6.326 -1.0307 -0.8531 -1.0604
  697MOL0     H94057  11.171  10.183   6.308 -0.4845  0.7569  0.2005
  697MOL0     H94058  11.281  10.257   6.421  0.1573  1.3707 -1.4531
  697MOL0     H94059  11.572   9.812   6.615 -2.2808  2.2417 -2.7519
  697MOL0     H94060  11.814   9.800   6.722 -0.5309 -0.7893 -0.0262
  697MOL0     H94061  12.162   9.890   6.652  0.3405  0.8954 -0.0848
  697MOL0     H94062  12.077   9.968   6.518  1.0025 -2.4856 -0.5014
  697MOL0     H94063  12.167  10.174   6.556 -0.6220  0.3711 -0.6445
  697MOL0     H94064  12.113  10.173   6.727  2.0237 -0.6028  0.6096
  697MOL0     H94065  12.368  10.182   6.655  1.5996 -0.3175  0.1009
  697MOL0     H94066  12.350  10.019   6.601 -1.5515 -0.0084 -0.5000
  697MOL0     H94067  12.297  10.142   6.875  2.6280  1.9624 -1.0137
  697MOL0     H94068  12.270   9.969   6.845  0.6787  0.2640  2.0973
  697MOL0     H94069  12.477  10.037   6.963 -1.6320 -0.6535 -0.5218
  697MOL0     H94070  12.539  10.125   6.820  1.4955 -1.3904 -1.1456
  697MOL0     H94071  12.469   9.820   6.804  0.5757 -1.1809  0.8896
  697MOL0     H94072  12.569   9.906   6.692  2.0827 -2.5323  0.9012
  697MOL0     H94073  12.732   9.942   6.892 -0.7737  1.1977 -0.0732
  697MOL0     H94074  12.714   9.784   6.822  2.5900  1.7219 -0.0567
  697MOL0     H94075  12.555   9.718   7.013  0.6265 -0.9142 -0.1067
  697MOL0     H94076  12.594   9.879   7.089  0.5924 -0.9262  1.6197
  697MOL0     H94077  11.899  10.178   6.599  0.6015 -0.2739  1.6382
  697MOL0     H94078  11.669  10.217   6.502 -1.0727 -0.0707  0.4812
  697MOL0     H94079  11.251   9.861   6.741  0.1032 -2.3499 -0.7463
  697MOL0     H94080  11.032   9.785   6.712  0.4412  0.4723 -0.8065
  697MOL0     H94081  10.978  10.694   7.257 -0.5353 -0.1026 -0.4317
  697MOL0     H94082  11.214  10.759   7.334 -0.2051  1.3183 -0.0178
  697MOL0     H94083  11.520  10.787   7.579 -1.9857  0.6055 -0.9902
  697MOL0     H94084  11.753  10.825   7.631 -0.3468 -1.6052  1.6865
  697MOL0     H94085  11.912  10.824   7.826  0.5989 -0.7171  0.4380
  697MOL0     H94086  11.967  10.865   7.668 -0.1486 -1.6506  0.5644
  697MOL0     H94087  12.108  11.056   7.797  4.4413  0.3217  3.2379
  697MOL0     H94088  12.165  10.900   7.789  0.8728  0.7250  0.0005
  697MOL0     H94089  12.189  10.961   8.011  0.8443  2.2313 -3.8083
  697MOL0     H94090  12.060  10.840   8.005  1.9287 -0.1560 -0.6005
  697MOL0     H94091  11.994  11.018   8.158 -0.0157 -1.7896  0.3211
  697MOL0     H94092  11.890  11.012   8.018 -0.5645  0.8627  1.0914
  697MOL0     H94093  12.069  11.400   8.008  0.3688  0.5054  0.2381
  697MOL0     H94094  11.681  11.204   7.788  0.6891 -0.6121  2.9372
  697MOL0     H94095  11.438  11.174   7.737 -1.8558 -0.5780  1.2951
  698MOL0     O94096  11.260  10.382   5.208 -0.5086  0.5112 -0.3959
  698MOL0     C94097  11.359  10.375   5.286  0.4953 -0.7246  0.9506
  698MOL0     O94098  11.348  10.341   5.420 -0.3374 -1.2370  0.5741
  698MOL0     C94099  11.220  10.317   5.463 -0.4699  0.0206 -0.2792
  698MOL0     C94100  11.126  10.420   5.471 -0.1356  0.0062 -0.3320
  698MOL0     C94101  10.997  10.396   5.520  0.4908 -0.1698  0.2496
  698MOL0     C94102  10.963  10.278   5.572 -0.0144  0.2116  0.4952
  698MOL0     O94103  10.832  10.259   5.609  0.0818 -0.2373 -0.1258
  698MOL0     C94104  10.783  10.125   5.629  0.5088 -0.3759  0.0578
  698MOL0     C94105  10.627  10.129   5.616 -0.9562  0.9120 -0.3692
  698MOL0     C94106  10.565   9.995   5.601 -0.2171  0.0758  0.2663
  698MOL0     C94107  10.583   9.930   5.462  0.1912  0.7898  0.5022
  698MOL0     C94108  10.522   9.792   5.446 -0.0262 -0.4964 -0.1906
  698MOL0     C94109  10.543   9.726   5.311  0.2682 -0.4700  0.1684
  698MOL0     C94110  10.524   9.828   5.190 -0.2624  0.1060  0.0977
  698MOL0     C94111  10.529   9.767   5.050 -0.7847 -0.1307  0.3328
  698MOL0     N94112  10.548   9.858   4.940  0.0522 -0.1487  0.6422
  698MOL0     C94113  10.447   9.899   4.863  1.1575  0.0911  0.2383
  698MOL0     C94114  10.512   9.994   4.787 -0.2918  1.0447  0.2523
  698MOL0     C94115  10.452  10.088   4.684 -0.9533 -0.2344 -0.9160
  698MOL0     C94116  10.306  10.072   4.655  0.6131  0.3365 -0.4652
  698MOL0     C94117  10.267   9.946   4.575 -0.1427  1.2750  0.3373
  698MOL0     C94118  10.113   9.934   4.562 -0.3673  0.4641  0.9025
  698MOL0     O94119  10.083  10.049   4.480 -0.0695 -0.5278  0.0208
  698MOL0     C94120   9.957  10.091   4.453  0.6566 -0.1283 -1.1128
  698MOL0     C94121   9.940  10.224   4.414 -0.6170  0.2545  1.0691
  698MOL0     C94122   9.815  10.269   4.378 -0.2999  0.0856  0.2224
  698MOL0     C94123   9.799  10.411   4.313  0.2491 -0.3037 -0.1841
  698MOL0     C94124   9.699  10.186   4.385  0.6701  0.0550 -0.2424
  698MOL0     C94125   9.555  10.211   4.349 -0.6212 -1.1392  0.4146
  698MOL0     O94126   9.482  10.109   4.305 -0.6323 -0.5776  0.5503
  698MOL0     C94127   9.342  10.123   4.285  0.0729  0.0772  0.6206
  698MOL0     C94128   9.247  10.182   4.373  0.3903  0.6461  0.0249
  698MOL0     C94129   9.111  10.196   4.325  1.3215 -0.3711  0.2822
  698MOL0     C94130   9.070  10.145   4.196  0.9199 -1.0108 -0.9922
  698MOL0     O94131   8.940  10.156   4.157  0.0884 -0.6273  0.4858
  698MOL0     C94132   8.834  10.150   4.252 -0.1825 -0.0112 -0.4753
  698MOL0     C94133   8.717  10.074   4.171  0.0874 -0.1204 -0.2562
  698MOL0     C94134   8.605  10.060   4.275 -0.2167 -0.1070  0.4306
  698MOL0     C94135   8.493   9.980   4.208  0.1240 -0.1042 -0.4561
  698MOL0     C94136   8.367   9.992   4.294  0.2628 -0.6201 -0.3007
  698MOL0     C94137   8.246   9.915   4.227 -0.2271 -0.0919  0.5553
  698MOL0     C94138   8.275   9.771   4.193  0.7521  0.7947  0.7346
  698MOL0     C94139   8.155   9.686   4.167  0.2436 -0.5100 -0.4868
  698MOL0    Cl94140   8.203   9.508   4.164  0.2554 -0.4820  0.8262
  698MOL0     C94141   9.169  10.086   4.112 -0.0478 -0.0665  0.2010
  698MOL0     C94142   9.306  10.086   4.154 -0.1443 -0.2068  0.0759
  698MOL0     O94143   9.506  10.324   4.371  0.0418  0.1500  0.4640
  698MOL0     C94144   9.718  10.060   4.443  0.4367  0.5353 -0.7169
  698MOL0     C94145   9.850  10.017   4.470  0.8511  0.3846  0.2505
  698MOL0     N94146  10.645  10.003   4.815 -0.2168 -0.7879  0.0867
  698MOL0     N94147  10.661   9.928   4.921 -0.8147 -0.0929 -0.3398
  698MOL0     C94148  11.058  10.173   5.574  0.1621 -0.2880  0.6190
  698MOL0     C94149  11.181  10.198   5.521  0.4586  0.4441 -0.2152
  698MOL0     C94150  11.495  10.410   5.243 -0.9986  0.0313 -0.3351
  698MOL0     C94151  11.525  10.490   5.131  0.0596 -0.1853 -0.5472
  698MOL0     C94152  11.656  10.522   5.092  0.4192  0.0794  0.5971
  698MOL0     C94153  11.763  10.470   5.171 -0.3929 -0.3439  0.3290
  698MOL0     O94154  11.902  10.503   5.151  0.0342  0.1468  0.2321
  698MOL0     C94155  11.938  10.586   5.041  0.3424 -0.4113  0.4565
  698MOL0     C94156  12.084  10.572   5.001  0.5835  1.0478 -0.0745
  698MOL0     C94157  12.183  10.596   5.126  0.1393 -0.1991  0.5219
  698MOL0     C94158  12.330  10.575   5.078  0.8187  0.5703 -0.3082
  698MOL0     C94159  12.357  10.438   5.048 -0.9110  0.0960 -0.2676
  698MOL0     C94160  12.392  10.327   5.002  0.4190 -0.0906  0.7058
  698MOL0     C94161  11.737  10.383   5.281 -0.2804  0.1994 -0.3253
  698MOL0     C94162  11.606  10.362   5.326 -0.3276 -0.0927 -0.2044
  698MOL0     H94163  11.147  10.517   5.427 -0.4587 -0.3530 -1.3261
  698MOL0     H94164  10.928  10.480   5.519 -0.7758 -1.1579 -1.4139
  698MOL0     H94165  10.822  10.062   5.549 -0.2171  0.4680 -0.9800
  698MOL0     H94166  10.804  10.085   5.729 -0.2462 -3.0987 -0.7645
  698MOL0     H94167  10.591  10.174   5.709  1.8156 -0.5086  1.5318
  698MOL0     H94168  10.595  10.193   5.533 -2.3985  0.4556 -0.1922
  698MOL0     H94169  10.601   9.920   5.672 -1.8403  0.5256  1.6329
  698MOL0     H94170  10.460  10.014   5.627 -0.4063 -1.7494  0.9776
  698MOL0     H94171  10.535   9.993   5.386  2.0430  1.4099 -0.1983
  698MOL0     H94172  10.691   9.921   5.452  0.2106 -0.6437  1.6660
  698MOL0     H94173  10.559   9.727   5.526 -0.1075 -0.1348  0.1424
  698MOL0     H94174  10.415   9.810   5.458 -0.3046 -0.7124 -2.0194
  698MOL0     H94175  10.637   9.671   5.300 -2.2017 -4.8916 -1.6239
  698MOL0     H94176  10.470   9.644   5.311 -0.0382 -0.2028  0.1307
  698MOL0     H94177  10.429   9.882   5.201  0.2668  0.7327  1.8230
  698MOL0     H94178  10.610   9.894   5.192 -0.5166  0.5075 -1.2534
  698MOL0     H94179  10.436   9.712   5.033 -1.8012  1.3882  0.7752
  698MOL0     H94180  10.611   9.695   5.054  0.0053  0.4800 -2.6024
  698MOL0     H94181  10.340   9.878   4.863  0.4461  3.0242  2.5819
  698MOL0     H94182  10.466  10.186   4.731 -1.4243 -0.3960 -0.4194
  698MOL0     H94183  10.523  10.078   4.601  0.9155 -0.9687  0.6689
  698MOL0     H94184  10.277  10.157   4.593 -2.0550 -0.5582 -0.5733
  698MOL0     H94185  10.250  10.071   4.749  3.3071 -0.1432  1.2302
  698MOL0     H94186  10.312   9.861   4.627 -0.6126  0.1638 -1.0308
  698MOL0     H94187  10.317   9.947   4.478 -1.9882 -1.8877 -0.7730
  698MOL0     H94188  10.055   9.928   4.654  1.0258 -0.7461  1.7550
  698MOL0     H94189  10.093   9.843   4.504  1.8491 -2.2698  4.0936
  698MOL0     H94190  10.027  10.285   4.390 -0.6031  0.3807  1.4250
  698MOL0     H94191   9.767  10.479   4.393 -0.7967  1.3315 -1.9220
  698MOL0     H94192   9.887  10.449   4.261 -0.9180  0.7680 -1.4257
  698MOL0     H94193   9.712  10.415   4.248  2.5696 -1.4441 -3.6096
  698MOL0     H94194   9.287  10.215   4.468  3.5921  1.4694 -1.4452
  698MOL0     H94195   9.046  10.231   4.404  0.3779 -0.2089 -0.5490
  698MOL0     H94196   8.859  10.095   4.344 -2.0514  1.8107  1.2519
  698MOL0     H94197   8.800  10.247   4.289 -1.7936 -1.0951  1.0612
  698MOL0     H94198   8.694  10.135   4.084 -0.0438 -2.4750 -1.9562
  698MOL0     H94199   8.740   9.972   4.139  0.8466  0.0055 -0.1460
  698MOL0     H94200   8.570  10.160   4.301  2.2793  1.3179 -1.3350
  698MOL0     H94201   8.646  10.008   4.362  2.1220  1.7211  0.5079
  698MOL0     H94202   8.463  10.024   4.112 -2.1933 -0.2519  0.1607
  698MOL0     H94203   8.529   9.877   4.199  3.4905  0.8559  0.3134
  698MOL0     H94204   8.339  10.097   4.304  2.4990 -0.0839  1.2477
  698MOL0     H94205   8.394   9.961   4.396  3.4716  2.1200 -0.1463
  698MOL0     H94206   8.170   9.913   4.305 -0.1429 -0.0843  0.6372
  698MOL0     H94207   8.196   9.966   4.144 -2.1142 -2.0924  0.3722
  698MOL0     H94208   8.327   9.725   4.278 -1.1807 -3.7835 -0.2166
  698MOL0     H94209   8.339   9.768   4.104  1.0218 -1.9385  0.9190
  698MOL0     H94210   8.115   9.717   4.070  0.2772 -0.5252 -0.5055
  698MOL0     H94211   8.085   9.710   4.247 -0.6457  3.4651 -2.1979
  698MOL0     H94212   9.137  10.038   4.020 -1.7077  0.1847  0.6137
  698MOL0     H94213   9.379  10.034   4.091 -2.3528 -2.1541 -1.0131
  698MOL0     H94214   9.643   9.983   4.452  2.0745 -1.2396 -1.3999
  698MOL0     H94215   9.851   9.917   4.511  1.0419  0.9836  1.7867
  698MOL0     H94216  11.032  10.074   5.608 -2.1496  0.6494  1.8278
  698MOL0     H94217  11.252  10.116   5.522 -1.8816 -1.8633  3.6753
  698MOL0     H94218  11.431  10.511   5.080 -1.6522 -2.2200  1.5306
  698MOL0     H94219  11.668  10.576   4.999  0.8784  0.0991  0.6689
  698MOL0     H94220  11.877  10.577   4.951  2.0098 -1.1126 -0.6631
  698MOL0     H94221  11.936  10.691   5.070 -1.8848 -0.2562 -0.1148
  698MOL0     H94222  12.106  10.634   4.913 -1.9171  0.2940 -1.3472
  698MOL0     H94223  12.096  10.467   4.976 -2.1610  1.1343 -2.2865
  698MOL0     H94224  12.181  10.529   5.212  1.6712  1.0489  1.5838
  698MOL0     H94225  12.170  10.697   5.165 -4.6810  0.6990 -2.5247
  698MOL0     H94226  12.408  10.622   5.139  2.6002 -0.1089 -1.9639
  698MOL0     H94227  12.330  10.633   4.985  0.3188  0.5505 -0.3226
  698MOL0     H94228  12.426  10.236   4.957  0.2696  0.0627  0.2765
  698MOL0     H94229  11.818  10.331   5.331  1.2436  1.6823 -1.1553
  698MOL0     H94230  11.594  10.293   5.410 -0.7211  0.4444  0.1881
  699MOL0     O94231  11.038   3.963   8.659  0.6769 -0.4475  0.0547
  699MOL0     C94232  11.108   3.885   8.590  0.1850 -0.0512 -0.5884
  699MOL0     O94233  11.061   3.778   8.512  0.3752  0.4329  0.2197
  699MOL0     C94234  10.928   3.749   8.542  0.4578 -0.1978  0.2564
  699MOL0     C94235  10.826   3.814   8.478 -0.9500  0.2701 -0.3865
  699MOL0     C94236  10.691   3.794   8.513  1.1348  0.0786 -0.2919
  699MOL0     C94237  10.662   3.697   8.620  0.0094  0.2516  0.4970
  699MOL0     O94238  10.534   3.658   8.647  0.0449  0.8056 -0.0058
  699MOL0     C94239  10.472   3.716   8.758 -0.6934  0.5365 -0.1374
  699MOL0     C94240  10.338   3.657   8.801  0.7254 -0.1146 -0.4027
  699MOL0     C94241  10.216   3.722   8.724 -0.3687 -0.2219  0.5694
  699MOL0     C94242  10.092   3.635   8.741 -0.4536 -0.4457  0.3411
  699MOL0     C94243   9.971   3.725   8.717  1.0021  0.0254 -0.5822
  699MOL0     C94244   9.841   3.641   8.699  0.1032  0.1678  0.2059
  699MOL0     C94245   9.720   3.724   8.657  0.9538 -0.9131 -0.0563
  699MOL0     C94246   9.689   3.829   8.761  0.1742 -0.0783 -0.5556
  699MOL0     N94247   9.558   3.886   8.759 -0.2816 -0.0251  0.3933
  699MOL0     C94248   9.445   3.831   8.814  0.1609  0.3462 -0.0162
  699MOL0     C94249   9.342   3.914   8.780  1.1661 -0.0036  0.0827
  699MOL0     C94250   9.190   3.892   8.812  0.4170  0.2290  0.3935
  699MOL0     C94251   9.100   4.007   8.851 -0.0973  0.1394 -0.0839
  699MOL0     C94252   9.007   4.058   8.748 -0.9605 -0.7304  0.7505
  699MOL0     C94253   8.899   4.156   8.800 -0.7077 -0.6518  0.3272
  699MOL0     O94254   8.790   4.083   8.847 -0.5702 -0.3512  0.1358
  699MOL0     C94255   8.705   4.151   8.925  0.2580  0.6188 -0.7332
  699MOL0     C94256   8.640   4.067   9.017 -0.4480 -0.0275  0.0067
  699MOL0     C94257   8.540   4.123   9.101  0.9028  0.3696  0.6331
  699MOL0     C94258   8.511   4.045   9.233  0.2500 -0.1809 -0.0556
  699MOL0     C94259   8.486   4.249   9.069  0.8031 -0.6850  0.8864
  699MOL0     C94260   8.359   4.310   9.119 -0.8052 -0.2989 -0.3057
  699MOL0     O94261   8.309   4.406   9.040  0.3815 -0.2375  0.4547
  699MOL0     C94262   8.192   4.461   9.083 -0.3920 -0.4285  0.1319
  699MOL0     C94263   8.185   4.545   9.199 -0.2730 -0.0633  1.3401
  699MOL0     C94264   8.066   4.608   9.228  0.0793 -0.2117 -0.0719
  699MOL0     C94265   7.956   4.608   9.143 -0.0322 -0.2084  0.1408
  699MOL0     O94266   7.847   4.671   9.192  0.5208 -0.3120  0.4895
  699MOL0     C94267   7.739   4.670   9.096  0.4288 -0.2299  0.0338
  699MOL0     C94268   7.643   4.773   9.137 -0.3363 -0.3394  1.2590
  699MOL0     C94269   7.531   4.795   9.034 -0.0803 -0.5436 -0.2751
  699MOL0     C94270   7.401   4.701   9.057  0.8177  0.1144 -0.4114
  699MOL0     C94271   7.285   4.719   8.952  1.5022  0.3613  0.1509
  699MOL0     C94272   7.303   4.668   8.812 -0.4724 -0.0061  0.6897
  699MOL0     C94273   7.179   4.613   8.740 -0.1100 -0.3100 -0.2693
  699MOL0     C94274   7.081   4.721   8.691 -0.5164 -0.1421 -0.4408
  699MOL0    Cl94275   6.922   4.644   8.675  0.8025 -0.5164  0.0693
  699MOL0     C94276   7.963   4.524   9.035  0.6542 -0.5101  0.2078
  699MOL0     C94277   8.082   4.456   8.999  0.2024 -1.2165 -0.9887
  699MOL0     O94278   8.307   4.267   9.223  0.6339  0.2357 -0.4801
  699MOL0     C94279   8.562   4.338   8.981 -0.3635  0.3643 -0.1260
  699MOL0     C94280   8.675   4.286   8.918 -0.1302 -0.3469 -0.1836
  699MOL0     N94281   9.399   4.008   8.697 -0.4173 -0.2596 -0.4018
  699MOL0     N94282   9.523   3.988   8.683  0.2633  0.6475  0.2492
  699MOL0     C94283  10.767   3.635   8.682  0.7886  0.4296 -0.3327
  699MOL0     C94284  10.899   3.667   8.649 -0.0151 -0.0336 -0.8840
  699MOL0     C94285  11.252   3.900   8.602 -0.0274 -0.3014 -0.3187
  699MOL0     C94286  11.313   4.014   8.653 -0.2258 -0.3596 -0.2097
  699MOL0     C94287  11.452   4.025   8.673 -0.6144 -0.1585  0.2397
  699MOL0     C94288  11.535   3.924   8.622  0.0081  0.4550  0.1641
  699MOL0     O94289  11.668   3.944   8.645  0.8456  1.2173  0.2052
  699MOL0     C94290  11.775   3.841   8.625 -0.5726  0.4861 -0.5798
  699MOL0     C94291  11.829   3.832   8.476  0.2939  0.1588 -0.1022
  699MOL0     C94292  11.922   3.712   8.464 -0.2804 -0.2591  0.0993
  699MOL0     C94293  11.990   3.715   8.334  1.0619 -0.3085 -0.3240
  699MOL0     C94294  12.057   3.592   8.299  0.4500  0.4125  0.2664
  699MOL0     C94295  12.094   3.480   8.260 -0.2000  0.9132 -0.1061
  699MOL0     C94296  11.478   3.807   8.570  0.0511  0.8332  0.2486
  699MOL0     C94297  11.338   3.794   8.569 -1.0732 -0.1442  0.2855
  699MOL0     H94298  10.843   3.898   8.411  0.5321  0.0479 -0.3368
  699MOL0     H94299  10.618   3.863   8.472 -0.4040 -1.3995 -0.1447
  699MOL0     H94300  10.540   3.721   8.844  0.6611 -0.4675 -1.1013
  699MOL0     H94301  10.462   3.818   8.720 -1.2277  0.1276 -1.1107
  699MOL0     H94302  10.334   3.556   8.759  1.0899  0.9825 -3.2826
  699MOL0     H94303  10.327   3.661   8.910  3.9297  3.0979 -0.0122
  699MOL0     H94304  10.193   3.827   8.748 -2.7450 -0.6059  0.2423
  699MOL0     H94305  10.236   3.718   8.617 -2.2309 -0.2508  0.1843
  699MOL0     H94306  10.085   3.548   8.676 -2.1003 -0.3457  0.3494
  699MOL0     H94307  10.093   3.585   8.839 -0.2352 -3.5954 -1.1647
  699MOL0     H94308   9.959   3.793   8.802 -3.4112 -3.1238  1.7233
  699MOL0     H94309   9.998   3.776   8.624  4.3210  0.2027  0.3520
  699MOL0     H94310   9.869   3.569   8.621  1.1351  3.1799 -2.3935
  699MOL0     H94311   9.809   3.595   8.793 -0.3820 -1.5354 -0.7468
  699MOL0     H94312   9.742   3.757   8.555  2.6804 -1.1717  0.2032
  699MOL0     H94313   9.635   3.656   8.655 -0.2744  0.5741 -0.2067
  699MOL0     H94314   9.758   3.913   8.750 -0.7277  0.7675  0.0856
  699MOL0     H94315   9.697   3.794   8.864 -2.3973  1.5762  0.3049
  699MOL0     H94316   9.462   3.739   8.869  0.9770  0.6965  0.3345
  699MOL0     H94317   9.147   3.853   8.719 -1.9050 -1.3805  2.0468
  699MOL0     H94318   9.180   3.819   8.893 -1.6461  1.8250  1.6831
  699MOL0     H94319   9.157   4.089   8.896  1.1418 -0.4965 -0.4721
  699MOL0     H94320   9.033   3.969   8.929 -0.0054 -1.9500 -0.9757
  699MOL0     H94321   8.959   3.980   8.688 -0.0695  1.0318 -2.4975
  699MOL0     H94322   9.070   4.121   8.684  0.9323  0.1329  3.3113
  699MOL0     H94323   8.861   4.215   8.716  2.8541  0.9727 -0.3318
  699MOL0     H94324   8.937   4.224   8.876 -2.4841  0.0773  0.6137
  699MOL0     H94325   8.674   3.964   9.025 -1.3577 -0.2977  0.5407
  699MOL0     H94326   8.594   3.981   9.264 -0.7772 -1.0754  0.9738
  699MOL0     H94327   8.482   4.117   9.310  1.1596  0.3066 -0.1678
  699MOL0     H94328   8.434   3.968   9.219 -1.3701  1.4163 -0.3393
  699MOL0     H94329   8.266   4.548   9.272 -0.3763 -1.4947  1.5363
  699MOL0     H94330   8.061   4.664   9.320 -0.4024  1.4984 -1.1048
  699MOL0     H94331   7.769   4.705   8.997 -1.1342 -0.5866 -0.5857
  699MOL0     H94332   7.687   4.574   9.094 -1.6276  0.7990  1.1472
  699MOL0     H94333   7.588   4.736   9.224 -1.2173  0.7429  1.1851
  699MOL0     H94334   7.703   4.862   9.156 -0.0606 -0.0115 -0.9205
  699MOL0     H94335   7.575   4.786   8.934  2.0860  0.3059  0.5378
  699MOL0     H94336   7.507   4.902   9.040  0.2953 -0.4839  0.1927
  699MOL0     H94337   7.430   4.595   9.057 -3.0519 -1.1202 -2.4871
  699MOL0     H94338   7.357   4.726   9.154  1.6446  1.0379 -0.2627
  699MOL0     H94339   7.262   4.825   8.957 -0.7352 -0.0734  0.1317
  699MOL0     H94340   7.196   4.670   8.994  0.1532  0.6340 -2.2216
  699MOL0     H94341   7.352   4.741   8.748  1.8166 -2.2188 -0.2323
  699MOL0     H94342   7.365   4.579   8.818 -3.1703 -1.9575  2.4804
  699MOL0     H94343   7.116   4.560   8.812 -0.6455  2.0953  1.1297
  699MOL0     H94344   7.199   4.551   8.652  1.4278 -1.6071  0.9203
  699MOL0     H94345   7.114   4.763   8.595  1.4439 -1.9214 -0.6149
  699MOL0     H94346   7.064   4.802   8.762 -1.8801 -1.0513  0.3049
  699MOL0     H94347   7.886   4.510   8.959  1.5239  1.9785 -1.2468
  699MOL0     H94348   8.085   4.409   8.902 -0.9389  0.1364 -1.7241
  699MOL0     H94349   8.537   4.443   8.971 -2.6647 -0.1544 -0.3762
  699MOL0     H94350   8.734   4.350   8.854  0.0611  0.7828  1.0667
  699MOL0     H94351  10.743   3.556   8.752 -0.9727  0.3855 -0.9261
  699MOL0     H94352  10.980   3.634   8.713 -2.1047  1.2808  2.8158
  699MOL0     H94353  11.255   4.095   8.696  1.2932  2.6448 -3.3063
  699MOL0     H94354  11.488   4.113   8.724 -2.0783 -0.7271  2.3989
  699MOL0     H94355  11.855   3.859   8.698  1.2464  0.0873 -2.4057
  699MOL0     H94356  11.739   3.742   8.652  1.1083  0.3801  1.5608
  699MOL0     H94357  11.888   3.922   8.455 -0.8032  0.6415 -1.2034
  699MOL0     H94358  11.749   3.812   8.405 -2.3067 -0.0638  2.7132
  699MOL0     H94359  11.868   3.617   8.455 -1.3492  0.4632 -1.4708
  699MOL0     H94360  11.992   3.706   8.548 -1.1906 -0.7029  0.8395
  699MOL0     H94361  12.058   3.801   8.332 -2.7528  3.0631  0.6903
  699MOL0     H94362  11.912   3.740   8.262  0.1186 -0.8090  0.5040
  699MOL0     H94363  12.115   3.382   8.224 -1.1263  0.5574  0.2877
  699MOL0     H94364  11.530   3.715   8.544 -2.3474 -0.4598 -0.2187
  699MOL0     H94365  11.308   3.690   8.556  1.1374 -1.0455  1.7777
  700MOL0     O94366   4.230   5.593   0.065 -0.0009  0.2858  0.2450
  700MOL0     C94367   4.294   5.559  -0.033 -0.2684  0.1799 -0.1430
  700MOL0     O94368   4.422   5.603  -0.075  0.2057  0.2701  0.0221
  700MOL0     C94369   4.485   5.694  -0.003 -0.4337  0.2190 -0.3099
  700MOL0     C94370   4.607   5.655   0.060  0.8824 -0.9360  0.9788
  700MOL0     C94371   4.693   5.752   0.116 -0.0642 -0.2769  0.1158
  700MOL0     C94372   4.660   5.885   0.108 -0.6791 -0.2256  0.0804
  700MOL0     O94373   4.746   5.967   0.178  0.2591 -0.1394  0.6899
  700MOL0     C94374   4.715   6.103   0.188 -0.4026 -0.0986 -0.7158
  700MOL0     C94375   4.816   6.175   0.274 -0.2390  0.2103 -0.6784
  700MOL0     C94376   4.803   6.324   0.305  0.4178  0.5264 -0.6203
  700MOL0     C94377   4.662   6.352   0.332 -0.0711 -1.4740  0.2663
  700MOL0     C94378   4.655   6.498   0.383  0.4840  0.3281 -0.2716
  700MOL0     C94379   4.513   6.524   0.440  0.0574 -0.2893 -0.4442
  700MOL0     C94380   4.396   6.495   0.353  0.5857  0.6055 -0.0492
  700MOL0     C94381   4.264   6.523   0.439  0.3591 -0.2996  0.2716
  700MOL0     N94382   4.249   6.655   0.490  0.1123  0.2473 -0.2097
  700MOL0     C94383   4.189   6.767   0.429 -0.2538 -0.2972  0.0464
  700MOL0     C94384   4.217   6.867   0.518  0.6007  0.3693 -0.0237
  700MOL0     C94385   4.155   7.000   0.533 -0.5556  0.0239  0.0058
  700MOL0     C94386   4.018   7.014   0.587  0.4275  0.0898  0.3861
  700MOL0     C94387   3.910   6.995   0.479 -0.0450  0.2273  0.8963
  700MOL0     C94388   3.880   7.122   0.389 -1.1330 -0.0133  0.1409
  700MOL0     O94389   3.836   7.228   0.483  0.3275  0.2459  0.0712
  700MOL0     C94390   3.778   7.340   0.417 -0.0570  0.3731 -0.1754
  700MOL0     C94391   3.654   7.329   0.362  0.9268 -0.8558 -0.8839
  700MOL0     C94392   3.597   7.442   0.298  0.3176 -0.4417 -0.6732
  700MOL0     C94393   3.455   7.441   0.243 -1.8035  0.5155  0.1604
  700MOL0     C94394   3.671   7.563   0.289 -0.3580  0.3289  0.1921
  700MOL0     C94395   3.622   7.681   0.220 -1.2023 -0.1853 -0.0072
  700MOL0     O94396   3.558   7.656   0.097 -0.4523 -0.3545 -0.1565
  700MOL0     C94397   3.521   7.771   0.038  0.5510 -0.2929 -0.5261
  700MOL0     C94398   3.610   7.867  -0.020 -0.8447  1.0702  0.4181
  700MOL0     C94399   3.561   7.952  -0.112 -0.1081 -0.4877  0.0811
  700MOL0     C94400   3.428   7.965  -0.145  0.6874  0.5729  0.5811
  700MOL0     O94401   3.371   8.047  -0.245 -0.1455 -0.1847  0.3854
  700MOL0     C94402   3.438   8.165  -0.281  0.3354 -0.4307  0.0295
  700MOL0     C94403   3.350   8.243  -0.382 -0.6520  0.4182  0.2707
  700MOL0     C94404   3.414   8.366  -0.446 -1.1453  0.5287  0.4738
  700MOL0     C94405   3.517   8.436  -0.357  0.3458 -1.4002 -0.9362
  700MOL0     C94406   3.541   8.577  -0.416 -0.3263 -0.4301  0.7073
  700MOL0     C94407   3.651   8.654  -0.346 -1.4266 -0.0643 -0.2682
  700MOL0     C94408   3.788   8.613  -0.406 -0.4001  0.0715  0.2742
  700MOL0     C94409   3.907   8.682  -0.335  0.2801  0.2538  0.1965
  700MOL0    Cl94410   3.896   8.864  -0.344  0.3682  0.2098 -0.9208
  700MOL0     C94411   3.342   7.874  -0.082 -0.0822  0.7359  0.3171
  700MOL0     C94412   3.383   7.779   0.007 -0.9320 -0.2055 -0.1482
  700MOL0     O94413   3.632   7.786   0.278  0.4275 -0.2958 -0.0463
  700MOL0     C94414   3.794   7.576   0.351  0.0648 -0.5679 -0.4026
  700MOL0     C94415   3.846   7.462   0.420 -0.6226 -0.8662  0.3631
  700MOL0     N94416   4.268   6.809   0.631  0.4861  0.3026  0.3358
  700MOL0     N94417   4.302   6.685   0.611 -0.0571 -0.2712  0.2738
  700MOL0     C94418   4.537   5.925   0.049 -0.1203  0.7709  0.4254
  700MOL0     C94419   4.455   5.825  -0.000 -0.0677 -0.0006 -0.1041
  700MOL0     C94420   4.242   5.454  -0.124 -0.3997 -0.5891  0.3404
  700MOL0     C94421   4.112   5.390  -0.108 -0.3621 -0.3118 -1.0733
  700MOL0     C94422   4.062   5.310  -0.208  0.8593  0.4969 -0.1848
  700MOL0     C94423   4.135   5.271  -0.319 -0.0965 -0.8819  0.1303
  700MOL0     O94424   4.086   5.181  -0.409 -0.7397  0.3871  0.2061
  700MOL0     C94425   4.110   5.219  -0.550  0.1384  0.0554  0.2504
  700MOL0     C94426   3.991   5.182  -0.637 -0.4008  0.1853 -0.1155
  700MOL0     C94427   3.951   5.030  -0.645 -0.4378  0.8734  0.1036
  700MOL0     C94428   4.071   4.941  -0.665 -0.3250  0.8603 -0.5251
  700MOL0     C94429   4.027   4.802  -0.659  0.9471 -0.0189  0.4190
  700MOL0     C94430   3.999   4.683  -0.650 -0.7384  0.1547  0.5880
  700MOL0     C94431   4.261   5.336  -0.333 -0.2010  0.1939  0.3112
  700MOL0     C94432   4.307   5.427  -0.240  0.1895 -0.6678 -0.1437
  700MOL0     H94433   4.634   5.550   0.062  0.4871 -1.1306 -1.5285
  700MOL0     H94434   4.787   5.731   0.166  0.4689  1.4063 -0.1179
  700MOL0     H94435   4.719   6.149   0.088  0.9058 -0.0995 -0.6838
  700MOL0     H94436   4.612   6.116   0.223  0.1805 -0.8804  1.4027
  700MOL0     H94437   4.816   6.118   0.368 -0.4981 -1.9119 -1.9048
  700MOL0     H94438   4.919   6.157   0.241  0.8451  1.3840  1.7740
  700MOL0     H94439   4.868   6.346   0.391 -1.8989  2.2477  0.8068
  700MOL0     H94440   4.844   6.381   0.222  1.3650  1.7263  0.6235
  700MOL0     H94441   4.604   6.356   0.240  2.1058  0.4963 -1.1526
  700MOL0     H94442   4.626   6.274   0.400 -0.1096 -0.5679  1.3353
  700MOL0     H94443   4.736   6.514   0.455  0.0876 -1.0087  0.5023
  700MOL0     H94444   4.677   6.557   0.293 -1.5307  0.2836 -0.8342
  700MOL0     H94445   4.519   6.459   0.528  1.0900 -3.1715 -2.4717
  700MOL0     H94446   4.513   6.630   0.469  3.3642  0.6429 -3.1310
  700MOL0     H94447   4.386   6.558   0.263  0.8638  0.4770 -0.1705
  700MOL0     H94448   4.387   6.389   0.330  1.8828  0.4786 -0.0462
  700MOL0     H94449   4.272   6.451   0.521  0.1303 -0.5690  0.0623
  700MOL0     H94450   4.174   6.502   0.381 -0.4985  1.0220  1.0880
  700MOL0     H94451   4.132   6.773   0.337 -1.1034  0.6291  0.6097
  700MOL0     H94452   4.207   7.061   0.607 -0.5892 -0.5419  0.5027
  700MOL0     H94453   4.164   7.060   0.442  0.6233  1.9033  1.2892
  700MOL0     H94454   4.007   7.116   0.624  0.6103  1.4207 -2.8704
  700MOL0     H94455   3.999   6.936   0.661 -1.7519 -0.3860 -0.5889
  700MOL0     H94456   3.816   6.966   0.526 -1.7582  1.4947 -1.4871
  700MOL0     H94457   3.934   6.907   0.420 -0.1780  0.5249  0.3898
  700MOL0     H94458   3.799   7.091   0.323  0.9823 -0.6835 -2.3316
  700MOL0     H94459   3.962   7.169   0.334 -1.8149  1.6257  0.4656
  700MOL0     H94460   3.597   7.237   0.370  2.7232 -1.8741  1.3444
  700MOL0     H94461   3.395   7.360   0.286 -1.5820 -0.0603 -0.5992
  700MOL0     H94462   3.398   7.533   0.257  3.0187  3.7306  1.3038
  700MOL0     H94463   3.478   7.421   0.138  1.1128  0.5359  0.6964
  700MOL0     H94464   3.717   7.889  -0.012 -0.4755  0.4945 -2.0631
  700MOL0     H94465   3.637   8.015  -0.158  0.1991  0.8795  2.3367
  700MOL0     H94466   3.460   8.219  -0.188  2.2932 -0.7386 -0.2265
  700MOL0     H94467   3.529   8.132  -0.331  0.2914  1.0791 -1.1302
  700MOL0     H94468   3.327   8.172  -0.462 -0.4804 -0.0897  0.6676
  700MOL0     H94469   3.261   8.270  -0.324 -0.9177 -3.3424  1.8530
  700MOL0     H94470   3.337   8.434  -0.482 -1.3075 -0.3478 -0.9141
  700MOL0     H94471   3.465   8.334  -0.538  0.3182 -0.0502  1.4516
  700MOL0     H94472   3.482   8.439  -0.253  2.9034  1.6856  0.0018
  700MOL0     H94473   3.615   8.388  -0.363  1.3035 -0.0093  1.9588
  700MOL0     H94474   3.448   8.633  -0.406 -0.8491 -0.8980 -1.1703
  700MOL0     H94475   3.569   8.568  -0.521 -1.2455  0.8691  0.3382
  700MOL0     H94476   3.619   8.758  -0.358 -1.8296 -0.0209  1.0431
  700MOL0     H94477   3.643   8.635  -0.239 -0.5041 -2.1512 -0.5119
  700MOL0     H94478   3.806   8.652  -0.507  0.3821  0.2944  0.4969
  700MOL0     H94479   3.811   8.507  -0.396 -0.1000  0.1158  0.0687
  700MOL0     H94480   3.999   8.649  -0.382 -0.8216 -3.0811  0.1663
  700MOL0     H94481   3.902   8.651  -0.230 -2.0769 -0.7377 -0.1342
  700MOL0     H94482   3.238   7.878  -0.114 -0.1327 -2.4123 -0.2693
  700MOL0     H94483   3.315   7.699   0.036  0.5320 -1.0213  1.1811
  700MOL0     H94484   3.846   7.671   0.357  1.2165 -0.8780 -3.6369
  700MOL0     H94485   3.940   7.463   0.473  0.3125  2.1892 -1.1100
  700MOL0     H94486   4.503   6.027   0.031 -0.7585  0.1647 -2.1402
  700MOL0     H94487   4.364   5.859  -0.048 -1.1113 -2.4674 -0.0160
  700MOL0     H94488   4.047   5.418  -0.026 -3.1419 -2.0192 -2.5572
  700MOL0     H94489   3.955   5.291  -0.209  0.6578  1.5044 -1.3602
  700MOL0     H94490   4.141   5.323  -0.557 -4.6894  1.7441 -0.0793
  700MOL0     H94491   4.197   5.163  -0.585  2.5427  2.6333  1.7481
  700MOL0     H94492   4.007   5.207  -0.742  0.0811  0.6706  0.0682
  700MOL0     H94493   3.912   5.244  -0.596  0.3029 -0.7816  2.9332
  700MOL0     H94494   3.888   5.022  -0.734 -1.0596  0.5631  0.5646
  700MOL0     H94495   3.890   5.011  -0.557 -0.0785  0.8432  0.3497
  700MOL0     H94496   4.133   4.943  -0.576  1.2504  0.7067 -1.5878
  700MOL0     H94497   4.132   4.966  -0.753  0.3788  1.5876  0.1569
  700MOL0     H94498   3.985   4.577  -0.648  0.7772 -0.2889 -3.1515
  700MOL0     H94499   4.320   5.325  -0.423  1.4096 -0.3560  1.3842
  700MOL0     H94500   4.402   5.475  -0.261  0.1432  0.5595  2.1980
  701MOL0     O94501   2.225   5.635  10.055 -0.3682 -0.4217  0.3782
  701MOL0     C94502   2.175   5.609   9.942 -0.5372  0.6227  0.1018
  701MOL0     O94503   2.044   5.582   9.915  0.3620 -0.3406 -0.1809
  701MOL0     C94504   1.959   5.550  10.018 -0.4732 -0.5256 -0.0744
  701MOL0     C94505   1.989   5.494  10.146  0.9009  0.4247 -0.0435
  701MOL0     C94506   1.891   5.452  10.240  0.1377 -0.9264 -0.7585
  701MOL0     C94507   1.757   5.492  10.213 -0.6606 -0.1967  0.2502
  701MOL0     O94508   1.667   5.465  10.313  0.1628 -0.8022 -0.6171
  701MOL0     C94509   1.544   5.533  10.315 -0.4609 -0.9686  0.5379
  701MOL0     C94510   1.487   5.547  10.460  0.9137  0.9933  0.4829
  701MOL0     C94511   1.352   5.619  10.449  0.4298  0.4271  0.0165
  701MOL0     C94512   1.276   5.611  10.585  0.5698 -0.2002 -0.6773
  701MOL0     C94513   1.126   5.644  10.556 -0.0309  0.4994 -0.1856
  701MOL0     C94514   1.110   5.796  10.546 -0.1182 -0.1637  0.1883
  701MOL0     C94515   0.961   5.829  10.532  0.1320 -0.8531 -0.2291
  701MOL0     C94516   0.953   5.980  10.527  0.2795 -0.0891  0.0470
  701MOL0     N94517   1.026   6.046  10.419  0.6758  1.0960  0.5637
  701MOL0     C94518   1.155   6.096  10.422 -0.1701 -0.3923  0.2069
  701MOL0     C94519   1.175   6.152  10.304 -0.0233 -0.6666 -0.7120
  701MOL0     C94520   1.309   6.193  10.262  0.0261 -0.1391 -0.3796
  701MOL0     C94521   1.355   6.323  10.339  0.5322 -0.7986  0.0389
  701MOL0     C94522   1.499   6.376  10.302 -0.5775  0.0838 -0.2505
  701MOL0     C94523   1.504   6.432  10.158  0.4330  0.3159  0.0425
  701MOL0     O94524   1.456   6.571  10.158  0.0083  0.8433 -0.0965
  701MOL0     C94525   1.367   6.601  10.060  0.3015 -0.4318  0.1122
  701MOL0     C94526   1.413   6.606   9.928  0.8656  0.7087 -0.7920
  701MOL0     C94527   1.328   6.649   9.827 -0.0808 -0.5913  0.2708
  701MOL0     C94528   1.394   6.672   9.690 -0.7273 -0.4203 -0.2037
  701MOL0     C94529   1.192   6.676   9.852  0.0270  0.7927 -0.3631
  701MOL0     C94530   1.090   6.731   9.757 -0.6867  0.3741 -0.0397
  701MOL0     O94531   0.964   6.745   9.816 -0.2093 -0.4329 -0.3880
  701MOL0     C94532   0.856   6.785   9.743 -0.6319 -0.2356  0.0309
  701MOL0     C94533   0.775   6.684   9.690 -0.0376 -0.2094 -1.1141
  701MOL0     C94534   0.664   6.723   9.620 -0.1963  0.3961 -1.2279
  701MOL0     C94535   0.628   6.859   9.605  0.5738 -0.5559 -0.4307
  701MOL0     O94536   0.515   6.887   9.522 -0.8205  0.0654 -0.3551
  701MOL0     C94537   0.461   7.020   9.520 -0.2246 -0.4601  0.4454
  701MOL0     C94538   0.355   7.031   9.410  0.1338  0.8423  1.0032
  701MOL0     C94539   0.235   6.929   9.433  0.1894  0.4860 -0.3994
  701MOL0     C94540   0.128   6.943   9.322  0.6592  0.2813  0.7423
  701MOL0     C94541  -0.004   6.879   9.355 -0.2436 -0.2757 -0.9269
  701MOL0     C94542  -0.106   6.897   9.242 -0.9136 -0.7091  0.1860
  701MOL0     C94543  -0.245   6.876   9.298 -0.9347  0.7879  0.2325
  701MOL0     C94544  -0.349   6.859   9.193  0.0585  0.2524 -0.0578
  701MOL0    Cl94545  -0.315   6.734   9.080 -0.2061  0.2630  0.0257
  701MOL0     C94546   0.703   6.962   9.665 -0.3719  0.2967 -0.5847
  701MOL0     C94547   0.813   6.922   9.739 -0.1117  1.7766  0.4990
  701MOL0     O94548   1.115   6.747   9.640  0.6970 -0.2738  0.8353
  701MOL0     C94549   1.149   6.654   9.984  0.1612 -0.7503  1.3329
  701MOL0     C94550   1.237   6.627  10.086  0.5026  0.2991  0.0779
  701MOL0     N94551   1.066   6.136  10.226 -0.2584 -0.6297  1.0180
  701MOL0     N94552   0.979   6.066  10.292  0.9591 -0.0116  0.4796
  701MOL0     C94553   1.726   5.529  10.081 -0.1888 -0.9996  0.7691
  701MOL0     C94554   1.829   5.557   9.986  0.0174  0.3539  0.4734
  701MOL0     C94555   2.262   5.618   9.825  0.5295 -0.1305  0.4507
  701MOL0     C94556   2.213   5.604   9.696 -0.3483  0.0349  0.0585
  701MOL0     C94557   2.286   5.628   9.579  0.5849 -0.3595 -0.0124
  701MOL0     C94558   2.418   5.663   9.589 -0.0987 -0.1231 -0.0262
  701MOL0     O94559   2.486   5.661   9.470  0.4866 -0.6286 -0.0420
  701MOL0     C94560   2.630   5.674   9.471  0.0036  0.1067 -0.3865
  701MOL0     C94561   2.686   5.624   9.343 -0.7631  0.6736  1.1848
  701MOL0     C94562   2.832   5.677   9.316 -0.0540  0.1023  0.3104
  701MOL0     C94563   2.946   5.615   9.395 -0.3340  0.4626 -0.3860
  701MOL0     C94564   3.067   5.675   9.362 -0.3160 -0.1337 -0.4039
  701MOL0     C94565   3.172   5.725   9.322 -0.0388  0.6691 -0.4287
  701MOL0     C94566   2.477   5.665   9.719  0.8866 -0.1941 -0.6087
  701MOL0     C94567   2.399   5.647   9.836 -0.1510 -0.5269  0.0419
  701MOL0     H94568   2.093   5.487  10.175  1.2788 -0.5258 -1.5072
  701MOL0     H94569   1.912   5.414  10.340  1.3614  0.8139 -0.3167
  701MOL0     H94570   1.549   5.630  10.265 -1.4338 -1.0381  0.2802
  701MOL0     H94571   1.473   5.474  10.255 -1.6947  0.7662  0.2062
  701MOL0     H94572   1.486   5.449  10.508 -0.4841  1.4959  1.5444
  701MOL0     H94573   1.555   5.606  10.523  0.9585 -0.8997  2.2935
  701MOL0     H94574   1.368   5.722  10.415 -0.6995  0.1747 -1.3392
  701MOL0     H94575   1.292   5.569  10.373 -0.9654 -1.4969  2.2568
  701MOL0     H94576   1.281   5.511  10.629  1.2928 -0.7995 -2.0754
  701MOL0     H94577   1.318   5.682  10.657  0.0358 -1.2144  0.6895
  701MOL0     H94578   1.092   5.583  10.472 -0.1947 -0.3539  0.4907
  701MOL0     H94579   1.066   5.605  10.638  1.4437 -0.5918  0.4167
  701MOL0     H94580   1.152   5.850  10.631  2.2724 -0.9766 -0.3989
  701MOL0     H94581   1.161   5.830  10.455 -1.2220 -5.0815 -2.6637
  701MOL0     H94582   0.907   5.796  10.442 -1.5753  0.0873  0.3990
  701MOL0     H94583   0.896   5.806  10.617 -2.0530  0.2914 -1.4875
  701MOL0     H94584   1.000   6.025  10.615  1.8075 -1.2772 -0.1224
  701MOL0     H94585   0.845   5.999  10.523  0.2025 -0.3022  0.8957
  701MOL0     H94586   1.219   6.095  10.509 -1.8996  0.0860  1.5409
  701MOL0     H94587   1.385   6.116  10.274 -0.4655 -0.2983  2.6158
  701MOL0     H94588   1.305   6.212  10.154  3.6730  1.7817 -0.3212
  701MOL0     H94589   1.359   6.299  10.445  1.2662 -0.9093 -0.0063
  701MOL0     H94590   1.285   6.406  10.324 -0.7672 -2.2431 -2.8722
  701MOL0     H94591   1.582   6.305  10.309 -1.2531 -0.7274 -0.1897
  701MOL0     H94592   1.513   6.455  10.376  4.0367  0.2994 -1.0973
  701MOL0     H94593   1.441   6.371  10.094  0.6112 -3.0638  2.8136
  701MOL0     H94594   1.609   6.431  10.127  1.0014  1.9875  1.6864
  701MOL0     H94595   1.516   6.572   9.921  0.5338 -1.1470  1.8074
  701MOL0     H94596   1.503   6.677   9.701 -0.6482 -0.2267 -1.0140
  701MOL0     H94597   1.358   6.602   9.614 -1.5425 -0.2075 -0.0252
  701MOL0     H94598   1.360   6.767   9.648  0.9531 -0.0193 -0.7318
  701MOL0     H94599   0.795   6.582   9.721 -2.0909 -0.5006 -0.6433
  701MOL0     H94600   0.608   6.641   9.575 -0.9512  1.2599 -1.8928
  701MOL0     H94601   0.418   7.045   9.617  1.4942  0.5560  0.9887
  701MOL0     H94602   0.536   7.096   9.494 -0.0405  0.0614  2.3610
  701MOL0     H94603   0.334   7.138   9.397 -0.8481  0.4659 -0.8061
  701MOL0     H94604   0.391   7.008   9.309 -2.1032  1.2841  0.0252
  701MOL0     H94605   0.190   6.954   9.529  2.5152  4.5002 -0.1061
  701MOL0     H94606   0.273   6.827   9.437 -1.6144 -0.1971 -0.1067
  701MOL0     H94607   0.104   7.047   9.301 -1.2210 -0.3931 -0.7621
  701MOL0     H94608   0.169   6.907   9.227  0.1118 -0.1913  0.6830
  701MOL0     H94609  -0.045   6.926   9.445 -1.8882  0.0740 -1.8074
  701MOL0     H94610   0.004   6.777   9.393 -2.9036  0.1271  1.0556
  701MOL0     H94611  -0.106   6.998   9.199 -3.4059 -1.2273 -1.2664
  701MOL0     H94612  -0.089   6.831   9.156 -0.7614  0.1913 -0.4954
  701MOL0     H94613  -0.264   6.950   9.377 -1.0122 -1.4393  2.4228
  701MOL0     H94614  -0.251   6.779   9.348 -3.5965  0.4497 -0.6292
  701MOL0     H94615  -0.369   6.957   9.149 -1.1942  1.8705  3.6490
  701MOL0     H94616  -0.450   6.848   9.234 -1.5645  0.8959 -3.5400
  701MOL0     H94617   0.697   7.070   9.661  1.5100  0.5234  1.0643
  701MOL0     H94618   0.881   6.980   9.802 -3.0307  3.1008  2.6834
  701MOL0     H94619   1.049   6.677  10.020 -0.7715 -0.2842 -1.3293
  701MOL0     H94620   1.193   6.643  10.184 -3.0084  3.8787 -1.7715
  701MOL0     H94621   1.623   5.538  10.050  1.0543  1.1332 -3.5168
  701MOL0     H94622   1.797   5.622   9.906 -2.5100 -0.0330  1.0841
  701MOL0     H94623   2.107   5.585   9.680 -0.7217  3.0853 -1.8856
  701MOL0     H94624   2.250   5.612   9.479  0.8668  2.2345 -0.6090
  701MOL0     H94625   2.658   5.779   9.484  2.2277 -0.0518 -2.8538
  701MOL0     H94626   2.668   5.613   9.554 -1.9899 -1.1488 -0.3424
  701MOL0     H94627   2.627   5.660   9.258  1.3566  1.3097 -0.0862
  701MOL0     H94628   2.678   5.515   9.353 -1.2081  0.6415  0.5551
  701MOL0     H94629   2.825   5.787   9.316  1.2863  0.2155  0.8890
  701MOL0     H94630   2.855   5.656   9.211 -2.2618  0.2603 -0.2494
  701MOL0     H94631   2.961   5.509   9.371  1.2893 -0.1288  2.6874
  701MOL0     H94632   2.920   5.625   9.501 -0.2213  2.2231 -0.5086
  701MOL0     H94633   3.271   5.758   9.299  1.7179 -0.2289  4.6348
  701MOL0     H94634   2.584   5.679   9.736  0.4600  1.6163  0.8175
  701MOL0     H94635   2.450   5.667   9.930 -1.8343 -5.1082  2.2383
  702MOL0     O94636   3.795   8.256   0.776  0.7011 -0.4435 -0.3115
  702MOL0     C94637   3.830   8.293   0.664  0.1677  0.3399  0.5337
  702MOL0     O94638   3.754   8.325   0.556  0.4955  0.6234 -0.1988
  702MOL0     C94639   3.622   8.322   0.575 -0.1175 -0.3957 -0.2370
  702MOL0     C94640   3.547   8.282   0.464  1.1783  0.3160 -0.3624
  702MOL0     C94641   3.404   8.266   0.471  0.0673 -0.3093  0.1710
  702MOL0     C94642   3.333   8.311   0.583  0.1273  0.0617 -0.0872
  702MOL0     O94643   3.202   8.316   0.590  0.1854  0.6751 -0.3992
  702MOL0     C94644   3.114   8.232   0.503  0.0681 -0.3835 -0.1139
  702MOL0     C94645   2.973   8.250   0.558 -0.0274  0.3253 -0.0900
  702MOL0     C94646   2.875   8.161   0.493 -0.3551  0.7348  0.0173
  702MOL0     C94647   2.822   8.220   0.358  0.1547 -0.2397  0.1495
  702MOL0     C94648   2.752   8.103   0.272 -0.1262  0.8621 -0.1330
  702MOL0     C94649   2.853   8.006   0.207  0.3464 -0.5465  0.5649
  702MOL0     C94650   2.794   7.874   0.158  0.3616  0.7608  0.1548
  702MOL0     C94651   2.689   7.878   0.045  0.2431  0.2991  0.6922
  702MOL0     N94652   2.563   7.945   0.069  0.0636  0.8634 -0.1019
  702MOL0     C94653   2.474   7.903   0.160  0.4614  0.3710  0.3003
  702MOL0     C94654   2.353   7.962   0.126  0.1050 -0.0294  0.1179
  702MOL0     C94655   2.221   7.943   0.199  0.2418 -0.2034  0.1182
  702MOL0     C94656   2.151   7.817   0.171 -0.0889 -0.1696  1.2954
  702MOL0     C94657   2.038   7.802   0.272  0.7054  0.3666  0.0836
  702MOL0     C94658   2.074   7.764   0.416  0.0502  0.5005  0.1919
  702MOL0     O94659   1.970   7.690   0.484  0.3524 -0.6123  0.2696
  702MOL0     C94660   1.848   7.753   0.517  0.4814 -0.1414  0.8098
  702MOL0     C94661   1.824   7.889   0.504 -0.7649  0.0416 -0.8501
  702MOL0     C94662   1.705   7.944   0.559 -0.2779  0.1813 -0.8228
  702MOL0     C94663   1.702   8.094   0.566 -0.5618  0.0655  0.3968
  702MOL0     C94664   1.597   7.865   0.602 -0.2609 -0.7648  0.3095
  702MOL0     C94665   1.447   7.906   0.625  1.0010 -0.2014  0.7111
  702MOL0     O94666   1.360   7.801   0.663  0.3872 -0.3077  0.1424
  702MOL0     C94667   1.236   7.820   0.728  0.5766  1.0388 -0.4340
  702MOL0     C94668   1.195   7.933   0.809 -0.9690  0.5030  0.4177
  702MOL0     C94669   1.069   7.929   0.870  0.4203 -0.1647  0.8116
  702MOL0     C94670   0.976   7.827   0.843 -0.4162 -0.4671 -0.0321
  702MOL0     O94671   0.852   7.840   0.906  0.2574  0.2165  0.5217
  702MOL0     C94672   0.783   7.960   0.873 -0.2650  0.4475  0.3329
  702MOL0     C94673   0.652   7.931   0.802  0.6982 -0.4105  0.8075
  702MOL0     C94674   0.525   7.868   0.877 -0.0462  0.0831 -0.1137
  702MOL0     C94675   0.452   7.978   0.945 -0.0420 -0.3063  0.3251
  702MOL0     C94676   0.337   8.043   0.868  0.0926 -0.5323  0.5199
  702MOL0     C94677   0.256   8.140   0.948  0.3998  0.0514 -0.5288
  702MOL0     C94678   0.134   8.160   0.865  0.6659 -0.2770  0.0052
  702MOL0     C94679   0.049   8.269   0.908 -0.2358 -0.5976  0.4910
  702MOL0    Cl94680  -0.089   8.282   0.789  0.2056  0.5001 -0.1030
  702MOL0     C94681   1.017   7.727   0.761 -0.1460  0.7851 -0.1632
  702MOL0     C94682   1.142   7.717   0.696 -0.2189  0.4733 -0.4216
  702MOL0     O94683   1.414   8.015   0.584 -0.2724 -0.1635 -0.5197
  702MOL0     C94684   1.628   7.731   0.619  0.6794  0.2545 -0.1797
  702MOL0     C94685   1.748   7.671   0.581  0.1062 -0.0403 -0.1950
  702MOL0     N94686   2.378   8.045   0.016 -0.1622 -0.5472  0.0337
  702MOL0     N94687   2.503   8.031  -0.019 -0.4925  0.5701  0.2655
  702MOL0     C94688   3.413   8.344   0.696 -0.2657 -0.4217  0.0067
  702MOL0     C94689   3.555   8.349   0.696  0.4173 -0.6091 -0.2429
  702MOL0     C94690   3.979   8.308   0.658  0.3789 -0.1427 -0.9260
  702MOL0     C94691   4.070   8.303   0.772  0.2621  0.6969 -0.0673
  702MOL0     C94692   4.204   8.332   0.759 -0.1927  0.2388 -0.1778
  702MOL0     C94693   4.258   8.373   0.632  0.2926  0.4591 -0.4979
  702MOL0     O94694   4.394   8.388   0.628 -0.4388  0.9197  0.4551
  702MOL0     C94695   4.456   8.427   0.506 -0.6180  0.6832  0.1348
  702MOL0     C94696   4.609   8.412   0.528  0.1705 -0.8854  0.0877
  702MOL0     C94697   4.671   8.272   0.551  0.0442 -0.1120  0.4327
  702MOL0     C94698   4.828   8.271   0.569 -0.5976  0.1632 -1.3096
  702MOL0     C94699   4.879   8.136   0.545  0.1171 -0.1072  0.2629
  702MOL0     C94700   4.915   8.019   0.525 -0.5598  0.1377 -0.5074
  702MOL0     C94701   4.176   8.390   0.529  0.8191  0.1852 -0.0356
  702MOL0     C94702   4.041   8.360   0.543 -1.0200  0.6308 -0.8737
  702MOL0     H94703   3.604   8.266   0.373  0.1460  0.0406 -0.9737
  702MOL0     H94704   3.349   8.239   0.382  1.9250 -0.1596 -1.0817
  702MOL0     H94705   3.123   8.263   0.398  1.0763 -2.5810 -0.7497
  702MOL0     H94706   3.139   8.126   0.516 -2.0825 -0.6742  2.5952
  702MOL0     H94707   2.964   8.233   0.665  1.2013  2.0809  0.3428
  702MOL0     H94708   2.953   8.357   0.548 -1.3572  0.3609  2.2827
  702MOL0     H94709   2.921   8.062   0.481 -1.0482  0.6640 -2.8664
  702MOL0     H94710   2.796   8.166   0.568  0.4987  4.3636  0.8469
  702MOL0     H94711   2.742   8.293   0.374 -0.0331 -0.5821  0.7814
  702MOL0     H94712   2.901   8.263   0.296  0.1401  0.7085  0.7801
  702MOL0     H94713   2.685   8.038   0.328 -2.2267  1.1219 -2.2067
  702MOL0     H94714   2.688   8.157   0.202 -1.6658  2.2872  2.2159
  702MOL0     H94715   2.897   8.064   0.126  0.1624 -1.2049 -0.0173
  702MOL0     H94716   2.927   7.984   0.284 -1.1067  1.4215  2.6606
  702MOL0     H94717   2.867   7.800   0.125  0.1888 -0.0185  1.4288
  702MOL0     H94718   2.739   7.835   0.245 -2.3408  1.7089 -1.0024
  702MOL0     H94719   2.653   7.779   0.016 -2.2946 -0.2613  4.8835
  702MOL0     H94720   2.737   7.924  -0.042 -0.2635  2.7759  1.6465
  702MOL0     H94721   2.487   7.828   0.237 -0.8860 -1.3944 -1.1071
  702MOL0     H94722   2.240   7.941   0.307 -0.0767  0.1703  0.1835
  702MOL0     H94723   2.150   8.022   0.174  2.0941  1.6863  0.4496
  702MOL0     H94724   2.217   7.734   0.197 -2.6819 -2.1413  2.1227
  702MOL0     H94725   2.121   7.803   0.067  2.0294 -2.7534  0.9347
  702MOL0     H94726   1.984   7.714   0.234  0.4389 -0.0290  1.3314
  702MOL0     H94727   1.963   7.881   0.267 -1.9341 -1.8258  1.9469
  702MOL0     H94728   2.116   7.847   0.472 -0.5982  0.4056  0.8294
  702MOL0     H94729   2.159   7.696   0.419 -0.8852 -0.6781  1.8278
  702MOL0     H94730   1.905   7.949   0.461  2.3045 -0.4092  3.5624
  702MOL0     H94731   1.806   8.127   0.557 -0.4853  1.4337  4.3989
  702MOL0     H94732   1.639   8.135   0.487  0.6295  1.8172  0.3064
  702MOL0     H94733   1.673   8.133   0.664  0.7360  3.7887 -0.5144
  702MOL0     H94734   1.270   8.009   0.829  0.7057 -1.3026  1.3714
  702MOL0     H94735   1.040   8.010   0.938 -1.3592 -1.2654  1.4332
  702MOL0     H94736   0.764   8.018   0.964  0.1799  2.8538 -1.0288
  702MOL0     H94737   0.846   8.024   0.810 -1.1700  0.7705 -0.2655
  702MOL0     H94738   0.625   8.019   0.744  0.9008  0.4761  2.0239
  702MOL0     H94739   0.675   7.856   0.725  1.0469 -0.5005  0.9989
  702MOL0     H94740   0.560   7.789   0.945 -4.3194 -1.6634  0.3509
  702MOL0     H94741   0.458   7.817   0.806  1.4717  1.3686 -2.6437
  702MOL0     H94742   0.417   7.939   1.041  0.9097  2.2794  1.8182
  702MOL0     H94743   0.531   8.051   0.966  0.3874 -0.7105  0.1519
  702MOL0     H94744   0.274   7.964   0.825  2.3183 -2.8308  1.1731
  702MOL0     H94745   0.379   8.097   0.782 -3.1227  0.4302 -0.5741
  702MOL0     H94746   0.226   8.098   1.044  0.0187 -0.8172 -1.0102
  702MOL0     H94747   0.316   8.230   0.961  2.0421 -1.2977  2.0191
  702MOL0     H94748   0.087   8.062   0.870  2.2933 -1.0549  0.8971
  702MOL0     H94749   0.162   8.171   0.760 -0.6561  1.9548 -0.1847
  702MOL0     H94750   0.107   8.362   0.904 -1.0529 -0.0063  1.7604
  702MOL0     H94751   0.027   8.254   1.014  1.1124 -1.8423  0.6227
  702MOL0     H94752   0.944   7.648   0.752 -0.0198  0.5568  0.7450
  702MOL0     H94753   1.177   7.639   0.630 -0.6599  0.8627 -1.1390
  702MOL0     H94754   1.560   7.660   0.665  1.5413 -0.1155  0.5594
  702MOL0     H94755   1.769   7.566   0.601  0.4835  0.5604  3.2814
  702MOL0     H94756   3.359   8.377   0.784 -2.5214  3.3806 -2.5075
  702MOL0     H94757   3.600   8.383   0.789  0.5802  2.5137 -1.3449
  702MOL0     H94758   4.033   8.273   0.870 -2.9487 -4.1203 -2.3570
  702MOL0     H94759   4.265   8.302   0.844 -2.5937 -1.1031  1.1876
  702MOL0     H94760   4.418   8.366   0.423 -0.7919 -0.4852  1.0568
  702MOL0     H94761   4.438   8.529   0.472 -0.0406  0.7459  0.0110
  702MOL0     H94762   4.637   8.479   0.610  0.1735 -1.9296  0.9713
  702MOL0     H94763   4.661   8.451   0.441 -1.1853 -1.8479 -1.2081
  702MOL0     H94764   4.656   8.205   0.465  4.0851 -0.2997 -0.3240
  702MOL0     H94765   4.634   8.232   0.646  3.0469  1.5541  2.4788
  702MOL0     H94766   4.862   8.300   0.669 -1.5597 -0.1629 -0.8760
  702MOL0     H94767   4.878   8.341   0.502  0.0791 -1.5423 -2.6669
  702MOL0     H94768   4.952   7.922   0.497 -1.7350 -0.7906  1.0223
  702MOL0     H94769   4.205   8.406   0.426 -2.5885 -0.7925 -1.2827
  702MOL0     H94770   3.976   8.371   0.456  1.4836  0.7639 -2.8405
  703MOL0     O94771   2.089   7.478   3.957 -0.2500 -0.8709 -0.0734
  703MOL0     C94772   2.172   7.391   3.936 -0.0466 -0.3545 -0.3538
  703MOL0     O94773   2.190   7.319   3.821  0.2908  0.1826 -0.4557
  703MOL0     C94774   2.092   7.330   3.727 -0.1448  0.2392  0.6464
  703MOL0     C94775   2.058   7.442   3.650  0.0054 -0.1054  0.2203
  703MOL0     C94776   1.961   7.447   3.547  0.8071  0.8926 -0.6081
  703MOL0     C94777   1.902   7.326   3.509  0.8128 -0.0751 -0.9373
  703MOL0     O94778   1.810   7.330   3.403 -0.9521  0.9113  0.0601
  703MOL0     C94779   1.758   7.202   3.358 -0.7889  0.0786  0.2792
  703MOL0     C94780   1.636   7.225   3.272 -0.1182 -0.0218  0.2734
  703MOL0     C94781   1.577   7.096   3.225 -0.8737  0.0895 -1.0124
  703MOL0     C94782   1.469   7.109   3.109  1.1438 -0.8455 -0.8942
  703MOL0     C94783   1.352   7.202   3.153  0.1391 -0.0838  0.0931
  703MOL0     C94784   1.249   7.236   3.042 -0.2143 -0.2253 -0.6106
  703MOL0     C94785   1.189   7.108   2.989 -0.3830  0.4165 -0.4155
  703MOL0     C94786   1.064   7.131   2.907  0.1132 -0.1591  0.0439
  703MOL0     N94787   0.941   7.090   2.972 -0.2161 -0.2003 -0.4738
  703MOL0     C94788   0.903   7.126   3.100  0.2811 -0.2450  0.9380
  703MOL0     C94789   0.774   7.076   3.113  0.1551  1.0978  0.0340
  703MOL0     C94790   0.680   7.094   3.231  0.7839  0.7712  0.4222
  703MOL0     C94791   0.591   7.213   3.193  0.3735 -0.6788 -0.8979
  703MOL0     C94792   0.512   7.273   3.313 -0.2967  0.8866 -0.4727
  703MOL0     C94793   0.414   7.390   3.266 -0.3811  1.5149 -0.1902
  703MOL0     O94794   0.350   7.450   3.379  0.6707 -0.2557  0.0831
  703MOL0     C94795   0.240   7.524   3.338  0.2053  0.3608  0.5868
  703MOL0     C94796   0.121   7.450   3.329  0.4729  0.6852  0.0221
  703MOL0     C94797  -0.001   7.523   3.290  0.0984  0.0158  0.2157
  703MOL0     C94798  -0.131   7.449   3.291  0.0672  0.2784  0.0023
  703MOL0     C94799   0.002   7.663   3.268 -0.0399 -0.8643  0.2378
  703MOL0     C94800  -0.099   7.749   3.203 -0.1562  0.1970  0.3260
  703MOL0     O94801  -0.053   7.839   3.117  0.0416  0.1822 -0.3950
  703MOL0     C94802  -0.151   7.910   3.045  0.3313 -0.2191  0.6002
  703MOL0     C94803  -0.215   7.857   2.923  0.2937 -0.2183 -0.1922
  703MOL0     C94804  -0.312   7.932   2.855  0.2258 -1.1003  0.0971
  703MOL0     C94805  -0.344   8.062   2.897  0.8907  0.5987 -0.5076
  703MOL0     O94806  -0.410   8.155   2.821 -0.3721 -0.3864  0.3270
  703MOL0     C94807  -0.480   8.115   2.703 -0.4573  0.3141 -0.0615
  703MOL0     C94808  -0.560   8.219   2.636  0.4658 -0.5020  0.3838
  703MOL0     C94809  -0.655   8.294   2.725 -0.7263 -0.5263  0.0807
  703MOL0     C94810  -0.747   8.203   2.821 -0.4473 -0.1613 -0.1329
  703MOL0     C94811  -0.861   8.266   2.894  0.2084 -1.4454  0.3641
  703MOL0     C94812  -0.983   8.316   2.809 -0.5898 -0.3489  0.5336
  703MOL0     C94813  -1.034   8.194   2.716 -0.1675 -0.8767  0.1298
  703MOL0     C94814  -1.174   8.237   2.653 -0.2419  0.2491 -0.2961
  703MOL0    Cl94815  -1.145   8.367   2.520  0.1487  0.0708 -0.4671
  703MOL0     C94816  -0.294   8.103   3.014 -0.3830 -0.1411  0.0919
  703MOL0     C94817  -0.195   8.032   3.088  0.6446  0.1764  0.4650
  703MOL0     O94818  -0.211   7.740   3.236  0.4655 -0.2592  0.2230
  703MOL0     C94819   0.133   7.717   3.266 -0.1877 -0.9352  0.1007
  703MOL0     C94820   0.243   7.659   3.311  0.0759 -0.0441  1.0974
  703MOL0     N94821   0.750   7.002   2.999  0.1293 -0.4431 -0.0360
  703MOL0     N94822   0.845   7.013   2.919  0.2989 -0.1701  0.1937
  703MOL0     C94823   1.935   7.207   3.588  0.8588  0.0416 -0.8131
  703MOL0     C94824   2.023   7.211   3.698 -0.0369 -0.1928 -0.2281
  703MOL0     C94825   2.277   7.364   4.035 -0.0393 -0.6198  0.1536
  703MOL0     C94826   2.262   7.379   4.175 -0.1301 -0.3371 -0.8416
  703MOL0     C94827   2.372   7.342   4.253  0.5779  0.6661 -0.6841
  703MOL0     C94828   2.493   7.292   4.204  0.3794 -0.1774 -0.4301
  703MOL0     O94829   2.593   7.250   4.292  0.2320 -0.6652  0.2490
  703MOL0     C94830   2.718   7.209   4.245  0.6255  0.6745  0.2592
  703MOL0     C94831   2.811   7.157   4.350 -0.5453 -0.9717  0.4454
  703MOL0     C94832   2.951   7.120   4.284  1.4459 -0.4285 -0.3952
  703MOL0     C94833   3.055   7.080   4.386 -0.4112 -0.2774  0.4836
  703MOL0     C94834   3.033   6.941   4.422 -0.9079  1.0564  0.4373
  703MOL0     C94835   3.016   6.821   4.446  0.3777 -0.0011  0.4377
  703MOL0     C94836   2.513   7.306   4.061 -0.5415 -0.2610 -0.1448
  703MOL0     C94837   2.408   7.350   3.982 -0.4544  0.4511 -0.0636
  703MOL0     H94838   2.117   7.530   3.673  0.2520  0.1343 -1.2082
  703MOL0     H94839   1.925   7.533   3.492 -0.1287 -0.0550 -1.5376
  703MOL0     H94840   1.842   7.154   3.307 -0.9033 -0.1693  0.3230
  703MOL0     H94841   1.724   7.139   3.441  3.9380 -2.5036  0.6044
  703MOL0     H94842   1.551   7.268   3.326 -0.0650 -0.9830  1.1604
  703MOL0     H94843   1.682   7.291   3.199  2.7455 -2.1200 -0.0324
  703MOL0     H94844   1.653   7.033   3.177  1.2974  0.8745  1.1772
  703MOL0     H94845   1.532   7.031   3.301  0.7141 -1.2762 -1.1789
  703MOL0     H94846   1.519   7.154   3.023  0.4263  1.9023  0.0217
  703MOL0     H94847   1.427   7.011   3.085  2.1926 -0.9276 -2.5408
  703MOL0     H94848   1.297   7.156   3.236  0.7594  0.5586  0.8657
  703MOL0     H94849   1.398   7.288   3.202  3.0170 -2.3051  1.6184
  703MOL0     H94850   1.171   7.297   3.087  0.4097  0.0184  0.1636
  703MOL0     H94851   1.297   7.298   2.966 -0.0244  1.3930  0.7677
  703MOL0     H94852   1.270   7.079   2.922 -0.1299 -2.1590  0.8684
  703MOL0     H94853   1.184   7.023   3.058  2.2872 -1.3962 -2.2670
  703MOL0     H94854   1.073   7.066   2.820  1.3258 -2.7342  1.9841
  703MOL0     H94855   1.054   7.238   2.883  1.8563  0.1806  0.6806
  703MOL0     H94856   0.950   7.201   3.162 -1.6104 -0.3138  2.5732
  703MOL0     H94857   0.626   7.000   3.248 -0.8157  1.3680 -1.0817
  703MOL0     H94858   0.736   7.116   3.323 -0.3759 -0.1399  1.3900
  703MOL0     H94859   0.528   7.169   3.116 -0.2947 -0.4977 -0.4609
  703MOL0     H94860   0.657   7.290   3.152  2.1184 -1.5960  0.0408
  703MOL0     H94861   0.593   7.300   3.382  2.2918 -1.7386 -2.2289
  703MOL0     H94862   0.454   7.197   3.365  0.4382 -1.2534 -2.5954
  703MOL0     H94863   0.344   7.343   3.196  1.5752 -0.2746 -1.0599
  703MOL0     H94864   0.467   7.464   3.207  1.2567  0.2788 -0.3313
  703MOL0     H94865   0.123   7.344   3.355  0.3590  0.6336 -0.1799
  703MOL0     H94866  -0.200   7.491   3.217  2.0640  1.9054 -1.0280
  703MOL0     H94867  -0.122   7.340   3.278 -4.4184 -0.2244 -0.3982
  703MOL0     H94868  -0.182   7.451   3.388 -0.2818 -1.0301 -0.1232
  703MOL0     H94869  -0.188   7.759   2.884  0.5349 -0.5173  0.6980
  703MOL0     H94870  -0.345   7.892   2.759 -1.3963 -1.0576  0.6089
  703MOL0     H94871  -0.412   8.090   2.621 -3.3948 -0.8274 -2.3337
  703MOL0     H94872  -0.544   8.029   2.723 -0.3463  0.8651  3.1536
  703MOL0     H94873  -0.497   8.287   2.578 -1.7130  1.1097 -0.2276
  703MOL0     H94874  -0.610   8.169   2.552 -0.4517 -2.1497  1.8482
  703MOL0     H94875  -0.729   8.337   2.657  0.2755 -0.9581 -1.3228
  703MOL0     H94876  -0.597   8.380   2.761 -0.9300  0.7166 -2.3915
  703MOL0     H94877  -0.785   8.118   2.763 -1.0837  0.3301 -0.4404
  703MOL0     H94878  -0.671   8.175   2.895  1.6218  2.6152 -1.0371
  703MOL0     H94879  -0.818   8.356   2.938  1.2221 -2.0257  0.5947
  703MOL0     H94880  -0.902   8.199   2.970 -3.4646  0.8411  0.6164
  703MOL0     H94881  -1.074   8.337   2.866 -2.1660 -1.6542 -1.3436
  703MOL0     H94882  -0.956   8.397   2.740 -1.3120 -1.2907 -0.9184
  703MOL0     H94883  -1.055   8.105   2.777 -2.1629  1.0214  2.4347
  703MOL0     H94884  -0.963   8.161   2.640 -0.7328 -3.7887  0.7542
  703MOL0     H94885  -1.250   8.265   2.726 -1.1535 -2.1151 -0.2354
  703MOL0     H94886  -1.211   8.146   2.605  1.7298  0.3240 -2.1328
  703MOL0     H94887  -0.322   8.203   3.047 -0.4604  0.5344 -1.8784
  703MOL0     H94888  -0.150   8.074   3.178 -0.3693 -0.2857  1.2047
  703MOL0     H94889   0.143   7.824   3.247  2.4815 -1.1279 -0.0054
  703MOL0     H94890   0.337   7.715   3.315  1.8197 -2.5915 -1.1606
  703MOL0     H94891   1.893   7.108   3.574 -0.3074  0.2328  1.0848
  703MOL0     H94892   2.055   7.120   3.749 -0.1086 -0.8177 -1.2591
  703MOL0     H94893   2.166   7.404   4.218  1.2413  0.0785  2.2570
  703MOL0     H94894   2.369   7.346   4.361  1.7853 -0.2195 -0.6038
  703MOL0     H94895   2.705   7.129   4.171  1.9383  0.4977  0.1984
  703MOL0     H94896   2.771   7.292   4.198  0.2998  0.2770 -0.8427
  703MOL0     H94897   2.768   7.075   4.408 -0.8272 -0.1073  1.4959
  703MOL0     H94898   2.836   7.239   4.418  1.4009  0.4234 -1.8061
  703MOL0     H94899   2.993   7.202   4.225  0.9805 -0.4641 -0.7864
  703MOL0     H94900   2.930   7.042   4.210  1.5757  1.5574 -2.6425
  703MOL0     H94901   3.059   7.137   4.479  0.9340  0.7770 -0.2014
  703MOL0     H94902   3.153   7.081   4.338 -0.6291 -0.9221 -0.0052
  703MOL0     H94903   2.998   6.716   4.434  0.0642  0.3214 -3.4557
  703MOL0     H94904   2.613   7.291   4.020 -0.3155  2.5565 -0.8059
  703MOL0     H94905   2.434   7.355   3.877  1.9125 -2.2562  0.2863
  704MOL0     O94906   6.944   9.839   5.863 -0.7268  0.1805 -0.3427
  704MOL0     C94907   6.950   9.956   5.823  0.4999  0.3329  0.9902
  704MOL0     O94908   6.840  10.035   5.806 -0.4205 -0.0591 -0.1862
  704MOL0     C94909   6.726   9.982   5.856 -0.3692  0.2350  0.3018
  704MOL0     C94910   6.684   9.994   5.995 -0.5507  0.5855  0.6968
  704MOL0     C94911   6.559   9.950   6.028 -0.4444  0.6867  0.4049
  704MOL0     C94912   6.473   9.886   5.933 -0.3028 -0.1134  0.4246
  704MOL0     O94913   6.356   9.833   5.952 -0.0957  0.2709  0.5895
  704MOL0     C94914   6.315   9.799   6.081 -0.0516 -0.0251  0.5497
  704MOL0     C94915   6.205   9.694   6.076 -0.7003 -0.8003  0.0690
  704MOL0     C94916   6.060   9.750   6.070 -0.4788  0.4498 -0.4428
  704MOL0     C94917   6.052   9.872   5.982 -0.4131  0.1796  0.6133
  704MOL0     C94918   5.908   9.921   5.965  0.2035 -0.8400  0.6391
  704MOL0     C94919   5.899  10.001   5.839  0.7179 -0.2226  0.6139
  704MOL0     C94920   5.768  10.089   5.838 -0.6878 -0.3755  0.0262
  704MOL0     C94921   5.763  10.168   5.703  0.3515 -0.2012 -0.5799
  704MOL0     N94922   5.713  10.092   5.588 -0.0416  0.2814 -0.9028
  704MOL0     C94923   5.620  10.146   5.508 -0.3860  0.3766  0.1589
  704MOL0     C94924   5.613  10.070   5.393 -0.4516 -0.0331 -0.0095
  704MOL0     C94925   5.510  10.087   5.274 -0.4532  0.0647 -0.2176
  704MOL0     C94926   5.530  10.226   5.204 -0.2118  0.4923  0.4039
  704MOL0     C94927   5.424  10.255   5.095  0.1239  0.0810 -0.3921
  704MOL0     C94928   5.430  10.393   5.025  0.5749 -0.7886 -0.3946
  704MOL0     O94929   5.298  10.437   4.982  0.7280 -0.2657 -0.2590
  704MOL0     C94930   5.195  10.466   5.081 -0.7069 -0.2310  0.8322
  704MOL0     C94931   5.220  10.482   5.216 -0.4491  0.3793  0.0239
  704MOL0     C94932   5.120  10.541   5.291  0.6394  0.3736 -0.3819
  704MOL0     C94933   5.143  10.565   5.440  0.2866 -0.1523 -0.0672
  704MOL0     C94934   4.996  10.558   5.242  0.2933  0.5440  0.3271
  704MOL0     C94935   4.887  10.590   5.315  0.5246  0.0600  0.5582
  704MOL0     O94936   4.787  10.496   5.330 -0.1413 -0.5260 -0.1392
  704MOL0     C94937   4.672  10.514   5.405 -0.5045 -0.9081 -0.3416
  704MOL0     C94938   4.654  10.452   5.528 -0.3510 -0.2171 -0.5371
  704MOL0     C94939   4.536  10.475   5.602 -1.3043  0.1037  0.2203
  704MOL0     C94940   4.430  10.556   5.555 -0.8282 -0.3812  0.0647
  704MOL0     O94941   4.322  10.581   5.638 -0.0341 -0.5755 -0.5343
  704MOL0     C94942   4.221  10.670   5.593  0.5472  0.5883  0.0410
  704MOL0     C94943   4.108  10.663   5.695 -0.9794 -0.0690  0.0373
  704MOL0     C94944   3.985  10.751   5.651 -0.5010 -0.3166 -0.0914
  704MOL0     C94945   3.864  10.670   5.585 -0.0081 -1.0743  0.2323
  704MOL0     C94946   3.776  10.757   5.498 -0.8349 -1.0550 -0.4719
  704MOL0     C94947   3.845  10.791   5.366 -0.1502 -0.0662  0.1954
  704MOL0     C94948   3.752  10.875   5.278  1.0510  0.2818 -0.9962
  704MOL0     C94949   3.826  10.963   5.175 -0.7782  0.3269  0.1179
  704MOL0    Cl94950   3.924  11.083   5.270  0.3170  0.2415  0.0257
  704MOL0     C94951   4.444  10.605   5.417  0.5109 -0.7129  0.5678
  704MOL0     C94952   4.562  10.579   5.341  0.8123 -0.6857 -0.3412
  704MOL0     O94953   4.878  10.711   5.351  0.3549  0.8087 -0.2231
  704MOL0     C94954   4.972  10.534   5.107 -0.2682  0.5069 -0.9566
  704MOL0     C94955   5.074  10.496   5.023 -0.3262 -0.1694  0.2866
  704MOL0     N94956   5.700   9.963   5.418  0.5220  0.2740 -0.2761
  704MOL0     N94957   5.762   9.980   5.533 -0.7559  0.5437 -0.0521
  704MOL0     C94958   6.518   9.878   5.800  0.1335 -0.1133  0.0939
  704MOL0     C94959   6.638   9.923   5.757  0.1293 -0.0382 -0.1085
  704MOL0     C94960   7.077  10.012   5.773  0.5537 -0.6175 -0.4858
  704MOL0     C94961   7.200   9.970   5.821  0.9851 -0.7028 -0.1559
  704MOL0     C94962   7.319  10.006   5.758  1.2737 -1.2034 -0.3414
  704MOL0     C94963   7.317  10.100   5.657 -0.1260 -0.7905  0.1742
  704MOL0     O94964   7.434  10.128   5.584 -1.0664  0.0502 -0.6049
  704MOL0     C94965   7.504  10.243   5.641 -0.1152 -0.6385  0.1474
  704MOL0     C94966   7.610  10.217   5.745 -0.1426 -0.1665  0.7896
  704MOL0     C94967   7.652  10.347   5.817  0.7901  0.2039  0.6913
  704MOL0     C94968   7.762  10.437   5.747 -0.0924  0.3765 -0.5031
  704MOL0     C94969   7.710  10.530   5.649 -0.5086  0.2379 -0.0803
  704MOL0     C94970   7.689  10.626   5.579 -0.2952 -0.5652  0.5904
  704MOL0     C94971   7.191  10.165   5.625 -0.1447  1.1310 -0.6462
  704MOL0     C94972   7.074  10.114   5.677  0.6989  0.2946 -0.0003
  704MOL0     H94973   6.735  10.049   6.074 -0.4983 -0.9713  1.8049
  704MOL0     H94974   6.525   9.950   6.131 -2.4657 -1.0113 -0.1817
  704MOL0     H94975   6.404   9.759   6.129  0.5566  0.0425 -0.4864
  704MOL0     H94976   6.286   9.880   6.149 -1.0797  0.0328  0.0711
  704MOL0     H94977   6.231   9.647   5.981  1.4052 -0.2143  0.3035
  704MOL0     H94978   6.205   9.622   6.158  2.3706  0.1945  1.0774
  704MOL0     H94979   5.992   9.670   6.038 -1.8744  1.2036  0.5771
  704MOL0     H94980   6.025   9.767   6.172  1.7513 -1.4319  0.7361
  704MOL0     H94981   6.130   9.946   5.996  0.6041 -0.3535 -1.7695
  704MOL0     H94982   6.077   9.828   5.886 -1.1805 -1.8064  1.2606
  704MOL0     H94983   5.835   9.839   5.972 -4.4877  2.8705  0.3951
  704MOL0     H94984   5.872   9.980   6.050 -4.4855 -1.5791 -0.5496
  704MOL0     H94985   5.983  10.069   5.826 -0.6938  1.4240 -0.4452
  704MOL0     H94986   5.885   9.938   5.750 -0.8763  1.5465 -0.4837
  704MOL0     H94987   5.675  10.034   5.853 -0.4854 -0.9370 -0.6834
  704MOL0     H94988   5.777  10.160   5.920  1.8641 -1.6433  0.9605
  704MOL0     H94989   5.863  10.202   5.676 -0.0404  1.7149  0.2023
  704MOL0     H94990   5.702  10.256   5.726 -0.8582 -0.8610 -1.1981
  704MOL0     H94991   5.558  10.232   5.531 -1.7432 -0.9986  1.9459
  704MOL0     H94992   5.521  10.000   5.209 -1.0740 -0.1968  0.0193
  704MOL0     H94993   5.409  10.078   5.315 -0.8482  1.4425 -0.8323
  704MOL0     H94994   5.631  10.229   5.162 -1.1029  0.8837 -1.9219
  704MOL0     H94995   5.531  10.313   5.270  1.3581  0.9995 -0.2606
  704MOL0     H94996   5.326  10.230   5.136 -0.1469 -4.1265 -3.0425
  704MOL0     H94997   5.434  10.183   5.013 -1.4757 -0.4936 -0.1130
  704MOL0     H94998   5.493  10.397   4.936  3.1080  0.4660  1.3030
  704MOL0     H94999   5.467  10.476   5.087  0.4200 -0.1416 -1.1477
  704MOL0     H95000   5.314  10.445   5.258 -0.9445  1.2360  1.9914
  704MOL0     H95001   5.067  10.516   5.501  0.5281  0.2576  0.5720
  704MOL0     H95002   5.242  10.519   5.454 -0.0188 -1.1521 -1.0596
  704MOL0     H95003   5.143  10.672   5.464  2.4123  0.1100 -0.9487
  704MOL0     H95004   4.735  10.389   5.564  0.9970  1.0006 -1.3355
  704MOL0     H95005   4.526  10.437   5.703 -1.0545 -0.7786 -0.0837
  704MOL0     H95006   4.257  10.772   5.577 -0.5714  1.0677  0.4792
  704MOL0     H95007   4.183  10.628   5.499 -2.0837  2.6560  0.0769
  704MOL0     H95008   4.057  10.567   5.703 -1.7590  0.4659  1.9769
  704MOL0     H95009   4.138  10.702   5.793 -0.5631  1.6847 -0.7417
  704MOL0     H95010   4.009  10.846   5.603 -3.0771  0.5247  0.1498
  704MOL0     H95011   3.934  10.784   5.742  0.0249  0.0001  0.0908
  704MOL0     H95012   3.895  10.587   5.521  0.4153  1.3821 -2.9665
  704MOL0     H95013   3.796  10.629   5.660 -1.9153  1.0332 -0.2400
  704MOL0     H95014   3.746  10.840   5.562 -1.3096 -0.7095 -1.1296
  704MOL0     H95015   3.688  10.698   5.470 -1.5302 -0.8537  1.1566
  704MOL0     H95016   3.935  10.851   5.384 -0.5969  0.9952 -0.9581
  704MOL0     H95017   3.881  10.701   5.317  0.6351  0.0799  0.4931
  704MOL0     H95018   3.686  10.935   5.340  1.6164  0.7310 -0.8160
  704MOL0     H95019   3.691  10.803   5.222 -0.4084  0.6464  0.0795
  704MOL0     H95020   3.772  11.026   5.105  0.1210  1.3258  0.2905
  704MOL0     H95021   3.893  10.901   5.115 -0.4274  0.7559  0.0567
  704MOL0     H95022   4.364  10.668   5.380  2.8476  1.8860 -0.3732
  704MOL0     H95023   4.562  10.620   5.240 -1.3813 -0.6951 -0.3983
  704MOL0     H95024   4.871  10.532   5.068 -0.4484  1.5870 -0.5877
  704MOL0     H95025   5.056  10.475   4.918  0.8264  0.3059 -0.0161
  704MOL0     H95026   6.456   9.827   5.727  0.7985  1.6205 -1.7664
  704MOL0     H95027   6.678   9.922   5.656  2.8897  1.1054  0.8704
  704MOL0     H95028   7.203   9.914   5.914  3.4847 -1.2331 -0.4671
  704MOL0     H95029   7.420   9.978   5.785  1.5197  0.5776  0.7741
  704MOL0     H95030   7.543  10.293   5.552  0.0499 -2.1945 -0.7046
  704MOL0     H95031   7.432  10.304   5.695  1.2652  2.5361 -1.3021
  704MOL0     H95032   7.698  10.173   5.697 -1.2917 -1.4244 -0.2457
  704MOL0     H95033   7.571  10.146   5.819 -2.4755 -0.5828 -0.7402
  704MOL0     H95034   7.693  10.323   5.916  2.2415 -1.2902 -0.2141
  704MOL0     H95035   7.563  10.409   5.828  0.3519  0.2350 -2.1578
  704MOL0     H95036   7.840  10.379   5.696  1.8217  1.1030  1.4655
  704MOL0     H95037   7.805  10.491   5.832  2.0692 -1.6015 -0.2466
  704MOL0     H95038   7.663  10.720   5.535  2.3953 -0.2821 -0.6345
  704MOL0     H95039   7.194  10.228   5.537 -0.4676 -1.4806 -2.6356
  704MOL0     H95040   6.978  10.148   5.640  0.9994  0.9590 -0.1918
  705MOL0     O95041   8.779   0.854  11.171  0.7796 -0.1333  0.0168
  705MOL0     C95042   8.818   0.768  11.093  0.2328  0.6870  0.5967
  705MOL0     O95043   8.739   0.678  11.022  0.7352 -0.8502  0.1857
  705MOL0     C95044   8.608   0.671  11.045  0.0331  0.3260 -0.5485
  705MOL0     C95045   8.534   0.560  11.094  0.9703 -0.4754  0.3448
  705MOL0     C95046   8.403   0.572  11.130  0.4042 -0.0070  0.5096
  705MOL0     C95047   8.336   0.691  11.100  0.2818  0.3190  0.5038
  705MOL0     O95048   8.205   0.689  11.140 -0.1276  0.8151 -0.2579
  705MOL0     C95049   8.117   0.791  11.094 -0.5117 -0.3568  0.3881
  705MOL0     C95050   7.966   0.757  11.101 -0.9536 -0.6884  0.3286
  705MOL0     C95051   7.886   0.873  11.145  0.2663  0.2272 -0.3063
  705MOL0     C95052   7.733   0.838  11.161  0.1620 -0.1719  1.1926
  705MOL0     C95053   7.633   0.953  11.174  0.3613  0.5768  0.1780
  705MOL0     C95054   7.628   1.007  11.316  0.0266  0.3133  1.2444
  705MOL0     C95055   7.523   1.118  11.330  0.1207 -0.4866 -0.5352
  705MOL0     C95056   7.569   1.228  11.427  0.2472 -0.5148  0.1397
  705MOL0     N95057   7.465   1.328  11.448  0.1091  0.1242 -0.0202
  705MOL0     C95058   7.426   1.368  11.576  0.9216  0.4013 -0.2886
  705MOL0     C95059   7.327   1.452  11.544 -0.5418 -0.9842 -0.7642
  705MOL0     C95060   7.254   1.543  11.645 -0.0818 -0.3142  0.3435
  705MOL0     C95061   7.207   1.475  11.779 -0.4316  0.0121  0.6040
  705MOL0     C95062   7.148   1.581  11.868 -0.5592 -0.1979 -0.1263
  705MOL0     C95063   7.078   1.515  11.988  0.5913  0.0473 -0.8223
  705MOL0     O95064   7.031   1.621  12.070  0.1286  0.3605  0.2427
  705MOL0     C95065   6.918   1.697  12.034 -0.1386 -0.6409  0.9761
  705MOL0     C95066   6.890   1.811  12.115  0.1456  0.2635  0.3234
  705MOL0     C95067   6.791   1.900  12.081  0.2007  0.5070 -0.2824
  705MOL0     C95068   6.768   2.018  12.174 -0.3082 -0.2267 -0.3100
  705MOL0     C95069   6.723   1.882  11.959  0.9335 -0.1843 -0.1060
  705MOL0     C95070   6.617   1.984  11.909 -0.3352 -0.3376  0.7086
  705MOL0     O95071   6.538   1.941  11.798 -0.1883  0.0417 -0.1380
  705MOL0     C95072   6.430   2.021  11.773 -0.1427  0.2630 -0.3549
  705MOL0     C95073   6.307   2.005  11.841 -0.6425 -0.3772 -0.1686
  705MOL0     C95074   6.193   2.081  11.814 -0.6102 -0.9550 -1.0669
  705MOL0     C95075   6.200   2.175  11.706  0.1725  0.2395 -0.4481
  705MOL0     O95076   6.097   2.269  11.690 -1.1346 -0.4438 -0.3798
  705MOL0     C95077   6.060   2.288  11.554  0.7887  0.3367  0.3148
  705MOL0     C95078   5.928   2.363  11.552 -0.3468 -0.5577 -0.3568
  705MOL0     C95079   5.802   2.297  11.613 -0.2283 -0.4456 -0.1186
  705MOL0     C95080   5.684   2.391  11.605 -0.1113 -0.7076  0.5721
  705MOL0     C95081   5.571   2.333  11.691  1.1101  0.3705 -0.5140
  705MOL0     C95082   5.438   2.387  11.644 -0.7898  0.6905  0.4471
  705MOL0     C95083   5.330   2.388  11.742  0.1702 -0.0899  0.5521
  705MOL0     C95084   5.358   2.441  11.886 -1.1561 -0.4008 -0.3700
  705MOL0    Cl95085   5.207   2.440  11.989  0.2985 -0.3840 -0.0122
  705MOL0     C95086   6.323   2.185  11.639 -0.2869 -0.7260 -0.6550
  705MOL0     C95087   6.442   2.116  11.673  0.7988  0.9977  0.3144
  705MOL0     O95088   6.600   2.088  11.968 -0.4462  0.4149 -0.3229
  705MOL0     C95089   6.735   1.763  11.888  0.2795  0.4171  0.3150
  705MOL0     C95090   6.830   1.668  11.930 -0.1906  1.1347 -0.1458
  705MOL0     N95091   7.315   1.475  11.410 -0.0808 -0.4309 -0.7644
  705MOL0     N95092   7.409   1.407  11.351 -0.0001 -0.2606  0.2067
  705MOL0     C95093   8.408   0.802  11.045 -0.4396 -0.5166  0.7866
  705MOL0     C95094   8.544   0.789  11.022 -0.0945 -0.0013 -0.2342
  705MOL0     C95095   8.965   0.735  11.097 -0.2935 -0.9974 -0.6363
  705MOL0     C95096   9.020   0.631  11.026 -0.1359  0.6980  0.3000
  705MOL0     C95097   9.158   0.619  11.024 -0.3282 -0.8401 -0.0435
  705MOL0     C95098   9.243   0.700  11.104  0.0724 -0.2042 -1.1776
  705MOL0     O95099   9.375   0.694  11.095 -0.3455 -0.0748 -0.6846
  705MOL0     C95100   9.438   0.605  11.198 -0.6356  0.4938  0.4515
  705MOL0     C95101   9.591   0.587  11.168 -0.1150 -0.6801  0.2401
  705MOL0     C95102   9.603   0.487  11.050 -0.8953 -0.8953  0.6330
  705MOL0     C95103   9.744   0.448  11.004  0.6396 -0.0639  0.7033
  705MOL0     C95104   9.819   0.383  11.111  0.4657 -0.1928 -0.0017
  705MOL0     C95105   9.883   0.331  11.195 -0.2437 -0.1769  0.0856
  705MOL0     C95106   9.180   0.795  11.185 -0.5346 -0.7508  0.0035
  705MOL0     C95107   9.048   0.819  11.184  0.5340  0.5162  0.3522
  705MOL0     H95108   8.589   0.469  11.115  0.6705 -0.6444  0.3929
  705MOL0     H95109   8.345   0.495  11.180  0.0359 -0.0338  0.0433
  705MOL0     H95110   8.137   0.872  11.164 -1.3667  0.6606 -0.4992
  705MOL0     H95111   8.139   0.817  10.990 -1.0696 -2.1755 -0.2269
  705MOL0     H95112   7.940   0.726  10.999 -0.3617 -0.6147  0.1451
  705MOL0     H95113   7.946   0.676  11.171  0.7411 -2.5304 -1.1629
  705MOL0     H95114   7.925   0.902  11.243  0.5601 -0.9189 -0.0724
  705MOL0     H95115   7.897   0.954  11.073 -0.1563  0.3429 -0.2449
  705MOL0     H95116   7.707   0.784  11.069 -0.7432 -0.4665  1.6052
  705MOL0     H95117   7.724   0.761  11.239 -0.7888  0.1286  1.3913
  705MOL0     H95118   7.664   1.035  11.108 -0.4198 -0.3752 -1.4504
  705MOL0     H95119   7.534   0.918  11.146 -0.9857  1.4733  3.4000
  705MOL0     H95120   7.611   0.917  11.376 -0.7737 -0.0761  0.4495
  705MOL0     H95121   7.727   1.050  11.337  1.0552 -0.9385 -0.7774
  705MOL0     H95122   7.489   1.170  11.240 -3.6294  0.5123  1.2602
  705MOL0     H95123   7.435   1.068  11.371  0.7920 -0.8256  0.5334
  705MOL0     H95124   7.654   1.279  11.381 -0.7767  2.7516  1.5185
  705MOL0     H95125   7.604   1.185  11.521 -1.4450  0.3599  1.2218
  705MOL0     H95126   7.462   1.328  11.670  0.1436 -0.6391 -0.4167
  705MOL0     H95127   7.326   1.622  11.667  0.0225  0.7345 -3.2012
  705MOL0     H95128   7.171   1.595  11.597 -1.5896 -0.0820  2.9884
  705MOL0     H95129   7.296   1.433  11.828  0.5658  1.0148 -0.2920
  705MOL0     H95130   7.140   1.392  11.755  2.0384 -1.1798 -3.0410
  705MOL0     H95131   7.086   1.646  11.807  0.3815 -1.1609 -2.2022
  705MOL0     H95132   7.228   1.641  11.913 -2.1001 -0.4674  3.2905
  705MOL0     H95133   7.144   1.457  12.053  0.0897 -1.1025 -1.3220
  705MOL0     H95134   6.996   1.448  11.961 -0.3593 -0.0564  2.0694
  705MOL0     H95135   6.963   1.824  12.195  2.1973  0.5898 -1.4879
  705MOL0     H95136   6.787   2.108  12.115 -1.3760  0.7687  0.8176
  705MOL0     H95137   6.669   2.017  12.220  0.1101 -2.1596  0.6765
  705MOL0     H95138   6.843   2.014  12.254  0.5686  1.0545 -1.0213
  705MOL0     H95139   6.291   1.916  11.902 -1.2089  0.7895  1.4512
  705MOL0     H95140   6.096   2.057  11.858 -1.7780 -0.9608 -3.4827
  705MOL0     H95141   6.139   2.345  11.504  1.8514 -0.6394  0.8177
  705MOL0     H95142   6.046   2.194  11.500 -0.7674  1.2706 -1.0007
  705MOL0     H95143   5.939   2.452  11.615 -0.3080 -1.7224  1.3358
  705MOL0     H95144   5.903   2.401  11.452 -0.7095  2.5011  0.8009
  705MOL0     H95145   5.823   2.281  11.719  0.5030  0.8525 -0.0456
  705MOL0     H95146   5.786   2.206  11.554 -2.7833  1.1101 -2.0229
  705MOL0     H95147   5.700   2.486  11.657 -2.1220 -0.9415  1.7081
  705MOL0     H95148   5.666   2.409  11.499 -1.3478  1.1031  1.0465
  705MOL0     H95149   5.597   2.358  11.794 -1.2553 -0.3805  0.3264
  705MOL0     H95150   5.564   2.224  11.685  5.2576 -0.0955  0.2661
  705MOL0     H95151   5.445   2.492  11.616 -0.4451  0.4921 -0.2598
  705MOL0     H95152   5.413   2.330  11.554  1.9041 -0.3136  0.2388
  705MOL0     H95153   5.288   2.288  11.752 -1.0869  0.5455  2.0284
  705MOL0     H95154   5.252   2.446  11.692  0.3221 -1.5764 -1.5193
  705MOL0     H95155   5.398   2.542  11.897  0.6649 -1.2305  1.3499
  705MOL0     H95156   5.438   2.384  11.935 -2.7863 -1.1675  1.5310
  705MOL0     H95157   6.326   2.264  11.564 -0.7879 -1.7805 -1.8361
  705MOL0     H95158   6.537   2.133  11.624  1.3979  1.8199  1.7182
  705MOL0     H95159   6.666   1.737  11.808 -0.0649 -0.6507  0.9337
  705MOL0     H95160   6.835   1.570  11.884  1.9005  1.5337 -0.8814
  705MOL0     H95161   8.362   0.895  11.014 -0.3061 -0.4000  0.9416
  705MOL0     H95162   8.596   0.872  10.975 -1.1164 -0.3204 -2.0024
  705MOL0     H95163   8.956   0.567  10.966 -0.8520  3.2459 -1.8327
  705MOL0     H95164   9.203   0.542  10.962 -2.3658 -0.2763 -2.3523
  705MOL0     H95165   9.419   0.639  11.300  0.3550  2.1883  0.1067
  705MOL0     H95166   9.388   0.509  11.183  0.2100  0.4359 -2.9779
  705MOL0     H95167   9.641   0.541  11.253  0.2421 -0.1627  0.3111
  705MOL0     H95168   9.646   0.677  11.142  1.0477 -1.5761 -0.5231
  705MOL0     H95169   9.555   0.529  10.961 -0.9965  0.6451  1.3794
  705MOL0     H95170   9.547   0.400  11.083 -0.7953 -0.2759  2.5628
  705MOL0     H95171   9.791   0.530  10.949 -3.2772  1.1167 -1.1940
  705MOL0     H95172   9.730   0.375  10.924 -2.8905  1.7961 -0.5735
  705MOL0     H95173   9.949   0.302  11.274  0.0487  1.0366  0.3046
  705MOL0     H95174   9.238   0.859  11.252  0.2406 -2.9889  1.5872
  705MOL0     H95175   9.009   0.901  11.244  2.1242  0.0187  2.1305
  706MOL0     O95176   1.061   7.072   3.469  0.1620 -0.0132 -0.3103
  706MOL0     C95177   1.170   7.017   3.482 -0.1659  0.2939  0.3762
  706MOL0     O95178   1.194   6.886   3.450  0.0377 -0.4284 -0.2695
  706MOL0     C95179   1.100   6.801   3.405 -0.9464  0.3527  0.2159
  706MOL0     C95180   1.020   6.825   3.289 -0.1086 -0.0709 -0.8081
  706MOL0     C95181   0.919   6.740   3.247 -0.1024  0.2716 -0.3490
  706MOL0     C95182   0.893   6.625   3.324 -0.3993  0.8035 -0.0229
  706MOL0     O95183   0.785   6.546   3.281  0.1640 -1.0025  0.0592
  706MOL0     C95184   0.743   6.441   3.360  0.0961  0.2707 -0.4010
  706MOL0     C95185   0.606   6.409   3.311 -0.0724 -0.0962  0.5811
  706MOL0     C95186   0.604   6.334   3.177 -1.4550  0.2251  0.4475
  706MOL0     C95187   0.460   6.311   3.139  0.0396 -1.6002 -0.4020
  706MOL0     C95188   0.455   6.231   3.008 -0.7269  0.0599 -0.4715
  706MOL0     C95189   0.319   6.168   2.977  0.0231  0.1468 -0.2800
  706MOL0     C95190   0.234   6.278   2.909 -0.2745 -0.3098  0.2006
  706MOL0     C95191   0.111   6.221   2.856 -0.0170 -0.2582 -0.7538
  706MOL0     N95192   0.011   6.316   2.819 -0.1006  0.5008  0.1073
  706MOL0     C95193  -0.002   6.369   2.694  0.5261 -0.3748 -0.3124
  706MOL0     C95194  -0.111   6.460   2.699 -0.4949 -0.1103  0.0957
  706MOL0     C95195  -0.157   6.562   2.596 -0.4302 -0.3243 -0.6354
  706MOL0     C95196  -0.132   6.501   2.454  0.7382  0.3016  0.7811
  706MOL0     C95197  -0.173   6.608   2.349  0.6723 -0.6445  0.4654
  706MOL0     C95198  -0.321   6.598   2.315  0.3319 -0.3548 -0.3611
  706MOL0     O95199  -0.359   6.671   2.196 -0.2032 -0.6458  0.4051
  706MOL0     C95200  -0.485   6.714   2.191 -0.4879 -0.5208  0.9960
  706MOL0     C95201  -0.601   6.641   2.226  0.2043  0.2614  0.3322
  706MOL0     C95202  -0.729   6.693   2.190  0.2357  0.0485  1.0573
  706MOL0     C95203  -0.844   6.589   2.195  0.0325  0.5467 -0.1039
  706MOL0     C95204  -0.750   6.829   2.150 -1.0124  0.0888  0.3698
  706MOL0     C95205  -0.881   6.883   2.116 -0.0416 -0.3451  0.2869
  706MOL0     O95206  -0.997   6.816   2.138  0.6218  0.0968 -0.1546
  706MOL0     C95207  -1.125   6.849   2.101  0.2226  0.0112  0.6695
  706MOL0     C95208  -1.234   6.781   2.170 -0.0548  0.2842  1.3696
  706MOL0     C95209  -1.363   6.811   2.137  0.5369 -0.6133  0.3933
  706MOL0     C95210  -1.390   6.906   2.045  0.5206 -0.5261 -0.1732
  706MOL0     O95211  -1.522   6.941   2.000 -0.8025  0.4268  0.2794
  706MOL0     C95212  -1.639   6.880   2.066 -0.3695 -0.1619 -0.4882
  706MOL0     C95213  -1.771   6.925   2.003 -0.6814 -0.6355 -0.9562
  706MOL0     C95214  -1.880   6.928   2.111  0.7546  0.1991 -0.3039
  706MOL0     C95215  -2.019   6.969   2.050  0.4852 -0.3671 -0.1529
  706MOL0     C95216  -2.141   6.908   2.121  0.1717 -0.7959 -0.0683
  706MOL0     C95217  -2.276   6.972   2.078 -0.0248  0.1658  0.2777
  706MOL0     C95218  -2.394   6.900   2.145 -0.2895  0.0641 -0.5107
  706MOL0     C95219  -2.525   6.971   2.122 -0.3444  0.5232  0.5438
  706MOL0    Cl95220  -2.516   7.127   2.217  0.0937  0.0990  0.0533
  706MOL0     C95221  -1.289   6.980   1.986  0.6769  0.0616  0.3651
  706MOL0     C95222  -1.159   6.933   2.003  0.3456 -0.3865 -0.3323
  706MOL0     O95223  -0.878   7.002   2.078 -0.8908  0.0118  0.0267
  706MOL0     C95224  -0.626   6.911   2.134  0.0960 -0.4441  0.7950
  706MOL0     C95225  -0.496   6.849   2.155  0.3141  0.6757 -0.2613
  706MOL0     N95226  -0.151   6.458   2.830 -0.1471  0.4710 -0.2076
  706MOL0     N95227  -0.079   6.376   2.903  0.3454 -0.0773 -0.0116
  706MOL0     C95228   0.967   6.594   3.438 -0.8505 -0.3717  0.3003
  706MOL0     C95229   1.081   6.680   3.467  0.5918 -0.4638 -0.1370
  706MOL0     C95230   1.275   7.101   3.544 -0.6826 -0.1415  0.2117
  706MOL0     C95231   1.254   7.237   3.560 -0.0678  0.3094  0.1537
  706MOL0     C95232   1.347   7.325   3.613 -0.8547  0.2388  0.6474
  706MOL0     C95233   1.477   7.276   3.654 -0.0014  0.1769  0.1179
  706MOL0     O95234   1.584   7.346   3.708 -0.1684  0.1203 -0.8056
  706MOL0     C95235   1.538   7.456   3.791  0.2324  0.5229  0.5955
  706MOL0     C95236   1.663   7.515   3.847  0.2092 -0.6213 -0.7938
  706MOL0     C95237   1.646   7.607   3.963  0.2277  0.2797 -0.6624
  706MOL0     C95238   1.542   7.719   3.945 -0.0750  0.1674 -0.1697
  706MOL0     C95239   1.413   7.684   4.002 -0.1902 -0.4837 -0.7524
  706MOL0     C95240   1.313   7.643   4.060  0.2764  0.2864  0.4092
  706MOL0     C95241   1.496   7.140   3.631 -0.4724  0.4754 -0.6214
  706MOL0     C95242   1.392   7.049   3.585 -0.1267  0.2631 -0.1097
  706MOL0     H95243   1.036   6.916   3.232  0.7939 -0.5643 -1.3538
  706MOL0     H95244   0.867   6.765   3.156  0.9271 -2.3581 -1.7514
  706MOL0     H95245   0.810   6.357   3.342 -0.6541 -0.6105  0.7228
  706MOL0     H95246   0.731   6.471   3.464 -0.5255  1.3931 -0.7855
  706MOL0     H95247   0.547   6.354   3.384 -2.5951  1.7726  0.0908
  706MOL0     H95248   0.549   6.502   3.299  2.6110  1.6319  0.3008
  706MOL0     H95249   0.654   6.399   3.104 -0.6012 -0.6449  0.2419
  706MOL0     H95250   0.655   6.238   3.181  2.6187  2.1209  0.0357
  706MOL0     H95251   0.408   6.260   3.220 -0.0775  0.4746  0.9055
  706MOL0     H95252   0.420   6.412   3.126  2.7266 -0.6082 -1.8500
  706MOL0     H95253   0.490   6.286   2.920 -1.0415 -0.7991 -1.1486
  706MOL0     H95254   0.519   6.144   3.023  0.0078  0.4791 -1.1263
  706MOL0     H95255   0.336   6.089   2.903  1.5291  0.9379 -0.8285
  706MOL0     H95256   0.277   6.123   3.067  0.5596  1.5232  0.6890
  706MOL0     H95257   0.224   6.363   2.977  2.8163  1.3287 -1.1829
  706MOL0     H95258   0.282   6.317   2.818 -2.3050 -1.3599 -1.4193
  706MOL0     H95259   0.071   6.157   2.935 -0.0044  1.5498  0.7720
  706MOL0     H95260   0.134   6.162   2.767  0.1219 -2.5049  0.6802
  706MOL0     H95261   0.055   6.336   2.608 -0.3046 -1.7054 -0.3956
  706MOL0     H95262  -0.262   6.587   2.609 -0.3607  1.1960 -2.5818
  706MOL0     H95263  -0.100   6.656   2.597 -0.9600  0.0007 -0.5713
  706MOL0     H95264  -0.199   6.416   2.439  0.7192  0.6716 -1.5678
  706MOL0     H95265  -0.024   6.489   2.441  0.9821  2.5600  0.2007
  706MOL0     H95266  -0.120   6.582   2.257 -1.6632  1.8059 -1.7463
  706MOL0     H95267  -0.138   6.705   2.383 -0.7799 -0.2938  1.0215
  706MOL0     H95268  -0.385   6.622   2.400 -0.4171 -2.3701 -0.2892
  706MOL0     H95269  -0.333   6.489   2.307  3.4221 -1.0102  2.0762
  706MOL0     H95270  -0.579   6.539   2.258  1.6562  0.7988  1.1242
  706MOL0     H95271  -0.813   6.484   2.196  1.7343  1.0226  0.1627
  706MOL0     H95272  -0.912   6.597   2.280 -0.9750 -0.8338 -0.7428
  706MOL0     H95273  -0.910   6.596   2.109 -0.0024  0.7543 -0.0606
  706MOL0     H95274  -1.219   6.708   2.249 -3.0144 -0.0187  1.7459
  706MOL0     H95275  -1.439   6.747   2.180  0.3220  0.0831  1.0776
  706MOL0     H95276  -1.640   6.771   2.055 -1.6419 -0.1794 -0.4332
  706MOL0     H95277  -1.634   6.903   2.173  0.4195 -6.0893  1.0777
  706MOL0     H95278  -1.757   7.022   1.955 -2.2078  1.2373  2.0616
  706MOL0     H95279  -1.807   6.854   1.928 -0.5215  0.3897 -2.0337
  706MOL0     H95280  -1.843   7.001   2.184  4.1389 -0.4724 -1.1629
  706MOL0     H95281  -1.885   6.831   2.161  1.4791  0.5603  0.5112
  706MOL0     H95282  -2.013   7.078   2.053  0.2824 -0.3076 -1.5298
  706MOL0     H95283  -2.038   6.928   1.951  0.5773 -0.5530 -0.0942
  706MOL0     H95284  -2.127   6.922   2.229  1.1614 -2.8500  0.1208
  706MOL0     H95285  -2.153   6.801   2.102  0.9303 -1.1709  1.3648
  706MOL0     H95286  -2.281   7.081   2.084  1.4716  0.2814 -0.1136
  706MOL0     H95287  -2.281   6.957   1.970  2.8132 -1.5934  0.2831
  706MOL0     H95288  -2.382   6.906   2.254 -3.1859  0.4460 -0.1519
  706MOL0     H95289  -2.403   6.795   2.115  0.9392  0.2822 -1.7411
  706MOL0     H95290  -2.608   6.906   2.151 -2.5936  1.4734 -3.0686
  706MOL0     H95291  -2.551   6.988   2.017  0.2227  0.2641  0.3573
  706MOL0     H95292  -1.307   7.061   1.917  1.0566  2.0540  2.4746
  706MOL0     H95293  -1.084   6.990   1.949 -0.1419  0.9081  0.3229
  706MOL0     H95294  -0.640   7.014   2.100 -0.0735 -0.1839  1.6319
  706MOL0     H95295  -0.403   6.905   2.153  0.0871  1.2023 -4.5752
  706MOL0     H95296   0.938   6.513   3.504  1.1514 -1.8470 -0.5253
  706MOL0     H95297   1.136   6.650   3.556 -0.8983 -3.6185 -0.1349
  706MOL0     H95298   1.156   7.279   3.537  0.3996  0.0401 -2.7084
  706MOL0     H95299   1.314   7.429   3.618 -0.3764  0.5412 -1.6464
  706MOL0     H95300   1.487   7.533   3.732 -0.7642  0.1374  0.9431
  706MOL0     H95301   1.482   7.415   3.875 -0.7056 -1.4644 -0.9053
  706MOL0     H95302   1.724   7.568   3.773 -0.2830  0.0854 -0.6962
  706MOL0     H95303   1.711   7.435   3.905 -1.1877  0.0358  1.3785
  706MOL0     H95304   1.742   7.659   3.976 -0.1737  2.0026 -3.7711
  706MOL0     H95305   1.613   7.564   4.058  1.1072  2.8666  0.9320
  706MOL0     H95306   1.536   7.742   3.838  0.8361  0.4128 -0.1775
  706MOL0     H95307   1.571   7.807   4.003 -0.4787 -0.7272  1.4424
  706MOL0     H95308   1.225   7.596   4.100  0.8544 -0.6266  0.6636
  706MOL0     H95309   1.595   7.104   3.656 -0.7041 -0.5838 -1.1706
  706MOL0     H95310   1.404   6.941   3.590 -1.0595  0.1936  2.6927
  707MOL0     O95311   0.156   6.708   5.217  0.9018  0.2299 -0.0926
  707MOL0     C95312   0.228   6.807   5.224 -0.0280 -0.3827  0.8376
  707MOL0     O95313   0.203   6.925   5.163  0.2101 -0.3288 -0.7125
  707MOL0     C95314   0.100   6.926   5.081 -0.5117 -0.2057  0.2421
  707MOL0     C95315   0.131   6.941   4.948 -0.1089  0.1306  0.2916
  707MOL0     C95316   0.032   6.943   4.851 -0.3827 -0.9782 -0.7117
  707MOL0     C95317  -0.100   6.945   4.881  0.4842 -0.1698  0.9972
  707MOL0     O95318  -0.197   6.945   4.781 -1.1226 -0.2048 -0.2737
  707MOL0     C95319  -0.333   6.960   4.829  0.2474 -0.5112 -0.1291
  707MOL0     C95320  -0.433   6.959   4.716 -0.0165 -0.5713  0.7934
  707MOL0     C95321  -0.570   7.002   4.756 -0.8503  0.1955 -0.0810
  707MOL0     C95322  -0.655   7.000   4.632  0.1598 -1.0628 -0.1050
  707MOL0     C95323  -0.784   7.079   4.654 -0.2700 -0.5695  0.7392
  707MOL0     C95324  -0.872   6.996   4.743  0.8282  0.1261  0.3112
  707MOL0     C95325  -1.008   7.067   4.763  0.4925  0.6067 -0.8654
  707MOL0     C95326  -1.098   7.064   4.646  0.2769 -0.3264 -0.0864
  707MOL0     N95327  -1.227   7.134   4.661 -0.5274 -0.3503 -0.4482
  707MOL0     C95328  -1.328   7.092   4.743  0.4087 -0.1648 -0.3685
  707MOL0     C95329  -1.433   7.169   4.710  0.2715  0.2465 -0.0035
  707MOL0     C95330  -1.575   7.156   4.762  0.3638 -0.4582 -1.3090
  707MOL0     C95331  -1.673   7.073   4.680 -0.0583  0.1555 -0.4622
  707MOL0     C95332  -1.633   6.927   4.669  0.7775  1.1194 -0.0359
  707MOL0     C95333  -1.748   6.844   4.616  0.1447 -0.3279  0.2746
  707MOL0     O95334  -1.848   6.825   4.719 -0.2932  0.2513  0.2859
  707MOL0     C95335  -1.976   6.835   4.683 -0.3855  0.0547 -0.2680
  707MOL0     C95336  -2.062   6.753   4.750 -0.1649  0.6235  0.0795
  707MOL0     C95337  -2.199   6.749   4.730 -0.6943 -0.3667 -0.7382
  707MOL0     C95338  -2.277   6.661   4.827 -0.3192  0.4260 -0.7512
  707MOL0     C95339  -2.249   6.839   4.635 -0.3998  0.2245 -1.1797
  707MOL0     C95340  -2.398   6.840   4.600 -0.4795 -0.7914 -0.5874
  707MOL0     O95341  -2.492   6.817   4.692 -0.5346  0.5687 -0.8908
  707MOL0     C95342  -2.618   6.788   4.645 -0.4294  0.2628  0.4528
  707MOL0     C95343  -2.656   6.662   4.588  0.6053 -0.2820  0.0414
  707MOL0     C95344  -2.789   6.628   4.548 -0.0260 -0.5151 -0.3197
  707MOL0     C95345  -2.885   6.726   4.557 -0.9026 -0.6080 -0.1791
  707MOL0     O95346  -3.011   6.711   4.515 -0.0305  0.1455 -0.3160
  707MOL0     C95347  -3.069   6.583   4.500  0.4986  0.1607  0.7666
  707MOL0     C95348  -3.127   6.582   4.361 -1.0062 -0.2175 -0.2056
  707MOL0     C95349  -3.008   6.576   4.262 -0.0600  0.4693  0.2648
  707MOL0     C95350  -3.055   6.574   4.110  0.0492 -0.4679  0.1115
  707MOL0     C95351  -3.106   6.440   4.075 -0.3772 -0.0657  0.1363
  707MOL0     C95352  -3.163   6.421   3.927 -0.2977  0.1794  0.4142
  707MOL0     C95353  -3.303   6.480   3.916 -0.3675 -0.2099  0.1318
  707MOL0     C95354  -3.331   6.528   3.768 -0.7945 -1.2770  0.1295
  707MOL0    Cl95355  -3.303   6.418   3.643 -0.5822  0.3447  0.3420
  707MOL0     C95356  -2.852   6.853   4.605  0.0371  0.1823  0.6712
  707MOL0     C95357  -2.722   6.887   4.641 -0.1989 -0.3519 -0.0955
  707MOL0     O95358  -2.423   6.875   4.484 -0.3905  0.8431 -0.4245
  707MOL0     C95359  -2.163   6.934   4.570  0.4670  0.1036 -0.4915
  707MOL0     C95360  -2.026   6.925   4.597 -0.3604 -0.7466  1.0636
  707MOL0     N95361  -1.397   7.261   4.617 -0.4229  0.8743  0.3668
  707MOL0     N95362  -1.273   7.245   4.587 -0.9053 -0.2937 -0.1269
  707MOL0     C95363  -0.130   6.952   5.020  0.1171 -0.0518 -0.3208
  707MOL0     C95364  -0.034   6.938   5.120 -0.3586  0.1838 -0.3648
  707MOL0     C95365   0.353   6.802   5.297 -0.0832 -0.9305 -0.0447
  707MOL0     C95366   0.395   6.911   5.376 -0.0764 -0.0003  0.0459
  707MOL0     C95367   0.507   6.908   5.452  0.2832  0.5638  0.9497
  707MOL0     C95368   0.597   6.796   5.435 -0.1406 -0.1584  0.0400
  707MOL0     O95369   0.720   6.789   5.496  0.5021  0.3851  0.2630
  707MOL0     C95370   0.780   6.901   5.566 -0.3169 -0.2386  0.6228
  707MOL0     C95371   0.931   6.893   5.542 -0.3217 -0.1992 -0.1453
  707MOL0     C95372   1.008   6.988   5.626  0.2306 -0.0556 -1.2000
  707MOL0     C95373   1.156   6.984   5.609 -0.4629  0.1758  0.5985
  707MOL0     C95374   1.211   6.851   5.635  0.0275 -0.3071 -0.3192
  707MOL0     C95375   1.255   6.737   5.648 -0.3949 -0.6724 -0.2458
  707MOL0     C95376   0.563   6.690   5.352  0.3415  0.0414  0.0195
  707MOL0     C95377   0.436   6.693   5.283  1.1017  0.7492  0.3856
  707MOL0     H95378   0.235   6.937   4.917 -1.0091 -2.8673 -3.1507
  707MOL0     H95379   0.057   6.915   4.750 -0.5970 -0.6566 -0.8536
  707MOL0     H95380  -0.356   6.878   4.898  1.8201 -0.1134  0.9274
  707MOL0     H95381  -0.341   7.049   4.892  1.0086 -0.2691 -0.3572
  707MOL0     H95382  -0.398   7.034   4.644 -0.2557 -0.2704  0.9911
  707MOL0     H95383  -0.423   6.861   4.668  0.4143  0.6160 -1.7478
  707MOL0     H95384  -0.614   6.932   4.827 -0.5637  1.0838  0.9877
  707MOL0     H95385  -0.560   7.101   4.801 -2.3403  0.3035  0.0610
  707MOL0     H95386  -0.605   7.054   4.551 -0.5179 -1.4829 -0.8260
  707MOL0     H95387  -0.668   6.898   4.593 -2.0784 -0.0056 -2.3736
  707MOL0     H95388  -0.769   7.173   4.708 -0.0266 -0.4568  0.4782
  707MOL0     H95389  -0.825   7.106   4.557  0.6567  1.0910  0.7833
  707MOL0     H95390  -0.887   6.891   4.716 -1.6065 -0.2468  2.6018
  707MOL0     H95391  -0.832   6.984   4.844 -2.1076  0.6873  1.6675
  707MOL0     H95392  -1.058   7.020   4.847  0.4616  0.6731 -0.8468
  707MOL0     H95393  -0.987   7.168   4.799 -0.7666  0.6716 -0.2980
  707MOL0     H95394  -1.135   6.968   4.610 -0.1623  0.4863 -1.9590
  707MOL0     H95395  -1.042   7.114   4.566  0.8479 -0.9694 -0.0983
  707MOL0     H95396  -1.319   7.011   4.814  0.5271 -0.2791 -0.5129
  707MOL0     H95397  -1.560   7.108   4.859 -1.1199  0.8854 -0.3694
  707MOL0     H95398  -1.623   7.251   4.783 -0.7227 -0.8495 -1.9429
  707MOL0     H95399  -1.677   7.112   4.577 -1.1172 -2.0692 -1.3328
  707MOL0     H95400  -1.775   7.081   4.717 -1.1921 -1.6885 -2.8481
  707MOL0     H95401  -1.599   6.890   4.766 -0.6186  0.1838  0.1291
  707MOL0     H95402  -1.549   6.918   4.599  1.0764 -1.1524  0.5288
  707MOL0     H95403  -1.706   6.744   4.598 -1.8499 -1.4534  1.4410
  707MOL0     H95404  -1.779   6.899   4.526 -1.9909 -0.3472  0.9508
  707MOL0     H95405  -2.014   6.683   4.818 -2.7997 -1.3709  0.0664
  707MOL0     H95406  -2.343   6.727   4.886  0.9475  2.0493 -1.0772
  707MOL0     H95407  -2.336   6.584   4.778  0.8639 -1.1990  0.2892
  707MOL0     H95408  -2.204   6.617   4.896 -1.9235  2.4775  2.5451
  707MOL0     H95409  -2.568   6.600   4.600  1.9161  1.5739  0.5144
  707MOL0     H95410  -2.791   6.527   4.506  0.7293 -0.0426 -1.5504
  707MOL0     H95411  -2.990   6.507   4.504  2.4532  2.1075  0.7982
  707MOL0     H95412  -3.139   6.561   4.582 -0.6152  1.8020  0.3144
  707MOL0     H95413  -3.176   6.484   4.349  2.4915 -2.0474 -0.7480
  707MOL0     H95414  -3.192   6.668   4.347  0.5550  0.7475 -1.9455
  707MOL0     H95415  -2.949   6.485   4.278  2.3089  1.7684 -0.6394
  707MOL0     H95416  -2.942   6.662   4.275  3.0783 -1.3306 -2.3026
  707MOL0     H95417  -3.139   6.640   4.084  0.1156 -0.7119 -0.7650
  707MOL0     H95418  -2.972   6.600   4.044  0.7446 -2.2888  0.2286
  707MOL0     H95419  -3.175   6.405   4.153 -1.2608  0.2524 -0.4833
  707MOL0     H95420  -3.022   6.370   4.079  0.5467  0.5900 -3.8084
  707MOL0     H95421  -3.090   6.465   3.859 -0.7443  1.0618  0.4842
  707MOL0     H95422  -3.165   6.316   3.897 -1.7703  0.7481 -1.6741
  707MOL0     H95423  -3.300   6.570   3.978  2.9455  0.2509 -0.5455
  707MOL0     H95424  -3.379   6.413   3.958  3.0039 -3.7024  1.2652
  707MOL0     H95425  -3.277   6.622   3.755 -1.9106 -0.3975  1.6003
  707MOL0     H95426  -3.438   6.550   3.764 -0.2061  2.0213 -0.7622
  707MOL0     H95427  -2.935   6.924   4.605  0.1959  0.4220 -0.8994
  707MOL0     H95428  -2.714   6.990   4.675  1.9662 -0.5371  0.0874
  707MOL0     H95429  -2.206   7.002   4.497  0.4862  1.3647  0.6420
  707MOL0     H95430  -1.966   7.004   4.554 -3.0836 -0.1797 -2.0694
  707MOL0     H95431  -0.232   6.964   5.054  1.4797  2.2222  3.6076
  707MOL0     H95432  -0.059   6.925   5.225 -1.2699 -1.9832 -0.7932
  707MOL0     H95433   0.333   6.996   5.401 -0.5283 -1.2072  3.7116
  707MOL0     H95434   0.534   6.988   5.521  2.5822  2.4933 -1.9228
  707MOL0     H95435   0.744   6.997   5.530 -3.3213 -0.4098  2.7909
  707MOL0     H95436   0.750   6.895   5.671  2.5519 -1.1490  1.4984
  707MOL0     H95437   0.947   6.909   5.435  1.4587 -1.5561 -0.1388
  707MOL0     H95438   0.957   6.791   5.572 -1.0501 -0.3484 -0.0023
  707MOL0     H95439   0.977   6.978   5.731  0.8230  1.8600 -0.8068
  707MOL0     H95440   0.984   7.093   5.609  0.3753  0.9721  3.4358
  707MOL0     H95441   1.209   7.057   5.671 -0.2719  2.6104 -2.2168
  707MOL0     H95442   1.178   7.013   5.505  0.3650  3.3176  1.5554
  707MOL0     H95443   1.303   6.646   5.676  2.6154  0.0296 -2.5763
  707MOL0     H95444   0.623   6.600   5.339  1.9089  1.4625 -4.7984
  707MOL0     H95445   0.404   6.607   5.224 -0.0757  1.5550 -0.1824
  708MOL0     O95446   9.311   1.220   8.900 -1.3750  0.0000  0.4285
  708MOL0     C95447   9.387   1.178   8.815 -0.2857  0.9290  0.9119
  708MOL0     O95448   9.350   1.139   8.693  0.4321  0.3879 -0.6820
  708MOL0     C95449   9.224   1.153   8.648 -0.3253  0.0477  0.8116
  708MOL0     C95450   9.142   1.270   8.666  0.3021  0.0657 -0.0531
  708MOL0     C95451   9.016   1.281   8.599  0.3236 -0.9312 -0.8274
  708MOL0     C95452   8.964   1.172   8.531  0.2748  0.1896  0.5419
  708MOL0     O95453   8.834   1.165   8.487  0.4302  0.8023  0.9397
  708MOL0     C95454   8.737   1.142   8.589  0.9644  0.4580 -1.0570
  708MOL0     C95455   8.602   1.160   8.510  0.5976  0.1777 -0.4768
  708MOL0     C95456   8.570   1.304   8.479  0.6531 -0.2390  0.2886
  708MOL0     C95457   8.434   1.322   8.398 -0.5387  0.5523 -0.2930
  708MOL0     C95458   8.407   1.468   8.372  0.9518 -0.0300 -0.7573
  708MOL0     C95459   8.279   1.479   8.286  0.6065 -0.6415  0.1712
  708MOL0     C95460   8.206   1.618   8.318  0.2412  0.7611 -0.0613
  708MOL0     C95461   8.073   1.627   8.242  0.5805 -0.5926  0.3440
  708MOL0     N95462   7.995   1.742   8.290 -0.0288 -0.1086 -0.1486
  708MOL0     C95463   7.882   1.742   8.362  0.6239  0.1106 -0.2991
  708MOL0     C95464   7.835   1.871   8.355  0.4978  0.1003  0.7002
  708MOL0     C95465   7.715   1.931   8.424 -0.3623 -0.5097  0.4833
  708MOL0     C95466   7.617   1.818   8.462  0.3395  0.1830 -0.2470
  708MOL0     C95467   7.506   1.882   8.539  0.7893 -0.0732 -0.3572
  708MOL0     C95468   7.423   1.779   8.613 -0.5168  0.2742 -0.3708
  708MOL0     O95469   7.301   1.834   8.667 -0.0199 -0.4346 -0.2020
  708MOL0     C95470   7.238   1.750   8.758  0.4247  0.1017  0.0992
  708MOL0     C95471   7.111   1.701   8.720 -0.1311 -0.9126  0.6547
  708MOL0     C95472   7.037   1.620   8.800  0.7910 -0.2892 -0.4827
  708MOL0     C95473   6.906   1.559   8.744  0.2772  0.0167  0.6277
  708MOL0     C95474   7.092   1.580   8.928  0.4129 -0.5898 -0.4770
  708MOL0     C95475   7.009   1.495   9.012  0.7202  1.0941 -0.3636
  708MOL0     O95476   6.874   1.514   9.021 -0.2827 -0.2532 -0.3739
  708MOL0     C95477   6.789   1.417   9.067  0.3112  0.3801 -0.5045
  708MOL0     C95478   6.777   1.391   9.209  0.5100  0.1631 -0.6473
  708MOL0     C95479   6.675   1.308   9.255  0.3699 -0.1808 -0.2919
  708MOL0     C95480   6.582   1.242   9.169  0.5239  0.3142 -0.2045
  708MOL0     O95481   6.481   1.168   9.229 -0.8887 -0.9523  0.1590
  708MOL0     C95482   6.364   1.127   9.160 -0.3551 -0.0145 -0.3665
  708MOL0     C95483   6.281   1.054   9.265 -0.0200 -0.5038  0.1949
  708MOL0     C95484   6.335   0.903   9.289  0.1586  0.6857  0.0736
  708MOL0     C95485   6.278   0.851   9.422  0.0016 -0.0293 -1.1392
  708MOL0     C95486   6.332   0.712   9.449 -0.0394 -1.0082  0.0942
  708MOL0     C95487   6.484   0.702   9.464 -0.3617 -0.2892  0.1741
  708MOL0     C95488   6.520   0.570   9.522  0.0624  0.2140 -0.5695
  708MOL0     C95489   6.658   0.513   9.495  0.1376 -0.2270  0.7189
  708MOL0    Cl95490   6.787   0.571   9.593  0.3190  0.0810 -0.2067
  708MOL0     C95491   6.599   1.254   9.032  0.2672 -0.3278 -0.6776
  708MOL0     C95492   6.699   1.350   8.986  0.0691 -0.3338  0.4013
  708MOL0     O95493   7.069   1.400   9.062  0.0098 -0.9659 -0.5325
  708MOL0     C95494   7.225   1.622   8.962 -0.0653  0.0087 -0.6117
  708MOL0     C95495   7.298   1.706   8.877 -0.4754 -0.2807 -0.3013
  708MOL0     N95496   7.916   1.946   8.268  0.6073  0.9870  0.3489
  708MOL0     N95497   7.999   1.863   8.220 -1.5847  0.0613  0.3464
  708MOL0     C95498   9.040   1.056   8.522 -0.4007  0.6560 -0.3738
  708MOL0     C95499   9.171   1.044   8.576 -0.7742  0.3951 -0.0950
  708MOL0     C95500   9.537   1.173   8.849  0.9171  0.3070 -0.4355
  708MOL0     C95501   9.640   1.163   8.753  0.0817  0.0916 -0.2446
  708MOL0     C95502   9.770   1.186   8.784  0.8615  0.0107 -0.4037
  708MOL0     C95503   9.809   1.215   8.910 -0.4105 -0.0936 -0.7529
  708MOL0     O95504   9.945   1.253   8.946  0.0219 -0.3580 -0.6978
  708MOL0     C95505  10.056   1.217   8.860 -0.1445 -0.2646  0.1249
  708MOL0     C95506  10.083   1.331   8.761 -0.4610  0.8622 -0.5565
  708MOL0     C95507  10.208   1.301   8.683  0.2971 -1.0990 -0.0827
  708MOL0     C95508  10.211   1.426   8.585 -0.4719 -0.5865  0.1460
  708MOL0     C95509  10.337   1.417   8.506  0.5266 -0.4274 -0.8138
  708MOL0     C95510  10.451   1.417   8.461 -0.1660  0.3144 -0.7652
  708MOL0     C95511   9.711   1.225   9.012 -0.0586  1.4583 -0.0810
  708MOL0     C95512   9.574   1.206   8.988  0.4364 -0.3639 -0.0915
  708MOL0     H95513   9.174   1.365   8.708  3.4364 -0.6760 -0.4964
  708MOL0     H95514   8.949   1.365   8.612 -0.3854 -1.5312 -0.5112
  708MOL0     H95515   8.762   1.046   8.635 -1.1817  0.4985  0.3290
  708MOL0     H95516   8.748   1.208   8.675 -0.1477  0.0643 -0.5979
  708MOL0     H95517   8.610   1.104   8.417 -1.8788  0.6502 -1.0646
  708MOL0     H95518   8.516   1.126   8.569  2.5952 -2.4759  1.1402
  708MOL0     H95519   8.566   1.365   8.570 -0.1256  0.8343 -0.4378
  708MOL0     H95520   8.646   1.351   8.416 -0.0701  0.7021  0.0826
  708MOL0     H95521   8.437   1.278   8.298 -1.9874  1.3007 -0.6990
  708MOL0     H95522   8.362   1.268   8.460  2.8228 -1.3377  2.3360
  708MOL0     H95523   8.388   1.508   8.472  2.0146  2.7843 -1.5818
  708MOL0     H95524   8.491   1.512   8.318  0.4660  0.9388 -0.7466
  708MOL0     H95525   8.308   1.474   8.181  2.4523  2.1024  0.4562
  708MOL0     H95526   8.215   1.397   8.320  0.9363 -1.2893 -0.7196
  708MOL0     H95527   8.171   1.624   8.421  1.6152  1.0275  0.4086
  708MOL0     H95528   8.257   1.713   8.297 -1.2546  1.4036 -0.9765
  708MOL0     H95529   8.024   1.531   8.263  0.1806 -0.6613 -0.8412
  708MOL0     H95530   8.080   1.613   8.134 -1.8733  0.2254  0.0251
  708MOL0     H95531   7.842   1.661   8.422  0.6650  2.0258  2.5367
  708MOL0     H95532   7.749   1.991   8.508 -1.7248 -0.0245  0.7167
  708MOL0     H95533   7.668   2.002   8.356 -2.9989 -2.4133  0.1463
  708MOL0     H95534   7.659   1.747   8.534 -0.3709  0.3156  0.3157
  708MOL0     H95535   7.588   1.762   8.373  0.5028  0.5271 -0.5209
  708MOL0     H95536   7.447   1.932   8.461 -4.1460 -1.0945  2.3066
  708MOL0     H95537   7.536   1.961   8.608 -0.6096  0.2937 -0.1422
  708MOL0     H95538   7.486   1.749   8.698 -2.0491  0.7250  0.9798
  708MOL0     H95539   7.393   1.695   8.549 -0.3302  1.1582 -1.6532
  708MOL0     H95540   7.062   1.736   8.629 -3.0767 -2.1668  1.6129
  708MOL0     H95541   6.906   1.567   8.635 -0.1838  1.8169  0.7222
  708MOL0     H95542   6.908   1.454   8.773 -0.0104 -0.8648 -2.2232
  708MOL0     H95543   6.818   1.608   8.786 -0.2729 -0.1230 -0.3359
  708MOL0     H95544   6.834   1.456   9.274  0.9715 -1.8592  1.0832
  708MOL0     H95545   6.649   1.303   9.360 -1.1169 -1.6023 -0.6795
  708MOL0     H95546   6.306   1.207   9.114 -2.4293 -1.1902  0.0587
  708MOL0     H95547   6.406   1.058   9.085  0.7443  0.2493 -0.0128
  708MOL0     H95548   6.277   1.119   9.353  0.8163  0.8076 -0.6840
  708MOL0     H95549   6.178   1.049   9.229 -0.7030  0.6428  1.8495
  708MOL0     H95550   6.444   0.906   9.292  0.3187 -2.6101  1.4352
  708MOL0     H95551   6.306   0.836   9.208  1.6684  0.8319 -0.6210
  708MOL0     H95552   6.297   0.917   9.508 -0.0374 -2.0937  0.5490
  708MOL0     H95553   6.169   0.846   9.415 -0.0061 -0.8485 -0.6002
  708MOL0     H95554   6.289   0.652   9.369 -2.3225 -0.4086  0.8034
  708MOL0     H95555   6.282   0.671   9.537  2.0051 -1.0850  1.2978
  708MOL0     H95556   6.519   0.719   9.361 -1.0759  2.8352  0.3397
  708MOL0     H95557   6.534   0.783   9.519 -1.0244  1.8020 -2.1001
  708MOL0     H95558   6.451   0.498   9.476 -0.5394  0.5861 -0.2721
  708MOL0     H95559   6.501   0.564   9.630  1.7477 -1.2470 -0.3105
  708MOL0     H95560   6.691   0.531   9.392  0.0106 -3.6371 -0.0162
  708MOL0     H95561   6.652   0.405   9.508 -1.3453 -0.0300  1.8517
  708MOL0     H95562   6.521   1.217   8.967 -1.5566  0.4940  0.9461
  708MOL0     H95563   6.703   1.373   8.879 -1.8858 -2.3487 -0.1803
  708MOL0     H95564   7.268   1.585   9.055  0.9747 -3.2476 -2.2280
  708MOL0     H95565   7.394   1.742   8.909 -1.0462 -0.7819  2.1747
  708MOL0     H95566   8.985   0.986   8.460  0.1892  2.0981 -2.6644
  708MOL0     H95567   9.223   0.950   8.563 -1.5881 -0.0966  0.0916
  708MOL0     H95568   9.599   1.151   8.653 -1.2016  2.8633 -0.1455
  708MOL0     H95569   9.841   1.181   8.702  1.2494 -0.0909 -0.0665
  708MOL0     H95570  10.140   1.198   8.927 -0.8666  2.3600  1.9598
  708MOL0     H95571  10.024   1.132   8.799 -1.4559  0.3105 -0.0230
  708MOL0     H95572  10.078   1.425   8.817  0.3766  0.5789  0.0157
  708MOL0     H95573   9.997   1.346   8.696 -1.0489  0.9337  0.2198
  708MOL0     H95574  10.192   1.204   8.634 -2.3957 -1.3416  1.0848
  708MOL0     H95575  10.293   1.312   8.750  1.5284  0.9814 -1.8583
  708MOL0     H95576  10.209   1.519   8.643  1.4738  0.0452 -0.7257
  708MOL0     H95577  10.121   1.428   8.523 -0.2652 -0.6373 -0.1583
  708MOL0     H95578  10.550   1.418   8.421  0.8251 -0.0343  1.5709
  708MOL0     H95579   9.747   1.258   9.109 -0.7824  1.3937  0.2112
  708MOL0     H95580   9.504   1.228   9.068 -0.9699  0.5231 -1.5149
  709MOL0     O95581   4.404   7.691   5.262 -0.2156 -0.8104 -0.2270
  709MOL0     C95582   4.411   7.653   5.379  0.7964 -0.5382 -0.2483
  709MOL0     O95583   4.520   7.583   5.432 -0.3229 -0.3422 -0.0753
  709MOL0     C95584   4.640   7.548   5.368 -0.4055 -1.5436 -0.9656
  709MOL0     C95585   4.661   7.565   5.229 -0.8858 -0.9652 -1.2921
  709MOL0     C95586   4.790   7.534   5.181 -0.2305 -0.0204 -0.1292
  709MOL0     C95587   4.892   7.480   5.270  0.8253  1.1606 -0.7383
  709MOL0     O95588   5.006   7.438   5.207  0.1052 -0.4354  0.5644
  709MOL0     C95589   5.121   7.393   5.278 -1.0484  1.1647 -0.6749
  709MOL0     C95590   5.227   7.335   5.187 -0.7631 -0.2914 -0.1774
  709MOL0     C95591   5.347   7.284   5.275 -0.1448  0.3869 -0.3780
  709MOL0     C95592   5.325   7.139   5.321 -0.2643 -0.9099  0.0404
  709MOL0     C95593   5.450   7.093   5.392 -0.4623 -0.0905  0.0405
  709MOL0     C95594   5.451   6.948   5.437 -0.5251  0.5113  0.1723
  709MOL0     C95595   5.572   6.918   5.533  0.1321 -0.1924 -0.2481
  709MOL0     C95596   5.593   6.762   5.550 -0.3484  0.5592  0.2629
  709MOL0     N95597   5.473   6.698   5.622 -0.3705  0.2933 -0.1064
  709MOL0     C95598   5.474   6.666   5.754  0.1388  0.4644  0.2819
  709MOL0     C95599   5.345   6.634   5.779 -0.5341 -0.3236 -0.3521
  709MOL0     C95600   5.300   6.602   5.920 -0.5848  0.2127  0.3895
  709MOL0     C95601   5.148   6.597   5.942  0.6440 -0.1748 -0.0705
  709MOL0     C95602   5.110   6.595   6.086 -0.2921  0.9091  0.4318
  709MOL0     C95603   4.960   6.586   6.096  0.1993 -0.8345  0.7374
  709MOL0     O95604   4.898   6.706   6.054 -0.3951 -0.9286 -0.3548
  709MOL0     C95605   4.767   6.713   6.096 -0.5257  0.6616 -0.9918
  709MOL0     C95606   4.733   6.716   6.228  0.2645 -0.3409 -0.0797
  709MOL0     C95607   4.601   6.751   6.270 -0.3855  0.6500  0.3613
  709MOL0     C95608   4.577   6.779   6.416 -0.5731 -0.0866 -0.1809
  709MOL0     C95609   4.499   6.768   6.171  0.0805  0.1117  0.3292
  709MOL0     C95610   4.361   6.804   6.197  0.5589 -0.9025  0.7448
  709MOL0     O95611   4.305   6.775   6.317  0.3203 -0.0068 -0.0434
  709MOL0     C95612   4.170   6.804   6.334  0.0051 -0.6614 -0.0834
  709MOL0     C95613   4.081   6.704   6.317  0.1123 -0.5825 -0.7520
  709MOL0     C95614   3.945   6.717   6.326  0.4899  0.0300  0.0195
  709MOL0     C95615   3.893   6.847   6.364 -0.0892  0.8654 -0.1359
  709MOL0     O95616   3.755   6.865   6.366  0.2689  0.8110 -0.7352
  709MOL0     C95617   3.669   6.776   6.447 -0.2612 -0.2358  0.6312
  709MOL0     C95618   3.531   6.762   6.385 -0.7255  0.2433  0.2180
  709MOL0     C95619   3.452   6.665   6.479  0.4502 -0.3516  0.8710
  709MOL0     C95620   3.299   6.688   6.446 -0.4784  0.1122 -0.4180
  709MOL0     C95621   3.227   6.554   6.461 -0.5126 -0.0595  0.3488
  709MOL0     C95622   3.081   6.573   6.471  0.0009 -0.1256  0.3651
  709MOL0     C95623   3.021   6.435   6.472 -0.0013  0.6015 -0.3011
  709MOL0     C95624   2.873   6.441   6.514 -0.2427 -0.6432  0.0971
  709MOL0    Cl95625   2.766   6.557   6.425 -0.0556  0.3459  0.2298
  709MOL0     C95626   3.986   6.954   6.379 -0.3699 -0.5682 -0.4236
  709MOL0     C95627   4.121   6.934   6.356 -0.1494 -0.2417  0.1172
  709MOL0     O95628   4.306   6.876   6.109 -0.7480  0.0927  0.1101
  709MOL0     C95629   4.548   6.758   6.040  1.0072 -0.2272  0.8767
  709MOL0     C95630   4.677   6.732   5.995 -0.5463 -0.1442 -0.6366
  709MOL0     N95631   5.275   6.635   5.669  0.0565 -0.3108  0.7221
  709MOL0     N95632   5.354   6.664   5.567  0.9062 -0.2266  0.1114
  709MOL0     C95633   4.868   7.463   5.405  0.0802 -0.0433 -1.1610
  709MOL0     C95634   4.742   7.493   5.452  0.4662  0.1874  0.2785
  709MOL0     C95635   4.299   7.673   5.470  0.5511  0.6660  0.3766
  709MOL0     C95636   4.183   7.733   5.415 -0.2170  0.8209 -0.5064
  709MOL0     C95637   4.078   7.759   5.501  0.2917 -1.2549  0.0870
  709MOL0     C95638   4.079   7.725   5.634 -0.0542  0.5540 -0.2780
  709MOL0     O95639   3.974   7.757   5.714 -0.5354  0.4130  0.7812
  709MOL0     C95640   3.994   7.833   5.832  0.2574  0.5657  0.0683
  709MOL0     C95641   3.861   7.837   5.904  0.1712  0.1947  0.6237
  709MOL0     C95642   3.859   7.946   6.012  0.8146  0.7492  0.3765
  709MOL0     C95643   3.719   7.967   6.068 -0.3703  0.2718  0.2372
  709MOL0     C95644   3.711   7.859   6.167  0.4575 -0.0222  0.8155
  709MOL0     C95645   3.683   7.774   6.249 -0.2915 -0.3142 -0.4530
  709MOL0     C95646   4.184   7.643   5.682  0.4908  0.0103 -0.8550
  709MOL0     C95647   4.298   7.619   5.601  0.1506 -0.0840 -0.7546
  709MOL0     H95648   4.577   7.585   5.163 -0.3620 -0.5485 -1.8469
  709MOL0     H95649   4.809   7.543   5.074 -2.3875 -1.8559 -0.7420
  709MOL0     H95650   5.166   7.467   5.344 -2.1809  0.1454  1.3330
  709MOL0     H95651   5.091   7.314   5.347  1.7280  1.8086  1.4911
  709MOL0     H95652   5.192   7.254   5.123 -0.7576 -0.1809 -0.3195
  709MOL0     H95653   5.271   7.410   5.120  0.2460  0.0964  0.8635
  709MOL0     H95654   5.446   7.291   5.229 -0.5263 -0.5483 -1.4007
  709MOL0     H95655   5.350   7.341   5.368  0.1600 -1.9765  1.1357
  709MOL0     H95656   5.235   7.130   5.383  1.4745  0.9068  3.0964
  709MOL0     H95657   5.305   7.080   5.231  1.7927  0.3078 -1.2911
  709MOL0     H95658   5.538   7.104   5.329  0.1086 -2.6230  0.3039
  709MOL0     H95659   5.468   7.145   5.486 -1.2174 -0.8668  0.6372
  709MOL0     H95660   5.359   6.943   5.496 -0.8642 -0.1264 -0.3857
  709MOL0     H95661   5.452   6.885   5.348  0.4609  0.6791  0.0490
  709MOL0     H95662   5.655   6.978   5.495 -0.6791  3.0296  2.5277
  709MOL0     H95663   5.540   6.968   5.625 -0.8543 -2.3185  0.6187
  709MOL0     H95664   5.687   6.749   5.604  0.5269 -2.4424 -1.6913
  709MOL0     H95665   5.618   6.716   5.454 -0.2588 -2.7353  1.7068
  709MOL0     H95666   5.556   6.680   5.824  0.4679  0.3396 -0.0813
  709MOL0     H95667   5.356   6.515   5.955  1.1545  1.6626  1.4188
  709MOL0     H95668   5.345   6.682   5.979  2.2357 -1.3616  0.5306
  709MOL0     H95669   5.102   6.512   5.891  1.5887 -0.2765 -0.7816
  709MOL0     H95670   5.116   6.695   5.905  3.1335  0.5929 -0.3786
  709MOL0     H95671   5.132   6.691   6.133 -1.0240  2.2301 -1.7733
  709MOL0     H95672   5.168   6.514   6.131  2.3809  1.7256 -1.2625
  709MOL0     H95673   4.938   6.560   6.200 -0.5293 -0.0216  0.8050
  709MOL0     H95674   4.924   6.503   6.035 -1.7190  0.5860 -0.1856
  709MOL0     H95675   4.802   6.699   6.310 -1.0073  4.9490  2.5618
  709MOL0     H95676   4.552   6.884   6.435  1.4147  0.4299 -0.1920
  709MOL0     H95677   4.501   6.708   6.451 -1.1536  0.2831 -0.6869
  709MOL0     H95678   4.666   6.758   6.477  0.3013  0.2372 -1.3167
  709MOL0     H95679   4.124   6.605   6.314 -1.0360 -1.1371  0.1936
  709MOL0     H95680   3.875   6.635   6.313 -1.8649  1.4034  2.8404
  709MOL0     H95681   3.714   6.676   6.447 -0.3451 -0.2769  1.2128
  709MOL0     H95682   3.658   6.818   6.547  0.5138  0.0974  0.5825
  709MOL0     H95683   3.484   6.861   6.387  0.5735  0.8873 -0.2572
  709MOL0     H95684   3.543   6.724   6.283  0.6392  3.1903 -0.8481
  709MOL0     H95685   3.467   6.682   6.586 -0.6424 -0.5455  1.0744
  709MOL0     H95686   3.480   6.563   6.453 -1.5427 -1.3585  2.4238
  709MOL0     H95687   3.258   6.766   6.511 -1.6637 -1.0050  0.2129
  709MOL0     H95688   3.287   6.722   6.343 -1.6119 -1.9973 -1.0234
  709MOL0     H95689   3.266   6.501   6.549 -1.8227 -2.5973 -0.4950
  709MOL0     H95690   3.261   6.489   6.379  2.4898 -0.6064  1.8637
  709MOL0     H95691   3.055   6.633   6.558  0.0929  1.4109 -0.6330
  709MOL0     H95692   3.055   6.630   6.381  1.5199  0.7091  0.4108
  709MOL0     H95693   3.079   6.360   6.526  1.4789  2.3223  0.6143
  709MOL0     H95694   3.023   6.404   6.367 -1.0263 -0.6635  0.0289
  709MOL0     H95695   2.867   6.463   6.621 -1.4985 -0.9690  0.1092
  709MOL0     H95696   2.835   6.339   6.504 -0.8333 -0.3909 -0.3020
  709MOL0     H95697   3.944   7.053   6.396  0.1544  0.1401 -2.8867
  709MOL0     H95698   4.191   7.016   6.365  0.7755 -0.4674 -3.4230
  709MOL0     H95699   4.470   6.769   5.965  3.3565 -0.1322 -1.6891
  709MOL0     H95700   4.695   6.737   5.888  1.7616 -0.8075 -0.3203
  709MOL0     H95701   4.947   7.431   5.472 -0.3560 -2.0585 -1.5446
  709MOL0     H95702   4.731   7.473   5.558  0.0185 -4.4329 -0.4202
  709MOL0     H95703   4.170   7.752   5.309  0.7648  0.3273 -0.7271
  709MOL0     H95704   3.986   7.804   5.464 -0.0270 -2.6108 -0.8788
  709MOL0     H95705   4.066   7.780   5.894 -1.6308  0.7884  2.6483
  709MOL0     H95706   4.024   7.934   5.804 -3.2106  2.1485  1.4044
  709MOL0     H95707   3.847   7.742   5.956  0.4624  1.2214  2.6735
  709MOL0     H95708   3.779   7.855   5.833  0.5554  1.0319  0.3809
  709MOL0     H95709   3.885   8.042   5.966 -1.3090  0.7868 -0.8954
  709MOL0     H95710   3.927   7.918   6.093  0.9501  1.0977  0.3870
  709MOL0     H95711   3.648   7.947   5.987 -0.6152  0.3191  0.4369
  709MOL0     H95712   3.707   8.066   6.114  2.5759  0.2093  1.3608
  709MOL0     H95713   3.636   7.707   6.318 -5.7370  1.0121 -2.4268
  709MOL0     H95714   4.162   7.597   5.778 -0.2030 -1.0032 -1.4756
  709MOL0     H95715   4.381   7.567   5.648 -1.4526 -0.0976  2.2955
  710MOL0     O95716   1.550   1.523   2.463  0.8669  0.0271 -0.6687
  710MOL0     C95717   1.441   1.481   2.418 -0.2166 -0.1271 -0.8838
  710MOL0     O95718   1.362   1.548   2.331  0.5290  0.1659 -1.1704
  710MOL0     C95719   1.399   1.674   2.296 -0.1555 -0.2036  0.1956
  710MOL0     C95720   1.452   1.688   2.161 -0.1084 -0.2696  0.5127
  710MOL0     C95721   1.500   1.811   2.120  0.1202 -0.0638  0.1987
  710MOL0     C95722   1.506   1.913   2.210  0.0533  0.0239 -0.7440
  710MOL0     O95723   1.566   2.037   2.187  0.5033  0.9858 -0.3515
  710MOL0     C95724   1.625   2.073   2.057 -0.4837  0.5855 -0.1457
  710MOL0     C95725   1.688   2.212   2.070 -0.8574  0.7915 -0.7695
  710MOL0     C95726   1.726   2.266   1.927 -1.0398  0.2177 -0.0368
  710MOL0     C95727   1.595   2.329   1.863 -0.3823 -0.5100  0.0703
  710MOL0     C95728   1.625   2.389   1.728  0.1144 -0.7980  0.1800
  710MOL0     C95729   1.512   2.505   1.710  0.4789 -0.2682  0.4087
  710MOL0     C95730   1.372   2.438   1.658  0.2776 -0.7485 -0.6874
  710MOL0     C95731   1.284   2.535   1.576  0.4530  0.0487  0.5654
  710MOL0     N95732   1.150   2.468   1.560 -0.4402 -0.2801  0.6913
  710MOL0     C95733   1.046   2.464   1.650 -0.2057 -0.8354  0.1228
  710MOL0     C95734   0.945   2.418   1.576  0.0936 -0.1365  0.4998
  710MOL0     C95735   0.798   2.414   1.623  0.1488 -0.1606  0.1577
  710MOL0     C95736   0.719   2.303   1.558 -0.0359 -0.1588  0.7110
  710MOL0     C95737   0.597   2.258   1.642  0.1461 -0.1793 -0.4188
  710MOL0     C95738   0.508   2.365   1.695 -0.1601 -0.6432  0.6095
  710MOL0     O95739   0.421   2.298   1.779  0.1559 -0.3966  0.1808
  710MOL0     C95740   0.285   2.336   1.787 -1.1724 -0.5034  0.1514
  710MOL0     C95741   0.191   2.231   1.813 -0.0821  0.8530 -0.1247
  710MOL0     C95742   0.055   2.264   1.825  0.1436 -0.6336 -0.2123
  710MOL0     C95743  -0.044   2.155   1.844  0.5524  0.1096  0.6851
  710MOL0     C95744   0.024   2.400   1.810  0.4396 -0.1678  1.5301
  710MOL0     C95745  -0.118   2.441   1.817 -0.6030  0.2097  0.1897
  710MOL0     O95746  -0.192   2.408   1.931  0.1252  0.5859  0.2540
  710MOL0     C95747  -0.324   2.447   1.939 -0.4696  0.2745 -0.3994
  710MOL0     C95748  -0.365   2.578   1.914  0.0028 -0.1214  0.2388
  710MOL0     C95749  -0.495   2.618   1.948  0.2713 -0.4613 -0.6668
  710MOL0     C95750  -0.591   2.516   1.986 -0.0298 -0.4298  0.1521
  710MOL0     O95751  -0.724   2.561   2.016  0.4518 -0.3307 -0.0886
  710MOL0     C95752  -0.794   2.484   2.115  0.6254  0.1662 -0.3140
  710MOL0     C95753  -0.889   2.582   2.199  0.3834  0.4411  0.8134
  710MOL0     C95754  -0.984   2.660   2.105 -0.6522 -0.1209 -0.8762
  710MOL0     C95755  -1.093   2.729   2.183 -0.1484 -0.0380 -1.1997
  710MOL0     C95756  -1.176   2.821   2.091  0.8398 -0.9822  0.1222
  710MOL0     C95757  -1.297   2.880   2.164  0.8420  0.9671 -0.9547
  710MOL0     C95758  -1.413   2.777   2.177 -0.1547  0.1578 -0.3746
  710MOL0     C95759  -1.544   2.829   2.220  0.3528 -0.4282  0.4541
  710MOL0    Cl95760  -1.525   2.914   2.374 -0.1388  0.2408 -0.1307
  710MOL0     C95761  -0.560   2.383   1.989 -0.5471  0.0803 -0.5677
  710MOL0     C95762  -0.422   2.352   1.970  0.3992  0.7701 -0.5934
  710MOL0     O95763  -0.157   2.512   1.730 -0.4176  0.5878 -0.0739
  710MOL0     C95764   0.113   2.503   1.794 -0.1690  0.1564  0.8659
  710MOL0     C95765   0.242   2.468   1.771 -0.4659  0.3122 -0.2325
  710MOL0     N95766   1.001   2.356   1.463 -0.8229  0.5779 -0.2366
  710MOL0     N95767   1.122   2.389   1.458  0.1849  0.1085  0.4196
  710MOL0     C95768   1.445   1.901   2.334  0.3109 -0.4316  0.4491
  710MOL0     C95769   1.387   1.785   2.379 -1.1329  0.1333  0.1978
  710MOL0     C95770   1.411   1.340   2.443 -0.0424 -0.0971  0.2323
  710MOL0     C95771   1.511   1.259   2.505  0.0477  0.9093 -0.1638
  710MOL0     C95772   1.475   1.126   2.534  0.5849  0.2541  0.3733
  710MOL0     C95773   1.347   1.075   2.510 -0.5443 -0.5117 -0.2554
  710MOL0     O95774   1.303   0.951   2.541  0.6769 -0.4963  0.3965
  710MOL0     C95775   1.374   0.883   2.642 -0.4232  0.2172 -0.6353
  710MOL0     C95776   1.487   0.804   2.568 -0.4563  0.0202 -0.0202
  710MOL0     C95777   1.445   0.669   2.526 -0.1220  0.2760 -0.3555
  710MOL0     C95778   1.544   0.603   2.436  0.5059 -0.4680  0.2863
  710MOL0     C95779   1.666   0.556   2.509 -0.4936  1.0049  0.2870
  710MOL0     C95780   1.764   0.524   2.568 -0.4603 -0.2966  0.5047
  710MOL0     C95781   1.265   1.148   2.429 -0.0069 -0.0301 -0.6146
  710MOL0     C95782   1.295   1.281   2.395  0.6294  0.2995 -0.3376
  710MOL0     H95783   1.455   1.595   2.104 -1.1024  0.0759 -0.1389
  710MOL0     H95784   1.560   1.826   2.032  0.7475  2.5531  0.9880
  710MOL0     H95785   1.700   2.004   2.017  1.4322  2.7869 -0.5647
  710MOL0     H95786   1.541   2.079   1.988 -0.8401 -1.8128  0.0125
  710MOL0     H95787   1.625   2.283   2.124  0.7650  0.4773  1.7155
  710MOL0     H95788   1.780   2.207   2.129 -1.2945 -1.3588 -0.1822
  710MOL0     H95789   1.806   2.340   1.931 -0.8530  0.0466 -0.5363
  710MOL0     H95790   1.754   2.192   1.851 -0.6900 -0.3969  0.6775
  710MOL0     H95791   1.517   2.253   1.849 -0.7103 -0.2474  0.4730
  710MOL0     H95792   1.557   2.401   1.936  0.8940 -0.1683  0.4100
  710MOL0     H95793   1.724   2.434   1.713  0.0327  0.1982  2.2957
  710MOL0     H95794   1.607   2.313   1.652 -3.1857  0.6855 -0.7065
  710MOL0     H95795   1.486   2.566   1.797 -1.3270 -0.6803  0.1982
  710MOL0     H95796   1.561   2.555   1.626 -3.7044  1.0498 -1.5258
  710MOL0     H95797   1.395   2.348   1.600  1.2664 -0.0293 -1.4308
  710MOL0     H95798   1.318   2.394   1.743 -0.2824 -0.1327 -0.7195
  710MOL0     H95799   1.332   2.556   1.480 -1.4978 -1.5255 -0.8447
  710MOL0     H95800   1.263   2.634   1.618  0.7187  0.9271 -1.2835
  710MOL0     H95801   1.055   2.509   1.749  1.2706 -1.1153  0.1393
  710MOL0     H95802   0.799   2.394   1.730 -2.4354  1.9556  0.6826
  710MOL0     H95803   0.752   2.509   1.597  3.1991  0.6416 -3.2380
  710MOL0     H95804   0.791   2.224   1.532 -0.2557  0.2584 -1.3218
  710MOL0     H95805   0.681   2.341   1.463 -0.3300 -1.9370  0.0761
  710MOL0     H95806   0.639   2.210   1.731 -0.4988 -0.3569 -0.2077
  710MOL0     H95807   0.528   2.189   1.593 -1.6489  1.4061 -0.2206
  710MOL0     H95808   0.451   2.412   1.614  0.5252 -2.1743 -0.8129
  710MOL0     H95809   0.568   2.446   1.738 -1.9996  1.4380 -0.5006
  710MOL0     H95810   0.221   2.127   1.816 -3.1497 -0.1024  1.4067
  710MOL0     H95811  -0.117   2.158   1.763  1.1092  3.2918  0.1479
  710MOL0     H95812   0.004   2.057   1.855 -1.1443 -0.9795 -1.0602
  710MOL0     H95813  -0.095   2.172   1.939 -1.8002 -0.0387 -0.4852
  710MOL0     H95814  -0.287   2.650   1.891  1.5284 -0.4993  3.7004
  710MOL0     H95815  -0.534   2.719   1.939  0.8266 -0.2063 -0.2114
  710MOL0     H95816  -0.851   2.401   2.073  0.1686  0.3331 -0.0223
  710MOL0     H95817  -0.723   2.433   2.181  1.9285  0.6467 -1.2759
  710MOL0     H95818  -0.940   2.522   2.274 -0.3378 -0.4538 -0.3481
  710MOL0     H95819  -0.823   2.660   2.239 -0.6031  2.9756 -2.0599
  710MOL0     H95820  -1.024   2.596   2.026 -2.1879  1.1280 -1.1477
  710MOL0     H95821  -0.919   2.730   2.052 -0.6630 -1.8188 -3.3211
  710MOL0     H95822  -1.153   2.648   2.226 -1.1998 -0.4494 -3.2781
  710MOL0     H95823  -1.038   2.783   2.260  1.1970  0.6676 -2.5793
  710MOL0     H95824  -1.213   2.767   2.004  0.8670  0.3618 -0.7445
  710MOL0     H95825  -1.119   2.906   2.054  2.7220 -2.4227 -0.4881
  710MOL0     H95826  -1.278   2.901   2.269  0.9033 -1.3318 -0.4686
  710MOL0     H95827  -1.339   2.966   2.111  2.0541  1.1820 -1.6150
  710MOL0     H95828  -1.371   2.697   2.238  1.3380  0.9149 -0.3622
  710MOL0     H95829  -1.423   2.728   2.079  3.6377 -2.0695  0.1269
  710MOL0     H95830  -1.620   2.751   2.231  0.2379 -0.9978 -3.1884
  710MOL0     H95831  -1.573   2.900   2.141  0.6692 -1.2128 -0.3893
  710MOL0     H95832  -0.633   2.308   2.020  0.3240 -2.2758 -3.7760
  710MOL0     H95833  -0.389   2.249   1.976 -2.8997 -0.4777 -1.5314
  710MOL0     H95834   0.077   2.605   1.781 -1.2079 -0.2214  0.6374
  710MOL0     H95835   0.317   2.547   1.766 -0.0227  0.0218  1.1159
  710MOL0     H95836   1.450   1.983   2.405 -0.7686  2.6200 -2.7628
  710MOL0     H95837   1.337   1.785   2.475 -2.7468 -0.1319 -0.6169
  710MOL0     H95838   1.612   1.288   2.530  1.5314 -1.4315 -2.7505
  710MOL0     H95839   1.555   1.061   2.568 -0.1753 -0.7418  0.3104
  710MOL0     H95840   1.404   0.956   2.718 -3.7642  1.9235 -0.7173
  710MOL0     H95841   1.299   0.822   2.693 -1.0590  2.6570  1.6339
  710MOL0     H95842   1.581   0.807   2.623  0.8158  3.3602 -2.0622
  710MOL0     H95843   1.518   0.857   2.478  1.6900 -2.0589 -0.5914
  710MOL0     H95844   1.353   0.684   2.469 -0.1252 -1.1720 -0.7668
  710MOL0     H95845   1.426   0.606   2.613  1.6786 -2.0034 -1.4889
  710MOL0     H95846   1.569   0.664   2.349 -4.4253 -0.9926 -1.8466
  710MOL0     H95847   1.497   0.507   2.412  2.5866 -2.1085  2.3205
  710MOL0     H95848   1.855   0.514   2.624 -1.3396 -3.2470  1.5726
  710MOL0     H95849   1.168   1.105   2.407  0.5042 -1.7269  0.2358
  710MOL0     H95850   1.221   1.325   2.329 -0.8890 -0.3084  0.9058
  711MOL0     O95851   5.047  10.469   3.714 -0.3699 -0.5531 -0.0859
  711MOL0     C95852   5.125  10.562   3.734 -0.9620  0.6825  0.2608
  711MOL0     O95853   5.099  10.693   3.760  0.6208  0.2284  0.0089
  711MOL0     C95854   4.982  10.752   3.784  0.0427  0.7862 -0.6635
  711MOL0     C95855   4.863  10.699   3.735  0.4705  0.4791 -0.7260
  711MOL0     C95856   4.736  10.769   3.758  0.0704 -0.0122  0.7644
  711MOL0     C95857   4.729  10.884   3.835 -0.4960 -0.7134 -0.7648
  711MOL0     O95858   4.606  10.943   3.852  0.1200 -0.0164 -0.9197
  711MOL0     C95859   4.606  11.060   3.938 -0.1152  0.3811  0.1542
  711MOL0     C95860   4.463  11.119   3.930 -1.0261 -0.2920  0.6132
  711MOL0     C95861   4.365  11.033   4.018 -0.8858  0.3881 -0.4131
  711MOL0     C95862   4.217  11.080   4.021  0.1940  0.0770  0.8665
  711MOL0     C95863   4.202  11.193   4.110 -0.6693 -0.6120 -0.1468
  711MOL0     C95864   4.056  11.230   4.150  0.8553 -0.4910 -0.4445
  711MOL0     C95865   4.037  11.354   4.243  1.1182  0.7435 -0.2266
  711MOL0     C95866   3.882  11.376   4.258 -0.3105  0.6000 -0.2352
  711MOL0     N95867   3.816  11.283   4.353 -0.7363  0.1795  0.0948
  711MOL0     C95868   3.772  11.320   4.471  0.3510 -0.9864 -0.6107
  711MOL0     C95869   3.680  11.226   4.502 -0.9040 -1.0522  0.0170
  711MOL0     C95870   3.599  11.211   4.618 -0.0312  0.6758 -0.1664
  711MOL0     C95871   3.453  11.270   4.608 -0.9311  0.3149  0.7679
  711MOL0     C95872   3.358  11.193   4.511 -0.6756 -0.5807 -0.2296
  711MOL0     C95873   3.220  11.254   4.519 -0.1604 -0.0616 -0.6380
  711MOL0     O95874   3.218  11.402   4.519  0.1678  0.6621 -0.1633
  711MOL0     C95875   3.093  11.450   4.478 -0.0298 -0.5386 -0.4400
  711MOL0     C95876   3.087  11.572   4.416  0.3500 -0.6831  0.2223
  711MOL0     C95877   2.970  11.639   4.379 -0.8041  0.3375  0.6897
  711MOL0     C95878   2.988  11.757   4.286  0.2236 -0.5211 -0.2537
  711MOL0     C95879   2.845  11.588   4.426  0.1638  0.1486  0.2852
  711MOL0     C95880   2.717  11.658   4.407 -0.3822 -0.1525  0.1895
  711MOL0     O95881   2.623  11.615   4.492 -1.0914 -0.2707  0.4520
  711MOL0     C95882   2.495  11.661   4.484 -0.4709 -0.0964 -0.5009
  711MOL0     C95883   2.428  11.715   4.372 -0.0303  0.3479 -0.7214
  711MOL0     C95884   2.301  11.758   4.388 -0.0346  0.1343 -0.0236
  711MOL0     C95885   2.228  11.751   4.502  0.3646 -0.4874  0.2237
  711MOL0     O95886   2.093  11.786   4.504 -0.2729 -0.4141  0.8448
  711MOL0     C95887   2.062  11.882   4.607  0.3615 -0.2367 -0.1305
  711MOL0     C95888   1.920  11.922   4.564  0.6849 -0.1018  0.0030
  711MOL0     C95889   1.928  12.054   4.482 -0.2958 -0.0965  0.0947
  711MOL0     C95890   1.797  12.108   4.419 -0.0088  0.2831 -0.9774
  711MOL0     C95891   1.676  12.103   4.516 -0.2042  0.9141  0.3918
  711MOL0     C95892   1.562  12.174   4.450  0.2542 -0.2542 -0.1486
  711MOL0     C95893   1.425  12.167   4.525  0.0243  0.7271  0.6970
  711MOL0     C95894   1.374  12.027   4.541 -0.6470  0.3155 -0.0769
  711MOL0    Cl95895   1.328  11.965   4.398 -0.1159  0.0077 -0.0292
  711MOL0     C95896   2.294  11.704   4.621  0.3036  0.0896  0.5759
  711MOL0     C95897   2.426  11.656   4.609  0.3103 -0.1093  0.3916
  711MOL0     O95898   2.700  11.745   4.317  0.3380  0.0086  0.7102
  711MOL0     C95899   2.846  11.455   4.480 -0.4663  0.7242 -0.0282
  711MOL0     C95900   2.964  11.388   4.505 -0.2222 -0.0537  0.5102
  711MOL0     N95901   3.685  11.124   4.404 -0.0360  0.0212  0.0604
  711MOL0     N95902   3.762  11.167   4.315  0.2217 -0.0568  0.1595
  711MOL0     C95903   4.844  10.920   3.903  0.0946 -0.2471 -0.8993
  711MOL0     C95904   4.968  10.863   3.868 -0.7671  0.8167 -0.2219
  711MOL0     C95905   5.273  10.537   3.714 -0.0570  0.5705 -0.8603
  711MOL0     C95906   5.361  10.641   3.753  1.3580  0.5327 -0.9769
  711MOL0     C95907   5.495  10.629   3.729 -0.1359 -0.1357 -0.4589
  711MOL0     C95908   5.553  10.511   3.682 -0.2405 -0.3716  0.4002
  711MOL0     O95909   5.687  10.511   3.656 -0.6813 -0.2082  0.3330
  711MOL0     C95910   5.766  10.390   3.673  0.5208  0.2536  0.3437
  711MOL0     C95911   5.915  10.408   3.679 -0.1970 -0.3771  0.0714
  711MOL0     C95912   5.990  10.275   3.703 -0.2659  0.5311  0.2915
  711MOL0     C95913   6.138  10.296   3.716  0.0350  0.4912  0.7289
  711MOL0     C95914   6.201  10.169   3.693 -0.2017 -0.2338  0.8838
  711MOL0     C95915   6.257  10.063   3.672  0.1265 -0.4929 -0.6463
  711MOL0     C95916   5.467  10.404   3.657 -0.7064 -0.0906 -0.4009
  711MOL0     C95917   5.328  10.412   3.676  0.2769 -0.2090  0.3697
  711MOL0     H95918   4.850  10.601   3.691  1.9736  1.4305 -3.5167
  711MOL0     H95919   4.646  10.723   3.720  1.7492 -1.4801 -1.6471
  711MOL0     H95920   4.636  11.034   4.040 -1.1192  1.2382  0.6929
  711MOL0     H95921   4.675  11.137   3.902 -0.4494  0.4079 -0.4393
  711MOL0     H95922   4.466  11.221   3.970  2.1567  1.0553 -2.4875
  711MOL0     H95923   4.421  11.133   3.830 -0.0613  0.9184  0.3550
  711MOL0     H95924   4.356  10.930   3.982 -3.7907  0.8145 -1.1918
  711MOL0     H95925   4.403  11.042   4.121 -0.0981 -0.8922 -0.5774
  711MOL0     H95926   4.182  11.106   3.921  0.5751 -0.2017  0.6561
  711MOL0     H95927   4.165  10.996   4.068 -0.3455 -0.0679  0.0365
  711MOL0     H95928   4.260  11.172   4.200 -1.6778  1.4366  1.0648
  711MOL0     H95929   4.247  11.282   4.066 -1.7120  1.2047  2.2051
  711MOL0     H95930   3.991  11.231   4.061 -0.7321 -2.5648  0.6127
  711MOL0     H95931   4.026  11.139   4.202  0.3986  0.2398  0.6229
  711MOL0     H95932   4.090  11.337   4.337  3.3831 -1.8139 -1.7889
  711MOL0     H95933   4.092  11.435   4.194  2.5722 -0.9487 -1.5587
  711MOL0     H95934   3.831  11.364   4.162 -0.8634 -0.9371  0.2204
  711MOL0     H95935   3.867  11.477   4.296 -2.5573  0.1058  0.3336
  711MOL0     H95936   3.802  11.409   4.526  4.0472 -1.7328 -1.1630
  711MOL0     H95937   3.589  11.103   4.627 -1.0827  0.5680 -1.9737
  711MOL0     H95938   3.655  11.253   4.702  0.5716 -0.7914  0.1857
  711MOL0     H95939   3.466  11.373   4.575  0.0777  0.4600  1.5793
  711MOL0     H95940   3.406  11.277   4.707  0.8616  2.4507  1.5359
  711MOL0     H95941   3.352  11.086   4.536 -0.4807 -0.1955  1.5812
  711MOL0     H95942   3.394  11.199   4.408 -1.3354  1.2154 -0.3770
  711MOL0     H95943   3.166  11.220   4.607  0.5139 -2.2744 -1.0247
  711MOL0     H95944   3.165  11.208   4.436  2.0239 -1.4574 -1.4037
  711MOL0     H95945   3.181  11.623   4.398 -0.8403  1.8430  0.7862
  711MOL0     H95946   2.921  11.747   4.201  2.1768  1.3345 -2.1173
  711MOL0     H95947   2.973  11.853   4.336 -0.9857 -0.5569 -0.5178
  711MOL0     H95948   3.090  11.753   4.245  0.6070 -2.0391  0.7452
  711MOL0     H95949   2.473  11.730   4.275 -0.9199  1.5914 -0.9485
  711MOL0     H95950   2.250  11.800   4.301 -1.0266 -2.6365 -0.9086
  711MOL0     H95951   2.054  11.837   4.707  0.0126  0.8077  0.3285
  711MOL0     H95952   2.137  11.962   4.611  0.2383  0.0648 -2.4088
  711MOL0     H95953   1.864  11.846   4.508  1.8393 -0.6709 -0.4039
  711MOL0     H95954   1.859  11.930   4.654 -1.8635  0.6378 -1.6799
  711MOL0     H95955   1.998  12.023   4.404  2.2277 -0.3393  2.2996
  711MOL0     H95956   1.978  12.137   4.532 -1.6228  0.7231  0.1014
  711MOL0     H95957   1.813  12.211   4.386  1.6667  0.0230 -1.0937
  711MOL0     H95958   1.767  12.045   4.335 -4.6158  1.3679 -0.4070
  711MOL0     H95959   1.701  12.158   4.608  1.8107 -1.9193  1.6822
  711MOL0     H95960   1.652  11.998   4.534 -2.3167  1.2542 -0.1917
  711MOL0     H95961   1.585  12.281   4.445 -2.8923  0.5928  0.8673
  711MOL0     H95962   1.550  12.125   4.353 -0.5621  1.5668 -1.0051
  711MOL0     H95963   1.354  12.226   4.466 -0.4461  1.0967  1.6194
  711MOL0     H95964   1.426  12.210   4.625  0.9763  0.3037  0.8781
  711MOL0     H95965   1.287  12.032   4.608 -0.1988  0.2569  0.5196
  711MOL0     H95966   1.453  11.966   4.584 -0.0183  1.2783  0.1689
  711MOL0     H95967   2.242  11.704   4.716  1.5196 -1.7685  1.3067
  711MOL0     H95968   2.480  11.598   4.683  1.0684 -2.1777 -1.6251
  711MOL0     H95969   2.760  11.398   4.513  0.8822 -1.5025 -0.2134
  711MOL0     H95970   2.964  11.293   4.557  0.5936  0.7185  1.9731
  711MOL0     H95971   4.839  11.010   3.964 -3.8757 -1.3000  0.6964
  711MOL0     H95972   5.058  10.900   3.915 -0.5260  1.5398 -1.2240
  711MOL0     H95973   5.327  10.736   3.792 -0.5124 -0.6531  0.4824
  711MOL0     H95974   5.559  10.714   3.750 -0.4952  0.0124  0.0770
  711MOL0     H95975   5.733  10.322   3.752 -1.8258 -1.6696 -2.1365
  711MOL0     H95976   5.763  10.328   3.583  0.4499  1.6851 -0.6844
  711MOL0     H95977   5.946  10.481   3.754  1.6297 -1.6713  0.6653
  711MOL0     H95978   5.943  10.457   3.586 -0.5049  1.7604  1.0583
  711MOL0     H95979   5.969  10.209   3.618 -0.2583 -0.9557  1.4067
  711MOL0     H95980   5.967  10.227   3.798  0.1693  2.9008  1.6577
  711MOL0     H95981   6.150  10.326   3.821 -1.1562  1.9340  0.4917
  711MOL0     H95982   6.172  10.378   3.652 -0.5478 -1.3857 -2.1735
  711MOL0     H95983   6.308   9.970   3.659 -0.7164 -0.7349 -2.5878
  711MOL0     H95984   5.510  10.314   3.613 -1.6864 -1.4411  1.2854
  711MOL0     H95985   5.268  10.321   3.668 -0.7518  0.5661 -1.3668
  712MOL0     O95986  10.470   7.280   2.677  0.3502  0.5589 -0.1441
  712MOL0     C95987  10.503   7.385   2.724  0.4843 -0.6104  0.6514
  712MOL0     O95988  10.420   7.494   2.733  0.1648 -0.0663  0.3133
  712MOL0     C95989  10.292   7.476   2.688 -0.7667  0.1459  0.2765
  712MOL0     C95990  10.201   7.403   2.761 -0.2629  0.8895  0.4433
  712MOL0     C95991  10.065   7.401   2.720  0.0016 -0.0386  0.8655
  712MOL0     C95992  10.027   7.483   2.611  0.8326  0.0430 -0.1989
  712MOL0     O95993   9.897   7.489   2.556  0.0053 -0.4358 -0.2679
  712MOL0     C95994   9.785   7.422   2.618 -0.9147 -0.3315  0.3262
  712MOL0     C95995   9.655   7.470   2.557 -0.4934  0.0664  0.6776
  712MOL0     C95996   9.536   7.432   2.631 -0.4053 -1.4882 -0.5794
  712MOL0     C95997   9.501   7.287   2.615 -0.0397  0.2618 -0.1036
  712MOL0     C95998   9.389   7.252   2.717 -0.3601  0.6637 -1.5733
  712MOL0     C95999   9.353   7.100   2.695  0.1728 -0.6301  0.7265
  712MOL0     C96000   9.258   7.062   2.800  0.3562  0.5168 -0.1089
  712MOL0     C96001   9.212   6.914   2.799 -0.5335  0.4525 -0.1535
  712MOL0     N96002   9.143   6.865   2.916 -0.6639 -0.1697  0.1728
  712MOL0     C96003   9.203   6.850   3.041 -0.0155 -0.1940  0.7067
  712MOL0     C96004   9.108   6.797   3.121  0.7567  0.0346  1.0805
  712MOL0     C96005   9.121   6.773   3.270  0.6198  0.1343  0.2110
  712MOL0     C96006   9.061   6.885   3.348 -0.0603  0.5294  0.1438
  712MOL0     C96007   8.911   6.868   3.343 -0.4099 -0.2175 -0.3317
  712MOL0     C96008   8.832   6.974   3.269 -0.6451  0.5586 -0.2754
  712MOL0     O96009   8.700   6.926   3.265  0.4187 -0.7121  0.7323
  712MOL0     C96010   8.601   7.011   3.207  0.1471  0.3406 -0.3522
  712MOL0     C96011   8.476   6.959   3.168 -0.1161 -0.3524  0.3421
  712MOL0     C96012   8.370   7.030   3.105 -0.8292  0.1802 -1.1333
  712MOL0     C96013   8.260   6.951   3.060 -0.5585 -0.4999 -0.1816
  712MOL0     C96014   8.394   7.173   3.090  1.0253  0.0975  0.2825
  712MOL0     C96015   8.291   7.262   3.036 -0.4474 -0.9473  0.5796
  712MOL0     O96016   8.333   7.377   2.984 -0.2116 -0.0817 -0.7336
  712MOL0     C96017   8.252   7.463   2.915 -0.8259  0.6613 -0.4035
  712MOL0     C96018   8.305   7.537   2.812  0.4807 -0.1659 -0.1867
  712MOL0     C96019   8.231   7.637   2.755  0.2327 -0.2120  0.0522
  712MOL0     C96020   8.107   7.680   2.799 -0.3513  0.5793  0.4051
  712MOL0     O96021   8.040   7.791   2.750  0.3804 -0.8413  0.1796
  712MOL0     C96022   8.062   7.856   2.624 -0.3834  0.8027 -0.9485
  712MOL0     C96023   7.950   7.952   2.572 -0.2564 -0.5779  0.3086
  712MOL0     C96024   7.807   7.894   2.555 -0.6521 -1.0331 -0.1981
  712MOL0     C96025   7.803   7.768   2.457 -0.9657 -1.0750  0.2313
  712MOL0     C96026   7.667   7.700   2.451  0.0648 -0.3389  0.1106
  712MOL0     C96027   7.553   7.786   2.397  0.0398  0.0539 -0.3040
  712MOL0     C96028   7.419   7.711   2.387  0.5515  0.1809 -0.3846
  712MOL0     C96029   7.314   7.795   2.315 -0.3765 -0.3830 -0.3417
  712MOL0    Cl96030   7.337   7.780   2.145 -0.1475  0.1038 -0.5082
  712MOL0     C96031   8.047   7.606   2.902 -0.3050  0.6649  0.0943
  712MOL0     C96032   8.118   7.499   2.959  0.1556 -0.2677 -0.3728
  712MOL0     O96033   8.181   7.222   3.001 -0.4213  0.6677  0.4243
  712MOL0     C96034   8.511   7.229   3.136 -0.5926  0.1319  0.9615
  712MOL0     C96035   8.616   7.149   3.186  0.2039  0.2423 -0.5015
  712MOL0     N96036   8.994   6.782   3.038  0.2989  0.0140  0.0483
  712MOL0     N96037   9.015   6.822   2.921 -0.6435 -0.3922 -0.2133
  712MOL0     C96038  10.117   7.561   2.546 -0.4148 -0.2376  0.0307
  712MOL0     C96039  10.254   7.559   2.583  0.3731 -0.1756 -0.4216
  712MOL0     C96040  10.638   7.400   2.775  0.2926 -0.0361 -0.5280
  712MOL0     C96041  10.663   7.496   2.869 -1.0872 -0.5071  0.2073
  712MOL0     C96042  10.794   7.508   2.931  0.6935 -0.1931  1.1699
  712MOL0     C96043  10.891   7.420   2.886  0.7375 -0.0588 -0.1610
  712MOL0     O96044  11.013   7.420   2.958  0.4292  0.2144 -0.3506
  712MOL0     C96045  11.127   7.396   2.875 -0.2788  0.8218  0.5264
  712MOL0     C96046  11.244   7.469   2.937  0.1156  0.2049  0.7714
  712MOL0     C96047  11.364   7.468   2.840  0.5727 -0.3083  0.1491
  712MOL0     C96048  11.471   7.574   2.885  0.1302  0.7753 -0.3755
  712MOL0     C96049  11.434   7.707   2.844 -0.9606 -0.7105  0.1739
  712MOL0     C96050  11.409   7.823   2.817  0.3609 -0.6406 -0.3380
  712MOL0     C96051  10.859   7.324   2.784  0.1550 -0.8337  0.1181
  712MOL0     C96052  10.739   7.321   2.726  0.2882  0.6084  0.0790
  712MOL0     H96053  10.222   7.351   2.853  0.9166 -1.6962 -1.1645
  712MOL0     H96054   9.998   7.328   2.765  1.1507  0.1092  2.9734
  712MOL0     H96055   9.795   7.316   2.593 -0.5443 -0.1827 -0.1857
  712MOL0     H96056   9.792   7.442   2.726  0.8522  3.8852 -0.3797
  712MOL0     H96057   9.666   7.577   2.535  1.9703  0.1610  1.9891
  712MOL0     H96058   9.645   7.415   2.463 -0.2727  0.7114  0.2696
  712MOL0     H96059   9.546   7.451   2.738 -1.7346 -1.0432 -0.5150
  712MOL0     H96060   9.445   7.488   2.606  0.0566 -1.1239 -1.4902
  712MOL0     H96061   9.457   7.279   2.515  0.4259  0.6456 -0.3423
  712MOL0     H96062   9.583   7.221   2.643  1.4184  1.7730 -0.6477
  712MOL0     H96063   9.409   7.270   2.823 -0.5487 -1.8921 -1.0293
  712MOL0     H96064   9.301   7.315   2.701 -1.8376 -1.0437 -0.5398
  712MOL0     H96065   9.307   7.083   2.597 -0.3174  2.0336  0.4081
  712MOL0     H96066   9.438   7.034   2.716  0.4227 -0.2940  0.7859
  712MOL0     H96067   9.324   7.073   2.886  1.4339 -0.3103 -0.8053
  712MOL0     H96068   9.170   7.126   2.812  0.1156  0.1324  0.2611
  712MOL0     H96069   9.307   6.861   2.786 -0.6846  0.2982 -0.6206
  712MOL0     H96070   9.153   6.897   2.709  0.4369 -2.7984 -0.3255
  712MOL0     H96071   9.304   6.878   3.068  0.0128  0.4264  0.0026
  712MOL0     H96072   9.074   6.679   3.300  1.9311 -0.3079  0.9871
  712MOL0     H96073   9.228   6.761   3.289  1.4295 -0.2531 -3.5825
  712MOL0     H96074   9.101   6.975   3.300 -0.1599 -1.4603 -4.1415
  712MOL0     H96075   9.081   6.881   3.455  1.3761  1.4179 -0.0701
  712MOL0     H96076   8.871   6.854   3.444 -1.2400 -0.4396 -0.6839
  712MOL0     H96077   8.877   6.773   3.301 -0.6703  0.8889 -2.7828
  712MOL0     H96078   8.871   6.980   3.167  0.2782 -1.9742 -0.1430
  712MOL0     H96079   8.849   7.069   3.320  0.8680  0.0114  0.2899
  712MOL0     H96080   8.462   6.853   3.190  0.7970 -0.8686 -1.3628
  712MOL0     H96081   8.254   6.973   2.953  1.9117  0.4695 -0.1889
  712MOL0     H96082   8.287   6.846   3.075 -0.4347 -1.2733 -4.5306
  712MOL0     H96083   8.168   6.968   3.117 -0.9681 -0.8422 -0.7247
  712MOL0     H96084   8.407   7.528   2.776  0.2780  1.9500 -1.4849
  712MOL0     H96085   8.276   7.697   2.676  3.8353 -1.5458  0.9073
  712MOL0     H96086   8.148   7.922   2.637 -0.3796  0.4506  1.0458
  712MOL0     H96087   8.096   7.787   2.545  1.1285  1.6734 -1.0929
  712MOL0     H96088   7.949   8.031   2.647  0.8661 -1.3694  1.1970
  712MOL0     H96089   7.985   8.002   2.481  1.6938 -1.8164  0.3092
  712MOL0     H96090   7.745   7.972   2.510  2.3770  1.3765 -0.4635
  712MOL0     H96091   7.758   7.869   2.650  1.3421 -0.7849  0.9376
  712MOL0     H96092   7.828   7.805   2.357  1.6889  0.5958  1.3988
  712MOL0     H96093   7.875   7.695   2.495 -0.7072  0.5018  3.0633
  712MOL0     H96094   7.642   7.670   2.554  0.0596 -0.8893 -0.0478
  712MOL0     H96095   7.679   7.616   2.383 -0.2896 -0.6355  0.4119
  712MOL0     H96096   7.545   7.878   2.456 -2.8894  1.1981 -2.2626
  712MOL0     H96097   7.584   7.811   2.295 -0.7250  0.4688 -0.4433
  712MOL0     H96098   7.376   7.688   2.485 -2.4572 -2.0475 -2.0645
  712MOL0     H96099   7.425   7.612   2.341 -0.2167  1.2501 -2.9731
  712MOL0     H96100   7.319   7.899   2.350  2.1347 -0.6785  0.3626
  712MOL0     H96101   7.225   7.745   2.354  0.7061 -2.4472 -0.3845
  712MOL0     H96102   7.947   7.626   2.939 -1.1210 -2.3175 -0.2413
  712MOL0     H96103   8.084   7.442   3.045  3.2319  0.8144  1.7229
  712MOL0     H96104   8.536   7.335   3.131  4.1836 -0.8223 -2.8075
  712MOL0     H96105   8.710   7.200   3.206 -0.2631  0.6727  0.6744
  712MOL0     H96106  10.088   7.645   2.484  2.5340  2.4298  1.9927
  712MOL0     H96107  10.331   7.628   2.549  2.3665 -3.2121 -2.6444
  712MOL0     H96108  10.583   7.560   2.903 -2.5955 -1.4512 -1.4126
  712MOL0     H96109  10.828   7.583   3.001 -1.2718  1.2270  0.7038
  712MOL0     H96110  11.135   7.287   2.868  0.9157  0.8218  1.5686
  712MOL0     H96111  11.110   7.418   2.769  1.4384 -0.1346  0.0173
  712MOL0     H96112  11.276   7.429   3.034  1.5097 -1.2790 -0.2674
  712MOL0     H96113  11.222   7.575   2.953  0.9370  0.5820 -0.4807
  712MOL0     H96114  11.330   7.487   2.738  1.1667  1.4684  0.2439
  712MOL0     H96115  11.409   7.371   2.864 -0.4626 -0.4042  1.8787
  712MOL0     H96116  11.564   7.548   2.834  1.0225  0.7593  1.1864
  712MOL0     H96117  11.484   7.560   2.993 -0.0719 -0.8649 -0.5316
  712MOL0     H96118  11.391   7.928   2.803  2.4296 -0.0510  0.9192
  712MOL0     H96119  10.929   7.246   2.756  3.4733  0.9429  2.7894
  712MOL0     H96120  10.725   7.246   2.649  1.0268  2.2652 -1.7732
  713MOL0     O96121  10.992  10.508   1.843  0.6493  0.2405 -0.0510
  713MOL0     C96122  11.088  10.479   1.775 -0.1099  0.4762  0.2582
  713MOL0     O96123  11.094  10.384   1.674  0.0599 -0.4641  0.3938
  713MOL0     C96124  10.975  10.338   1.641  0.3919  0.7335  0.1380
  713MOL0     C96125  10.934  10.366   1.513  0.0291 -0.1841  1.2920
  713MOL0     C96126  10.820  10.293   1.458 -0.4396 -0.0786  0.6534
  713MOL0     C96127  10.739  10.213   1.539 -0.2707  0.8658  0.3721
  713MOL0     O96128  10.620  10.166   1.486  0.1856 -0.1755 -0.1007
  713MOL0     C96129  10.567  10.044   1.550 -0.8315  0.3001  0.7041
  713MOL0     C96130  10.441   9.982   1.481 -0.9153  0.6007 -0.1714
  713MOL0     C96131  10.321  10.091   1.480 -0.4603  0.4865 -0.9210
  713MOL0     C96132  10.278  10.125   1.627  0.4353 -0.4301 -0.4368
  713MOL0     C96133  10.144  10.197   1.609 -0.4254  0.4601 -0.2673
  713MOL0     C96134  10.081  10.235   1.743 -0.6195 -0.4867 -1.1172
  713MOL0     C96135   9.990  10.122   1.798  0.2235 -0.9232 -0.3093
  713MOL0     C96136   9.845  10.121   1.740  0.2263  0.1259  0.0235
  713MOL0     N96137   9.774  10.250   1.737 -0.2274 -0.4508 -0.2142
  713MOL0     C96138   9.721  10.314   1.842  0.6959 -0.2742 -0.6625
  713MOL0     C96139   9.644  10.413   1.790  0.5467 -0.2566  0.6344
  713MOL0     C96140   9.569  10.518   1.862  0.4211 -0.3712  0.3256
  713MOL0     C96141   9.428  10.480   1.878  0.7175  0.1060 -0.2539
  713MOL0     C96142   9.347  10.613   1.896  0.6479  0.3084  0.4539
  713MOL0     C96143   9.209  10.584   1.955 -0.9103  0.2504 -0.9243
  713MOL0     O96144   9.112  10.524   1.865  0.1571 -0.2274  0.1944
  713MOL0     C96145   8.992  10.489   1.923  0.3371  0.5726 -0.5842
  713MOL0     C96146   8.964  10.501   2.060  0.2981  0.3042  0.7887
  713MOL0     C96147   8.840  10.479   2.114  0.7933 -0.4881  0.2373
  713MOL0     C96148   8.837  10.471   2.263  0.7951  0.0985 -0.6555
  713MOL0     C96149   8.727  10.449   2.029  0.3627 -0.2708  0.3946
  713MOL0     C96150   8.595  10.435   2.079  0.2135 -0.1748 -0.5171
  713MOL0     O96151   8.520  10.335   2.034  1.2651  0.9014 -0.3813
  713MOL0     C96152   8.401  10.312   2.090 -0.7913 -0.1175 -0.6457
  713MOL0     C96153   8.393  10.209   2.181 -0.7736  0.0572 -0.4446
  713MOL0     C96154   8.272  10.186   2.244  0.8487  0.1912  0.2436
  713MOL0     C96155   8.162  10.264   2.212 -0.5062 -0.8153  0.7769
  713MOL0     O96156   8.059  10.237   2.289 -0.0271  0.3329 -0.4828
  713MOL0     C96157   7.936  10.303   2.261 -0.3117 -0.4585  0.5424
  713MOL0     C96158   7.838  10.306   2.372  0.0853  0.0555 -0.0179
  713MOL0     C96159   7.909  10.366   2.494 -0.1428 -0.0287 -0.6201
  713MOL0     C96160   7.839  10.325   2.624 -0.0329  0.6480  0.3346
  713MOL0     C96161   7.879  10.397   2.756 -0.5751  0.1021  0.1116
  713MOL0     C96162   7.875  10.542   2.735 -0.4340  0.1608 -0.0655
  713MOL0     C96163   7.898  10.601   2.874 -1.0127  0.5519 -0.4015
  713MOL0     C96164   7.865  10.751   2.881  0.1800  0.2613 -0.1954
  713MOL0    Cl96165   8.020  10.846   2.882 -0.1929 -0.6141  0.4301
  713MOL0     C96166   8.169  10.358   2.116 -0.0632 -0.2608 -0.2657
  713MOL0     C96167   8.287  10.382   2.048  0.1931  0.1319 -0.0435
  713MOL0     O96168   8.564  10.518   2.167 -0.0708  0.1960  0.1765
  713MOL0     C96169   8.755  10.432   1.894 -0.2712 -0.2665  0.6817
  713MOL0     C96170   8.891  10.452   1.841  0.1572 -1.1107 -0.3626
  713MOL0     N96171   9.663  10.411   1.654 -0.0048  0.6010 -0.4670
  713MOL0     N96172   9.746  10.317   1.625 -0.4073 -0.0517  0.0952
  713MOL0     C96173  10.796  10.183   1.667  0.3949 -0.5785 -0.0248
  713MOL0     C96174  10.909  10.245   1.720 -0.1095 -0.1526 -0.4458
  713MOL0     C96175  11.214  10.547   1.811 -0.0875 -0.7099 -0.2037
  713MOL0     C96176  11.333  10.493   1.774 -0.5851 -0.7315 -0.2737
  713MOL0     C96177  11.453  10.547   1.818 -0.9201  0.3764  0.1604
  713MOL0     C96178  11.452  10.661   1.903  0.2868  0.2594  0.4452
  713MOL0     O96179  11.570  10.718   1.960  0.1708  0.2378  0.0965
  713MOL0     C96180  11.700  10.680   1.906 -0.6931  0.7294  0.8468
  713MOL0     C96181  11.819  10.759   1.952 -0.7206  0.3534 -0.1937
  713MOL0     C96182  11.947  10.718   1.875  0.2334 -0.5669  0.6074
  713MOL0     C96183  12.052  10.829   1.902 -0.4425 -0.3279  0.6220
  713MOL0     C96184  12.181  10.786   1.847  0.1101  0.1148 -0.9120
  713MOL0     C96185  12.298  10.762   1.828  0.6809  0.7039  0.2773
  713MOL0     C96186  11.329  10.717   1.946 -0.0463  0.2412  1.2201
  713MOL0     C96187  11.211  10.655   1.902 -0.1713 -0.2434  0.1148
  713MOL0     H96188  10.988  10.447   1.464 -1.1339 -0.6959 -0.9482
  713MOL0     H96189  10.778  10.312   1.360 -0.5964 -0.9558  0.5395
  713MOL0     H96190  10.645   9.967   1.551  0.1742  1.2873  2.1805
  713MOL0     H96191  10.544  10.063   1.655  1.4500 -0.9741  1.4962
  713MOL0     H96192  10.467   9.963   1.377 -0.0076 -3.6273  0.6579
  713MOL0     H96193  10.413   9.896   1.543  0.5637  0.6722  0.6429
  713MOL0     H96194  10.349  10.179   1.422 -3.1471  1.1433 -1.3720
  713MOL0     H96195  10.234  10.045   1.433 -0.5205 -2.5750  1.8445
  713MOL0     H96196  10.274  10.041   1.696 -0.1155 -0.0106  0.0513
  713MOL0     H96197  10.348  10.197   1.670 -0.2752  2.0499 -3.1257
  713MOL0     H96198  10.164  10.290   1.554  2.1870  1.4391  2.0749
  713MOL0     H96199  10.081  10.131   1.550  2.9873 -1.7055 -1.7815
  713MOL0     H96200  10.160  10.264   1.812 -0.4104  2.5837 -2.4993
  713MOL0     H96201  10.025  10.327   1.726 -0.7033 -0.6807 -1.9928
  713MOL0     H96202  10.030  10.022   1.786  0.6781 -0.9738  1.3343
  713MOL0     H96203   9.966  10.146   1.902  2.6325  1.2982 -0.1694
  713MOL0     H96204   9.780  10.045   1.783  0.0170  0.6673  0.6615
  713MOL0     H96205   9.862  10.090   1.636  3.2995 -3.5876  1.3826
  713MOL0     H96206   9.738  10.287   1.946  0.7204 -0.0390 -0.6045
  713MOL0     H96207   9.612  10.540   1.960  0.4399 -3.3581  1.0599
  713MOL0     H96208   9.579  10.612   1.805  0.0580 -1.0586 -0.9072
  713MOL0     H96209   9.417  10.424   1.971 -0.3394 -0.0765 -0.4770
  713MOL0     H96210   9.383  10.422   1.798  0.2990 -0.0463  0.0901
  713MOL0     H96211   9.341  10.673   1.805  3.2707  2.2277  1.4026
  713MOL0     H96212   9.404  10.675   1.966 -0.2274 -1.8429  3.2778
  713MOL0     H96213   9.172  10.681   1.987 -0.7814 -0.4047  1.3881
  713MOL0     H96214   9.229  10.524   2.045  1.0220 -3.1380 -3.3861
  713MOL0     H96215   9.039  10.546   2.124  1.7079  1.1189 -1.3491
  713MOL0     H96216   8.787  10.382   2.302  2.7961  0.5244  3.3799
  713MOL0     H96217   8.941  10.473   2.295  0.4201  0.3864  0.5902
  713MOL0     H96218   8.781  10.559   2.299  0.8527 -0.1615  0.0762
  713MOL0     H96219   8.471  10.135   2.199  0.0639  0.6306 -1.5983
  713MOL0     H96220   8.261  10.120   2.330 -0.0224 -0.2122 -0.1682
  713MOL0     H96221   7.940  10.407   2.228 -0.9577 -0.0234  1.7649
  713MOL0     H96222   7.891  10.244   2.181  1.2474 -0.9237 -0.0223
  713MOL0     H96223   7.747  10.361   2.351 -1.5013 -2.1061  0.8309
  713MOL0     H96224   7.805  10.202   2.382  1.6863 -0.7597 -2.2104
  713MOL0     H96225   7.915  10.474   2.478  0.6667  0.3445  1.7832
  713MOL0     H96226   8.009  10.322   2.503  0.1927  1.1482  2.5503
  713MOL0     H96227   7.731  10.334   2.610  0.0371  2.0607  0.6017
  713MOL0     H96228   7.856  10.218   2.639  3.1028  0.8312 -1.0109
  713MOL0     H96229   7.975  10.359   2.792 -0.6660  0.3347  0.6049
  713MOL0     H96230   7.805  10.372   2.833 -0.0685 -0.4955  0.4130
  713MOL0     H96231   7.953  10.569   2.664 -1.1333  1.0928 -0.4976
  713MOL0     H96232   7.776  10.572   2.697  0.9864  2.2106 -2.4610
  713MOL0     H96233   7.997  10.582   2.916 -1.8281 -2.2678  0.4944
  713MOL0     H96234   7.833  10.553   2.948  1.5835 -0.8490  1.1082
  713MOL0     H96235   7.812  10.772   2.974 -1.9349  2.0553 -1.7218
  713MOL0     H96236   7.797  10.776   2.800 -1.9168  0.9144  1.6552
  713MOL0     H96237   8.090  10.424   2.083 -1.0498 -1.1044  0.3632
  713MOL0     H96238   8.275  10.444   1.961  1.3058 -1.2983 -1.2787
  713MOL0     H96239   8.669  10.409   1.832  0.0449  0.7897 -0.1800
  713MOL0     H96240   8.920  10.435   1.738 -1.0613 -0.6066 -0.8026
  713MOL0     H96241  10.749  10.102   1.721  0.0657 -0.0818  0.4469
  713MOL0     H96242  10.936  10.227   1.823 -2.9008  2.1225  0.8177
  713MOL0     H96243  11.341  10.404   1.712  1.4331 -1.1013  0.4408
  713MOL0     H96244  11.542  10.510   1.769 -2.4001 -2.2230 -0.7686
  713MOL0     H96245  11.711  10.571   1.908  0.2782  0.7004 -1.8399
  713MOL0     H96246  11.686  10.695   1.798 -0.3368 -1.7019  0.3977
  713MOL0     H96247  11.835  10.736   2.058  0.8153  1.8770 -0.0595
  713MOL0     H96248  11.794  10.864   1.936 -1.4581  0.1557 -0.3768
  713MOL0     H96249  11.939  10.703   1.767  2.5952 -1.1780  0.4624
  713MOL0     H96250  11.971  10.621   1.920 -2.0428 -1.3103  0.3337
  713MOL0     H96251  12.059  10.862   2.006 -1.9295 -0.6068  0.8348
  713MOL0     H96252  12.023  10.916   1.842  2.7151 -1.5682 -3.1083
  713MOL0     H96253  12.400  10.734   1.819  1.0261  1.4245  1.5799
  713MOL0     H96254  11.321  10.801   2.015 -1.6828  1.9991 -0.9427
  713MOL0     H96255  11.115  10.688   1.938 -0.7529 -1.7923  0.0807
  714MOL0     O96256   7.629   9.108   3.060  0.0422 -0.3016  0.3002
  714MOL0     C96257   7.652   9.072   2.949  0.6891 -0.0427  1.2823
  714MOL0     O96258   7.558   9.045   2.856 -0.7277  0.1694  0.2678
  714MOL0     C96259   7.425   9.042   2.897  0.1680  0.4892 -0.1494
  714MOL0     C96260   7.350   9.156   2.886  0.8781 -0.5963 -0.2110
  714MOL0     C96261   7.216   9.151   2.897 -0.5445  0.3157 -0.1788
  714MOL0     C96262   7.153   9.029   2.943  0.0229 -0.4082  0.1159
  714MOL0     O96263   7.013   9.036   2.950 -0.5311 -0.0978 -0.0400
  714MOL0     C96264   6.947   8.932   3.029 -0.1738  0.4679  0.6064
  714MOL0     C96265   6.795   8.957   3.022  0.0291 -1.0461  0.0139
  714MOL0     C96266   6.724   8.856   3.109 -0.8395 -0.2863  0.2921
  714MOL0     C96267   6.582   8.901   3.118 -0.1667 -0.0155 -0.2029
  714MOL0     C96268   6.497   8.819   3.207  0.1740  0.5333  0.1201
  714MOL0     C96269   6.407   8.720   3.135  0.6693 -0.5716  0.3228
  714MOL0     C96270   6.316   8.641   3.228  0.6389  0.3710 -0.4121
  714MOL0     C96271   6.209   8.721   3.292  0.1941 -0.0147 -0.2253
  714MOL0     N96272   6.103   8.621   3.328 -0.0616  0.0062  0.2476
  714MOL0     C96273   6.057   8.586   3.456 -0.1843  0.2743 -0.0213
  714MOL0     C96274   5.957   8.507   3.431 -0.6184  0.3368  0.4925
  714MOL0     C96275   5.875   8.435   3.531 -0.1306 -0.1528  0.1018
  714MOL0     C96276   5.775   8.532   3.599 -0.2808  0.4014  0.7549
  714MOL0     C96277   5.822   8.588   3.726 -0.8682  0.7813  0.1543
  714MOL0     C96278   5.722   8.662   3.808 -0.2500  0.6246  0.5077
  714MOL0     O96279   5.627   8.575   3.874 -0.9823  0.2248 -0.1136
  714MOL0     C96280   5.517   8.630   3.932 -0.1662  0.4416 -0.1272
  714MOL0     C96281   5.401   8.556   3.946 -0.1795 -0.3472 -0.6176
  714MOL0     C96282   5.288   8.608   4.007 -0.5284 -0.3765  0.1694
  714MOL0     C96283   5.169   8.519   4.003  0.7733  0.7507 -0.0627
  714MOL0     C96284   5.281   8.747   4.041 -0.8092  0.0413  0.5403
  714MOL0     C96285   5.160   8.806   4.098 -0.0235  0.1234  0.6116
  714MOL0     O96286   5.127   8.935   4.057  0.6393  0.3756  0.2622
  714MOL0     C96287   4.998   8.984   4.075  0.0892 -0.1437  1.5247
  714MOL0     C96288   4.986   9.121   4.096  0.6673 -0.1487 -0.7510
  714MOL0     C96289   4.856   9.170   4.109 -0.3532 -0.7181 -0.6261
  714MOL0     C96290   4.738   9.099   4.084 -0.0692  0.5306  0.3259
  714MOL0     O96291   4.624   9.167   4.081 -0.2977 -0.2450 -0.3056
  714MOL0     C96292   4.499   9.096   4.083 -0.4452  0.4247 -0.9581
  714MOL0     C96293   4.377   9.195   4.081  0.4288 -0.3322  0.5343
  714MOL0     C96294   4.253   9.126   4.135 -1.1157 -0.7047  1.4163
  714MOL0     C96295   4.137   9.226   4.149 -0.4853 -0.4617  0.1260
  714MOL0     C96296   4.059   9.196   4.276  0.4048  0.6769  0.2242
  714MOL0     C96297   3.935   9.291   4.275 -0.2177 -0.6291 -0.2542
  714MOL0     C96298   3.826   9.231   4.377 -0.6799 -0.1440  0.2913
  714MOL0     C96299   3.716   9.334   4.404  0.5907  0.0336  0.6165
  714MOL0    Cl96300   3.626   9.356   4.245 -0.0892  0.1312  0.5550
  714MOL0     C96301   4.757   8.961   4.063 -0.5025  0.3083 -0.2312
  714MOL0     C96302   4.885   8.905   4.053  0.0906  0.4227 -0.1906
  714MOL0     O96303   5.100   8.742   4.184  0.8439 -0.2593 -0.0226
  714MOL0     C96304   5.394   8.826   4.017 -0.4229 -0.7401 -0.6998
  714MOL0     C96305   5.513   8.768   3.967 -0.1661 -0.0029 -0.4961
  714MOL0     N96306   5.946   8.488   3.299  0.4324  0.3880  0.7295
  714MOL0     N96307   6.032   8.556   3.238  0.0213  0.4987 -0.1202
  714MOL0     C96308   7.236   8.917   2.976  0.2876  0.5823 -0.2199
  714MOL0     C96309   7.368   8.921   2.940  0.5158 -0.1191  0.1462
  714MOL0     C96310   7.787   9.046   2.906  0.1797 -0.0206 -0.0691
  714MOL0     C96311   7.813   8.974   2.788 -0.1317 -0.1177 -0.7720
  714MOL0     C96312   7.947   8.938   2.760 -0.3485 -0.2679 -0.1166
  714MOL0     C96313   8.056   8.958   2.853  0.6521 -0.2035 -0.7191
  714MOL0     O96314   8.180   8.900   2.836  0.9522  0.4265  0.2875
  714MOL0     C96315   8.272   8.921   2.944  0.0402 -0.1127 -0.0713
  714MOL0     C96316   8.409   8.843   2.923  0.0560 -0.6206 -0.1041
  714MOL0     C96317   8.462   8.876   2.783  0.5367  0.0779 -0.4314
  714MOL0     C96318   8.589   8.797   2.740 -0.2920  0.8300  0.1306
  714MOL0     C96319   8.701   8.843   2.814  0.1220  0.0090  0.6201
  714MOL0     C96320   8.791   8.880   2.881 -0.0900  0.1864 -0.7985
  714MOL0     C96321   8.025   9.035   2.969  0.3762 -0.6145 -0.4562
  714MOL0     C96322   7.890   9.074   2.992 -0.2562 -0.6667  0.7215
  714MOL0     H96323   7.408   9.242   2.854  2.1286 -1.0216  0.7945
  714MOL0     H96324   7.156   9.241   2.885 -2.0101 -0.5459  0.3084
  714MOL0     H96325   6.976   8.833   2.993  1.3506  1.8755 -2.4650
  714MOL0     H96326   6.981   8.956   3.130 -0.6300  2.6736  0.2986
  714MOL0     H96327   6.773   9.059   3.054 -1.3151 -1.1784 -0.4437
  714MOL0     H96328   6.744   8.953   2.926  0.0293 -2.0564  0.0475
  714MOL0     H96329   6.719   8.759   3.060  1.7374 -0.7556  0.8131
  714MOL0     H96330   6.769   8.839   3.207 -1.2056 -3.2735  0.0237
  714MOL0     H96331   6.578   9.004   3.155  0.7040  0.2608 -0.8356
  714MOL0     H96332   6.539   8.906   3.018  2.8266 -0.1560 -1.5973
  714MOL0     H96333   6.551   8.766   3.285  1.2425  0.5181 -0.6019
  714MOL0     H96334   6.433   8.897   3.251  1.9280  1.6722  0.7429
  714MOL0     H96335   6.351   8.768   3.055 -0.7080 -0.0484  1.5750
  714MOL0     H96336   6.470   8.648   3.082  0.0137 -0.2026 -0.9846
  714MOL0     H96337   6.263   8.562   3.174 -1.5494 -1.6129  4.0860
  714MOL0     H96338   6.371   8.585   3.303 -0.8388 -0.8717 -0.2086
  714MOL0     H96339   6.178   8.796   3.218  2.6317  0.7597 -0.5556
  714MOL0     H96340   6.238   8.775   3.382  0.0845 -1.6104  0.7862
  714MOL0     H96341   6.087   8.611   3.557  0.2459 -2.1436  0.5149
  714MOL0     H96342   5.808   8.364   3.482 -0.0714 -0.5920  0.6514
  714MOL0     H96343   5.941   8.387   3.604 -1.5611  0.5813  1.9690
  714MOL0     H96344   5.694   8.462   3.623  1.7880 -1.9608  1.3111
  714MOL0     H96345   5.743   8.614   3.534  2.5029  1.0104  0.0101
  714MOL0     H96346   5.896   8.665   3.701 -0.4184  0.1142 -0.6275
  714MOL0     H96347   5.871   8.514   3.791 -1.7451  0.4576  0.4617
  714MOL0     H96348   5.670   8.738   3.749  1.1724  1.1352 -0.1553
  714MOL0     H96349   5.768   8.714   3.893  1.2171 -0.5432  0.4729
  714MOL0     H96350   5.405   8.456   3.904  1.1978  0.3880 -2.3759
  714MOL0     H96351   5.108   8.507   4.093  0.6570 -3.0605 -0.4978
  714MOL0     H96352   5.111   8.556   3.919 -0.0615 -0.0220  0.1580
  714MOL0     H96353   5.196   8.417   3.974 -0.6742 -0.1083  1.4290
  714MOL0     H96354   5.069   9.190   4.113  1.2818 -0.6823 -1.5309
  714MOL0     H96355   4.838   9.277   4.115  1.1638 -0.5023  0.8462
  714MOL0     H96356   4.502   9.019   4.006 -0.3742  0.6885 -1.2229
  714MOL0     H96357   4.493   9.043   4.179  0.4589 -2.6555 -2.4983
  714MOL0     H96358   4.409   9.278   4.144 -2.4750  1.8803 -0.6669
  714MOL0     H96359   4.374   9.235   3.980 -1.9654 -2.2751 -0.2678
  714MOL0     H96360   4.273   9.087   4.235 -2.5493 -3.0026  0.8673
  714MOL0     H96361   4.235   9.040   4.070 -0.9824 -0.3425  0.8944
  714MOL0     H96362   4.170   9.330   4.145 -2.1056  0.0419 -1.7617
  714MOL0     H96363   4.076   9.222   4.058 -0.4479  0.2758  0.0641
  714MOL0     H96364   4.127   9.212   4.360 -0.3070  2.2620  0.5492
  714MOL0     H96365   4.025   9.092   4.271  0.1344  0.6550  2.0077
  714MOL0     H96366   3.962   9.393   4.302 -1.7542 -0.5233  1.0222
  714MOL0     H96367   3.884   9.295   4.178 -1.3281 -1.1979  0.2717
  714MOL0     H96368   3.868   9.207   4.475  2.3821  4.2294  0.3384
  714MOL0     H96369   3.774   9.146   4.330  0.7890 -1.2045  0.5391
  714MOL0     H96370   3.768   9.427   4.430  0.8247  1.0159 -2.8512
  714MOL0     H96371   3.649   9.305   4.485  0.5284  0.1950  0.6226
  714MOL0     H96372   4.677   8.890   4.042  2.0469 -2.4827 -1.3149
  714MOL0     H96373   4.900   8.800   4.032 -1.1948  0.1699  0.0531
  714MOL0     H96374   5.395   8.933   4.033 -1.0920 -0.9790  1.1573
  714MOL0     H96375   5.603   8.830   3.964 -0.3013  0.1581 -2.1412
  714MOL0     H96376   7.191   8.824   3.012  2.8576 -0.4398  0.5703
  714MOL0     H96377   7.425   8.829   2.938  2.2355  0.9250 -0.5778
  714MOL0     H96378   7.725   8.947   2.730 -2.0229  1.9376  0.9660
  714MOL0     H96379   7.965   8.870   2.677  0.8923 -4.0650  2.9687
  714MOL0     H96380   8.288   9.029   2.942  0.3603 -0.1631 -0.5875
  714MOL0     H96381   8.225   8.893   3.039  0.7566  1.3326  0.7378
  714MOL0     H96382   8.385   8.737   2.922  0.0514 -0.6242  0.2523
  714MOL0     H96383   8.481   8.869   3.002 -0.9992  0.5342  0.5200
  714MOL0     H96384   8.487   8.982   2.798 -1.0345  0.1655  2.2608
  714MOL0     H96385   8.391   8.865   2.702  0.0027  4.7670 -0.8514
  714MOL0     H96386   8.602   8.817   2.633 -1.5187 -1.6250 -0.5814
  714MOL0     H96387   8.570   8.689   2.735  2.1135  0.2676  1.6091
  714MOL0     H96388   8.869   8.902   2.950 -2.7264  1.8304  1.8980
  714MOL0     H96389   8.088   9.050   3.056 -0.4634  0.5788 -0.0274
  714MOL0     H96390   7.874   9.134   3.081  0.4670 -0.6587  0.8551
  715MOL0     O96391   9.570   1.702   7.037 -0.0129 -0.2714  0.0249
  715MOL0     C96392   9.643   1.652   6.951  0.2476  0.1809  0.1989
  715MOL0     O96393   9.597   1.582   6.843  0.1065 -0.3731 -0.1072
  715MOL0     C96394   9.470   1.523   6.848  0.4222  0.0236  0.6294
  715MOL0     C96395   9.377   1.583   6.765 -0.0166 -0.4971 -0.7859
  715MOL0     C96396   9.235   1.545   6.761 -0.1830 -0.3136  0.2468
  715MOL0     C96397   9.196   1.448   6.851 -0.4710 -0.0794  0.1628
  715MOL0     O96398   9.071   1.395   6.862 -0.5242  0.5994  0.0887
  715MOL0     C96399   8.950   1.448   6.794 -0.9603 -0.4084  0.2329
  715MOL0     C96400   8.936   1.390   6.653 -0.0080 -0.5717 -0.4549
  715MOL0     C96401   8.842   1.478   6.565 -0.8822  0.1512  0.3157
  715MOL0     C96402   8.723   1.520   6.651 -0.7096 -0.1987 -1.1928
  715MOL0     C96403   8.609   1.559   6.555 -0.5827 -0.1275  0.1489
  715MOL0     C96404   8.476   1.584   6.633 -0.2492 -0.1252 -0.4631
  715MOL0     C96405   8.405   1.441   6.669  0.1708 -0.4045 -0.3596
  715MOL0     C96406   8.327   1.373   6.560  0.2800 -0.4396  0.1775
  715MOL0     N96407   8.214   1.456   6.512 -0.3943  0.2898  0.2286
  715MOL0     C96408   8.104   1.492   6.581 -0.3653 -0.1607  0.1758
  715MOL0     C96409   8.043   1.588   6.504 -0.2602 -0.0963  0.1102
  715MOL0     C96410   7.914   1.654   6.543 -0.7098 -0.3915 -0.1002
  715MOL0     C96411   7.786   1.569   6.529 -0.2535  0.1489  0.0531
  715MOL0     C96412   7.759   1.514   6.386 -0.4853 -0.3504 -0.3645
  715MOL0     C96413   7.697   1.620   6.298 -0.1514  0.7360  0.1262
  715MOL0     O96414   7.560   1.669   6.323  0.0401  0.4801  0.5018
  715MOL0     C96415   7.442   1.588   6.307 -0.5213 -0.9174 -1.2883
  715MOL0     C96416   7.442   1.461   6.248 -1.0594  0.4270 -0.2755
  715MOL0     C96417   7.332   1.377   6.252  1.1744 -0.6006  0.1057
  715MOL0     C96418   7.349   1.243   6.189 -0.1989  0.2398  0.2647
  715MOL0     C96419   7.213   1.421   6.320 -0.0875  0.1965 -0.2767
  715MOL0     C96420   7.087   1.343   6.334  0.0943 -0.6311 -0.4693
  715MOL0     O96421   7.069   1.227   6.269 -0.3958  1.4509  0.0311
  715MOL0     C96422   6.963   1.147   6.299  0.1162 -0.2974 -0.6680
  715MOL0     C96423   6.887   1.101   6.194  0.0410  0.6004  0.4523
  715MOL0     C96424   6.762   1.034   6.224  0.2802 -0.7225  0.6137
  715MOL0     C96425   6.724   1.003   6.352  0.5120 -0.1133 -0.4315
  715MOL0     O96426   6.604   0.949   6.378  0.2330  0.4129  0.1342
  715MOL0     C96427   6.548   0.858   6.290 -1.2148 -0.2407 -0.0810
  715MOL0     C96428   6.453   0.769   6.368 -0.1889 -0.0439 -0.0741
  715MOL0     C96429   6.318   0.837   6.400  0.8874  0.2415  0.9115
  715MOL0     C96430   6.227   0.832   6.275 -0.4454 -0.5479  0.2336
  715MOL0     C96431   6.104   0.917   6.309  0.2061 -0.1327  0.3133
  715MOL0     C96432   6.006   0.849   6.411 -1.1755  0.2205 -0.1484
  715MOL0     C96433   5.894   0.778   6.348  1.2738  0.2517 -0.1107
  715MOL0     C96434   5.796   0.730   6.456  0.4187  0.0680 -0.2092
  715MOL0    Cl96435   5.743   0.865   6.553 -0.4348 -0.0977  0.0560
  715MOL0     C96436   6.813   1.047   6.454 -0.1843 -0.1486 -0.2007
  715MOL0     C96437   6.933   1.118   6.435 -0.2195 -0.6338 -0.4345
  715MOL0     O96438   7.008   1.389   6.414  0.0578 -0.9717  0.2993
  715MOL0     C96439   7.220   1.559   6.367  1.0804 -0.3727 -0.2431
  715MOL0     C96440   7.328   1.643   6.361 -0.1855  0.1835 -0.4763
  715MOL0     N96441   8.118   1.602   6.393  0.0593 -0.1730  0.2589
  715MOL0     N96442   8.220   1.524   6.400 -0.1239  0.5031 -0.0273
  715MOL0     C96443   9.294   1.396   6.943  0.3265  0.4687  0.5502
  715MOL0     C96444   9.428   1.433   6.940  0.6219 -1.4027 -0.2109
  715MOL0     C96445   9.789   1.679   6.952 -1.1182  0.4685  0.2605
  715MOL0     C96446   9.868   1.652   6.838 -0.5871  0.6781  0.6671
  715MOL0     C96447  10.008   1.685   6.843 -0.9096 -0.3165  0.0673
  715MOL0     C96448  10.073   1.753   6.953 -0.5318  0.1920 -0.0206
  715MOL0     O96449  10.207   1.789   6.941 -0.0304 -0.2839  0.8258
  715MOL0     C96450  10.260   1.879   7.035  0.0650 -0.3459  0.7557
  715MOL0     C96451  10.386   1.941   6.979 -0.3024 -0.6931  1.2617
  715MOL0     C96452  10.489   1.842   6.926 -0.2105 -0.4220  0.7469
  715MOL0     C96453  10.624   1.911   6.923 -0.3230 -0.5203 -1.0493
  715MOL0     C96454  10.622   2.035   6.844 -0.1393  0.4567 -0.1973
  715MOL0     C96455  10.626   2.139   6.781  0.3103 -0.0057  0.2305
  715MOL0     C96456   9.990   1.780   7.058 -0.1648  1.0499  0.2382
  715MOL0     C96457   9.853   1.751   7.052 -0.2928  0.0829 -0.1753
  715MOL0     H96458   9.408   1.670   6.708  0.7548  0.3121  0.8155
  715MOL0     H96459   9.160   1.594   6.700  0.4931  0.7242  0.2315
  715MOL0     H96460   8.867   1.407   6.853 -0.7555 -1.5851 -0.2697
  715MOL0     H96461   8.958   1.557   6.798 -0.5117 -0.4541  0.6864
  715MOL0     H96462   9.033   1.379   6.603 -0.4637 -2.8381 -0.9450
  715MOL0     H96463   8.898   1.288   6.665 -0.6015 -0.6156 -2.3370
  715MOL0     H96464   8.898   1.566   6.533 -1.0140 -0.5099 -1.9853
  715MOL0     H96465   8.821   1.427   6.470 -0.6841 -1.3768  1.0645
  715MOL0     H96466   8.686   1.435   6.709  0.5898  1.0684  1.6826
  715MOL0     H96467   8.747   1.606   6.715 -1.2977  1.1292 -2.6999
  715MOL0     H96468   8.655   1.637   6.495 -0.1549 -1.7532 -1.7434
  715MOL0     H96469   8.588   1.476   6.488 -0.1867 -1.3825  1.5111
  715MOL0     H96470   8.491   1.631   6.730 -2.7022  0.1176 -0.1340
  715MOL0     H96471   8.407   1.641   6.570  1.7795  3.2545  0.1928
  715MOL0     H96472   8.477   1.367   6.705  0.0062  0.7206  2.6110
  715MOL0     H96473   8.342   1.446   6.758 -0.3868 -3.7738 -0.4631
  715MOL0     H96474   8.284   1.280   6.597 -2.0636  1.0978  1.5279
  715MOL0     H96475   8.387   1.353   6.471 -1.5304  0.5218 -1.3287
  715MOL0     H96476   8.078   1.478   6.686  0.9061  0.3669  0.5748
  715MOL0     H96477   7.934   1.683   6.647 -1.0812 -1.0971  0.1790
  715MOL0     H96478   7.898   1.745   6.484  2.3635 -0.1331 -0.7283
  715MOL0     H96479   7.703   1.621   6.578  0.2476  0.2029  0.8639
  715MOL0     H96480   7.799   1.481   6.593  1.5175 -0.2200 -0.7731
  715MOL0     H96481   7.685   1.434   6.391  1.1237 -1.8344  2.3651
  715MOL0     H96482   7.848   1.482   6.331  0.4983  0.7668  0.5066
  715MOL0     H96483   7.682   1.559   6.208 -1.2677 -2.2156  2.1628
  715MOL0     H96484   7.755   1.699   6.249 -2.0131  0.9842 -1.8528
  715MOL0     H96485   7.536   1.425   6.207 -1.4615  0.8471 -1.5932
  715MOL0     H96486   7.301   1.235   6.091  2.2529  1.6669 -1.1621
  715MOL0     H96487   7.456   1.230   6.170 -0.5805  0.5182 -2.4965
  715MOL0     H96488   7.311   1.168   6.258 -1.8047  1.0823  0.3525
  715MOL0     H96489   6.915   1.142   6.098  0.9161 -0.8815  0.0449
  715MOL0     H96490   6.695   1.022   6.139  0.5022  0.9014  0.1729
  715MOL0     H96491   6.511   0.909   6.200  0.8769 -1.0115 -1.4521
  715MOL0     H96492   6.632   0.793   6.262 -0.6405  0.5832 -0.3158
  715MOL0     H96493   6.435   0.673   6.318 -0.7593  1.6346 -3.4054
  715MOL0     H96494   6.508   0.743   6.458 -0.8245  0.3751  0.4403
  715MOL0     H96495   6.347   0.937   6.435 -2.4653  2.7650 -2.6207
  715MOL0     H96496   6.267   0.787   6.483  0.0433  2.9229  2.1251
  715MOL0     H96497   6.274   0.887   6.192 -0.4860 -2.1940 -0.9216
  715MOL0     H96498   6.210   0.730   6.240 -2.1837 -0.2257  0.0377
  715MOL0     H96499   6.060   0.942   6.212  1.2141  1.0051  0.1230
  715MOL0     H96500   6.141   1.010   6.355  0.7780 -0.1947 -0.0153
  715MOL0     H96501   6.051   0.772   6.475 -2.5848 -0.4223  0.1106
  715MOL0     H96502   5.975   0.925   6.484  2.2038  0.3615  1.3342
  715MOL0     H96503   5.933   0.700   6.283  1.0804  1.0646 -1.2366
  715MOL0     H96504   5.844   0.856   6.290  0.6121  0.8694  1.2412
  715MOL0     H96505   5.847   0.659   6.521  1.4970 -0.8504 -1.9696
  715MOL0     H96506   5.713   0.680   6.404  1.9490 -1.6802 -1.0930
  715MOL0     H96507   6.775   1.014   6.550  1.3628  1.5218  1.0587
  715MOL0     H96508   6.986   1.152   6.523 -1.0252  0.3168 -0.2858
  715MOL0     H96509   7.132   1.597   6.420  0.6345 -1.5186 -0.1364
  715MOL0     H96510   7.331   1.744   6.401  0.9289  0.2537 -0.6981
  715MOL0     H96511   9.264   1.327   7.020  2.4953 -2.4106 -1.0083
  715MOL0     H96512   9.498   1.395   7.014 -0.6946 -0.6180  1.5175
  715MOL0     H96513   9.826   1.623   6.742 -0.1203  0.6624  0.4616
  715MOL0     H96514  10.074   1.669   6.759  0.7407 -0.8961  1.4183
  715MOL0     H96515  10.192   1.957   7.071  0.9695  0.0977  1.5542
  715MOL0     H96516  10.297   1.821   7.121  2.5269 -1.7986 -1.1554
  715MOL0     H96517  10.425   2.013   7.051 -0.6302  2.3789 -1.3706
  715MOL0     H96518  10.356   1.994   6.888  1.2661 -3.3611 -0.9567
  715MOL0     H96519  10.454   1.820   6.825 -0.9382  1.1914  0.6169
  715MOL0     H96520  10.489   1.755   6.992 -2.9186  0.4908  2.0491
  715MOL0     H96521  10.701   1.846   6.880 -2.1202 -3.4123 -0.2477
  715MOL0     H96522  10.655   1.930   7.026  0.8387  1.9012 -1.7865
  715MOL0     H96523  10.616   2.233   6.731 -1.0537 -0.3356 -0.1418
  715MOL0     H96524  10.029   1.844   7.137 -1.2508  2.2912 -0.1870
  715MOL0     H96525   9.801   1.794   7.137 -0.8220  0.4090 -0.6554
  716MOL0     O96526  10.913   7.290   4.834  0.5809 -0.0780  0.4685
  716MOL0     C96527  10.974   7.368   4.761  0.0595  0.6394 -1.0036
  716MOL0     O96528  10.932   7.415   4.641 -0.1753 -0.7101  0.3250
  716MOL0     C96529  10.826   7.363   4.572 -0.6393 -0.0336 -0.6280
  716MOL0     C96530  10.697   7.381   4.623  0.1317 -0.2580 -0.3709
  716MOL0     C96531  10.591   7.357   4.531  0.0646 -0.5191 -0.2484
  716MOL0     C96532  10.604   7.306   4.402 -0.8972 -0.0299  0.4261
  716MOL0     O96533  10.507   7.287   4.310  0.2033  0.3433  0.2779
  716MOL0     C96534  10.375   7.338   4.338 -0.0941  0.6151 -0.3670
  716MOL0     C96535  10.285   7.324   4.217 -0.0316  0.6441  0.1948
  716MOL0     C96536  10.137   7.363   4.252  0.7815 -0.0073  0.5420
  716MOL0     C96537  10.048   7.367   4.122 -0.2122  0.8682  0.3833
  716MOL0     C96538   9.897   7.398   4.140  0.8235 -0.5438  0.9264
  716MOL0     C96539   9.821   7.295   4.220  0.0455  0.0949  0.8016
  716MOL0     C96540   9.671   7.321   4.199 -0.4873 -0.1893  0.1451
  716MOL0     C96541   9.627   7.442   4.270  0.0442 -0.2386 -0.2204
  716MOL0     N96542   9.488   7.482   4.231 -0.2270 -0.4992 -0.2827
  716MOL0     C96543   9.441   7.504   4.103  0.1476 -0.8211  0.4230
  716MOL0     C96544   9.322   7.559   4.118 -0.4130  0.3231  0.5502
  716MOL0     C96545   9.232   7.577   3.999 -0.0628 -0.3038 -0.0959
  716MOL0     C96546   9.100   7.505   4.030 -0.2721 -0.4475  0.6006
  716MOL0     C96547   8.999   7.514   3.916  0.5214  0.3398  0.2568
  716MOL0     C96548   8.862   7.455   3.954 -0.0138 -0.5937 -0.5251
  716MOL0     O96549   8.766   7.512   3.866 -0.1743  0.0449  0.1846
  716MOL0     C96550   8.634   7.506   3.902 -0.0739  0.2014 -0.3093
  716MOL0     C96551   8.537   7.552   3.811  1.1864 -0.4986  0.4326
  716MOL0     C96552   8.397   7.546   3.834 -0.2205  0.5222  0.0135
  716MOL0     C96553   8.305   7.604   3.721 -0.1754  0.7114 -0.1848
  716MOL0     C96554   8.351   7.479   3.950 -0.1017  1.0757  0.2587
  716MOL0     C96555   8.209   7.466   3.993  0.3495  0.5875  0.1344
  716MOL0     O96556   8.179   7.363   4.073 -0.1325  0.5920 -0.0026
  716MOL0     C96557   8.046   7.334   4.102 -0.8314  0.5864 -0.5268
  716MOL0     C96558   7.955   7.425   4.158  0.5989 -0.3296  0.1674
  716MOL0     C96559   7.826   7.384   4.201 -0.2583 -1.0883  0.1099
  716MOL0     C96560   7.791   7.251   4.199  0.5182 -0.2332 -0.3814
  716MOL0     O96561   7.665   7.214   4.238 -0.0103 -0.2254 -0.1264
  716MOL0     C96562   7.595   7.108   4.172 -0.5728  0.3551  0.5427
  716MOL0     C96563   7.442   7.125   4.187 -0.4011 -0.7151  0.4029
  716MOL0     C96564   7.407   7.258   4.116  0.3715 -0.1413  0.0829
  716MOL0     C96565   7.415   7.253   3.965  0.0924  0.4377  0.1222
  716MOL0     C96566   7.336   7.366   3.910  1.1401 -0.5907  0.6530
  716MOL0     C96567   7.343   7.381   3.763  0.7018 -0.7968 -0.0650
  716MOL0     C96568   7.259   7.492   3.692 -0.4174 -0.6643  0.2211
  716MOL0     C96569   7.335   7.533   3.560 -0.1463 -0.3693 -1.3488
  716MOL0    Cl96570   7.265   7.685   3.492  0.1282  0.1164 -0.4367
  716MOL0     C96571   7.886   7.154   4.150  1.3494  0.0943  0.3004
  716MOL0     C96572   8.010   7.197   4.110  0.0674 -0.9666 -0.2803
  716MOL0     O96573   8.128   7.543   3.949  0.6905 -0.0437  0.5202
  716MOL0     C96574   8.445   7.426   4.040 -0.1193 -0.0354 -0.1305
  716MOL0     C96575   8.591   7.437   4.018  0.2848  0.4885 -0.0727
  716MOL0     N96576   9.300   7.575   4.254 -0.2139  0.5839  0.3055
  716MOL0     N96577   9.398   7.514   4.320 -0.1801  0.2129  0.6624
  716MOL0     C96578  10.734   7.277   4.369  0.3600  0.7273  0.8959
  716MOL0     C96579  10.844   7.301   4.454  0.0337  1.0214 -0.2006
  716MOL0     C96580  11.115   7.391   4.803 -0.8681  0.2084 -0.0892
  716MOL0     C96581  11.202   7.471   4.720  0.8205  0.3712 -0.1909
  716MOL0     C96582  11.329   7.507   4.767  0.8464 -0.5328  0.6401
  716MOL0     C96583  11.388   7.428   4.866 -0.2421 -0.5848  0.3358
  716MOL0     O96584  11.529   7.436   4.888 -0.0837 -0.4141  0.2135
  716MOL0     C96585  11.591   7.349   4.977 -0.0568  0.9233  0.4360
  716MOL0     C96586  11.734   7.390   4.988 -0.3685  0.8011  0.3510
  716MOL0     C96587  11.801   7.325   5.113  0.1177 -0.6220  0.0399
  716MOL0     C96588  11.955   7.351   5.122  0.4688 -0.0351 -0.1751
  716MOL0     C96589  12.019   7.241   5.186  0.4348  0.5787 -0.8164
  716MOL0     C96590  12.092   7.160   5.229 -0.0191  0.5191  0.2013
  716MOL0     C96591  11.307   7.341   4.942  0.1000  0.3485  0.4309
  716MOL0     C96592  11.171   7.330   4.910 -0.3346  0.7242  0.7626
  716MOL0     H96593  10.684   7.426   4.720 -1.1400  1.1695 -1.1642
  716MOL0     H96594  10.493   7.382   4.570  0.1826  1.2902 -1.0089
  716MOL0     H96595  10.335   7.285   4.425 -0.6867 -3.0712 -2.6669
  716MOL0     H96596  10.384   7.444   4.364  0.6576  1.4104 -3.5300
  716MOL0     H96597  10.325   7.383   4.134 -1.6079  0.4942 -0.7104
  716MOL0     H96598  10.294   7.221   4.183  2.8592  1.0464 -0.5283
  716MOL0     H96599  10.098   7.300   4.332 -2.6365 -0.0234 -0.9612
  716MOL0     H96600  10.138   7.465   4.291  1.2071  0.0407  0.4097
  716MOL0     H96601  10.091   7.431   4.045  0.1534 -1.6624 -1.6506
  716MOL0     H96602  10.054   7.268   4.076  0.1735  0.5106  1.1778
  716MOL0     H96603   9.895   7.487   4.203  1.1634 -0.7596  1.2505
  716MOL0     H96604   9.845   7.416   4.046  1.0575 -1.3222  0.6347
  716MOL0     H96605   9.847   7.195   4.187 -0.2217  1.3554 -3.8398
  716MOL0     H96606   9.856   7.310   4.323  1.8764  1.4653  0.0546
  716MOL0     H96607   9.643   7.350   4.097  1.2172 -0.3910 -0.4149
  716MOL0     H96608   9.608   7.235   4.223 -2.5448  0.8174 -1.2574
  716MOL0     H96609   9.685   7.532   4.246  3.7291 -2.1837  0.6666
  716MOL0     H96610   9.628   7.427   4.378  0.0838  0.1433 -0.1670
  716MOL0     H96611   9.486   7.489   4.005  1.1216 -0.8896  0.8723
  716MOL0     H96612   9.217   7.683   3.974  1.1941 -0.0950 -0.0602
  716MOL0     H96613   9.274   7.544   3.903 -1.2791 -0.8802 -0.4451
  716MOL0     H96614   9.052   7.545   4.119 -1.9485 -0.2626 -0.3438
  716MOL0     H96615   9.114   7.398   4.050  2.3278 -0.1690  0.6324
  716MOL0     H96616   9.038   7.454   3.833  0.6711  0.9074 -0.0909
  716MOL0     H96617   8.991   7.618   3.881  2.7380 -0.0555 -1.7356
  716MOL0     H96618   8.844   7.497   4.054  0.9044 -0.5599 -0.3676
  716MOL0     H96619   8.878   7.347   3.960  0.6832 -0.5334 -1.2556
  716MOL0     H96620   8.566   7.585   3.712 -0.1809 -0.8087 -0.1034
  716MOL0     H96621   8.361   7.634   3.633  2.2219 -1.3149  0.5442
  716MOL0     H96622   8.225   7.535   3.690 -0.2241  0.4197  0.5534
  716MOL0     H96623   8.251   7.692   3.758  0.4237  0.9234  0.1883
  716MOL0     H96624   7.972   7.532   4.167 -1.1419  0.0374 -0.4923
  716MOL0     H96625   7.760   7.467   4.226  2.0532  0.4422  1.7175
  716MOL0     H96626   7.604   7.104   4.063 -2.2863  0.6150  0.3652
  716MOL0     H96627   7.626   7.012   4.213 -2.7047 -0.0286  1.4260
  716MOL0     H96628   7.393   7.045   4.130  0.4486  1.4884 -3.8698
  716MOL0     H96629   7.418   7.115   4.293 -2.6424 -4.7312 -0.2985
  716MOL0     H96630   7.462   7.341   4.161 -1.1991  0.5625  0.7956
  716MOL0     H96631   7.301   7.273   4.140  0.6563 -2.9524  4.0845
  716MOL0     H96632   7.521   7.254   3.937  0.8316  0.0828  2.6511
  716MOL0     H96633   7.380   7.158   3.924 -3.8206  1.0736  1.5497
  716MOL0     H96634   7.370   7.454   3.966  2.6138 -0.7047 -0.0081
  716MOL0     H96635   7.229   7.353   3.927  1.0742 -0.0460  0.6879
  716MOL0     H96636   7.448   7.406   3.747 -0.0819  1.0917 -3.2170
  716MOL0     H96637   7.319   7.288   3.709 -1.4260  0.7801 -2.0523
  716MOL0     H96638   7.248   7.588   3.744  0.0430 -0.4729 -0.0168
  716MOL0     H96639   7.160   7.452   3.672 -0.9314  0.8494 -0.4440
  716MOL0     H96640   7.320   7.455   3.486 -3.6763 -0.1202 -1.0980
  716MOL0     H96641   7.439   7.555   3.586 -0.8012  1.0489  0.2635
  716MOL0     H96642   7.860   7.049   4.150 -3.9924  1.1650  1.1369
  716MOL0     H96643   8.079   7.120   4.076 -0.8860 -2.5600  1.2225
  716MOL0     H96644   8.411   7.368   4.125  0.8090  1.8692  1.6375
  716MOL0     H96645   8.658   7.389   4.089 -0.4621  1.4279  1.3029
  716MOL0     H96646  10.748   7.244   4.267 -1.3554  2.5032  0.0275
  716MOL0     H96647  10.941   7.270   4.416  0.5972  1.4867  0.7897
  716MOL0     H96648  11.172   7.523   4.630  0.9752 -0.1301 -0.5352
  716MOL0     H96649  11.398   7.567   4.708 -0.2174 -1.4167 -1.6273
  716MOL0     H96650  11.552   7.348   5.079  2.5582  1.7449  1.5157
  716MOL0     H96651  11.574   7.249   4.936  0.5235  2.1018 -2.9525
  716MOL0     H96652  11.735   7.497   5.011 -0.0172  0.5684  1.5232
  716MOL0     H96653  11.779   7.367   4.891  0.3361 -2.5899  1.3538
  716MOL0     H96654  11.772   7.219   5.119 -2.9922  0.1952  1.9909
  716MOL0     H96655  11.755   7.375   5.199  2.1886  1.9033 -0.1855
  716MOL0     H96656  11.970   7.441   5.183  1.6228  1.6295 -2.7341
  716MOL0     H96657  12.005   7.369   5.027 -0.1105  0.2617 -0.4360
  716MOL0     H96658  12.157   7.085   5.267  0.1495 -0.3122 -1.6109
  716MOL0     H96659  11.338   7.281   5.027  0.8629 -1.9190 -1.3445
  716MOL0     H96660  11.120   7.266   4.981  1.1939 -0.7274  0.6239
  717MOL0     O96661   1.067   0.670   5.431 -0.2279 -0.4383  0.5260
  717MOL0     C96662   1.111   0.564   5.390  0.3028  0.7981  0.7170
  717MOL0     O96663   1.045   0.475   5.316 -0.5385  0.3271 -0.5369
  717MOL0     C96664   0.911   0.479   5.314  0.6976  0.1885 -0.3366
  717MOL0     C96665   0.833   0.548   5.221 -0.4282 -0.5608  0.3134
  717MOL0     C96666   0.693   0.561   5.226  0.4116  0.2872  0.5931
  717MOL0     C96667   0.622   0.510   5.335  0.3302 -0.2978  1.1146
  717MOL0     O96668   0.487   0.517   5.344  0.3773 -0.2989  0.4873
  717MOL0     C96669   0.421   0.449   5.450  0.5083 -1.0695  0.7335
  717MOL0     C96670   0.282   0.508   5.448 -0.3633 -0.5018 -0.7942
  717MOL0     C96671   0.204   0.464   5.568 -0.9548  0.4241  0.3627
  717MOL0     C96672   0.069   0.524   5.551 -0.4869 -0.1408 -0.7883
  717MOL0     C96673  -0.023   0.465   5.665 -0.6548  0.6826 -0.1584
  717MOL0     C96674  -0.167   0.471   5.643 -0.9253  0.4175  0.5819
  717MOL0     C96675  -0.230   0.371   5.739  0.6382 -0.0085 -0.1258
  717MOL0     C96676  -0.378   0.405   5.742  0.1754  0.9036 -0.3815
  717MOL0     N96677  -0.455   0.299   5.814 -0.4122  0.5883  0.8265
  717MOL0     C96678  -0.500   0.184   5.749  0.1701 -0.9485 -0.1079
  717MOL0     C96679  -0.577   0.122   5.844 -0.0064  0.3697 -0.4297
  717MOL0     C96680  -0.635  -0.018   5.846  0.0369  0.3513  0.0009
  717MOL0     C96681  -0.741  -0.039   5.741  0.0647 -0.5191  0.3024
  717MOL0     C96682  -0.861   0.057   5.764  0.1417 -0.3911 -0.3318
  717MOL0     C96683  -0.945   0.045   5.890  0.6276  0.4374 -0.2022
  717MOL0     O96684  -1.011  -0.088   5.879  0.0868  0.1717 -0.0638
  717MOL0     C96685  -1.138  -0.107   5.824  0.3037 -0.9686 -0.7707
  717MOL0     C96686  -1.174  -0.239   5.793  0.3073  0.5785  0.6675
  717MOL0     C96687  -1.299  -0.270   5.741  0.7985 -0.3600 -0.0522
  717MOL0     C96688  -1.320  -0.423   5.706  0.2686 -0.2324 -0.4692
  717MOL0     C96689  -1.402  -0.168   5.737  0.3586 -0.1940  0.1557
  717MOL0     C96690  -1.543  -0.192   5.696 -0.4664  0.2574 -0.4593
  717MOL0     O96691  -1.579  -0.323   5.676 -0.8944  0.0587 -0.1061
  717MOL0     C96692  -1.698  -0.357   5.614 -0.1572 -0.1188  0.1622
  717MOL0     C96693  -1.761  -0.275   5.510  0.0615 -0.6487 -0.7538
  717MOL0     C96694  -1.884  -0.303   5.468 -0.3645 -0.1027  0.3471
  717MOL0     C96695  -1.956  -0.417   5.504  0.4857 -0.0051  0.2305
  717MOL0     O96696  -2.085  -0.427   5.461  0.1035  0.5286 -0.0728
  717MOL0     C96697  -2.127  -0.564   5.429  0.1084 -0.3540 -0.9780
  717MOL0     C96698  -2.238  -0.621   5.512  0.5653  0.8117  0.2101
  717MOL0     C96699  -2.386  -0.587   5.498  0.0565 -0.2818 -0.0080
  717MOL0     C96700  -2.497  -0.691   5.548 -0.1838 -0.1186 -0.1533
  717MOL0     C96701  -2.637  -0.641   5.506  0.6479 -0.5233  0.3530
  717MOL0     C96702  -2.747  -0.704   5.579  0.2403 -0.5276 -0.4615
  717MOL0     C96703  -2.887  -0.650   5.548  0.2896  0.1948  0.5059
  717MOL0     C96704  -2.939  -0.704   5.423 -0.5491  0.9711  0.4660
  717MOL0    Cl96705  -3.107  -0.637   5.392  0.0035 -0.1613 -0.4964
  717MOL0     C96706  -1.902  -0.497   5.604 -0.3965  0.3038 -0.6863
  717MOL0     C96707  -1.769  -0.470   5.658 -0.8237 -0.9818  0.0246
  717MOL0     O96708  -1.613  -0.094   5.682  0.6047  0.2283 -0.1886
  717MOL0     C96709  -1.361  -0.039   5.766  0.4075  0.0733  0.7940
  717MOL0     C96710  -1.233  -0.008   5.806  0.0005 -0.3946  0.0195
  717MOL0     N96711  -0.572   0.208   5.956 -0.6929  0.2402 -0.0142
  717MOL0     N96712  -0.490   0.309   5.943 -0.3455 -0.2055  0.0904
  717MOL0     C96713   0.701   0.445   5.438  0.6222  0.4152  0.4831
  717MOL0     C96714   0.842   0.437   5.428 -0.6103 -0.4956 -0.1659
  717MOL0     C96715   1.254   0.533   5.403 -0.7184  0.8903  0.0480
  717MOL0     C96716   1.320   0.431   5.327  0.4006  0.7625 -0.3558
  717MOL0     C96717   1.460   0.413   5.335  0.3659  0.0475 -0.5330
  717MOL0     C96718   1.538   0.495   5.405 -0.8219 -0.1441 -0.1152
  717MOL0     O96719   1.678   0.495   5.381  0.6568  0.3597  0.0915
  717MOL0     C96720   1.770   0.536   5.475  0.0600 -0.2410  0.4332
  717MOL0     C96721   1.903   0.512   5.416  0.0516  0.0629 -0.9279
  717MOL0     C96722   2.020   0.552   5.513  0.0032 -0.4042  0.4089
  717MOL0     C96723   2.161   0.537   5.444  0.0186 -0.4125  1.1589
  717MOL0     C96724   2.189   0.665   5.381  0.0288  0.0949  0.4212
  717MOL0     C96725   2.219   0.777   5.336 -0.0682  0.3064 -0.0393
  717MOL0     C96726   1.478   0.600   5.478 -0.4666  0.3474  0.1384
  717MOL0     C96727   1.337   0.615   5.483 -0.6203 -0.1058  0.6121
  717MOL0     H96728   0.892   0.566   5.131 -0.3159 -0.0128  0.4930
  717MOL0     H96729   0.642   0.600   5.139  2.7025 -1.1803 -1.5194
  717MOL0     H96730   0.413   0.340   5.439  0.5559 -0.9629 -0.4360
  717MOL0     H96731   0.463   0.479   5.547  1.7234  0.3921 -0.1989
  717MOL0     H96732   0.304   0.615   5.447  2.0398 -0.8718 -3.8074
  717MOL0     H96733   0.227   0.475   5.359 -0.5109 -1.2770 -0.4209
  717MOL0     H96734   0.193   0.356   5.563 -2.8037  0.6229 -1.4335
  717MOL0     H96735   0.260   0.499   5.655  4.7752  1.5376 -3.2623
  717MOL0     H96736   0.080   0.631   5.570  3.1436 -0.2886 -1.3086
  717MOL0     H96737   0.026   0.506   5.452  0.9312  1.1074 -1.6840
  717MOL0     H96738   0.009   0.362   5.681 -1.8629  0.6637  2.5818
  717MOL0     H96739  -0.001   0.513   5.761  1.7610  2.0148 -1.2729
  717MOL0     H96740  -0.202   0.574   5.656 -2.3187  0.8965 -4.5300
  717MOL0     H96741  -0.186   0.436   5.541 -1.2712  1.2911  0.3353
  717MOL0     H96742  -0.211   0.268   5.707 -0.9550 -0.1282 -0.7394
  717MOL0     H96743  -0.185   0.383   5.838  0.3269  0.8352 -0.0852
  717MOL0     H96744  -0.405   0.412   5.637  1.3334 -0.7137 -0.8269
  717MOL0     H96745  -0.386   0.503   5.789  1.6817  1.3414 -1.0193
  717MOL0     H96746  -0.483   0.147   5.648 -2.6785 -1.3220 -0.5218
  717MOL0     H96747  -0.559  -0.096   5.840  0.9357  1.3096 -1.7413
  717MOL0     H96748  -0.684  -0.030   5.944  0.0733 -0.4515 -0.0710
  717MOL0     H96749  -0.778  -0.142   5.749  0.0075 -0.4438  1.1162
  717MOL0     H96750  -0.699  -0.015   5.643  0.7083 -0.8145  0.4981
  717MOL0     H96751  -0.928   0.050   5.678  0.5636 -2.2499 -0.5709
  717MOL0     H96752  -0.817   0.157   5.768  1.4753 -0.9842  0.4840
  717MOL0     H96753  -1.011   0.132   5.893 -2.5346 -1.7476 -0.8275
  717MOL0     H96754  -0.876   0.053   5.974 -0.4572  2.1711  0.5653
  717MOL0     H96755  -1.100  -0.314   5.820  0.5751  0.1946 -1.0729
  717MOL0     H96756  -1.375  -0.472   5.787 -1.4206  3.0361  0.5354
  717MOL0     H96757  -1.382  -0.431   5.616  2.1719 -1.8375 -1.7260
  717MOL0     H96758  -1.228  -0.473   5.676  1.9797  1.9690  0.8479
  717MOL0     H96759  -1.699  -0.195   5.470 -0.9351  0.2832 -0.4609
  717MOL0     H96760  -1.936  -0.229   5.409  3.0821  2.9322  0.7496
  717MOL0     H96761  -2.171  -0.555   5.330  0.9464 -1.5163 -1.4754
  717MOL0     H96762  -2.038  -0.627   5.426  1.2918  1.2651 -4.8177
  717MOL0     H96763  -2.244  -0.729   5.500  0.2080  0.8194  0.3142
  717MOL0     H96764  -2.216  -0.612   5.619  0.1174 -0.3771  0.4176
  717MOL0     H96765  -2.400  -0.577   5.390 -0.5905  0.9690  0.1731
  717MOL0     H96766  -2.410  -0.491   5.545  3.6301 -0.8383  3.4268
  717MOL0     H96767  -2.474  -0.792   5.514 -0.7182  0.6867 -3.2914
  717MOL0     H96768  -2.489  -0.694   5.657 -0.3926  1.5172 -0.0636
  717MOL0     H96769  -2.655  -0.681   5.405 -1.6367 -1.9078  1.2306
  717MOL0     H96770  -2.659  -0.534   5.508 -1.0233 -0.8193 -0.3162
  717MOL0     H96771  -2.743  -0.813   5.569  4.0969 -1.0642  3.7424
  717MOL0     H96772  -2.733  -0.683   5.685 -0.4956 -0.7104 -0.3237
  717MOL0     H96773  -2.882  -0.542   5.530  0.9389 -0.0424 -0.9158
  717MOL0     H96774  -2.954  -0.670   5.631  1.7128  0.3463  1.7380
  717MOL0     H96775  -2.945  -0.813   5.416 -2.1421  1.0512  0.2074
  717MOL0     H96776  -2.871  -0.657   5.350 -0.4078  0.2963  0.1570
  717MOL0     H96777  -1.958  -0.585   5.635  0.2314  0.6839  1.6849
  717MOL0     H96778  -1.719  -0.532   5.731 -2.6191 -0.2795  1.9549
  717MOL0     H96779  -1.432   0.043   5.776  1.0176  0.5373  1.4489
  717MOL0     H96780  -1.206   0.090   5.843  1.4513  0.1142 -2.1707
  717MOL0     H96781   0.650   0.397   5.521  0.7911  1.1958  1.0533
  717MOL0     H96782   0.907   0.393   5.503  0.2946 -0.0876 -0.7056
  717MOL0     H96783   1.263   0.361   5.267  1.9486 -0.5072 -0.3943
  717MOL0     H96784   1.515   0.339   5.278 -0.7863 -0.8531 -0.5080
  717MOL0     H96785   1.754   0.643   5.491 -2.3786 -0.8930  3.3459
  717MOL0     H96786   1.767   0.472   5.563  1.7759 -0.9049  0.0391
  717MOL0     H96787   1.896   0.567   5.321 -2.8651 -1.9327 -2.0081
  717MOL0     H96788   1.913   0.407   5.390 -1.9531 -0.6876  1.0041
  717MOL0     H96789   2.022   0.501   5.610 -0.7893  1.3081  1.3886
  717MOL0     H96790   1.996   0.656   5.538  2.1573  0.3765 -0.6180
  717MOL0     H96791   2.157   0.455   5.372 -1.7829  0.8374 -0.2633
  717MOL0     H96792   2.230   0.524   5.528 -0.3481  1.4017  1.7761
  717MOL0     H96793   2.244   0.881   5.323 -0.8835  0.9179  2.6542
  717MOL0     H96794   1.526   0.681   5.532  0.4283  1.4369 -2.1510
  717MOL0     H96795   1.295   0.705   5.525 -1.8430 -0.0760 -0.6272
  718MOL0     O96796   1.781   1.194   0.455 -1.0212  0.1975 -0.0958
  718MOL0     C96797   1.843   1.265   0.533  0.7863 -0.4128 -0.2493
  718MOL0     O96798   1.784   1.358   0.609 -0.9622  0.1379  0.1216
  718MOL0     C96799   1.655   1.337   0.652 -1.1473 -1.0263 -0.3813
  718MOL0     C96800   1.593   1.216   0.684 -0.5534 -0.1180  0.4631
  718MOL0     C96801   1.458   1.210   0.713 -0.5279 -0.2942 -0.9330
  718MOL0     C96802   1.377   1.324   0.702 -0.3540  0.0154 -0.4847
  718MOL0     O96803   1.254   1.302   0.742  0.2941 -0.1953  0.3364
  718MOL0     C96804   1.160   1.410   0.732  0.2243  0.2956  0.2373
  718MOL0     C96805   1.023   1.348   0.772  0.5910 -0.1865  0.1458
  718MOL0     C96806   0.895   1.444   0.776 -0.0194  0.0084  0.0526
  718MOL0     C96807   0.760   1.361   0.768 -0.1475 -0.4258  0.3322
  718MOL0     C96808   0.700   1.318   0.910  0.0110  0.2196  0.0724
  718MOL0     C96809   0.564   1.260   0.891  0.1924 -0.1506  0.4217
  718MOL0     C96810   0.524   1.168   1.005 -0.0130 -0.0108 -0.7890
  718MOL0     C96811   0.492   1.238   1.138  0.5584  0.1976  0.7799
  718MOL0     N96812   0.371   1.310   1.130  0.3361 -0.6074 -0.0358
  718MOL0     C96813   0.248   1.255   1.128 -0.1949 -0.7017  0.2614
  718MOL0     C96814   0.157   1.354   1.118  0.3864 -0.7800  0.1023
  718MOL0     C96815   0.006   1.342   1.113 -0.0591  0.3790  0.2791
  718MOL0     C96816  -0.066   1.375   1.250  0.3454 -0.0215  0.6635
  718MOL0     C96817  -0.062   1.526   1.271  0.8367 -0.3139 -0.2085
  718MOL0     C96818  -0.076   1.565   1.423 -0.0637 -0.5158  0.1092
  718MOL0     O96819  -0.185   1.495   1.493  1.1688 -0.1327 -0.3161
  718MOL0     C96820  -0.315   1.521   1.450 -0.8241  0.8125 -0.3417
  718MOL0     C96821  -0.370   1.650   1.431 -1.0298 -0.5027  0.1295
  718MOL0     C96822  -0.503   1.671   1.396 -0.3340 -0.7121  0.3617
  718MOL0     C96823  -0.549   1.823   1.393 -0.4308  1.2594 -0.5468
  718MOL0     C96824  -0.586   1.557   1.392 -0.2190 -0.2864  0.2264
  718MOL0     C96825  -0.732   1.566   1.383  0.9518  0.7361  0.9751
  718MOL0     O96826  -0.796   1.474   1.464  0.0081 -0.6940  0.3008
  718MOL0     C96827  -0.918   1.433   1.442 -1.0787 -0.0281  0.6537
  718MOL0     C96828  -0.992   1.457   1.323  0.2272  0.4196  0.6492
  718MOL0     C96829  -1.128   1.428   1.330  0.1593  0.8243  0.2510
  718MOL0     C96830  -1.194   1.368   1.432  0.6304 -1.3671 -0.8265
  718MOL0     O96831  -1.320   1.320   1.427 -0.7245  0.3570  0.6728
  718MOL0     C96832  -1.414   1.356   1.531 -0.0482  0.0274  0.6288
  718MOL0     C96833  -1.468   1.501   1.512 -0.4037 -0.3122  0.1709
  718MOL0     C96834  -1.543   1.503   1.379 -0.2448 -0.4882 -0.2593
  718MOL0     C96835  -1.675   1.418   1.363 -0.0302 -0.1205  0.2302
  718MOL0     C96836  -1.752   1.440   1.234  0.6851  1.4069  1.1254
  718MOL0     C96837  -1.878   1.347   1.219  0.6797 -0.0307  0.3563
  718MOL0     C96838  -1.968   1.396   1.108  0.3266  1.3587  0.1626
  718MOL0     C96839  -2.078   1.293   1.063  0.0594 -0.0492 -0.6576
  718MOL0    Cl96840  -1.983   1.158   0.980  0.0166 -0.2018 -0.0923
  718MOL0     C96841  -1.123   1.345   1.548  0.0671  0.5930 -0.2841
  718MOL0     C96842  -0.981   1.374   1.555 -0.6563 -0.1978 -0.8455
  718MOL0     O96843  -0.784   1.653   1.305 -0.2816 -0.2993  0.8016
  718MOL0     C96844  -0.528   1.433   1.410 -0.3830  0.5516  0.9300
  718MOL0     C96845  -0.395   1.413   1.436  0.4468  0.3340 -0.2476
  718MOL0     N96846   0.234   1.477   1.111  0.5584 -0.0659  0.2857
  718MOL0     N96847   0.357   1.447   1.121 -0.5148 -0.2619  0.5761
  718MOL0     C96848   1.437   1.449   0.665  0.8243  1.0476 -0.4661
  718MOL0     C96849   1.576   1.462   0.649  0.0247  0.7514 -0.2633
  718MOL0     C96850   1.984   1.279   0.528  0.2348 -1.0625 -1.1253
  718MOL0     C96851   2.051   1.397   0.587  0.1481  1.0030 -0.5564
  718MOL0     C96852   2.196   1.410   0.581  0.5146  0.4110 -0.1262
  718MOL0     C96853   2.269   1.305   0.520  0.0606 -0.4700 -0.9659
  718MOL0     O96854   2.404   1.324   0.511 -0.4550 -0.1674  1.2836
  718MOL0     C96855   2.485   1.216   0.465  0.0499 -0.0935 -0.1408
  718MOL0     C96856   2.625   1.254   0.505 -0.1026  1.0688  0.1652
  718MOL0     C96857   2.621   1.243   0.661 -0.5222  0.0404 -0.0294
  718MOL0     C96858   2.649   1.373   0.725  0.3319 -0.9779 -0.2499
  718MOL0     C96859   2.788   1.411   0.716 -0.3007  0.3544 -0.2496
  718MOL0     C96860   2.903   1.453   0.708 -0.6772 -0.4771  0.1077
  718MOL0     C96861   2.199   1.189   0.476 -0.7601  0.1455  0.3419
  718MOL0     C96862   2.057   1.175   0.481  0.9196 -0.8492  0.7430
  718MOL0     H96863   1.657   1.129   0.672 -0.1013  0.4739 -1.9134
  718MOL0     H96864   1.426   1.114   0.753  2.7755 -1.9636 -1.9258
  718MOL0     H96865   1.174   1.495   0.799  1.1532 -0.9674  1.7239
  718MOL0     H96866   1.163   1.449   0.630  1.2213 -0.1360  0.0868
  718MOL0     H96867   1.000   1.273   0.696 -2.6570  0.5052  0.2841
  718MOL0     H96868   1.042   1.302   0.869  1.3250 -2.3811 -0.9659
  718MOL0     H96869   0.912   1.495   0.871  0.7027  0.8835 -0.5231
  718MOL0     H96870   0.907   1.515   0.693  0.7905 -0.0926  0.0811
  718MOL0     H96871   0.695   1.435   0.720 -0.8712  0.5058  2.6528
  718MOL0     H96872   0.774   1.267   0.714  0.7141 -0.5051  0.6824
  718MOL0     H96873   0.768   1.245   0.954  2.7654  1.3582 -1.9581
  718MOL0     H96874   0.691   1.401   0.981  0.4529 -1.7000  2.4829
  718MOL0     H96875   0.491   1.341   0.890  1.3603  1.0584  2.7625
  718MOL0     H96876   0.572   1.206   0.796  0.0234  0.5829 -0.0137
  718MOL0     H96877   0.428   1.122   0.980  0.0750 -2.6577  2.9159
  718MOL0     H96878   0.600   1.092   1.025 -0.6630 -1.4807 -3.3987
  718MOL0     H96879   0.577   1.305   1.149  0.9675  0.2326 -1.9318
  718MOL0     H96880   0.481   1.170   1.224  0.0796 -1.5182 -0.5743
  718MOL0     H96881   0.228   1.149   1.116 -1.0740 -0.3920 -1.2680
  718MOL0     H96882  -0.037   1.390   1.024  0.8435 -2.9293 -2.1567
  718MOL0     H96883  -0.012   1.234   1.103  0.2004  0.1511  2.0889
  718MOL0     H96884  -0.015   1.327   1.334 -0.7406 -0.1929  1.2511
  718MOL0     H96885  -0.171   1.342   1.246 -0.0996  1.4222 -0.1110
  718MOL0     H96886  -0.143   1.570   1.212  1.4638 -0.6199 -1.3146
  718MOL0     H96887   0.033   1.568   1.237  1.0900 -1.6156 -1.1492
  718MOL0     H96888  -0.093   1.674   1.425  0.1139 -0.4854  2.2995
  718MOL0     H96889   0.024   1.546   1.463  0.0673 -2.3229 -1.0066
  718MOL0     H96890  -0.304   1.735   1.438  1.1099 -1.8137 -2.2727
  718MOL0     H96891  -0.474   1.885   1.442 -1.1761  0.2983  2.0068
  718MOL0     H96892  -0.562   1.861   1.291 -0.0895  2.3229 -0.2001
  718MOL0     H96893  -0.643   1.840   1.447  0.8904  2.4081  1.4836
  718MOL0     H96894  -0.942   1.497   1.236  4.2058 -1.0584  2.0265
  718MOL0     H96895  -1.171   1.433   1.230  0.6050 -1.1680 -0.0998
  718MOL0     H96896  -1.497   1.284   1.531 -1.3128  1.4152  1.4839
  718MOL0     H96897  -1.380   1.346   1.635 -1.7457  1.8792  1.4209
  718MOL0     H96898  -1.542   1.525   1.590 -2.2118  0.5569 -1.7366
  718MOL0     H96899  -1.384   1.568   1.526 -0.7041 -0.2418  1.9493
  718MOL0     H96900  -1.474   1.473   1.300  0.1694  0.3148 -0.2154
  718MOL0     H96901  -1.567   1.608   1.356 -1.3332 -0.8186 -0.7053
  718MOL0     H96902  -1.642   1.314   1.365  1.0157  0.2038  1.7389
  718MOL0     H96903  -1.737   1.426   1.452  0.2344  2.1650  0.2669
  718MOL0     H96904  -1.684   1.418   1.151 -1.1626  1.1233 -0.3874
  718MOL0     H96905  -1.773   1.547   1.225  0.5535  1.3561  0.7991
  718MOL0     H96906  -1.849   1.242   1.212  1.8716  0.2825  0.5223
  718MOL0     H96907  -1.945   1.346   1.305 -1.0270 -0.2524 -0.9062
  718MOL0     H96908  -1.910   1.433   1.023  1.5697  0.2558  0.5053
  718MOL0     H96909  -2.024   1.487   1.131 -2.7235 -0.4129  0.4034
  718MOL0     H96910  -2.143   1.346   0.993  1.0976 -1.2940 -2.6678
  718MOL0     H96911  -2.134   1.272   1.154 -0.1324  1.7373 -0.3197
  718MOL0     H96912  -1.165   1.303   1.639  0.8736  0.2977 -0.0379
  718MOL0     H96913  -0.942   1.370   1.656 -1.6815 -3.2443 -0.4413
  718MOL0     H96914  -0.588   1.342   1.409  1.7653 -0.9886  2.2847
  718MOL0     H96915  -0.365   1.313   1.465 -1.1074 -0.5369 -1.4927
  718MOL0     H96916   1.381   1.542   0.653  0.5531  1.4696  2.9578
  718MOL0     H96917   1.634   1.550   0.623  3.9185 -1.1090  1.3009
  718MOL0     H96918   2.005   1.487   0.627 -0.6328  1.2737 -1.9939
  718MOL0     H96919   2.237   1.508   0.606 -0.4149  1.2108 -1.5508
  718MOL0     H96920   2.458   1.118   0.507 -0.7739  0.3516  0.4030
  718MOL0     H96921   2.476   1.210   0.356 -0.1914 -1.8100 -0.0487
  718MOL0     H96922   2.656   1.349   0.461  3.0685 -0.0688 -0.2911
  718MOL0     H96923   2.696   1.179   0.469  1.1470  1.0271  2.5650
  718MOL0     H96924   2.691   1.177   0.712  1.5496  1.4204 -0.9324
  718MOL0     H96925   2.531   1.194   0.698  0.4237 -1.5023  0.2914
  718MOL0     H96926   2.614   1.370   0.829  0.3001  0.8121 -0.1749
  718MOL0     H96927   2.596   1.450   0.668  1.4449 -1.5823 -2.1805
  718MOL0     H96928   3.004   1.485   0.693 -1.0030  0.5583  0.0085
  718MOL0     H96929   2.252   1.117   0.414 -1.6486 -1.1939  1.0700
  718MOL0     H96930   2.017   1.082   0.443 -1.7807 -0.2066  1.8005
  719MOL0     O96931   2.634   2.423   0.174 -0.3536  0.1848  0.3059
  719MOL0     C96932   2.721   2.432   0.254 -0.1033  0.9314 -1.4691
  719MOL0     O96933   2.708   2.394   0.386 -0.3397 -0.9978  0.1558
  719MOL0     C96934   2.578   2.356   0.417 -0.7987  0.4709  0.4618
  719MOL0     C96935   2.559   2.235   0.481 -0.1572  0.2789 -0.1526
  719MOL0     C96936   2.434   2.183   0.521 -0.3039  0.1909  0.2835
  719MOL0     C96937   2.314   2.261   0.494  0.2615  0.5742 -0.2088
  719MOL0     O96938   2.198   2.195   0.536  0.2615 -0.2272 -0.5525
  719MOL0     C96939   2.079   2.243   0.487  0.2552 -0.0438  0.4962
  719MOL0     C96940   2.001   2.109   0.481  0.5299 -0.0144  0.1973
  719MOL0     C96941   1.867   2.121   0.422  0.6525 -0.1850 -0.9909
  719MOL0     C96942   1.770   2.206   0.517  0.3952 -0.2270  0.5585
  719MOL0     C96943   1.635   2.196   0.455  0.5229 -1.0126  0.5701
  719MOL0     C96944   1.532   2.275   0.545 -0.6442  0.3438  0.0913
  719MOL0     C96945   1.385   2.246   0.521 -0.2065 -0.1297 -0.2245
  719MOL0     C96946   1.328   2.108   0.570  0.0055 -0.5363  0.0853
  719MOL0     N96947   1.191   2.078   0.543 -0.8209 -0.4356  0.4590
  719MOL0     C96948   1.092   2.154   0.587  0.8363 -0.3459 -0.2444
  719MOL0     C96949   0.977   2.085   0.563 -0.7376 -1.3530  0.7393
  719MOL0     C96950   0.848   2.147   0.584 -0.5666  0.0850  0.2160
  719MOL0     C96951   0.729   2.063   0.532 -0.5603 -1.3583  0.0469
  719MOL0     C96952   0.596   2.145   0.535  0.3349  0.7275 -0.5142
  719MOL0     C96953   0.486   2.052   0.490  1.0866 -0.0436  0.5489
  719MOL0     O96954   0.356   2.122   0.504  0.1068 -0.8281  0.3942
  719MOL0     C96955   0.252   2.040   0.511  1.1124 -0.0918  0.1737
  719MOL0     C96956   0.155   2.065   0.610 -0.6492  1.1597  0.6790
  719MOL0     C96957   0.035   1.990   0.621  0.0971 -0.4271 -0.1825
  719MOL0     C96958  -0.061   2.044   0.732  0.1257 -0.3773 -0.2883
  719MOL0     C96959   0.011   1.887   0.535 -0.5060  0.2736  0.3861
  719MOL0     C96960  -0.121   1.799   0.528 -0.4917 -0.0953 -0.1703
  719MOL0     O96961  -0.146   1.716   0.420 -0.1520  0.0960  0.2430
  719MOL0     C96962  -0.278   1.679   0.402 -0.5017  0.1204 -0.1134
  719MOL0     C96963  -0.372   1.769   0.357  0.1949  0.0485 -0.1264
  719MOL0     C96964  -0.505   1.711   0.335 -0.0244 -0.8350  0.2534
  719MOL0     C96965  -0.538   1.587   0.364 -0.7642  0.3686  0.4020
  719MOL0     O96966  -0.661   1.548   0.321  0.5289  0.9478 -0.1052
  719MOL0     C96967  -0.742   1.482   0.413  0.6747 -0.1167 -0.5180
  719MOL0     C96968  -0.861   1.429   0.339  0.1458 -0.3541  0.2491
  719MOL0     C96969  -0.925   1.526   0.231  0.3801  0.6324  0.1183
  719MOL0     C96970  -0.975   1.653   0.300 -0.4265  0.0391 -0.3358
  719MOL0     C96971  -1.037   1.754   0.194 -0.3104 -0.1682 -0.4704
  719MOL0     C96972  -1.069   1.892   0.239  0.3443 -0.7034  0.1052
  719MOL0     C96973  -1.160   1.890   0.367  0.2704  0.3297  0.7818
  719MOL0     C96974  -1.219   2.032   0.365 -0.6176  0.7892  0.6474
  719MOL0    Cl96975  -1.237   2.084   0.531 -0.2527  0.3398  0.1959
  719MOL0     C96976  -0.438   1.497   0.412 -0.2009  0.0879  0.7076
  719MOL0     C96977  -0.306   1.544   0.415 -0.5426 -0.2209  0.2377
  719MOL0     O96978  -0.195   1.815   0.626 -0.5687  0.1818  0.3139
  719MOL0     C96979   0.118   1.853   0.448  0.4786  0.5694 -0.6297
  719MOL0     C96980   0.226   1.934   0.422 -0.5137 -0.4041 -0.3373
  719MOL0     N96981   1.015   1.986   0.470 -0.2413  0.3893 -0.3306
  719MOL0     N96982   1.139   1.971   0.478 -0.3169  0.5032  0.5505
  719MOL0     C96983   2.330   2.384   0.430 -0.1592  0.2765 -0.0547
  719MOL0     C96984   2.456   2.431   0.396 -0.5455  0.1839  0.1192
  719MOL0     C96985   2.857   2.475   0.214 -0.0360 -0.9187 -0.0881
  719MOL0     C96986   2.972   2.452   0.288  0.3464 -0.2608  0.3267
  719MOL0     C96987   3.101   2.478   0.240  0.3151  0.9006 -0.6006
  719MOL0     C96988   3.114   2.536   0.116  0.0790  0.2394  0.2349
  719MOL0     O96989   3.226   2.592   0.060 -0.6011 -0.2476  0.1609
  719MOL0     C96990   3.348   2.577   0.132  0.3635  0.2542  0.4860
  719MOL0     C96991   3.463   2.622   0.053  0.4766 -0.3726  0.2923
  719MOL0     C96992   3.482   2.553  -0.086  0.5627  1.1541 -0.0696
  719MOL0     C96993   3.607   2.605  -0.170 -0.0804  0.0024 -0.3031
  719MOL0     C96994   3.734   2.568  -0.099 -0.1841 -0.3294 -0.3814
  719MOL0     C96995   3.827   2.546  -0.026 -0.8300  0.5710 -0.8210
  719MOL0     C96996   2.997   2.565   0.036 -0.7573  0.0115 -0.0174
  719MOL0     C96997   2.868   2.529   0.088  0.2500  0.0775 -0.1183
  719MOL0     H96998   2.647   2.178   0.509  0.5449  1.5818  0.3844
  719MOL0     H96999   2.434   2.083   0.564  3.2580  0.5126  1.3758
  719MOL0     H97000   2.027   2.311   0.555 -1.1522 -1.8233  1.2838
  719MOL0     H97001   2.094   2.287   0.389  2.1324 -1.2568  0.1908
  719MOL0     H97002   2.059   2.032   0.428 -1.1322 -0.2996 -1.3005
  719MOL0     H97003   1.985   2.074   0.584 -0.0034  2.5631  1.0589
  719MOL0     H97004   1.856   2.167   0.323 -2.5617  0.4475 -0.4608
  719MOL0     H97005   1.821   2.022   0.420  0.2306  0.0207 -1.8443
  719MOL0     H97006   1.768   2.152   0.612  1.4795 -2.3320 -0.5659
  719MOL0     H97007   1.798   2.311   0.533  2.1229 -0.8375  1.8127
  719MOL0     H97008   1.634   2.234   0.352 -1.9367 -1.5328  0.3403
  719MOL0     H97009   1.597   2.094   0.446  0.9463 -1.1077 -0.3039
  719MOL0     H97010   1.549   2.264   0.653  0.4872  0.4159 -0.0741
  719MOL0     H97011   1.564   2.379   0.533  2.8475 -0.7250 -1.0661
  719MOL0     H97012   1.327   2.319   0.579 -1.8328 -2.7960  1.7590
  719MOL0     H97013   1.362   2.256   0.414  1.5208  1.4525 -0.5044
  719MOL0     H97014   1.326   2.104   0.680 -1.2134 -1.6349  0.0482
  719MOL0     H97015   1.390   2.028   0.527  0.3269  0.3337 -1.1165
  719MOL0     H97016   1.099   2.252   0.634 -0.3651 -1.2607  1.9592
  719MOL0     H97017   0.834   2.159   0.691 -0.2026  1.0781  0.1668
  719MOL0     H97018   0.858   2.243   0.532 -1.9225  1.3032  2.0799
  719MOL0     H97019   0.730   1.976   0.598 -1.1729 -0.6635  0.9910
  719MOL0     H97020   0.747   2.029   0.429 -3.2452  0.1931 -1.0390
  719MOL0     H97021   0.606   2.230   0.467  1.7762 -1.4273 -3.2161
  719MOL0     H97022   0.580   2.178   0.638  1.8995 -3.2167  1.2037
  719MOL0     H97023   0.490   1.958   0.546  0.8520 -1.4777 -1.7430
  719MOL0     H97024   0.502   2.034   0.384 -0.1256  0.2369  0.3014
  719MOL0     H97025   0.176   2.144   0.682  1.6503  1.1056  0.1356
  719MOL0     H97026  -0.108   1.966   0.793 -1.6497  1.3655  0.7050
  719MOL0     H97027  -0.011   2.120   0.794 -1.4648 -0.3503  1.0373
  719MOL0     H97028  -0.144   2.104   0.692  1.7112  2.4370  0.3950
  719MOL0     H97029  -0.348   1.871   0.329  2.3895 -0.4108 -0.1020
  719MOL0     H97030  -0.583   1.767   0.284  2.9218  0.0795 -3.8486
  719MOL0     H97031  -0.692   1.402   0.469  1.2768  1.5372  1.4219
  719MOL0     H97032  -0.778   1.557   0.485  0.5519  0.2805 -0.9886
  719MOL0     H97033  -0.837   1.332   0.295  1.9931  0.0722  0.2510
  719MOL0     H97034  -0.939   1.407   0.413  0.1712  1.3433  0.8255
  719MOL0     H97035  -1.014   1.481   0.187 -2.5347  1.3914  4.6070
  719MOL0     H97036  -0.842   1.554   0.164 -0.2620  2.3101 -0.0137
  719MOL0     H97037  -1.057   1.630   0.370  0.9828  0.3135  1.4744
  719MOL0     H97038  -0.893   1.699   0.355 -1.1850 -0.4323  1.2685
  719MOL0     H97039  -1.127   1.712   0.149 -0.1624  0.9730 -1.8769
  719MOL0     H97040  -0.957   1.765   0.120  0.2050 -0.0855  0.0890
  719MOL0     H97041  -0.971   1.937   0.261  0.3418 -0.1059 -1.0429
  719MOL0     H97042  -1.108   1.945   0.152 -1.9708  0.5149  1.7686
  719MOL0     H97043  -1.100   1.873   0.457  0.5279 -2.2358  0.1984
  719MOL0     H97044  -1.230   1.807   0.365 -2.9077  2.8364 -0.2673
  719MOL0     H97045  -1.314   2.026   0.310 -0.5547 -0.2012  0.6220
  719MOL0     H97046  -1.159   2.109   0.315  1.3748 -1.5674 -0.8003
  719MOL0     H97047  -0.461   1.392   0.425 -0.5962 -0.1345 -1.4142
  719MOL0     H97048  -0.226   1.476   0.441  1.7417  2.0665 -0.3547
  719MOL0     H97049   0.109   1.761   0.392  1.0111 -0.7566  1.3668
  719MOL0     H97050   0.291   1.913   0.338  2.6124  2.7880  1.0119
  719MOL0     H97051   2.241   2.440   0.406 -2.0924 -2.8810 -0.9412
  719MOL0     H97052   2.466   2.529   0.349  3.8491  0.8830  1.9583
  719MOL0     H97053   2.969   2.426   0.393  1.7139  2.2685  1.0836
  719MOL0     H97054   3.194   2.463   0.293  0.1579  0.8335 -0.3421
  719MOL0     H97055   3.345   2.639   0.223 -0.4843 -0.5317  1.0090
  719MOL0     H97056   3.371   2.475   0.164  1.5311  1.2813  3.2615
  719MOL0     H97057   3.553   2.600   0.112  1.5367 -1.2144 -1.5270
  719MOL0     H97058   3.456   2.731   0.046  0.2060 -0.3031  1.4674
  719MOL0     H97059   3.394   2.565  -0.150  0.1348 -0.3225  0.1881
  719MOL0     H97060   3.496   2.446  -0.065 -0.8644  1.0766  0.6656
  719MOL0     H97061   3.592   2.711  -0.191 -1.1080 -0.4560 -2.1185
  719MOL0     H97062   3.603   2.544  -0.261 -1.6558 -1.3781  0.6173
  719MOL0     H97063   3.909   2.532   0.042  0.0529  0.9312 -1.7927
  719MOL0     H97064   3.007   2.626  -0.053 -0.4282 -1.1062 -0.7654
  719MOL0     H97065   2.776   2.541   0.030 -0.5993 -1.4406  0.8503
  720MOL0     O97066   1.494   0.770   9.803  0.1944 -0.3259 -0.0132
  720MOL0     C97067   1.506   0.785   9.680 -0.4037  1.3276  0.7291
  720MOL0     O97068   1.416   0.731   9.590  0.8110 -0.0328 -0.0482
  720MOL0     C97069   1.294   0.679   9.632 -0.7268 -0.0170  0.0060
  720MOL0     C97070   1.216   0.708   9.749  0.6771  0.1591  0.3868
  720MOL0     C97071   1.091   0.643   9.770 -0.2959  0.1316 -0.2579
  720MOL0     C97072   1.044   0.544   9.683 -0.3670  0.3042  0.3711
  720MOL0     O97073   0.924   0.496   9.714  0.0298 -0.0705 -0.0870
  720MOL0     C97074   0.875   0.380   9.653 -0.8872 -0.0192 -0.1190
  720MOL0     C97075   0.754   0.327   9.732 -0.5392  0.5401 -0.7224
  720MOL0     C97076   0.791   0.283   9.873 -0.5320 -0.0029 -0.3400
  720MOL0     C97077   0.677   0.233   9.965  0.1544  0.3311 -0.4570
  720MOL0     C97078   0.730   0.226  10.111 -0.2342 -0.2569 -0.1060
  720MOL0     C97079   0.642   0.132  10.192 -0.6207 -0.8301 -0.0641
  720MOL0     C97080   0.700   0.107  10.335  0.6526 -0.5848  0.1538
  720MOL0     C97081   0.681   0.223  10.436  0.5857 -0.1585  0.4776
  720MOL0     N97082   0.533   0.237  10.469 -0.6114 -0.1378 -0.4635
  720MOL0     C97083   0.451   0.133  10.505 -0.7013 -0.5547 -0.5298
  720MOL0     C97084   0.343   0.198  10.552 -0.2044 -0.1721 -0.3969
  720MOL0     C97085   0.224   0.123  10.598 -0.4706  0.5298 -0.4108
  720MOL0     C97086   0.103   0.123  10.501  0.2819 -0.4413  0.0523
  720MOL0     C97087   0.034   0.258  10.484  0.7022  0.1092  0.3305
  720MOL0     C97088  -0.082   0.255  10.383  0.2176 -0.1323  0.3410
  720MOL0     O97089  -0.189   0.181  10.431  0.1064  0.0802 -0.7532
  720MOL0     C97090  -0.301   0.180  10.347  0.8104  1.0490 -0.3290
  720MOL0     C97091  -0.319   0.222  10.213 -0.1268 -0.4923 -0.1808
  720MOL0     C97092  -0.436   0.207  10.137 -1.0351  0.0825  0.1706
  720MOL0     C97093  -0.427   0.259   9.998 -0.8194 -0.6557  0.1228
  720MOL0     C97094  -0.552   0.142  10.197 -0.8544  0.8212  1.1703
  720MOL0     C97095  -0.680   0.116  10.132 -0.7631  0.4538 -0.6685
  720MOL0     O97096  -0.772   0.042  10.193 -0.3195 -0.3504 -0.4993
  720MOL0     C97097  -0.891   0.015  10.133  0.1823 -0.1676 -1.1341
  720MOL0     C97098  -1.003   0.101  10.157  0.0719 -0.9848  0.4215
  720MOL0     C97099  -1.129   0.070  10.103 -0.3035 -0.4612  0.6980
  720MOL0     C97100  -1.147  -0.057  10.037 -0.2605 -0.7101 -1.1272
  720MOL0     O97101  -1.268  -0.102  10.003 -0.2864 -0.2007 -0.1525
  720MOL0     C97102  -1.365  -0.080  10.104  0.2698 -0.2438 -0.3686
  720MOL0     C97103  -1.475  -0.178  10.077  0.1763 -0.0659  0.5399
  720MOL0     C97104  -1.440  -0.321  10.077  0.4786 -0.1928 -0.7906
  720MOL0     C97105  -1.410  -0.373  10.222  0.2587 -0.0382  0.3101
  720MOL0     C97106  -1.376  -0.519  10.236 -0.8705  0.1037  0.5496
  720MOL0     C97107  -1.272  -0.570  10.125 -0.5340  0.3925  0.1444
  720MOL0     C97108  -1.133  -0.505  10.141 -0.6391  0.1356  0.5047
  720MOL0     C97109  -1.027  -0.568  10.042  0.1256 -0.4897 -0.2485
  720MOL0    Cl97110  -1.102  -0.593   9.882 -0.0585  0.0374 -0.1340
  720MOL0     C97111  -1.031  -0.136  10.018 -0.6292 -0.0164  0.5343
  720MOL0     C97112  -0.901  -0.095  10.057 -0.4237  0.6368 -0.6014
  720MOL0     O97113  -0.691   0.169  10.019  0.1636  0.0307 -0.4163
  720MOL0     C97114  -0.533   0.101  10.328  0.2925  1.2615  0.3051
  720MOL0     C97115  -0.415   0.124  10.402  0.0594  0.3151 -0.0331
  720MOL0     N97116   0.352   0.334  10.526 -0.0818  0.7297 -0.0657
  720MOL0     N97117   0.469   0.357  10.477  0.2225  0.1877 -0.1231
  720MOL0     C97118   1.118   0.517   9.564  0.7165 -0.1102 -0.6903
  720MOL0     C97119   1.240   0.583   9.542  0.5005 -0.3207 -0.2164
  720MOL0     C97120   1.615   0.855   9.628 -0.0859  1.0159 -0.3592
  720MOL0     C97121   1.724   0.885   9.710  0.0844 -0.3274 -0.8293
  720MOL0     C97122   1.831   0.962   9.658  0.0442  0.1235  0.7374
  720MOL0     C97123   1.835   1.010   9.521 -0.1641  0.3634  0.6235
  720MOL0     O97124   1.936   1.082   9.464  0.1074  0.2156  0.7876
  720MOL0     C97125   2.050   1.128   9.541  0.5144  0.0799 -0.1150
  720MOL0     C97126   2.180   1.124   9.459 -0.4605 -0.5047  0.6223
  720MOL0     C97127   2.209   0.979   9.411 -0.1684 -0.0336  0.2918
  720MOL0     C97128   2.290   0.983   9.280 -0.1612  0.0064  0.8992
  720MOL0     C97129   2.424   1.044   9.292  0.2088 -0.0133 -0.1625
  720MOL0     C97130   2.531   1.104   9.323 -0.3854 -0.1878 -0.2280
  720MOL0     C97131   1.728   0.966   9.446 -0.8998 -0.3466 -0.3553
  720MOL0     C97132   1.629   0.890   9.498 -0.3121 -0.5656 -0.0325
  720MOL0     H97133   1.258   0.782   9.816  3.6795  0.8932 -2.0835
  720MOL0     H97134   1.042   0.675   9.861  1.1554 -0.6909  0.8462
  720MOL0     H97135   0.856   0.411   9.550 -2.7634 -2.6037 -0.6396
  720MOL0     H97136   0.947   0.298   9.648 -3.0935 -2.0173 -1.1409
  720MOL0     H97137   0.684   0.411   9.737 -1.5070 -0.3289  2.5274
  720MOL0     H97138   0.702   0.244   9.683  1.9127 -0.7993 -1.2029
  720MOL0     H97139   0.870   0.207   9.873 -0.3739  0.1608 -0.5534
  720MOL0     H97140   0.826   0.371   9.927 -1.2159 -0.2645  0.5693
  720MOL0     H97141   0.603   0.314   9.965 -1.3021 -0.9453  0.1291
  720MOL0     H97142   0.628   0.139   9.935  1.3530 -0.7735  0.9141
  720MOL0     H97143   0.829   0.180  10.105 -0.5907 -1.0074 -0.5308
  720MOL0     H97144   0.742   0.325  10.155 -0.9190 -0.1261 -0.2014
  720MOL0     H97145   0.543   0.175  10.208 -1.3214 -2.2156 -0.4962
  720MOL0     H97146   0.621   0.034  10.146 -2.1099 -1.0705  1.0506
  720MOL0     H97147   0.639   0.021  10.363 -0.1308 -0.3097 -0.6583
  720MOL0     H97148   0.805   0.078  10.324  0.5682 -0.5646 -0.8486
  720MOL0     H97149   0.730   0.308  10.386  0.4084 -0.9458 -1.0990
  720MOL0     H97150   0.737   0.197  10.526 -0.1378 -0.5345  0.8215
  720MOL0     H97151   0.461   0.026  10.515  1.8313 -0.2739  0.8984
  720MOL0     H97152   0.252   0.018  10.607  0.6028  0.4861 -3.1496
  720MOL0     H97153   0.201   0.165  10.696  1.4364  0.3422  0.1520
  720MOL0     H97154   0.034   0.045  10.535 -2.1947  1.6231  0.0905
  720MOL0     H97155   0.140   0.096  10.402  0.3713 -2.8941  0.6902
  720MOL0     H97156   0.110   0.326  10.444  1.7478 -0.6534  0.9621
  720MOL0     H97157  -0.006   0.293  10.579 -1.7362  1.5560 -1.1317
  720MOL0     H97158  -0.051   0.209  10.288 -3.3086 -0.3658 -0.8256
  720MOL0     H97159  -0.115   0.359  10.375  0.2482 -0.2022 -0.9230
  720MOL0     H97160  -0.233   0.270  10.166 -0.6199 -0.7160 -1.3356
  720MOL0     H97161  -0.334   0.313   9.981 -1.9504  1.5334  0.4426
  720MOL0     H97162  -0.437   0.186   9.918  2.3493  1.1439 -2.1520
  720MOL0     H97163  -0.493   0.344   9.974  1.8570  1.0320 -1.8242
  720MOL0     H97164  -1.002   0.197  10.207 -0.4399 -1.6500  1.7598
  720MOL0     H97165  -1.211   0.141  10.112  2.1883  2.8018 -0.1594
  720MOL0     H97166  -1.327  -0.105  10.204  0.4281 -4.3240 -1.2643
  720MOL0     H97167  -1.413   0.018  10.109  0.3453 -0.2667  2.7422
  720MOL0     H97168  -1.563  -0.165  10.141 -0.8281  0.8201 -0.9784
  720MOL0     H97169  -1.508  -0.152   9.976 -1.7530 -0.2890  1.0687
  720MOL0     H97170  -1.350  -0.328  10.015  1.4424  6.0496 -0.7122
  720MOL0     H97171  -1.521  -0.381  10.035  1.5302 -2.3715  0.0993
  720MOL0     H97172  -1.330  -0.314  10.267  1.2369  0.6071 -2.1019
  720MOL0     H97173  -1.502  -0.355  10.278  0.1029  0.5218 -0.1129
  720MOL0     H97174  -1.468  -0.577  10.240 -0.8157 -0.1172 -0.9067
  720MOL0     H97175  -1.341  -0.533  10.339 -1.9018  1.9963  1.2001
  720MOL0     H97176  -1.258  -0.678  10.139  2.1380  0.1850 -2.9613
  720MOL0     H97177  -1.314  -0.543  10.028 -0.7602  0.1241  0.1670
  720MOL0     H97178  -1.108  -0.499  10.247 -3.3474  2.9106  1.1339
  720MOL0     H97179  -1.140  -0.398  10.119 -0.0245 -0.0260 -0.5510
  720MOL0     H97180  -0.988  -0.664  10.076  2.4415  0.6683  0.6385
  720MOL0     H97181  -0.941  -0.501  10.055 -0.5589  0.3673 -0.0360
  720MOL0     H97182  -1.040  -0.227   9.959 -1.1673  0.2561  0.1801
  720MOL0     H97183  -0.819  -0.162  10.034 -0.4525 -0.3244  1.7809
  720MOL0     H97184  -0.618   0.051  10.374  1.0779 -0.2446  0.1804
  720MOL0     H97185  -0.413   0.082  10.502 -0.1437  0.5783  0.0832
  720MOL0     H97186   1.072   0.444   9.499  1.9848  0.3705 -2.1846
  720MOL0     H97187   1.298   0.558   9.453  1.6380  1.8080 -0.1487
  720MOL0     H97188   1.722   0.862   9.816 -0.6218 -0.7629 -0.9317
  720MOL0     H97189   1.905   1.000   9.728  1.3809  1.5659 -1.3627
  720MOL0     H97190   2.031   1.235   9.554  0.2785  0.0549 -0.2518
  720MOL0     H97191   2.071   1.084   9.639  2.8453  1.9598  0.3477
  720MOL0     H97192   2.267   1.144   9.522 -0.8613 -1.6189  1.5643
  720MOL0     H97193   2.167   1.197   9.379 -0.7947 -2.4699 -1.1986
  720MOL0     H97194   2.117   0.922   9.396 -0.3811  0.1560  0.8456
  720MOL0     H97195   2.277   0.934   9.483  0.0276  0.6864  0.5662
  720MOL0     H97196   2.227   1.043   9.214  0.5423 -0.6955 -0.4603
  720MOL0     H97197   2.314   0.884   9.241  2.4707  0.9024 -0.0061
  720MOL0     H97198   2.623   1.141   9.364  1.7355 -1.3268 -3.5700
  720MOL0     H97199   1.727   0.996   9.342  0.7071 -0.2282 -0.3722
  720MOL0     H97200   1.554   0.873   9.421  2.2567  0.7432 -3.0541
  721MOL0     O97201   8.029   6.668   7.693  0.0217 -0.2520 -0.3400
  721MOL0     C97202   8.146   6.643   7.660  0.1330 -0.0420 -0.2888
  721MOL0     O97203   8.204   6.650   7.531  0.6727  0.5794 -0.8613
  721MOL0     C97204   8.118   6.671   7.426 -0.0228  0.4873 -0.8115
  721MOL0     C97205   7.996   6.608   7.416 -0.1980  0.4282 -1.2303
  721MOL0     C97206   7.921   6.614   7.296  0.1996 -1.1587  0.0359
  721MOL0     C97207   7.965   6.686   7.184 -0.6511 -0.5954  0.5546
  721MOL0     O97208   7.892   6.679   7.064  0.2242 -0.0560  0.3207
  721MOL0     C97209   7.939   6.754   6.951  0.3719  0.0892 -0.6023
  721MOL0     C97210   7.840   6.738   6.835 -0.2779 -0.1091 -0.1056
  721MOL0     C97211   7.694   6.768   6.877  0.1215 -0.5629 -0.4093
  721MOL0     C97212   7.627   6.806   6.741 -0.7026  1.1657 -0.3203
  721MOL0     C97213   7.480   6.844   6.757 -0.0910 -0.1261  0.2815
  721MOL0     C97214   7.395   6.719   6.776  0.6520 -0.0320  0.4500
  721MOL0     C97215   7.269   6.751   6.854 -0.3705  0.1000 -0.4254
  721MOL0     C97216   7.300   6.772   7.002  0.1047  1.9535  0.2818
  721MOL0     N97217   7.176   6.814   7.064 -0.0348  0.0078 -0.0500
  721MOL0     C97218   7.140   6.946   7.080  0.3411 -0.2885  0.5306
  721MOL0     C97219   7.015   6.934   7.140 -0.0049 -0.2558 -0.3518
  721MOL0     C97220   6.917   7.045   7.185 -0.3866 -0.0113 -1.0211
  721MOL0     C97221   6.847   7.122   7.072 -0.3265  0.7144  0.3729
  721MOL0     C97222   6.732   7.052   7.002  0.3832 -0.4293 -0.2576
  721MOL0     C97223   6.680   7.131   6.885 -0.1311 -0.2983 -0.4411
  721MOL0     O97224   6.558   7.089   6.827  0.2605  0.8036  0.0263
  721MOL0     C97225   6.435   7.126   6.887 -0.3624  0.1004 -0.2772
  721MOL0     C97226   6.422   7.218   6.992 -0.1100 -0.1773  0.3104
  721MOL0     C97227   6.289   7.240   7.040 -0.8783  0.1397 -0.4440
  721MOL0     C97228   6.285   7.340   7.156  0.7190 -0.7827  0.3887
  721MOL0     C97229   6.177   7.155   7.003 -0.5462 -0.3286  0.1878
  721MOL0     C97230   6.044   7.165   7.060  0.1552 -0.0755 -0.7374
  721MOL0     O97231   5.953   7.084   6.994  0.0282  0.0225  0.4910
  721MOL0     C97232   5.818   7.069   7.035  0.4007 -0.4210 -0.3992
  721MOL0     C97233   5.707   7.088   6.953  0.5446  0.0498  0.0581
  721MOL0     C97234   5.578   7.095   7.010 -0.1330 -0.6430  1.2839
  721MOL0     C97235   5.559   7.071   7.144  0.9823  0.1576 -0.7315
  721MOL0     O97236   5.436   7.074   7.206  0.0121 -0.0349 -0.1197
  721MOL0     C97237   5.328   7.147   7.149  0.2709 -0.1346 -0.7246
  721MOL0     C97238   5.220   7.163   7.259 -0.2915  0.4534 -0.0790
  721MOL0     C97239   5.262   7.240   7.392  0.4465  0.0345  0.1924
  721MOL0     C97240   5.169   7.213   7.508 -0.5645 -0.4940  0.5270
  721MOL0     C97241   5.218   7.263   7.642 -0.1621 -0.5573 -0.1348
  721MOL0     C97242   5.127   7.189   7.748 -0.2621 -0.7986 -0.1142
  721MOL0     C97243   5.200   7.197   7.885 -0.0651 -0.3086 -0.1684
  721MOL0     C97244   5.112   7.110   7.975  0.3710  0.2504 -0.6107
  721MOL0    Cl97245   4.980   7.210   8.033  0.1903  0.1995 -0.0201
  721MOL0     C97246   5.669   7.042   7.230 -0.3904  0.6908  0.0340
  721MOL0     C97247   5.796   7.041   7.174  0.5888 -0.2892  0.1584
  721MOL0     O97248   6.015   7.236   7.155  0.1167  0.0251 -0.6768
  721MOL0     C97249   6.200   7.057   6.908  0.6105  0.0266  0.3385
  721MOL0     C97250   6.324   7.056   6.848 -0.2547 -0.0031  0.7702
  721MOL0     N97251   6.984   6.798   7.162  0.0049  0.7891 -0.4230
  721MOL0     N97252   7.080   6.726   7.108 -0.1563  0.8056 -0.2594
  721MOL0     C97253   8.092   6.747   7.198 -0.0826 -0.0442 -0.2230
  721MOL0     C97254   8.168   6.746   7.315  0.2569 -0.6503 -0.7959
  721MOL0     C97255   8.236   6.594   7.766 -0.2198 -0.5126  0.5252
  721MOL0     C97256   8.188   6.528   7.876  0.1977 -0.0514 -0.0869
  721MOL0     C97257   8.274   6.491   7.983  0.1660  0.3452  0.1690
  721MOL0     C97258   8.414   6.512   7.971  0.7519 -0.1335  0.1525
  721MOL0     O97259   8.498   6.471   8.073 -0.0706 -0.2721 -0.4874
  721MOL0     C97260   8.637   6.499   8.061 -0.6213  0.3870  0.6201
  721MOL0     C97261   8.701   6.402   7.963  0.3831 -0.2996  1.0032
  721MOL0     C97262   8.846   6.447   7.929 -0.8791 -0.2713  0.4792
  721MOL0     C97263   8.906   6.369   7.807 -0.9506  0.1800 -0.1243
  721MOL0     C97264   8.897   6.458   7.686  0.2479 -0.3534 -0.1383
  721MOL0     C97265   8.887   6.538   7.594 -0.2872  0.4562  0.1799
  721MOL0     C97266   8.455   6.581   7.856  0.6260  0.3522 -0.6748
  721MOL0     C97267   8.371   6.631   7.762 -0.5575  0.7717 -0.5482
  721MOL0     H97268   7.966   6.542   7.496  3.0616 -0.0413 -0.2362
  721MOL0     H97269   7.834   6.550   7.284  0.2475 -1.1465 -0.3792
  721MOL0     H97270   7.948   6.860   6.976 -1.8834  0.1060  0.4233
  721MOL0     H97271   8.031   6.710   6.914  0.3413 -0.2368 -0.3003
  721MOL0     H97272   7.868   6.789   6.742  0.2057  1.3477  0.7945
  721MOL0     H97273   7.849   6.632   6.810  0.3919 -0.1964  0.4942
  721MOL0     H97274   7.641   6.684   6.923 -1.0327  0.7390  0.7363
  721MOL0     H97275   7.670   6.852   6.944 -2.2842  0.3514 -2.2854
  721MOL0     H97276   7.690   6.891   6.714  1.3868 -0.4637 -0.9039
  721MOL0     H97277   7.633   6.725   6.668 -1.0589  2.1007 -1.4150
  721MOL0     H97278   7.473   6.918   6.838  2.3312 -0.3699  0.7804
  721MOL0     H97279   7.446   6.888   6.663  2.1732  1.6645  0.1973
  721MOL0     H97280   7.362   6.675   6.681 -1.2758  0.9295  0.6303
  721MOL0     H97281   7.451   6.639   6.826  2.7657  0.4535 -0.9871
  721MOL0     H97282   7.225   6.844   6.817  0.5524  0.4573 -0.6505
  721MOL0     H97283   7.202   6.668   6.828  1.8914 -2.0051 -0.0052
  721MOL0     H97284   7.377   6.847   7.020  2.0443  0.4462 -1.2640
  721MOL0     H97285   7.316   6.672   7.045 -3.2897  0.5198 -1.4507
  721MOL0     H97286   7.190   7.037   7.052 -0.3470 -0.0872 -0.0934
  721MOL0     H97287   6.836   7.013   7.251  0.9387  0.7851  1.1323
  721MOL0     H97288   6.975   7.116   7.246  0.6937 -3.4318  2.3172
  721MOL0     H97289   6.918   7.136   6.990 -0.6674 -0.3257 -0.1096
  721MOL0     H97290   6.805   7.215   7.113  0.5882  1.0982  0.4641
  721MOL0     H97291   6.660   7.052   7.084 -1.6980 -4.0982 -1.8169
  721MOL0     H97292   6.745   6.950   6.963 -0.1953 -0.6184  0.0329
  721MOL0     H97293   6.756   7.133   6.807 -1.0524  1.2285 -1.3356
  721MOL0     H97294   6.672   7.235   6.916 -0.7507 -1.3249  3.4454
  721MOL0     H97295   6.500   7.285   7.025  0.0057  0.5043 -1.2266
  721MOL0     H97296   6.265   7.288   7.250  0.4402 -2.0407 -0.3513
  721MOL0     H97297   6.373   7.404   7.166 -1.0520  2.6039 -3.0861
  721MOL0     H97298   6.206   7.415   7.142  1.3928  0.0581  0.9505
  721MOL0     H97299   5.716   7.101   6.846 -2.4576  1.4674 -0.1240
  721MOL0     H97300   5.501   7.105   6.933  0.8952  0.6699  0.3820
  721MOL0     H97301   5.358   7.250   7.124  1.7002 -0.5067 -0.6277
  721MOL0     H97302   5.290   7.100   7.058  0.3376 -1.3563 -0.1322
  721MOL0     H97303   5.140   7.230   7.228 -1.9170 -1.2509  0.2013
  721MOL0     H97304   5.182   7.062   7.282 -2.0724  1.2046  0.4602
  721MOL0     H97305   5.269   7.348   7.374  1.6632  0.1729  1.3208
  721MOL0     H97306   5.361   7.210   7.427  0.1620 -0.7806  0.3318
  721MOL0     H97307   5.068   7.250   7.485  0.3681  0.6140 -2.1499
  721MOL0     H97308   5.161   7.104   7.507 -2.0926 -0.4051  0.0486
  721MOL0     H97309   5.212   7.372   7.645 -0.0385 -0.5402 -0.4837
  721MOL0     H97310   5.324   7.240   7.657  0.4568  1.2367 -1.4162
  721MOL0     H97311   5.029   7.238   7.751  0.5996  1.2116 -1.9053
  721MOL0     H97312   5.128   7.084   7.720  1.6125 -0.7558 -0.3781
  721MOL0     H97313   5.205   7.303   7.910 -2.1188 -0.2154  0.0761
  721MOL0     H97314   5.295   7.147   7.865 -1.0055 -0.8979 -4.0954
  721MOL0     H97315   5.178   7.076   8.056  0.9885  0.8332 -0.8690
  721MOL0     H97316   5.068   7.023   7.925 -3.1506  1.7048 -0.3538
  721MOL0     H97317   5.642   7.041   7.336 -2.0053  0.0729 -0.3461
  721MOL0     H97318   5.878   7.013   7.239  0.2563 -2.9059 -0.4498
  721MOL0     H97319   6.123   6.991   6.871  0.2488  1.0793 -0.8570
  721MOL0     H97320   6.319   6.967   6.786  2.5027 -0.0351  0.4656
  721MOL0     H97321   8.120   6.798   7.107 -3.1948  1.1202 -0.6338
  721MOL0     H97322   8.248   6.817   7.338 -1.4010  1.0721 -0.0597
  721MOL0     H97323   8.083   6.505   7.894  0.1309  1.3171  1.4943
  721MOL0     H97324   8.237   6.439   8.070 -2.2088  0.7711 -0.5150
  721MOL0     H97325   8.650   6.606   8.046 -1.1361  0.4265  0.4120
  721MOL0     H97326   8.681   6.479   8.158 -1.0822  0.9606  0.9525
  721MOL0     H97327   8.644   6.396   7.869 -0.1579 -4.3849  1.4170
  721MOL0     H97328   8.705   6.301   8.005  0.4287 -0.0721  1.5535
  721MOL0     H97329   8.918   6.422   8.007  1.6001 -1.5926 -2.0593
  721MOL0     H97330   8.853   6.554   7.908  1.7690 -0.6430 -0.9106
  721MOL0     H97331   8.864   6.269   7.802 -2.2461  0.7052 -0.1752
  721MOL0     H97332   9.015   6.365   7.812 -0.9259 -3.1404 -0.9152
  721MOL0     H97333   8.857   6.613   7.523 -2.7259  1.5813  2.2267
  721MOL0     H97334   8.558   6.612   7.841  0.2135  2.6616  0.8345
  721MOL0     H97335   8.415   6.696   7.687  1.2539 -0.0810 -0.2977
  722MOL0     O97336   3.824   0.407  10.287 -0.0563  0.1302  1.0657
  722MOL0     C97337   3.891   0.342  10.202 -0.7200 -1.0362 -0.2125
  722MOL0     O97338   3.838   0.281  10.086 -0.4662 -0.2514 -0.4312
  722MOL0     C97339   3.708   0.297  10.045 -0.1072  0.3011 -0.2933
  722MOL0     C97340   3.640   0.425  10.063 -0.0167 -0.0879  0.4673
  722MOL0     C97341   3.514   0.441  10.004  0.0814  0.0498 -0.2109
  722MOL0     C97342   3.452   0.339   9.943 -0.6302 -0.9283  0.2389
  722MOL0     O97343   3.328   0.383   9.893 -0.2370 -0.1675  0.0979
  722MOL0     C97344   3.237   0.276   9.870 -0.1644  0.5011 -0.4015
  722MOL0     C97345   3.091   0.314   9.872 -0.6854 -0.7818  0.1207
  722MOL0     C97346   3.060   0.387  10.006 -0.2396 -0.4537 -0.0807
  722MOL0     C97347   2.907   0.437  10.025 -0.2315  0.3668  0.0908
  722MOL0     C97348   2.805   0.322   9.992 -0.3909  0.0583  0.1129
  722MOL0     C97349   2.817   0.203  10.085 -1.1684 -0.2409  0.2786
  722MOL0     C97350   2.783   0.238  10.231  0.0194 -0.7939  0.7562
  722MOL0     C97351   2.813   0.128  10.337  0.5578 -0.5905  0.5028
  722MOL0     N97352   2.728   0.006  10.318 -0.0302 -0.1355 -0.2216
  722MOL0     C97353   2.593  -0.010  10.339 -0.5423  0.1965 -0.3620
  722MOL0     C97354   2.559  -0.137  10.309 -0.1579  0.0588  0.7764
  722MOL0     C97355   2.425  -0.208  10.288 -0.0423 -0.6850 -0.8301
  722MOL0     C97356   2.375  -0.177  10.150  0.8585  0.1852 -0.4643
  722MOL0     C97357   2.273  -0.278  10.104  0.2850  0.1580 -0.6986
  722MOL0     C97358   2.244  -0.267   9.958  0.7213  0.0397 -1.0730
  722MOL0     O97359   2.131  -0.355   9.913  0.0386 -0.4428 -0.2884
  722MOL0     C97360   2.086  -0.337   9.787  0.2323 -0.5131  0.2695
  722MOL0     C97361   2.126  -0.230   9.705  0.0628  0.0456  0.3304
  722MOL0     C97362   2.083  -0.210   9.568 -0.6622 -0.2396 -0.6891
  722MOL0     C97363   2.137  -0.090   9.499  0.4716  0.4338 -0.1169
  722MOL0     C97364   2.004  -0.310   9.512  0.2096  0.5002  0.2668
  722MOL0     C97365   1.947  -0.305   9.373 -0.3840 -0.1817 -0.3578
  722MOL0     O97366   1.842  -0.391   9.356 -0.0212  0.2589  0.4908
  722MOL0     C97367   1.763  -0.360   9.240 -1.0460 -0.4592  0.4155
  722MOL0     C97368   1.700  -0.232   9.229 -0.5011 -0.1666  0.7181
  722MOL0     C97369   1.616  -0.211   9.122  0.6734 -0.2279  0.0149
  722MOL0     C97370   1.586  -0.316   9.035 -0.1181 -0.6622  0.1152
  722MOL0     O97371   1.492  -0.291   8.942  0.4000 -0.0916  0.2802
  722MOL0     C97372   1.406  -0.400   8.907 -0.4593 -0.0101 -1.0273
  722MOL0     C97373   1.272  -0.353   8.863 -0.0998  0.7004  0.2923
  722MOL0     C97374   1.167  -0.466   8.825  0.0916  0.2004  0.1246
  722MOL0     C97375   1.055  -0.401   8.750 -0.3595  0.5237 -0.0012
  722MOL0     C97376   0.951  -0.515   8.724 -0.1718 -0.7730  0.1018
  722MOL0     C97377   0.826  -0.458   8.648 -0.5838  0.0811  0.0878
  722MOL0     C97378   0.712  -0.559   8.637  0.8153  0.4755 -0.0689
  722MOL0     C97379   0.615  -0.557   8.763 -0.0780  0.3518  0.9552
  722MOL0    Cl97380   0.469  -0.666   8.746  0.4583  0.4232  0.0292
  722MOL0     C97381   1.650  -0.441   9.043 -0.2704  0.2369 -0.4853
  722MOL0     C97382   1.734  -0.463   9.152  0.1815  0.8811  0.1612
  722MOL0     O97383   1.996  -0.224   9.286  0.4149  0.6639 -0.4183
  722MOL0     C97384   1.959  -0.424   9.596  0.1956 -0.0721  0.2574
  722MOL0     C97385   2.001  -0.422   9.731  0.7608 -0.3154 -0.2366
  722MOL0     N97386   2.679  -0.200  10.263  0.5533 -0.4655 -0.2343
  722MOL0     N97387   2.775  -0.114  10.267  0.2911  0.0187  0.1331
  722MOL0     C97388   3.504   0.212   9.935 -0.1550 -0.2581 -0.1059
  722MOL0     C97389   3.630   0.184   9.990  0.2592 -0.5000 -0.4847
  722MOL0     C97390   4.039   0.313  10.230 -0.0137  0.2854 -0.0379
  722MOL0     C97391   4.086   0.348  10.361 -0.1293  0.8045  0.0178
  722MOL0     C97392   4.206   0.300  10.405  1.1360 -0.2694 -0.3392
  722MOL0     C97393   4.294   0.245  10.305 -0.4432 -0.1087  0.6557
  722MOL0     O97394   4.421   0.215  10.320 -0.5138  0.7144 -0.1276
  722MOL0     C97395   4.469   0.226  10.460 -0.0931 -0.4210  1.0091
  722MOL0     C97396   4.610   0.169  10.451 -0.3993  0.7779 -0.4057
  722MOL0     C97397   4.662   0.136  10.588 -0.4724 -0.0833  0.8821
  722MOL0     C97398   4.656   0.261  10.675  0.2611  0.0063 -0.2142
  722MOL0     C97399   4.746   0.245  10.788 -0.1237  0.5434  0.2677
  722MOL0     C97400   4.830   0.250  10.873  0.0883 -0.1097  0.1922
  722MOL0     C97401   4.249   0.216  10.175  0.7909  0.4053 -0.9190
  722MOL0     C97402   4.115   0.246  10.141 -0.1671  0.2662 -0.1771
  722MOL0     H97403   3.683   0.512  10.112  2.8352 -0.1471 -1.6641
  722MOL0     H97404   3.484   0.545  10.001  1.3127  0.4601  0.7711
  722MOL0     H97405   3.259   0.220   9.778  2.8756 -0.7502  0.9465
  722MOL0     H97406   3.256   0.204   9.950 -0.5981  0.5799 -0.2231
  722MOL0     H97407   3.063   0.376   9.786 -2.9881 -0.3139  1.1495
  722MOL0     H97408   3.031   0.225   9.852 -2.7321  0.5561  0.0440
  722MOL0     H97409   3.083   0.315  10.085 -3.8008  0.5964  2.1247
  722MOL0     H97410   3.125   0.474  10.022  1.8246 -1.9293 -0.0259
  722MOL0     H97411   2.892   0.474  10.127  1.9480 -0.0387  0.6029
  722MOL0     H97412   2.896   0.523   9.959  1.0944 -1.1814 -2.2985
  722MOL0     H97413   2.704   0.363   9.995  0.3911  2.0109  0.9648
  722MOL0     H97414   2.822   0.289   9.889 -1.2538  2.4154 -0.8483
  722MOL0     H97415   2.758   0.120  10.045 -1.7166 -0.8057  2.1578
  722MOL0     H97416   2.921   0.171  10.084 -0.8479  0.5927 -2.6738
  722MOL0     H97417   2.828   0.330  10.269 -3.1176  1.0384  0.3720
  722MOL0     H97418   2.674   0.249  10.227  0.1991  0.7866 -1.6073
  722MOL0     H97419   2.815   0.169  10.438  2.6269  2.6059 -0.6819
  722MOL0     H97420   2.912   0.080  10.336 -0.3616 -2.6108 -1.1671
  722MOL0     H97421   2.529   0.064  10.386  0.5866  1.5318 -0.8983
  722MOL0     H97422   2.445  -0.314  10.302  0.0427 -0.4306  1.3435
  722MOL0     H97423   2.356  -0.166  10.363  1.1746 -1.5728  0.8437
  722MOL0     H97424   2.462  -0.182  10.084  0.0122  4.1362 -2.1498
  722MOL0     H97425   2.332  -0.079  10.126 -1.2996  0.1990  2.8087
  722MOL0     H97426   2.180  -0.256  10.156 -0.2218 -0.9204 -1.1097
  722MOL0     H97427   2.305  -0.382  10.112  2.7588  0.8822 -0.3233
  722MOL0     H97428   2.321  -0.299   9.888  1.1919 -1.4920  0.1056
  722MOL0     H97429   2.225  -0.161   9.938  1.6944  0.4777  0.2030
  722MOL0     H97430   2.189  -0.153   9.747 -1.2814 -0.0414  2.6871
  722MOL0     H97431   2.217  -0.036   9.551  2.6029 -2.2519 -0.4044
  722MOL0     H97432   2.186  -0.128   9.409  0.4447 -0.3630  0.2001
  722MOL0     H97433   2.050  -0.029   9.475 -1.2186 -1.4742  0.8918
  722MOL0     H97434   1.716  -0.159   9.307 -0.8278  0.8230 -0.1247
  722MOL0     H97435   1.561  -0.120   9.105 -1.0182 -1.5147 -1.8960
  722MOL0     H97436   1.452  -0.440   8.817  0.5831 -3.8384  1.0055
  722MOL0     H97437   1.398  -0.477   8.984 -0.5507  1.8226  0.8792
  722MOL0     H97438   1.230  -0.283   8.935 -2.8737 -1.9648  1.5069
  722MOL0     H97439   1.289  -0.308   8.765  2.0831 -4.9847 -2.4132
  722MOL0     H97440   1.139  -0.506   8.923  0.0513  1.0659  0.4719
  722MOL0     H97441   1.208  -0.549   8.765  1.3561  0.4895  0.5560
  722MOL0     H97442   1.007  -0.316   8.800 -1.4444  0.6159 -1.1375
  722MOL0     H97443   1.081  -0.370   8.648 -2.0918  1.0889 -0.3102
  722MOL0     H97444   0.913  -0.554   8.819 -1.1201  0.0405  0.0689
  722MOL0     H97445   0.988  -0.595   8.659 -0.2053 -1.9599  1.4862
  722MOL0     H97446   0.786  -0.364   8.687  1.5902  1.3240 -0.4850
  722MOL0     H97447   0.849  -0.435   8.543 -3.6532  0.2020 -0.6628
  722MOL0     H97448   0.755  -0.660   8.641 -0.9383 -0.2957  2.7349
  722MOL0     H97449   0.649  -0.550   8.549 -1.1367 -1.0308  1.0789
  722MOL0     H97450   0.577  -0.454   8.771  0.5893  0.9516 -2.1079
  722MOL0     H97451   0.673  -0.579   8.853 -0.0544 -0.2301  0.7999
  722MOL0     H97452   1.634  -0.523   8.975 -3.3386 -0.4125  0.8481
  722MOL0     H97453   1.774  -0.564   9.151  0.1748  0.8544 -1.9891
  722MOL0     H97454   1.886  -0.497   9.562  1.4685 -1.1121 -0.3320
  722MOL0     H97455   1.970  -0.510   9.786 -0.8475  0.1839 -0.2997
  722MOL0     H97456   3.459   0.124   9.889 -0.9745 -1.5265  2.8917
  722MOL0     H97457   3.673   0.086   9.975  0.6616 -0.2874 -0.7541
  722MOL0     H97458   4.021   0.405  10.426 -3.6687 -3.4207  0.6432
  722MOL0     H97459   4.232   0.308  10.510  2.0860 -1.0290 -0.4980
  722MOL0     H97460   4.479   0.333  10.479  1.0331 -0.2206 -0.4671
  722MOL0     H97461   4.406   0.182  10.538 -1.9698  0.5223  0.0764
  722MOL0     H97462   4.680   0.239  10.405  0.0897  2.2038  2.2777
  722MOL0     H97463   4.606   0.070  10.405  1.1862 -0.7971  2.5326
  722MOL0     H97464   4.764   0.104  10.565 -0.9337 -0.8351 -0.2034
  722MOL0     H97465   4.599   0.060  10.635 -1.4165  0.4319  0.4710
  722MOL0     H97466   4.555   0.280  10.714 -0.2584 -1.6883 -0.6540
  722MOL0     H97467   4.696   0.346  10.619 -0.3905 -0.7262 -1.8422
  722MOL0     H97468   4.915   0.240  10.938  0.6248 -0.3563 -0.5305
  722MOL0     H97469   4.327   0.175  10.111 -1.2536 -1.8457 -2.1455
  722MOL0     H97470   4.085   0.223  10.039  0.5267 -2.2674  0.1215
  723MOL0     O97471   8.485   3.733  11.204 -0.1466 -0.0858 -0.0412
  723MOL0     C97472   8.584   3.787  11.254  0.3160  0.7177  0.0711
  723MOL0     O97473   8.593   3.919  11.302 -0.2336 -0.2110 -0.0941
  723MOL0     C97474   8.488   4.001  11.277 -0.0617 -0.2918 -0.4130
  723MOL0     C97475   8.364   3.972  11.320 -0.2423  0.6696  0.0330
  723MOL0     C97476   8.259   4.058  11.286  0.4440 -0.0949 -0.0093
  723MOL0     C97477   8.270   4.167  11.203  0.1426  0.5216  0.0981
  723MOL0     O97478   8.152   4.239  11.181 -0.7589 -0.2350 -0.1619
  723MOL0     C97479   8.154   4.377  11.134  0.3441  0.1231 -0.1440
  723MOL0     C97480   8.018   4.445  11.158  0.2308 -0.0978 -0.1305
  723MOL0     C97481   8.046   4.592  11.142 -0.4409 -0.2873  0.1368
  723MOL0     C97482   7.922   4.683  11.136 -0.0003 -0.3733 -0.0774
  723MOL0     C97483   7.942   4.836  11.168 -0.1017  0.1651  0.0154
  723MOL0     C97484   7.812   4.907  11.197  0.2800  0.5035 -0.8011
  723MOL0     C97485   7.854   5.050  11.211  0.1697  0.3149  0.0927
  723MOL0     C97486   7.732   5.149  11.218 -0.4683 -0.3151  0.7996
  723MOL0     N97487   7.660   5.161  11.091 -0.4092 -0.8184  0.2603
  723MOL0     C97488   7.716   5.183  10.969 -0.1331 -0.4214  1.0019
  723MOL0     C97489   7.608   5.192  10.882  0.1644  0.6627  0.0073
  723MOL0     C97490   7.606   5.219  10.733  0.9141  0.7239 -0.0158
  723MOL0     C97491   7.628   5.367  10.693 -0.1524 -0.4033  0.1783
  723MOL0     C97492   7.519   5.468  10.741  0.3649 -0.4202 -1.0087
  723MOL0     C97493   7.378   5.438  10.691 -0.4083  0.0635 -0.2039
  723MOL0     O97494   7.308   5.559  10.674 -0.2301 -0.0509 -1.1009
  723MOL0     C97495   7.182   5.566  10.630  0.1368 -0.8054 -0.7607
  723MOL0     C97496   7.098   5.462  10.592  0.7222  0.4894  0.2042
  723MOL0     C97497   6.965   5.474  10.537 -0.3407  0.0472  0.0194
  723MOL0     C97498   6.891   5.342  10.518  0.3219 -0.0331  0.9459
  723MOL0     C97499   6.918   5.605  10.510  0.7792  0.2432  0.7935
  723MOL0     C97500   6.784   5.626  10.456 -0.0232 -1.0247  0.7245
  723MOL0     O97501   6.722   5.547  10.360  0.5747  0.0840 -0.3095
  723MOL0     C97502   6.610   5.588  10.295  0.3033  0.7455  0.2674
  723MOL0     C97503   6.574   5.720  10.260  0.6598  0.1219 -0.8302
  723MOL0     C97504   6.457   5.739  10.181  0.8978 -0.6619  0.4052
  723MOL0     C97505   6.377   5.636  10.136  0.3117 -0.2718  0.3779
  723MOL0     O97506   6.265   5.671  10.069  0.4440 -0.5862 -0.1264
  723MOL0     C97507   6.183   5.575  10.000 -0.1323  0.2592  0.2594
  723MOL0     C97508   6.085   5.644   9.902  0.8594 -0.8662 -0.1423
  723MOL0     C97509   6.008   5.534   9.827  0.5797  0.0243 -0.2479
  723MOL0     C97510   5.896   5.599   9.748  0.3566  0.5127 -0.0409
  723MOL0     C97511   5.813   5.489   9.676 -0.3977 -0.5800 -0.2858
  723MOL0     C97512   5.690   5.570   9.627 -1.1787  0.5232 -0.4706
  723MOL0     C97513   5.602   5.478   9.554  0.3182  0.2328  0.1178
  723MOL0     C97514   5.475   5.554   9.532  0.4163 -0.2511 -0.1886
  723MOL0    Cl97515   5.377   5.427   9.451 -0.0929 -0.0915  0.2481
  723MOL0     C97516   6.413   5.506  10.165  0.3754  0.3209  0.4214
  723MOL0     C97517   6.531   5.478  10.251 -0.4136 -0.4118 -0.3392
  723MOL0     O97518   6.735   5.731  10.505 -1.0632 -0.1644 -0.3680
  723MOL0     C97519   7.004   5.710  10.537  0.6403 -0.7118  0.3612
  723MOL0     C97520   7.128   5.692  10.590  0.0080  0.3490 -0.6468
  723MOL0     N97521   7.491   5.146  10.946  0.6629 -0.0021  0.1175
  723MOL0     N97522   7.524   5.127  11.070  0.3061 -0.0848 -0.0278
  723MOL0     C97523   8.401   4.195  11.167  0.5052  0.5435 -0.0347
  723MOL0     C97524   8.510   4.113  11.201  0.0729  0.3484 -0.4945
  723MOL0     C97525   8.706   3.701  11.267 -0.8424  0.1904  0.4100
  723MOL0     C97526   8.821   3.765  11.301 -0.6255  0.2100  0.3445
  723MOL0     C97527   8.936   3.683  11.327 -0.1224 -0.4794  0.1550
  723MOL0     C97528   8.931   3.546  11.309  0.3827  1.3449  0.3235
  723MOL0     O97529   9.022   3.443  11.334  0.2326 -0.2577 -0.1194
  723MOL0     C97530   9.155   3.475  11.358 -1.3179  0.5878  0.1088
  723MOL0     C97531   9.237   3.349  11.379  0.0546 -0.1343  0.4435
  723MOL0     C97532   9.181   3.259  11.486 -0.8677  0.3363  0.0425
  723MOL0     C97533   9.277   3.143  11.520  0.8849  0.8339  0.4281
  723MOL0     C97534   9.406   3.197  11.577  0.9318  0.0795 -0.6542
  723MOL0     C97535   9.500   3.240  11.635 -0.1052 -0.1524  0.3298
  723MOL0     C97536   8.813   3.485  11.269 -0.0613  0.6427  0.9851
  723MOL0     C97537   8.703   3.564  11.245 -0.1837 -1.1789  0.3971
  723MOL0     H97538   8.350   3.886  11.385  0.0458  0.3663 -0.3041
  723MOL0     H97539   8.165   4.022  11.326  0.8490  0.7698  1.8299
  723MOL0     H97540   8.233   4.431  11.187  0.0970  2.0323 -1.6208
  723MOL0     H97541   8.185   4.366  11.030  0.8243  0.3155 -0.0232
  723MOL0     H97542   7.932   4.417  11.095  0.9581 -1.1913 -0.6604
  723MOL0     H97543   7.992   4.421  11.261 -1.1412  0.6039 -0.2835
  723MOL0     H97544   8.120   4.629  11.213  0.5432 -0.7347 -0.6264
  723MOL0     H97545   8.104   4.607  11.050 -1.2387  1.6992 -0.0903
  723MOL0     H97546   7.876   4.682  11.037  0.3383  1.3739 -0.2952
  723MOL0     H97547   7.844   4.648  11.204  0.1987  0.4216  0.5730
  723MOL0     H97548   8.009   4.838  11.254  0.0368 -1.0597 -0.0495
  723MOL0     H97549   7.999   4.891  11.092  1.6244 -3.8507 -1.8609
  723MOL0     H97550   7.754   4.905  11.105 -0.8877  0.8914 -0.0934
  723MOL0     H97551   7.759   4.869  11.285  1.1255 -0.4608 -0.6929
  723MOL0     H97552   7.920   5.061  11.298  0.9940  2.7530 -0.7423
  723MOL0     H97553   7.913   5.083  11.125 -0.8394  1.5515 -0.1597
  723MOL0     H97554   7.761   5.252  11.239 -2.0722  0.6832 -1.4256
  723MOL0     H97555   7.661   5.125  11.297 -1.2606  0.6029  0.3882
  723MOL0     H97556   7.822   5.195  10.946  0.2540  0.0053  2.8349
  723MOL0     H97557   7.682   5.154  10.689 -2.0567 -3.9990  1.0475
  723MOL0     H97558   7.514   5.178  10.690 -1.0963  1.2094  3.3965
  723MOL0     H97559   7.615   5.366  10.584 -2.0689 -0.3815  0.3753
  723MOL0     H97560   7.732   5.381  10.724 -0.5259  0.4860  1.0793
  723MOL0     H97561   7.543   5.571  10.710  2.0239 -0.7623 -0.9505
  723MOL0     H97562   7.514   5.461  10.850  0.2971 -1.0500 -1.0514
  723MOL0     H97563   7.325   5.387  10.772 -0.4854  1.7881  0.8871
  723MOL0     H97564   7.375   5.380  10.598  1.5699  0.0396 -0.2936
  723MOL0     H97565   7.125   5.358  10.611  0.0655  0.6513  2.3394
  723MOL0     H97566   6.796   5.345  10.572  0.2478 -1.0016  0.8939
  723MOL0     H97567   6.871   5.325  10.412  1.9447  2.0878  0.2278
  723MOL0     H97568   6.941   5.254  10.559  0.1622 -0.8725 -0.5651
  723MOL0     H97569   6.636   5.801  10.297  0.0467 -1.6780  5.0730
  723MOL0     H97570   6.427   5.841  10.161  1.3857 -0.3530  1.1865
  723MOL0     H97571   6.240   5.497   9.947 -0.9234 -0.0832 -0.1091
  723MOL0     H97572   6.131   5.518  10.077  0.6876 -1.1402 -0.1745
  723MOL0     H97573   6.005   5.706   9.944  1.4698 -0.7185  0.8250
  723MOL0     H97574   6.149   5.705   9.838  3.2759 -1.1726  1.8189
  723MOL0     H97575   5.954   5.462   9.889 -1.7500 -0.1392 -2.3103
  723MOL0     H97576   6.066   5.480   9.752 -0.1616 -0.3699 -0.5502
  723MOL0     H97577   5.838   5.672   9.805  1.8198  2.4893 -0.9553
  723MOL0     H97578   5.931   5.665   9.668 -0.4816 -0.3871 -1.1720
  723MOL0     H97579   5.778   5.416   9.750 -1.1591  0.3680  0.3029
  723MOL0     H97580   5.854   5.436   9.589 -0.7637 -0.8201 -0.3127
  723MOL0     H97581   5.644   5.619   9.714  1.5917 -0.0241  1.4684
  723MOL0     H97582   5.732   5.645   9.560 -0.6748  0.8670  0.2088
  723MOL0     H97583   5.578   5.391   9.616 -0.1296  1.2405  1.4068
  723MOL0     H97584   5.650   5.445   9.461  0.5789  0.4185  0.1870
  723MOL0     H97585   5.483   5.632   9.455 -4.3490  0.1488 -0.6152
  723MOL0     H97586   5.416   5.597   9.613 -0.2505 -2.6919  0.7097
  723MOL0     H97587   6.346   5.425  10.137  0.4892 -0.1868  1.5585
  723MOL0     H97588   6.561   5.375  10.272 -0.9945 -0.3877  0.6418
  723MOL0     H97589   6.969   5.811  10.519  2.5366 -0.4556 -2.5248
  723MOL0     H97590   7.195   5.777  10.599  0.6629 -0.2928  0.8099
  723MOL0     H97591   8.423   4.293  11.125  0.3219  0.8825  0.6403
  723MOL0     H97592   8.613   4.141  11.184 -0.5133  2.6837 -0.5555
  723MOL0     H97593   8.827   3.873  11.312  0.4292  0.0978  1.0322
  723MOL0     H97594   9.037   3.721  11.340  0.8337 -1.6578 -2.9666
  723MOL0     H97595   9.196   3.529  11.272 -1.7304 -1.2475 -1.2946
  723MOL0     H97596   9.144   3.540  11.446  1.3508 -0.0939  1.0465
  723MOL0     H97597   9.336   3.386  11.404 -0.7525  2.7786 -0.2764
  723MOL0     H97598   9.232   3.286  11.289  0.1841  1.0727 -0.4466
  723MOL0     H97599   9.085   3.221  11.450 -1.4364  2.1125 -0.4173
  723MOL0     H97600   9.165   3.326  11.571 -0.9919 -0.9101  1.0316
  723MOL0     H97601   9.303   3.075  11.439 -2.5332 -1.3060  0.9342
  723MOL0     H97602   9.236   3.075  11.596  0.4641  1.4708  0.7920
  723MOL0     H97603   9.588   3.278  11.684  0.8103  0.8977 -1.9846
  723MOL0     H97604   8.811   3.377  11.262  2.2715  0.6838 -2.1827
  723MOL0     H97605   8.615   3.506  11.218  0.1352 -1.3932 -0.2067
  724MOL0     O97606   3.100   4.470   1.783 -0.5614  0.0685  0.6198
  724MOL0     C97607   3.111   4.592   1.753 -0.3282  0.6435  0.9047
  724MOL0     O97608   3.015   4.679   1.760  0.1957 -0.1205 -0.3735
  724MOL0     C97609   2.878   4.657   1.779 -0.0741  0.3431 -0.0061
  724MOL0     C97610   2.798   4.760   1.826  0.6613  0.0225  0.2746
  724MOL0     C97611   2.661   4.740   1.850  0.0052 -0.0083  0.1351
  724MOL0     C97612   2.610   4.613   1.839  0.1385 -0.3032 -0.4349
  724MOL0     O97613   2.476   4.588   1.854 -0.1047  0.0372 -0.3050
  724MOL0     C97614   2.385   4.665   1.765  0.1625  1.0858 -0.1614
  724MOL0     C97615   2.252   4.613   1.807 -0.1662  0.1442  0.2895
  724MOL0     C97616   2.143   4.657   1.710  0.9307 -1.1015 -0.3380
  724MOL0     C97617   2.019   4.573   1.725  0.6058 -0.7047  0.6189
  724MOL0     C97618   1.935   4.592   1.594  0.8167 -0.1208 -0.6698
  724MOL0     C97619   1.804   4.509   1.589 -0.0363  0.2974  0.6147
  724MOL0     C97620   1.697   4.561   1.693  0.6274 -0.8597  0.5203
  724MOL0     C97621   1.617   4.659   1.616 -0.1687 -0.8208  0.7729
  724MOL0     N97622   1.521   4.734   1.698  0.2008 -0.2596  0.1049
  724MOL0     C97623   1.552   4.821   1.802 -0.5971  0.6822  0.8488
  724MOL0     C97624   1.445   4.885   1.828 -0.1264 -0.8996  0.0695
  724MOL0     C97625   1.425   5.005   1.915  0.0561 -0.9691 -0.7585
  724MOL0     C97626   1.447   4.971   2.063 -0.2957 -0.6725 -0.1891
  724MOL0     C97627   1.430   5.095   2.154  0.7795 -0.3894 -0.4167
  724MOL0     C97628   1.413   5.074   2.305  0.1744  0.1914  0.6638
  724MOL0     O97629   1.298   4.991   2.320  0.1485  0.7570  0.0295
  724MOL0     C97630   1.244   4.984   2.443  0.4833 -0.7063  0.4363
  724MOL0     C97631   1.285   5.056   2.559  0.0192 -0.0447  0.3057
  724MOL0     C97632   1.224   5.041   2.678  0.0277 -0.9790  0.6110
  724MOL0     C97633   1.274   5.139   2.780 -0.4918 -0.2897 -0.1730
  724MOL0     C97634   1.115   4.950   2.692 -0.0331 -0.2868  0.0743
  724MOL0     C97635   1.028   4.931   2.807 -0.2862 -0.2783 -0.0200
  724MOL0     O97636   0.915   4.853   2.800  0.1644  0.0001  0.8673
  724MOL0     C97637   0.833   4.855   2.912  0.1678 -0.4710 -0.6231
  724MOL0     C97638   0.848   4.759   3.009 -0.0433  1.1831 -0.4647
  724MOL0     C97639   0.768   4.765   3.123 -0.3152  0.1152  0.8872
  724MOL0     C97640   0.676   4.864   3.145 -0.3098 -0.2326  0.0612
  724MOL0     O97641   0.595   4.860   3.255 -0.2367  0.3789  0.1622
  724MOL0     C97642   0.451   4.872   3.241 -0.0053  1.0491  0.1517
  724MOL0     C97643   0.382   4.793   3.349  0.4028  1.8211  0.1268
  724MOL0     C97644   0.235   4.782   3.317 -0.4622 -0.6217 -0.6973
  724MOL0     C97645   0.161   4.702   3.429 -0.1146  0.0272  0.1156
  724MOL0     C97646   0.008   4.706   3.410 -0.6879  0.2011 -0.3974
  724MOL0     C97647  -0.059   4.839   3.462  0.1779  0.5098 -0.5333
  724MOL0     C97648  -0.203   4.829   3.415 -0.9396  0.6201  0.2327
  724MOL0     C97649  -0.288   4.941   3.467 -0.4602  0.5127  0.2263
  724MOL0    Cl97650  -0.447   4.912   3.409  0.5216  0.3270 -0.2763
  724MOL0     C97651   0.671   4.964   3.049  0.4346 -0.6401 -0.3782
  724MOL0     C97652   0.754   4.964   2.937  0.2154 -0.0298 -0.3228
  724MOL0     O97653   1.061   4.985   2.915  0.2557 -0.2557  0.1460
  724MOL0     C97654   1.083   4.870   2.581 -0.5741  0.0930  0.5459
  724MOL0     C97655   1.138   4.891   2.456 -0.4892 -0.0487  0.0957
  724MOL0     N97656   1.340   4.819   1.763 -0.5174 -0.3550 -0.3854
  724MOL0     N97657   1.385   4.727   1.689 -0.7720  0.2878 -0.0816
  724MOL0     C97658   2.689   4.504   1.800 -0.1728  0.7195 -0.1475
  724MOL0     C97659   2.821   4.530   1.756 -0.7621 -0.3339 -0.3109
  724MOL0     C97660   3.248   4.640   1.719 -0.0038 -0.3686  0.6207
  724MOL0     C97661   3.350   4.550   1.693  0.5459  0.0235 -0.3174
  724MOL0     C97662   3.480   4.597   1.661  0.1600  0.2957  0.0234
  724MOL0     C97663   3.507   4.737   1.656 -0.2620  0.5807 -0.2331
  724MOL0     O97664   3.625   4.795   1.626 -0.3122  0.0115  0.3707
  724MOL0     C97665   3.743   4.721   1.593  0.8378  0.0124  1.1232
  724MOL0     C97666   3.750   4.659   1.452 -0.4042 -0.1455  0.1652
  724MOL0     C97667   3.798   4.764   1.353  0.2331 -0.2349 -0.2151
  724MOL0     C97668   3.825   4.714   1.211 -0.4116 -0.0386 -0.1323
  724MOL0     C97669   3.949   4.633   1.207  0.0803  0.1369 -0.3322
  724MOL0     C97670   4.052   4.574   1.178 -0.8171 -0.4410 -0.3290
  724MOL0     C97671   3.407   4.824   1.694 -0.1350 -0.0074  1.1129
  724MOL0     C97672   3.276   4.777   1.721 -0.3815  0.1903 -0.7144
  724MOL0     H97673   2.846   4.856   1.842 -2.8835  2.0433 -0.2196
  724MOL0     H97674   2.596   4.824   1.872 -1.6163 -1.5887  1.7007
  724MOL0     H97675   2.380   4.773   1.783 -0.5915  0.7211  2.2126
  724MOL0     H97676   2.404   4.633   1.663  0.9732  1.3906 -0.1141
  724MOL0     H97677   2.253   4.504   1.801 -0.9636  0.1991 -1.4016
  724MOL0     H97678   2.221   4.639   1.909  1.9562  1.5991  0.6336
  724MOL0     H97679   2.126   4.759   1.744 -0.0823 -2.0046  2.0048
  724MOL0     H97680   2.176   4.647   1.606  2.3526  0.4863 -0.0890
  724MOL0     H97681   2.043   4.467   1.728 -0.4756 -1.2449 -3.3114
  724MOL0     H97682   1.957   4.597   1.812 -4.2254 -3.5774 -1.5913
  724MOL0     H97683   1.907   4.697   1.584  1.0960  0.4409  3.0272
  724MOL0     H97684   1.991   4.561   1.506 -1.2104 -1.6728 -1.4697
  724MOL0     H97685   1.758   4.510   1.490  1.2320 -1.0812 -0.0287
  724MOL0     H97686   1.837   4.409   1.620  0.7403 -0.7141 -3.0579
  724MOL0     H97687   1.636   4.475   1.721  0.7474 -2.1063 -2.5628
  724MOL0     H97688   1.735   4.616   1.780  1.8642 -0.9331  0.0526
  724MOL0     H97689   1.566   4.606   1.534  0.8697 -0.1048 -0.3734
  724MOL0     H97690   1.690   4.734   1.583 -1.4375 -0.6041 -1.8491
  724MOL0     H97691   1.654   4.833   1.836  1.0034 -2.0396 -2.3643
  724MOL0     H97692   1.499   5.080   1.887 -0.8991  1.0400  1.7034
  724MOL0     H97693   1.328   5.051   1.895  0.5517  0.5882  0.2618
  724MOL0     H97694   1.544   4.933   2.095 -0.0699 -2.5712 -2.7829
  724MOL0     H97695   1.376   4.890   2.083 -2.5073  1.3980  0.8820
  724MOL0     H97696   1.351   5.154   2.107  1.1962 -1.6511 -2.8157
  724MOL0     H97697   1.520   5.157   2.148  0.4458  0.4924  2.2090
  724MOL0     H97698   1.398   5.170   2.356 -2.5722  0.5736 -0.6676
  724MOL0     H97699   1.499   5.019   2.344  1.0521  2.4556  2.1050
  724MOL0     H97700   1.373   5.120   2.556 -1.7086  2.4176 -0.0535
  724MOL0     H97701   1.190   5.191   2.828  0.0049  0.2161  0.1525
  724MOL0     H97702   1.328   5.081   2.855 -1.9394 -0.2546  0.9508
  724MOL0     H97703   1.337   5.220   2.741 -0.6572  0.5679  1.2528
  724MOL0     H97704   0.921   4.679   3.007 -1.3935 -0.2961  2.3217
  724MOL0     H97705   0.783   4.678   3.186  2.6519 -1.6320 -1.9225
  724MOL0     H97706   0.415   4.975   3.247 -0.0362  1.0988 -0.6747
  724MOL0     H97707   0.421   4.836   3.141 -1.4105 -1.0291  1.2381
  724MOL0     H97708   0.424   4.693   3.362  0.2815  1.9462  1.5849
  724MOL0     H97709   0.406   4.845   3.442  0.6044  1.6065  0.1966
  724MOL0     H97710   0.213   4.733   3.221 -3.5562 -0.1197 -0.3692
  724MOL0     H97711   0.195   4.883   3.314  1.3050  0.2280  1.8129
  724MOL0     H97712   0.195   4.599   3.445  3.8439  1.2844  1.0131
  724MOL0     H97713   0.184   4.749   3.525  0.1712  1.4755 -0.6250
  724MOL0     H97714  -0.024   4.627   3.479  2.4086  1.1462  2.3487
  724MOL0     H97715  -0.012   4.690   3.304 -0.4807  1.1303 -0.5863
  724MOL0     H97716  -0.058   4.857   3.570  4.1303  0.4385 -0.4016
  724MOL0     H97717  -0.016   4.928   3.414 -1.2917  1.0570 -0.8701
  724MOL0     H97718  -0.244   4.736   3.456  1.5205 -0.3166  0.7307
  724MOL0     H97719  -0.204   4.843   3.307  1.4107  1.2548  0.2316
  724MOL0     H97720  -0.252   5.032   3.419  2.3019 -0.4662  0.2539
  724MOL0     H97721  -0.279   4.946   3.576 -3.9923  0.9023  0.6172
  724MOL0     H97722   0.620   5.056   3.073 -0.6361 -0.7375 -2.0515
  724MOL0     H97723   0.758   5.045   2.865  2.5869 -0.7059 -1.0657
  724MOL0     H97724   0.999   4.801   2.590  0.4764 -1.2848  0.0878
  724MOL0     H97725   1.115   4.833   2.367  0.1518  1.0521 -0.8176
  724MOL0     H97726   2.649   4.403   1.795  0.2100  0.5696 -0.1780
  724MOL0     H97727   2.881   4.446   1.724  2.2603  1.1408  1.1332
  724MOL0     H97728   3.334   4.444   1.711 -0.3722  0.1402 -0.4072
  724MOL0     H97729   3.554   4.521   1.637 -0.5382  0.6493 -4.0112
  724MOL0     H97730   3.824   4.792   1.612  1.4075 -1.0102  2.6872
  724MOL0     H97731   3.741   4.643   1.670  1.5212 -0.7152  0.4206
  724MOL0     H97732   3.654   4.611   1.432  0.2492 -1.7126  0.6953
  724MOL0     H97733   3.818   4.574   1.451 -1.8394 -1.3959  2.2402
  724MOL0     H97734   3.891   4.810   1.386  0.5266 -0.9846  0.0238
  724MOL0     H97735   3.718   4.836   1.330  0.2572 -0.8071 -2.3160
  724MOL0     H97736   3.831   4.796   1.139  2.2321  1.9554  2.1376
  724MOL0     H97737   3.737   4.654   1.188 -1.8378  1.9528 -0.0694
  724MOL0     H97738   4.138   4.519   1.144 -1.2289 -0.0145 -2.2229
  724MOL0     H97739   3.436   4.929   1.699  2.6093 -0.7181  1.3302
  724MOL0     H97740   3.203   4.853   1.747  0.7728  0.3777  2.4205
  725MOL0     O97741   5.212  10.898   6.547 -0.0608  0.6056 -0.3356
  725MOL0     C97742   5.174  10.884   6.666 -0.6913  0.5732  0.0873
  725MOL0     O97743   5.046  10.853   6.713  0.5172  0.1027 -0.0053
  725MOL0     C97744   4.942  10.887   6.628  0.1812 -0.0439 -0.1350
  725MOL0     C97745   4.929  11.011   6.564  0.4350 -0.8760 -0.3664
  725MOL0     C97746   4.811  11.036   6.495 -0.2167  0.0221 -0.3771
  725MOL0     C97747   4.702  10.945   6.491  0.3685 -0.6988 -1.0176
  725MOL0     O97748   4.583  10.973   6.434 -0.0176  0.0891 -0.3552
  725MOL0     C97749   4.500  11.064   6.500 -0.3143 -0.3914  0.1370
  725MOL0     C97750   4.380  11.085   6.411  0.4556  0.6268 -0.6347
  725MOL0     C97751   4.378  11.011   6.274 -0.4109 -0.1548  0.4383
  725MOL0     C97752   4.307  11.092   6.163  0.3770  0.1476 -0.3695
  725MOL0     C97753   4.153  11.051   6.167  0.9256  0.7295  0.6210
  725MOL0     C97754   4.065  11.168   6.103  0.2872 -0.3141 -0.4425
  725MOL0     C97755   3.932  11.131   6.039  0.6998 -0.0105  0.1413
  725MOL0     C97756   3.872  11.254   5.954  0.1729  0.0481 -0.4318
  725MOL0     N97757   3.733  11.224   5.925 -0.4522  0.6698 -0.1521
  725MOL0     C97758   3.697  11.121   5.845  0.1029  0.0454  0.2609
  725MOL0     C97759   3.558  11.118   5.853 -0.2867  0.2142  0.1944
  725MOL0     C97760   3.474  11.041   5.759 -0.5332 -0.2236 -0.1755
  725MOL0     C97761   3.426  10.920   5.827 -0.0880 -0.1550 -0.1292
  725MOL0     C97762   3.348  10.947   5.960 -0.7204 -0.3384 -0.0945
  725MOL0     C97763   3.328  10.830   6.047  0.0077 -0.0923  0.4988
  725MOL0     O97764   3.242  10.867   6.148  0.4546  0.5653 -0.1085
  725MOL0     C97765   3.104  10.867   6.120 -0.4102 -0.9281 -0.0265
  725MOL0     C97766   3.022  10.919   6.214 -0.0552  0.7310  0.2625
  725MOL0     C97767   2.878  10.912   6.194 -0.1453 -0.7483 -0.9765
  725MOL0     C97768   2.797  10.975   6.311 -0.1656 -0.0707  0.1734
  725MOL0     C97769   2.824  10.864   6.070  0.2650  0.4454 -0.0703
  725MOL0     C97770   2.674  10.850   6.023 -0.3886  0.0081 -0.0530
  725MOL0     O97771   2.647  10.784   5.903  0.7240  0.1498 -0.1322
  725MOL0     C97772   2.518  10.767   5.864 -0.2465 -0.1961  0.5669
  725MOL0     C97773   2.425  10.872   5.866  1.9749 -0.0328 -0.1010
  725MOL0     C97774   2.293  10.848   5.815  0.9179 -0.3666  0.3508
  725MOL0     C97775   2.248  10.724   5.766  0.1155 -0.4116 -0.1854
  725MOL0     O97776   2.127  10.695   5.709  0.1966 -0.3608  0.2183
  725MOL0     C97777   2.028  10.803   5.687 -0.6787  0.3478 -0.0025
  725MOL0     C97778   1.924  10.756   5.578 -0.0232 -0.2023 -0.1727
  725MOL0     C97779   1.807  10.847   5.550 -0.5373  0.9808  0.2176
  725MOL0     C97780   1.744  10.820   5.409  0.0181 -0.5273  0.0659
  725MOL0     C97781   1.609  10.737   5.401 -0.3686 -0.0748 -1.1255
  725MOL0     C97782   1.579  10.700   5.255 -0.3062 -0.4023  0.0576
  725MOL0     C97783   1.440  10.643   5.233  0.1097  0.0811 -0.6869
  725MOL0     C97784   1.420  10.612   5.083  1.9218 -0.7123  0.1375
  725MOL0    Cl97785   1.352  10.760   4.992 -0.0140  0.1505 -0.7327
  725MOL0     C97786   2.343  10.625   5.766 -0.1182  0.1846  0.0949
  725MOL0     C97787   2.475  10.644   5.808 -0.2436  0.4365 -0.3106
  725MOL0     O97788   2.598  10.902   6.100  0.5923 -0.3629  0.4923
  725MOL0     C97789   2.916  10.797   5.978 -0.2487  0.2054  0.5406
  725MOL0     C97790   3.046  10.801   6.001 -0.5737 -0.2671 -0.4483
  725MOL0     N97791   3.515  11.223   5.929 -0.6844 -0.6618 -0.6612
  725MOL0     N97792   3.619  11.286   5.974  0.6011 -0.2920 -0.3909
  725MOL0     C97793   4.711  10.825   6.558 -0.8022  0.6015  0.0080
  725MOL0     C97794   4.834  10.792   6.620 -0.0836  0.2845 -0.9822
  725MOL0     C97795   5.284  10.876   6.764 -0.6009  0.8982  0.7484
  725MOL0     C97796   5.424  10.876   6.728 -0.1308  0.4488  0.3321
  725MOL0     C97797   5.517  10.837   6.833  0.0129 -0.3301  0.4781
  725MOL0     C97798   5.481  10.809   6.966 -0.2260  0.4482  0.4433
  725MOL0     O97799   5.582  10.768   7.044 -0.0414 -0.3028 -0.1057
  725MOL0     C97800   5.583  10.771   7.188  0.0500 -0.1346 -0.4472
  725MOL0     C97801   5.584  10.911   7.250 -0.1036 -1.1035  0.4995
  725MOL0     C97802   5.583  10.913   7.404  0.0814 -0.7664 -0.8524
  725MOL0     C97803   5.492  11.030   7.457 -0.9847  0.2267 -0.4918
  725MOL0     C97804   5.546  11.094   7.580 -0.5971 -0.3717  0.8347
  725MOL0     C97805   5.595  11.132   7.678  0.2892 -1.0243  0.2119
  725MOL0     C97806   5.354  10.823   7.002  1.0522  1.0204 -0.5947
  725MOL0     C97807   5.254  10.857   6.902 -0.2307  0.5143  0.1646
  725MOL0     H97808   5.002  11.091   6.573  0.1322 -0.5068 -1.1343
  725MOL0     H97809   4.796  11.135   6.455 -1.3914 -0.5520 -1.4513
  725MOL0     H97810   4.466  11.024   6.596  0.5537  1.7282  1.3967
  725MOL0     H97811   4.554  11.159   6.511 -1.3159  0.0315  1.7711
  725MOL0     H97812   4.289  11.038   6.451  2.6126 -3.1250  0.3331
  725MOL0     H97813   4.362  11.192   6.398 -0.5855  0.4839 -0.4527
  725MOL0     H97814   4.478  10.989   6.232 -0.1382 -0.5119  1.2598
  725MOL0     H97815   4.327  10.915   6.279 -2.1325  0.7901  1.7271
  725MOL0     H97816   4.309  11.197   6.194 -2.1488 -0.0971  0.8609
  725MOL0     H97817   4.348  11.071   6.063  2.3378  0.9590  0.2264
  725MOL0     H97818   4.135  10.960   6.109 -1.1125  0.2385  1.9138
  725MOL0     H97819   4.120  11.026   6.268 -2.1403  4.4971  0.7523
  725MOL0     H97820   4.046  11.235   6.188 -0.7298 -0.5414 -0.4824
  725MOL0     H97821   4.137  11.213   6.033  3.2827  3.1258  4.2106
  725MOL0     H97822   3.946  11.037   5.984 -0.3825  0.5923 -1.2061
  725MOL0     H97823   3.860  11.114   6.120  0.0569  1.0673 -0.1904
  725MOL0     H97824   3.927  11.265   5.860  1.0518  0.3630  0.1098
  725MOL0     H97825   3.888  11.352   5.998  2.3977  0.1316 -1.2861
  725MOL0     H97826   3.763  11.066   5.779 -0.6992 -0.2754 -0.2837
  725MOL0     H97827   3.397  11.109   5.722  0.1459  1.6776  1.7118
  725MOL0     H97828   3.532  11.009   5.672 -1.6156 -2.0418 -0.2778
  725MOL0     H97829   3.511  10.855   5.848 -1.2784 -1.6772  0.1039
  725MOL0     H97830   3.368  10.873   5.747 -0.5349 -0.9544  0.6519
  725MOL0     H97831   3.254  10.997   5.936 -0.4979  0.7300  1.1029
  725MOL0     H97832   3.401  11.005   6.037 -1.6351 -1.7689  1.7033
  725MOL0     H97833   3.416  10.778   6.088 -0.8351 -1.4059  0.7032
  725MOL0     H97834   3.286  10.748   5.988  1.2767 -0.0630 -0.4805
  725MOL0     H97835   3.075  10.957   6.301  2.2119 -0.4647 -0.5376
  725MOL0     H97836   2.709  10.914   6.335  0.9346 -1.4169  0.9327
  725MOL0     H97837   2.848  10.980   6.407 -0.9409  0.7923  0.5581
  725MOL0     H97838   2.768  11.076   6.283 -1.5461 -0.3166  0.6181
  725MOL0     H97839   2.438  10.979   5.883  0.4040  0.1418  0.1313
  725MOL0     H97840   2.223  10.930   5.820  1.2205 -0.1125  0.4673
  725MOL0     H97841   1.988  10.814   5.788  0.4180 -1.4964  0.6637
  725MOL0     H97842   2.087  10.888   5.651  1.4099 -1.9181 -2.3669
  725MOL0     H97843   1.984  10.753   5.487 -0.4248  3.1483 -0.6741
  725MOL0     H97844   1.881  10.659   5.606  0.8591  0.0495  2.2756
  725MOL0     H97845   1.842  10.951   5.555  0.8570  1.0277 -4.7769
  725MOL0     H97846   1.722  10.832   5.618  0.4818 -0.6153  1.1945
  725MOL0     H97847   1.721  10.915   5.361  0.8960 -1.2424 -1.8544
  725MOL0     H97848   1.819  10.781   5.340 -1.3618 -1.0716 -1.1619
  725MOL0     H97849   1.529  10.795   5.448  1.2299  1.5525 -0.3043
  725MOL0     H97850   1.636  10.644   5.452  0.5146 -1.1102 -3.3548
  725MOL0     H97851   1.580  10.790   5.193  1.9098  0.3358  1.0645
  725MOL0     H97852   1.650  10.627   5.214 -0.5548  0.8530 -2.8547
  725MOL0     H97853   1.363  10.714   5.265 -0.4887  0.3858 -2.6535
  725MOL0     H97854   1.438  10.554   5.297  2.5094  0.4428 -0.0323
  725MOL0     H97855   1.352  10.530   5.057  0.4308  0.4680  0.1647
  725MOL0     H97856   1.511  10.571   5.038  2.5517  1.3578 -0.5717
  725MOL0     H97857   2.312  10.531   5.720  3.0020 -0.3301 -1.2101
  725MOL0     H97858   2.545  10.561   5.806 -0.1030  0.5597 -0.6426
  725MOL0     H97859   2.877  10.740   5.894 -0.1985 -0.5364  1.0121
  725MOL0     H97860   3.097  10.745   5.924 -0.7650 -1.6701  0.4008
  725MOL0     H97861   4.631  10.752   6.566 -0.2827  0.1870  2.2547
  725MOL0     H97862   4.843  10.704   6.682  1.1896 -0.3223 -1.9908
  725MOL0     H97863   5.453  10.882   6.624 -0.4284  2.3893  0.3240
  725MOL0     H97864   5.624  10.816   6.826  0.2888 -0.5098  3.6648
  725MOL0     H97865   5.498  10.716   7.228  1.2688 -1.3581  0.5466
  725MOL0     H97866   5.681  10.727   7.207  1.0992  2.3967  0.4750
  725MOL0     H97867   5.500  10.966   7.208 -0.0093 -0.6082  0.9418
  725MOL0     H97868   5.663  10.978   7.214 -0.1944 -1.5890 -0.6391
  725MOL0     H97869   5.682  10.929   7.449  0.4207 -1.2400 -1.4041
  725MOL0     H97870   5.552  10.812   7.435 -2.6765  0.5025  0.8717
  725MOL0     H97871   5.385  11.009   7.456 -1.0786  0.4217  1.8492
  725MOL0     H97872   5.505  11.108   7.380  1.2677 -0.5793 -1.0327
  725MOL0     H97873   5.616  11.178   7.772  0.0134 -0.3598 -0.0445
  725MOL0     H97874   5.314  10.790   7.097  0.0410  0.1246 -1.3009
  725MOL0     H97875   5.154  10.867   6.945 -1.1664 -3.1062 -0.8677
  726MOL0     O97876   6.349   1.996   2.794 -0.0932  0.5874  0.2081
  726MOL0     C97877   6.390   1.885   2.758  0.0991 -1.1006 -0.2986
  726MOL0     O97878   6.315   1.783   2.723  0.7490 -0.2346  0.8555
  726MOL0     C97879   6.175   1.794   2.724  1.0103 -0.4092 -0.2891
  726MOL0     C97880   6.109   1.893   2.655 -0.4925 -0.8723  0.1433
  726MOL0     C97881   5.972   1.905   2.664  0.1596 -0.6441 -0.1687
  726MOL0     C97882   5.894   1.808   2.717  0.2006  0.0190 -0.0449
  726MOL0     O97883   5.763   1.814   2.724  0.2130 -0.0035  0.1454
  726MOL0     C97884   5.693   1.941   2.698 -0.1368  0.0628 -0.1413
  726MOL0     C97885   5.560   1.944   2.770  0.6403  0.0944  0.4581
  726MOL0     C97886   5.471   1.837   2.707 -0.5870  0.8801 -0.4074
  726MOL0     C97887   5.320   1.893   2.708 -0.2667 -0.2619  0.2251
  726MOL0     C97888   5.219   1.792   2.645 -0.7721 -0.4845 -0.1386
  726MOL0     C97889   5.072   1.816   2.690 -0.0495  0.3383 -0.7764
  726MOL0     C97890   4.977   1.731   2.605  0.1875 -0.4057  0.2670
  726MOL0     C97891   4.849   1.718   2.681 -0.9936  0.6475  0.6881
  726MOL0     N97892   4.752   1.650   2.596 -0.3131 -0.5201  0.3570
  726MOL0     C97893   4.724   1.512   2.573 -0.0357  0.3196  0.0916
  726MOL0     C97894   4.623   1.519   2.488  0.4721 -0.4096 -0.1851
  726MOL0     C97895   4.562   1.387   2.433 -0.2769 -0.5030  0.6761
  726MOL0     C97896   4.421   1.402   2.394 -0.2459  0.3315 -0.0905
  726MOL0     C97897   4.380   1.266   2.319  0.6259  0.0275 -0.6235
  726MOL0     C97898   4.234   1.250   2.315 -0.0977  0.5518 -1.0610
  726MOL0     O97899   4.185   1.362   2.250  0.0583  0.4676  0.0886
  726MOL0     C97900   4.049   1.380   2.241 -0.5583 -0.4722  0.2665
  726MOL0     C97901   4.019   1.472   2.136  0.3585 -0.6836  0.1481
  726MOL0     C97902   3.888   1.496   2.106 -0.5035 -0.5119 -0.6264
  726MOL0     C97903   3.867   1.570   1.977 -0.1630  0.6121  0.2135
  726MOL0     C97904   3.785   1.428   2.185  0.4507 -0.1251 -0.1899
  726MOL0     C97905   3.641   1.458   2.167 -0.0374 -0.6042  0.5407
  726MOL0     O97906   3.563   1.429   2.277 -0.9134  0.0316 -0.8209
  726MOL0     C97907   3.432   1.433   2.258  0.2051 -0.2812  1.2300
  726MOL0     C97908   3.354   1.544   2.296 -1.0804  0.3872 -0.6625
  726MOL0     C97909   3.218   1.567   2.271  0.0716  0.4662 -0.6936
  726MOL0     C97910   3.155   1.473   2.192  0.8603 -0.4507 -0.0436
  726MOL0     O97911   3.024   1.488   2.157  0.6887 -0.0714  0.3595
  726MOL0     C97912   2.934   1.552   2.249  0.1822  0.3311 -0.2096
  726MOL0     C97913   2.903   1.690   2.186  1.0181  0.6792 -0.1716
  726MOL0     C97914   2.803   1.778   2.266  0.4334 -0.8418  0.2013
  726MOL0     C97915   2.670   1.712   2.261 -0.9420  0.3593 -0.1880
  726MOL0     C97916   2.570   1.778   2.366 -0.6744  0.6130 -0.2532
  726MOL0     C97917   2.505   1.904   2.322 -0.1787 -0.0552  0.4960
  726MOL0     C97918   2.415   1.956   2.431  0.1204 -0.4378 -0.3458
  726MOL0     C97919   2.353   2.087   2.390  0.6935 -0.0850  0.2181
  726MOL0    Cl97920   2.273   2.161   2.534 -0.2770 -0.2030  0.2518
  726MOL0     C97921   3.221   1.350   2.157 -0.8004  0.5883  0.0831
  726MOL0     C97922   3.360   1.329   2.191 -0.2086 -0.7002  1.1171
  726MOL0     O97923   3.599   1.500   2.060 -0.2969  0.0221 -0.2938
  726MOL0     C97924   3.825   1.348   2.286 -0.2007  0.8726  0.1288
  726MOL0     C97925   3.954   1.318   2.313  0.7192  0.1404  0.2829
  726MOL0     N97926   4.592   1.653   2.454  0.0284  0.0904 -0.2744
  726MOL0     N97927   4.663   1.726   2.528  0.8603 -1.0669 -0.2916
  726MOL0     C97928   5.957   1.708   2.777 -0.3588 -0.0979  0.0390
  726MOL0     C97929   6.101   1.700   2.783  0.5114 -0.1942 -0.1564
  726MOL0     C97930   6.536   1.863   2.772  0.1485  0.0769 -0.7497
  726MOL0     C97931   6.595   1.737   2.765  0.6487 -0.1872 -0.1027
  726MOL0     C97932   6.731   1.725   2.784  0.9945  0.2948  0.4624
  726MOL0     C97933   6.815   1.835   2.816  0.5013  0.1152 -0.6002
  726MOL0     O97934   6.948   1.814   2.823 -0.2940  0.2122 -0.4888
  726MOL0     C97935   7.015   1.859   2.936 -0.7273  0.4880 -0.3538
  726MOL0     C97936   7.104   1.988   2.911 -1.0479  0.6489  0.4553
  726MOL0     C97937   7.246   1.948   2.857 -0.4249  0.1064  0.2544
  726MOL0     C97938   7.316   2.082   2.840 -0.6733  0.3735 -0.1714
  726MOL0     C97939   7.456   2.064   2.798 -0.2925 -0.1609 -0.1254
  726MOL0     C97940   7.570   2.039   2.762 -0.0313  0.2662  0.0134
  726MOL0     C97941   6.760   1.963   2.823  0.6410 -0.0575  0.2439
  726MOL0     C97942   6.618   1.972   2.801 -0.1742  0.2204  0.5763
  726MOL0     H97943   6.164   1.961   2.591 -1.2206 -1.0341 -0.6539
  726MOL0     H97944   5.937   2.001   2.628  2.8063  0.4743 -0.0009
  726MOL0     H97945   5.746   2.027   2.738  0.7052 -0.5061 -0.0071
  726MOL0     H97946   5.675   1.958   2.591 -4.1388  1.6252  0.5976
  726MOL0     H97947   5.575   1.924   2.877  2.1927  0.6792  0.3800
  726MOL0     H97948   5.524   2.043   2.742 -1.3165 -0.3984  1.0925
  726MOL0     H97949   5.508   1.812   2.607  1.5412 -1.1018  0.7700
  726MOL0     H97950   5.479   1.743   2.761  2.5692  1.1976 -0.1505
  726MOL0     H97951   5.294   1.908   2.813 -0.4030  1.2662 -0.0039
  726MOL0     H97952   5.309   1.987   2.653 -0.5500 -0.7460 -0.5518
  726MOL0     H97953   5.230   1.805   2.537 -0.4730 -4.1472 -0.6646
  726MOL0     H97954   5.239   1.688   2.671 -2.0347 -0.8853 -0.6932
  726MOL0     H97955   5.073   1.804   2.799  2.5096  1.8857 -0.5323
  726MOL0     H97956   5.052   1.923   2.683  0.3923  0.9742  4.0612
  726MOL0     H97957   4.961   1.782   2.510  2.2512  1.0912  0.6412
  726MOL0     H97958   5.026   1.635   2.589  0.9856  0.0974 -0.3544
  726MOL0     H97959   4.812   1.815   2.716 -0.3584  0.1982  2.7243
  726MOL0     H97960   4.876   1.655   2.766  3.5529  0.4675 -0.6313
  726MOL0     H97961   4.779   1.426   2.611 -1.6047 -0.0882  1.6304
  726MOL0     H97962   4.620   1.348   2.349  0.6250  1.5071  0.3041
  726MOL0     H97963   4.565   1.310   2.511 -2.1281 -0.5710  0.7441
  726MOL0     H97964   4.406   1.487   2.328 -1.0954  0.3615  0.1231
  726MOL0     H97965   4.358   1.427   2.480  0.9096 -0.1111  0.9139
  726MOL0     H97966   4.422   1.180   2.372 -2.0249 -0.6561  0.5657
  726MOL0     H97967   4.422   1.260   2.218  0.0309  0.8706 -0.9267
  726MOL0     H97968   4.192   1.251   2.416 -2.8104 -0.8724 -2.0736
  726MOL0     H97969   4.204   1.160   2.261 -0.7961  0.5437 -0.6745
  726MOL0     H97970   4.097   1.518   2.077 -0.4296 -0.4139 -0.6979
  726MOL0     H97971   3.962   1.596   1.930  0.6002 -0.9452  0.8414
  726MOL0     H97972   3.817   1.512   1.900  0.0918  1.6747 -0.7855
  726MOL0     H97973   3.801   1.657   1.985 -3.0381 -1.5398  1.6502
  726MOL0     H97974   3.413   1.612   2.357 -1.4768 -0.7043  1.0292
  726MOL0     H97975   3.162   1.656   2.296 -0.7732  0.1747 -1.4871
  726MOL0     H97976   2.850   1.482   2.249  2.3800 -2.4976  1.0165
  726MOL0     H97977   2.963   1.553   2.354 -1.9457 -0.2554  0.4218
  726MOL0     H97978   2.993   1.752   2.177  0.5496  1.5906  1.1516
  726MOL0     H97979   2.870   1.674   2.083  0.1316 -0.7912  0.3111
  726MOL0     H97980   2.791   1.877   2.222 -3.1074 -0.0064  2.6312
  726MOL0     H97981   2.842   1.799   2.366  0.8629  3.8864 -0.7243
  726MOL0     H97982   2.621   1.707   2.163 -2.7145 -0.2162  0.6960
  726MOL0     H97983   2.685   1.611   2.298  1.5474  0.2073 -1.3747
  726MOL0     H97984   2.626   1.789   2.459  0.7318 -1.5087 -0.7932
  726MOL0     H97985   2.494   1.701   2.383 -0.3356  0.3258 -0.0529
  726MOL0     H97986   2.580   1.980   2.299  1.0530 -2.0062 -2.4781
  726MOL0     H97987   2.457   1.884   2.226  1.6700 -2.4418 -0.0100
  726MOL0     H97988   2.473   1.976   2.521 -2.0721  0.1084  1.0312
  726MOL0     H97989   2.340   1.882   2.460  0.7067 -0.5386  0.9714
  726MOL0     H97990   2.281   2.082   2.308  1.1719  0.5238 -0.2549
  726MOL0     H97991   2.430   2.157   2.355  0.9289 -1.3841 -2.0632
  726MOL0     H97992   3.166   1.268   2.111  3.5585 -0.7000 -3.5804
  726MOL0     H97993   3.415   1.243   2.155  1.7214  1.4303 -1.4745
  726MOL0     H97994   3.749   1.296   2.345  0.3180  0.6003  0.5593
  726MOL0     H97995   3.975   1.249   2.394 -1.7788 -0.3223  0.6310
  726MOL0     H97996   5.894   1.629   2.817 -0.5590 -2.0308 -3.7022
  726MOL0     H97997   6.152   1.616   2.830  1.1680  0.2341 -0.0855
  726MOL0     H97998   6.538   1.646   2.759 -0.6294  0.1494  4.0184
  726MOL0     H97999   6.763   1.622   2.777 -4.4806 -1.7252  0.7057
  726MOL0     H98000   6.944   1.892   3.012 -0.4933 -1.9383  1.0369
  726MOL0     H98001   7.065   1.774   2.985  0.7277  1.8247  0.5644
  726MOL0     H98002   7.110   2.053   2.999 -0.3069  1.2447 -0.0191
  726MOL0     H98003   7.060   2.040   2.825 -2.1038 -0.7889  0.0800
  726MOL0     H98004   7.255   1.892   2.763  0.2945  3.6664 -1.9663
  726MOL0     H98005   7.290   1.887   2.937  0.1932 -0.2289 -0.3202
  726MOL0     H98006   7.313   2.133   2.937  1.2825 -0.5200  0.4047
  726MOL0     H98007   7.258   2.136   2.764 -3.8797 -1.9297  0.4607
  726MOL0     H98008   7.668   2.019   2.726 -0.5688 -0.1829 -1.2412
  726MOL0     H98009   6.828   2.043   2.850  1.7757 -1.5332  2.0700
  726MOL0     H98010   6.578   2.073   2.811  2.0802  1.0143  2.4508
  727MOL0     O98011   0.630   4.309   6.050  0.2675 -0.0464  0.4125
  727MOL0     C98012   0.584   4.205   6.098 -0.0159  0.1390 -0.3086
  727MOL0     O98013   0.653   4.101   6.138  0.0817  1.2392 -0.0824
  727MOL0     C98014   0.780   4.092   6.088  1.5244  0.0790 -0.1322
  727MOL0     C98015   0.801   4.052   5.950 -0.3415  0.1384 -0.4216
  727MOL0     C98016   0.924   4.063   5.889  0.3578 -0.4734  0.0533
  727MOL0     C98017   1.036   4.094   5.966 -0.4513 -0.8864 -0.3205
  727MOL0     O98018   1.170   4.106   5.921  0.0039 -0.9792 -0.5513
  727MOL0     C98019   1.212   4.011   5.825  0.0347 -0.3432  0.0702
  727MOL0     C98020   1.339   4.065   5.754  0.2711  0.3212 -0.2105
  727MOL0     C98021   1.453   4.081   5.853  0.6527  0.3760 -0.1564
  727MOL0     C98022   1.561   4.171   5.804 -0.2678 -0.2048 -0.1000
  727MOL0     C98023   1.689   4.171   5.894  0.2833 -0.1472  0.2402
  727MOL0     C98024   1.678   4.250   6.017  0.0606  0.1666 -0.6385
  727MOL0     C98025   1.613   4.181   6.139  0.0140  0.7552  0.0605
  727MOL0     C98026   1.706   4.080   6.217  0.5114  0.8343  0.3983
  727MOL0     N98027   1.656   4.041   6.347 -0.5455 -0.0113 -0.6213
  727MOL0     C98028   1.556   3.952   6.366 -0.9975 -0.0217 -0.8251
  727MOL0     C98029   1.551   3.927   6.500  0.0003 -0.2167  0.4889
  727MOL0     C98030   1.448   3.845   6.561 -0.5978 -0.0090  0.1483
  727MOL0     C98031   1.409   3.877   6.708 -0.0610 -0.2008  0.1243
  727MOL0     C98032   1.285   3.803   6.758 -0.1727  0.1564 -0.7288
  727MOL0     C98033   1.158   3.849   6.677  0.5100  0.1076  0.5293
  727MOL0     O98034   1.046   3.785   6.743 -0.3609 -0.2460 -0.1252
  727MOL0     C98035   0.917   3.812   6.707 -0.3009 -0.7259 -0.4671
  727MOL0     C98036   0.871   3.897   6.604 -0.7307  0.8980 -0.4968
  727MOL0     C98037   0.740   3.905   6.567 -0.3103 -0.1385 -0.4319
  727MOL0     C98038   0.709   4.012   6.476  0.5204 -0.6721 -0.0542
  727MOL0     C98039   0.646   3.822   6.629  0.4056  0.1580 -0.1650
  727MOL0     C98040   0.503   3.812   6.592  0.0267 -0.3673  0.4330
  727MOL0     O98041   0.408   3.800   6.696  0.9578 -0.0318  0.4160
  727MOL0     C98042   0.289   3.780   6.641  1.5087 -0.9582  0.1655
  727MOL0     C98043   0.230   3.660   6.657 -0.1751  0.3488  0.1136
  727MOL0     C98044   0.093   3.643   6.626  1.3541 -0.8671 -0.3122
  727MOL0     C98045   0.024   3.750   6.559 -0.8337  0.3854 -0.1719
  727MOL0     O98046  -0.111   3.746   6.537 -0.4338 -0.4239  0.5499
  727MOL0     C98047  -0.204   3.686   6.618  0.2220 -0.0315 -0.5060
  727MOL0     C98048  -0.348   3.711   6.568 -0.4862  0.2763 -1.1109
  727MOL0     C98049  -0.462   3.626   6.634 -0.0761  0.0116 -0.5064
  727MOL0     C98050  -0.586   3.598   6.545 -0.4208  0.5291 -1.0790
  727MOL0     C98051  -0.696   3.535   6.635  0.0983  0.1788  0.1770
  727MOL0     C98052  -0.827   3.513   6.552 -0.4613  0.2868 -0.1167
  727MOL0     C98053  -0.946   3.468   6.635 -0.2697  0.2255  0.6277
  727MOL0     C98054  -1.063   3.463   6.535 -0.0991 -0.5009 -0.1766
  727MOL0    Cl98055  -1.103   3.638   6.498 -0.3040  0.4534 -0.0986
  727MOL0     C98056   0.090   3.865   6.527  0.3773  0.1117 -0.2560
  727MOL0     C98057   0.216   3.883   6.577  0.0404 -0.3418 -0.3307
  727MOL0     O98058   0.476   3.791   6.477 -0.3176  0.2349  0.0307
  727MOL0     C98059   0.686   3.741   6.733 -0.3334 -0.4809  0.0229
  727MOL0     C98060   0.814   3.738   6.773 -0.4177  0.2802 -0.1752
  727MOL0     N98061   1.653   3.991   6.569  0.0362 -0.1114  0.8504
  727MOL0     N98062   1.708   4.069   6.479 -0.4076  0.7032  0.3184
  727MOL0     C98063   1.016   4.122   6.100 -0.0859 -0.6588  0.4747
  727MOL0     C98064   0.893   4.123   6.161  0.7129 -0.7755 -0.2431
  727MOL0     C98065   0.435   4.200   6.139 -0.1939 -0.4613  0.5808
  727MOL0     C98066   0.351   4.305   6.100 -0.6307 -0.2065 -0.1619
  727MOL0     C98067   0.215   4.308   6.119 -0.1392 -0.3276  0.4875
  727MOL0     C98068   0.151   4.202   6.191  0.1475  0.4075 -0.4343
  727MOL0     O98069   0.021   4.204   6.231  0.2319  0.5331  0.1226
  727MOL0     C98070  -0.070   4.317   6.220  0.2967 -0.6284 -0.0425
  727MOL0     C98071  -0.222   4.286   6.246  1.0495 -0.4861  0.0375
  727MOL0     C98072  -0.253   4.245   6.389  0.1765  0.9665  0.6644
  727MOL0     C98073  -0.394   4.175   6.411  0.3243  0.0074 -0.8435
  727MOL0     C98074  -0.494   4.271   6.387  1.2671 -0.6957 -0.4666
  727MOL0     C98075  -0.573   4.364   6.365  0.2427  1.1388 -1.4116
  727MOL0     C98076   0.236   4.098   6.245  0.0646 -0.6880  0.4077
  727MOL0     C98077   0.377   4.102   6.220 -0.4330 -0.2146 -0.0224
  727MOL0     H98078   0.717   4.010   5.896  0.8730 -2.9543 -0.1030
  727MOL0     H98079   0.931   4.046   5.782 -0.4669 -3.3813  0.3709
  727MOL0     H98080   1.237   3.916   5.874  0.5207  0.1140  0.7182
  727MOL0     H98081   1.138   3.994   5.746  0.3867 -0.1889 -0.2959
  727MOL0     H98082   1.370   3.995   5.677  0.9614 -0.9587  1.1889
  727MOL0     H98083   1.326   4.159   5.700 -3.4750 -0.5651 -1.1085
  727MOL0     H98084   1.407   4.131   5.939 -1.8731  0.6024 -1.5437
  727MOL0     H98085   1.494   3.982   5.876 -0.6864  0.1096  1.2661
  727MOL0     H98086   1.600   4.112   5.721 -0.9490 -2.7295  1.2680
  727MOL0     H98087   1.534   4.268   5.760  0.6982 -1.2386 -3.2857
  727MOL0     H98088   1.727   4.069   5.900  0.8610  0.0847  0.6087
  727MOL0     H98089   1.763   4.228   5.837  1.5812 -1.0532  0.9792
  727MOL0     H98090   1.776   4.296   6.036  0.0196 -0.5384  1.6081
  727MOL0     H98091   1.608   4.329   5.993  1.8489  1.7164 -1.0089
  727MOL0     H98092   1.597   4.263   6.209 -1.7560 -1.2040  2.1413
  727MOL0     H98093   1.515   4.139   6.116  0.6384 -0.4667 -0.4813
  727MOL0     H98094   1.810   4.115   6.223  0.9074 -0.4030  1.2694
  727MOL0     H98095   1.717   3.987   6.160 -0.1039  0.9862  0.0300
  727MOL0     H98096   1.490   3.916   6.287 -0.0052 -1.6042 -0.9816
  727MOL0     H98097   1.363   3.850   6.493  0.2538  3.2907 -0.8368
  727MOL0     H98098   1.494   3.746   6.557 -0.2396  0.0780  1.4721
  727MOL0     H98099   1.400   3.985   6.717  3.3736  0.0368  2.8492
  727MOL0     H98100   1.484   3.835   6.776 -0.9119 -0.6591  0.8026
  727MOL0     H98101   1.277   3.834   6.863 -0.8033 -0.5387 -0.5635
  727MOL0     H98102   1.288   3.694   6.761 -0.7363  0.1445 -0.4292
  727MOL0     H98103   1.158   3.825   6.571 -0.9919 -1.9728  0.9323
  727MOL0     H98104   1.147   3.956   6.694 -0.1773  0.0322  0.6067
  727MOL0     H98105   0.938   3.969   6.559  0.2287 -0.6505 -1.6410
  727MOL0     H98106   0.785   4.038   6.401 -0.9797 -1.4446 -1.9125
  727MOL0     H98107   0.616   3.992   6.423 -0.1080 -0.4247  0.9379
  727MOL0     H98108   0.693   4.105   6.531  0.6767  0.8523 -2.4469
  727MOL0     H98109   0.294   3.587   6.705  0.8978  0.7728 -0.6381
  727MOL0     H98110   0.036   3.558   6.663  3.2378 -1.2817  1.8473
  727MOL0     H98111  -0.184   3.578   6.618  1.0167  0.1109 -0.5723
  727MOL0     H98112  -0.192   3.717   6.722 -0.4198  2.1215 -1.0239
  727MOL0     H98113  -0.377   3.815   6.586  1.7790  1.1009 -1.9112
  727MOL0     H98114  -0.355   3.698   6.460 -0.9186 -1.5969 -0.8909
  727MOL0     H98115  -0.488   3.683   6.723  0.7919 -0.2193 -0.1009
  727MOL0     H98116  -0.422   3.530   6.670  1.7257  0.1756 -1.9430
  727MOL0     H98117  -0.621   3.691   6.500  1.7571  0.6256 -2.7226
  727MOL0     H98118  -0.567   3.526   6.464 -2.3742  0.0036 -1.1151
  727MOL0     H98119  -0.723   3.593   6.723  2.6001 -0.5681  1.5430
  727MOL0     H98120  -0.667   3.437   6.674 -2.0365  0.2905  2.2439
  727MOL0     H98121  -0.846   3.609   6.504  0.2362  0.1277 -0.7251
  727MOL0     H98122  -0.805   3.437   6.477 -0.7240  0.8574 -0.7735
  727MOL0     H98123  -0.970   3.552   6.701  0.1984  1.7404 -1.0589
  727MOL0     H98124  -0.931   3.369   6.678 -0.7187 -0.0577  0.1396
  727MOL0     H98125  -1.143   3.404   6.581  1.0344 -0.6506  1.7101
  727MOL0     H98126  -1.039   3.409   6.443  0.5008 -0.7679  0.1325
  727MOL0     H98127   0.036   3.933   6.462  0.1215  0.1360 -0.0200
  727MOL0     H98128   0.260   3.980   6.556 -0.2131 -0.3381 -0.8758
  727MOL0     H98129   0.615   3.674   6.779 -0.1755  1.2242  3.0049
  727MOL0     H98130   0.839   3.667   6.851  0.9666  0.5767 -0.3243
  727MOL0     H98131   1.105   4.148   6.156  0.0637 -1.2735  0.5256
  727MOL0     H98132   0.880   4.153   6.264  2.2015 -2.7506  0.6005
  727MOL0     H98133   0.402   4.385   6.047  0.3310  0.6998  1.9745
  727MOL0     H98134   0.158   4.396   6.089 -0.4567 -0.4632  0.6938
  727MOL0     H98135  -0.035   4.398   6.284  0.1130  0.3224 -1.1147
  727MOL0     H98136  -0.063   4.348   6.116 -1.1936 -0.1546 -0.0293
  727MOL0     H98137  -0.244   4.202   6.180 -1.7855  0.6933 -0.6399
  727MOL0     H98138  -0.279   4.375   6.218 -0.7344 -2.5754 -3.8921
  727MOL0     H98139  -0.256   4.331   6.456 -1.1197  1.0391  0.5280
  727MOL0     H98140  -0.181   4.170   6.421  0.2042 -0.3739 -2.2220
  727MOL0     H98141  -0.413   4.123   6.505  0.9272 -2.0116 -1.7689
  727MOL0     H98142  -0.414   4.092   6.342 -0.8590  0.2846 -0.8506
  727MOL0     H98143  -0.636   4.449   6.346 -0.7159  0.5221 -1.0341
  727MOL0     H98144   0.193   4.011   6.294  0.9659 -2.3061 -1.5228
  727MOL0     H98145   0.436   4.021   6.260 -0.4308 -0.2973 -0.1898
  728MOL0     O98146  10.448   4.007   9.398  0.1052  0.1810 -0.2169
  728MOL0     C98147  10.505   3.960   9.495  0.3524 -0.5817  0.2950
  728MOL0     O98148  10.439   3.897   9.602  0.4646 -0.1093 -0.0686
  728MOL0     C98149  10.308   3.866   9.597  0.3193 -0.3208 -0.3122
  728MOL0     C98150  10.231   3.905   9.702 -0.1662 -0.4998  0.4855
  728MOL0     C98151  10.095   3.882   9.707  1.2860 -0.0180 -0.2679
  728MOL0     C98152  10.027   3.821   9.602 -0.4068 -0.3694 -0.4628
  728MOL0     O98153   9.892   3.817   9.601  0.1682  0.3351  0.1618
  728MOL0     C98154   9.830   3.724   9.512 -0.5609  0.8082  0.9149
  728MOL0     C98155   9.692   3.709   9.564  0.2940  0.4690  0.2032
  728MOL0     C98156   9.626   3.590   9.483  0.8415 -0.6220  0.0793
  728MOL0     C98157   9.473   3.599   9.486 -0.3520  0.0732 -0.3106
  728MOL0     C98158   9.405   3.486   9.415  0.8481  0.2093 -0.3542
  728MOL0     C98159   9.247   3.497   9.438 -0.1666  0.1524 -0.9991
  728MOL0     C98160   9.147   3.437   9.337 -0.2340  0.6025 -0.3990
  728MOL0     C98161   9.187   3.285   9.319 -0.0358 -0.1758  0.0918
  728MOL0     N98162   9.119   3.217   9.207 -0.1777  0.0372 -0.3462
  728MOL0     C98163   8.981   3.188   9.205 -0.1139  0.3080  0.0324
  728MOL0     C98164   8.968   3.112   9.087 -0.3923 -1.3004  0.1938
  728MOL0     C98165   8.845   3.038   9.061 -0.5665  0.0984  0.7290
  728MOL0     C98166   8.718   3.121   9.056 -0.5036 -0.2459  0.8495
  728MOL0     C98167   8.606   3.020   9.048  0.3756 -0.2828  0.0502
  728MOL0     C98168   8.471   3.096   9.052  0.1487 -0.4051 -0.1152
  728MOL0     O98169   8.446   3.147   9.182  0.0608  0.2337  0.0245
  728MOL0     C98170   8.312   3.157   9.202  0.3590 -0.3834 -0.2900
  728MOL0     C98171   8.241   3.039   9.225  1.3892 -0.0555 -0.4249
  728MOL0     C98172   8.104   3.037   9.227  1.8568  0.1871 -0.1952
  728MOL0     C98173   8.037   2.906   9.239  0.4249 -0.4401  0.1024
  728MOL0     C98174   8.031   3.159   9.231 -0.4869  0.1709 -0.6322
  728MOL0     C98175   7.882   3.176   9.248  0.1452 -0.6734 -0.6376
  728MOL0     O98176   7.839   3.308   9.287 -0.4144  0.0205 -0.3282
  728MOL0     C98177   7.722   3.320   9.357  0.2527 -0.3093  0.3063
  728MOL0     C98178   7.633   3.429   9.336  0.9822 -0.4935 -0.1527
  728MOL0     C98179   7.511   3.434   9.403 -1.0333  0.0596 -0.3790
  728MOL0     C98180   7.469   3.326   9.488 -0.5731 -0.3224  0.6281
  728MOL0     O98181   7.342   3.319   9.539  0.6901 -0.0294  0.0740
  728MOL0     C98182   7.227   3.396   9.494  0.3097  0.6463 -0.3058
  728MOL0     C98183   7.109   3.323   9.530  0.1296  0.1740  0.1862
  728MOL0     C98184   6.982   3.407   9.510  0.4493 -0.1226 -0.1390
  728MOL0     C98185   6.854   3.334   9.539 -0.4057  0.2103 -1.6058
  728MOL0     C98186   6.728   3.415   9.520  0.2156  1.1448 -0.4458
  728MOL0     C98187   6.614   3.319   9.540 -0.0043  0.1626 -0.3730
  728MOL0     C98188   6.484   3.402   9.529 -0.4346  0.1621  0.6840
  728MOL0     C98189   6.362   3.320   9.557  0.0333  0.2691 -0.1065
  728MOL0    Cl98190   6.361   3.258   9.729  0.3836  0.1239 -0.0302
  728MOL0     C98191   7.558   3.228   9.523 -0.3764 -0.4448  0.2640
  728MOL0     C98192   7.686   3.227   9.455  0.0794  0.8188 -0.3679
  728MOL0     O98193   7.808   3.089   9.205  0.6997  0.3225 -0.0110
  728MOL0     C98194   8.107   3.275   9.210 -0.3876 -0.3208 -0.5835
  728MOL0     C98195   8.245   3.275   9.188  0.2076 -0.2559 -0.1697
  728MOL0     N98196   9.088   3.112   9.020  0.4372 -0.2257  0.1221
  728MOL0     N98197   9.180   3.170   9.094  0.3917  0.3392  0.3113
  728MOL0     C98198  10.104   3.778   9.493  0.2922  0.2593  0.0009
  728MOL0     C98199  10.239   3.806   9.490 -0.4282 -0.5573 -0.2540
  728MOL0     C98200  10.644   4.004   9.515 -0.0384 -0.1228  0.5512
  728MOL0     C98201  10.709   4.068   9.408  0.2848  0.2058  0.1751
  728MOL0     C98202  10.834   4.134   9.430  0.1496 -0.3730  0.2955
  728MOL0     C98203  10.891   4.130   9.552 -1.3797  0.3065 -0.4728
  728MOL0     O98204  11.007   4.204   9.573  0.1817 -0.7849 -0.4131
  728MOL0     C98205  11.072   4.207   9.704  0.5303  1.3520 -0.2754
  728MOL0     C98206  11.166   4.080   9.728 -1.3926 -0.4245  0.3382
  728MOL0     C98207  11.314   4.111   9.748  0.2636  0.4256  0.1971
  728MOL0     C98208  11.335   4.194   9.882 -0.0650  0.0922 -0.3027
  728MOL0     C98209  11.283   4.129   9.993 -1.0136  0.0269  0.3117
  728MOL0     C98210  11.244   4.075  10.096 -0.6753 -0.3465  0.8512
  728MOL0     C98211  10.822   4.057   9.656  0.1135  1.0629  0.3220
  728MOL0     C98212  10.700   4.004   9.642  0.3773  0.2821 -0.0118
  728MOL0     H98213  10.270   3.952   9.792 -0.2630 -1.5907  1.1167
  728MOL0     H98214  10.030   3.915   9.788 -0.3425 -0.0357 -1.5123
  728MOL0     H98215   9.829   3.762   9.410 -0.0947 -0.5310  0.3871
  728MOL0     H98216   9.863   3.619   9.515 -2.4483  0.1027 -0.8699
  728MOL0     H98217   9.692   3.685   9.671  0.6246  2.4216  0.6845
  728MOL0     H98218   9.636   3.801   9.546  1.8209  1.6167  1.0240
  728MOL0     H98219   9.647   3.586   9.376 -2.7496 -1.0069 -0.7388
  728MOL0     H98220   9.662   3.496   9.526  0.6188 -0.5741  0.3726
  728MOL0     H98221   9.460   3.621   9.593  1.9029  0.6008 -0.0828
  728MOL0     H98222   9.460   3.689   9.425  1.5701  1.0645  0.6175
  728MOL0     H98223   9.417   3.477   9.306 -2.6534 -0.4150 -0.8131
  728MOL0     H98224   9.441   3.396   9.465 -0.6022  1.2181  2.7268
  728MOL0     H98225   9.229   3.446   9.533 -1.4421 -1.4412 -2.0449
  728MOL0     H98226   9.213   3.601   9.447 -1.2095 -0.2085 -0.6146
  728MOL0     H98227   9.043   3.434   9.369 -0.7122  0.2766 -1.8825
  728MOL0     H98228   9.156   3.489   9.241  3.7479 -0.7264 -0.9383
  728MOL0     H98229   9.164   3.229   9.409  1.4950  1.2210  1.4103
  728MOL0     H98230   9.295   3.275   9.310 -0.0057  0.6647 -0.6229
  728MOL0     H98231   8.905   3.183   9.282 -1.0446 -0.0988 -0.8955
  728MOL0     H98232   8.871   2.985   8.969 -1.9331 -1.8422  1.3919
  728MOL0     H98233   8.830   2.959   9.135 -2.3383 -1.7886 -1.4737
  728MOL0     H98234   8.716   3.179   8.963  1.2983  0.2325  1.0616
  728MOL0     H98235   8.710   3.194   9.137 -1.9356 -0.6019  1.0580
  728MOL0     H98236   8.606   2.952   9.133  2.2165 -2.4524 -1.5598
  728MOL0     H98237   8.615   2.957   8.959 -1.3497 -0.2398 -0.1911
  728MOL0     H98238   8.393   3.026   9.021 -1.2004  0.5792  0.9640
  728MOL0     H98239   8.469   3.181   8.983 -0.7055  0.3442  0.8093
  728MOL0     H98240   8.303   2.950   9.222 -0.3005 -1.2554 -2.3203
  728MOL0     H98241   7.969   2.915   9.324  0.7019 -1.9326  0.5046
  728MOL0     H98242   7.976   2.876   9.153  0.0553  1.1982 -0.2380
  728MOL0     H98243   8.111   2.826   9.253  0.5572 -0.6609 -1.6579
  728MOL0     H98244   7.644   3.502   9.256  2.3241 -2.5235 -1.9617
  728MOL0     H98245   7.444   3.519   9.395  0.9068  1.8493  1.3887
  728MOL0     H98246   7.234   3.495   9.539 -0.9927  0.8274 -0.4576
  728MOL0     H98247   7.229   3.408   9.386 -1.5692  2.0187 -0.2228
  728MOL0     H98248   7.115   3.234   9.467  1.0918  1.2763 -1.3605
  728MOL0     H98249   7.110   3.301   9.637  1.8144  1.0826  0.4017
  728MOL0     H98250   6.973   3.444   9.407 -1.4963 -0.9639 -0.3074
  728MOL0     H98251   6.985   3.491   9.580 -1.0198  1.4130 -1.8226
  728MOL0     H98252   6.854   3.239   9.484 -2.3470 -0.1091 -1.1313
  728MOL0     H98253   6.850   3.298   9.642  0.6371 -1.8863 -2.2413
  728MOL0     H98254   6.722   3.461   9.421  3.9103 -1.2280 -1.9520
  728MOL0     H98255   6.731   3.499   9.592  1.3407  1.5305 -0.9126
  728MOL0     H98256   6.616   3.244   9.460 -0.1023 -0.3575  0.1099
  728MOL0     H98257   6.624   3.264   9.634  0.2532 -0.1019 -0.5533
  728MOL0     H98258   6.477   3.448   9.430 -0.7540 -0.2003  0.5370
  728MOL0     H98259   6.492   3.488   9.597 -2.4940  0.9393  0.0186
  728MOL0     H98260   6.362   3.240   9.482 -0.8381 -0.4948  0.6753
  728MOL0     H98261   6.285   3.396   9.539 -0.6696 -0.3765  0.0998
  728MOL0     H98262   7.521   3.158   9.598 -0.1727  0.3343  1.1065
  728MOL0     H98263   7.762   3.157   9.488  2.0303  1.7118 -2.6033
  728MOL0     H98264   8.062   3.373   9.218  2.2559  0.9087  0.3062
  728MOL0     H98265   8.306   3.358   9.154  0.6712 -0.7997 -0.6801
  728MOL0     H98266  10.063   3.725   9.408 -2.3501  0.8797  0.8156
  728MOL0     H98267  10.303   3.794   9.403 -1.7646 -1.7806 -1.1182
  728MOL0     H98268  10.671   4.070   9.307 -2.1925 -1.3808  0.9932
  728MOL0     H98269  10.877   4.192   9.349 -1.4191  1.0586  0.4179
  728MOL0     H98270  11.134   4.297   9.692  0.0991  1.3845 -2.6622
  728MOL0     H98271  10.997   4.213   9.783 -1.0661  1.2715 -1.7309
  728MOL0     H98272  11.158   4.020   9.637  2.0699 -0.3251 -0.1864
  728MOL0     H98273  11.124   4.017   9.807 -1.8092 -2.0926 -1.1550
  728MOL0     H98274  11.353   4.160   9.659  0.0104 -0.0978 -0.2063
  728MOL0     H98275  11.358   4.012   9.764 -2.9991 -1.1314  0.4527
  728MOL0     H98276  11.285   4.291   9.876 -3.2959 -1.4965 -2.1280
  728MOL0     H98277  11.444   4.203   9.885  0.2129 -2.3801 -0.6547
  728MOL0     H98278  11.215   4.027  10.187 -2.3161 -0.4182  0.3132
  728MOL0     H98279  10.867   4.029   9.751  1.1467 -3.7732 -1.3499
  728MOL0     H98280  10.660   3.965   9.735  1.7638  1.0494  0.9557
  729MOL0     O98281   6.872  10.542  10.339  0.0710 -0.1209  0.0144
  729MOL0     C98282   6.833  10.619  10.432  0.3503  0.6296 -0.0128
  729MOL0     O98283   6.700  10.664  10.454 -0.7903  0.2950 -0.4930
  729MOL0     C98284   6.600  10.660  10.361 -0.2362 -0.3989  0.3831
  729MOL0     C98285   6.490  10.749  10.392 -0.5284  0.1740  0.4044
  729MOL0     C98286   6.387  10.759  10.300 -0.8961 -0.5616 -0.1022
  729MOL0     C98287   6.383  10.684  10.184  0.8273  0.2564 -0.0927
  729MOL0     O98288   6.270  10.704  10.107 -0.0705 -0.3409  0.1951
  729MOL0     C98289   6.246  10.592  10.021  0.7170  0.5095  1.7284
  729MOL0     C98290   6.095  10.557   9.989  0.2382 -0.3186 -0.0735
  729MOL0     C98291   6.042  10.475  10.108 -0.0372 -0.5021  0.0688
  729MOL0     C98292   5.896  10.433  10.097 -0.5853 -0.5394 -0.8451
  729MOL0     C98293   5.842  10.423  10.243 -0.8792 -0.4243  0.5114
  729MOL0     C98294   5.683  10.413  10.265  0.0488  0.2087  0.8458
  729MOL0     C98295   5.608  10.543  10.231 -0.4615  0.1817 -0.6521
  729MOL0     C98296   5.621  10.643  10.347  0.2989  0.1560 -0.3281
  729MOL0     N98297   5.499  10.725  10.371 -0.6370  1.3480 -0.7644
  729MOL0     C98298   5.474  10.837  10.295 -0.2646 -0.2270  0.7895
  729MOL0     C98299   5.369  10.892  10.359  0.0498 -0.4167  0.1739
  729MOL0     C98300   5.277  11.011  10.321  1.4566 -0.3476 -0.2341
  729MOL0     C98301   5.168  10.959  10.223 -0.2657  1.1210 -0.4122
  729MOL0     C98302   5.063  11.069  10.191 -0.4615 -0.2711 -0.8002
  729MOL0     C98303   4.958  11.091  10.297 -0.1158  0.2846  0.2307
  729MOL0     O98304   4.849  11.180  10.256 -0.0493 -0.0875  0.7157
  729MOL0     C98305   4.759  11.134  10.159  0.0994 -0.1951 -0.1427
  729MOL0     C98306   4.744  11.006  10.116  0.5878  0.3529 -0.3532
  729MOL0     C98307   4.636  10.969  10.037 -0.6562  0.9061 -0.1992
  729MOL0     C98308   4.642  10.824   9.985 -0.2337 -0.6123 -0.2039
  729MOL0     C98309   4.542  11.066   9.999  1.0111  0.6809 -0.0376
  729MOL0     C98310   4.409  11.034   9.922 -0.4739 -1.3619 -0.4884
  729MOL0     O98311   4.322  11.141   9.909 -0.6007 -0.3317  0.6216
  729MOL0     C98312   4.210  11.124   9.838 -0.4711  0.5498 -0.4746
  729MOL0     C98313   4.099  11.180   9.896  0.1421  0.1559  1.0014
  729MOL0     C98314   3.975  11.182   9.834 -0.0557  0.1418  0.5689
  729MOL0     C98315   3.953  11.109   9.712 -0.6749  0.0211 -1.4836
  729MOL0     O98316   3.829  11.121   9.662  0.8980  0.6455 -0.4446
  729MOL0     C98317   3.803  11.054   9.536 -0.0345 -0.3056 -0.0750
  729MOL0     C98318   3.662  11.094   9.479  0.3356 -0.3351 -0.4845
  729MOL0     C98319   3.652  11.244   9.456  0.2026  0.1827  0.4408
  729MOL0     C98320   3.516  11.268   9.381 -0.8663 -0.3934  0.2292
  729MOL0     C98321   3.495  11.416   9.352 -0.1427  0.1477  0.4862
  729MOL0     C98322   3.345  11.449   9.336  0.1306  0.2399 -0.2407
  729MOL0     C98323   3.319  11.594   9.302 -0.4040 -0.6237  0.3980
  729MOL0     C98324   3.176  11.650   9.297 -0.2296 -0.2459  0.2073
  729MOL0    Cl98325   3.073  11.544   9.189 -0.0818 -0.1916 -0.1991
  729MOL0     C98326   4.069  11.042   9.662  0.6035  0.3188 -0.1517
  729MOL0     C98327   4.192  11.050   9.727  1.1720 -0.0071  0.0705
  729MOL0     O98328   4.400  10.931   9.865 -0.7383  0.2919  0.6714
  729MOL0     C98329   4.561  11.199  10.037 -0.1709  0.7442  0.6137
  729MOL0     C98330   4.667  11.231  10.118  0.3549  0.4408  0.2689
  729MOL0     N98331   5.317  10.812  10.461 -0.0546 -1.0232 -0.2038
  729MOL0     N98332   5.403  10.719  10.475  0.1895 -0.1692  0.1434
  729MOL0     C98333   6.492  10.596  10.156  0.1798  0.1672 -0.2838
  729MOL0     C98334   6.597  10.582  10.245 -0.2675 -0.2520  0.2605
  729MOL0     C98335   6.931  10.649  10.533 -0.0035 -0.1377 -0.6919
  729MOL0     C98336   7.067  10.600  10.527 -0.1140 -0.2122  0.8774
  729MOL0     C98337   7.159  10.641  10.620  0.5194  0.1351 -0.2620
  729MOL0     C98338   7.123  10.734  10.719 -0.3118 -0.0065  0.4860
  729MOL0     O98339   7.209  10.768  10.815 -0.3864  0.2262  0.4766
  729MOL0     C98340   7.199  10.679  10.923 -0.2721 -0.2335  0.6960
  729MOL0     C98341   7.335  10.619  10.960 -0.0437 -0.5758  0.6928
  729MOL0     C98342   7.313  10.514  11.070  0.0990  0.2700  0.7635
  729MOL0     C98343   7.448  10.457  11.116 -0.6571  0.1427 -0.2887
  729MOL0     C98344   7.426  10.340  11.201 -0.4955  0.4224 -0.1181
  729MOL0     C98345   7.398  10.248  11.269 -0.3782 -0.3175 -0.2033
  729MOL0     C98346   6.986  10.766  10.729 -0.3546 -0.0482 -0.2068
  729MOL0     C98347   6.893  10.734  10.631 -0.9870  0.5431 -0.4552
  729MOL0     H98348   6.491  10.810  10.481  0.5840 -0.2895  0.7356
  729MOL0     H98349   6.309  10.834  10.310 -0.5501 -0.2097 -0.0374
  729MOL0     H98350   6.284  10.621   9.923 -3.2871  2.9373  0.6177
  729MOL0     H98351   6.297  10.504  10.061  0.0732 -0.2428  0.9416
  729MOL0     H98352   6.049  10.654   9.967 -2.2115 -1.4524 -0.2710
  729MOL0     H98353   6.093  10.497   9.898  0.4854  1.0889 -1.0255
  729MOL0     H98354   6.094  10.378  10.112 -0.4676 -0.7227  4.6230
  729MOL0     H98355   6.061  10.527  10.202  1.3014 -0.2630 -0.3166
  729MOL0     H98356   5.848  10.520  10.051 -0.7145  0.0299  0.3395
  729MOL0     H98357   5.885  10.338  10.044 -1.0604 -0.3088 -1.1747
  729MOL0     H98358   5.880  10.327  10.280 -1.3467 -1.1256 -0.7687
  729MOL0     H98359   5.888  10.496  10.310  1.4437 -1.2826 -0.0343
  729MOL0     H98360   5.642  10.346  10.189 -0.2444  1.6421 -0.3049
  729MOL0     H98361   5.653  10.371  10.362  0.3583 -5.2240 -1.0569
  729MOL0     H98362   5.649  10.593  10.143  0.0500 -2.4094 -1.9719
  729MOL0     H98363   5.507  10.512  10.205 -0.7949  1.0476 -0.4238
  729MOL0     H98364   5.704  10.714  10.333  0.3675  0.1100 -0.1646
  729MOL0     H98365   5.643  10.592  10.442 -1.2481 -0.0948 -0.0806
  729MOL0     H98366   5.540  10.884  10.223  2.1558  1.2942  3.7761
  729MOL0     H98367   5.227  11.060  10.406 -1.5100 -1.9042 -0.9335
  729MOL0     H98368   5.342  11.087  10.278  1.4369  1.0422  2.0132
  729MOL0     H98369   5.114  10.875  10.267  1.2234  0.6811  0.6404
  729MOL0     H98370   5.216  10.922  10.132  0.5352  2.3604 -0.5220
  729MOL0     H98371   5.012  11.045  10.097  1.0471  1.2518 -2.0804
  729MOL0     H98372   5.116  11.163  10.172  2.7096 -2.0357 -1.3871
  729MOL0     H98373   5.015  11.135  10.379  0.8646  3.3449 -1.9254
  729MOL0     H98374   4.910  10.999  10.333 -1.2416  0.2190 -1.3250
  729MOL0     H98375   4.811  10.928  10.151  0.0847 -0.6342 -1.5012
  729MOL0     H98376   4.723  10.770  10.034  0.7216  1.3241  0.4882
  729MOL0     H98377   4.547  10.771   9.999 -0.1592 -0.6564  0.1431
  729MOL0     H98378   4.649  10.840   9.877  0.4247  0.2688 -0.0449
  729MOL0     H98379   4.117  11.217   9.996  0.5164  1.6203  0.4177
  729MOL0     H98380   3.890  11.214   9.893  0.4757 -0.6610  1.8120
  729MOL0     H98381   3.881  11.076   9.463 -0.8825 -1.1011 -1.2520
  729MOL0     H98382   3.802  10.947   9.556 -1.4644 -0.2236  0.4497
  729MOL0     H98383   3.626  11.040   9.390 -1.0234 -0.7629  0.2987
  729MOL0     H98384   3.588  11.071   9.555  1.6001 -2.5104  0.1841
  729MOL0     H98385   3.733  11.275   9.389  1.1129 -2.3160  0.2736
  729MOL0     H98386   3.653  11.297   9.552 -1.2985  1.2735 -0.1032
  729MOL0     H98387   3.520  11.215   9.285 -0.7735 -1.2358  0.6855
  729MOL0     H98388   3.438  11.224   9.444 -1.6214 -0.3040 -0.6226
  729MOL0     H98389   3.550  11.434   9.259 -1.2962  0.2428 -0.1940
  729MOL0     H98390   3.543  11.462   9.439 -1.9600 -2.9683  3.4110
  729MOL0     H98391   3.291  11.390   9.261 -2.4827  0.6540  1.1931
  729MOL0     H98392   3.289  11.436   9.429 -0.5821  2.5066 -0.3051
  729MOL0     H98393   3.362  11.614   9.204 -0.6999  1.1114  0.6003
  729MOL0     H98394   3.369  11.658   9.375 -2.0317  2.9113 -1.3713
  729MOL0     H98395   3.172  11.754   9.261 -0.3756  0.4730  2.2083
  729MOL0     H98396   3.131  11.645   9.396 -0.7140 -4.5697 -0.0529
  729MOL0     H98397   4.073  10.985   9.569  1.5867 -0.0524  0.0961
  729MOL0     H98398   4.274  11.005   9.672  1.2087 -0.0159  0.1312
  729MOL0     H98399   4.502  11.286  10.008 -1.8859 -1.0750 -1.7814
  729MOL0     H98400   4.675  11.332  10.155  3.5267  1.0202 -1.5996
  729MOL0     H98401   6.500  10.548  10.059 -0.2381  1.9369 -1.2540
  729MOL0     H98402   6.671  10.505  10.228  2.5663  2.0132  1.5191
  729MOL0     H98403   7.090  10.533  10.445  0.6772  1.1059 -0.0117
  729MOL0     H98404   7.260  10.602  10.624 -0.2383 -1.8921  0.7967
  729MOL0     H98405   7.147  10.732  11.003  0.1486  0.9708  0.2104
  729MOL0     H98406   7.145  10.588  10.898  0.7568 -0.1610 -2.2091
  729MOL0     H98407   7.403  10.691  11.008  0.3108 -0.9707  0.7826
  729MOL0     H98408   7.391  10.573  10.879  0.3601  0.8777  0.1069
  729MOL0     H98409   7.249  10.433  11.036  0.0951  0.8164 -0.5854
  729MOL0     H98410   7.265  10.557  11.158 -0.2574  0.5610  0.4279
  729MOL0     H98411   7.489  10.530  11.187  0.7024 -0.9407  0.0893
  729MOL0     H98412   7.516  10.431  11.036 -1.3276  1.1273 -1.2121
  729MOL0     H98413   7.365  10.169  11.334  0.2005 -0.0847  0.3871
  729MOL0     H98414   6.937  10.817  10.811 -2.0488 -0.3561 -0.9857
  729MOL0     H98415   6.790  10.769  10.637 -1.4109 -0.8635  2.4334
  730MOL0     O98416   0.320   6.064   1.579  0.3782 -0.4985  0.0896
  730MOL0     C98417   0.355   6.085   1.696 -0.2398 -0.0625 -0.9820
  730MOL0     O98418   0.270   6.074   1.809 -0.4213  0.6966  0.3029
  730MOL0     C98419   0.137   6.066   1.788  0.4871  0.9039 -0.1387
  730MOL0     C98420   0.068   6.164   1.716  0.0371  0.4402  0.7179
  730MOL0     C98421  -0.078   6.170   1.713 -0.2133  0.2931 -0.1535
  730MOL0     C98422  -0.147   6.065   1.784  0.5332 -0.5638 -0.0668
  730MOL0     O98423  -0.284   6.076   1.778 -0.1886 -0.1637  0.1268
  730MOL0     C98424  -0.365   5.973   1.829 -0.8041 -0.5577 -0.4112
  730MOL0     C98425  -0.509   6.004   1.793  0.1287 -0.4444  0.8848
  730MOL0     C98426  -0.624   5.923   1.853 -0.0830  0.4712  0.1523
  730MOL0     C98427  -0.747   5.946   1.769  0.9654 -1.0645 -0.1880
  730MOL0     C98428  -0.864   5.894   1.853  0.9522  0.6070 -0.3401
  730MOL0     C98429  -0.996   5.925   1.784 -0.0036  0.5492 -0.6624
  730MOL0     C98430  -1.125   5.870   1.855 -0.9899 -0.8920  0.3825
  730MOL0     C98431  -1.162   5.944   1.985 -0.6508 -0.6012 -0.3244
  730MOL0     N98432  -1.293   5.927   2.037  0.1817  0.3327 -0.6428
  730MOL0     C98433  -1.354   5.806   2.060  0.1259  0.2141  0.0580
  730MOL0     C98434  -1.463   5.823   2.132 -0.1110  1.3566 -0.9726
  730MOL0     C98435  -1.559   5.718   2.174 -0.2080  0.0995  0.0528
  730MOL0     C98436  -1.699   5.782   2.213 -0.9662 -0.3216  0.3328
  730MOL0     C98437  -1.800   5.673   2.263 -0.5000  0.4936 -0.0686
  730MOL0     C98438  -1.930   5.738   2.310  0.2427 -0.2797  0.2170
  730MOL0     O98439  -2.031   5.646   2.311  0.4261 -0.2018 -0.3434
  730MOL0     C98440  -2.162   5.691   2.309  0.7326  0.4919 -0.3899
  730MOL0     C98441  -2.198   5.822   2.330 -0.2055  0.4665 -0.2055
  730MOL0     C98442  -2.331   5.858   2.308  0.1370  0.5864  0.0605
  730MOL0     C98443  -2.374   5.994   2.353 -0.2588 -0.3595  0.3425
  730MOL0     C98444  -2.428   5.761   2.267 -0.0782  0.0653  0.1217
  730MOL0     C98445  -2.570   5.794   2.242 -0.4068  0.5744 -0.0328
  730MOL0     O98446  -2.613   5.772   2.129 -0.1147  0.1129 -0.1207
  730MOL0     C98447  -2.750   5.763   2.103 -0.4378  0.6361 -0.1470
  730MOL0     C98448  -2.802   5.634   2.100 -0.0627 -0.2968  1.6213
  730MOL0     C98449  -2.934   5.605   2.076 -0.0658  0.1446 -0.2010
  730MOL0     C98450  -3.020   5.709   2.040  0.3211  0.0219  0.0448
  730MOL0     O98451  -3.144   5.670   2.006 -0.0862 -0.1282 -0.7402
  730MOL0     C98452  -3.255   5.761   2.024  0.5795 -0.2068  0.8352
  730MOL0     C98453  -3.373   5.701   1.950 -0.1028  0.3295  0.3079
  730MOL0     C98454  -3.498   5.792   1.949  0.0161 -0.1779  1.1256
  730MOL0     C98455  -3.562   5.825   2.089 -0.7914  0.5288 -0.2272
  730MOL0     C98456  -3.617   5.710   2.177  0.5136  0.0469  0.3035
  730MOL0     C98457  -3.753   5.657   2.125 -0.0141  0.0896 -0.2804
  730MOL0     C98458  -3.868   5.718   2.196  0.5335 -0.4288  0.5279
  730MOL0     C98459  -4.000   5.645   2.156 -0.0642  0.6326  0.1613
  730MOL0    Cl98460  -4.139   5.713   2.244 -0.0658 -0.3281  0.7817
  730MOL0     C98461  -2.973   5.844   2.046 -0.3918  0.1096 -0.6310
  730MOL0     C98462  -2.837   5.868   2.077  0.6066 -0.8200 -0.3555
  730MOL0     O98463  -2.636   5.837   2.334 -0.9242  0.1617  0.4339
  730MOL0     C98464  -2.386   5.627   2.251  0.1726 -0.4713 -0.0709
  730MOL0     C98465  -2.251   5.592   2.267  0.2134 -0.3275 -0.4476
  730MOL0     N98466  -1.468   5.962   2.154 -0.6722 -0.6403  0.6443
  730MOL0     N98467  -1.366   6.020   2.102  0.2062 -0.3942 -0.3997
  730MOL0     C98468  -0.070   5.968   1.851 -0.1587  0.2501  0.4785
  730MOL0     C98469   0.071   5.970   1.859 -0.8139 -0.2284  0.8355
  730MOL0     C98470   0.502   6.118   1.716 -0.0351 -0.3413 -0.9322
  730MOL0     C98471   0.552   6.117   1.851 -0.0087  0.2400  0.1547
  730MOL0     C98472   0.687   6.137   1.876 -0.5076 -0.0867  0.8065
  730MOL0     C98473   0.779   6.140   1.776 -0.8179  0.2808 -0.0878
  730MOL0     O98474   0.915   6.148   1.795 -0.4421  0.0233  0.0724
  730MOL0     C98475   0.968   6.176   1.927  0.3514 -0.4689  0.3638
  730MOL0     C98476   1.125   6.169   1.922 -0.0418 -0.1792 -0.4556
  730MOL0     C98477   1.189   6.271   1.818 -0.0577 -0.2796 -0.3036
  730MOL0     C98478   1.324   6.313   1.869  0.4776 -0.5332 -0.6549
  730MOL0     C98479   1.431   6.216   1.846 -0.0703  0.0217 -0.0886
  730MOL0     C98480   1.514   6.129   1.823  0.0118  0.3836 -0.3365
  730MOL0     C98481   0.732   6.139   1.648 -0.0788  0.1605 -0.0732
  730MOL0     C98482   0.595   6.132   1.618 -0.8345  0.5186  0.0533
  730MOL0     H98483   0.132   6.233   1.661 -0.2988  2.0656  2.2720
  730MOL0     H98484  -0.121   6.257   1.665  1.4415  1.2599  0.0534
  730MOL0     H98485  -0.330   5.879   1.786  1.5696 -0.3637  0.9070
  730MOL0     H98486  -0.357   5.966   1.938 -0.0244  0.3206 -0.3986
  730MOL0     H98487  -0.528   6.110   1.815 -0.9129 -0.7029  1.3213
  730MOL0     H98488  -0.513   5.988   1.685 -0.1848  0.2086  0.7934
  730MOL0     H98489  -0.596   5.817   1.855  0.3494  0.5850  0.2924
  730MOL0     H98490  -0.643   5.957   1.955 -2.5605 -0.3593  0.0442
  730MOL0     H98491  -0.764   6.053   1.780 -1.7851 -1.6010  1.8161
  730MOL0     H98492  -0.745   5.919   1.663  0.3304  0.9106 -0.7422
  730MOL0     H98493  -0.856   5.789   1.884  2.4304  0.6785 -0.4399
  730MOL0     H98494  -0.867   5.942   1.952 -0.1558  0.8396 -0.4747
  730MOL0     H98495  -0.993   6.034   1.774  2.3408  1.1933  4.2165
  730MOL0     H98496  -1.001   5.869   1.689 -2.3673  3.4138 -2.3997
  730MOL0     H98497  -1.210   5.877   1.786  0.6678  2.9575 -1.6295
  730MOL0     H98498  -1.104   5.764   1.874 -0.5224 -0.3852  3.0626
  730MOL0     H98499  -1.145   6.052   1.984 -2.1339 -0.3436 -1.4986
  730MOL0     H98500  -1.106   5.893   2.064 -0.6061  0.7126  0.5274
  730MOL0     H98501  -1.328   5.703   2.036 -2.1955 -0.3396 -0.3425
  730MOL0     H98502  -1.574   5.634   2.107 -1.3441 -1.2208  1.8594
  730MOL0     H98503  -1.521   5.666   2.262  4.7589  2.1262 -0.5619
  730MOL0     H98504  -1.737   5.844   2.131 -3.1117 -1.9694 -0.0055
  730MOL0     H98505  -1.681   5.856   2.292  1.7181 -1.0366  0.5042
  730MOL0     H98506  -1.757   5.623   2.350 -1.4093  1.4605  0.9846
  730MOL0     H98507  -1.824   5.603   2.183  1.8506 -0.5625  0.0711
  730MOL0     H98508  -1.942   5.817   2.235  3.1074  0.3083  0.2599
  730MOL0     H98509  -1.915   5.783   2.409 -1.3991 -2.8720  1.7812
  730MOL0     H98510  -2.127   5.901   2.350 -0.5370  0.7164 -0.0195
  730MOL0     H98511  -2.297   6.062   2.390  0.3372 -0.3476 -0.8682
  730MOL0     H98512  -2.440   6.043   2.280  0.8658  0.3271 -0.2335
  730MOL0     H98513  -2.445   5.981   2.435 -1.3477  1.6152 -0.2004
  730MOL0     H98514  -2.738   5.552   2.131 -0.1437 -2.1013 -2.3895
  730MOL0     H98515  -2.966   5.502   2.066 -2.1892  0.8710 -1.8189
  730MOL0     H98516  -3.286   5.784   2.127 -2.8153  1.7283 -0.4436
  730MOL0     H98517  -3.236   5.856   1.974 -1.2021 -0.9121 -1.3416
  730MOL0     H98518  -3.356   5.668   1.847 -2.2116  0.2089 -0.0482
  730MOL0     H98519  -3.414   5.610   1.995 -1.5538 -0.5427 -2.5168
  730MOL0     H98520  -3.576   5.743   1.891  1.1243  0.1489 -0.7249
  730MOL0     H98521  -3.476   5.882   1.891  1.3126 -1.9017 -1.2815
  730MOL0     H98522  -3.486   5.884   2.142  0.2679  0.7143 -1.8434
  730MOL0     H98523  -3.644   5.891   2.060 -0.7173 -0.0034 -1.7320
  730MOL0     H98524  -3.626   5.750   2.278  2.2818  0.5355  0.3098
  730MOL0     H98525  -3.536   5.637   2.186 -1.2905 -2.1005 -0.0231
  730MOL0     H98526  -3.760   5.678   2.018 -1.7440 -1.3693 -0.4917
  730MOL0     H98527  -3.751   5.548   2.135  1.2489  0.2024  0.9733
  730MOL0     H98528  -3.878   5.822   2.164  1.7284 -1.2212 -2.7664
  730MOL0     H98529  -3.866   5.722   2.305  0.7709 -0.7205  0.5329
  730MOL0     H98530  -3.984   5.538   2.175  1.7261  0.9178  0.4049
  730MOL0     H98531  -4.026   5.654   2.050  2.1288 -1.6040 -0.6656
  730MOL0     H98532  -3.034   5.932   2.025 -0.8503 -0.2214 -0.7064
  730MOL0     H98533  -2.804   5.971   2.082 -2.3932  0.2393 -0.0253
  730MOL0     H98534  -2.460   5.562   2.205  0.7738  0.0604 -1.8670
  730MOL0     H98535  -2.210   5.492   2.278 -1.0602 -0.7584  0.6567
  730MOL0     H98536  -0.118   5.888   1.907 -2.3572  0.7335 -0.5926
  730MOL0     H98537   0.125   5.890   1.908  0.6523 -0.1156 -0.5244
  730MOL0     H98538   0.489   6.106   1.939  0.4198 -0.3937  0.3902
  730MOL0     H98539   0.729   6.149   1.976 -1.3296  0.7501  1.0717
  730MOL0     H98540   0.938   6.274   1.966  0.4781 -0.1365 -0.3594
  730MOL0     H98541   0.928   6.106   2.000 -0.1582  0.1114  0.6447
  730MOL0     H98542   1.145   6.062   1.908 -0.1452 -0.7183  2.7136
  730MOL0     H98543   1.161   6.184   2.025 -0.8609  0.1672 -0.2095
  730MOL0     H98544   1.124   6.358   1.807  0.1438 -0.3111 -2.0928
  730MOL0     H98545   1.204   6.213   1.726  1.9116  0.1198 -0.2637
  730MOL0     H98546   1.314   6.346   1.973  1.5860 -1.9464 -0.0745
  730MOL0     H98547   1.347   6.403   1.811 -0.1064  0.2899  0.3507
  730MOL0     H98548   1.579   6.054   1.782 -2.3153 -2.2576  0.4304
  730MOL0     H98549   0.800   6.142   1.564  1.2678 -0.8625  0.9359
  730MOL0     H98550   0.562   6.133   1.514 -3.2626 -2.4838  0.6656
  731MOL0     O98551  10.057   1.080  11.285 -0.2331  0.9024  0.1106
  731MOL0     C98552  10.151   1.074  11.365  0.9422  0.2938 -0.1767
  731MOL0     O98553  10.171   1.169  11.459 -0.0043  0.3491  0.1480
  731MOL0     C98554  10.068   1.261  11.480  0.0946  0.6221 -0.6417
  731MOL0     C98555   9.995   1.248  11.602  0.5109 -0.3468 -0.1448
  731MOL0     C98556   9.907   1.352  11.650  0.0576 -0.1511 -0.2360
  731MOL0     C98557   9.876   1.460  11.566  0.6406  1.2112  0.7332
  731MOL0     O98558   9.789   1.572  11.597 -0.3496  0.3810 -0.2694
  731MOL0     C98559   9.732   1.550  11.729  0.9165 -0.1544 -0.4105
  731MOL0     C98560   9.618   1.660  11.757  0.1119  0.3400 -0.4650
  731MOL0     C98561   9.672   1.809  11.759  0.6218 -0.1540  0.4456
  731MOL0     C98562   9.564   1.910  11.800 -0.8584 -0.9851  1.4700
  731MOL0     C98563   9.638   2.049  11.785  0.1092  0.6752  0.9092
  731MOL0     C98564   9.731   2.083  11.899  0.4323  0.7384  0.8610
  731MOL0     C98565   9.761   2.230  11.902  0.6988 -0.2738 -0.2137
  731MOL0     C98566   9.851   2.271  12.023 -0.4453  0.4988 -0.5241
  731MOL0     N98567   9.780   2.232  12.145  0.0060 -0.9798  0.0381
  731MOL0     C98568   9.646   2.272  12.163 -0.1069 -0.0696  0.6709
  731MOL0     C98569   9.634   2.259  12.298  0.2655 -1.3049  0.1954
  731MOL0     C98570   9.505   2.291  12.373 -0.2972 -0.0276  0.3777
  731MOL0     C98571   9.496   2.429  12.433 -0.0058  0.4512  0.0001
  731MOL0     C98572   9.603   2.437  12.548  0.1724 -0.1657 -0.6090
  731MOL0     C98573   9.566   2.553  12.646 -0.1196 -0.5131 -1.0600
  731MOL0     O98574   9.526   2.665  12.566  0.6011  0.3220 -0.0959
  731MOL0     C98575   9.429   2.754  12.612  0.2685 -0.4214  1.6754
  731MOL0     C98576   9.358   2.835  12.519 -1.0553  0.6550  0.6335
  731MOL0     C98577   9.246   2.898  12.552 -0.2581  0.0521 -0.2065
  731MOL0     C98578   9.167   2.964  12.438 -0.7870 -0.0388  0.0848
  731MOL0     C98579   9.207   2.918  12.686  0.0141  0.4082 -0.8890
  731MOL0     C98580   9.086   2.992  12.738  0.7592 -0.7769  0.1124
  731MOL0     O98581   9.065   2.991  12.876  0.6895 -0.2347  0.0117
  731MOL0     C98582   8.957   3.054  12.926  1.3396 -0.2794  0.5442
  731MOL0     C98583   8.930   3.186  12.885 -0.4107 -0.4537 -0.2078
  731MOL0     C98584   8.820   3.257  12.936  0.8213  0.7626  0.5174
  731MOL0     C98585   8.747   3.197  13.038  0.0550 -0.1292  1.0570
  731MOL0     O98586   8.637   3.253  13.083 -0.4909 -1.1921 -0.2244
  731MOL0     C98587   8.633   3.400  13.100 -0.4203  0.5402  0.6197
  731MOL0     C98588   8.489   3.442  13.142  0.1277  0.3242  0.5147
  731MOL0     C98589   8.457   3.436  13.291 -0.3130  0.1595 -0.0021
  731MOL0     C98590   8.313   3.470  13.331  0.0927  0.1397  0.7065
  731MOL0     C98591   8.255   3.382  13.440  0.0746  0.4727 -0.2171
  731MOL0     C98592   8.122   3.435  13.482 -0.8219 -0.0283  0.0666
  731MOL0     C98593   8.064   3.345  13.589 -0.1877  0.4774  0.0760
  731MOL0     C98594   7.927   3.410  13.621  0.3439 -0.1230 -0.1329
  731MOL0    Cl98595   7.845   3.311  13.741 -0.0901 -0.2040  0.1157
  731MOL0     C98596   8.757   3.059  13.068  0.2582  0.3677  0.0459
  731MOL0     C98597   8.863   2.985  13.010  0.2244 -0.4681  0.6836
  731MOL0     O98598   9.012   3.049  12.658 -0.6878 -0.3291  0.1261
  731MOL0     C98599   9.283   2.844  12.777  0.5690 -0.7377  0.8082
  731MOL0     C98600   9.383   2.758  12.738  0.0492 -0.0348  0.5099
  731MOL0     N98601   9.749   2.221  12.359  0.6597  0.0157  0.4086
  731MOL0     N98602   9.839   2.200  12.269 -0.0111 -0.2166 -0.3676
  731MOL0     C98603   9.933   1.459  11.439 -0.4621  0.0314 -0.0414
  731MOL0     C98604  10.035   1.363  11.397  0.7592  0.4049  0.0471
  731MOL0     C98605  10.267   0.986  11.338  0.3589 -0.2243  0.0359
  731MOL0     C98606  10.277   0.924  11.212  0.5262 -0.4606  0.2830
  731MOL0     C98607  10.393   0.853  11.174 -0.6143  0.2729  0.3888
  731MOL0     C98608  10.501   0.851  11.265  0.1190  0.3122  0.3310
  731MOL0     O98609  10.600   0.769  11.219 -0.4998 -0.6776 -0.3361
  731MOL0     C98610  10.711   0.830  11.152 -0.2322  0.8240 -0.3341
  731MOL0     C98611  10.795   0.722  11.093  0.5441 -0.0238  0.8401
  731MOL0     C98612  10.720   0.635  10.991 -0.3600  0.4660 -0.1899
  731MOL0     C98613  10.810   0.576  10.886 -0.1999 -0.2787 -0.0785
  731MOL0     C98614  10.738   0.484  10.804  0.3928 -0.2968  0.9703
  731MOL0     C98615  10.678   0.406  10.727  0.1477  0.2234 -0.1342
  731MOL0     C98616  10.498   0.918  11.383  0.7914  0.0075 -0.1598
  731MOL0     C98617  10.376   0.983  11.425 -0.4080 -0.0068 -0.8711
  731MOL0     H98618  10.011   1.159  11.662 -0.8219 -1.2297 -1.0220
  731MOL0     H98619   9.865   1.332  11.749 -0.5864  0.0811 -0.4553
  731MOL0     H98620   9.681   1.454  11.712  1.6376 -0.1636 -3.0836
  731MOL0     H98621   9.803   1.541  11.811 -1.3157  0.6972  1.7131
  731MOL0     H98622   9.538   1.653  11.683  1.0256  0.0869 -1.4544
  731MOL0     H98623   9.572   1.642  11.855  1.0859  2.6337  0.4868
  731MOL0     H98624   9.766   1.825  11.813  0.2804  2.8613  0.3284
  731MOL0     H98625   9.712   1.829  11.659 -1.5009 -2.1583 -0.8892
  731MOL0     H98626   9.476   1.899  11.736  0.5458 -0.0775 -0.7284
  731MOL0     H98627   9.552   1.894  11.907  1.5246  0.7833  2.0813
  731MOL0     H98628   9.700   2.055  11.694  2.1999 -1.0511  2.1299
  731MOL0     H98629   9.567   2.132  11.772  4.2831  4.6015  0.3884
  731MOL0     H98630   9.685   2.050  11.993  0.1781  0.8148  0.7638
  731MOL0     H98631   9.825   2.028  11.901 -0.0887 -0.2086  0.1320
  731MOL0     H98632   9.817   2.252  11.810 -1.1550 -1.0187 -1.5822
  731MOL0     H98633   9.669   2.288  11.911  0.8481 -0.2039  1.0808
  731MOL0     H98634   9.866   2.379  12.015  0.0745  0.4027 -0.8934
  731MOL0     H98635   9.948   2.220  12.011 -1.1451 -1.5799  1.7994
  731MOL0     H98636   9.574   2.299  12.086  0.3339 -2.9678 -0.9100
  731MOL0     H98637   9.428   2.281  12.297 -1.5426 -0.5154  1.6680
  731MOL0     H98638   9.496   2.215  12.451  2.6044 -0.0766  0.7879
  731MOL0     H98639   9.398   2.449  12.478  1.0857 -0.0952  2.8024
  731MOL0     H98640   9.511   2.503  12.353  2.3634  0.8016  0.6961
  731MOL0     H98641   9.700   2.461  12.504 -0.3616 -1.2488 -2.5204
  731MOL0     H98642   9.602   2.350  12.614 -1.6923 -0.2249 -0.6479
  731MOL0     H98643   9.651   2.582  12.708 -0.9049 -1.6550  0.6255
  731MOL0     H98644   9.488   2.526  12.718  1.0026 -0.5557  0.1793
  731MOL0     H98645   9.397   2.836  12.418 -0.5640 -1.5565  0.7486
  731MOL0     H98646   9.064   2.928  12.437 -2.1180  3.1567  2.6754
  731MOL0     H98647   9.162   3.072  12.457 -1.1222  0.1317 -0.9206
  731MOL0     H98648   9.216   2.950  12.341 -2.1990 -1.6474 -0.4431
  731MOL0     H98649   9.010   3.233  12.829 -0.7247 -0.6956 -0.8666
  731MOL0     H98650   8.814   3.364  12.922  1.4028  1.1634  2.9497
  731MOL0     H98651   8.704   3.422  13.181 -0.1019 -2.1715  1.1922
  731MOL0     H98652   8.666   3.450  13.009  0.1963 -1.8364 -0.5608
  731MOL0     H98653   8.476   3.545  13.109  3.9151  0.4917 -0.9832
  731MOL0     H98654   8.420   3.381  13.083  0.3218  0.8675 -0.2851
  731MOL0     H98655   8.531   3.499  13.343  1.3149 -0.4384 -1.4808
  731MOL0     H98656   8.482   3.334  13.320  1.7153  0.7671  0.5640
  731MOL0     H98657   8.310   3.571  13.372  1.8680 -0.0568  1.4151
  731MOL0     H98658   8.245   3.461  13.246 -0.9971  0.4561  1.5243
  731MOL0     H98659   8.331   3.367  13.517 -0.2900  0.9324  0.2393
  731MOL0     H98660   8.243   3.284  13.395  0.0152  1.2158 -1.8788
  731MOL0     H98661   8.131   3.536  13.522  1.5732  0.2093 -0.9300
  731MOL0     H98662   8.047   3.448  13.402 -0.5927  1.3520  0.0490
  731MOL0     H98663   8.130   3.348  13.676 -0.7354  0.6704  0.4904
  731MOL0     H98664   8.046   3.242  13.557  0.1907 -0.1060  1.6416
  731MOL0     H98665   7.857   3.424  13.538 -0.8110  0.6548  0.9365
  731MOL0     H98666   7.945   3.512  13.658 -0.8425  0.4302 -0.9974
  731MOL0     H98667   8.679   3.010  13.126  0.0165 -1.6554 -1.8541
  731MOL0     H98668   8.877   2.877  13.019 -1.2198 -0.9828 -2.0954
  731MOL0     H98669   9.264   2.843  12.884 -0.0811 -1.1489  0.6965
  731MOL0     H98670   9.434   2.697  12.811  1.2092 -0.8425 -0.9361
  731MOL0     H98671   9.892   1.538  11.378 -0.1739 -0.2371 -0.5881
  731MOL0     H98672  10.080   1.359  11.298  0.6499  1.7087 -0.0672
  731MOL0     H98673  10.200   0.942  11.137  0.6287  4.2397  1.0045
  731MOL0     H98674  10.400   0.823  11.070  2.4168 -0.3723  0.6987
  731MOL0     H98675  10.679   0.911  11.085 -1.1546  1.6481  1.0389
  731MOL0     H98676  10.777   0.872  11.228  1.7758 -3.8037  0.8299
  731MOL0     H98677  10.845   0.656  11.165  2.7992 -0.8639 -1.3435
  731MOL0     H98678  10.876   0.773  11.040 -0.3631  2.5401  1.7921
  731MOL0     H98679  10.639   0.696  10.950 -2.1716 -0.4203  1.8754
  731MOL0     H98680  10.659   0.561  11.044 -2.4403  3.3385  1.7243
  731MOL0     H98681  10.887   0.523  10.943  0.5835  1.7051  0.7977
  731MOL0     H98682  10.863   0.650  10.825 -1.0857  1.2694  0.9608
  731MOL0     H98683  10.626   0.337  10.663  0.2891 -1.4219  1.4295
  731MOL0     H98684  10.579   0.914  11.455  0.9228  2.4045 -0.0835
  731MOL0     H98685  10.365   1.036  11.520  0.8486  2.7639 -2.1598
  732MOL0     O98686   1.276   3.308  10.075  0.3365  0.2972  0.3796
  732MOL0     C98687   1.313   3.198  10.107 -0.3033  0.8598  0.2870
  732MOL0     O98688   1.237   3.092  10.154  0.6372 -0.1857  1.0234
  732MOL0     C98689   1.097   3.108  10.144 -0.4946  0.5457 -0.3076
  732MOL0     C98690   1.025   3.160  10.035 -0.1079 -0.1078  0.8415
  732MOL0     C98691   0.885   3.178  10.038 -0.0938 -0.0047  0.1932
  732MOL0     C98692   0.812   3.128  10.146  0.0268 -0.0891 -0.9572
  732MOL0     O98693   0.672   3.121  10.160 -0.1765  0.4325 -0.5428
  732MOL0     C98694   0.597   3.217  10.081 -0.1290  0.3057  0.1449
  732MOL0     C98695   0.451   3.213  10.131 -0.0060  0.4157  0.0513
  732MOL0     C98696   0.396   3.069  10.117  0.2568 -0.2024  0.3566
  732MOL0     C98697   0.271   3.042  10.199 -0.2315 -0.0783 -0.1660
  732MOL0     C98698   0.150   3.132  10.165 -0.2452 -0.0398 -0.2098
  732MOL0     C98699   0.029   3.121  10.270  0.0339  0.3207 -0.7523
  732MOL0     C98700   0.050   3.219  10.385  0.3091 -0.1027  0.0655
  732MOL0     C98701  -0.082   3.241  10.461 -0.6567  0.0317 -0.0334
  732MOL0     N98702  -0.165   3.352  10.406  0.0841 -0.1850 -0.9428
  732MOL0     C98703  -0.133   3.484  10.419  0.2682 -0.5867  0.7603
  732MOL0     C98704  -0.245   3.553  10.380  0.0707  0.7414 -0.6025
  732MOL0     C98705  -0.266   3.693  10.353 -0.4130 -0.0483  0.0067
  732MOL0     C98706  -0.269   3.733  10.200 -1.1846  0.4847 -0.0490
  732MOL0     C98707  -0.410   3.778  10.168  0.4972  0.7033 -0.1742
  732MOL0     C98708  -0.431   3.763  10.018  0.5791  0.0451  0.4879
  732MOL0     O98709  -0.523   3.865   9.964  0.3582  1.2489 -0.4417
  732MOL0     C98710  -0.663   3.853   9.988  0.3224 -0.3568  1.1931
  732MOL0     C98711  -0.737   3.971  10.011 -0.4478  0.3592 -0.9102
  732MOL0     C98712  -0.873   3.968  10.035 -0.7605  0.6471 -0.6830
  732MOL0     C98713  -0.936   4.101  10.075 -0.4956 -0.1934 -0.4543
  732MOL0     C98714  -0.935   3.842  10.034  0.0877  0.0550 -0.3421
  732MOL0     C98715  -1.086   3.822  10.048  0.3739 -0.1590  0.4980
  732MOL0     O98716  -1.131   3.699  10.086  0.1454 -0.2790  0.6305
  732MOL0     C98717  -1.267   3.694  10.078 -0.0362 -0.2047 -0.5402
  732MOL0     C98718  -1.326   3.646   9.957  1.2330 -0.3344 -0.0959
  732MOL0     C98719  -1.473   3.638   9.950 -0.6041 -0.3130 -0.2933
  732MOL0     C98720  -1.542   3.662  10.072  0.5093  0.0381  0.0486
  732MOL0     O98721  -1.681   3.664  10.078  0.3542  0.0958  0.0647
  732MOL0     C98722  -1.746   3.556  10.150 -0.7925  0.5066  0.6569
  732MOL0     C98723  -1.890   3.547  10.102  0.0926 -0.0206  0.6098
  732MOL0     C98724  -1.990   3.640  10.174 -0.1337  1.0723  0.0414
  732MOL0     C98725  -2.115   3.669  10.081  1.2164  0.5776 -0.0475
  732MOL0     C98726  -2.241   3.713  10.172  0.5310 -0.6773  0.8185
  732MOL0     C98727  -2.354   3.752  10.076  0.3602  0.9011 -0.3548
  732MOL0     C98728  -2.481   3.786  10.157  0.6486  0.3056 -0.2679
  732MOL0     C98729  -2.591   3.866  10.082  0.1008 -0.5037  0.0113
  732MOL0    Cl98730  -2.653   3.788   9.931  0.2829  0.3548 -0.1617
  732MOL0     C98731  -1.476   3.699  10.188 -0.0673 -0.7400  0.7140
  732MOL0     C98732  -1.336   3.703  10.194 -0.3916  0.4376  0.0033
  732MOL0     O98733  -1.157   3.917  10.018  0.2412 -0.7729  0.1731
  732MOL0     C98734  -0.861   3.728  10.012  0.2306  0.1174  0.5961
  732MOL0     C98735  -0.723   3.726   9.992  0.3093 -0.5510  0.4915
  732MOL0     N98736  -0.346   3.456  10.354 -0.4639  0.7979  0.0841
  732MOL0     N98737  -0.295   3.336  10.373 -0.6417 -0.3757  0.5450
  732MOL0     C98738   0.889   3.075  10.253 -0.5732  0.6215  0.3706
  732MOL0     C98739   1.029   3.063  10.254  0.5475  0.8704 -0.3662
  732MOL0     C98740   1.460   3.185  10.102  0.5208  0.1188 -0.2491
  732MOL0     C98741   1.551   3.287  10.136  0.3531 -0.8859  1.4286
  732MOL0     C98742   1.686   3.270  10.138  0.2280 -0.1188  0.3345
  732MOL0     C98743   1.739   3.146  10.109  0.2050 -0.5760 -0.1251
  732MOL0     O98744   1.878   3.131  10.118 -0.7864 -0.3459 -0.1416
  732MOL0     C98745   1.948   3.121   9.993 -0.4174  0.4144  0.2867
  732MOL0     C98746   1.985   3.260   9.942  0.6991  0.1061  0.0723
  732MOL0     C98747   2.069   3.261   9.816 -0.0046 -0.3165  0.7489
  732MOL0     C98748   2.120   3.404   9.780 -0.4584 -0.2854 -0.4445
  732MOL0     C98749   2.260   3.412   9.813 -0.2664 -0.0153 -0.7746
  732MOL0     C98750   2.375   3.435   9.846  0.1819  0.5171  0.3181
  732MOL0     C98751   1.658   3.041  10.080 -0.0813  0.3310 -0.9982
  732MOL0     C98752   1.517   3.055  10.073 -0.1033  0.6033 -0.2556
  732MOL0     H98753   1.074   3.187   9.942  1.3219  2.0109  2.1244
  732MOL0     H98754   0.835   3.212   9.948  1.0591  1.7664  0.1892
  732MOL0     H98755   0.625   3.323  10.075  2.3982 -0.3661 -0.9286
  732MOL0     H98756   0.592   3.181   9.978 -1.8861  0.7478  0.0414
  732MOL0     H98757   0.449   3.235  10.238 -0.0482 -3.3175  0.9594
  732MOL0     H98758   0.390   3.288  10.081  1.4114  1.8667  0.4364
  732MOL0     H98759   0.373   3.058  10.011  1.1810  1.9516 -0.1253
  732MOL0     H98760   0.474   2.998  10.143  2.2700  2.0124  0.7462
  732MOL0     H98761   0.243   2.938  10.182  0.1179 -0.4364  1.2996
  732MOL0     H98762   0.289   3.032  10.307  0.1670 -0.8775 -0.3054
  732MOL0     H98763   0.187   3.233  10.147 -0.1308 -0.2474 -1.2173
  732MOL0     H98764   0.108   3.094  10.071  0.7459 -0.1443 -0.6306
  732MOL0     H98765  -0.070   3.143  10.229 -1.5907  2.3787  3.6168
  732MOL0     H98766   0.019   3.019  10.309  1.1269 -0.2974 -2.0130
  732MOL0     H98767   0.127   3.188  10.457  2.1538  0.8591 -1.4069
  732MOL0     H98768   0.081   3.310  10.334 -0.8960  0.4038  0.1912
  732MOL0     H98769  -0.065   3.267  10.566  0.0194  1.5753 -0.4926
  732MOL0     H98770  -0.140   3.149  10.465  0.8942 -0.9733  0.2111
  732MOL0     H98771  -0.029   3.513  10.432  0.5653 -0.9326 -0.5789
  732MOL0     H98772  -0.364   3.719  10.394 -0.1492 -0.8774  1.2219
  732MOL0     H98773  -0.185   3.746  10.405 -0.8759  0.7521 -0.0645
  732MOL0     H98774  -0.231   3.655  10.133 -3.1006  2.1035 -3.2949
  732MOL0     H98775  -0.202   3.819  10.188 -1.2632  0.2415 -2.8138
  732MOL0     H98776  -0.421   3.883  10.199  0.5541  0.9433 -0.9467
  732MOL0     H98777  -0.490   3.719  10.213  1.3167 -1.7991 -1.8220
  732MOL0     H98778  -0.451   3.661   9.985  2.0053 -0.2331  0.4425
  732MOL0     H98779  -0.337   3.783   9.965  0.3586 -0.3038 -0.0423
  732MOL0     H98780  -0.684   4.066  10.015 -1.1979  0.7632 -0.3807
  732MOL0     H98781  -0.998   4.099  10.165  0.9242  1.3620  0.6035
  732MOL0     H98782  -0.871   4.188  10.086 -1.0401  0.2787 -0.9019
  732MOL0     H98783  -1.002   4.120   9.990 -0.7510 -0.3378 -0.2899
  732MOL0     H98784  -1.277   3.625   9.862 -1.5638 -1.1866 -1.4577
  732MOL0     H98785  -1.531   3.613   9.862 -0.6023 -1.6304  0.0641
  732MOL0     H98786  -1.691   3.464  10.127 -2.0102 -0.1263  0.2044
  732MOL0     H98787  -1.750   3.565  10.259  0.1177 -1.3243  0.8964
  732MOL0     H98788  -1.899   3.572   9.996 -3.5317  2.2461  1.2979
  732MOL0     H98789  -1.923   3.444  10.117  1.0420 -0.8984 -2.4998
  732MOL0     H98790  -1.934   3.729  10.204  6.3841 -1.0156 -3.7862
  732MOL0     H98791  -2.016   3.592  10.268  0.3551 -2.1674 -1.3505
  732MOL0     H98792  -2.087   3.755  10.020  1.9723  0.0195 -0.5065
  732MOL0     H98793  -2.145   3.585  10.019 -0.6412  1.3688 -0.2736
  732MOL0     H98794  -2.210   3.804  10.224  1.4889 -0.5343  0.0188
  732MOL0     H98795  -2.272   3.627  10.233  0.5687 -2.1887 -1.1778
  732MOL0     H98796  -2.327   3.836  10.012 -1.2454  2.2504  0.6490
  732MOL0     H98797  -2.375   3.673  10.003 -0.5497 -2.2772  3.0314
  732MOL0     H98798  -2.454   3.845  10.244  0.1509 -1.8996  1.4695
  732MOL0     H98799  -2.515   3.694  10.205  1.5073 -0.9143 -1.8836
  732MOL0     H98800  -2.552   3.964  10.052 -1.6023 -0.0601 -0.8924
  732MOL0     H98801  -2.671   3.881  10.155 -0.6977  2.9000 -1.3347
  732MOL0     H98802  -1.518   3.709  10.288 -0.3129  1.4472  0.4349
  732MOL0     H98803  -1.288   3.732  10.288 -0.4204 -0.3411  0.2643
  732MOL0     H98804  -0.908   3.635   9.983  0.1924  0.4411 -0.4453
  732MOL0     H98805  -0.658   3.644   9.962 -0.9300 -1.7350  0.9397
  732MOL0     H98806   0.835   3.048  10.343 -3.7358  2.4899 -0.7978
  732MOL0     H98807   1.080   3.002  10.328  0.5207  0.1651 -0.9165
  732MOL0     H98808   1.501   3.382  10.156  0.4947 -0.6469  0.6862
  732MOL0     H98809   1.754   3.349  10.170 -0.8200  0.8671  0.1665
  732MOL0     H98810   2.045   3.075  10.015 -0.8512  0.5607  2.7579
  732MOL0     H98811   1.897   3.057   9.920  1.5075 -0.2237 -0.5691
  732MOL0     H98812   2.040   3.317  10.017  0.3244 -0.2091  0.5979
  732MOL0     H98813   1.893   3.318   9.928  0.1305 -1.0585 -1.2543
  732MOL0     H98814   2.015   3.224   9.729 -0.6915  0.2914  0.9052
  732MOL0     H98815   2.153   3.192   9.819  0.3515  0.1117  0.6402
  732MOL0     H98816   2.063   3.479   9.834  1.6503  0.7376  0.4649
  732MOL0     H98817   2.125   3.419   9.671  3.1342 -1.7785 -0.6176
  732MOL0     H98818   2.472   3.444   9.891 -1.3339  1.5489  3.6525
  732MOL0     H98819   1.702   2.944  10.061 -2.0125 -0.6555 -0.6787
  732MOL0     H98820   1.462   2.964  10.053 -0.0284  0.2998  0.8459
  733MOL0     O98821   8.512   5.475   3.002  0.1733  0.5754 -0.0448
  733MOL0     C98822   8.576   5.476   3.110  1.3364  0.1979 -0.3251
  733MOL0     O98823   8.517   5.502   3.228 -0.8929  0.4850 -0.2867
  733MOL0     C98824   8.391   5.546   3.225  0.0286 -0.9657 -0.0168
  733MOL0     C98825   8.345   5.654   3.143 -0.0147 -0.8904 -0.7259
  733MOL0     C98826   8.208   5.693   3.156 -0.7761 -0.1827  1.0447
  733MOL0     C98827   8.123   5.637   3.254 -0.4603 -0.2695 -0.2197
  733MOL0     O98828   7.993   5.675   3.278  0.0416  0.1926 -0.4269
  733MOL0     C98829   7.944   5.806   3.242 -0.4829  1.3119 -0.1767
  733MOL0     C98830   8.006   5.936   3.298  0.5533 -0.3793 -0.7643
  733MOL0     C98831   7.931   6.065   3.250 -1.1155 -0.0299  0.4453
  733MOL0     C98832   7.923   6.173   3.361 -0.1454  0.5049 -1.1902
  733MOL0     C98833   7.848   6.305   3.319  0.6495  0.0654 -0.0640
  733MOL0     C98834   7.929   6.379   3.218 -0.0236  0.2377 -0.6045
  733MOL0     C98835   7.885   6.522   3.190 -0.1403 -0.7160  0.2653
  733MOL0     C98836   7.801   6.530   3.070 -0.1885  0.8778  0.8881
  733MOL0     N98837   7.744   6.664   3.033 -0.5555 -0.0262 -0.1197
  733MOL0     C98838   7.806   6.786   3.053 -0.5283  0.3922  0.6073
  733MOL0     C98839   7.718   6.874   2.990 -0.9435 -0.4187 -0.2507
  733MOL0     C98840   7.728   7.019   2.965 -0.3074  0.1353  0.1044
  733MOL0     C98841   7.733   7.062   2.822  0.0982 -0.8920  0.6708
  733MOL0     C98842   7.867   7.118   2.776  0.1500 -0.5258  0.4755
  733MOL0     C98843   7.887   7.266   2.806  0.0155  0.0044  0.1169
  733MOL0     O98844   7.989   7.325   2.720  0.2437 -0.4354  0.4426
  733MOL0     C98845   7.982   7.363   2.591  0.4812 -0.3716  0.5570
  733MOL0     C98846   8.091   7.418   2.528  0.5377  0.7184 -0.0034
  733MOL0     C98847   8.083   7.478   2.398 -0.1926 -0.0980  0.3893
  733MOL0     C98848   8.211   7.549   2.347  0.6960 -0.2272 -0.1210
  733MOL0     C98849   7.972   7.449   2.314 -0.2391  0.0649 -0.1335
  733MOL0     C98850   7.945   7.502   2.180 -0.4865 -0.0841  0.6348
  733MOL0     O98851   7.812   7.495   2.135 -0.5214 -0.2235 -0.2974
  733MOL0     C98852   7.768   7.561   2.024  0.8781  0.7689  0.1141
  733MOL0     C98853   7.628   7.573   2.015  0.1791  0.0179  0.3389
  733MOL0     C98854   7.571   7.641   1.911  0.4242  0.3635 -0.5603
  733MOL0     C98855   7.644   7.701   1.805 -0.9078 -0.0636 -1.1119
  733MOL0     O98856   7.592   7.784   1.707 -0.1507  0.4790  0.1896
  733MOL0     C98857   7.450   7.781   1.697 -0.1789  0.3158  0.0546
  733MOL0     C98858   7.412   7.832   1.558 -0.9625  0.1596 -0.4148
  733MOL0     C98859   7.271   7.793   1.518  0.4635 -0.0503 -0.8476
  733MOL0     C98860   7.161   7.871   1.587 -1.0431 -0.8678 -0.0492
  733MOL0     C98861   7.034   7.837   1.513 -0.3912 -0.2272  0.3507
  733MOL0     C98862   6.910   7.914   1.566  0.5294 -0.0931 -0.0696
  733MOL0     C98863   6.852   7.847   1.700 -0.2118  0.0271 -0.2605
  733MOL0     C98864   6.759   7.957   1.764  0.4378 -0.0727  0.6542
  733MOL0    Cl98865   6.702   7.911   1.933 -0.1678  0.3263 -0.1302
  733MOL0     C98866   7.782   7.674   1.809  1.2002 -0.4706 -0.5294
  733MOL0     C98867   7.844   7.607   1.914 -0.4156 -0.6770 -0.8143
  733MOL0     O98868   8.036   7.554   2.117 -0.3732 -0.4024  0.7282
  733MOL0     C98869   7.872   7.369   2.371  0.8676 -1.2988 -0.2124
  733MOL0     C98870   7.868   7.337   2.511 -0.2263  0.0920  0.5040
  733MOL0     N98871   7.600   6.819   2.956  0.7144 -0.1178 -0.5573
  733MOL0     N98872   7.612   6.689   2.985 -0.4371  0.4170 -0.1283
  733MOL0     C98873   8.167   5.529   3.327 -0.3669  0.3758 -0.8420
  733MOL0     C98874   8.299   5.487   3.314 -0.5268 -0.3382 -0.6046
  733MOL0     C98875   8.710   5.424   3.113 -0.5963 -0.0693  0.6956
  733MOL0     C98876   8.773   5.389   2.989 -0.6614 -0.0300  0.7584
  733MOL0     C98877   8.908   5.359   2.986  0.0018 -0.3973 -0.5373
  733MOL0     C98878   8.983   5.352   3.110 -0.0181 -0.1057  0.4690
  733MOL0     O98879   9.119   5.330   3.100 -0.0600 -0.0856 -0.3326
  733MOL0     C98880   9.207   5.384   3.195  1.0443  0.5650 -0.0967
  733MOL0     C98881   9.348   5.367   3.166 -0.6658 -0.0564  0.4305
  733MOL0     C98882   9.394   5.448   3.042 -1.3117 -0.1945 -0.0787
  733MOL0     C98883   9.499   5.378   2.952  0.0958  0.1539 -0.3209
  733MOL0     C98884   9.638   5.386   2.996 -0.2820 -0.2729 -0.7205
  733MOL0     C98885   9.747   5.367   3.047  0.4964  0.4370  0.5888
  733MOL0     C98886   8.916   5.382   3.233 -0.1119 -0.6089  0.3095
  733MOL0     C98887   8.782   5.421   3.234 -0.7131 -0.3080 -0.4362
  733MOL0     H98888   8.404   5.684   3.057  2.4120 -0.9851  0.8162
  733MOL0     H98889   8.186   5.773   3.086  1.3503  0.5391  1.1059
  733MOL0     H98890   7.948   5.820   3.133 -1.6797 -1.1777 -0.6036
  733MOL0     H98891   7.838   5.802   3.269 -0.3427 -1.5108  0.2498
  733MOL0     H98892   7.999   5.941   3.407  0.4351 -2.2647 -0.6553
  733MOL0     H98893   8.109   5.955   3.268  1.1608 -1.3394  0.6236
  733MOL0     H98894   7.996   6.103   3.171 -0.0086 -1.2083  0.7520
  733MOL0     H98895   7.833   6.041   3.207 -0.7757 -1.9877  0.7062
  733MOL0     H98896   7.874   6.131   3.449  1.3011  0.0794 -0.5502
  733MOL0     H98897   8.022   6.197   3.401  0.1055 -5.3291  2.9524
  733MOL0     H98898   7.751   6.278   3.277 -0.3269  2.5834  0.4302
  733MOL0     H98899   7.834   6.360   3.413  2.4079 -0.5950  0.6385
  733MOL0     H98900   8.032   6.373   3.257 -0.1479  0.4522 -0.2435
  733MOL0     H98901   7.930   6.329   3.120  0.7409 -1.5195  0.2540
  733MOL0     H98902   7.820   6.548   3.274  0.1241  1.3861 -0.1177
  733MOL0     H98903   7.971   6.588   3.203 -1.0652  0.2259  1.9137
  733MOL0     H98904   7.722   6.457   3.086  2.1385 -1.7433  1.1766
  733MOL0     H98905   7.852   6.492   2.981  1.0359  0.7461  1.6343
  733MOL0     H98906   7.905   6.806   3.092  0.1620 -0.1696 -0.8121
  733MOL0     H98907   7.634   7.062   3.002  0.0021 -0.0488  1.1329
  733MOL0     H98908   7.814   7.058   3.019  0.4632  0.8777 -1.5804
  733MOL0     H98909   7.662   7.143   2.801  4.3431  2.1866 -4.2246
  733MOL0     H98910   7.703   6.979   2.757  0.4243 -0.2546 -0.3195
  733MOL0     H98911   7.870   7.107   2.668 -3.6517 -2.6361  0.4136
  733MOL0     H98912   7.944   7.066   2.834  0.1011  1.7986  2.8320
  733MOL0     H98913   7.920   7.263   2.911  0.3225 -0.8844  0.0047
  733MOL0     H98914   7.791   7.317   2.796  0.1839  0.4264  0.5804
  733MOL0     H98915   8.191   7.420   2.570 -0.7557  1.9935  3.4767
  733MOL0     H98916   8.194   7.654   2.320  2.7118 -0.2306 -1.5839
  733MOL0     H98917   8.282   7.549   2.430  0.7979 -2.0538 -0.1715
  733MOL0     H98918   8.245   7.499   2.256 -2.3977  0.0881 -1.5933
  733MOL0     H98919   7.574   7.534   2.101  0.1110  0.2429  0.3990
  733MOL0     H98920   7.463   7.649   1.915  0.5456  2.0976  0.6407
  733MOL0     H98921   7.422   7.675   1.698  3.3305 -1.0381 -4.9921
  733MOL0     H98922   7.403   7.843   1.773 -0.8290  2.1138 -1.7368
  733MOL0     H98923   7.427   7.941   1.563  1.2605 -0.1597  2.6546
  733MOL0     H98924   7.470   7.798   1.472 -0.9886  1.8835 -1.1705
  733MOL0     H98925   7.257   7.686   1.536 -2.9303  0.7850  2.7424
  733MOL0     H98926   7.266   7.813   1.411 -0.0826 -0.6276 -0.9383
  733MOL0     H98927   7.151   7.833   1.689  3.1237 -2.8670 -0.1730
  733MOL0     H98928   7.187   7.976   1.577 -0.7345 -1.1923 -5.0255
  733MOL0     H98929   6.999   7.733   1.514 -3.2228  0.6470  0.4623
  733MOL0     H98930   7.045   7.862   1.407 -0.5089  0.0926  0.4138
  733MOL0     H98931   6.938   8.018   1.580  2.3279 -0.5592  0.0222
  733MOL0     H98932   6.828   7.915   1.493 -0.4752 -1.6318  0.9799
  733MOL0     H98933   6.931   7.824   1.771  0.9115  0.6179 -1.2813
  733MOL0     H98934   6.797   7.756   1.676  1.3578 -1.1786  0.5385
  733MOL0     H98935   6.674   7.962   1.696  1.2040  0.6184 -0.2671
  733MOL0     H98936   6.821   8.047   1.761 -0.5715  0.6778  1.5929
  733MOL0     H98937   7.849   7.707   1.730  0.5417  1.1066 -0.4673
  733MOL0     H98938   7.952   7.602   1.907 -0.5481 -1.4246 -3.7803
  733MOL0     H98939   7.780   7.345   2.318  1.1279 -0.9493 -0.8359
  733MOL0     H98940   7.775   7.286   2.529 -0.7918  0.5741 -0.8785
  733MOL0     H98941   8.099   5.461   3.377  1.7124 -1.2554 -0.0240
  733MOL0     H98942   8.334   5.400   3.369  1.4604  0.3321 -0.7265
  733MOL0     H98943   8.716   5.388   2.897  0.0303 -0.7122  0.3214
  733MOL0     H98944   8.958   5.348   2.891  1.0150 -0.6342  0.0122
  733MOL0     H98945   9.173   5.486   3.211  0.1104  0.1590  0.5856
  733MOL0     H98946   9.193   5.337   3.293 -0.5664 -0.0922 -0.6118
  733MOL0     H98947   9.366   5.260   3.155  2.5625  0.2686  1.4822
  733MOL0     H98948   9.415   5.378   3.252  1.1159  1.3086 -1.0471
  733MOL0     H98949   9.441   5.543   3.070 -1.8420  0.0928 -0.1642
  733MOL0     H98950   9.308   5.468   2.978 -0.6566 -2.1026 -1.6681
  733MOL0     H98951   9.485   5.426   2.855 -5.7347 -2.0794 -1.0127
  733MOL0     H98952   9.470   5.274   2.934  0.5399  0.1348 -0.9447
  733MOL0     H98953   9.844   5.348   3.088  1.8793  0.0094 -2.5849
  733MOL0     H98954   8.977   5.392   3.322  1.3292 -1.1734 -0.5688
  733MOL0     H98955   8.742   5.460   3.327  3.1812 -2.8377  2.6426
  734MOL0     O98956   3.158   2.327   3.367 -0.0938 -0.1382 -0.5011
  734MOL0     C98957   3.168   2.208   3.390 -0.5516  0.5846  0.3157
  734MOL0     O98958   3.067   2.132   3.425  0.4244 -0.8545  0.0840
  734MOL0     C98959   2.934   2.176   3.433 -0.3034  0.2337 -0.4151
  734MOL0     C98960   2.877   2.274   3.362 -0.4644  0.5565 -0.7174
  734MOL0     C98961   2.745   2.309   3.384  0.5130  0.0523 -0.3497
  734MOL0     C98962   2.662   2.221   3.458  0.2540  0.2541 -0.9086
  734MOL0     O98963   2.531   2.233   3.444 -0.1103  0.0134  0.0006
  734MOL0     C98964   2.480   2.318   3.546 -0.2072  0.6230 -0.4026
  734MOL0     C98965   2.327   2.339   3.521  0.8494 -0.8307  0.2963
  734MOL0     C98966   2.261   2.431   3.630  0.0099 -0.4221 -0.5792
  734MOL0     C98967   2.122   2.462   3.592  0.0975  0.8000  0.0973
  734MOL0     C98968   2.047   2.558   3.684 -0.4143  1.0088 -0.7830
  734MOL0     C98969   1.909   2.608   3.635 -0.0501 -0.1921  0.2774
  734MOL0     C98970   1.835   2.690   3.738 -0.5574 -0.6555 -0.2488
  734MOL0     C98971   1.910   2.822   3.764 -0.3012  0.2852 -0.5398
  734MOL0     N98972   1.818   2.924   3.809  0.4327 -0.9691 -0.7223
  734MOL0     C98973   1.710   2.913   3.899  1.1677 -0.8601  0.2530
  734MOL0     C98974   1.657   3.037   3.901 -0.3976  1.4058 -0.9308
  734MOL0     C98975   1.552   3.082   4.005  0.2726 -0.8993 -0.0102
  734MOL0     C98976   1.416   3.069   3.942  0.3063  0.0517  0.0074
  734MOL0     C98977   1.387   3.147   3.812  0.0533 -0.4849 -0.1054
  734MOL0     C98978   1.236   3.163   3.790  0.4370 -0.2078  0.8542
  734MOL0     O98979   1.213   3.239   3.677 -0.4994  0.2938  0.3764
  734MOL0     C98980   1.097   3.220   3.615  0.7150  0.2884  0.8266
  734MOL0     C98981   0.972   3.213   3.672  0.4080 -0.6019 -0.0836
  734MOL0     C98982   0.855   3.172   3.605 -0.2964 -0.2161  0.1399
  734MOL0     C98983   0.723   3.174   3.677 -0.0902 -0.0845  0.2540
  734MOL0     C98984   0.876   3.125   3.472  0.5924  0.5767 -0.2240
  734MOL0     C98985   0.763   3.075   3.379  0.5591  0.1642  0.0893
  734MOL0     O98986   0.635   3.120   3.399 -0.0625 -0.3451 -0.2058
  734MOL0     C98987   0.517   3.056   3.352  0.7458 -0.7789  0.3365
  734MOL0     C98988   0.397   3.110   3.405 -0.3680  1.1481  0.0333
  734MOL0     C98989   0.281   3.048   3.393 -0.2806 -0.2331 -0.0284
  734MOL0     C98990   0.264   2.932   3.337 -0.0063 -0.0870 -0.7482
  734MOL0     O98991   0.151   2.859   3.336 -0.0989  0.4998 -0.4064
  734MOL0     C98992   0.041   2.929   3.278  0.2986 -0.3985  0.5295
  734MOL0     C98993  -0.026   2.843   3.169  0.1507 -0.5544  0.3699
  734MOL0     C98994  -0.150   2.898   3.092  0.2959 -0.3873 -1.0537
  734MOL0     C98995  -0.209   2.792   3.003 -0.1454  0.3569  0.2409
  734MOL0     C98996  -0.321   2.857   2.911 -0.1380  0.2774 -1.3147
  734MOL0     C98997  -0.378   2.754   2.813 -0.1838  0.1984  0.3003
  734MOL0     C98998  -0.420   2.617   2.871 -0.6019 -0.3358 -0.3062
  734MOL0     C98999  -0.515   2.627   2.991 -0.3143 -0.0764 -0.1880
  734MOL0    Cl99000  -0.606   2.475   3.001  0.0531 -0.0484 -0.0754
  734MOL0     C99001   0.374   2.879   3.279 -0.5678 -0.0561 -0.1400
  734MOL0     C99002   0.504   2.936   3.277 -0.9367 -0.3648  0.2633
  734MOL0     O99003   0.792   2.989   3.298 -0.0715  0.1350  0.2091
  734MOL0     C99004   1.002   3.138   3.416 -0.4630 -1.2194 -0.1328
  734MOL0     C99005   1.109   3.196   3.480  0.8750 -0.1221  0.2403
  734MOL0     N99006   1.726   3.128   3.822 -0.2875  0.0800 -0.3322
  734MOL0     N99007   1.822   3.060   3.774 -0.9460 -0.3914  0.5660
  734MOL0     C99008   2.719   2.113   3.520  0.2235 -0.3628 -0.8390
  734MOL0     C99009   2.859   2.099   3.521  0.2458  0.2887 -1.4238
  734MOL0     C99010   3.294   2.148   3.367  0.2062  0.1497  0.2747
  734MOL0     C99011   3.411   2.223   3.360  0.3190 -1.2951 -0.0940
  734MOL0     C99012   3.527   2.161   3.342 -0.5084  0.0849  0.0401
  734MOL0     C99013   3.541   2.023   3.341  0.0991 -0.3019  0.3427
  734MOL0     O99014   3.664   1.970   3.314  0.3105  0.3346  0.4152
  734MOL0     C99015   3.694   1.850   3.384  0.3526 -0.2366  0.3494
  734MOL0     C99016   3.849   1.854   3.402  0.3819  0.1543 -0.1032
  734MOL0     C99017   3.911   1.720   3.450  0.4139  0.8240  0.5811
  734MOL0     C99018   4.064   1.720   3.444 -0.1101  0.1207 -0.1278
  734MOL0     C99019   4.114   1.679   3.311 -0.8609  0.0068  0.3396
  734MOL0     C99020   4.162   1.646   3.204 -0.0333  0.9181  0.4913
  734MOL0     C99021   3.425   1.941   3.345 -0.3316 -0.0642 -0.5706
  734MOL0     C99022   3.295   2.007   3.338  0.1174 -0.0854 -0.4073
  734MOL0     H99023   2.925   2.334   3.285 -0.9862  1.4454 -0.3632
  734MOL0     H99024   2.712   2.401   3.339  0.4684  0.8927  1.3185
  734MOL0     H99025   2.496   2.266   3.641 -1.9757 -0.1844 -0.5034
  734MOL0     H99026   2.526   2.417   3.545 -0.1188  0.5853 -1.4214
  734MOL0     H99027   2.315   2.397   3.429 -0.8458  1.1731  1.6721
  734MOL0     H99028   2.279   2.241   3.512 -1.1276  0.0931  0.1622
  734MOL0     H99029   2.268   2.379   3.726 -0.8602 -2.5505 -1.6057
  734MOL0     H99030   2.319   2.523   3.641  0.4868 -0.8765  0.9554
  734MOL0     H99031   2.124   2.503   3.490  3.3605  1.0376  0.1541
  734MOL0     H99032   2.064   2.370   3.584  2.2917 -0.5045 -2.4579
  734MOL0     H99033   2.049   2.532   3.790 -0.0735 -0.6059 -1.1506
  734MOL0     H99034   2.106   2.650   3.679  0.4341  0.4226 -2.7454
  734MOL0     H99035   1.910   2.672   3.546  2.8270 -0.7242 -0.1744
  734MOL0     H99036   1.852   2.519   3.607  1.4361 -0.5262 -1.9930
  734MOL0     H99037   1.731   2.712   3.714 -0.4250  0.6502  0.3326
  734MOL0     H99038   1.836   2.618   3.820  1.6983 -0.5737 -0.1283
  734MOL0     H99039   1.955   2.846   3.667  1.2765 -3.1616 -0.8160
  734MOL0     H99040   1.989   2.802   3.838 -0.7839 -0.8697 -0.3050
  734MOL0     H99041   1.681   2.823   3.953  1.9413 -1.3922 -0.1795
  734MOL0     H99042   1.561   3.019   4.094 -0.6339  0.1783  0.8761
  734MOL0     H99043   1.571   3.186   4.031  4.9389 -1.6270  0.2479
  734MOL0     H99044   1.339   3.093   4.016 -0.7411 -2.0795 -0.3021
  734MOL0     H99045   1.409   2.963   3.915 -1.1016 -1.0270  3.9280
  734MOL0     H99046   1.427   3.096   3.724  1.5994 -0.7158  0.6966
  734MOL0     H99047   1.425   3.250   3.810 -0.5280 -0.2649  0.0001
  734MOL0     H99048   1.195   3.210   3.881  0.9749 -0.3869  1.1913
  734MOL0     H99049   1.199   3.060   3.785  1.4308 -0.7553  3.2514
  734MOL0     H99050   0.958   3.241   3.776 -1.6133 -0.8401 -0.2516
  734MOL0     H99051   0.656   3.238   3.618  1.1874  0.6451 -0.4360
  734MOL0     H99052   0.687   3.071   3.686 -1.2440  0.2854  0.0427
  734MOL0     H99053   0.734   3.220   3.776  1.7048 -0.1735  0.1228
  734MOL0     H99054   0.404   3.201   3.465 -4.1588  0.2428  2.0979
  734MOL0     H99055   0.195   3.094   3.441 -1.3188 -2.9858  0.9456
  734MOL0     H99056  -0.029   2.973   3.350  0.4483  1.5285 -0.4215
  734MOL0     H99057   0.075   3.019   3.225 -1.0450 -1.7899 -3.0136
  734MOL0     H99058   0.047   2.822   3.089 -1.5304  0.9451 -1.6785
  734MOL0     H99059  -0.066   2.749   3.208 -0.2741 -1.2007 -1.4858
  734MOL0     H99060  -0.124   2.992   3.043  2.0427  1.1595  2.4991
  734MOL0     H99061  -0.231   2.922   3.162 -0.0920 -1.6203 -1.0485
  734MOL0     H99062  -0.133   2.750   2.937  0.1928  1.2440  0.0618
  734MOL0     H99063  -0.252   2.710   3.062  2.1361 -2.8045 -2.1325
  734MOL0     H99064  -0.279   2.942   2.858 -1.5401  1.4584 -0.5984
  734MOL0     H99065  -0.403   2.880   2.980 -0.1947 -1.0408 -0.9086
  734MOL0     H99066  -0.472   2.792   2.772 -0.5624 -2.8250 -2.0278
  734MOL0     H99067  -0.314   2.747   2.724 -2.3261  1.3035 -1.4317
  734MOL0     H99068  -0.327   2.566   2.899  0.3031  1.0594 -0.6405
  734MOL0     H99069  -0.464   2.571   2.781  0.2239 -0.2110 -0.7905
  734MOL0     H99070  -0.579   2.716   2.978  2.3822  1.9390 -0.5509
  734MOL0     H99071  -0.470   2.638   3.090 -1.4835 -2.0569  0.6258
  734MOL0     H99072   0.350   2.777   3.250 -2.0376  0.7895 -2.2026
  734MOL0     H99073   0.589   2.891   3.228  0.3256  2.0348  0.0787
  734MOL0     H99074   1.016   3.116   3.310  0.8973  0.4557 -0.3481
  734MOL0     H99075   1.205   3.221   3.435 -0.0705  3.1438 -0.1915
  734MOL0     H99076   2.641   2.057   3.572 -1.2827 -0.4631 -3.0694
  734MOL0     H99077   2.904   2.015   3.573 -0.1132  0.4123 -0.9008
  734MOL0     H99078   3.394   2.330   3.358 -1.4817 -1.5143  0.8567
  734MOL0     H99079   3.627   2.202   3.329  1.0571 -3.9404 -3.2718
  734MOL0     H99080   3.643   1.854   3.481 -1.8335 -1.6269 -0.6388
  734MOL0     H99081   3.650   1.768   3.327 -1.2120  0.8896 -0.1407
  734MOL0     H99082   3.865   1.933   3.476 -3.6637  0.2991  0.8795
  734MOL0     H99083   3.891   1.873   3.303 -1.3169  0.4531 -0.8064
  734MOL0     H99084   3.863   1.641   3.393  0.1958  0.9752  0.5518
  734MOL0     H99085   3.885   1.715   3.556 -0.1837  0.5853  0.4268
  734MOL0     H99086   4.098   1.641   3.511  0.2436  2.0139  2.0505
  734MOL0     H99087   4.096   1.816   3.484  3.4216 -1.3597  0.9642
  734MOL0     H99088   4.209   1.611   3.114  1.3668 -0.6303  1.7648
  734MOL0     H99089   3.424   1.835   3.322 -3.9805 -0.2446 -0.0919
  734MOL0     H99090   3.201   1.953   3.346 -2.2694  3.7710 -0.1108
  735MOL0     O99091   4.299   6.505   8.338  0.2596 -0.1716 -0.8593
  735MOL0     C99092   4.344   6.421   8.417 -0.8599 -1.1017  0.0671
  735MOL0     O99093   4.282   6.314   8.466  0.1497 -0.6267 -0.4106
  735MOL0     C99094   4.140   6.312   8.458 -0.6619  0.5430  1.1856
  735MOL0     C99095   4.062   6.423   8.497 -0.0256 -0.3312  0.4989
  735MOL0     C99096   3.921   6.425   8.481  0.9074  0.4913  0.3338
  735MOL0     C99097   3.856   6.304   8.430 -0.1435  0.1808 -0.1859
  735MOL0     O99098   3.720   6.296   8.417 -0.1210  0.1526  0.0901
  735MOL0     C99099   3.624   6.402   8.459  0.0601  0.6194  0.5936
  735MOL0     C99100   3.616   6.391   8.617  0.4173  0.2105  0.4393
  735MOL0     C99101   3.486   6.460   8.659  0.0543 -0.7220 -0.7717
  735MOL0     C99102   3.364   6.367   8.668 -1.1963 -0.3117  0.5548
  735MOL0     C99103   3.233   6.440   8.719  1.1093  0.1814  0.0627
  735MOL0     C99104   3.115   6.349   8.677  0.1786  0.3334 -0.7857
  735MOL0     C99105   2.974   6.399   8.708 -0.4578  0.3069  0.0005
  735MOL0     C99106   2.942   6.376   8.855  0.3489 -0.5003 -0.4576
  735MOL0     N99107   2.799   6.409   8.874 -0.2664  0.2496 -0.1788
  735MOL0     C99108   2.696   6.318   8.864  0.2399  0.7667  0.4089
  735MOL0     C99109   2.579   6.392   8.854 -0.0865  0.4664 -0.1959
  735MOL0     C99110   2.437   6.336   8.844 -0.9468 -0.0574  0.0827
  735MOL0     C99111   2.366   6.354   8.980  0.1763 -0.6237  0.0357
  735MOL0     C99112   2.266   6.470   8.971 -0.5371  0.1560 -0.7646
  735MOL0     C99113   2.193   6.477   9.108  0.2721  0.0205  0.1628
  735MOL0     O99114   2.085   6.576   9.106 -0.0675  0.0722 -0.3976
  735MOL0     C99115   1.977   6.532   9.032 -0.5652 -0.6258 -0.1825
  735MOL0     C99116   1.870   6.621   9.031 -0.3602  0.7588 -0.0186
  735MOL0     C99117   1.750   6.592   8.966 -0.2251 -0.3561  0.8736
  735MOL0     C99118   1.627   6.682   8.999 -0.5664  0.8285  0.6357
  735MOL0     C99119   1.742   6.475   8.884 -0.9329 -0.3609  0.5715
  735MOL0     C99120   1.616   6.434   8.820 -0.4350 -0.4480  0.0784
  735MOL0     O99121   1.535   6.523   8.770 -0.3810  0.0411  0.2811
  735MOL0     C99122   1.413   6.462   8.742  0.2205 -0.3367 -0.3674
  735MOL0     C99123   1.380   6.433   8.611  1.0613  0.7587  0.2938
  735MOL0     C99124   1.250   6.397   8.578  1.0200 -0.1123 -0.2448
  735MOL0     C99125   1.154   6.403   8.686 -0.4514  0.5216 -0.5250
  735MOL0     O99126   1.025   6.372   8.669  0.5043  0.7356  0.6574
  735MOL0     C99127   0.969   6.446   8.563  0.7226 -0.0676 -0.4543
  735MOL0     C99128   0.817   6.452   8.569 -0.1412  0.7484  0.2894
  735MOL0     C99129   0.766   6.317   8.516  0.0663 -0.0053  0.5290
  735MOL0     C99130   0.628   6.289   8.555  0.4032 -0.6688  1.0111
  735MOL0     C99131   0.579   6.154   8.497  0.3027  1.1204 -0.2708
  735MOL0     C99132   0.600   6.138   8.341  0.6331 -0.0664 -0.2369
  735MOL0     C99133   0.518   6.243   8.272 -0.6159  0.2770 -0.0477
  735MOL0     C99134   0.368   6.226   8.281 -0.1808  0.0449 -0.8379
  735MOL0    Cl99135   0.285   6.332   8.160 -0.5466  0.2506 -0.3047
  735MOL0     C99136   1.190   6.427   8.819  0.1674  1.3335  0.2223
  735MOL0     C99137   1.320   6.451   8.841 -0.1857 -0.8237 -0.2919
  735MOL0     O99138   1.597   6.313   8.824 -0.6666 -0.3794 -0.0817
  735MOL0     C99139   1.849   6.386   8.887  0.8646 -0.5052 -0.1477
  735MOL0     C99140   1.961   6.415   8.962  0.2387  0.2500 -0.7905
  735MOL0     N99141   2.614   6.530   8.875 -0.7042  0.1813  0.0026
  735MOL0     N99142   2.740   6.530   8.882  0.7982 -0.1458 -0.7454
  735MOL0     C99143   3.938   6.197   8.387 -0.4687  0.1035 -0.2504
  735MOL0     C99144   4.071   6.195   8.405 -0.6477 -1.2099  0.4914
  735MOL0     C99145   4.478   6.458   8.461 -0.0420  0.6353 -0.0869
  735MOL0     C99146   4.554   6.364   8.531  0.3726 -0.6465  0.1344
  735MOL0     C99147   4.676   6.399   8.598 -0.3779  0.0974  0.6405
  735MOL0     C99148   4.724   6.527   8.588 -0.6292  0.1023  0.3187
  735MOL0     O99149   4.842   6.573   8.638  0.1793  0.2900 -0.2862
  735MOL0     C99150   4.874   6.507   8.771 -0.0245  0.1323  0.1344
  735MOL0     C99151   4.950   6.611   8.854 -0.2154  0.5302  0.1878
  735MOL0     C99152   5.010   6.567   8.984 -0.4895 -0.1675 -0.1647
  735MOL0     C99153   4.985   6.660   9.097 -0.5250 -0.9048 -0.6332
  735MOL0     C99154   5.048   6.792   9.084  0.5012 -0.0064 -0.2052
  735MOL0     C99155   5.087   6.901   9.066  0.1732 -0.5464  0.2831
  735MOL0     C99156   4.654   6.619   8.517  0.8728 -0.4623  0.5556
  735MOL0     C99157   4.524   6.593   8.459  0.2770  0.7184 -0.9886
  735MOL0     H99158   4.109   6.516   8.525  1.2399 -0.0063 -2.3678
  735MOL0     H99159   3.879   6.516   8.523 -2.9238 -0.8144 -0.2715
  735MOL0     H99160   3.663   6.503   8.439 -1.6993  2.3573  4.6965
  735MOL0     H99161   3.525   6.385   8.417 -0.9578  0.5201  2.8990
  735MOL0     H99162   3.603   6.287   8.649 -1.4460  0.2823 -0.0043
  735MOL0     H99163   3.705   6.433   8.665  1.2267 -2.6317  1.6221
  735MOL0     H99164   3.502   6.508   8.757 -1.0574  0.5342 -1.1708
  735MOL0     H99165   3.467   6.536   8.583  0.5236  0.0279 -0.1577
  735MOL0     H99166   3.347   6.333   8.566 -0.6471 -1.6139  0.8804
  735MOL0     H99167   3.387   6.285   8.737  2.4017  0.2722  0.2116
  735MOL0     H99168   3.241   6.439   8.829 -1.0552 -1.2283  0.2496
  735MOL0     H99169   3.229   6.542   8.678  0.8255  0.5872  1.0651
  735MOL0     H99170   3.116   6.325   8.570  0.3340  0.4674 -0.8157
  735MOL0     H99171   3.128   6.247   8.714 -1.0803 -1.0451 -3.7753
  735MOL0     H99172   2.969   6.507   8.693  1.2910  0.5030  0.6604
  735MOL0     H99173   2.909   6.332   8.652  0.1498  0.4145 -0.8477
  735MOL0     H99174   3.002   6.442   8.917  0.8597 -0.5349 -0.9132
  735MOL0     H99175   2.962   6.271   8.882 -1.8709 -0.4954  1.5520
  735MOL0     H99176   2.709   6.213   8.840  0.0492  0.6292  0.9069
  735MOL0     H99177   2.382   6.388   8.764  0.1101 -0.1033 -0.6979
  735MOL0     H99178   2.447   6.231   8.812 -2.3584  0.2209 -1.4561
  735MOL0     H99179   2.443   6.385   9.052  0.5802  1.3740 -1.1680
  735MOL0     H99180   2.317   6.263   9.015 -2.1753  0.9045  0.9808
  735MOL0     H99181   2.192   6.458   8.892 -1.5595 -1.6564  0.3979
  735MOL0     H99182   2.332   6.555   8.951  2.0152 -0.9052  2.2388
  735MOL0     H99183   2.263   6.526   9.176  0.2625  0.1402  0.0868
  735MOL0     H99184   2.172   6.378   9.149  1.0996 -0.5590 -0.7419
  735MOL0     H99185   1.868   6.720   9.075  2.6282  0.7067  0.4629
  735MOL0     H99186   1.545   6.617   9.031  2.3293 -3.1905  0.6687
  735MOL0     H99187   1.644   6.756   9.078 -0.8539  0.2384  1.2519
  735MOL0     H99188   1.606   6.737   8.907 -2.1988  0.9519  1.0638
  735MOL0     H99189   1.455   6.433   8.533  1.1621 -0.8410  0.3607
  735MOL0     H99190   1.224   6.352   8.483 -2.5530 -0.9893  0.9995
  735MOL0     H99191   1.000   6.550   8.554 -1.2353  0.4709 -1.7137
  735MOL0     H99192   1.001   6.380   8.481 -2.5692 -2.2314 -0.2120
  735MOL0     H99193   0.770   6.478   8.665 -2.4180  0.6099 -0.7114
  735MOL0     H99194   0.795   6.531   8.496 -1.7961  0.0768  0.0056
  735MOL0     H99195   0.829   6.234   8.549  2.3250  0.3176 -2.5537
  735MOL0     H99196   0.773   6.325   8.407  1.6352 -2.3004  0.4035
  735MOL0     H99197   0.623   6.293   8.664 -1.3037 -2.1303  1.0245
  735MOL0     H99198   0.554   6.364   8.525  0.7250 -0.2428  1.2718
  735MOL0     H99199   0.476   6.130   8.521  0.5110 -0.7433 -1.0692
  735MOL0     H99200   0.630   6.074   8.550 -2.5218 -1.4092 -1.1096
  735MOL0     H99201   0.704   6.148   8.309  0.5722  0.0471 -0.3973
  735MOL0     H99202   0.558   6.044   8.307 -0.0496 -0.0063  0.4093
  735MOL0     H99203   0.543   6.239   8.166 -3.9869  1.9432 -1.0490
  735MOL0     H99204   0.542   6.346   8.299 -1.7203  0.5059  0.1206
  735MOL0     H99205   0.332   6.251   8.382  0.5838  0.3984 -0.6482
  735MOL0     H99206   0.339   6.122   8.269  0.9943 -0.3329 -0.5352
  735MOL0     H99207   1.121   6.427   8.902  0.3794 -1.0516  0.4897
  735MOL0     H99208   1.338   6.475   8.946  1.1617 -0.1846 -0.6443
  735MOL0     H99209   1.844   6.289   8.840  1.2792 -0.5590 -0.0879
  735MOL0     H99210   2.033   6.335   8.977 -2.4909 -2.0602  1.4001
  735MOL0     H99211   3.897   6.104   8.348 -1.8469  0.8165 -0.5552
  735MOL0     H99212   4.142   6.121   8.371  2.1342  2.4333 -2.5568
  735MOL0     H99213   4.513   6.264   8.525  0.6752 -0.7064 -1.2836
  735MOL0     H99214   4.727   6.312   8.638 -0.3412  1.1151  2.9558
  735MOL0     H99215   4.782   6.479   8.824 -0.0752 -0.7935 -0.4182
  735MOL0     H99216   4.935   6.417   8.761  0.3728 -0.2802  4.4139
  735MOL0     H99217   4.893   6.704   8.868  0.1512  0.5969  1.3572
  735MOL0     H99218   5.036   6.637   8.792 -0.4672 -2.0747 -1.3959
  735MOL0     H99219   5.117   6.551   8.965 -0.5514 -0.4828 -0.2520
  735MOL0     H99220   4.971   6.469   9.012  0.7567 -0.9062 -0.8870
  735MOL0     H99221   5.023   6.618   9.190 -3.4071  1.0026  1.5703
  735MOL0     H99222   4.876   6.666   9.101 -0.4653 -0.4439  1.0403
  735MOL0     H99223   5.117   7.004   9.064  1.1488 -0.8193 -1.6361
  735MOL0     H99224   4.685   6.722   8.508 -0.7500 -0.1002 -2.7226
  735MOL0     H99225   4.466   6.673   8.414 -3.5732 -1.3756 -0.1682
  736MOL0     O99226   6.444   8.024   7.794 -0.2370 -0.6094  0.3824
  736MOL0     C99227   6.467   7.986   7.905  0.1953 -0.2878 -0.3468
  736MOL0     O99228   6.374   7.952   8.007  0.4051  0.2662  0.4822
  736MOL0     C99229   6.254   8.015   7.998  0.7091  0.4542  0.6837
  736MOL0     C99230   6.149   7.954   7.933 -0.6133 -0.1116 -0.3565
  736MOL0     C99231   6.020   8.011   7.948  0.0229  0.9196  0.2404
  736MOL0     C99232   5.993   8.123   8.021  0.2833 -0.3645 -0.1684
  736MOL0     O99233   5.862   8.181   8.044 -0.4524 -0.3892 -0.5965
  736MOL0     C99234   5.746   8.135   7.970  0.8772  0.2854 -0.0196
  736MOL0     C99235   5.628   8.236   7.992  0.5232  0.3119  0.3079
  736MOL0     C99236   5.521   8.232   7.874 -1.1729 -0.6817  0.0418
  736MOL0     C99237   5.409   8.337   7.886 -0.1470  0.6394  0.7628
  736MOL0     C99238   5.317   8.331   8.006 -0.0256  1.2054 -0.6458
  736MOL0     C99239   5.203   8.434   8.022  0.0019  0.2541 -0.4030
  736MOL0     C99240   5.271   8.567   8.063  0.2104  0.5100  0.2569
  736MOL0     C99241   5.169   8.687   8.054  0.1603  0.0214  0.0343
  736MOL0     N99242   5.066   8.661   8.149 -0.1536  0.1178 -0.0764
  736MOL0     C99243   4.933   8.642   8.117 -0.2453 -0.3174 -0.1990
  736MOL0     C99244   4.872   8.642   8.235 -0.0729 -1.3558  0.1286
  736MOL0     C99245   4.720   8.634   8.268 -0.3079 -0.4270 -0.2608
  736MOL0     C99246   4.656   8.507   8.215  0.3288 -0.1732  0.2739
  736MOL0     C99247   4.719   8.372   8.271  0.4012  0.3870  0.9856
  736MOL0     C99248   4.620   8.257   8.251  0.0983 -0.3821 -0.3688
  736MOL0     O99249   4.534   8.241   8.372 -0.3617  1.0474  0.6670
  736MOL0     C99250   4.403   8.197   8.357 -0.6959 -0.0045 -0.0396
  736MOL0     C99251   4.325   8.203   8.466 -0.0295 -0.1088  0.3214
  736MOL0     C99252   4.194   8.154   8.485 -0.4556  0.5151  0.0519
  736MOL0     C99253   4.128   8.184   8.615  0.1187 -0.2053  0.4825
  736MOL0     C99254   4.140   8.081   8.377  0.4596 -0.1464 -0.2942
  736MOL0     C99255   4.001   8.023   8.374 -0.0516 -0.1227  0.2089
  736MOL0     O99256   3.914   8.033   8.477  0.9617  0.1042 -0.0994
  736MOL0     C99257   3.798   7.963   8.496 -0.0427  0.5730  0.4981
  736MOL0     C99258   3.733   7.975   8.615  0.7576  0.0812  0.7466
  736MOL0     C99259   3.610   7.918   8.637 -0.2543  0.2322  0.0677
  736MOL0     C99260   3.547   7.839   8.542  0.1925  0.0369 -0.0579
  736MOL0     O99261   3.428   7.770   8.548  0.0487  0.5416  0.9083
  736MOL0     C99262   3.355   7.752   8.667  0.5223 -0.4843 -0.2627
  736MOL0     C99263   3.245   7.662   8.625 -0.0605 -0.2685 -0.2662
  736MOL0     C99264   3.133   7.757   8.568 -0.8153  1.0710  0.9940
  736MOL0     C99265   3.014   7.672   8.534 -0.1578  0.0942 -0.3700
  736MOL0     C99266   2.892   7.753   8.489  0.3250 -0.1387  0.0062
  736MOL0     C99267   2.772   7.657   8.462 -0.7401  0.5173  0.1023
  736MOL0     C99268   2.670   7.740   8.399 -0.0380 -0.7527 -0.0693
  736MOL0     C99269   2.577   7.640   8.319  0.4258 -0.4470 -0.3910
  736MOL0    Cl99270   2.478   7.535   8.425 -0.1960  0.2668  0.1543
  736MOL0     C99271   3.612   7.819   8.430 -0.5913  0.2863  0.0250
  736MOL0     C99272   3.738   7.876   8.402  0.1779  0.2663 -0.1445
  736MOL0     O99273   3.987   7.951   8.278 -0.1988 -0.2663  0.1527
  736MOL0     C99274   4.226   8.071   8.254  0.6285 -0.2937 -0.2791
  736MOL0     C99275   4.356   8.130   8.250  1.4105  0.0195  0.3373
  736MOL0     N99276   4.970   8.638   8.333  0.4577  0.8938 -0.8759
  736MOL0     N99277   5.088   8.638   8.280  0.7904  0.1761  0.8702
  736MOL0     C99278   6.100   8.187   8.077  0.2280  0.8409 -0.5748
  736MOL0     C99279   6.231   8.131   8.068 -1.1006  0.2510  0.1846
  736MOL0     C99280   6.606   7.938   7.914  0.4311 -0.1269  0.7349
  736MOL0     C99281   6.643   7.867   8.030 -0.0943 -0.0407 -0.2602
  736MOL0     C99282   6.776   7.837   8.070 -0.0701  0.0810  0.2084
  736MOL0     C99283   6.878   7.868   7.982  0.4282  0.6666  0.1536
  736MOL0     O99284   7.008   7.840   8.035  0.0548  0.5012 -0.5157
  736MOL0     C99285   7.115   7.889   7.965 -1.8119 -0.2423  0.1545
  736MOL0     C99286   7.241   7.864   8.052  0.7145  0.0536  0.2868
  736MOL0     C99287   7.265   7.712   8.056 -0.1050  0.5560 -0.6961
  736MOL0     C99288   7.397   7.683   8.126 -0.3880  0.6517  0.3730
  736MOL0     C99289   7.395   7.721   8.268 -0.6556 -0.0688  0.8762
  736MOL0     C99290   7.389   7.746   8.384 -0.5712  0.9467  0.5581
  736MOL0     C99291   6.844   7.937   7.854 -0.4392  0.2383 -0.3325
  736MOL0     C99292   6.714   7.975   7.827  0.5891 -0.0457  0.2778
  736MOL0     H99293   6.159   7.860   7.880 -1.1457  0.4497 -1.4884
  736MOL0     H99294   5.936   7.966   7.897 -0.2614  2.9323 -1.2161
  736MOL0     H99295   5.779   8.137   7.866 -0.3602 -0.2306 -0.4472
  736MOL0     H99296   5.709   8.037   8.001  0.6159 -0.2660 -1.9255
  736MOL0     H99297   5.582   8.215   8.088 -3.2207 -0.9430 -1.5906
  736MOL0     H99298   5.664   8.340   7.992 -1.5779  1.0844  1.2995
  736MOL0     H99299   5.578   8.264   7.786 -0.1773  0.7119  1.1395
  736MOL0     H99300   5.503   8.129   7.843  2.7635 -1.7467  0.6734
  736MOL0     H99301   5.463   8.431   7.882 -0.1310  0.7484  2.6899
  736MOL0     H99302   5.350   8.318   7.796 -1.8498  1.4876  1.6538
  736MOL0     H99303   5.264   8.236   7.994  1.6211 -0.0186  1.0982
  736MOL0     H99304   5.369   8.343   8.102 -2.3017  2.1683  0.5346
  736MOL0     H99305   5.151   8.444   7.927  0.1009 -2.9310 -0.8984
  736MOL0     H99306   5.132   8.406   8.101 -0.5757  1.5879 -0.4235
  736MOL0     H99307   5.304   8.554   8.167 -0.3122 -0.9198  0.2651
  736MOL0     H99308   5.360   8.577   8.001  1.1812 -2.3230  1.0145
  736MOL0     H99309   5.129   8.692   7.952 -0.2946 -1.5516  0.1148
  736MOL0     H99310   5.222   8.778   8.085  2.4658 -1.5486  1.0429
  736MOL0     H99311   4.903   8.637   8.013 -2.1050  0.8208  0.2305
  736MOL0     H99312   4.696   8.637   8.375 -2.5483 -0.2864 -0.7268
  736MOL0     H99313   4.660   8.720   8.237 -0.2740 -0.0423  0.7101
  736MOL0     H99314   4.664   8.502   8.106  1.3838  0.0371  0.3397
  736MOL0     H99315   4.547   8.514   8.227  0.3354  1.5358 -0.3360
  736MOL0     H99316   4.748   8.377   8.377 -0.8182 -2.5898  1.5423
  736MOL0     H99317   4.812   8.349   8.218 -1.0415 -2.1330 -0.6385
  736MOL0     H99318   4.654   8.163   8.207  0.6961 -1.0988  1.4888
  736MOL0     H99319   4.553   8.288   8.171  0.9733 -2.4816 -2.0085
  736MOL0     H99320   4.375   8.255   8.547 -1.9808  0.3809  1.2819
  736MOL0     H99321   4.113   8.086   8.661 -0.2262 -0.0949  0.6052
  736MOL0     H99322   4.196   8.245   8.675  0.5169  0.3074 -0.4618
  736MOL0     H99323   4.036   8.243   8.613  0.6022  0.7316 -3.5389
  736MOL0     H99324   3.764   8.056   8.679 -0.2129 -0.5201  2.0056
  736MOL0     H99325   3.562   7.929   8.734 -0.4166 -2.7491  0.4327
  736MOL0     H99326   3.416   7.698   8.741  2.9344  0.7021 -1.2909
  736MOL0     H99327   3.311   7.840   8.713 -2.2301 -1.8387 -0.0757
  736MOL0     H99328   3.271   7.593   8.544 -2.9110 -0.3511 -1.2210
  736MOL0     H99329   3.208   7.608   8.712  2.6329 -1.4632  0.2563
  736MOL0     H99330   3.168   7.798   8.473  0.2371 -1.9628 -0.0553
  736MOL0     H99331   3.098   7.834   8.637 -2.2587  3.0144 -1.7211
  736MOL0     H99332   3.045   7.602   8.456  1.1958  1.1914 -0.8635
  736MOL0     H99333   2.983   7.613   8.620 -0.0990 -0.8472 -0.9838
  736MOL0     H99334   2.915   7.804   8.395  0.2820 -1.4016 -0.7100
  736MOL0     H99335   2.866   7.830   8.561 -0.9488  0.7904 -1.3762
  736MOL0     H99336   2.809   7.575   8.400  1.9863  0.1182  2.0899
  736MOL0     H99337   2.738   7.607   8.553  2.5115 -1.7063  0.2531
  736MOL0     H99338   2.708   7.812   8.327 -0.4656  0.2958  0.7175
  736MOL0     H99339   2.616   7.800   8.474  0.9831  3.0481 -2.1600
  736MOL0     H99340   2.635   7.573   8.255 -0.5748 -0.4487 -1.3204
  736MOL0     H99341   2.514   7.699   8.252 -0.7209  0.0152  1.0604
  736MOL0     H99342   3.569   7.757   8.352 -1.1065  2.3653 -1.4308
  736MOL0     H99343   3.781   7.857   8.304 -0.2680  0.3319 -0.3538
  736MOL0     H99344   4.187   8.016   8.170  0.7240 -3.6416  1.6860
  736MOL0     H99345   4.414   8.129   8.158 -2.2521  0.3898 -2.1904
  736MOL0     H99346   6.080   8.277   8.134 -1.0922  0.1641  0.0580
  736MOL0     H99347   6.309   8.185   8.121  1.7352 -1.7595 -1.6784
  736MOL0     H99348   6.562   7.847   8.099 -0.0114  1.3933  0.2801
  736MOL0     H99349   6.805   7.792   8.164 -1.9190 -0.6890  0.4576
  736MOL0     H99350   7.128   7.852   7.863  1.6208  0.4159  0.2254
  736MOL0     H99351   7.113   7.999   7.969  0.7980 -0.1796  2.7783
  736MOL0     H99352   7.219   7.909   8.149  2.6015 -0.6247  1.0662
  736MOL0     H99353   7.329   7.912   8.010  0.8942  1.6813  2.3731
  736MOL0     H99354   7.267   7.673   7.953 -0.4107  0.9061 -0.8329
  736MOL0     H99355   7.191   7.653   8.111  0.4656 -0.4206 -0.9511
  736MOL0     H99356   7.477   7.734   8.071  0.7506 -0.7994  0.6186
  736MOL0     H99357   7.431   7.580   8.111  0.5698  1.0481 -0.3790
  736MOL0     H99358   7.397   7.758   8.491 -1.5962 -1.2804  0.9457
  736MOL0     H99359   6.922   7.965   7.784  0.4427  2.7080  1.5009
  736MOL0     H99360   6.686   8.038   7.743 -3.2000 -3.2570 -1.1891
  737MOL0     O99361  11.184   6.516   0.119 -0.8514 -0.9127  0.2601
  737MOL0     C99362  11.238   6.610   0.067  0.1612 -1.1227 -0.1133
  737MOL0     O99363  11.217   6.742   0.109  0.2875 -0.6872  0.0655
  737MOL0     C99364  11.109   6.767   0.185  0.3933 -0.2673  0.0342
  737MOL0     C99365  10.968   6.748   0.145 -0.1966 -0.9759  0.1058
  737MOL0     C99366  10.860   6.802   0.208 -0.2629  0.3390  0.3524
  737MOL0     C99367  10.884   6.884   0.322  0.7681 -0.6110  0.1138
  737MOL0     O99368  10.780   6.946   0.401  0.0190 -0.1435 -0.1872
  737MOL0     C99369  10.642   6.936   0.359 -0.0340  0.0980  0.1895
  737MOL0     C99370  10.627   7.033   0.244  0.3976 -0.0480 -0.6967
  737MOL0     C99371  10.502   7.010   0.160  0.7550  0.1581  0.2013
  737MOL0     C99372  10.410   7.136   0.178 -0.1579  0.4248 -0.2592
  737MOL0     C99373  10.287   7.119   0.089  0.0282  0.9261  0.0355
  737MOL0     C99374  10.182   7.227   0.127  0.3124  0.0769 -0.2568
  737MOL0     C99375  10.081   7.241   0.015 -0.1014 -0.7167  0.5402
  737MOL0     C99376   9.949   7.297   0.063 -0.2372  0.4695  0.7856
  737MOL0     N99377   9.835   7.201   0.071  0.1694 -0.8451  0.3711
  737MOL0     C99378   9.835   7.079   0.134 -0.2672 -0.5134  0.0497
  737MOL0     C99379   9.708   7.037   0.130 -0.3660 -0.4442  0.5766
  737MOL0     C99380   9.642   6.909   0.184 -0.0179 -0.9170  0.0659
  737MOL0     C99381   9.618   6.796   0.087  0.3592  0.6036  0.6495
  737MOL0     C99382   9.747   6.724   0.036 -0.1655  0.8112 -0.0312
  737MOL0     C99383   9.725   6.624  -0.069  0.4308  0.2206  0.1540
  737MOL0     O99384   9.693   6.494  -0.027 -0.3020 -0.2306  0.3814
  737MOL0     C99385   9.595   6.417  -0.096  0.8152 -1.2098  0.0171
  737MOL0     C99386   9.505   6.459  -0.197 -0.7285 -1.1288  0.2980
  737MOL0     C99387   9.419   6.372  -0.265 -0.7463  0.5839  1.0378
  737MOL0     C99388   9.320   6.429  -0.360  0.0006 -0.1889 -1.1280
  737MOL0     C99389   9.421   6.235  -0.234 -0.2899  0.5250  0.7519
  737MOL0     C99390   9.319   6.138  -0.278  0.1563  0.5228 -0.4319
  737MOL0     O99391   9.329   6.090  -0.403  0.4011 -0.7003  0.2058
  737MOL0     C99392   9.223   6.017  -0.457 -0.8442  0.0419 -1.0451
  737MOL0     C99393   9.096   6.064  -0.463 -0.2127 -0.5733  0.2281
  737MOL0     C99394   8.991   5.989  -0.496  0.2122 -0.2580  0.4502
  737MOL0     C99395   9.010   5.862  -0.556 -0.5779  0.2886  1.1702
  737MOL0     O99396   8.905   5.779  -0.584  0.0892 -1.0352 -0.2303
  737MOL0     C99397   8.781   5.828  -0.633 -0.2505 -0.1611 -0.3673
  737MOL0     C99398   8.703   5.699  -0.673  0.5008  0.2502  0.2679
  737MOL0     C99399   8.587   5.739  -0.764  0.2381  0.5776 -0.0486
  737MOL0     C99400   8.469   5.821  -0.703  0.0387  0.4616  0.0729
  737MOL0     C99401   8.360   5.856  -0.812  0.0186  0.4580 -0.4455
  737MOL0     C99402   8.419   5.957  -0.908 -0.2768 -0.0242 -0.2109
  737MOL0     C99403   8.311   6.021  -0.993  0.3196  0.6093 -0.5830
  737MOL0     C99404   8.388   6.082  -1.112  0.5879  1.1183 -0.2753
  737MOL0    Cl99405   8.481   5.964  -1.221 -0.2771 -0.4489  0.4989
  737MOL0     C99406   9.142   5.817  -0.566 -0.4092 -0.1425  0.1263
  737MOL0     C99407   9.246   5.891  -0.515  0.5318  0.1910 -0.1654
  737MOL0     O99408   9.237   6.101  -0.197 -0.0984  0.0851 -0.2143
  737MOL0     C99409   9.517   6.193  -0.140 -0.2239  0.7662 -0.0113
  737MOL0     C99410   9.603   6.283  -0.084 -0.2333  0.9373  0.4472
  737MOL0     N99411   9.625   7.128   0.067 -0.7422 -0.0861 -0.0008
  737MOL0     N99412   9.702   7.222   0.030 -0.0447  0.3285  0.1306
  737MOL0     C99413  11.017   6.896   0.359  0.5219  0.0417 -0.3892
  737MOL0     C99414  11.123   6.839   0.298 -0.1261  0.0301  0.1235
  737MOL0     C99415  11.338   6.593  -0.042 -0.6536  0.1175  0.2388
  737MOL0     C99416  11.404   6.701  -0.106  0.4198 -0.5524  0.7588
  737MOL0     C99417  11.499   6.692  -0.207  1.0531 -0.2738 -0.3367
  737MOL0     C99418  11.530   6.569  -0.257  0.0120 -0.0910  0.2464
  737MOL0     O99419  11.614   6.546  -0.365 -0.2405  0.2987 -0.2140
  737MOL0     C99420  11.658   6.644  -0.452 -0.6163 -0.2152  0.1243
  737MOL0     C99421  11.801   6.687  -0.417 -1.0262  0.0473 -0.1193
  737MOL0     C99422  11.880   6.733  -0.545  0.0887 -0.3284  0.7843
  737MOL0     C99423  12.019   6.796  -0.499  0.4787  0.5840 -0.3289
  737MOL0     C99424  12.047   6.914  -0.576  0.1452 -0.1663  0.9344
  737MOL0     C99425  12.074   7.009  -0.649  0.6620  0.3079 -0.0900
  737MOL0     C99426  11.475   6.452  -0.197  0.3063 -1.3811 -1.1020
  737MOL0     C99427  11.380   6.471  -0.086  0.3466 -0.1081  0.4673
  737MOL0     H99428  10.948   6.685   0.059  0.7531  0.3482 -1.1330
  737MOL0     H99429  10.764   6.781   0.163  0.1365 -1.9450  0.4445
  737MOL0     H99430  10.613   6.838   0.320 -0.1395 -0.7784  2.3680
  737MOL0     H99431  10.581   6.960   0.446  1.8149  1.6027  1.1404
  737MOL0     H99432  10.627   7.137   0.277 -1.8343  0.0079 -0.7333
  737MOL0     H99433  10.713   7.024   0.177  2.6068  0.9839  1.8012
  737MOL0     H99434  10.540   7.005   0.057 -0.0759  0.6384 -0.1389
  737MOL0     H99435  10.448   6.919   0.190  1.4094 -0.7692 -1.2746
  737MOL0     H99436  10.383   7.139   0.284 -1.0608 -1.2803 -0.4135
  737MOL0     H99437  10.459   7.231   0.155  2.5521 -1.1461 -1.5022
  737MOL0     H99438  10.315   7.136  -0.015 -0.6924 -2.0585 -0.7421
  737MOL0     H99439  10.241   7.020   0.092 -1.3311  1.3527 -2.9712
  737MOL0     H99440  10.138   7.186   0.218 -1.5885 -1.5556 -1.8196
  737MOL0     H99441  10.235   7.323   0.134  0.6615 -0.0485 -1.0554
  737MOL0     H99442  10.111   7.316  -0.058 -2.0477  1.3282  1.7024
  737MOL0     H99443  10.067   7.155  -0.051  1.4246  0.1768 -1.0348
  737MOL0     H99444   9.925   7.389   0.009  0.7144  1.5836  2.1884
  737MOL0     H99445   9.962   7.339   0.163 -2.8355  1.6131  0.7288
  737MOL0     H99446   9.922   7.036   0.182  0.6595  0.1965 -0.9278
  737MOL0     H99447   9.712   6.880   0.264  1.5395  1.2660 -0.4217
  737MOL0     H99448   9.548   6.942   0.229  0.2721  0.5655 -0.3659
  737MOL0     H99449   9.575   6.839  -0.004  1.4172  2.5234  1.0040
  737MOL0     H99450   9.545   6.728   0.133 -0.9073 -0.0499 -2.0709
  737MOL0     H99451   9.799   6.676   0.119  1.9149  1.5445 -0.8263
  737MOL0     H99452   9.815   6.793  -0.016  1.1679 -0.8556 -0.6246
  737MOL0     H99453   9.820   6.615  -0.123  0.5966 -1.0884  0.6192
  737MOL0     H99454   9.641   6.658  -0.131 -0.4819 -1.8636  0.1362
  737MOL0     H99455   9.491   6.565  -0.215 -1.4851 -1.2170  0.3154
  737MOL0     H99456   9.318   6.369  -0.451 -0.7988  2.3730 -2.9184
  737MOL0     H99457   9.220   6.437  -0.317 -0.0753 -2.8838 -0.6326
  737MOL0     H99458   9.355   6.529  -0.386 -1.1056  0.9390  1.3702
  737MOL0     H99459   9.077   6.166  -0.432 -0.9673  0.3983 -2.9921
  737MOL0     H99460   8.891   6.028  -0.477 -0.8826 -1.6651 -1.9761
  737MOL0     H99461   8.719   5.879  -0.560  0.0042  2.3266 -1.7698
  737MOL0     H99462   8.804   5.903  -0.710 -0.0744 -0.4244 -0.5742
  737MOL0     H99463   8.772   5.634  -0.727  1.7276  0.8874  1.0237
  737MOL0     H99464   8.664   5.653  -0.583  0.9519 -1.1500 -0.2329
  737MOL0     H99465   8.540   5.651  -0.808 -2.0860  1.4135  0.6172
  737MOL0     H99466   8.630   5.801  -0.843 -0.6050 -0.5511 -1.4390
  737MOL0     H99467   8.428   5.767  -0.616  0.4772  1.4067  0.8905
  737MOL0     H99468   8.507   5.919  -0.673 -1.3569  0.5752  1.6451
  737MOL0     H99469   8.275   5.911  -0.771 -0.5007 -0.2114 -0.6080
  737MOL0     H99470   8.325   5.767  -0.866  1.4677 -1.2025  1.2236
  737MOL0     H99471   8.470   6.036  -0.852 -2.0359  0.4909  0.7339
  737MOL0     H99472   8.499   5.905  -0.963  1.0194 -1.3345  2.6903
  737MOL0     H99473   8.250   6.086  -0.929 -1.0472  0.5993 -1.8368
  737MOL0     H99474   8.237   5.955  -1.039  2.6187 -1.5037 -1.4535
  737MOL0     H99475   8.464   6.148  -1.069  0.0178  0.5982  1.6460
  737MOL0     H99476   8.321   6.143  -1.173 -1.3858 -1.1534 -0.5494
  737MOL0     H99477   9.158   5.715  -0.599 -1.9101  0.1045 -1.5111
  737MOL0     H99478   9.337   5.832  -0.508 -0.2225 -0.9082  0.8191
  737MOL0     H99479   9.535   6.087  -0.132 -1.2652  0.5231 -0.7072
  737MOL0     H99480   9.698   6.248  -0.045  0.4274  1.9766 -0.1752
  737MOL0     H99481  11.035   6.958   0.446  1.0801 -1.2750  0.4669
  737MOL0     H99482  11.227   6.857   0.325  1.2061 -0.5893 -3.9027
  737MOL0     H99483  11.384   6.803  -0.075 -0.5412 -0.5187  0.0687
  737MOL0     H99484  11.543   6.784  -0.243  1.0881  0.9979  2.6865
  737MOL0     H99485  11.656   6.604  -0.554  2.6922 -0.5348  0.0855
  737MOL0     H99486  11.605   6.738  -0.434 -0.4361 -0.4497  2.0795
  737MOL0     H99487  11.857   6.598  -0.387  0.0647  0.2784 -1.3708
  737MOL0     H99488  11.795   6.760  -0.336  0.4045  0.1787 -0.1085
  737MOL0     H99489  11.815   6.799  -0.603 -1.2115 -2.0839  0.1818
  737MOL0     H99490  11.906   6.648  -0.609 -1.0767  0.6457 -1.0640
  737MOL0     H99491  12.095   6.721  -0.523 -1.2345 -1.4437  0.2183
  737MOL0     H99492  12.014   6.816  -0.392 -1.5028 -2.4171  0.2747
  737MOL0     H99493  12.102   7.088  -0.715  1.2342  1.5920  1.5959
  737MOL0     H99494  11.495   6.353  -0.235 -0.0999 -1.4387 -1.1660
  737MOL0     H99495  11.326   6.385  -0.047  0.1595 -1.4289 -2.4120
  738MOL0     O99496   3.381   0.707   2.575 -0.0914 -0.1828 -0.0333
  738MOL0     C99497   3.448   0.650   2.487  0.6310  0.2204  0.0157
  738MOL0     O99498   3.404   0.627   2.360  0.0934 -0.1674 -0.1594
  738MOL0     C99499   3.289   0.686   2.323 -0.9165 -0.3363 -0.3992
  738MOL0     C99500   3.168   0.627   2.336 -0.3008  0.0969 -0.3904
  738MOL0     C99501   3.059   0.660   2.262  0.6437 -0.3089  0.5956
  738MOL0     C99502   3.063   0.773   2.185  0.9725  0.0979  0.8439
  738MOL0     O99503   2.969   0.810   2.086  0.1777 -0.6353 -0.0643
  738MOL0     C99504   2.850   0.736   2.075 -0.9673 -0.7569 -0.2983
  738MOL0     C99505   2.756   0.812   1.984 -1.5079  0.8301 -0.8065
  738MOL0     C99506   2.628   0.741   1.945  0.0988  0.5090 -0.5232
  738MOL0     C99507   2.541   0.673   2.046 -0.5068 -0.1166 -0.8320
  738MOL0     C99508   2.410   0.614   1.984  0.1491  0.1759  0.1234
  738MOL0     C99509   2.289   0.621   2.076  0.2723 -1.2949  0.1234
  738MOL0     C99510   2.173   0.551   2.019  0.7007  0.1030 -0.4151
  738MOL0     C99511   2.037   0.580   2.101 -0.4751 -0.5530 -0.3167
  738MOL0     N99512   2.052   0.487   2.221  0.1364 -0.0192  0.3532
  738MOL0     C99513   2.008   0.360   2.227  0.3590 -0.2981 -0.7166
  738MOL0     C99514   2.061   0.312   2.343 -0.3998  0.4048  0.4888
  738MOL0     C99515   2.049   0.168   2.389 -0.2266 -0.2185 -0.5068
  738MOL0     C99516   1.902   0.134   2.420 -0.0321  0.4009  0.2146
  738MOL0     C99517   1.896  -0.003   2.496 -0.1269  0.0901 -0.4445
  738MOL0     C99518   1.782  -0.017   2.592  0.5960 -0.2613  0.2768
  738MOL0     O99519   1.668  -0.001   2.500  0.7359 -0.4979 -0.2693
  738MOL0     C99520   1.544  -0.046   2.539  0.3287  0.4228  0.0009
  738MOL0     C99521   1.429   0.017   2.500  0.8031  0.2341 -0.0794
  738MOL0     C99522   1.301  -0.029   2.537 -0.1758  0.2355  0.3618
  738MOL0     C99523   1.190   0.062   2.486 -0.0864  0.0574 -0.3029
  738MOL0     C99524   1.284  -0.161   2.592  0.2409  0.5133 -1.2805
  738MOL0     C99525   1.157  -0.236   2.610  0.7065  0.1905  0.3817
  738MOL0     O99526   1.168  -0.360   2.659  0.2660  0.2205  0.5224
  738MOL0     C99527   1.054  -0.430   2.691  0.3757  0.7185  0.4266
  738MOL0     C99528   1.035  -0.444   2.828 -0.2872  0.0588 -0.0000
  738MOL0     C99529   0.923  -0.506   2.875 -0.3055  0.2129  0.5538
  738MOL0     C99530   0.826  -0.561   2.791 -0.5896  0.4149 -0.0090
  738MOL0     O99531   0.706  -0.603   2.829  0.0570  1.2166  0.3981
  738MOL0     C99532   0.678  -0.618   2.964  0.0195  0.1498 -0.4185
  738MOL0     C99533   0.530  -0.687   2.974 -0.2921 -0.1336 -0.7970
  738MOL0     C99534   0.414  -0.597   2.932 -0.5885  0.3750 -0.5362
  738MOL0     C99535   0.396  -0.593   2.776 -0.1382  0.8065  0.7901
  738MOL0     C99536   0.260  -0.547   2.729  0.0640 -0.3736  1.0253
  738MOL0     C99537   0.249  -0.397   2.737 -0.0025  0.1727 -0.0531
  738MOL0     C99538   0.126  -0.341   2.658  0.7147 -0.1401 -0.1988
  738MOL0     C99539   0.091  -0.198   2.700 -0.4605 -0.1316 -0.4203
  738MOL0    Cl99540   0.208  -0.074   2.627  0.0729  0.0367 -0.2179
  738MOL0     C99541   0.848  -0.560   2.654  0.9718 -0.7480  0.9063
  738MOL0     C99542   0.962  -0.493   2.604 -0.9994 -0.1885  0.5637
  738MOL0     O99543   1.053  -0.189   2.559  0.0533 -1.2185 -0.1081
  738MOL0     C99544   1.403  -0.230   2.613 -0.0196  0.1025 -0.7434
  738MOL0     C99545   1.526  -0.169   2.599  0.8702 -0.6117  0.5644
  738MOL0     N99546   2.111   0.408   2.419 -0.2142 -0.0807  0.9114
  738MOL0     N99547   2.098   0.518   2.347  0.0789  1.0124 -0.1053
  738MOL0     C99548   3.178   0.850   2.185  0.1450 -0.6417 -0.9154
  738MOL0     C99549   3.296   0.807   2.250 -0.0212 -0.3217 -0.6870
  738MOL0     C99550   3.582   0.608   2.528 -0.8551 -0.6777  0.1079
  738MOL0     C99551   3.642   0.665   2.642  0.3332  0.5220 -0.5616
  738MOL0     C99552   3.771   0.618   2.677  0.2155 -0.3651 -0.2169
  738MOL0     C99553   3.843   0.529   2.596  0.4548 -0.1989 -0.0696
  738MOL0     O99554   3.969   0.491   2.631 -0.0682 -0.1175 -0.1646
  738MOL0     C99555   4.053   0.577   2.716 -0.8638 -0.2588  0.6224
  738MOL0     C99556   4.185   0.510   2.749 -0.4306  0.7440 -0.1945
  738MOL0     C99557   4.293   0.589   2.831  0.4269  0.2456 -0.0306
  738MOL0     C99558   4.408   0.492   2.854 -0.5364  0.5021 -0.3610
  738MOL0     C99559   4.509   0.570   2.932 -0.6674 -0.0427  0.0254
  738MOL0     C99560   4.589   0.630   2.991 -0.1123  0.1680  0.3181
  738MOL0     C99561   3.781   0.483   2.484 -0.3186 -0.0707  0.1932
  738MOL0     C99562   3.653   0.520   2.444 -0.6996 -0.0451  0.4287
  738MOL0     H99563   3.150   0.531   2.382 -3.0021  0.1709 -1.1620
  738MOL0     H99564   2.977   0.590   2.275  0.9266 -0.9376 -0.8597
  738MOL0     H99565   2.870   0.636   2.035 -0.9387 -0.3128 -1.4346
  738MOL0     H99566   2.807   0.719   2.174 -1.2499  2.2379  0.1951
  738MOL0     H99567   2.737   0.903   2.041 -1.0137  0.3578  0.1347
  738MOL0     H99568   2.818   0.825   1.895  0.0483  2.3412  0.4270
  738MOL0     H99569   2.576   0.825   1.898  0.9086  1.4393  0.2146
  738MOL0     H99570   2.649   0.662   1.872 -0.4634 -0.5782  0.4488
  738MOL0     H99571   2.589   0.587   2.094 -0.7685 -0.4799 -1.2070
  738MOL0     H99572   2.519   0.743   2.126 -0.2556 -1.2303  0.2398
  738MOL0     H99573   2.381   0.674   1.898  0.9587  0.6086  0.1449
  738MOL0     H99574   2.430   0.513   1.950  3.8314  0.2363  1.6040
  738MOL0     H99575   2.324   0.585   2.174  1.4198 -0.6944 -0.0519
  738MOL0     H99576   2.252   0.720   2.102 -1.9062 -2.5712  2.3129
  738MOL0     H99577   2.150   0.585   1.917  0.0922 -1.5418 -0.8513
  738MOL0     H99578   2.189   0.443   2.025 -3.4564 -0.7918 -2.0819
  738MOL0     H99579   1.953   0.544   2.041 -0.2857 -1.4380 -0.0737
  738MOL0     H99580   2.025   0.683   2.136 -1.0129 -1.5486  2.7397
  738MOL0     H99581   1.957   0.305   2.149 -1.8110  1.9635 -1.0323
  738MOL0     H99582   2.087   0.105   2.308 -0.8865  1.9097 -2.5901
  738MOL0     H99583   2.110   0.160   2.479 -1.1066  2.8557  0.4908
  738MOL0     H99584   1.843   0.127   2.327 -0.0836  0.9696  0.1995
  738MOL0     H99585   1.860   0.211   2.486  0.0732  0.5586  0.0993
  738MOL0     H99586   1.988  -0.012   2.554 -0.3347  0.0134 -0.1220
  738MOL0     H99587   1.899  -0.090   2.429  1.0474 -0.0031 -0.2848
  738MOL0     H99588   1.783   0.054   2.675 -0.0675  1.0724 -0.8076
  738MOL0     H99589   1.789  -0.121   2.627  1.6678 -0.5877 -0.8280
  738MOL0     H99590   1.436   0.107   2.440  2.9778  0.0986 -0.1099
  738MOL0     H99591   1.124   0.105   2.562  2.4193  0.7860  1.5934
  738MOL0     H99592   1.233   0.152   2.440  0.5921 -0.2647 -0.3104
  738MOL0     H99593   1.140   0.007   2.407 -2.2794 -0.2193  1.2015
  738MOL0     H99594   1.091  -0.393   2.905 -1.1441 -0.1376  0.7722
  738MOL0     H99595   0.913  -0.506   2.983  1.8591  1.2435  0.8211
  738MOL0     H99596   0.750  -0.684   3.013  0.2359  0.8429  0.2339
  738MOL0     H99597   0.681  -0.517   3.007  2.8114 -0.1855  0.3451
  738MOL0     H99598   0.528  -0.784   2.923 -0.8606 -0.5853  0.0729
  738MOL0     H99599   0.524  -0.711   3.080 -1.7966 -1.0891 -1.0680
  738MOL0     H99600   0.429  -0.497   2.972 -0.9115  0.4330 -0.5605
  738MOL0     H99601   0.318  -0.636   2.969 -1.7935  0.9749 -2.8648
  738MOL0     H99602   0.470  -0.532   2.723 -0.5278 -0.9266 -1.9496
  738MOL0     H99603   0.411  -0.694   2.737 -1.1069  0.5840  0.9849
  738MOL0     H99604   0.176  -0.598   2.776  0.9496 -2.9800 -0.0252
  738MOL0     H99605   0.262  -0.564   2.621  0.0843  0.4481  0.8882
  738MOL0     H99606   0.240  -0.373   2.844  0.2131 -0.2210  0.0538
  738MOL0     H99607   0.347  -0.362   2.704  0.5950  0.0568  1.5096
  738MOL0     H99608   0.048  -0.414   2.682  0.6517 -1.1940 -3.1388
  738MOL0     H99609   0.158  -0.346   2.554 -0.2737  1.5446 -0.6184
  738MOL0     H99610   0.107  -0.184   2.808  3.9918 -1.4807 -0.6988
  738MOL0     H99611  -0.013  -0.175   2.675 -0.1596  2.4778  0.4513
  738MOL0     H99612   0.768  -0.596   2.591  1.3877 -1.6596  0.8851
  738MOL0     H99613   0.991  -0.489   2.499  0.0795  3.3105  0.8311
  738MOL0     H99614   1.407  -0.329   2.658 -0.2933 -2.1162 -5.0645
  738MOL0     H99615   1.609  -0.220   2.646  1.4583 -1.1544 -0.9847
  738MOL0     H99616   3.184   0.945   2.134 -1.6020 -1.2293 -2.3070
  738MOL0     H99617   3.392   0.857   2.239  1.8373 -2.9547  1.9128
  738MOL0     H99618   3.591   0.741   2.702 -2.0141  1.7700 -3.8434
  738MOL0     H99619   3.818   0.637   2.773 -0.0326 -2.4509  0.3831
  738MOL0     H99620   4.077   0.672   2.666 -0.9963 -0.2615  0.5522
  738MOL0     H99621   4.005   0.596   2.812  1.6737 -0.7634  2.0731
  738MOL0     H99622   4.218   0.490   2.646 -0.2045  3.6329 -0.7659
  738MOL0     H99623   4.169   0.420   2.810 -0.3598  1.4475  0.8879
  738MOL0     H99624   4.256   0.626   2.927 -0.9695  0.3098 -0.5684
  738MOL0     H99625   4.329   0.667   2.762 -3.3988  1.5793 -0.7468
  738MOL0     H99626   4.447   0.448   2.762 -1.3487  0.0432 -0.4949
  738MOL0     H99627   4.366   0.408   2.911  0.5814 -0.4999 -0.9476
  738MOL0     H99628   4.670   0.686   3.033 -2.6494  2.3942  2.6354
  738MOL0     H99629   3.842   0.411   2.430  0.2327 -0.4925  1.3384
  738MOL0     H99630   3.617   0.473   2.353  0.0711 -0.4379  0.3188
  739MOL0     O99631   0.940   7.352   8.675  0.7745 -0.3925 -0.3456
  739MOL0     C99632   0.952   7.411   8.784 -0.2619  0.9977  0.4516
  739MOL0     O99633   0.861   7.497   8.840  0.3576 -0.2680  0.5790
  739MOL0     C99634   0.737   7.502   8.784  0.1591 -0.1576  0.5630
  739MOL0     C99635   0.698   7.592   8.694  0.0147  0.0612  0.3736
  739MOL0     C99636   0.580   7.583   8.637  0.7650  0.7666 -0.2252
  739MOL0     C99637   0.491   7.478   8.666 -0.0306  0.0103  0.2097
  739MOL0     O99638   0.380   7.476   8.587  0.0888  0.1037 -0.4814
  739MOL0     C99639   0.279   7.387   8.618  0.8692  0.1338  0.0704
  739MOL0     C99640   0.182   7.393   8.493  0.0985 -0.5628  0.4769
  739MOL0     C99641   0.076   7.292   8.496 -0.0872 -0.0975  0.7326
  739MOL0     C99642  -0.050   7.346   8.429  0.0192 -0.5689 -0.4288
  739MOL0     C99643  -0.164   7.240   8.433 -0.3122 -0.1442  1.0023
  739MOL0     C99644  -0.294   7.322   8.419 -0.0560 -0.4380  0.2363
  739MOL0     C99645  -0.400   7.222   8.417  0.5565 -0.3131 -0.2008
  739MOL0     C99646  -0.532   7.305   8.419 -0.2383  0.6367  1.2070
  739MOL0     N99647  -0.661   7.225   8.426 -0.3729 -0.5904 -0.7794
  739MOL0     C99648  -0.680   7.097   8.480 -0.8261  0.2462  0.1945
  739MOL0     C99649  -0.813   7.071   8.468  0.9350  0.5054 -0.2074
  739MOL0     C99650  -0.888   6.939   8.489 -0.2220 -0.6208 -0.5745
  739MOL0     C99651  -0.944   6.868   8.357 -0.0429 -0.0470 -0.7480
  739MOL0     C99652  -1.074   6.940   8.317  1.5543 -0.0591  0.3759
  739MOL0     C99653  -1.144   6.875   8.195 -0.5526  0.7386 -0.7822
  739MOL0     O99654  -1.237   6.976   8.158  0.5771 -0.0736  0.6425
  739MOL0     C99655  -1.364   6.978   8.210 -0.5754  0.3495  0.6468
  739MOL0     C99656  -1.449   7.088   8.174  0.9801 -0.3252  0.5937
  739MOL0     C99657  -1.583   7.099   8.222  0.3641  0.4454 -0.2389
  739MOL0     C99658  -1.666   7.216   8.170  0.7733 -0.6505  0.4133
  739MOL0     C99659  -1.636   6.991   8.307 -0.8764 -0.7306  0.4351
  739MOL0     C99660  -1.771   6.988   8.377  0.4000 -0.1204  0.6763
  739MOL0     O99661  -1.873   7.059   8.326 -0.1192 -0.5805 -0.4790
  739MOL0     C99662  -1.991   7.087   8.390 -0.0601 -0.4810  0.4102
  739MOL0     C99663  -2.039   7.049   8.516 -0.6437  0.0567 -1.1809
  739MOL0     C99664  -2.173   7.070   8.554  0.5864 -0.5684 -0.9093
  739MOL0     C99665  -2.264   7.145   8.470 -0.6323 -0.2793  0.5905
  739MOL0     O99666  -2.379   7.174   8.534  0.7435 -0.2523 -0.2849
  739MOL0     C99667  -2.462   7.284   8.496  0.2714 -0.0207  0.0825
  739MOL0     C99668  -2.596   7.296   8.570 -0.1393  0.3299  0.0948
  739MOL0     C99669  -2.574   7.344   8.715  0.8361 -0.6575 -0.8785
  739MOL0     C99670  -2.696   7.363   8.797  0.0580  0.5332  0.1416
  739MOL0     C99671  -2.659   7.364   8.950 -0.0269 -0.6212 -0.3211
  739MOL0     C99672  -2.554   7.473   8.987  0.6284 -0.0290  0.1715
  739MOL0     C99673  -2.517   7.440   9.133 -0.2093  0.6425  0.1486
  739MOL0     C99674  -2.392   7.514   9.188 -0.3107  0.2679  0.3260
  739MOL0    Cl99675  -2.346   7.470   9.353  0.1904  0.1976  0.0464
  739MOL0     C99676  -2.211   7.188   8.349 -0.6874 -0.3712 -0.6553
  739MOL0     C99677  -2.078   7.157   8.309 -0.1405  0.2143  0.6501
  739MOL0     O99678  -1.778   6.923   8.480  0.1083  0.4528  0.2442
  739MOL0     C99679  -1.553   6.885   8.340 -0.2928 -0.6917  0.2663
  739MOL0     C99680  -1.419   6.880   8.299 -0.0426 -0.3924 -0.2780
  739MOL0     N99681  -0.869   7.188   8.411 -0.4655 -0.0392 -0.0699
  739MOL0     N99682  -0.782   7.275   8.394 -0.2400  0.3084  0.1181
  739MOL0     C99683   0.514   7.403   8.777  0.6355  0.1418 -0.1031
  739MOL0     C99684   0.631   7.427   8.846 -0.2601 -0.5975  0.3334
  739MOL0     C99685   1.083   7.401   8.846 -0.6138 -0.2600 -0.4674
  739MOL0     C99686   1.111   7.459   8.975 -0.2027 -0.6488 -0.3390
  739MOL0     C99687   1.234   7.449   9.039 -0.3075 -1.0676  0.3865
  739MOL0     C99688   1.330   7.377   8.973 -0.1843  0.1702  0.3950
  739MOL0     O99689   1.453   7.347   9.032 -0.0029  0.1163 -0.1134
  739MOL0     C99690   1.481   7.378   9.167  0.0554  0.2747  0.0545
  739MOL0     C99691   1.603   7.318   9.216  0.6160 -0.2100 -0.0547
  739MOL0     C99692   1.734   7.353   9.149 -0.1622 -1.5407  0.4506
  739MOL0     C99693   1.742   7.503   9.097  0.3149  0.3362 -0.9931
  739MOL0     C99694   1.879   7.546   9.072 -0.3297  0.5403  0.5322
  739MOL0     C99695   1.990   7.583   9.056 -0.1043  0.0263 -0.0516
  739MOL0     C99696   1.312   7.325   8.844 -0.5899 -0.1617  0.2225
  739MOL0     C99697   1.186   7.334   8.784 -0.6034  0.5501  0.4525
  739MOL0     H99698   0.764   7.670   8.660 -0.0222  0.2394  0.7102
  739MOL0     H99699   0.555   7.659   8.562  2.1942  2.8513  1.2816
  739MOL0     H99700   0.316   7.286   8.638  0.3182  0.1881  1.4894
  739MOL0     H99701   0.221   7.418   8.704  0.1834 -0.2400 -0.2494
  739MOL0     H99702   0.138   7.493   8.481 -0.3021 -0.8224 -0.2668
  739MOL0     H99703   0.241   7.369   8.403 -0.6431 -0.5355 -0.0249
  739MOL0     H99704   0.110   7.202   8.445 -1.2898  0.6870 -1.5996
  739MOL0     H99705   0.055   7.262   8.599 -3.1528  0.2846  0.3262
  739MOL0     H99706  -0.086   7.431   8.487 -1.4454 -0.7266 -1.0592
  739MOL0     H99707  -0.021   7.370   8.326 -0.7132 -2.2460 -1.0709
  739MOL0     H99708  -0.145   7.163   8.357  1.6609  2.3171 -1.1970
  739MOL0     H99709  -0.163   7.193   8.532 -1.0027 -2.2245  0.0540
  739MOL0     H99710  -0.305   7.398   8.497 -0.5006  1.0201 -1.2103
  739MOL0     H99711  -0.291   7.378   8.326 -1.3513 -0.6180  0.0662
  739MOL0     H99712  -0.395   7.153   8.332 -2.4187 -0.3870 -0.4372
  739MOL0     H99713  -0.388   7.170   8.512  3.7312 -0.2177 -0.4557
  739MOL0     H99714  -0.530   7.374   8.334 -0.6913 -0.4255  0.3030
  739MOL0     H99715  -0.531   7.369   8.507  1.4669  2.6090 -0.1452
  739MOL0     H99716  -0.596   7.040   8.520 -0.9287  0.6371  0.9791
  739MOL0     H99717  -0.813   6.879   8.540 -0.3904 -2.2899 -2.2038
  739MOL0     H99718  -0.974   6.963   8.552  0.1973  1.6958 -0.8008
  739MOL0     H99719  -0.979   6.769   8.386 -1.5032  0.8616  0.7669
  739MOL0     H99720  -0.859   6.874   8.289 -1.0796 -0.6121 -2.1361
  739MOL0     H99721  -1.055   7.042   8.282 -0.5141 -0.5924 -2.6708
  739MOL0     H99722  -1.149   6.952   8.396 -1.9953 -0.4512 -2.6635
  739MOL0     H99723  -1.182   6.777   8.227  0.3648  0.3374 -0.8923
  739MOL0     H99724  -1.074   6.858   8.113  0.7907 -1.1135  0.6387
  739MOL0     H99725  -1.411   7.173   8.119 -1.7226  0.4174 -0.3091
  739MOL0     H99726  -1.736   7.183   8.093 -2.0172 -2.1691  3.3412
  739MOL0     H99727  -1.723   7.254   8.256  0.3572 -1.1107  0.3483
  739MOL0     H99728  -1.607   7.306   8.149  0.0607 -0.2293  0.1889
  739MOL0     H99729  -1.982   6.992   8.588 -3.2640 -1.7103 -0.3608
  739MOL0     H99730  -2.200   7.053   8.658  2.3817 -1.4791 -0.5501
  739MOL0     H99731  -2.408   7.379   8.494  2.1235 -1.0259 -2.5064
  739MOL0     H99732  -2.491   7.286   8.391 -2.1262  4.4272  0.5924
  739MOL0     H99733  -2.650   7.373   8.512  3.4308  1.2442 -2.3324
  739MOL0     H99734  -2.651   7.202   8.576  0.3481 -0.0123 -0.6240
  739MOL0     H99735  -2.519   7.437   8.700 -0.4258 -0.0902 -2.3309
  739MOL0     H99736  -2.514   7.263   8.757 -1.0436 -1.2250  0.8920
  739MOL0     H99737  -2.751   7.454   8.770 -1.3175 -0.0444  0.8687
  739MOL0     H99738  -2.767   7.286   8.765 -0.6283  0.9092  0.7227
  739MOL0     H99739  -2.611   7.269   8.976 -2.8005 -2.1131 -0.3049
  739MOL0     H99740  -2.752   7.378   9.005  0.3802 -1.1079  0.4978
  739MOL0     H99741  -2.464   7.454   8.927 -0.1082 -0.1137 -0.9361
  739MOL0     H99742  -2.589   7.576   8.985 -0.9046 -0.5175 -1.5508
  739MOL0     H99743  -2.498   7.332   9.138  0.7431  0.8322  0.9597
  739MOL0     H99744  -2.600   7.456   9.203  0.0362 -1.8242  1.1027
  739MOL0     H99745  -2.410   7.622   9.196 -0.7521  0.1051  1.7962
  739MOL0     H99746  -2.307   7.490   9.123 -0.0389 -1.8232  1.3556
  739MOL0     H99747  -2.278   7.241   8.283  0.6533 -0.6741 -2.3400
  739MOL0     H99748  -2.047   7.202   8.216 -1.7115  2.3708  1.0900
  739MOL0     H99749  -1.585   6.804   8.405 -0.5249  0.3175  1.4449
  739MOL0     H99750  -1.356   6.793   8.316  1.0085 -0.0568 -2.1822
  739MOL0     H99751   0.446   7.325   8.809  2.4666 -0.6009  2.2996
  739MOL0     H99752   0.648   7.358   8.928 -1.1458  0.1289  1.1491
  739MOL0     H99753   1.035   7.525   9.015 -1.6734 -0.7373 -2.7639
  739MOL0     H99754   1.251   7.501   9.133  0.7738 -0.0960 -0.3301
  739MOL0     H99755   1.500   7.485   9.179  1.6380 -0.2234  2.8832
  739MOL0     H99756   1.393   7.344   9.222  0.9282 -2.6617 -0.2152
  739MOL0     H99757   1.594   7.210   9.201 -1.6461  0.1545 -2.0168
  739MOL0     H99758   1.613   7.351   9.319  0.6865  0.6264 -0.3192
  739MOL0     H99759   1.753   7.289   9.062 -2.9900 -0.4018 -1.1322
  739MOL0     H99760   1.800   7.342   9.235  0.2997  1.1799  0.5295
  739MOL0     H99761   1.695   7.577   9.163 -1.5933  0.0861 -1.9943
  739MOL0     H99762   1.690   7.507   9.001  1.0366  1.1551 -1.3636
  739MOL0     H99763   2.088   7.626   9.052 -0.7699  1.5695 -0.5353
  739MOL0     H99764   1.402   7.287   8.797 -1.9367 -1.6059 -1.3162
  739MOL0     H99765   1.164   7.296   8.685 -1.4832 -0.2157  0.9177
  740MOL0     O99766   0.961   4.051   0.096  0.5956 -0.4249 -0.5114
  740MOL0     C99767   1.007   3.954   0.035  0.0863  0.9165  0.0594
  740MOL0     O99768   0.932   3.849  -0.014  0.3884  0.0698  0.0503
  740MOL0     C99769   0.795   3.868  -0.015 -0.3240 -1.1291  0.1091
  740MOL0     C99770   0.735   3.979  -0.078 -0.3693 -0.6569  0.8368
  740MOL0     C99771   0.596   3.987  -0.080 -0.5322 -0.0040 -0.5136
  740MOL0     C99772   0.513   3.894  -0.013  0.3412  0.2579 -0.3090
  740MOL0     O99773   0.379   3.926  -0.008  0.3799 -0.2308  0.5570
  740MOL0     C99774   0.278   3.827  -0.016  0.1904 -0.1592  0.1599
  740MOL0     C99775   0.180   3.872  -0.117  0.5581  0.6049  0.4559
  740MOL0     C99776   0.047   3.795  -0.103 -0.3660 -0.3923  1.3743
  740MOL0     C99777  -0.076   3.852  -0.184  0.4205  0.5238 -0.8590
  740MOL0     C99778  -0.194   3.753  -0.179  1.0483 -0.4585  0.2557
  740MOL0     C99779  -0.317   3.813  -0.250 -0.0702  0.2354  0.4007
  740MOL0     C99780  -0.413   3.704  -0.242 -0.3389  0.8808  0.3526
  740MOL0     C99781  -0.547   3.748  -0.289 -0.2135 -0.2324  0.5312
  740MOL0     N99782  -0.559   3.754  -0.438  0.7587 -0.1425  0.1778
  740MOL0     C99783  -0.628   3.660  -0.509  0.1486  0.1784  0.4679
  740MOL0     C99784  -0.593   3.682  -0.633 -0.6347  0.0719 -0.1639
  740MOL0     C99785  -0.638   3.597  -0.757  0.4041  0.7958 -0.7104
  740MOL0     C99786  -0.778   3.545  -0.763 -0.3713 -0.5918 -0.7378
  740MOL0     C99787  -0.874   3.652  -0.819  0.7875  0.1098  0.2716
  740MOL0     C99788  -1.017   3.616  -0.824  0.0200  0.5810 -0.7524
  740MOL0     O99789  -1.066   3.563  -0.694  0.4207  0.0990 -0.4943
  740MOL0     C99790  -1.204   3.518  -0.696 -0.1921 -0.2807 -0.3577
  740MOL0     C99791  -1.262   3.500  -0.570 -0.2520 -0.0522  0.4559
  740MOL0     C99792  -1.397   3.452  -0.549 -0.8187 -0.1779  0.3246
  740MOL0     C99793  -1.435   3.431  -0.401  0.0242  0.8543 -0.4774
  740MOL0     C99794  -1.471   3.426  -0.662  1.1455  0.0575  0.3203
  740MOL0     C99795  -1.612   3.387  -0.663  0.3527  0.2187 -0.1257
  740MOL0     O99796  -1.692   3.423  -0.769 -0.0192  0.3125 -0.3220
  740MOL0     C99797  -1.829   3.411  -0.766 -0.1969  0.1507 -0.1424
  740MOL0     C99798  -1.893   3.288  -0.756  0.0799  0.0244  0.0210
  740MOL0     C99799  -2.029   3.284  -0.750 -0.2103 -0.1547  0.0098
  740MOL0     C99800  -2.116   3.389  -0.773  0.1050 -0.4271 -0.7980
  740MOL0     O99801  -2.256   3.358  -0.787  0.1804 -0.8474  0.3918
  740MOL0     C99802  -2.357   3.464  -0.795 -0.0455  0.6078 -0.0950
  740MOL0     C99803  -2.497   3.391  -0.805  0.0245  0.7478 -0.2718
  740MOL0     C99804  -2.605   3.500  -0.845 -0.7754 -0.0684  0.4230
  740MOL0     C99805  -2.740   3.473  -0.788  0.2101  0.2865  0.2153
  740MOL0     C99806  -2.819   3.595  -0.816  0.3177 -0.5492 -0.5555
  740MOL0     C99807  -2.960   3.597  -0.763  0.6699 -0.2121  0.1761
  740MOL0     C99808  -3.040   3.724  -0.812  0.6562  0.3179 -0.1183
  740MOL0     C99809  -3.179   3.735  -0.750 -0.2012 -0.4222 -0.5409
  740MOL0    Cl99810  -3.278   3.877  -0.812  0.0713  0.6102  0.0810
  740MOL0     C99811  -2.048   3.513  -0.780 -0.2158 -0.1239  0.5396
  740MOL0     C99812  -1.912   3.522  -0.774 -0.9149  0.1255  0.3158
  740MOL0     O99813  -1.642   3.314  -0.564 -0.1745 -0.2965  0.2478
  740MOL0     C99814  -1.407   3.446  -0.793  1.6567  0.2117 -0.6468
  740MOL0     C99815  -1.279   3.497  -0.810  0.0754  0.1724  0.0732
  740MOL0     N99816  -0.521   3.800  -0.635 -0.2199 -0.0109  0.0467
  740MOL0     N99817  -0.498   3.844  -0.518 -1.1888  0.3420 -0.0919
  740MOL0     C99818   0.570   3.781   0.033  0.1620  0.0383 -0.5546
  740MOL0     C99819   0.711   3.766   0.032  0.2527  0.3184 -0.7725
  740MOL0     C99820   1.144   3.932   0.029 -0.2343 -0.6965 -0.0268
  740MOL0     C99821   1.198   3.805   0.002  0.0212  0.7124  0.7100
  740MOL0     C99822   1.333   3.770   0.010  0.1538  0.3822 -0.7263
  740MOL0     C99823   1.420   3.874   0.054  0.2417 -0.6792  0.0275
  740MOL0     O99824   1.549   3.853   0.087 -0.4428 -0.2720 -0.4432
  740MOL0     C99825   1.619   3.744   0.023 -0.0186 -0.1778 -0.0318
  740MOL0     C99826   1.774   3.769   0.024 -0.1001  0.7849 -0.1604
  740MOL0     C99827   1.862   3.667  -0.043  0.6967  0.1847 -0.5425
  740MOL0     C99828   1.825   3.516  -0.013 -0.3236  0.1533  0.1980
  740MOL0     C99829   1.929   3.424  -0.064 -0.3714 -0.2276 -0.5500
  740MOL0     C99830   2.020   3.349  -0.108  0.1544 -0.4015 -0.8833
  740MOL0     C99831   1.364   4.004   0.088 -0.4716  0.1469 -0.3913
  740MOL0     C99832   1.233   4.032   0.071  0.4318 -0.1713  0.9980
  740MOL0     H99833   0.792   4.054  -0.132  0.3297 -1.2006  0.7911
  740MOL0     H99834   0.560   4.081  -0.120  0.6039  1.6580  2.1174
  740MOL0     H99835   0.315   3.729  -0.046  0.7254  0.2792 -0.6505
  740MOL0     H99836   0.237   3.814   0.085  1.9529  0.3896  0.9864
  740MOL0     H99837   0.167   3.980  -0.104  1.7492  0.6944  1.0494
  740MOL0     H99838   0.216   3.860  -0.220 -0.6858 -2.3102  0.2663
  740MOL0     H99839   0.063   3.688  -0.123 -1.3501 -0.5550  1.3695
  740MOL0     H99840   0.018   3.814   0.000 -0.8417  0.4221  1.1036
  740MOL0     H99841  -0.100   3.949  -0.139  1.4802  0.7063 -0.6600
  740MOL0     H99842  -0.050   3.839  -0.290  1.9091 -3.2486 -0.2005
  740MOL0     H99843  -0.164   3.661  -0.229  0.1151 -0.8015  0.3033
  740MOL0     H99844  -0.219   3.731  -0.075  1.0918 -2.4401 -0.1088
  740MOL0     H99845  -0.352   3.899  -0.192 -0.1643  0.6056 -0.1987
  740MOL0     H99846  -0.292   3.839  -0.353 -0.1053 -0.1444  0.2951
  740MOL0     H99847  -0.370   3.611  -0.281  0.2782  1.0017  0.7147
  740MOL0     H99848  -0.431   3.670  -0.140 -1.3391  1.1578  0.2722
  740MOL0     H99849  -0.574   3.850  -0.257 -0.8932 -0.0980 -0.4359
  740MOL0     H99850  -0.623   3.685  -0.242 -2.1522  2.2740  0.9667
  740MOL0     H99851  -0.686   3.575  -0.473 -1.4573  1.1066  0.1742
  740MOL0     H99852  -0.621   3.656  -0.847 -1.7422 -3.3671 -4.1986
  740MOL0     H99853  -0.575   3.508  -0.753  0.1752  0.6232 -0.9792
  740MOL0     H99854  -0.803   3.510  -0.662  1.0154 -2.4145 -0.9805
  740MOL0     H99855  -0.789   3.459  -0.829 -2.2929 -0.7611 -0.2846
  740MOL0     H99856  -0.854   3.679  -0.923  0.7399  0.3312  0.3173
  740MOL0     H99857  -0.869   3.744  -0.759  0.1249  0.3816 -0.0741
  740MOL0     H99858  -1.031   3.556  -0.914  1.9372  1.4674 -1.6994
  740MOL0     H99859  -1.068   3.711  -0.842 -0.6794  0.2888 -0.3538
  740MOL0     H99860  -1.204   3.504  -0.478 -1.7725 -1.5195  1.5263
  740MOL0     H99861  -1.533   3.474  -0.376  0.6018  1.7025  0.3879
  740MOL0     H99862  -1.431   3.324  -0.379  1.0888  1.0783  0.4890
  740MOL0     H99863  -1.367   3.487  -0.336 -0.8734 -0.0752  1.3379
  740MOL0     H99864  -1.823   3.207  -0.738  1.5383  0.6234 -2.3375
  740MOL0     H99865  -2.075   3.187  -0.730 -0.0250 -0.1976  0.2296
  740MOL0     H99866  -2.355   3.527  -0.706  1.9875 -0.0072  0.3381
  740MOL0     H99867  -2.338   3.525  -0.884 -3.7052 -2.2446 -3.2217
  740MOL0     H99868  -2.494   3.310  -0.879  2.1445 -0.0958  0.6662
  740MOL0     H99869  -2.517   3.346  -0.708 -1.6155  2.7391  0.3855
  740MOL0     H99870  -2.609   3.501  -0.954 -2.0056 -1.4229  0.4227
  740MOL0     H99871  -2.560   3.587  -0.797  1.2227 -0.4451 -0.6489
  740MOL0     H99872  -2.776   3.388  -0.847  2.3830  0.7909 -2.0409
  740MOL0     H99873  -2.723   3.449  -0.683  3.2465 -0.7519 -0.3839
  740MOL0     H99874  -2.818   3.599  -0.925 -1.6645  0.5493 -0.5990
  740MOL0     H99875  -2.762   3.679  -0.775  1.7768 -1.8078  0.0876
  740MOL0     H99876  -3.021   3.515  -0.801  2.9886 -1.6769 -0.5563
  740MOL0     H99877  -2.952   3.596  -0.654  1.8948  1.7028  0.1520
  740MOL0     H99878  -3.051   3.713  -0.920 -1.3480  3.3142 -0.3318
  740MOL0     H99879  -2.977   3.808  -0.783  1.6230 -0.4167 -0.0391
  740MOL0     H99880  -3.164   3.736  -0.642  0.6145 -4.5396 -0.4462
  740MOL0     H99881  -3.229   3.640  -0.770  0.2287 -1.3928  2.5425
  740MOL0     H99882  -2.122   3.592  -0.792  0.1036  0.3413  1.5744
  740MOL0     H99883  -1.867   3.621  -0.774  2.1343 -1.1291 -1.9180
  740MOL0     H99884  -1.462   3.432  -0.886 -0.5868  0.3814  0.5808
  740MOL0     H99885  -1.251   3.495  -0.915 -2.1783  2.6582 -0.7017
  740MOL0     H99886   0.507   3.700   0.070  1.6726 -0.3627  1.3419
  740MOL0     H99887   0.761   3.681   0.078  2.1730  1.4395 -0.6863
  740MOL0     H99888   1.140   3.718  -0.029  0.8293 -0.4628  2.3729
  740MOL0     H99889   1.370   3.670  -0.010  0.2297  0.1610  0.4147
  740MOL0     H99890   1.593   3.644   0.061  1.4019 -0.7463 -0.4927
  740MOL0     H99891   1.597   3.739  -0.084  0.5032  2.4510 -0.3251
  740MOL0     H99892   1.810   3.780   0.127  0.1031 -2.2378  0.1944
  740MOL0     H99893   1.803   3.862  -0.025 -0.3101  2.2244  2.3171
  740MOL0     H99894   1.963   3.680  -0.005  1.0136  0.4609 -1.4421
  740MOL0     H99895   1.856   3.686  -0.151 -3.3757  0.8785 -0.3470
  740MOL0     H99896   1.729   3.489  -0.058  0.9497 -3.1359 -0.8726
  740MOL0     H99897   1.808   3.500   0.094 -0.9978  1.4750  0.3093
  740MOL0     H99898   2.102   3.282  -0.129  0.6075 -1.4649  3.3886
  740MOL0     H99899   1.435   4.072   0.133  0.1272  0.5522 -1.8940
  740MOL0     H99900   1.196   4.131   0.094  2.3698  1.4419 -2.1024
  741MOL0     O99901  10.716   9.826   2.874  0.1406  0.7328  0.3316
  741MOL0     C99902  10.746   9.860   2.987  0.3044 -0.3908  0.4249
  741MOL0     O99903  10.659   9.914   3.077  0.0160  0.1783 -0.2298
  741MOL0     C99904  10.521   9.898   3.060  0.2223 -0.3693 -0.7836
  741MOL0     C99905  10.446   9.932   2.943 -0.6908  0.6217  0.2081
  741MOL0     C99906  10.305   9.944   2.944  0.9797 -0.3569 -0.0403
  741MOL0     C99907  10.242   9.894   3.058  0.1967  0.2347 -1.0515
  741MOL0     O99908  10.106   9.905   3.081  0.0265 -0.5001  0.7435
  741MOL0     C99909  10.018   9.932   2.969  0.8164 -0.2811 -1.0639
  741MOL0     C99910  10.017  10.083   2.938  0.9555 -0.9989 -0.5380
  741MOL0     C99911   9.886  10.153   2.984  0.3284 -0.0076  0.6553
  741MOL0     C99912   9.849  10.266   2.884  0.7443 -0.4051  0.4070
  741MOL0     C99913   9.736  10.360   2.938  0.3998  0.0385  0.3690
  741MOL0     C99914   9.598  10.296   2.949  0.4741 -0.3319 -0.2581
  741MOL0     C99915   9.510  10.399   3.015 -0.2359 -0.6056  0.7153
  741MOL0     C99916   9.488  10.528   2.934 -0.5973  0.6655  0.0744
  741MOL0     N99917   9.366  10.595   2.967  0.3039 -0.3490  0.8429
  741MOL0     C99918   9.357  10.710   3.045 -1.0114 -0.9559  0.4282
  741MOL0     C99919   9.227  10.721   3.069 -0.1225  0.2012  0.2063
  741MOL0     C99920   9.161  10.824   3.149 -0.2765  0.1914  0.2550
  741MOL0     C99921   9.198  10.809   3.305 -0.7800 -0.1499  0.4395
  741MOL0     C99922   9.173  10.672   3.367 -0.2332 -0.6525 -0.1607
  741MOL0     C99923   9.028  10.634   3.363 -0.3551  0.1071  0.4371
  741MOL0     O99924   8.954  10.736   3.435 -0.0780 -0.0431 -0.0647
  741MOL0     C99925   8.816  10.741   3.428  0.4781  0.9416  0.2608
  741MOL0     C99926   8.763  10.856   3.488 -0.4195 -0.1229 -0.3065
  741MOL0     C99927   8.628  10.882   3.486  0.6173  0.0815  0.3434
  741MOL0     C99928   8.589  11.010   3.556  0.2109 -0.3350 -0.1884
  741MOL0     C99929   8.535  10.789   3.422 -0.4673 -0.4498 -0.2839
  741MOL0     C99930   8.390  10.823   3.418 -0.5058 -0.1988 -0.3043
  741MOL0     O99931   8.323  10.718   3.370  0.1017 -0.5206 -0.2053
  741MOL0     C99932   8.193  10.754   3.345  0.4260 -0.1667 -0.2620
  741MOL0     C99933   8.097  10.698   3.425 -0.3892  0.2146  0.0405
  741MOL0     C99934   7.955  10.718   3.401  0.1757  0.1959  0.0598
  741MOL0     C99935   7.917  10.793   3.294 -0.1727 -0.5614  0.4956
  741MOL0     O99936   7.792  10.815   3.242  0.0567 -0.9166  0.4258
  741MOL0     C99937   7.677  10.748   3.304 -0.4774 -0.3368  1.1164
  741MOL0     C99938   7.544  10.816   3.283 -0.3907 -0.0725  0.8856
  741MOL0     C99939   7.520  10.822   3.129 -1.1246  0.6047  0.3056
  741MOL0     C99940   7.382  10.880   3.104 -0.0530  0.5632 -0.5758
  741MOL0     C99941   7.384  11.024   3.120  0.3082 -0.4653  0.2822
  741MOL0     C99942   7.240  11.076   3.121 -0.2126  0.3520 -0.6076
  741MOL0     C99943   7.243  11.224   3.091 -0.4320  0.7626 -1.2681
  741MOL0     C99944   7.111  11.283   3.059 -0.8214  0.4290  0.3111
  741MOL0    Cl99945   6.993  11.276   3.196  0.0111  0.0020 -0.3926
  741MOL0     C99946   8.014  10.851   3.218 -0.7199  0.2611  0.3358
  741MOL0     C99947   8.147  10.830   3.234  0.1607  0.5511  0.3720
  741MOL0     O99948   8.352  10.934   3.423  0.0666  0.2112 -1.1088
  741MOL0     C99949   8.592  10.675   3.368 -0.5270  0.0353  1.0720
  741MOL0     C99950   8.728  10.648   3.370 -0.0340  0.3795  0.1469
  741MOL0     N99951   9.152  10.616   3.000 -0.6704 -0.0999 -0.2699
  741MOL0     N99952   9.246  10.543   2.946 -0.6242  0.5790 -0.1156
  741MOL0     C99953  10.308   9.829   3.163  0.2775 -0.6874  0.1658
  741MOL0     C99954  10.449   9.841   3.172 -0.0056  0.0089  0.0292
  741MOL0     C99955  10.894   9.859   3.023 -0.6355  0.2644 -0.1492
  741MOL0     C99956  10.940   9.897   3.148 -0.1532 -0.2944 -0.5346
  741MOL0     C99957  11.078   9.903   3.172 -0.3160 -0.4171  0.1079
  741MOL0     C99958  11.174   9.867   3.076  0.0458  0.2473 -1.2930
  741MOL0     O99959  11.310   9.889   3.097  0.5454 -0.1100 -0.0069
  741MOL0     C99960  11.397   9.799   3.035 -0.0854 -1.5188  0.0104
  741MOL0     C99961  11.516   9.780   3.124  1.0937 -0.5500 -0.6815
  741MOL0     C99962  11.616   9.899   3.155 -0.3879  0.3356 -0.3852
  741MOL0     C99963  11.669   9.968   3.036 -0.5100 -0.9098 -0.6766
  741MOL0     C99964  11.778  10.069   3.075  0.4948 -0.3220 -0.2016
  741MOL0     C99965  11.859  10.151   3.098 -0.0281 -1.0150  0.9741
  741MOL0     C99966  11.125   9.810   2.961  0.7360  0.0997  0.2635
  741MOL0     C99967  10.989   9.805   2.931  0.5789 -0.1407 -0.4046
  741MOL0     H99968  10.499   9.956   2.852 -0.1644 -1.4535 -0.0925
  741MOL0     H99969  10.252   9.973   2.854 -0.0321 -1.8188  0.0610
  741MOL0     H99970  10.058   9.869   2.889  1.6684 -2.3099  0.8540
  741MOL0     H99971   9.920   9.895   3.001  0.7844 -0.4403 -1.3471
  741MOL0     H99972  10.107  10.118   2.990 -0.7054 -2.5816  3.8748
  741MOL0     H99973  10.031  10.100   2.831  1.2403  1.0856 -0.2148
  741MOL0     H99974   9.812  10.073   2.985  0.6802 -0.3443  0.4550
  741MOL0     H99975   9.907  10.166   3.090  0.5130 -3.2161  1.1345
  741MOL0     H99976   9.933  10.329   2.857  2.7551 -1.8069  2.9486
  741MOL0     H99977   9.824  10.231   2.783 -0.8649  0.8545  0.3333
  741MOL0     H99978   9.769  10.414   3.027  4.8545  3.3265 -2.7925
  741MOL0     H99979   9.721  10.441   2.865 -0.5960  0.0342  0.5497
  741MOL0     H99980   9.557  10.268   2.851 -1.7718  2.6803 -0.3412
  741MOL0     H99981   9.618  10.207   3.010  2.7764 -1.1858 -2.1235
  741MOL0     H99982   9.413  10.354   3.039 -0.6044 -0.1415  0.1236
  741MOL0     H99983   9.549  10.442   3.108 -0.3324  3.2978 -0.8839
  741MOL0     H99984   9.481  10.496   2.830 -0.3864 -3.9652  1.2657
  741MOL0     H99985   9.570  10.599   2.950  0.6592 -1.0589  1.8200
  741MOL0     H99986   9.436  10.763   3.097 -0.5049 -2.9771  1.8287
  741MOL0     H99987   9.187  10.922   3.109  2.1658 -1.1199 -1.6378
  741MOL0     H99988   9.052  10.812   3.150 -0.2909 -0.2306 -1.9367
  741MOL0     H99989   9.148  10.887   3.362  1.1796  0.6522  1.1544
  741MOL0     H99990   9.305  10.820   3.324 -0.8842 -0.7862  1.4832
  741MOL0     H99991   9.206  10.685   3.470  2.1171  0.0894 -0.9268
  741MOL0     H99992   9.243  10.599   3.324 -1.3209 -0.4536 -2.4036
  741MOL0     H99993   9.015  10.536   3.409  1.5250  0.0092  0.8288
  741MOL0     H99994   9.000  10.611   3.260  0.3271 -1.0801  0.5030
  741MOL0     H99995   8.838  10.921   3.532 -1.6183  1.7185 -0.8574
  741MOL0     H99996   8.493  11.008   3.608  1.4658 -1.4712  2.2502
  741MOL0     H99997   8.673  11.040   3.619 -0.0685  0.0287  0.0152
  741MOL0     H99998   8.596  11.085   3.477 -3.2614  0.7760  0.4003
  741MOL0     H99999   8.120  10.647   3.518 -0.3421 -0.8771 -0.5549
  741MOL0     H    0   7.883  10.656   3.453 -0.6198  1.2296  0.2352
  741MOL0     H    1   7.686  10.643   3.274 -0.7235 -0.0721  0.1140
  741MOL0     H    2   7.702  10.751   3.411  1.1612 -0.3991  0.7595
  741MOL0     H    3   7.464  10.767   3.340  0.2134 -0.2609  1.5880
  741MOL0     H    4   7.549  10.917   3.325 -0.6592 -0.6791  2.4441
  741MOL0     H    5   7.525  10.722   3.086  0.7787 -0.5090  2.8739
  741MOL0     H    6   7.595  10.884   3.080 -0.7716  0.3496  0.5171
  741MOL0     H    7   7.354  10.845   3.004  1.1832  0.3789 -0.8741
  741MOL0     H    8   7.314  10.842   3.180 -0.2679  0.2754 -0.9092
  741MOL0     H    9   7.445  11.071   3.042  0.2348 -1.1242 -0.1858
  741MOL0     H   10   7.429  11.048   3.216 -0.2795  1.2482  0.1667
  741MOL0     H   11   7.171  11.031   3.049 -4.2202 -0.6153  3.3836
  741MOL0     H   12   7.186  11.069   3.216 -2.7851  3.2900 -1.6474
  741MOL0     H   13   7.316  11.247   3.013  1.4501  1.1069  0.5309
  741MOL0     H   14   7.276  11.276   3.181 -0.0886  0.2706 -1.1042
  741MOL0     H   15   7.070  11.238   2.968  4.8038 -1.7530 -1.5660
  741MOL0     H   16   7.140  11.388   3.052  2.3148 -0.3232  0.6098
  741MOL0     H   17   7.980  10.897   3.126  0.1942 -0.3712 -0.3373
  741MOL0     H   18   8.212  10.877   3.160  0.4995  1.2627  1.1116
  741MOL0     H   19   8.536  10.600   3.314 -1.3642 -1.2198  3.5578
  741MOL0     H   20   8.760  10.557   3.320  1.1481  1.9307 -2.1290
  741MOL0     H   21  10.261   9.772   3.243  2.0590 -1.3169  0.8299
  741MOL0     H   22  10.497   9.801   3.260  3.0037  3.0178  0.0107
  741MOL0     H   23  10.871   9.929   3.225  0.0640 -1.2721  0.0882
  741MOL0     H   24  11.118   9.930   3.269 -0.1574 -2.8467  0.7668
  741MOL0     H   25  11.356   9.699   3.019 -0.6086 -0.9913 -2.2836
  741MOL0     H   26  11.430   9.830   2.935 -2.0662  0.1193 -0.1974
  741MOL0     H   27  11.569   9.698   3.074 -0.5454 -0.7325 -2.2018
  741MOL0     H   28  11.485   9.746   3.223  2.4599 -2.1911 -0.7735
  741MOL0     H   29  11.693   9.844   3.209 -1.9045  0.1903  1.7289
  741MOL0     H   30  11.554   9.974   3.204 -1.9605 -0.0222 -1.7216
  741MOL0     H   31  11.592  10.030   2.988  1.7678  0.8416 -2.3093
  741MOL0     H   32  11.703   9.892   2.965 -0.0601 -0.6165 -0.7771
  741MOL0     H   33  11.931  10.228   3.112 -0.5482 -0.8690  3.1671
  741MOL0     H   34  11.191   9.767   2.887 -0.6031 -0.0306 -0.8958
  741MOL0     H   35  10.974   9.757   2.835  2.1364  0.1032 -0.8064
  742MOL0     O   36   3.543   9.258   2.294 -0.5724 -0.2883 -0.1170
  742MOL0     C   37   3.536   9.262   2.415 -0.9082 -0.1101 -0.1640
  742MOL0     O   38   3.425   9.275   2.482 -0.1521 -0.2611 -0.9494
  742MOL0     C   39   3.309   9.319   2.432  0.2255  1.1525  0.1028
  742MOL0     C   40   3.287   9.409   2.323  0.2543  0.7892  0.0459
  742MOL0     C   41   3.159   9.436   2.287  1.1521  0.0369  0.2419
  742MOL0     C   42   3.045   9.373   2.352  0.0892 -0.4803  0.5251
  742MOL0     O   43   2.915   9.390   2.323 -0.7411  0.7517  0.5283
  742MOL0     C   44   2.870   9.473   2.215  0.5571 -0.0830 -0.9273
  742MOL0     C   45   2.863   9.624   2.251  0.3831 -0.1711 -0.4967
  742MOL0     C   46   2.805   9.651   2.389  0.0369  0.5474  0.0991
  742MOL0     C   47   2.728   9.787   2.410  0.2861  1.2823 -1.0485
  742MOL0     C   48   2.640   9.797   2.543 -1.1980 -0.0579  0.6661
  742MOL0     C   49   2.610   9.947   2.574 -0.3615  0.0673 -0.2404
  742MOL0     C   50   2.546   9.967   2.713 -0.8971 -0.4899  0.3659
  742MOL0     C   51   2.418   9.881   2.732 -0.3402 -0.1811 -0.5253
  742MOL0     N   52   2.299   9.922   2.657 -0.5270 -0.5242 -0.4576
  742MOL0     C   53   2.204   9.836   2.602  0.1783  0.0337 -0.2363
  742MOL0     C   54   2.099   9.912   2.573 -0.9018 -0.2996 -0.4000
  742MOL0     C   55   1.973   9.870   2.501  0.2108  0.2921  0.7890
  742MOL0     C   56   1.979   9.885   2.353  0.0413  0.5030 -0.8202
  742MOL0     C   57   1.844   9.897   2.281 -0.0323 -0.4823  0.3007
  742MOL0     C   58   1.759   9.772   2.307 -0.2816  0.7772 -0.4337
  742MOL0     O   59   1.716   9.768   2.441  0.8272  0.3960  0.5058
  742MOL0     C   60   1.581   9.765   2.460 -0.7498 -0.1470 -0.7621
  742MOL0     C   61   1.489   9.696   2.379  0.8303  0.2058 -0.3441
  742MOL0     C   62   1.352   9.692   2.410 -0.5602  0.4809  0.3111
  742MOL0     C   63   1.264   9.604   2.320 -0.6910  0.5340 -0.0605
  742MOL0     C   64   1.306   9.767   2.520 -0.1071 -0.5517  0.4375
  742MOL0     C   65   1.163   9.778   2.548  0.0188  0.0705 -0.1357
  742MOL0     O   66   1.089   9.663   2.548 -0.1250  0.3229  0.4991
  742MOL0     C   67   0.952   9.686   2.576 -0.9074 -0.8493 -0.1012
  742MOL0     C   68   0.876   9.783   2.512 -0.2724 -0.3815  0.0993
  742MOL0     C   69   0.739   9.797   2.523  0.1245  0.4073 -0.1633
  742MOL0     C   70   0.669   9.707   2.605 -0.3904  0.0823 -0.2316
  742MOL0     O   71   0.540   9.698   2.637 -0.1290  1.1005 -0.2446
  742MOL0     C   72   0.449   9.805   2.618  0.5712  0.0033 -0.2397
  742MOL0     C   73   0.305   9.756   2.637  0.3452  0.9607  0.7776
  742MOL0     C   74   0.204   9.862   2.583 -1.4413 -0.0347  0.1180
  742MOL0     C   75   0.056   9.854   2.648 -0.3937  0.0277 -0.1480
  742MOL0     C   76  -0.019   9.967   2.575  0.2355  0.0137  0.1034
  742MOL0     C   77  -0.170   9.945   2.597 -0.4384  0.1260 -0.3106
  742MOL0     C   78  -0.222   9.831   2.508 -0.4750  0.9810  0.1306
  742MOL0     C   79  -0.350   9.861   2.438 -0.2136  0.8099  0.1629
  742MOL0    Cl   80  -0.414   9.705   2.358 -0.4914 -0.1202  0.2718
  742MOL0     C   81   0.739   9.603   2.658 -0.6303  0.0743  0.0634
  742MOL0     C   82   0.882   9.600   2.647  1.3115  0.1943 -0.8744
  742MOL0     O   83   1.125   9.883   2.595 -0.9965  0.2264 -0.2963
  742MOL0     C   84   1.402   9.827   2.608  1.1414  0.1636 -0.4479
  742MOL0     C   85   1.539   9.821   2.582 -0.7407  0.0896 -0.3149
  742MOL0     N   86   2.136  10.045   2.601  0.3012  0.4020 -0.0713
  742MOL0     N   87   2.251  10.049   2.657  0.3913  0.0282  0.4657
  742MOL0     C   88   3.070   9.288   2.460  0.5893 -0.6345 -0.0403
  742MOL0     C   89   3.199   9.264   2.500  0.0874  0.1253 -0.3802
  742MOL0     C   90   3.668   9.268   2.487  0.6352  0.5183  0.1628
  742MOL0     C   91   3.794   9.284   2.417 -0.4691  0.1095 -0.2252
  742MOL0     C   92   3.912   9.284   2.492  0.8191  0.3927 -0.2705
  742MOL0     C   93   3.906   9.270   2.637  0.3247 -0.4038 -0.2909
  742MOL0     O   94   4.019   9.265   2.711  0.8367 -0.1108  0.7087
  742MOL0     C   95   4.153   9.288   2.665  0.5102 -0.2378 -0.5321
  742MOL0     C   96   4.239   9.327   2.782  0.1800 -0.4279  0.0417
  742MOL0     C   97   4.260   9.209   2.890  0.3050 -1.0230  0.3214
  742MOL0     C   98   4.398   9.253   2.955  0.3554  1.2608 -0.6484
  742MOL0     C   99   4.414   9.170   3.075 -0.1528  0.1309  0.4538
  742MOL0     C  100   4.440   9.099   3.166  0.6889  0.0448 -0.4646
  742MOL0     C  101   3.781   9.261   2.699 -1.3985 -0.2069 -0.0660
  742MOL0     C  102   3.669   9.260   2.626  0.1546 -0.6692 -0.7304
  742MOL0     H  103   3.374   9.450   2.274  0.2248  0.8305  0.0269
  742MOL0     H  104   3.147   9.498   2.199 -0.0787  0.2481  0.5398
  742MOL0     H  105   2.942   9.450   2.136  1.4775 -1.8525  0.3586
  742MOL0     H  106   2.773   9.432   2.187  0.1065  0.8990 -0.8525
  742MOL0     H  107   2.970   9.646   2.249  1.1358 -3.2382  1.0201
  742MOL0     H  108   2.810   9.676   2.171  0.4603 -0.2652 -0.6093
  742MOL0     H  109   2.735   9.571   2.415 -0.4307  0.6269 -0.8737
  742MOL0     H  110   2.896   9.647   2.449  0.3102  1.0096 -0.2778
  742MOL0     H  111   2.803   9.866   2.416  1.3167  0.2241  2.0713
  742MOL0     H  112   2.663   9.790   2.322 -3.9854 -1.2615  1.5970
  742MOL0     H  113   2.548   9.740   2.528 -2.1454  1.7730 -0.9820
  742MOL0     H  114   2.693   9.755   2.628 -0.6770 -1.7397 -0.4384
  742MOL0     H  115   2.687  10.017   2.542  0.2970  0.2343  1.6375
  742MOL0     H  116   2.531   9.982   2.506 -0.7295  1.3964  0.8354
  742MOL0     H  117   2.614   9.952   2.797 -1.1409 -0.8022  0.5067
  742MOL0     H  118   2.521  10.074   2.721  0.0287 -0.4258  5.4897
  742MOL0     H  119   2.399   9.899   2.838  3.0256  2.2094 -0.1619
  742MOL0     H  120   2.435   9.775   2.713 -1.0248  0.1771 -3.5915
  742MOL0     H  121   2.208   9.728   2.591 -0.2617  0.2066 -2.6436
  742MOL0     H  122   1.935   9.773   2.533 -0.2781 -0.2184 -1.2452
  742MOL0     H  123   1.900   9.942   2.540  0.2309  1.1054 -0.5912
  742MOL0     H  124   2.041   9.812   2.300 -0.3696 -1.0540  0.7561
  742MOL0     H  125   2.033   9.979   2.338  2.0769 -0.6760 -1.1616
  742MOL0     H  126   1.855   9.917   2.174 -0.2065 -1.2630  0.1307
  742MOL0     H  127   1.796   9.983   2.329 -1.1036  0.1246 -1.7770
  742MOL0     H  128   1.820   9.681   2.304 -1.4655 -0.3213  3.4678
  742MOL0     H  129   1.688   9.768   2.224  0.5174 -2.2278 -1.0662
  742MOL0     H  130   1.536   9.645   2.296  1.7931 -1.3283  1.0923
  742MOL0     H  131   1.178   9.659   2.282 -0.5483 -0.7086 -2.3764
  742MOL0     H  132   1.314   9.554   2.236  0.7240  1.2112  0.3449
  742MOL0     H  133   1.223   9.519   2.376 -0.1766  0.6619  0.5200
  742MOL0     H  134   0.932   9.848   2.445  2.1212 -2.5964 -0.1859
  742MOL0     H  135   0.679   9.875   2.476 -0.4596 -0.5859 -1.1217
  742MOL0     H  136   0.468   9.884   2.691  0.4436 -1.8125  1.8619
  742MOL0     H  137   0.450   9.850   2.518 -0.6997  0.9594  0.1552
  742MOL0     H  138   0.287   9.668   2.575 -1.0869  0.2916  2.0924
  742MOL0     H  139   0.285   9.727   2.741 -0.5773 -2.7650 -0.2991
  742MOL0     H  140   0.199   9.856   2.474  2.5455 -1.2536 -0.1764
  742MOL0     H  141   0.233   9.961   2.621  1.4883 -1.2199  1.3351
  742MOL0     H  142   0.011   9.756   2.631  1.0277 -0.2941 -2.3866
  742MOL0     H  143   0.060   9.868   2.757 -1.3631  3.0565 -0.4148
  742MOL0     H  144   0.011   9.967   2.470  1.3319 -2.5990  0.3441
  742MOL0     H  145   0.020  10.061   2.614 -1.4240  0.9992 -0.5018
  742MOL0     H  146  -0.178   9.920   2.703 -1.1255 -2.5357 -0.9293
  742MOL0     H  147  -0.206  10.046   2.575 -2.4137 -0.1782  1.2331
  742MOL0     H  148  -0.236   9.744   2.573 -0.6841 -0.0316 -1.2169
  742MOL0     H  149  -0.143   9.805   2.437 -0.7186  0.0314  0.1828
  742MOL0     H  150  -0.332   9.944   2.369  0.2190  0.7158  0.1581
  742MOL0     H  151  -0.427   9.899   2.506  0.1471 -0.0612  1.0802
  742MOL0     H  152   0.688   9.537   2.727 -3.2562  1.4382 -0.4450
  742MOL0     H  153   0.936   9.519   2.694  1.1868  0.7690  0.2815
  742MOL0     H  154   1.370   9.867   2.703  2.9598  0.2068  0.1827
  742MOL0     H  155   1.613   9.870   2.644  1.0018 -2.5624 -0.1363
  742MOL0     H  156   2.989   9.233   2.507  1.4644 -1.8338  0.1146
  742MOL0     H  157   3.212   9.196   2.584 -1.6996  0.5255  0.2861
  742MOL0     H  158   3.790   9.287   2.309 -1.4617 -4.1748 -0.4642
  742MOL0     H  159   4.006   9.280   2.439 -0.7555 -2.4761 -3.1920
  742MOL0     H  160   4.200   9.201   2.618 -0.9611 -2.6983  2.2305
  742MOL0     H  161   4.150   9.361   2.583 -3.5273  1.4044  0.8026
  742MOL0     H  162   4.187   9.409   2.832  1.6912 -0.1731  1.2775
  742MOL0     H  163   4.333   9.366   2.742 -0.2144  1.3109  0.7301
  742MOL0     H  164   4.247   9.110   2.846 -0.0871 -0.4303 -0.9546
  742MOL0     H  165   4.188   9.222   2.971 -0.2278 -2.8903  0.1797
  742MOL0     H  166   4.399   9.358   2.984  0.1624  1.3984 -1.1358
  742MOL0     H  167   4.486   9.238   2.891 -0.5820  0.5226 -1.7971
  742MOL0     H  168   4.453   9.029   3.245 -2.3861 -0.6565 -0.4716
  742MOL0     H  169   3.785   9.245   2.807  3.3571  1.7699  0.2906
  742MOL0     H  170   3.571   9.248   2.671  0.0971 -0.4587 -0.7965
  743MOL0     O  171   9.245   8.206   4.510 -0.5944 -0.3917  0.2811
  743MOL0     C  172   9.287   8.299   4.578  0.7654  0.3479  0.5740
  743MOL0     O  173   9.220   8.417   4.606 -0.7593  0.0565  0.3145
  743MOL0     C  174   9.095   8.442   4.561  0.9169  0.2982 -0.3725
  743MOL0     C  175   8.995   8.346   4.561 -0.3487  0.1809 -0.1852
  743MOL0     C  176   8.863   8.366   4.546 -0.9565  0.3404  0.1038
  743MOL0     C  177   8.821   8.499   4.527 -0.9617 -0.3107  0.6033
  743MOL0     O  178   8.693   8.539   4.519 -0.1201  0.1846 -0.4375
  743MOL0     C  179   8.585   8.432   4.507  0.0409 -0.1445  0.0966
  743MOL0     C  180   8.447   8.509   4.514 -0.4452  0.7318  0.1482
  743MOL0     C  181   8.420   8.572   4.648 -0.2579  0.4177  0.5581
  743MOL0     C  182   8.341   8.480   4.745 -0.2412 -0.0820 -0.2470
  743MOL0     C  183   8.183   8.490   4.745  0.4968 -0.7108  0.2378
  743MOL0     C  184   8.118   8.377   4.822 -0.1266  1.0217 -0.4042
  743MOL0     C  185   7.976   8.413   4.865  0.0839 -0.5617 -0.7597
  743MOL0     C  186   7.917   8.296   4.944  0.4363 -0.3745  0.2890
  743MOL0     N  187   7.781   8.324   4.976 -0.3346 -0.0302  0.2961
  743MOL0     C  188   7.668   8.319   4.892  0.1116  0.0964 -0.4400
  743MOL0     C  189   7.561   8.359   4.966 -0.2009  0.6872 -0.3806
  743MOL0     C  190   7.419   8.362   4.908 -0.5449  0.3745  0.2106
  743MOL0     C  191   7.326   8.303   5.007  0.2487 -0.1667  0.8377
  743MOL0     C  192   7.194   8.369   4.998 -1.0044 -0.8104 -0.4199
  743MOL0     C  193   7.078   8.287   5.059  0.6389  0.6849 -0.2218
  743MOL0     O  194   6.952   8.362   5.049  0.8645 -0.1526 -0.2085
  743MOL0     C  195   6.837   8.313   5.100  0.9060 -0.3234 -0.9638
  743MOL0     C  196   6.829   8.190   5.160 -0.0381 -0.0282 -0.4373
  743MOL0     C  197   6.711   8.131   5.210 -0.2614 -0.5914 -0.1195
  743MOL0     C  198   6.715   7.988   5.255 -0.8454 -0.3120 -0.2491
  743MOL0     C  199   6.597   8.206   5.210  0.8074  0.1690 -0.0032
  743MOL0     C  200   6.458   8.154   5.266 -0.0380 -0.5968  0.0313
  743MOL0     O  201   6.357   8.223   5.208 -0.2766  0.8771  0.0494
  743MOL0     C  202   6.231   8.164   5.232 -0.5114  0.3804  0.8170
  743MOL0     C  203   6.149   8.230   5.325  0.0624 -0.6157  0.2575
  743MOL0     C  204   6.019   8.184   5.351  0.7079 -0.1566  0.0247
  743MOL0     C  205   5.975   8.067   5.292  0.3372 -0.1561 -0.7094
  743MOL0     O  206   5.854   8.000   5.322 -0.2568  0.8769  0.0290
  743MOL0     C  207   5.803   8.008   5.450 -0.9971 -0.4044  0.5150
  743MOL0     C  208   5.718   7.889   5.468  0.1371  0.2588 -0.5021
  743MOL0     C  209   5.651   7.869   5.607 -1.0113  0.7656  0.4697
  743MOL0     C  210   5.744   7.781   5.701 -0.4886 -0.5068 -1.0325
  743MOL0     C  211   5.681   7.786   5.843 -0.2085 -0.2816 -0.1009
  743MOL0     C  212   5.532   7.730   5.852  0.2623 -0.3854 -0.7577
  743MOL0     C  213   5.478   7.750   5.993  0.7995 -0.5244  0.5396
  743MOL0     C  214   5.327   7.710   6.000 -0.1817 -0.0594 -0.1967
  743MOL0    Cl  215   5.238   7.843   5.918  0.0301  0.5206  0.0533
  743MOL0     C  216   6.056   8.006   5.201 -0.0213  0.3823  0.0652
  743MOL0     C  217   6.181   8.046   5.172 -0.1628 -0.2035  0.3344
  743MOL0     O  218   6.451   8.071   5.352 -0.2244  0.6569 -0.0471
  743MOL0     C  219   6.599   8.334   5.142  0.2884  0.1857 -0.1540
  743MOL0     C  220   6.718   8.385   5.093 -0.0971  0.1511 -0.0748
  743MOL0     N  221   7.608   8.378   5.100 -0.1163 -0.0721  0.9316
  743MOL0     N  222   7.736   8.348   5.100  0.3199  0.2331  0.8314
  743MOL0     C  223   8.918   8.599   4.523  0.2708  0.0150 -0.6890
  743MOL0     C  224   9.052   8.571   4.536  0.1533  0.4035  1.6043
  743MOL0     C  225   9.422   8.301   4.624 -0.8621 -0.5480  0.4435
  743MOL0     C  226   9.513   8.203   4.576 -0.0943 -0.2974  0.4573
  743MOL0     C  227   9.649   8.200   4.602  0.7616 -0.4665  0.4441
  743MOL0     C  228   9.705   8.291   4.690  0.2098  0.5376  0.5914
  743MOL0     O  229   9.839   8.276   4.721  0.5027  0.1145 -0.3921
  743MOL0     C  230   9.869   8.294   4.856  0.6747  0.1217 -0.7842
  743MOL0     C  231  10.004   8.237   4.867  0.1341  0.6086  0.4086
  743MOL0     C  232  10.002   8.083   4.838  0.0164 -0.9773  0.7333
  743MOL0     C  233  10.136   8.015   4.823  0.6522 -0.1948  0.1472
  743MOL0     C  234  10.200   8.021   4.949  0.3463 -0.9594 -0.5203
  743MOL0     C  235  10.271   8.056   5.043  0.1123 -0.0205 -0.2223
  743MOL0     C  236   9.618   8.383   4.757  0.4042  0.4895 -0.2655
  743MOL0     C  237   9.480   8.391   4.717  0.6783  0.3368 -0.3551
  743MOL0     H  238   9.021   8.243   4.582  1.1731  0.5845  0.0285
  743MOL0     H  239   8.793   8.284   4.541  0.9408 -1.7056  3.1593
  743MOL0     H  240   8.574   8.384   4.410 -1.6944  0.5505 -0.0894
  743MOL0     H  241   8.591   8.355   4.585  0.1938  1.3245  1.5938
  743MOL0     H  242   8.456   8.586   4.436  2.9588 -0.4327 -0.8042
  743MOL0     H  243   8.366   8.439   4.493 -1.8739  2.3648  0.0333
  743MOL0     H  244   8.512   8.599   4.699  1.9051  1.6140 -3.5479
  743MOL0     H  245   8.353   8.658   4.637 -0.9987 -0.4255 -2.4787
  743MOL0     H  246   8.370   8.378   4.719  0.0830  0.0973 -0.6031
  743MOL0     H  247   8.376   8.504   4.845  0.9827 -1.1484 -0.3854
  743MOL0     H  248   8.170   8.588   4.792 -0.8951 -1.4931  1.5719
  743MOL0     H  249   8.141   8.482   4.645  2.1361  0.0870 -0.5639
  743MOL0     H  250   8.123   8.278   4.775 -0.3141  0.1923  1.2327
  743MOL0     H  251   8.173   8.378   4.917  0.3521  1.7430 -0.6785
  743MOL0     H  252   7.967   8.501   4.929  0.6120 -0.4737 -0.7972
  743MOL0     H  253   7.908   8.429   4.781 -3.4757  0.4081  2.0460
  743MOL0     H  254   7.967   8.290   5.041  1.3310  2.0189  0.0411
  743MOL0     H  255   7.934   8.203   4.889 -1.1619  0.3901 -1.6170
  743MOL0     H  256   7.675   8.293   4.787  4.2542 -2.0088  0.1351
  743MOL0     H  257   7.399   8.467   4.886 -0.0790  0.7094  1.3130
  743MOL0     H  258   7.426   8.300   4.818 -0.4349 -0.4141  0.7543
  743MOL0     H  259   7.369   8.290   5.107  0.3292 -1.9673  0.5997
  743MOL0     H  260   7.314   8.197   4.984  0.3024  0.4370 -2.2937
  743MOL0     H  261   7.164   8.415   4.904 -1.2841 -0.5124 -0.1910
  743MOL0     H  262   7.210   8.454   5.065  0.0212 -1.2464 -0.0891
  743MOL0     H  263   7.106   8.257   5.160 -2.2317  1.1562  0.7998
  743MOL0     H  264   7.077   8.199   4.994 -2.2855  1.0462 -0.8463
  743MOL0     H  265   6.924   8.138   5.161 -0.9020 -1.9191 -3.3076
  743MOL0     H  266   6.724   7.974   5.363  0.5183 -0.1285 -0.3216
  743MOL0     H  267   6.636   7.927   5.211  0.4696 -0.9560 -1.8317
  743MOL0     H  268   6.807   7.947   5.212  0.7954  2.1239  0.7481
  743MOL0     H  269   6.189   8.322   5.365 -0.3914  0.1118 -0.9229
  743MOL0     H  270   5.957   8.243   5.418  0.6040  1.4144 -1.3765
  743MOL0     H  271   5.881   7.995   5.525 -0.6161  0.2272  0.2417
  743MOL0     H  272   5.750   8.103   5.463 -2.6311 -1.4754  2.1056
  743MOL0     H  273   5.634   7.909   5.400  0.1474  0.4313 -0.4637
  743MOL0     H  274   5.762   7.795   5.432 -0.6452  0.1191 -1.1340
  743MOL0     H  275   5.553   7.821   5.597  0.5461 -2.3947 -1.2434
  743MOL0     H  276   5.649   7.970   5.649 -0.8047  1.4291 -1.0366
  743MOL0     H  277   5.751   7.679   5.662 -0.6159 -1.2854  0.8774
  743MOL0     H  278   5.844   7.824   5.709 -0.8359 -0.0211  1.6119
  743MOL0     H  279   5.686   7.890   5.876  1.5071 -0.1090 -0.7965
  743MOL0     H  280   5.744   7.733   5.915 -1.7257 -1.6394  0.2880
  743MOL0     H  281   5.471   7.780   5.775  1.5137  0.8427 -0.9837
  743MOL0     H  282   5.522   7.623   5.831 -2.3236 -0.5132  0.6487
  743MOL0     H  283   5.477   7.855   6.023  4.2091 -0.1889 -0.0782
  743MOL0     H  284   5.536   7.689   6.062  0.2840 -0.9141  0.6382
  743MOL0     H  285   5.324   7.715   6.109  1.4597  0.4716 -0.1487
  743MOL0     H  286   5.301   7.610   5.964 -1.1293 -0.1823  0.7781
  743MOL0     H  287   6.034   7.918   5.141  2.7220  1.6840 -3.1044
  743MOL0     H  288   6.245   7.990   5.104  2.3480 -0.4894  2.7744
  743MOL0     H  289   6.517   8.400   5.113  0.7668  2.6300  3.4017
  743MOL0     H  290   6.734   8.477   5.037  0.9784  0.1498  0.2035
  743MOL0     H  291   8.878   8.698   4.504 -0.4828 -0.5542 -2.3360
  743MOL0     H  292   9.134   8.642   4.542  0.6173 -0.1465  1.8921
  743MOL0     H  293   9.468   8.126   4.514 -2.9933  1.4996  0.1357
  743MOL0     H  294   9.705   8.120   4.556  0.3187  0.2783 -1.4805
  743MOL0     H  295   9.866   8.402   4.873 -0.7596 -0.1391  0.7614
  743MOL0     H  296   9.801   8.246   4.926  1.2761  1.4446  0.7689
  743MOL0     H  297  10.044   8.259   4.966  1.7651 -0.7782  0.1175
  743MOL0     H  298  10.063   8.293   4.793 -1.2938  0.4385 -0.9097
  743MOL0     H  299   9.944   8.071   4.746 -1.0810 -2.8807  1.6251
  743MOL0     H  300   9.945   8.026   4.912  1.1171 -1.4207  1.2640
  743MOL0     H  301  10.198   8.066   4.749 -0.6194  1.1244 -0.0609
  743MOL0     H  302  10.119   7.910   4.800 -3.6620 -0.2881  2.6284
  743MOL0     H  303  10.324   8.072   5.135 -1.3645 -0.9570  0.8464
  743MOL0     H  304   9.654   8.450   4.835  2.2525 -1.9069  1.0469
  743MOL0     H  305   9.416   8.468   4.758 -0.6694 -0.3271 -1.1362
  744MOL0     O  306   7.561   6.961  10.042  0.0184 -0.4721 -0.1821
  744MOL0     C  307   7.639   7.049  10.084  0.3710 -0.3543  0.0293
  744MOL0     O  308   7.605   7.167  10.146  0.0488  0.0525  1.5207
  744MOL0     C  309   7.482   7.218  10.140  0.0163 -0.4790 -0.4514
  744MOL0     C  310   7.470   7.355  10.114 -0.0853 -1.0363 -0.9588
  744MOL0     C  311   7.346   7.418  10.124 -0.4527  1.1451  0.6613
  744MOL0     C  312   7.232   7.343  10.111  0.0914 -0.2627  0.2250
  744MOL0     O  313   7.110   7.408  10.111  0.5806  0.5008 -0.2416
  744MOL0     C  314   7.093   7.531  10.190 -0.0293 -0.1872 -0.6988
  744MOL0     C  315   6.953   7.564  10.240  0.3634  0.1419  0.5119
  744MOL0     C  316   6.881   7.447  10.304 -1.0055 -0.3188 -1.0011
  744MOL0     C  317   6.728   7.483  10.319 -1.0967  0.5951 -0.5927
  744MOL0     C  318   6.655   7.361  10.381 -0.1326  0.5774 -0.3576
  744MOL0     C  319   6.514   7.397  10.428 -0.0357  0.1046 -0.2481
  744MOL0     C  320   6.441   7.291  10.503 -0.4567 -0.3834  0.4214
  744MOL0     C  321   6.305   7.320  10.550  0.2608 -0.5036  0.8349
  744MOL0     N  322   6.218   7.210  10.575 -0.1285  0.3597 -0.0545
  744MOL0     C  323   6.208   7.096  10.494 -0.1264 -0.3021  0.3510
  744MOL0     C  324   6.120   7.011  10.549 -1.0938  0.3146  1.1418
  744MOL0     C  325   6.064   6.880  10.514 -0.2950  0.3209  0.0925
  744MOL0     C  326   5.915   6.890  10.467 -0.2181 -0.1395 -0.0775
  744MOL0     C  327   5.807   6.918  10.582 -0.2706 -0.7343 -0.3879
  744MOL0     C  328   5.659   6.929  10.523 -0.4149 -0.1231 -0.2708
  744MOL0     O  329   5.613   6.807  10.469 -0.5308  0.1869 -0.2530
  744MOL0     C  330   5.508   6.742  10.521 -0.3302  0.0589 -0.2948
  744MOL0     C  331   5.524   6.668  10.636  0.1727 -0.0159 -1.3858
  744MOL0     C  332   5.416   6.605  10.706  0.3218  0.1574  0.0081
  744MOL0     C  333   5.451   6.534  10.828 -0.0836  0.7870  0.5341
  744MOL0     C  334   5.282   6.634  10.664  0.6953  0.4196  0.2186
  744MOL0     C  335   5.142   6.603  10.731 -0.2307  0.6682  0.2241
  744MOL0     O  336   5.030   6.674  10.693  0.4413  0.6285 -0.4524
  744MOL0     C  337   4.910   6.630  10.735 -0.1225  0.6965  0.1795
  744MOL0     C  338   4.824   6.719  10.787  0.4519 -0.9513  0.3218
  744MOL0     C  339   4.698   6.679  10.833 -0.0493  0.0728 -1.8200
  744MOL0     C  340   4.666   6.545  10.839  0.3332  0.3891 -0.1493
  744MOL0     O  341   4.545   6.480  10.862 -0.0156 -0.4516  0.2514
  744MOL0     C  342   4.430   6.569  10.866  0.5009 -0.6764 -0.1272
  744MOL0     C  343   4.301   6.491  10.844 -0.3679 -0.1821  0.0254
  744MOL0     C  344   4.185   6.580  10.888 -0.3490  0.3563  1.0573
  744MOL0     C  345   4.053   6.503  10.886  0.2855  0.7794  0.0531
  744MOL0     C  346   3.946   6.566  10.968 -0.7003  0.6077 -0.2945
  744MOL0     C  347   3.884   6.694  10.898 -0.2060 -0.0835 -0.0732
  744MOL0     C  348   3.790   6.762  10.993 -0.3993 -1.0794 -0.5871
  744MOL0     C  349   3.679   6.674  11.050 -0.0167 -0.0263  0.1469
  744MOL0    Cl  350   3.540   6.775  11.091 -0.1040 -0.2742  0.0944
  744MOL0     C  351   4.757   6.454  10.785  0.7318 -0.2622  1.2939
  744MOL0     C  352   4.878   6.488  10.727  0.6098  0.5696  0.1384
  744MOL0     O  353   5.145   6.512  10.814  0.0812  0.0287 -0.8686
  744MOL0     C  354   5.269   6.705  10.542  0.6404  0.1749 -0.4263
  744MOL0     C  355   5.378   6.754  10.475 -0.4552  0.3560 -0.8050
  744MOL0     N  356   6.089   7.076  10.671  0.1963  0.9656  0.0024
  744MOL0     N  357   6.141   7.193  10.682  0.5768 -0.2633  0.0884
  744MOL0     C  358   7.238   7.202  10.114 -1.4305 -0.6824  0.4779
  744MOL0     C  359   7.360   7.140  10.134 -0.4023 -0.4307 -0.0485
  744MOL0     C  360   7.783   7.007  10.078 -0.7144  0.2499 -0.0196
  744MOL0     C  361   7.885   7.084  10.142 -0.0242 -0.0282 -0.5173
  744MOL0     C  362   8.019   7.046  10.128 -0.8761  1.0649 -0.1882
  744MOL0     C  363   8.059   6.925  10.046 -0.1417  0.1065 -0.8151
  744MOL0     O  364   8.190   6.889  10.030 -0.5920  0.1242 -0.1792
  744MOL0     C  365   8.230   6.783   9.941  0.4202 -0.3141  0.4585
  744MOL0     C  366   8.217   6.819   9.783 -0.9980  0.3711 -0.1587
  744MOL0     C  367   8.297   6.947   9.759  0.1872  0.1577  0.0222
  744MOL0     C  368   8.452   6.957   9.780  0.6214 -0.0858  0.9402
  744MOL0     C  369   8.519   6.839   9.719 -0.3680  0.1471  0.6327
  744MOL0     C  370   8.560   6.737   9.668 -0.1196  0.1738 -0.2853
  744MOL0     C  371   7.950   6.855   9.998  1.1581 -0.8411  1.0206
  744MOL0     C  372   7.814   6.892  10.010  0.5386 -0.1166 -0.0818
  744MOL0     H  373   7.557   7.414  10.090 -0.7016  0.1451 -0.3688
  744MOL0     H  374   7.338   7.527  10.119 -2.6946  1.0781  1.5954
  744MOL0     H  375   7.161   7.519  10.275  2.1833 -1.5809 -2.5369
  744MOL0     H  376   7.138   7.613  10.132  0.7140 -0.7274 -0.8992
  744MOL0     H  377   6.949   7.643  10.315 -1.7413 -0.3326  0.9475
  744MOL0     H  378   6.898   7.594  10.151  1.6784  0.0300 -0.3799
  744MOL0     H  379   6.895   7.362  10.237  1.9613 -0.0335 -0.8690
  744MOL0     H  380   6.926   7.417  10.399 -1.1372  0.7030 -0.6035
  744MOL0     H  381   6.718   7.568  10.387  4.3155  2.0507 -1.1963
  744MOL0     H  382   6.689   7.512  10.222 -1.6944  1.4291 -0.1083
  744MOL0     H  383   6.644   7.285  10.304  1.2929 -1.5403  1.3996
  744MOL0     H  384   6.706   7.317  10.467 -2.7257  2.1610  2.1719
  744MOL0     H  385   6.517   7.487  10.490 -0.5736 -0.2773  0.3409
  744MOL0     H  386   6.456   7.424  10.339  2.4733  1.7889 -1.4937
  744MOL0     H  387   6.452   7.207  10.434 -1.1942  0.2263 -0.4606
  744MOL0     H  388   6.492   7.254  10.593 -0.4131 -0.5390  0.3336
  744MOL0     H  389   6.258   7.373  10.467  0.8427  0.6311  1.2065
  744MOL0     H  390   6.308   7.385  10.638 -0.8257 -2.5856  2.5236
  744MOL0     H  391   6.264   7.081  10.403 -0.5160  0.5114 -0.0371
  744MOL0     H  392   6.130   6.839  10.436 -2.8785 -2.8004 -0.6896
  744MOL0     H  393   6.061   6.815  10.602  0.1532 -0.2099 -0.2714
  744MOL0     H  394   5.886   6.796  10.418  2.8541 -0.3739 -1.7259
  744MOL0     H  395   5.914   6.969  10.390  4.0123  0.6325  0.4411
  744MOL0     H  396   5.835   7.013  10.629 -2.2679  0.5518 -1.6233
  744MOL0     H  397   5.807   6.843  10.661 -0.4590  0.0288  0.3513
  744MOL0     H  398   5.650   7.008  10.447 -2.7123  1.2481  1.3088
  744MOL0     H  399   5.589   6.953  10.603 -0.6729  1.8596 -1.0412
  744MOL0     H  400   5.625   6.644  10.669 -0.9280 -1.1770  1.4928
  744MOL0     H  401   5.551   6.565  10.859 -1.0471  2.3501  2.3082
  744MOL0     H  402   5.377   6.573  10.899 -0.0389  0.4212  0.7847
  744MOL0     H  403   5.434   6.428  10.805  1.1012  1.1858 -2.5397
  744MOL0     H  404   4.839   6.826  10.785 -1.9198 -0.5434 -2.5400
  744MOL0     H  405   4.627   6.752  10.868  1.6312  1.0788 -0.3001
  744MOL0     H  406   4.418   6.623  10.960 -0.0568  1.6472 -1.4578
  744MOL0     H  407   4.433   6.638  10.781 -1.9361  0.8665  0.9318
  744MOL0     H  408   4.286   6.466  10.739  0.0922 -0.0436 -0.0725
  744MOL0     H  409   4.290   6.403  10.909  0.0869 -0.4929 -0.3198
  744MOL0     H  410   4.183   6.669  10.824  0.3065 -0.5981 -0.3509
  744MOL0     H  411   4.204   6.609  10.992  0.2843 -0.8090  1.2756
  744MOL0     H  412   4.030   6.483  10.781  1.0683 -2.5681  0.3976
  744MOL0     H  413   4.061   6.406  10.935 -0.8072  0.3590 -0.5750
  744MOL0     H  414   3.969   6.580  11.074 -0.5234 -2.2792  0.1292
  744MOL0     H  415   3.868   6.490  10.966  0.5285 -0.6878 -2.2020
  744MOL0     H  416   3.964   6.768  10.885 -0.0207 -0.4058 -0.8357
  744MOL0     H  417   3.844   6.674  10.798 -0.0906 -0.8380  0.0306
  744MOL0     H  418   3.745   6.845  10.938 -0.8884 -1.7845 -1.2773
  744MOL0     H  419   3.844   6.807  11.076 -0.4202 -0.5063 -0.8789
  744MOL0     H  420   3.716   6.614  11.135 -0.2319 -0.7646 -0.2706
  744MOL0     H  421   3.657   6.596  10.976  3.2284 -2.3101  1.3466
  744MOL0     H  422   4.727   6.350  10.796 -0.3623 -0.3514 -1.7243
  744MOL0     H  423   4.959   6.427  10.688  0.7818  1.2505 -0.6006
  744MOL0     H  424   5.169   6.720  10.504  0.2705 -0.6484  0.1862
  744MOL0     H  425   5.358   6.803  10.380  1.6956  0.7462 -1.1061
  744MOL0     H  426   7.151   7.140  10.102 -0.0909 -2.4815 -0.5049
  744MOL0     H  427   7.361   7.033  10.152  0.8038 -0.2249  1.3613
  744MOL0     H  428   7.869   7.175  10.198 -2.1437 -0.6572 -0.0166
  744MOL0     H  429   8.098   7.103  10.177  0.0327  1.8213 -2.4305
  744MOL0     H  430   8.332   6.752   9.964  0.3504 -1.7810 -1.0272
  744MOL0     H  431   8.170   6.694   9.961  1.8106 -1.9745 -2.1213
  744MOL0     H  432   8.117   6.851   9.754 -1.2704  0.3190  0.6732
  744MOL0     H  433   8.249   6.734   9.723  0.5543 -0.3429  1.5739
  744MOL0     H  434   8.243   7.018   9.823  0.3223  2.5711 -2.3576
  744MOL0     H  435   8.280   6.986   9.658 -1.1279  0.1591  0.2202
  744MOL0     H  436   8.474   6.963   9.887  1.8218  0.5729  0.6732
  744MOL0     H  437   8.485   7.052   9.738 -3.8809  1.6061  0.7568
  744MOL0     H  438   8.589   6.640   9.631 -1.9028 -0.5457  0.1250
  744MOL0     H  439   7.965   6.768   9.935  0.4723 -1.1231  1.2427
  744MOL0     H  440   7.737   6.827   9.970 -0.4330 -1.5665  3.7590
  745MOL0     O  441   8.368   4.515   6.569 -0.0692  0.8980 -0.3123
  745MOL0     C  442   8.444   4.422   6.559 -0.2697 -1.0035  0.6774
  745MOL0     O  443   8.434   4.318   6.466  0.7391 -0.1571  0.2269
  745MOL0     C  444   8.320   4.310   6.393 -0.1300  0.3762  0.3233
  745MOL0     C  445   8.332   4.336   6.255 -0.1995  0.6381  0.0641
  745MOL0     C  446   8.220   4.331   6.174 -0.2165 -0.1655  0.3933
  745MOL0     C  447   8.090   4.307   6.224 -0.4495 -0.5179  0.4376
  745MOL0     O  448   7.974   4.305   6.151  0.5090 -0.4446 -0.0968
  745MOL0     C  449   7.986   4.316   6.011 -0.4318 -0.0338  0.0095
  745MOL0     C  450   7.850   4.320   5.940 -0.4958  0.9796 -0.5022
  745MOL0     C  451   7.758   4.197   5.981  0.1038 -0.2076  0.8409
  745MOL0     C  452   7.622   4.203   5.909 -0.0303  0.5908 -0.4527
  745MOL0     C  453   7.547   4.074   5.956 -0.1376 -0.7691  0.3886
  745MOL0     C  454   7.398   4.071   5.912 -0.1296  0.3496  0.9603
  745MOL0     C  455   7.382   4.095   5.756 -0.7134  1.0107 -0.2543
  745MOL0     C  456   7.438   3.979   5.684  0.3402  0.4965  0.2873
  745MOL0     N  457   7.401   3.960   5.544 -0.0779 -0.2281 -0.5226
  745MOL0     C  458   7.281   3.902   5.510  0.2619  0.0749  0.9516
  745MOL0     C  459   7.289   3.898   5.372 -0.6478 -1.2499 -0.2580
  745MOL0     C  460   7.190   3.836   5.288  0.5548 -0.1975  0.5231
  745MOL0     C  461   7.049   3.906   5.313  0.0439  0.1009  0.2445
  745MOL0     C  462   6.957   3.884   5.192  0.9464 -0.0571  0.0435
  745MOL0     C  463   6.905   3.739   5.181  0.7219  0.5595  0.0668
  745MOL0     O  464   6.834   3.744   5.059 -0.0090 -0.3571  0.3752
  745MOL0     C  465   6.743   3.645   5.023  0.0159 -0.3373 -0.5990
  745MOL0     C  466   6.675   3.654   4.905 -0.4860  0.1574  0.2684
  745MOL0     C  467   6.582   3.556   4.857 -0.3230 -0.5033 -0.3568
  745MOL0     C  468   6.494   3.595   4.736  0.4000 -0.2689 -0.5763
  745MOL0     C  469   6.555   3.446   4.938 -0.1131 -0.0585 -0.0945
  745MOL0     C  470   6.456   3.345   4.907 -0.6934  0.7542  0.7936
  745MOL0     O  471   6.423   3.265   5.013  0.1141 -0.1977  0.6632
  745MOL0     C  472   6.336   3.158   5.008  0.3179  0.6378  0.3054
  745MOL0     C  473   6.366   3.038   5.074 -0.0910  1.2046 -0.9076
  745MOL0     C  474   6.266   2.936   5.093 -0.4782 -0.1866  0.0953
  745MOL0     C  475   6.137   2.954   5.047  0.4810  0.0127  0.8911
  745MOL0     O  476   6.049   2.860   5.090  0.4929 -0.3210 -0.0863
  745MOL0     C  477   5.949   2.850   4.991 -0.8657  0.2863 -0.0071
  745MOL0     C  478   5.896   2.704   4.982  0.2015 -0.4681  0.4245
  745MOL0     C  479   5.791   2.709   4.868 -0.3455 -0.1679  0.5333
  745MOL0     C  480   5.733   2.573   4.815  0.3552 -0.2784  0.0191
  745MOL0     C  481   5.673   2.496   4.938 -0.1389 -0.1644 -0.5159
  745MOL0     C  482   5.604   2.374   4.892 -0.0384  1.2818  0.3237
  745MOL0     C  483   5.549   2.282   5.010  0.1763 -0.2930 -0.4343
  745MOL0     C  484   5.527   2.142   4.968  0.2935  0.2048  0.0613
  745MOL0    Cl  485   5.368   2.110   4.897 -0.4489 -0.6226 -0.2900
  745MOL0     C  486   6.103   3.076   4.977 -0.7906 -0.5006 -0.0232
  745MOL0     C  487   6.207   3.178   4.958  0.3571 -1.1141 -0.5191
  745MOL0     O  488   6.433   3.316   4.793 -0.0886 -0.4211  0.4195
  745MOL0     C  489   6.627   3.434   5.059  0.7845 -0.0883  0.3315
  745MOL0     C  490   6.729   3.528   5.093 -0.5235 -0.7293  0.4608
  745MOL0     N  491   7.414   3.939   5.332  0.0055 -0.4750  0.0198
  745MOL0     N  492   7.482   3.978   5.433  0.3331  0.0046  0.0390
  745MOL0     C  493   8.082   4.284   6.361 -0.0651 -0.4308  0.4756
  745MOL0     C  494   8.193   4.288   6.444  0.6670 -0.1581 -0.9421
  745MOL0     C  495   8.559   4.411   6.651  0.1705 -0.3887  0.8056
  745MOL0     C  496   8.642   4.300   6.658  0.6765 -0.3301  0.9806
  745MOL0     C  497   8.765   4.298   6.732  0.4059  0.3405  0.4408
  745MOL0     C  498   8.787   4.413   6.811  0.4379  0.6487  0.2391
  745MOL0     O  499   8.890   4.401   6.900 -0.2232 -0.3508 -0.4481
  745MOL0     C  500   8.932   4.513   6.988 -0.1398  0.2018  0.6518
  745MOL0     C  501   9.089   4.515   7.001 -0.2150 -0.7581  0.1293
  745MOL0     C  502   9.149   4.417   7.099 -0.5678 -0.3807  0.5653
  745MOL0     C  503   9.142   4.271   7.048  0.1916  0.4644  0.0490
  745MOL0     C  504   9.163   4.189   7.167 -0.3891  0.6185 -0.3515
  745MOL0     C  505   9.190   4.137   7.276  0.5179 -0.0417  0.3010
  745MOL0     C  506   8.690   4.514   6.817 -0.2370  0.2004  0.9600
  745MOL0     C  507   8.581   4.517   6.739 -0.0165  0.2828  0.4708
  745MOL0     H  508   8.429   4.352   6.209 -0.0188  0.3586  0.3452
  745MOL0     H  509   8.234   4.354   6.070  2.1951  1.6448  1.0348
  745MOL0     H  510   8.025   4.414   5.982 -3.1347  0.7072 -1.4444
  745MOL0     H  511   8.044   4.229   5.977 -0.4113 -0.0985  0.2104
  745MOL0     H  512   7.798   4.410   5.974 -1.5290  0.2110 -0.0371
  745MOL0     H  513   7.865   4.332   5.832  1.4919  1.2378 -0.2384
  745MOL0     H  514   7.806   4.100   5.961  0.2610  0.4589 -2.6013
  745MOL0     H  515   7.735   4.198   6.088 -4.2801 -1.0912  0.1126
  745MOL0     H  516   7.563   4.293   5.928  1.2103  1.0699  1.4921
  745MOL0     H  517   7.654   4.193   5.805  3.3814 -0.8161  0.6145
  745MOL0     H  518   7.610   3.998   5.908  2.8341  1.6292  0.1939
  745MOL0     H  519   7.552   4.069   6.065 -1.1635 -2.0730  0.3943
  745MOL0     H  520   7.353   3.972   5.925 -1.6195  0.3617 -2.8238
  745MOL0     H  521   7.337   4.145   5.965  0.4286  2.4806 -1.2050
  745MOL0     H  522   7.275   4.109   5.735 -0.9354  1.6126  1.1926
  745MOL0     H  523   7.442   4.181   5.725  1.6327  0.7393  3.0204
  745MOL0     H  524   7.416   3.887   5.739 -0.2398  0.6417  0.3037
  745MOL0     H  525   7.547   3.983   5.679  0.3595 -0.1427  0.1423
  745MOL0     H  526   7.198   3.881   5.577  0.7956  1.8303  2.2292
  745MOL0     H  527   7.212   3.853   5.182 -1.1620  2.0294  0.4614
  745MOL0     H  528   7.179   3.731   5.317  1.3606  0.0820  1.8991
  745MOL0     H  529   7.065   4.014   5.321  0.8355  0.0337 -0.2499
  745MOL0     H  530   7.006   3.871   5.407  1.1739  0.0806  0.7659
  745MOL0     H  531   7.010   3.907   5.099  3.0053  0.0396  1.1816
  745MOL0     H  532   6.873   3.955   5.193  0.5374 -0.4442 -1.9750
  745MOL0     H  533   6.833   3.713   5.259  1.4376  0.6137  0.7571
  745MOL0     H  534   6.978   3.658   5.171 -1.0014 -0.8940 -1.5650
  745MOL0     H  535   6.676   3.743   4.843 -0.9239 -0.8019 -1.1668
  745MOL0     H  536   6.468   3.702   4.737  0.7996 -0.1759  0.0525
  745MOL0     H  537   6.549   3.569   4.646  0.0417 -0.4328 -0.7484
  745MOL0     H  538   6.400   3.540   4.728  0.0209  0.2184  0.3066
  745MOL0     H  539   6.463   3.013   5.116 -0.2381 -2.3972 -2.3516
  745MOL0     H  540   6.281   2.839   5.140  0.6441 -0.0910 -0.0415
  745MOL0     H  541   5.867   2.917   5.019  0.4207  1.3974  1.2256
  745MOL0     H  542   5.983   2.868   4.889 -0.9726 -0.4392 -0.1808
  745MOL0     H  543   5.977   2.637   4.954 -1.0348 -0.8210 -2.7085
  745MOL0     H  544   5.850   2.671   5.075  0.3851 -4.8004 -0.8150
  745MOL0     H  545   5.834   2.761   4.782 -0.4060 -0.1061  0.5407
  745MOL0     H  546   5.708   2.768   4.908  1.2728 -0.4047  4.7351
  745MOL0     H  547   5.653   2.591   4.742 -1.6888  0.0936  2.2369
  745MOL0     H  548   5.807   2.511   4.762  0.1988 -0.9308  0.5511
  745MOL0     H  549   5.600   2.562   4.985 -0.2501  0.2653 -1.2654
  745MOL0     H  550   5.746   2.473   5.016  0.1244  1.4198 -0.2528
  745MOL0     H  551   5.524   2.407   4.826  0.5018  1.6394 -0.1677
  745MOL0     H  552   5.674   2.319   4.827  0.2269 -0.1894  1.7837
  745MOL0     H  553   5.456   2.325   5.046  0.3688  0.4892 -0.8425
  745MOL0     H  554   5.623   2.288   5.090 -1.8844  3.2356  1.4300
  745MOL0     H  555   5.534   2.084   5.061  2.1617  2.0415  1.1481
  745MOL0     H  556   5.599   2.118   4.889 -2.5124 -0.9832 -2.3116
  745MOL0     H  557   6.006   3.103   4.936 -2.3540 -2.0207  2.4181
  745MOL0     H  558   6.184   3.267   4.899 -1.2470 -0.6892  0.7100
  745MOL0     H  559   6.612   3.344   5.119  0.5393 -0.0215  0.3736
  745MOL0     H  560   6.787   3.508   5.182  1.4482 -0.7655 -0.7914
  745MOL0     H  561   7.988   4.256   6.408 -1.2541 -0.7127 -1.9169
  745MOL0     H  562   8.171   4.271   6.548  2.4820 -0.9069 -0.6438
  745MOL0     H  563   8.623   4.219   6.589  3.2657  0.6570 -1.0706
  745MOL0     H  564   8.832   4.212   6.734 -1.4190 -1.1505  0.7803
  745MOL0     H  565   8.892   4.608   6.950 -0.5124  0.3322  1.3604
  745MOL0     H  566   8.884   4.481   7.081  1.6761  0.0074  1.5698
  745MOL0     H  567   9.111   4.616   7.038 -1.2796 -0.7891  0.8799
  745MOL0     H  568   9.136   4.502   6.903  0.1951 -0.4311  0.2803
  745MOL0     H  569   9.094   4.430   7.192  0.6826 -1.8737  1.5655
  745MOL0     H  570   9.256   4.439   7.098 -0.2898 -0.1397 -5.4812
  745MOL0     H  571   9.224   4.243   6.982 -1.1200  1.3587 -2.0488
  745MOL0     H  572   9.052   4.245   6.993  0.8150 -0.1773 -0.6957
  745MOL0     H  573   9.228   4.096   7.367  2.1144 -0.1270 -0.3744
  745MOL0     H  574   8.700   4.587   6.897 -0.4097  2.0564 -0.6175
  745MOL0     H  575   8.508   4.598   6.744 -0.7002 -0.3659  1.3284
  746MOL0     O  576  10.807   6.525  11.188 -0.1216 -0.3181 -0.5260
  746MOL0     C  577  10.785   6.404  11.183  0.0179  1.0235 -0.6635
  746MOL0     O  578  10.662   6.347  11.221  0.5310  0.2883  0.5440
  746MOL0     C  579  10.569   6.420  11.294 -0.0541  0.6725 -0.2263
  746MOL0     C  580  10.605   6.503  11.404  0.0940  0.3928 -0.2465
  746MOL0     C  581  10.503   6.588  11.445  0.7144  0.3381 -1.2637
  746MOL0     C  582  10.369   6.588  11.396 -0.0566  0.0337 -0.1098
  746MOL0     O  583  10.289   6.670  11.464 -0.1169  0.3064  0.5970
  746MOL0     C  584  10.149   6.645  11.461  0.0791 -0.0039 -0.0545
  746MOL0     C  585  10.103   6.666  11.600  0.2629 -0.5378 -0.5783
  746MOL0     C  586  10.113   6.819  11.641 -0.5670  0.4302  0.6943
  746MOL0     C  587  10.041   6.845  11.775  0.1323 -0.1483  1.0638
  746MOL0     C  588  10.084   6.981  11.832  0.2327 -0.6536  0.8167
  746MOL0     C  589  10.054   6.997  11.979 -0.1452  0.0305 -0.5376
  746MOL0     C  590  10.078   7.132  12.045  0.5204 -0.0099  0.6161
  746MOL0     C  591   9.950   7.203  12.102  0.1841 -0.7660 -0.5185
  746MOL0     N  592   9.842   7.215  12.013  0.3698  0.3935  0.0978
  746MOL0     C  593   9.840   7.288  11.896 -0.2033 -0.1670 -0.4412
  746MOL0     C  594   9.742   7.243  11.818 -0.2408  0.4058  0.2571
  746MOL0     C  595   9.708   7.290  11.675 -0.4963 -0.3331 -0.4314
  746MOL0     C  596   9.649   7.431  11.670  0.2379  0.1569  0.0445
  746MOL0     C  597   9.559   7.459  11.553  0.3807 -1.0291 -0.2326
  746MOL0     C  598   9.470   7.585  11.577 -0.5012 -0.1761  0.2758
  746MOL0     O  599   9.363   7.548  11.666  0.0840  0.4695 -0.0280
  746MOL0     C  600   9.237   7.588  11.631 -0.3068 -1.1405 -0.0253
  746MOL0     C  601   9.138   7.484  11.623 -0.3207 -0.3013  0.7261
  746MOL0     C  602   9.002   7.512  11.590  0.2084  0.3051 -0.5008
  746MOL0     C  603   8.908   7.393  11.606  0.2656  0.7246  0.4792
  746MOL0     C  604   8.966   7.649  11.561 -0.2214 -0.9211  0.4037
  746MOL0     C  605   8.827   7.700  11.532 -0.2120  0.1088 -0.2420
  746MOL0     O  606   8.739   7.600  11.496 -0.1034 -0.6894  0.7661
  746MOL0     C  607   8.606   7.632  11.492  0.3241  0.6769  0.3664
  746MOL0     C  608   8.545   7.689  11.381 -0.2594 -0.4673  0.5490
  746MOL0     C  609   8.411   7.718  11.376 -0.8684 -0.2411  0.2036
  746MOL0     C  610   8.339   7.691  11.487  0.4617 -0.2372 -1.3223
  746MOL0     O  611   8.198   7.712  11.473 -0.4877  0.1431  0.0808
  746MOL0     C  612   8.113   7.714  11.587 -0.1491 -0.3692  0.0165
  746MOL0     C  613   7.975   7.771  11.535 -0.6960 -0.2291 -0.0833
  746MOL0     C  614   7.905   7.684  11.438  0.2285 -0.7217  0.1810
  746MOL0     C  615   7.776   7.747  11.401  0.8530  0.0846 -0.4274
  746MOL0     C  616   7.687   7.689  11.284  0.5036 -0.6348  0.3155
  746MOL0     C  617   7.560   7.779  11.268 -0.1343 -0.2738  0.0326
  746MOL0     C  618   7.463   7.732  11.161 -0.5228  0.0339  0.1645
  746MOL0     C  619   7.321   7.760  11.206 -0.1334 -0.0017  0.0746
  746MOL0    Cl  620   7.284   7.619  11.322 -0.5274 -0.0977  0.2780
  746MOL0     C  621   8.397   7.646  11.603  0.9912  0.0462  0.1075
  746MOL0     C  622   8.527   7.601  11.605 -0.5618  0.1504 -0.4641
  746MOL0     O  623   8.802   7.816  11.538 -0.0147  0.6025 -0.5909
  746MOL0     C  624   9.066   7.747  11.579 -0.5101 -0.0915 -0.3129
  746MOL0     C  625   9.194   7.718  11.616 -0.7572 -0.6323 -0.1700
  746MOL0     N  626   9.687   7.134  11.883 -0.1969  0.3000  0.4177
  746MOL0     N  627   9.749   7.112  11.996 -0.2632 -0.0317 -0.3571
  746MOL0     C  628  10.342   6.508  11.289  0.3697  0.3574  0.1178
  746MOL0     C  629  10.442   6.429  11.239  0.8970 -0.0224  0.6626
  746MOL0     C  630  10.887   6.309  11.130 -0.2760  0.3347  0.2946
  746MOL0     C  631  10.869   6.175  11.119 -0.3475  0.1529 -0.4800
  746MOL0     C  632  10.962   6.094  11.052  0.1399  0.5415 -0.3970
  746MOL0     C  633  11.076   6.151  10.991  0.5116  0.4642 -0.5025
  746MOL0     O  634  11.171   6.065  10.940  0.4093  0.1457 -0.4404
  746MOL0     C  635  11.314   6.070  10.969  0.8277 -0.1866 -0.7400
  746MOL0     C  636  11.345   5.956  11.058 -0.2865 -0.3860  1.8369
  746MOL0     C  637  11.486   5.912  11.049 -0.5088  0.0490  0.3450
  746MOL0     C  638  11.590   6.025  11.081 -0.4049  0.6662 -0.2708
  746MOL0     C  639  11.573   6.093  11.214 -0.0286 -0.2645  0.1442
  746MOL0     C  640  11.564   6.155  11.316  0.1041 -0.8870  0.4356
  746MOL0     C  641  11.102   6.289  11.009  0.2387  0.3161  0.9287
  746MOL0     C  642  11.003   6.366  11.070  0.0860 -0.0881  0.3689
  746MOL0     H  643  10.701   6.509  11.453 -0.1074 -0.9913  0.3626
  746MOL0     H  644  10.523   6.655  11.528  1.7818 -0.5158 -0.8054
  746MOL0     H  645  10.094   6.712  11.394 -0.4293 -1.1976 -0.8454
  746MOL0     H  646  10.139   6.539  11.435 -1.2958  0.1673 -0.3198
  746MOL0     H  647  10.001   6.629  11.613 -0.0695 -0.3973 -2.4218
  746MOL0     H  648  10.152   6.591  11.663  0.9251  0.2634 -0.1105
  746MOL0     H  649  10.219   6.843  11.655  0.5203 -1.0907 -3.4860
  746MOL0     H  650  10.082   6.891  11.564 -0.6641  0.2750  0.5876
  746MOL0     H  651   9.934   6.860  11.759  0.6162  2.2185 -0.4417
  746MOL0     H  652  10.066   6.767  11.847 -0.7810 -0.0985  1.4561
  746MOL0     H  653  10.193   6.985  11.826  0.1861  0.6939  0.5716
  746MOL0     H  654  10.042   7.063  11.772  1.0881 -2.2146 -2.1366
  746MOL0     H  655   9.950   6.968  11.998  0.4884 -1.8106  0.3294
  746MOL0     H  656  10.120   6.925  12.028 -1.5232 -2.4042 -2.0427
  746MOL0     H  657  10.144   7.124  12.132  0.6647 -0.5682  0.4559
  746MOL0     H  658  10.128   7.209  11.986  2.6851 -1.2764  0.6947
  746MOL0     H  659   9.974   7.305  12.131  1.0549 -1.4779  1.3946
  746MOL0     H  660   9.910   7.151  12.190 -3.1319  3.4078  0.8127
  746MOL0     H  661   9.911   7.365  11.867  0.7340 -0.9474 -0.2596
  746MOL0     H  662   9.795   7.286  11.608  0.1451 -1.2983  0.4256
  746MOL0     H  663   9.636   7.221  11.630  1.3876 -0.6094 -3.3050
  746MOL0     H  664   9.722   7.513  11.663  1.4193 -0.9600 -1.0882
  746MOL0     H  665   9.593   7.460  11.760  0.4849  2.2353 -0.4060
  746MOL0     H  666   9.495   7.373  11.528 -0.0664 -0.6646 -0.3662
  746MOL0     H  667   9.614   7.484  11.462 -3.3839 -0.6494 -2.6372
  746MOL0     H  668   9.436   7.631  11.483 -1.3593  0.1812  0.7533
  746MOL0     H  669   9.539   7.655  11.624 -0.9714 -0.3345  1.2158
  746MOL0     H  670   9.163   7.381  11.645 -0.2922 -0.2054  1.1507
  746MOL0     H  671   8.830   7.421  11.678 -0.2272  0.6414 -0.0064
  746MOL0     H  672   8.862   7.372  11.508  0.6068 -0.1526  0.5022
  746MOL0     H  673   8.962   7.302  11.633 -2.5582 -1.4856 -0.6682
  746MOL0     H  674   8.614   7.712  11.301 -1.4309  1.1612 -0.0402
  746MOL0     H  675   8.359   7.758  11.289  0.9035  1.5156 -0.1113
  746MOL0     H  676   8.117   7.611  11.624 -1.2892 -0.0375  1.1247
  746MOL0     H  677   8.147   7.779  11.668 -1.7162  0.4504  0.0490
  746MOL0     H  678   7.908   7.778  11.621 -1.6794  0.4222 -0.8917
  746MOL0     H  679   7.982   7.874  11.500  0.6182  0.1236  1.0945
  746MOL0     H  680   7.875   7.592  11.489 -0.6509  0.7069  2.4056
  746MOL0     H  681   7.969   7.674  11.350  2.2790  2.4136  1.1548
  746MOL0     H  682   7.718   7.745  11.493  0.2887  1.9972 -0.6887
  746MOL0     H  683   7.786   7.854  11.379 -0.1385  0.2752 -0.0121
  746MOL0     H  684   7.653   7.586  11.302 -0.3456 -0.3170  0.5812
  746MOL0     H  685   7.739   7.678  11.188 -0.3280  0.0166 -0.2116
  746MOL0     H  686   7.502   7.779  11.361 -1.9548 -1.3044 -1.0523
  746MOL0     H  687   7.582   7.885  11.249 -0.9160 -0.2267 -0.7188
  746MOL0     H  688   7.481   7.625  11.146  0.4632  0.3920 -1.5251
  746MOL0     H  689   7.482   7.787  11.068 -2.9721  1.0141  0.1636
  746MOL0     H  690   7.254   7.761  11.119  1.6629  2.5229 -1.4132
  746MOL0     H  691   7.302   7.856  11.254  2.0829  0.0203  0.9993
  746MOL0     H  692   8.331   7.637  11.689 -0.0084  2.4632 -0.3274
  746MOL0     H  693   8.563   7.557  11.697 -2.6704 -2.3773 -0.7453
  746MOL0     H  694   9.050   7.854  11.566  1.4335  0.3860  0.9161
  746MOL0     H  695   9.268   7.794  11.636 -1.1619 -0.6653  1.6207
  746MOL0     H  696  10.242   6.504  11.246  0.3962 -0.2332  0.1050
  746MOL0     H  697  10.426   6.369  11.150  0.2182  1.8239 -0.5203
  746MOL0     H  698  10.780   6.123  11.154 -2.0049  2.8469 -0.4027
  746MOL0     H  699  10.939   5.988  11.047 -3.5527  1.2053 -0.2849
  746MOL0     H  700  11.376   6.076  10.879 -0.5379 -0.9023 -1.7880
  746MOL0     H  701  11.337   6.159  11.029  0.6364 -1.0887  0.7175
  746MOL0     H  702  11.280   5.875  11.023 -0.9495  0.7611  0.2649
  746MOL0     H  703  11.314   5.986  11.158 -0.0833  0.5924  1.6145
  746MOL0     H  704  11.492   5.877  10.945  0.2418 -0.4951  0.5622
  746MOL0     H  705  11.500   5.823  11.110  0.0515 -0.2003 -0.1347
  746MOL0     H  706  11.602   6.102  11.005 -0.7802  1.6430  0.6269
  746MOL0     H  707  11.686   5.973  11.084 -0.3561  0.7344 -0.6822
  746MOL0     H  708  11.581   6.205  11.409  1.0082 -0.2748 -0.0510
  746MOL0     H  709  11.198   6.328  10.975 -0.7028  1.1687 -0.8889
  746MOL0     H  710  11.023   6.472  11.068 -0.5354  0.0310 -1.9590
  747MOL0     O  711   2.571   9.733   0.602 -0.3498 -0.3207  0.0642
  747MOL0     C  712   2.642   9.649   0.554 -0.8492  0.5665 -0.1025
  747MOL0     O  713   2.598   9.535   0.496  0.2041 -0.3181  0.1538
  747MOL0     C  714   2.458   9.522   0.479 -0.8007 -0.9072 -0.4943
  747MOL0     C  715   2.348   9.537   0.570 -0.2108  0.2763  0.1015
  747MOL0     C  716   2.216   9.523   0.521 -0.2577 -0.3675  0.1712
  747MOL0     C  717   2.189   9.477   0.391 -0.6817 -0.5373 -0.5981
  747MOL0     O  718   2.069   9.447   0.339  0.3553 -0.0012  0.5463
  747MOL0     C  719   1.953   9.419   0.421 -0.3329 -0.2577  0.4008
  747MOL0     C  720   1.852   9.335   0.343  0.7731  0.5820  0.4738
  747MOL0     C  721   1.730   9.305   0.426  1.0040 -0.1253  1.1534
  747MOL0     C  722   1.608   9.291   0.323  0.2799 -0.0172 -0.1773
  747MOL0     C  723   1.502   9.186   0.369 -0.0110  0.4201 -0.6955
  747MOL0     C  724   1.398   9.158   0.261 -0.3767  0.4055  1.1889
  747MOL0     C  725   1.445   9.026   0.177  0.1292 -0.9129  0.3549
  747MOL0     C  726   1.380   9.032   0.040  0.1420  0.0205 -0.6590
  747MOL0     N  727   1.232   9.013   0.035  0.3396 -0.3613 -0.2103
  747MOL0     C  728   1.137   9.110  -0.006  0.3325 -0.2280 -0.1800
  747MOL0     C  729   1.022   9.059   0.029 -0.3425 -1.8328 -0.4070
  747MOL0     C  730   0.898   9.143   0.016  0.2513  0.4417 -0.0532
  747MOL0     C  731   0.765   9.061   0.027 -0.1174 -0.0097 -0.0524
  747MOL0     C  732   0.654   9.158   0.055  0.6748  0.1090  0.0937
  747MOL0     C  733   0.514   9.084   0.064 -0.6029 -0.9111 -0.9697
  747MOL0     O  734   0.484   9.016  -0.056  0.2138  0.2499  0.6569
  747MOL0     C  735   0.369   9.063  -0.120 -0.3390 -0.4346  0.5757
  747MOL0     C  736   0.362   9.189  -0.166  0.2388  0.1394 -0.2173
  747MOL0     C  737   0.251   9.243  -0.245  0.0868  0.2380 -0.8885
  747MOL0     C  738   0.265   9.390  -0.285  1.2022  0.7226 -0.6037
  747MOL0     C  739   0.140   9.159  -0.270  0.7783  0.0676 -0.2879
  747MOL0     C  740   0.024   9.211  -0.337 -0.4907  0.7964  0.4057
  747MOL0     O  741  -0.087   9.139  -0.314 -0.0345 -0.2918 -0.7303
  747MOL0     C  742  -0.195   9.134  -0.397 -0.1087 -0.3719 -1.0648
  747MOL0     C  743  -0.192   9.154  -0.534 -0.9749 -0.7878 -0.0638
  747MOL0     C  744  -0.302   9.150  -0.619  0.0800  0.4349 -0.2299
  747MOL0     C  745  -0.431   9.110  -0.561 -0.1827 -0.2514  0.4260
  747MOL0     O  746  -0.547   9.094  -0.632 -0.3401 -0.0279  0.1826
  747MOL0     C  747  -0.535   9.033  -0.764  0.1527  0.3209 -0.1473
  747MOL0     C  748  -0.666   8.956  -0.792  0.4932  0.1420  0.3192
  747MOL0     C  749  -0.658   8.884  -0.928 -0.1355 -1.0126 -0.3476
  747MOL0     C  750  -0.765   8.924  -1.023  0.4078 -0.4892  0.6777
  747MOL0     C  751  -0.903   8.909  -0.972  1.3197 -0.6708  0.9372
  747MOL0     C  752  -1.012   8.944  -1.080 -0.0299 -0.1741 -0.3329
  747MOL0     C  753  -1.003   9.087  -1.134 -1.2096  0.0567 -0.3947
  747MOL0     C  754  -1.133   9.117  -1.209 -0.4500  0.3544  0.0300
  747MOL0    Cl  755  -1.173   9.010  -1.341 -0.5505 -0.3054 -0.0204
  747MOL0     C  756  -0.434   9.090  -0.424  0.2440 -0.4006 -0.0153
  747MOL0     C  757  -0.319   9.096  -0.339  0.1588  0.1511  0.8278
  747MOL0     O  758   0.042   9.295  -0.429  0.2009 -0.4214 -0.7023
  747MOL0     C  759   0.148   9.022  -0.229 -0.5075 -0.2662  0.2774
  747MOL0     C  760   0.262   8.975  -0.154  0.7697  0.3524 -0.2829
  747MOL0     N  761   1.043   8.945   0.095 -0.6298  0.4492  0.5384
  747MOL0     N  762   1.170   8.908   0.095  0.4402  0.4846  0.0409
  747MOL0     C  763   2.298   9.437   0.310 -0.2455 -0.8427 -0.5533
  747MOL0     C  764   2.429   9.463   0.357 -0.7335 -0.0866 -0.3466
  747MOL0     C  765   2.782   9.671   0.547 -0.2647 -0.6835 -0.0089
  747MOL0     C  766   2.834   9.805   0.571  0.1056  0.3281  0.2771
  747MOL0     C  767   2.970   9.829   0.567  0.7843 -0.2832  0.8766
  747MOL0     C  768   3.071   9.726   0.536  0.8353 -0.6070 -0.3331
  747MOL0     O  769   3.200   9.765   0.526  0.2866 -0.2880  1.0978
  747MOL0     C  770   3.287   9.690   0.434  0.4207 -0.0377 -0.4545
  747MOL0     C  771   3.383   9.615   0.508 -0.1213  0.0606  0.7095
  747MOL0     C  772   3.524   9.677   0.529  0.4104 -0.4128  1.1743
  747MOL0     C  773   3.564   9.674   0.677  0.2012 -0.2097 -0.1922
  747MOL0     C  774   3.576   9.531   0.722 -0.9008 -0.0036 -0.2120
  747MOL0     C  775   3.568   9.422   0.767  0.0408  0.8658  0.1273
  747MOL0     C  776   3.020   9.598   0.533 -0.1675  0.2767  0.1337
  747MOL0     C  777   2.877   9.571   0.524 -1.3609  0.0356  0.6727
  747MOL0     H  778   2.357   9.571   0.673 -1.1660  2.2238 -0.4146
  747MOL0     H  779   2.132   9.535   0.589 -0.4388  3.0995 -0.4321
  747MOL0     H  780   1.981   9.367   0.513  2.2234  3.0114  1.6797
  747MOL0     H  781   1.905   9.515   0.443 -1.8768 -0.7908 -0.4924
  747MOL0     H  782   1.821   9.383   0.250  0.6177 -2.1542 -1.0063
  747MOL0     H  783   1.900   9.248   0.296  3.6118  1.8897  0.7731
  747MOL0     H  784   1.760   9.211   0.473  1.5649 -0.6450 -0.1861
  747MOL0     H  785   1.715   9.377   0.507 -2.1212 -0.2580  0.8013
  747MOL0     H  786   1.563   9.391   0.322 -1.2474 -0.6651 -1.5031
  747MOL0     H  787   1.635   9.266   0.220 -0.8415 -1.6183 -0.1147
  747MOL0     H  788   1.546   9.090   0.399 -3.4635 -0.3832  2.6064
  747MOL0     H  789   1.451   9.227   0.457 -0.4716  0.9443 -1.2028
  747MOL0     H  790   1.315   9.122   0.322 -0.4195 -1.0820  0.3058
  747MOL0     H  791   1.369   9.237   0.191 -1.3361 -0.5587  0.4602
  747MOL0     H  792   1.552   9.028   0.159 -0.1713 -0.0974 -1.6083
  747MOL0     H  793   1.417   8.936   0.233 -3.6472  0.2329  0.6326
  747MOL0     H  794   1.424   8.951  -0.019  0.6919  0.7920 -1.3456
  747MOL0     H  795   1.403   9.127  -0.010  0.9947 -0.6138 -1.5025
  747MOL0     H  796   1.170   9.201  -0.055 -1.7535  0.2534 -0.7690
  747MOL0     H  797   0.899   9.195   0.112  1.8486  0.4771 -0.0519
  747MOL0     H  798   0.896   9.210  -0.070  2.7628  1.6343  0.7004
  747MOL0     H  799   0.777   8.989   0.108 -0.4418  0.0725  0.0684
  747MOL0     H  800   0.748   9.023  -0.075 -1.7178  3.0783 -1.0646
  747MOL0     H  801   0.650   9.218  -0.036 -0.3773 -1.4167 -0.9196
  747MOL0     H  802   0.688   9.222   0.137 -1.4970  3.8064 -1.6403
  747MOL0     H  803   0.434   9.153   0.094 -4.1952 -5.5270  1.3525
  747MOL0     H  804   0.527   9.015   0.148  1.3370  1.5014  0.8684
  747MOL0     H  805   0.440   9.260  -0.140 -1.5755  2.8612 -1.7405
  747MOL0     H  806   0.331   9.444  -0.215 -0.3483  2.6284 -0.5233
  747MOL0     H  807   0.311   9.384  -0.384  0.9972 -0.2796 -0.6401
  747MOL0     H  808   0.175   9.452  -0.276  2.2672  2.5202 -1.5616
  747MOL0     H  809  -0.094   9.152  -0.581 -0.6099 -2.6407  0.6536
  747MOL0     H  810  -0.296   9.170  -0.725  1.8556  2.1254  0.1300
  747MOL0     H  811  -0.511   9.111  -0.837  0.5313  0.6765  0.3499
  747MOL0     H  812  -0.453   8.960  -0.761 -0.6083 -0.5391  0.1768
  747MOL0     H  813  -0.708   8.889  -0.716 -0.4200 -0.8539 -1.0251
  747MOL0     H  814  -0.728   9.045  -0.808  0.1807 -0.6455 -3.7426
  747MOL0     H  815  -0.671   8.776  -0.918 -0.8664 -0.8378  0.7504
  747MOL0     H  816  -0.557   8.898  -0.969 -0.2626 -0.6886 -0.5543
  747MOL0     H  817  -0.748   9.027  -1.058  0.8222 -1.1053 -1.0626
  747MOL0     H  818  -0.758   8.857  -1.109  1.9374 -0.5197  0.7870
  747MOL0     H  819  -0.919   8.985  -0.895 -0.9685 -0.1610  0.0168
  747MOL0     H  820  -0.921   8.812  -0.927  2.0140 -0.0768  2.5753
  747MOL0     H  821  -1.018   8.872  -1.162 -0.2490 -0.7818  0.2138
  747MOL0     H  822  -1.106   8.931  -1.026 -0.2025  0.9949 -0.3196
  747MOL0     H  823  -0.920   9.089  -1.205 -1.8370 -1.8315 -1.2470
  747MOL0     H  824  -0.983   9.156  -1.051 -0.7648 -0.1715 -0.3064
  747MOL0     H  825  -1.148   9.224  -1.222 -1.0315  0.3207  0.4144
  747MOL0     H  826  -1.215   9.098  -1.140 -2.7351  2.5692 -1.8960
  747MOL0     H  827  -0.526   9.054  -0.380 -1.0497  1.6538 -0.9055
  747MOL0     H  828  -0.313   9.080  -0.231 -0.1234  1.7441  1.1083
  747MOL0     H  829   0.071   8.946  -0.238  0.6040 -1.2641 -1.2366
  747MOL0     H  830   0.265   8.870  -0.128 -3.1840 -0.6256 -2.8683
  747MOL0     H  831   2.285   9.404   0.207  0.3384 -1.2004 -0.5153
  747MOL0     H  832   2.510   9.436   0.289 -2.0667  0.3972 -2.2299
  747MOL0     H  833   2.770   9.889   0.597  0.3358  0.9668 -1.1417
  747MOL0     H  834   3.006   9.930   0.585 -0.5547  0.5734 -0.9305
  747MOL0     H  835   3.233   9.614   0.377 -2.4589  0.2019  1.7220
  747MOL0     H  836   3.337   9.747   0.354 -1.1328  1.3201 -0.5115
  747MOL0     H  837   3.402   9.518   0.461 -1.4994 -1.3316  2.8481
  747MOL0     H  838   3.341   9.592   0.607  0.8283  0.3799  1.1959
  747MOL0     H  839   3.534   9.778   0.488 -0.4160 -0.9768 -0.5085
  747MOL0     H  840   3.601   9.616   0.480 -1.2779 -1.2174 -0.6405
  747MOL0     H  841   3.484   9.728   0.729  0.7505  0.1337  0.2989
  747MOL0     H  842   3.661   9.723   0.690  0.3909  0.3945 -3.1644
  747MOL0     H  843   3.548   9.322   0.799  0.3279  0.8589  0.2873
  747MOL0     H  844   3.094   9.520   0.518  0.8287  0.9637  1.3167
  747MOL0     H  845   2.845   9.470   0.501 -1.2361  0.2975 -0.7137
  748MOL0     O  846   6.770   4.196   7.384  0.5276 -0.4195  0.5768
  748MOL0     C  847   6.825   4.080   7.377  0.9294 -0.0395 -0.0826
  748MOL0     O  848   6.755   3.958   7.361 -0.1628  0.4637  0.4577
  748MOL0     C  849   6.627   3.956   7.319 -0.5302 -0.2614  1.4032
  748MOL0     C  850   6.570   4.047   7.217 -0.1210  0.5580  0.6969
  748MOL0     C  851   6.431   4.029   7.183 -0.2930 -0.1100  0.3530
  748MOL0     C  852   6.356   3.929   7.245  0.5194 -0.3737 -0.9891
  748MOL0     O  853   6.223   3.905   7.225 -0.0332  0.1107  0.0738
  748MOL0     C  854   6.149   3.976   7.121  0.0931 -0.5103  0.1093
  748MOL0     C  855   6.005   3.916   7.121  0.4278  0.0982 -0.3083
  748MOL0     C  856   5.905   3.980   7.030  0.1641  0.0464 -0.5179
  748MOL0     C  857   5.761   3.927   7.050  0.1641 -0.0609 -0.4033
  748MOL0     C  858   5.676   3.985   6.945 -0.2403  0.4333 -0.1738
  748MOL0     C  859   5.535   3.927   6.947  0.2971  0.1072  0.0770
  748MOL0     C  860   5.458   4.017   6.848  0.4975  0.3213 -1.3632
  748MOL0     C  861   5.319   3.951   6.821  0.2409 -0.9955 -0.3836
  748MOL0     N  862   5.246   4.009   6.710  0.0882 -0.4547 -0.0769
  748MOL0     C  863   5.185   3.935   6.612  0.3027 -0.6279 -0.3459
  748MOL0     C  864   5.146   4.036   6.524 -0.1655  0.2733 -0.7838
  748MOL0     C  865   5.068   4.020   6.400 -0.3126  1.1695  0.0328
  748MOL0     C  866   4.924   4.061   6.423 -0.5922 -0.9774  0.7208
  748MOL0     C  867   4.845   4.042   6.299  0.0999  0.2011  0.3561
  748MOL0     C  868   4.699   4.077   6.313  0.3326 -0.2010 -0.0908
  748MOL0     O  869   4.683   4.204   6.371 -0.1668 -0.5866  0.0258
  748MOL0     C  870   4.557   4.262   6.356 -1.0939  0.4503  0.9119
  748MOL0     C  871   4.542   4.400   6.381 -0.6250  0.1654  0.0190
  748MOL0     C  872   4.423   4.473   6.371 -0.3149  0.7922 -0.3933
  748MOL0     C  873   4.430   4.623   6.389 -0.2206 -0.5999 -0.2444
  748MOL0     C  874   4.305   4.400   6.338 -0.7801  0.2050  0.3811
  748MOL0     C  875   4.170   4.460   6.306 -0.2704  0.2721  0.4003
  748MOL0     O  876   4.064   4.383   6.325  0.1845 -0.6707  0.1498
  748MOL0     C  877   3.930   4.442   6.328  0.5420 -0.1538 -0.5486
  748MOL0     C  878   3.885   4.538   6.233 -0.0594 -0.5740  0.2000
  748MOL0     C  879   3.761   4.588   6.243 -0.4196  0.4579 -0.8646
  748MOL0     C  880   3.662   4.547   6.335  0.7464 -0.3075 -0.2699
  748MOL0     O  881   3.539   4.596   6.339  0.7138 -0.3702 -0.3240
  748MOL0     C  882   3.461   4.607   6.217  0.2502  0.0933 -0.0455
  748MOL0     C  883   3.317   4.629   6.261 -0.8726 -0.4960  0.3043
  748MOL0     C  884   3.210   4.602   6.161  0.3676 -0.3694 -0.0159
  748MOL0     C  885   3.078   4.657   6.216 -0.4815 -0.3646  0.2698
  748MOL0     C  886   2.963   4.630   6.115  0.1664 -1.0814  0.0531
  748MOL0     C  887   2.825   4.676   6.161 -0.0679 -0.5394 -0.3337
  748MOL0     C  888   2.711   4.610   6.072  0.2330  0.1144  0.0398
  748MOL0     C  889   2.563   4.605   6.128  0.1116  0.3215  0.3010
  748MOL0    Cl  890   2.503   4.758   6.206 -0.0550  0.5235  0.0411
  748MOL0     C  891   3.708   4.455   6.437  0.5524 -0.2190  0.2930
  748MOL0     C  892   3.839   4.408   6.429 -0.8584  0.3606 -0.3838
  748MOL0     O  893   4.169   4.572   6.253  0.0288  0.0249 -0.1892
  748MOL0     C  894   4.317   4.255   6.328  0.7467 -0.5929 -0.0522
  748MOL0     C  895   4.440   4.187   6.334  0.3886  0.5520 -0.2042
  748MOL0     N  896   5.196   4.158   6.570 -0.5002  0.3390 -0.0871
  748MOL0     N  897   5.249   4.145   6.682 -0.3040  0.5769  0.2748
  748MOL0     C  898   6.416   3.848   7.340  0.1990  0.0543  1.0697
  748MOL0     C  899   6.545   3.857   7.380 -0.2542  0.1972 -0.6071
  748MOL0     C  900   6.965   4.088   7.397  0.3163 -0.0125  0.3290
  748MOL0     C  901   7.049   3.973   7.379 -0.3057 -0.3206  0.4424
  748MOL0     C  902   7.187   3.981   7.391  0.2919 -0.8001 -0.1721
  748MOL0     C  903   7.251   4.107   7.403  0.5355  0.3443 -0.3299
  748MOL0     O  904   7.380   4.129   7.417 -0.0376 -0.4584 -0.7121
  748MOL0     C  905   7.462   4.024   7.459  0.2639  0.2240 -0.1723
  748MOL0     C  906   7.605   4.064   7.487 -1.0180 -0.5438 -0.4981
  748MOL0     C  907   7.693   3.943   7.499 -0.4934 -0.4578 -0.7167
  748MOL0     C  908   7.823   3.992   7.563 -0.1068  0.1210 -0.1331
  748MOL0     C  909   7.928   3.881   7.556  0.5005  0.7087  0.9328
  748MOL0     C  910   8.008   3.791   7.559 -0.0146 -0.0771  0.0408
  748MOL0     C  911   7.164   4.217   7.430 -0.3432 -0.1744 -0.0314
  748MOL0     C  912   7.026   4.210   7.424 -0.7493  0.2981 -0.7287
  748MOL0     H  913   6.622   4.119   7.154  1.8588 -1.2169  0.2009
  748MOL0     H  914   6.390   4.080   7.096 -0.6337 -1.7424 -0.4969
  748MOL0     H  915   6.143   4.086   7.126  3.7083 -0.1422 -1.0663
  748MOL0     H  916   6.188   3.959   7.020 -2.0218  5.1344 -2.1491
  748MOL0     H  917   6.006   3.808   7.102 -2.1887  0.4403 -3.2806
  748MOL0     H  918   5.956   3.933   7.217 -1.2573 -0.3571 -1.0327
  748MOL0     H  919   5.914   4.089   7.033  1.4195 -0.0307 -0.8098
  748MOL0     H  920   5.937   3.958   6.927 -0.6290 -0.0393 -0.7540
  748MOL0     H  921   5.757   3.818   7.054 -1.0695  0.0156  1.1393
  748MOL0     H  922   5.717   3.967   7.141 -1.6030 -0.5192 -1.0152
  748MOL0     H  923   5.674   4.094   6.956 -2.5456  0.4346 -0.2289
  748MOL0     H  924   5.723   3.976   6.846  1.2910  1.6297  0.3895
  748MOL0     H  925   5.531   3.823   6.915 -0.4415 -0.3594  1.5683
  748MOL0     H  926   5.489   3.929   7.047  0.9698 -2.8775  0.5546
  748MOL0     H  927   5.440   4.115   6.893 -0.1813  0.9998 -3.0295
  748MOL0     H  928   5.508   4.029   6.752 -3.2123 -2.0386 -3.8741
  748MOL0     H  929   5.258   3.961   6.911 -0.9558 -1.9298 -1.0586
  748MOL0     H  930   5.338   3.845   6.803  2.8736 -0.3295 -2.1799
  748MOL0     H  931   5.161   3.830   6.601 -1.9416 -0.1725 -0.4477
  748MOL0     H  932   5.113   4.093   6.332  1.3877  2.2408  2.2028
  748MOL0     H  933   5.085   3.920   6.359  0.0994  1.3014 -0.1274
  748MOL0     H  934   4.926   4.165   6.457  0.9316 -1.5302  2.4534
  748MOL0     H  935   4.889   4.008   6.512  2.0715 -0.0266  2.4421
  748MOL0     H  936   4.848   3.937   6.268 -1.9645  0.2184 -0.0796
  748MOL0     H  937   4.885   4.095   6.212 -1.5266 -1.9668 -1.8555
  748MOL0     H  938   4.641   3.995   6.358 -0.0860 -0.5404 -1.1898
  748MOL0     H  939   4.663   4.089   6.210 -1.6548  2.8407  0.8281
  748MOL0     H  940   4.634   4.450   6.408  0.3416  0.5494 -3.4607
  748MOL0     H  941   4.378   4.670   6.305 -2.3295 -0.0657  1.2832
  748MOL0     H  942   4.376   4.643   6.482 -3.2573 -2.6740 -1.4155
  748MOL0     H  943   4.534   4.657   6.385  0.7047 -2.8218  1.9850
  748MOL0     H  944   3.957   4.589   6.170  1.4681 -2.4886  0.3038
  748MOL0     H  945   3.739   4.662   6.167 -0.1645  0.2582 -1.1298
  748MOL0     H  946   3.487   4.691   6.152 -2.3672  0.0183 -1.3134
  748MOL0     H  947   3.464   4.517   6.155  2.0268 -0.2942  0.5455
  748MOL0     H  948   3.300   4.557   6.341  2.8582 -0.5464  1.2108
  748MOL0     H  949   3.302   4.726   6.309 -1.4989  1.1411 -2.9201
  748MOL0     H  950   3.202   4.495   6.143 -0.0933 -0.0755 -1.7409
  748MOL0     H  951   3.241   4.649   6.066  3.5306 -3.0178 -0.4963
  748MOL0     H  952   3.054   4.605   6.310  0.2137 -0.7502  0.2418
  748MOL0     H  953   3.090   4.763   6.237  0.0304 -0.9122  3.1822
  748MOL0     H  954   2.958   4.523   6.097  0.0452 -1.0852  0.1036
  748MOL0     H  955   2.979   4.671   6.015  2.0758  1.1657  1.1907
  748MOL0     H  956   2.821   4.630   6.261  1.3095 -5.4421 -2.2193
  748MOL0     H  957   2.822   4.785   6.161 -0.5504 -0.5477 -0.0756
  748MOL0     H  958   2.744   4.507   6.053  3.3785  1.2097 -1.0386
  748MOL0     H  959   2.702   4.657   5.973 -0.8191  0.4026  0.2555
  748MOL0     H  960   2.573   4.534   6.211 -0.9598  0.9134  0.9554
  748MOL0     H  961   2.493   4.570   6.052  0.4128  1.4634 -0.5280
  748MOL0     H  962   3.639   4.418   6.511  0.9990  1.2770  1.4973
  748MOL0     H  963   3.865   4.337   6.506 -1.3590 -0.4684 -0.9664
  748MOL0     H  964   4.229   4.194   6.312 -0.8307  1.4168  0.5430
  748MOL0     H  965   4.443   4.079   6.340 -1.2022  0.5538  3.1354
  748MOL0     H  966   6.347   3.773   7.377 -0.3943  0.2529  0.3845
  748MOL0     H  967   6.590   3.796   7.458 -2.3089  0.4705  0.8891
  748MOL0     H  968   7.003   3.878   7.353  0.0312 -0.5431  0.6611
  748MOL0     H  969   7.250   3.893   7.395  1.5671 -0.0373 -2.0172
  748MOL0     H  970   7.422   3.973   7.547 -1.4895  0.5902 -0.7169
  748MOL0     H  971   7.462   3.956   7.373 -1.4134  1.7097 -1.4327
  748MOL0     H  972   7.608   4.113   7.585  0.0807 -0.9869 -0.2922
  748MOL0     H  973   7.633   4.138   7.411 -0.4983  0.5317  0.6974
  748MOL0     H  974   7.712   3.905   7.399 -2.4412 -0.2269 -1.2209
  748MOL0     H  975   7.653   3.856   7.552  1.2500 -1.7722 -1.4524
  748MOL0     H  976   7.807   4.019   7.668 -2.0080  1.0340 -0.6146
  748MOL0     H  977   7.863   4.083   7.518  1.4940 -0.4489  0.0484
  748MOL0     H  978   8.077   3.711   7.544  2.8220  2.7191 -4.0601
  748MOL0     H  979   7.206   4.313   7.459  0.7797 -0.2929 -1.1592
  748MOL0     H  980   6.974   4.295   7.469 -0.6997  0.4083 -0.8796
  749MOL0     O  981   2.865   8.452   1.297  0.8294 -0.5422  0.5629
  749MOL0     C  982   2.871   8.441   1.175 -0.2456  1.0400 -0.6539
  749MOL0     O  983   2.774   8.475   1.086  0.5924  0.8696 -0.5600
  749MOL0     C  984   2.651   8.507   1.143 -0.3862 -0.5353  0.0516
  749MOL0     C  985   2.576   8.631   1.121 -0.2933  0.0693 -0.5013
  749MOL0     C  986   2.444   8.640   1.170  0.3589 -1.1142 -0.1479
  749MOL0     C  987   2.387   8.541   1.250  1.0932 -0.6087  0.3688
  749MOL0     O  988   2.260   8.569   1.287 -0.2548 -0.2306  0.2521
  749MOL0     C  989   2.205   8.481   1.385 -0.0058 -0.0466 -0.3978
  749MOL0     C  990   2.067   8.522   1.423 -0.0782  0.3919  0.9953
  749MOL0     C  991   1.966   8.518   1.304 -0.6284  0.5316 -0.7376
  749MOL0     C  992   1.822   8.500   1.351  0.5827 -0.4324  0.0849
  749MOL0     C  993   1.781   8.357   1.397 -0.1543  0.2317  0.1705
  749MOL0     C  994   1.829   8.248   1.308 -0.2518  0.0812  0.0042
  749MOL0     C  995   1.786   8.115   1.365 -0.2471 -0.5392  0.4671
  749MOL0     C  996   1.867   7.996   1.302 -0.3888  0.3984 -0.7824
  749MOL0     N  997   1.823   7.858   1.344 -0.4580  0.3495  0.6795
  749MOL0     C  998   1.717   7.781   1.288 -0.2163  0.2989  0.1975
  749MOL0     C  999   1.715   7.667   1.357 -0.0175  0.5360  0.3700
  749MOL0     C 1000   1.621   7.559   1.323  0.3269 -0.2129  0.1682
  749MOL0     C 1001   1.538   7.527   1.442  0.9667 -0.0189  0.0447
  749MOL0     C 1002   1.443   7.645   1.488 -0.3847 -0.0066 -0.1187
  749MOL0     C 1003   1.329   7.596   1.581  0.5869 -0.5905  0.2193
  749MOL0     O 1004   1.261   7.483   1.516  0.1702  0.0636  0.1564
  749MOL0     C 1005   1.129   7.464   1.552  0.4635  0.6597  0.5053
  749MOL0     C 1006   1.066   7.519   1.673  0.3298 -0.5575 -0.3053
  749MOL0     C 1007   0.942   7.466   1.710 -0.2468 -0.4667 -0.3802
  749MOL0     C 1008   0.853   7.511   1.820  0.1702  0.2852  0.0639
  749MOL0     C 1009   0.878   7.365   1.631  0.2965 -0.0172  0.0674
  749MOL0     C 1010   0.739   7.322   1.653  0.5321 -0.4104 -0.1272
  749MOL0     O 1011   0.646   7.414   1.623 -0.3412 -0.4804 -0.5439
  749MOL0     C 1012   0.515   7.387   1.615  0.7493 -0.3280  0.2397
  749MOL0     C 1013   0.444   7.501   1.587  0.0569 -0.7641 -0.0374
  749MOL0     C 1014   0.308   7.504   1.562  0.6252 -0.2212 -0.4845
  749MOL0     C 1015   0.239   7.383   1.563 -0.7982 -0.2923  0.2004
  749MOL0     O 1016   0.106   7.378   1.522  0.1173  0.5343  0.2029
  749MOL0     C 1017   0.030   7.488   1.458 -0.5127  0.0269 -0.1546
  749MOL0     C 1018  -0.112   7.445   1.437 -0.1390 -0.5569 -0.3933
  749MOL0     C 1019  -0.182   7.459   1.582 -0.0627 -0.2218  0.3853
  749MOL0     C 1020  -0.332   7.430   1.567 -0.0156 -0.2174 -0.5181
  749MOL0     C 1021  -0.408   7.555   1.532  0.5197  0.7111 -0.5249
  749MOL0     C 1022  -0.555   7.516   1.493 -1.2954 -0.5909 -0.4119
  749MOL0     C 1023  -0.625   7.630   1.421  0.2432 -0.0531  0.0523
  749MOL0     C 1024  -0.773   7.592   1.378  0.1119  0.2531  0.8665
  749MOL0    Cl 1025  -0.853   7.721   1.291  0.1606 -0.2708  0.5529
  749MOL0     C 1026   0.308   7.265   1.596  0.1106  1.1252  0.0717
  749MOL0     C 1027   0.442   7.267   1.631 -0.4336  0.4312 -0.0739
  749MOL0     O 1028   0.719   7.209   1.695 -0.0055  0.4120 -0.0322
  749MOL0     C 1029   0.937   7.324   1.512  0.2911  0.5835 -0.7201
  749MOL0     C 1030   1.060   7.372   1.475  0.3193 -0.6567  0.1899
  749MOL0     N 1031   1.813   7.671   1.449 -0.1843  0.2329 -0.8301
  749MOL0     N 1032   1.875   7.784   1.445  0.4256  0.8776  0.6273
  749MOL0     C 1033   2.453   8.421   1.268  0.0926 -0.9823  0.0815
  749MOL0     C 1034   2.581   8.407   1.214  1.1856  0.4632  0.8315
  749MOL0     C 1035   3.006   8.385   1.130 -0.3030 -0.5848  0.5534
  749MOL0     C 1036   3.111   8.368   1.219 -0.3267  0.3844  0.2690
  749MOL0     C 1037   3.237   8.334   1.173 -0.9775  0.2249 -0.8521
  749MOL0     C 1038   3.273   8.298   1.046  0.2397 -0.4685  0.1399
  749MOL0     O 1039   3.395   8.253   1.006 -0.1683  0.0680  0.9244
  749MOL0     C 1040   3.498   8.242   1.112 -0.1428  0.3562  0.0653
  749MOL0     C 1041   3.623   8.179   1.046  0.2323 -0.3702 -0.5096
  749MOL0     C 1042   3.721   8.122   1.151 -0.1372 -0.1399 -0.7947
  749MOL0     C 1043   3.810   8.008   1.086  0.2865 -0.2204  0.3281
  749MOL0     C 1044   3.935   8.011   1.170  0.4748 -1.1400  1.1209
  749MOL0     C 1045   4.029   8.014   1.245 -0.1523 -0.6572  0.4380
  749MOL0     C 1046   3.168   8.316   0.955 -0.4047  0.0854  0.2357
  749MOL0     C 1047   3.040   8.366   0.992 -0.3063 -0.2551 -0.5894
  749MOL0     H 1048   2.616   8.706   1.053 -3.2372  1.4144 -0.9129
  749MOL0     H 1049   2.383   8.724   1.138  1.3305 -1.1521 -2.3457
  749MOL0     H 1050   2.191   8.382   1.340  1.5112 -0.5929  0.2577
  749MOL0     H 1051   2.259   8.482   1.480  1.4140  0.3161 -1.1807
  749MOL0     H 1052   2.028   8.459   1.503 -1.1142 -1.5123 -0.9263
  749MOL0     H 1053   2.074   8.622   1.467  0.1354 -0.2103  2.3860
  749MOL0     H 1054   1.971   8.608   1.242  0.7915  0.0116 -1.4181
  749MOL0     H 1055   1.988   8.430   1.243 -3.1481  1.0467 -2.5406
  749MOL0     H 1056   1.791   8.578   1.421 -2.2774 -1.5003  0.1407
  749MOL0     H 1057   1.760   8.528   1.265 -0.5954  0.7659  1.2704
  749MOL0     H 1058   1.831   8.343   1.493 -0.7613  0.9621  0.6086
  749MOL0     H 1059   1.672   8.356   1.412  0.0691 -1.7747  2.1223
  749MOL0     H 1060   1.795   8.269   1.207 -3.8214 -0.7724  0.8936
  749MOL0     H 1061   1.938   8.242   1.312 -0.2152 -1.9377 -2.1147
  749MOL0     H 1062   1.802   8.113   1.473 -2.8432 -0.9912  0.8943
  749MOL0     H 1063   1.678   8.108   1.352  0.0057  0.0343 -3.3004
  749MOL0     H 1064   1.968   8.023   1.333 -0.5955  1.4193 -0.9512
  749MOL0     H 1065   1.853   8.004   1.194 -0.1350  1.2701 -0.7585
  749MOL0     H 1066   1.656   7.810   1.203 -0.5864  4.3815  1.6194
  749MOL0     H 1067   1.556   7.603   1.247  1.8746  0.7136 -0.6631
  749MOL0     H 1068   1.689   7.479   1.292  0.7675  0.2370 -0.0465
  749MOL0     H 1069   1.605   7.511   1.528 -2.5452  1.2729  3.3267
  749MOL0     H 1070   1.481   7.436   1.423  1.3774  0.2307 -2.7550
  749MOL0     H 1071   1.389   7.680   1.399 -0.5564 -1.2086 -0.5059
  749MOL0     H 1072   1.498   7.731   1.527 -1.1614  0.8355 -0.8307
  749MOL0     H 1073   1.259   7.679   1.594  1.7709  0.4140  0.2987
  749MOL0     H 1074   1.364   7.573   1.682  2.9443  0.1515 -0.3704
  749MOL0     H 1075   1.121   7.590   1.735  2.8304  0.7754 -3.7456
  749MOL0     H 1076   0.906   7.581   1.885  0.8585  0.8475 -1.0742
  749MOL0     H 1077   0.754   7.544   1.787  0.2707 -0.5245 -1.1196
  749MOL0     H 1078   0.837   7.426   1.887 -2.6416  0.8546  0.2421
  749MOL0     H 1079   0.502   7.592   1.581  0.3337 -0.9506 -0.2592
  749MOL0     H 1080   0.252   7.596   1.553  0.1989 -0.4884 -0.5905
  749MOL0     H 1081   0.041   7.581   1.515 -3.8319 -1.8513  4.0421
  749MOL0     H 1082   0.067   7.493   1.355 -0.3030 -0.4814 -0.1064
  749MOL0     H 1083  -0.162   7.506   1.362 -1.3671  0.6320  1.3395
  749MOL0     H 1084  -0.125   7.340   1.409 -2.7697 -0.5974  0.7388
  749MOL0     H 1085  -0.161   7.560   1.618  3.6619 -1.2486  1.5637
  749MOL0     H 1086  -0.140   7.382   1.647 -0.4183 -1.5218 -0.8818
  749MOL0     H 1087  -0.345   7.348   1.495 -0.0053  0.2939 -1.1190
  749MOL0     H 1088  -0.363   7.400   1.667  3.0568 -0.1926  0.5185
  749MOL0     H 1089  -0.363   7.589   1.438  1.4026 -2.8917 -1.5409
  749MOL0     H 1090  -0.415   7.640   1.600 -3.1770 -0.2335  0.5066
  749MOL0     H 1091  -0.559   7.422   1.437 -3.2679  1.2449 -3.6311
  749MOL0     H 1092  -0.607   7.495   1.586  0.8569 -0.2925  0.9450
  749MOL0     H 1093  -0.567   7.660   1.333  1.4676  2.7146  1.6425
  749MOL0     H 1094  -0.625   7.724   1.478  2.6283 -0.4091  0.7290
  749MOL0     H 1095  -0.831   7.563   1.467  1.0769  0.7012  1.6690
  749MOL0     H 1096  -0.764   7.497   1.325 -2.6972 -0.9869  2.3869
  749MOL0     H 1097   0.270   7.164   1.588  0.3995  1.1244 -1.5418
  749MOL0     H 1098   0.485   7.169   1.650  0.3109  0.6340 -0.6677
  749MOL0     H 1099   0.889   7.245   1.455 -1.7754  0.6151  0.8718
  749MOL0     H 1100   1.111   7.322   1.393 -0.5301 -0.1856 -0.6453
  749MOL0     H 1101   2.410   8.333   1.314  0.4030 -0.1944  1.9478
  749MOL0     H 1102   2.629   8.309   1.219 -1.2562 -0.7287  4.5753
  749MOL0     H 1103   3.104   8.378   1.326 -2.7214 -1.2178  0.3409
  749MOL0     H 1104   3.314   8.323   1.249 -1.7520 -2.1307 -0.3096
  749MOL0     H 1105   3.519   8.329   1.174  1.1463 -1.0344  1.6617
  749MOL0     H 1106   3.467   8.160   1.178  2.3292 -1.8013 -1.2680
  749MOL0     H 1107   3.670   8.267   0.999  0.0705 -0.0793 -0.1315
  749MOL0     H 1108   3.587   8.105   0.974  0.4795  0.6204 -1.6944
  749MOL0     H 1109   3.666   8.081   1.236 -0.7666 -0.0339 -1.1474
  749MOL0     H 1110   3.788   8.199   1.191  0.5549 -1.0679 -0.1453
  749MOL0     H 1111   3.825   8.023   0.979  0.2800  3.4899  0.7033
  749MOL0     H 1112   3.750   7.918   1.101  0.8703 -0.7715 -0.5901
  749MOL0     H 1113   4.116   8.020   1.308 -0.4707 -1.9598  1.0413
  749MOL0     H 1114   3.185   8.288   0.851  0.5572  1.2268  0.0571
  749MOL0     H 1115   2.958   8.382   0.923 -0.3626  1.4720 -0.1685
  750MOL0     O 1116  11.054   0.444   7.375 -0.2058 -0.2181 -0.7193
  750MOL0     C 1117  11.101   0.338   7.407  0.0638  0.4260  0.9191
  750MOL0     O 1118  11.045   0.256   7.482 -0.0385 -0.3387 -0.7547
  750MOL0     C 1119  10.908   0.249   7.493 -0.5264  0.4562 -1.3477
  750MOL0     C 1120  10.876   0.175   7.608 -0.0404  0.4255  0.6696
  750MOL0     C 1121  10.739   0.138   7.621  0.3953  0.4690 -0.8805
  750MOL0     C 1122  10.640   0.179   7.540 -0.1551  0.0828 -0.5320
  750MOL0     O 1123  10.507   0.153   7.552 -0.4900  0.3238  0.0287
  750MOL0     C 1124  10.455   0.078   7.665  1.0438 -0.1283  0.5593
  750MOL0     C 1125  10.306   0.074   7.666  0.3446 -0.3397  0.4027
  750MOL0     C 1126  10.241   0.203   7.729  0.2777 -0.0329  0.1724
  750MOL0     C 1127  10.086   0.184   7.719 -0.4070 -0.9738  0.2585
  750MOL0     C 1128  10.017   0.269   7.823 -0.5207 -0.3994  0.0525
  750MOL0     C 1129  10.004   0.420   7.785  0.1405  0.5096 -0.1658
  750MOL0     C 1130   9.858   0.465   7.770 -0.2120 -0.7639  0.2444
  750MOL0     C 1131   9.793   0.387   7.654 -0.0638  0.5258  0.9774
  750MOL0     N 1132   9.661   0.457   7.622 -0.7299 -0.4715  0.1509
  750MOL0     C 1133   9.636   0.575   7.561  0.8145 -0.8204  0.7833
  750MOL0     C 1134   9.503   0.590   7.569  0.5204 -0.3386 -0.6501
  750MOL0     C 1135   9.409   0.706   7.522 -0.3107  0.0616 -0.3356
  750MOL0     C 1136   9.314   0.664   7.416  0.3562 -0.8141  0.6506
  750MOL0     C 1137   9.339   0.756   7.296  0.1447  0.3035 -0.3535
  750MOL0     C 1138   9.267   0.694   7.176 -0.3411  0.2638 -0.0144
  750MOL0     O 1139   9.126   0.673   7.205 -0.0229 -0.2856  0.1920
  750MOL0     C 1140   9.034   0.769   7.177 -0.1607 -0.3480 -0.0135
  750MOL0     C 1141   9.059   0.902   7.131 -0.4262  0.0690 -0.4229
  750MOL0     C 1142   8.953   0.985   7.085 -0.3375 -0.1308  0.1736
  750MOL0     C 1143   8.992   1.123   7.042  0.8414  0.3093 -0.4390
  750MOL0     C 1144   8.821   0.931   7.073  0.1108 -0.1473  0.2737
  750MOL0     C 1145   8.707   1.016   7.020 -0.0803  0.9904 -0.3817
  750MOL0     O 1146   8.587   0.941   7.006  0.2239  0.1897  0.4597
  750MOL0     C 1147   8.494   1.017   6.954  0.6836 -0.1646 -0.3878
  750MOL0     C 1148   8.424   1.106   7.042 -0.0896 -0.3115  0.3711
  750MOL0     C 1149   8.312   1.182   6.997 -0.1719 -0.1148 -0.4339
  750MOL0     C 1150   8.251   1.166   6.875 -0.9149  1.6089  0.4296
  750MOL0     O 1151   8.138   1.218   6.839  0.4107 -0.2186  0.1334
  750MOL0     C 1152   8.067   1.295   6.941 -0.2238  0.2687  0.6636
  750MOL0     C 1153   7.923   1.348   6.908  0.5110  0.5249 -0.3570
  750MOL0     C 1154   7.872   1.444   7.016 -0.0027 -1.2321 -0.1892
  750MOL0     C 1155   7.752   1.531   6.962 -0.3710  0.4943  0.0872
  750MOL0     C 1156   7.690   1.600   7.084  0.5076 -0.1252 -0.3657
  750MOL0     C 1157   7.539   1.617   7.070  0.6445  0.0727 -0.0182
  750MOL0     C 1158   7.499   1.712   6.954 -0.5573 -0.2241  0.6134
  750MOL0     C 1159   7.442   1.638   6.835  0.1836  0.4367  0.2689
  750MOL0    Cl 1160   7.439   1.749   6.686  0.2118 -0.2388  0.3424
  750MOL0     C 1161   8.317   1.073   6.782  0.4155  0.3508 -0.2982
  750MOL0     C 1162   8.435   1.005   6.826 -0.1006  0.0481 -0.0321
  750MOL0     O 1163   8.725   1.131   7.000 -0.3420  0.2120  0.6290
  750MOL0     C 1164   8.795   0.797   7.112 -0.3322  0.5129  0.2431
  750MOL0     C 1165   8.900   0.716   7.166 -0.0896  0.0611 -0.1283
  750MOL0     N 1166   9.441   0.476   7.612 -0.5895  1.1903  0.5197
  750MOL0     N 1167   9.538   0.400   7.651 -0.4289  0.7507 -0.2779
  750MOL0     C 1168  10.676   0.260   7.437  0.2052 -0.0563  0.1830
  750MOL0     C 1169  10.811   0.283   7.405  0.2721 -0.3920  0.2097
  750MOL0     C 1170  11.221   0.298   7.343 -0.0507 -0.0278  0.5811
  750MOL0     C 1171  11.273   0.375   7.242  0.6280  0.1243  0.2955
  750MOL0     C 1172  11.385   0.336   7.168  0.2462  0.7685  0.1636
  750MOL0     C 1173  11.453   0.214   7.205  0.4408 -0.4081  0.3435
  750MOL0     O 1174  11.570   0.176   7.152 -0.3740  0.3438  0.2260
  750MOL0     C 1175  11.633   0.287   7.086  0.2028 -0.0997 -0.3556
  750MOL0     C 1176  11.779   0.250   7.062  0.3351  0.4574 -0.5618
  750MOL0     C 1177  11.842   0.253   7.204  0.1128 -0.2363 -0.0608
  750MOL0     C 1178  11.985   0.197   7.188  0.0717  0.5597  1.1237
  750MOL0     C 1179  12.058   0.202   7.316 -0.2054 -1.2171  0.2984
  750MOL0     C 1180  12.119   0.200   7.425 -0.3908  0.0301  0.1965
  750MOL0     C 1181  11.400   0.135   7.315 -0.4621 -0.0989  0.7010
  750MOL0     C 1182  11.283   0.176   7.385  0.1347 -0.5917  0.6425
  750MOL0     H 1183  10.943   0.149   7.689 -1.0030  0.4305  1.4918
  750MOL0     H 1184  10.710   0.070   7.701 -3.1767  1.0941 -1.4823
  750MOL0     H 1185  10.491  -0.023   7.643  0.3081 -0.1691 -0.5545
  750MOL0     H 1186  10.493   0.117   7.760 -1.4033  0.9078  1.1863
  750MOL0     H 1187  10.272   0.045   7.567  2.2604 -2.2634  0.2156
  750MOL0     H 1188  10.286  -0.006   7.738 -0.1945  0.5461  1.2626
  750MOL0     H 1189  10.271   0.221   7.832 -1.7411 -0.8587  0.9744
  750MOL0     H 1190  10.269   0.293   7.674 -1.8431 -0.6470 -2.0899
  750MOL0     H 1191  10.059   0.209   7.616 -0.5461  3.3069  1.1630
  750MOL0     H 1192  10.057   0.080   7.736 -1.0932 -0.9124 -0.4747
  750MOL0     H 1193   9.917   0.229   7.843 -0.6510 -0.0760  0.0491
  750MOL0     H 1194  10.074   0.259   7.915 -0.2794  0.0369 -0.0465
  750MOL0     H 1195  10.050   0.480   7.865 -1.7835  0.0453  1.3714
  750MOL0     H 1196  10.052   0.436   7.689  1.7180 -1.9919  0.1052
  750MOL0     H 1197   9.808   0.460   7.867  0.6446  0.9992  0.8150
  750MOL0     H 1198   9.867   0.572   7.747  0.3351 -0.5345  1.4538
  750MOL0     H 1199   9.774   0.282   7.675  0.4488  0.2098 -0.1284
  750MOL0     H 1200   9.860   0.380   7.569  0.3091  1.4360  1.1838
  750MOL0     H 1201   9.705   0.647   7.519 -0.9969  0.3225 -0.3526
  750MOL0     H 1202   9.348   0.730   7.610  1.3830  0.2702  0.8296
  750MOL0     H 1203   9.465   0.797   7.501 -1.1435  1.8741  4.0824
  750MOL0     H 1204   9.211   0.680   7.447 -0.0764 -3.9045  1.1754
  750MOL0     H 1205   9.316   0.557   7.391 -2.3145 -0.7587 -0.0881
  750MOL0     H 1206   9.447   0.752   7.283  0.1469 -1.7206 -0.0327
  750MOL0     H 1207   9.315   0.861   7.311  0.9702  0.6712 -1.4671
  750MOL0     H 1208   9.309   0.594   7.159 -2.3907 -0.9726  1.7104
  750MOL0     H 1209   9.280   0.758   7.088  0.4838 -0.5940 -0.5451
  750MOL0     H 1210   9.153   0.956   7.137 -0.5522  0.2665 -0.2063
  750MOL0     H 1211   8.946   1.201   7.104  2.8877  1.7804 -0.6452
  750MOL0     H 1212   9.099   1.145   7.056  0.5126  2.0337 -0.3916
  750MOL0     H 1213   8.966   1.142   6.938  1.1961  0.9812 -0.4114
  750MOL0     H 1214   8.468   1.116   7.141  1.2647 -0.1461 -0.2327
  750MOL0     H 1215   8.267   1.251   7.068 -2.3816 -0.0494 -1.8228
  750MOL0     H 1216   8.051   1.237   7.033  1.1266  0.3768  0.9894
  750MOL0     H 1217   8.128   1.384   6.956  1.0361  0.5056 -4.2299
  750MOL0     H 1218   7.915   1.394   6.809 -0.8826 -0.9313 -0.9741
  750MOL0     H 1219   7.860   1.258   6.905 -0.7854  1.4132 -0.3833
  750MOL0     H 1220   7.964   1.501   7.033 -0.5245 -0.5632  0.4486
  750MOL0     H 1221   7.862   1.389   7.111  2.3491  2.4804  2.4819
  750MOL0     H 1222   7.777   1.613   6.894  1.9821  1.6277  2.1428
  750MOL0     H 1223   7.683   1.466   6.908 -0.7891  1.0694 -0.0773
  750MOL0     H 1224   7.729   1.702   7.083 -1.1344  0.5481  0.2391
  750MOL0     H 1225   7.703   1.554   7.182 -0.8840  0.2127  0.0048
  750MOL0     H 1226   7.483   1.524   7.059 -1.0832  1.1265 -0.6200
  750MOL0     H 1227   7.498   1.674   7.154  0.0061  1.7340 -1.3726
  750MOL0     H 1228   7.590   1.761   6.917  0.2478 -2.0018  0.1522
  750MOL0     H 1229   7.421   1.787   6.967  1.0052  1.5601  0.2925
  750MOL0     H 1230   7.344   1.600   6.867  0.9450 -2.3540 -0.4277
  750MOL0     H 1231   7.504   1.551   6.812  0.3764  0.8191 -0.6989
  750MOL0     H 1232   8.278   1.062   6.681 -0.5618  0.3890  0.0596
  750MOL0     H 1233   8.492   0.948   6.754  2.6231 -0.4061  2.3115
  750MOL0     H 1234   8.699   0.748   7.102  0.4378 -1.0397  0.2915
  750MOL0     H 1235   8.879   0.613   7.191 -2.6064  0.5073 -0.1496
  750MOL0     H 1236  10.591   0.287   7.374 -0.1302 -1.5522 -0.0412
  750MOL0     H 1237  10.824   0.326   7.306 -0.6254  0.7130  0.5462
  750MOL0     H 1238  11.224   0.462   7.198  0.4638 -0.1998 -0.1718
  750MOL0     H 1239  11.409   0.381   7.073 -1.6920 -0.3602 -0.9383
  750MOL0     H 1240  11.583   0.299   6.989 -0.6945  1.7715  0.2878
  750MOL0     H 1241  11.632   0.376   7.149 -0.0111 -2.4377  3.1943
  750MOL0     H 1242  11.827   0.327   7.001  0.4772  1.8770  1.2259
  750MOL0     H 1243  11.789   0.153   7.014  1.2965 -0.6354  1.6968
  750MOL0     H 1244  11.778   0.206   7.279 -2.2709  2.7821  0.0110
  750MOL0     H 1245  11.837   0.359   7.230 -3.5198 -0.3227  0.1075
  750MOL0     H 1246  12.037   0.256   7.112  0.1930 -2.4967 -1.3568
  750MOL0     H 1247  11.983   0.094   7.153 -0.6696  0.3736  1.6945
  750MOL0     H 1248  12.177   0.211   7.515 -2.0255 -0.4147  1.3517
  750MOL0     H 1249  11.451   0.045   7.345  0.7152  0.0764 -0.6966
  750MOL0     H 1250  11.241   0.124   7.470 -1.5711 -0.7865 -0.2661
  751MOL0     O 1251   7.613   2.920   6.348 -0.0541 -0.0467  0.3489
  751MOL0     C 1252   7.658   2.831   6.274 -0.3725 -0.0863 -0.2563
  751MOL0     O 1253   7.588   2.758   6.184 -0.1110  0.5090 -0.0673
  751MOL0     C 1254   7.454   2.776   6.178  0.3489  0.4258  0.6688
  751MOL0     C 1255   7.367   2.741   6.288  0.1474 -0.0086  0.7376
  751MOL0     C 1256   7.230   2.764   6.276  0.0198 -0.3813  0.0091
  751MOL0     C 1257   7.171   2.822   6.162  0.2765 -0.5433  0.0745
  751MOL0     O 1258   7.033   2.847   6.162 -0.0430  0.5729 -0.2909
  751MOL0     C 1259   6.977   2.895   6.046  0.0404 -0.4328  0.0166
  751MOL0     C 1260   6.827   2.925   6.063  0.6419 -0.2151  0.1148
  751MOL0     C 1261   6.773   2.945   5.923  1.0847  0.5608  0.0253
  751MOL0     C 1262   6.626   2.993   5.938  0.4930 -0.4988 -0.1418
  751MOL0     C 1263   6.525   2.889   6.004  1.0710  0.0845 -0.5083
  751MOL0     C 1264   6.382   2.944   5.996 -1.1305  0.1400  0.2094
  751MOL0     C 1265   6.290   2.851   6.081 -0.2179 -0.1184 -0.9684
  751MOL0     C 1266   6.146   2.877   6.105  0.0407 -0.4251  0.3254
  751MOL0     N 1267   6.073   2.890   5.980  0.2917  0.1106 -0.3649
  751MOL0     C 1268   6.039   2.787   5.898 -0.3935  0.1183 -1.0254
  751MOL0     C 1269   5.971   2.843   5.792 -0.3026  0.7494  0.3651
  751MOL0     C 1270   5.940   2.769   5.664  0.8023  0.1267  0.4364
  751MOL0     C 1271   5.790   2.714   5.676  0.1329 -0.1578  0.6769
  751MOL0     C 1272   5.760   2.606   5.570  0.2077 -0.4834 -0.4354
  751MOL0     C 1273   5.608   2.578   5.586  0.8595  0.3258 -1.2928
  751MOL0     O 1274   5.587   2.516   5.718 -0.7417  0.2634  0.2199
  751MOL0     C 1275   5.478   2.438   5.744 -1.0539 -0.1407  0.2794
  751MOL0     C 1276   5.494   2.343   5.847  0.3746 -0.4643 -0.3224
  751MOL0     C 1277   5.386   2.270   5.893 -0.6674 -0.0566  0.1810
  751MOL0     C 1278   5.410   2.195   6.020 -0.5200 -0.4454 -0.0984
  751MOL0     C 1279   5.261   2.278   5.825 -0.2429  0.1191  0.2962
  751MOL0     C 1280   5.144   2.209   5.874  0.2134 -0.0094  0.1868
  751MOL0     O 1281   5.040   2.205   5.787 -0.4613  0.3500 -0.5499
  751MOL0     C 1282   4.934   2.121   5.805  0.2850  0.1842 -0.1243
  751MOL0     C 1283   4.888   2.065   5.687 -0.2278 -0.3546 -0.1159
  751MOL0     C 1284   4.786   1.969   5.702 -0.3166 -0.0353  0.4964
  751MOL0     C 1285   4.730   1.933   5.821 -0.7159  0.2603 -0.6055
  751MOL0     O 1286   4.642   1.830   5.842 -0.1152  0.1774  0.6404
  751MOL0     C 1287   4.633   1.732   5.739 -1.0154  0.5342 -0.4752
  751MOL0     C 1288   4.758   1.641   5.727 -0.0824 -0.4288  0.0250
  751MOL0     C 1289   4.813   1.581   5.856 -0.3737  0.1772  0.6563
  751MOL0     C 1290   4.719   1.482   5.917  0.2855  0.5441 -0.6827
  751MOL0     C 1291   4.782   1.415   6.039  0.6393  0.5655  0.7533
  751MOL0     C 1292   4.762   1.487   6.176 -0.4245  0.3089 -0.2697
  751MOL0     C 1293   4.829   1.407   6.289  0.2039  0.2636 -0.0444
  751MOL0     C 1294   4.820   1.493   6.408 -0.3034  0.1037 -0.1488
  751MOL0    Cl 1295   4.649   1.512   6.460  0.1002 -0.1336 -0.3905
  751MOL0     C 1296   4.764   2.006   5.928  0.1673 -0.0661  0.1167
  751MOL0     C 1297   4.875   2.093   5.933  0.5235 -0.0673 -0.7645
  751MOL0     O 1298   5.146   2.152   5.982  0.0526  0.1069 -0.1818
  751MOL0     C 1299   5.256   2.366   5.715  0.1039  0.3124 -0.2165
  751MOL0     C 1300   5.357   2.443   5.671  0.0840  0.0364 -0.6082
  751MOL0     N 1301   5.987   2.977   5.808  0.2023 -0.0976  0.0018
  751MOL0     N 1302   6.041   3.004   5.921 -0.1900 -0.4206  0.4610
  751MOL0     C 1303   7.256   2.840   6.048  0.8390 -0.0723  1.2260
  751MOL0     C 1304   7.394   2.813   6.051  0.4814  0.8135 -0.8804
  751MOL0     C 1305   7.802   2.815   6.270 -0.7275 -0.1359  0.1782
  751MOL0     C 1306   7.868   2.758   6.160  0.6112 -0.0254 -0.3257
  751MOL0     C 1307   8.005   2.767   6.148  0.4514 -0.2761 -0.8159
  751MOL0     C 1308   8.085   2.817   6.246 -0.2139  0.1075 -0.5838
  751MOL0     O 1309   8.221   2.808   6.224 -0.2258 -0.4553 -0.7222
  751MOL0     C 1310   8.307   2.792   6.329 -0.3735  0.3294  0.2945
  751MOL0     C 1311   8.452   2.840   6.287  0.9946  0.1417  0.8226
  751MOL0     C 1312   8.555   2.794   6.392 -0.5485 -0.4466  0.0795
  751MOL0     C 1313   8.673   2.893   6.396  0.5296  0.1138 -0.3196
  751MOL0     C 1314   8.781   2.861   6.492 -0.5902  0.7357  1.4248
  751MOL0     C 1315   8.877   2.836   6.567  1.3412 -0.2955  0.5227
  751MOL0     C 1316   8.026   2.852   6.360  0.0999 -0.0306 -0.6050
  751MOL0     C 1317   7.887   2.852   6.376  0.4224 -0.5305  0.5050
  751MOL0     H 1318   7.406   2.707   6.383  1.1769 -0.5545  0.1434
  751MOL0     H 1319   7.159   2.750   6.357 -0.3281 -1.5730 -0.4723
  751MOL0     H 1320   7.032   2.983   6.011 -1.9715  0.6476 -0.6201
  751MOL0     H 1321   6.993   2.817   5.971  2.1770 -1.3107  1.2986
  751MOL0     H 1322   6.778   2.839   6.110 -0.7977  0.6550  0.2552
  751MOL0     H 1323   6.817   3.017   6.121  0.3090  0.8643 -1.5886
  751MOL0     H 1324   6.827   3.023   5.868 -1.2405  1.4962 -1.0791
  751MOL0     H 1325   6.775   2.843   5.883  0.4439  0.8437 -0.7525
  751MOL0     H 1326   6.616   3.079   6.005 -3.4733 -1.5080  0.8754
  751MOL0     H 1327   6.593   3.043   5.846  3.3189  0.1729 -0.8924
  751MOL0     H 1328   6.535   2.794   5.951  2.8905  0.1125 -0.2669
  751MOL0     H 1329   6.554   2.877   6.109  1.7585  3.5197 -0.1807
  751MOL0     H 1330   6.374   3.049   6.024 -0.3292  0.0356  0.8791
  751MOL0     H 1331   6.360   2.937   5.889  1.2409 -1.1180 -0.2654
  751MOL0     H 1332   6.291   2.756   6.026  0.8329  0.4114 -1.9226
  751MOL0     H 1333   6.341   2.836   6.176 -1.2325 -1.0803 -0.5599
  751MOL0     H 1334   6.138   2.971   6.162  2.0286 -0.0690  0.0822
  751MOL0     H 1335   6.103   2.801   6.171 -0.9230 -0.3091 -0.1554
  751MOL0     H 1336   6.064   2.682   5.906 -0.8369 -0.0530 -1.7807
  751MOL0     H 1337   5.952   2.828   5.574  0.9844 -1.1368 -0.3930
  751MOL0     H 1338   6.013   2.690   5.648 -0.1800 -1.1317  1.7972
  751MOL0     H 1339   5.722   2.799   5.679 -0.6310 -0.7736  1.1173
  751MOL0     H 1340   5.786   2.678   5.779  2.1703 -1.1138  0.4704
  751MOL0     H 1341   5.818   2.515   5.585  0.4997 -0.2116  0.1173
  751MOL0     H 1342   5.782   2.635   5.467 -1.1876 -4.0624 -1.9107
  751MOL0     H 1343   5.576   2.509   5.507 -2.0613 -3.6255  2.7381
  751MOL0     H 1344   5.556   2.674   5.590  2.0892  1.0386  3.3013
  751MOL0     H 1345   5.587   2.333   5.901  0.0351 -1.9768  0.0064
  751MOL0     H 1346   5.516   2.200   6.048 -0.7796  1.0699  0.7715
  751MOL0     H 1347   5.358   2.242   6.104  1.8006 -0.8428  1.6784
  751MOL0     H 1348   5.389   2.088   6.023 -2.6698 -0.0800  3.2577
  751MOL0     H 1349   4.936   2.074   5.590  0.4902  1.0198  0.3398
  751MOL0     H 1350   4.757   1.925   5.607 -0.3813  0.8867  0.0708
  751MOL0     H 1351   4.547   1.666   5.756 -0.1897 -0.3180  0.5449
  751MOL0     H 1352   4.602   1.774   5.643 -0.0465  0.2233 -0.9270
  751MOL0     H 1353   4.733   1.564   5.654  1.6806  0.7319 -1.9344
  751MOL0     H 1354   4.842   1.695   5.682 -1.1677  0.3373 -1.1466
  751MOL0     H 1355   4.837   1.664   5.923  3.2709 -0.8227  0.7900
  751MOL0     H 1356   4.909   1.534   5.834 -1.8939 -3.1809  0.5650
  751MOL0     H 1357   4.625   1.526   5.950  0.2704  0.2394 -0.3061
  751MOL0     H 1358   4.703   1.399   5.847 -1.4272  0.0842  0.1959
  751MOL0     H 1359   4.888   1.404   6.015 -0.0318 -0.3883 -2.1420
  751MOL0     H 1360   4.748   1.312   6.052  2.1979  0.4395  6.9091
  751MOL0     H 1361   4.821   1.577   6.157  0.1991 -0.2278 -0.9150
  751MOL0     H 1362   4.654   1.501   6.192 -0.5885  0.4178 -1.3860
  751MOL0     H 1363   4.931   1.381   6.261  0.0725 -1.8774  1.2110
  751MOL0     H 1364   4.774   1.316   6.314  0.7624 -0.7276 -2.1743
  751MOL0     H 1365   4.844   1.595   6.377 -1.0232  0.9774  1.9796
  751MOL0     H 1366   4.881   1.451   6.488 -0.9150 -1.8198 -0.6254
  751MOL0     H 1367   4.713   1.993   6.022  1.5887  1.2136  1.1126
  751MOL0     H 1368   4.902   2.147   6.023  0.9171  1.1459 -1.5674
  751MOL0     H 1369   5.167   2.374   5.653  0.6280 -2.4248 -1.4662
  751MOL0     H 1370   5.354   2.509   5.585  0.5878 -1.7401 -2.0503
  751MOL0     H 1371   7.222   2.873   5.950  1.6983  4.1159  2.1202
  751MOL0     H 1372   7.459   2.832   5.966  2.0909  0.5741  0.2428
  751MOL0     H 1373   7.803   2.719   6.082 -1.4664 -0.8317  1.7076
  751MOL0     H 1374   8.050   2.731   6.056 -0.3243  0.2618 -1.4242
  751MOL0     H 1375   8.276   2.836   6.425  0.3720  0.8636  0.2976
  751MOL0     H 1376   8.310   2.685   6.351  0.5428  0.8081  2.8263
  751MOL0     H 1377   8.444   2.949   6.280  0.2079  0.0329 -0.0609
  751MOL0     H 1378   8.478   2.813   6.184 -1.0656  1.4574 -0.0981
  751MOL0     H 1379   8.600   2.694   6.387  1.2789  0.1159  3.0341
  751MOL0     H 1380   8.498   2.793   6.485 -0.2036  1.3743  0.3421
  751MOL0     H 1381   8.634   2.991   6.425  1.0484  0.5740 -1.1307
  751MOL0     H 1382   8.716   2.901   6.295  1.6240 -0.2461  0.1049
  751MOL0     H 1383   8.959   2.815   6.632  1.6947 -0.1474  0.1299
  751MOL0     H 1384   8.080   2.885   6.448  3.1440 -0.4638 -2.1528
  751MOL0     H 1385   7.833   2.873   6.468  0.8651 -0.4973  0.7645
  752MOL0     O 1386   0.942  10.084   2.316 -0.7375 -0.1488  0.3506
  752MOL0     C 1387   1.039  10.154   2.347 -0.3682  0.3315 -0.0066
  752MOL0     O 1388   1.033  10.256   2.432 -0.0918  0.1676  0.1244
  752MOL0     C 1389   0.914  10.261   2.499  0.5981  0.0832 -0.6857
  752MOL0     C 1390   0.844  10.379   2.494 -0.7169 -0.6582  0.0825
  752MOL0     C 1391   0.719  10.388   2.543 -0.0724 -0.5024 -0.4539
  752MOL0     C 1392   0.652  10.282   2.595 -0.7077  0.2292  0.3335
  752MOL0     O 1393   0.522  10.315   2.621  0.0596  0.2341  0.3453
  752MOL0     C 1394   0.462  10.219   2.706 -0.4253  0.7112 -0.0681
  752MOL0     C 1395   0.329  10.276   2.753  0.9271 -0.3211 -0.6091
  752MOL0     C 1396   0.238  10.323   2.637  0.4754 -0.5056  0.4231
  752MOL0     C 1397   0.096  10.333   2.698 -0.1244 -0.1390 -0.0836
  752MOL0     C 1398  -0.004  10.373   2.595 -0.3955 -0.2034  0.4009
  752MOL0     C 1399   0.014  10.521   2.540  0.3358  0.4366  0.2542
  752MOL0     C 1400  -0.099  10.560   2.454  0.8212 -1.3983  0.2157
  752MOL0     C 1401  -0.072  10.690   2.380  0.2362  0.4081 -0.7846
  752MOL0     N 1402  -0.184  10.745   2.313 -0.5530 -0.6700 -0.2555
  752MOL0     C 1403  -0.265  10.682   2.226  0.5834 -0.0822  0.5299
  752MOL0     C 1404  -0.365  10.766   2.203 -0.2081 -0.1036 -0.2134
  752MOL0     C 1405  -0.488  10.730   2.112  0.4398 -0.0646 -0.5606
  752MOL0     C 1406  -0.501  10.778   1.976 -0.3949 -0.0207 -0.5695
  752MOL0     C 1407  -0.467  10.925   1.957 -0.1207  0.5927  1.0256
  752MOL0     C 1408  -0.575  11.011   2.021  1.1027 -0.6070 -0.9153
  752MOL0     O 1409  -0.699  11.009   1.947 -0.3329  0.1989 -0.1800
  752MOL0     C 1410  -0.805  11.069   2.008  0.5339 -0.8024 -0.4509
  752MOL0     C 1411  -0.806  11.189   2.088 -0.2957 -0.3531 -0.6664
  752MOL0     C 1412  -0.925  11.247   2.139  0.0206  0.0893 -0.3154
  752MOL0     C 1413  -0.906  11.379   2.214  0.0480 -0.3978 -0.4167
  752MOL0     C 1414  -1.052  11.193   2.098  0.4929  0.2552 -0.8403
  752MOL0     C 1415  -1.184  11.244   2.139  0.3409 -0.0589 -0.4069
  752MOL0     O 1416  -1.278  11.142   2.140  0.4050 -0.0010 -0.4384
  752MOL0     C 1417  -1.407  11.177   2.181 -0.0687 -0.2183  0.5219
  752MOL0     C 1418  -1.521  11.183   2.096 -0.3665 -0.3737 -0.8360
  752MOL0     C 1419  -1.649  11.222   2.151  0.9917  0.4372  0.4866
  752MOL0     C 1420  -1.667  11.252   2.284  0.1709  0.3235  0.1202
  752MOL0     O 1421  -1.792  11.283   2.334 -0.6699 -0.2297  0.5683
  752MOL0     C 1422  -1.845  11.176   2.416 -0.4831 -0.6070 -0.3296
  752MOL0     C 1423  -1.988  11.199   2.427 -0.4829 -0.3151 -0.8285
  752MOL0     C 1424  -2.056  11.093   2.512  0.3804  0.3304 -0.0315
  752MOL0     C 1425  -2.196  11.141   2.557  0.2004  0.7549  0.1210
  752MOL0     C 1426  -2.256  11.042   2.660 -0.1521 -0.1152  0.0076
  752MOL0     C 1427  -2.323  10.923   2.588 -0.3003  0.3343 -0.2966
  752MOL0     C 1428  -2.388  10.839   2.700 -1.3425 -0.0758  0.2495
  752MOL0     C 1429  -2.454  10.712   2.651  0.9927 -0.3720  0.0013
  752MOL0    Cl 1430  -2.598  10.751   2.543  0.1460  0.5524 -0.0692
  752MOL0     C 1431  -1.552  11.237   2.369  0.2406 -0.2700  0.1234
  752MOL0     C 1432  -1.427  11.215   2.319 -0.3789 -0.3085 -0.3834
  752MOL0     O 1433  -1.200  11.360   2.175  0.1216  0.2923  0.2438
  752MOL0     C 1434  -1.047  11.069   2.025 -0.1315 -0.4641  0.7395
  752MOL0     C 1435  -0.929  11.013   1.980  0.3063  0.3037  0.6557
  752MOL0     N 1436  -0.357  10.871   2.289 -0.7470 -0.1423  0.8341
  752MOL0     N 1437  -0.240  10.863   2.344 -0.7381  0.1389  0.1551
  752MOL0     C 1438   0.717  10.165   2.619 -0.6300 -0.0773 -0.3091
  752MOL0     C 1439   0.849  10.151   2.571  0.4361 -0.1038 -0.1268
  752MOL0     C 1440   1.171  10.132   2.291  0.6058 -0.2167  0.8723
  752MOL0     C 1441   1.225  10.006   2.248  0.9826  0.1703 -0.2528
  752MOL0     C 1442   1.347   9.981   2.184  0.3192 -1.0407  0.2774
  752MOL0     C 1443   1.429  10.092   2.184  0.2753 -0.1509 -0.3369
  752MOL0     O 1444   1.548  10.062   2.128 -0.1668  0.0925  0.2857
  752MOL0     C 1445   1.613  10.170   2.054 -0.8299 -0.2887 -0.2845
  752MOL0     C 1446   1.709  10.113   1.962  0.6455  0.5302  0.3281
  752MOL0     C 1447   1.642  10.047   1.841  0.1261  0.9205  0.1587
  752MOL0     C 1448   1.543   9.935   1.865 -0.5077 -0.4658  0.4784
  752MOL0     C 1449   1.613   9.818   1.919 -0.2777  0.2711  0.0791
  752MOL0     C 1450   1.670   9.717   1.953 -0.7463  0.8253 -0.9202
  752MOL0     C 1451   1.399  10.212   2.252 -0.0500 -0.6680 -0.4659
  752MOL0     C 1452   1.268  10.234   2.294  0.1373  0.1415  0.2123
  752MOL0     H 1453   0.882  10.463   2.435  1.4120 -1.9503 -0.4923
  752MOL0     H 1454   0.668  10.483   2.536 -0.7685 -0.8151  0.1879
  752MOL0     H 1455   0.443  10.128   2.649 -3.5827  1.2028 -0.0132
  752MOL0     H 1456   0.525  10.206   2.794  3.0953 -0.9092 -2.5823
  752MOL0     H 1457   0.289  10.199   2.820  2.1098  2.6008  3.8851
  752MOL0     H 1458   0.347  10.357   2.823 -1.4078 -0.4791  0.2614
  752MOL0     H 1459   0.270  10.421   2.601 -2.4206  0.7522  0.9910
  752MOL0     H 1460   0.247  10.248   2.558  2.3323 -0.7485  0.8256
  752MOL0     H 1461   0.075  10.238   2.748 -0.9765  1.0878  2.0261
  752MOL0     H 1462   0.093  10.418   2.767 -1.4589  2.2558 -2.8595
  752MOL0     H 1463   0.000  10.302   2.512  3.1151 -0.8151  0.9429
  752MOL0     H 1464  -0.103  10.354   2.638 -0.6160 -2.1347 -0.8603
  752MOL0     H 1465   0.005  10.597   2.618  0.9954 -0.1983  0.9777
  752MOL0     H 1466   0.113  10.527   2.496  1.3596 -0.5032  2.2518
  752MOL0     H 1467  -0.112  10.484   2.376  1.3317 -1.5508  0.2781
  752MOL0     H 1468  -0.196  10.568   2.504  0.5814  0.0800 -0.4058
  752MOL0     H 1469   0.009  10.665   2.311  1.9132  1.3994  0.7427
  752MOL0     H 1470  -0.030  10.765   2.448 -0.7675  1.2627 -1.0841
  752MOL0     H 1471  -0.258  10.584   2.180 -2.1405 -1.8737  3.5037
  752MOL0     H 1472  -0.474  10.622   2.097  5.2213  0.1222  0.7125
  752MOL0     H 1473  -0.574  10.760   2.172 -0.0690 -0.1868 -1.2158
  752MOL0     H 1474  -0.603  10.766   1.938 -0.0575 -0.7156 -1.2993
  752MOL0     H 1475  -0.433  10.717   1.915 -0.5552 -1.7065  0.8681
  752MOL0     H 1476  -0.470  10.939   1.849  0.5428 -1.3677  0.7299
  752MOL0     H 1477  -0.366  10.958   1.981  0.7269  0.1523 -1.7004
  752MOL0     H 1478  -0.544  11.115   2.035 -2.6122  0.4343  0.9565
  752MOL0     H 1479  -0.592  10.986   2.126  1.9406  1.4435 -0.2291
  752MOL0     H 1480  -0.714  11.245   2.098  0.6291 -1.5869 -1.9357
  752MOL0     H 1481  -0.962  11.375   2.308 -2.7918 -3.1967 -2.0522
  752MOL0     H 1482  -0.798  11.390   2.231  0.3204 -2.0295 -0.8811
  752MOL0     H 1483  -0.928  11.460   2.145 -0.2601  0.9758  1.2387
  752MOL0     H 1484  -1.504  11.145   1.995 -0.4814 -0.5025 -0.8078
  752MOL0     H 1485  -1.740  11.208   2.094  1.1607  1.4016 -0.0525
  752MOL0     H 1486  -1.838  11.073   2.380 -3.1024 -1.0396  0.2180
  752MOL0     H 1487  -1.808  11.196   2.517  1.4798  1.3438 -1.3624
  752MOL0     H 1488  -1.996  11.295   2.479  0.7015 -0.9601  0.6455
  752MOL0     H 1489  -2.024  11.199   2.324  1.3563 -0.1126 -1.5164
  752MOL0     H 1490  -1.997  11.074   2.602  1.3478  3.4473  0.1225
  752MOL0     H 1491  -2.077  11.004   2.452  0.2917  0.0833  0.3595
  752MOL0     H 1492  -2.192  11.230   2.620  1.4107 -0.0223  1.1811
  752MOL0     H 1493  -2.261  11.172   2.474 -2.3740 -0.6671  1.4788
  752MOL0     H 1494  -2.337  11.095   2.710  0.0919  0.6978 -0.4364
  752MOL0     H 1495  -2.185  11.011   2.738  1.0688 -0.3036 -1.1374
  752MOL0     H 1496  -2.401  10.952   2.516  0.0096 -0.4065 -0.9464
  752MOL0     H 1497  -2.254  10.861   2.530 -1.8024 -2.5861  0.7865
  752MOL0     H 1498  -2.458  10.910   2.744 -0.7238 -1.2807  3.4162
  752MOL0     H 1499  -2.315  10.821   2.780  0.2351  0.9554 -0.8786
  752MOL0     H 1500  -2.491  10.655   2.736 -1.9929  1.0143 -0.2678
  752MOL0     H 1501  -2.385  10.643   2.600 -0.2795 -2.0607  0.4763
  752MOL0     H 1502  -1.556  11.259   2.476  1.5571 -6.2056  1.7589
  752MOL0     H 1503  -1.343  11.217   2.387  0.1605 -0.9382 -1.0191
  752MOL0     H 1504  -1.138  11.020   1.992 -1.8273  1.6165  2.0658
  752MOL0     H 1505  -0.927  10.919   1.925 -0.0555 -0.0588  1.2537
  752MOL0     H 1506   0.676  10.074   2.663 -0.4634 -0.1952 -0.3931
  752MOL0     H 1507   0.900  10.056   2.587 -0.6492 -1.0467 -1.9999
  752MOL0     H 1508   1.162   9.919   2.262  0.0535  0.6562 -1.3317
  752MOL0     H 1509   1.379   9.885   2.146 -1.6002 -1.2814 -0.8675
  752MOL0     H 1510   1.537  10.232   2.008  1.1926  1.9847 -0.7433
  752MOL0     H 1511   1.664  10.236   2.125 -0.3965 -1.4700  0.5354
  752MOL0     H 1512   1.769  10.037   2.012 -0.1436 -0.3501 -0.0267
  752MOL0     H 1513   1.781  10.188   1.928 -1.4285  2.3496 -0.3336
  752MOL0     H 1514   1.726  10.007   1.783  0.5454 -0.2546  1.5044
  752MOL0     H 1515   1.591  10.123   1.782 -2.3792 -0.2615  0.6846
  752MOL0     H 1516   1.510   9.907   1.765  1.0984  1.7208 -0.7821
  752MOL0     H 1517   1.452   9.966   1.917 -0.1397  1.7276 -0.0622
  752MOL0     H 1518   1.724   9.638   2.001  1.6336  2.3008 -1.0419
  752MOL0     H 1519   1.476  10.288   2.248  1.1752 -1.8905 -1.1247
  752MOL0     H 1520   1.238  10.335   2.322 -0.2987  1.0936 -3.1806
  753MOL0     O 1521   6.867   8.549   4.140 -0.3941  0.6713 -0.1677
  753MOL0     C 1522   6.869   8.539   4.017 -0.1270  0.4876  0.5944
  753MOL0     O 1523   6.761   8.569   3.934  0.3004  0.0253 -0.4588
  753MOL0     C 1524   6.652   8.627   3.986  0.3817 -0.9994 -0.1285
  753MOL0     C 1525   6.622   8.766   3.962 -0.0479 -0.2854  0.3491
  753MOL0     C 1526   6.507   8.829   4.014 -0.4865 -0.1679 -0.4646
  753MOL0     C 1527   6.415   8.756   4.086 -0.2530 -0.4256  0.1014
  753MOL0     O 1528   6.300   8.815   4.144 -0.2110 -0.3596 -0.3043
  753MOL0     C 1529   6.272   8.954   4.128  1.1521 -0.3480 -0.5237
  753MOL0     C 1530   6.360   9.046   4.210 -0.4739 -0.3280 -0.3144
  753MOL0     C 1531   6.283   9.105   4.327 -0.0891  0.4233 -0.0685
  753MOL0     C 1532   6.249   9.006   4.437  0.0247  0.1806  0.8059
  753MOL0     C 1533   6.178   9.058   4.559 -0.2252 -0.5268 -0.4735
  753MOL0     C 1534   6.029   9.056   4.527  0.5734  0.2020  0.3678
  753MOL0     C 1535   5.947   9.111   4.647 -0.2309 -0.4286  0.3210
  753MOL0     C 1536   5.790   9.122   4.629 -0.0777  0.6876 -0.9824
  753MOL0     N 1537   5.730   8.993   4.676  0.0047 -0.5393  0.2162
  753MOL0     C 1538   5.662   8.980   4.793 -0.3119  0.6327  0.3334
  753MOL0     C 1539   5.618   8.853   4.788 -0.0694 -0.3543  0.7642
  753MOL0     C 1540   5.530   8.776   4.881 -0.3710  0.2810  0.1099
  753MOL0     C 1541   5.374   8.793   4.860  0.0097  0.1366  0.1077
  753MOL0     C 1542   5.307   8.874   4.964 -0.9431  0.4987  0.1467
  753MOL0     C 1543   5.191   8.954   4.919 -0.4195 -0.8062  0.6141
  753MOL0     O 1544   5.078   8.878   4.889 -0.1450 -0.0363  0.0581
  753MOL0     C 1545   4.963   8.947   4.865 -0.2172 -0.5154  0.4272
  753MOL0     C 1546   4.847   8.868   4.865 -0.5015  0.2280  0.4633
  753MOL0     C 1547   4.718   8.914   4.854  0.8867  0.4751 -1.3246
  753MOL0     C 1548   4.611   8.805   4.861  0.5681 -0.2109  0.3329
  753MOL0     C 1549   4.697   9.052   4.827  0.5088  0.4020 -0.6885
  753MOL0     C 1550   4.570   9.110   4.784 -0.6344 -0.4221 -0.9045
  753MOL0     O 1551   4.456   9.035   4.776  0.1003 -0.1040  0.0003
  753MOL0     C 1552   4.331   9.107   4.771  0.0292 -0.2938 -0.6364
  753MOL0     C 1553   4.247   9.102   4.663  0.5160 -0.9961  0.8413
  753MOL0     C 1554   4.140   9.187   4.647 -0.5519 -0.0154  1.3539
  753MOL0     C 1555   4.096   9.274   4.748 -0.5091 -0.3138 -0.5837
  753MOL0     O 1556   3.972   9.328   4.738  0.2890 -0.2672  0.1521
  753MOL0     C 1557   3.925   9.389   4.859 -0.4429 -1.1776  0.1573
  753MOL0     C 1558   3.782   9.454   4.835  0.9069 -0.0035 -0.2496
  753MOL0     C 1559   3.680   9.351   4.781  0.3933 -0.3800 -0.6570
  753MOL0     C 1560   3.553   9.433   4.740  0.0607  0.2747  0.6624
  753MOL0     C 1561   3.429   9.345   4.753 -0.2660 -0.5654  0.2495
  753MOL0     C 1562   3.386   9.315   4.900  0.1782  0.2412  0.5608
  753MOL0     C 1563   3.272   9.215   4.906  0.0875  0.5414 -0.8273
  753MOL0     C 1564   3.136   9.275   4.913 -0.3958  0.4958 -0.5505
  753MOL0    Cl 1565   3.012   9.155   4.891  0.3487  0.1702  0.3293
  753MOL0     C 1566   4.186   9.276   4.864 -0.8991 -0.1634  0.6626
  753MOL0     C 1567   4.297   9.199   4.871 -0.3000  0.5458 -0.8730
  753MOL0     O 1568   4.575   9.232   4.789  0.4913  0.2353 -0.1286
  753MOL0     C 1569   4.812   9.132   4.839 -0.2801 -0.1669 -0.2732
  753MOL0     C 1570   4.947   9.081   4.860  0.1697 -0.9464 -0.0573
  753MOL0     N 1571   5.660   8.808   4.667  0.2543 -0.2367 -0.5579
  753MOL0     N 1572   5.737   8.881   4.601 -0.0596 -0.5499 -0.5128
  753MOL0     C 1573   6.444   8.626   4.120 -0.4205 -0.3075  0.1147
  753MOL0     C 1574   6.560   8.563   4.074 -0.6035  0.6383  0.5114
  753MOL0     C 1575   6.995   8.487   3.954 -0.3956  0.1477 -0.1614
  753MOL0     C 1576   7.116   8.481   4.026  0.3920 -0.1553 -0.4365
  753MOL0     C 1577   7.228   8.428   3.961  0.7868 -0.1029 -1.0856
  753MOL0     C 1578   7.223   8.390   3.827 -0.0784 -0.6818  0.1398
  753MOL0     O 1579   7.330   8.324   3.778  0.1470  0.0392  0.1759
  753MOL0     C 1580   7.444   8.399   3.756  0.2935  0.2160  0.1226
  753MOL0     C 1581   7.565   8.308   3.793  0.0705  0.1617 -0.2537
  753MOL0     C 1582   7.686   8.384   3.745 -0.4486  0.0975  0.2232
  753MOL0     C 1583   7.813   8.316   3.810 -0.2559 -0.5621 -0.0042
  753MOL0     C 1584   7.927   8.405   3.770 -1.0719  0.1237  0.8656
  753MOL0     C 1585   8.017   8.486   3.738 -0.6189  0.1572 -0.0228
  753MOL0     C 1586   7.097   8.404   3.754 -0.8803  0.3688 -0.2840
  753MOL0     C 1587   6.986   8.450   3.819  0.5346 -0.0566  0.6880
  753MOL0     H 1588   6.698   8.819   3.906  1.7219 -4.4682 -1.6946
  753MOL0     H 1589   6.481   8.928   3.980 -3.4718 -0.2104  1.3005
  753MOL0     H 1590   6.296   8.982   4.025  1.7776 -3.4996 -1.3324
  753MOL0     H 1591   6.166   8.978   4.129  1.5595  1.6055 -0.6221
  753MOL0     H 1592   6.448   8.990   4.243  0.9698  1.8886 -0.2012
  753MOL0     H 1593   6.386   9.136   4.154  0.4543 -1.9444 -2.6350
  753MOL0     H 1594   6.348   9.181   4.371  1.7858 -0.7592 -0.6334
  753MOL0     H 1595   6.194   9.157   4.291 -0.0154  0.0444 -0.8159
  753MOL0     H 1596   6.182   8.932   4.392 -0.2732  0.4979  0.7323
  753MOL0     H 1597   6.339   8.946   4.454  0.3699  0.7498  0.9734
  753MOL0     H 1598   6.199   8.991   4.644 -1.1110  0.4638  0.5602
  753MOL0     H 1599   6.215   9.155   4.593 -0.1490 -0.5508 -0.4864
  753MOL0     H 1600   6.010   9.111   4.434 -0.3386 -0.9908 -0.1696
  753MOL0     H 1601   5.995   8.953   4.519  2.8294 -0.6426  0.7962
  753MOL0     H 1602   5.979   9.064   4.741  0.1736  0.7952  0.8171
  753MOL0     H 1603   5.977   9.216   4.654 -2.2920  0.2009  0.2726
  753MOL0     H 1604   5.775   9.122   4.521  2.1329 -2.4978 -1.4369
  753MOL0     H 1605   5.752   9.205   4.688  1.4841  0.8683 -0.1688
  753MOL0     H 1606   5.651   9.052   4.874 -1.5512  0.8347 -0.0027
  753MOL0     H 1607   5.555   8.673   4.854 -0.1156  0.1451  0.8280
  753MOL0     H 1608   5.550   8.769   4.989 -0.0932  0.1544  0.0510
  753MOL0     H 1609   5.327   8.695   4.848  0.8536 -0.2014 -0.5298
  753MOL0     H 1610   5.362   8.832   4.759  0.7867  1.8601  0.6458
  753MOL0     H 1611   5.374   8.950   5.006  1.2162 -0.0206 -2.1648
  753MOL0     H 1612   5.279   8.804   5.044 -0.4950  1.0933  0.8356
  753MOL0     H 1613   5.227   9.013   4.834 -0.4232 -1.2644  0.2903
  753MOL0     H 1614   5.172   9.017   5.005  0.7379  0.5300 -0.0701
  753MOL0     H 1615   4.865   8.768   4.904 -0.3914  0.5244  1.1997
  753MOL0     H 1616   4.570   8.816   4.962  2.2172  0.9722  0.9414
  753MOL0     H 1617   4.538   8.814   4.780  1.2140  0.9417 -0.1544
  753MOL0     H 1618   4.657   8.706   4.855 -1.2858 -1.0678 -0.3713
  753MOL0     H 1619   4.284   9.033   4.587  2.9789  0.9683  0.1416
  753MOL0     H 1620   4.070   9.173   4.566 -1.6387  0.1765  2.2328
  753MOL0     H 1621   3.922   9.320   4.943 -0.2115  0.1539  1.2867
  753MOL0     H 1622   3.986   9.472   4.897 -1.1557 -0.2386 -0.6716
  753MOL0     H 1623   3.749   9.486   4.935  1.6391  1.3555 -0.4221
  753MOL0     H 1624   3.798   9.540   4.770 -1.3669  0.5230 -0.1960
  753MOL0     H 1625   3.671   9.277   4.862  1.1889 -0.8020 -0.9409
  753MOL0     H 1626   3.710   9.283   4.701 -0.7374 -0.1210 -1.3142
  753MOL0     H 1627   3.547   9.525   4.800  1.2865  0.2333  0.8830
  753MOL0     H 1628   3.577   9.470   4.640  1.9440 -0.6653  0.7131
  753MOL0     H 1629   3.438   9.252   4.696  0.2642 -0.4371  0.1279
  753MOL0     H 1630   3.347   9.404   4.711 -1.4885 -2.5740 -0.3174
  753MOL0     H 1631   3.465   9.249   4.937  1.5387  1.6077  0.2347
  753MOL0     H 1632   3.381   9.399   4.970  1.3138  1.8419 -1.1656
  753MOL0     H 1633   3.294   9.167   5.001  1.3463  1.6377 -0.5245
  753MOL0     H 1634   3.273   9.138   4.828 -0.2126 -0.5580  0.2376
  753MOL0     H 1635   3.137   9.348   4.832  1.0944 -1.7570 -2.7151
  753MOL0     H 1636   3.125   9.324   5.010  1.0360 -1.8501  0.9087
  753MOL0     H 1637   4.155   9.325   4.955 -0.5325 -0.3431  0.8867
  753MOL0     H 1638   4.373   9.232   4.942 -0.6014 -0.4734 -0.0646
  753MOL0     H 1639   4.810   9.240   4.832 -0.2897 -0.1843 -0.5559
  753MOL0     H 1640   5.032   9.147   4.871  1.1800 -1.9676 -1.3952
  753MOL0     H 1641   6.373   8.566   4.177 -0.5693 -0.7469 -0.5171
  753MOL0     H 1642   6.585   8.466   4.117 -1.3062  0.9682  1.7417
  753MOL0     H 1643   7.129   8.505   4.131 -2.9846  1.7881 -0.3320
  753MOL0     H 1644   7.317   8.417   4.023 -0.8302  0.7685  1.5557
  753MOL0     H 1645   7.453   8.443   3.656 -0.1924 -2.2235 -1.0466
  753MOL0     H 1646   7.445   8.480   3.830  1.0679 -0.5566  0.9813
  753MOL0     H 1647   7.570   8.211   3.744 -0.1366 -0.1080  0.2501
  753MOL0     H 1648   7.566   8.292   3.902 -0.7326  2.0425  0.0602
  753MOL0     H 1649   7.683   8.489   3.775  2.7190  0.1979  0.6206
  753MOL0     H 1650   7.694   8.370   3.637  1.3874 -3.3559  0.6714
  753MOL0     H 1651   7.835   8.213   3.779  0.2198 -0.9733  1.5862
  753MOL0     H 1652   7.800   8.301   3.917  1.4904 -1.3472  0.1471
  753MOL0     H 1653   8.099   8.547   3.708  0.7097 -0.7839  1.4831
  753MOL0     H 1654   7.090   8.358   3.656 -2.4168 -1.0233  0.4152
  753MOL0     H 1655   6.889   8.434   3.773 -0.7667 -1.2730  3.6039
  754MOL0     O 1656   8.227   7.594   1.545 -0.0173 -0.0873  0.0215
  754MOL0     C 1657   8.214   7.475   1.539  0.0026  0.0745  0.5735
  754MOL0     O 1658   8.101   7.414   1.494 -0.0163  0.4045  0.0702
  754MOL0     C 1659   7.999   7.490   1.441 -0.2742  0.4029  0.1538
  754MOL0     C 1660   8.026   7.569   1.329  0.7461  0.6894  0.1894
  754MOL0     C 1661   7.925   7.651   1.277 -0.1319 -0.2508 -0.4235
  754MOL0     C 1662   7.792   7.643   1.329  0.1392  0.1668  0.6109
  754MOL0     O 1663   7.675   7.713   1.272 -0.1705  0.1128 -0.1335
  754MOL0     C 1664   7.689   7.821   1.180  0.0527  0.0238  0.4579
  754MOL0     C 1665   7.580   7.923   1.195  0.2625  0.4263  0.6805
  754MOL0     C 1666   7.456   7.870   1.122 -0.2695 -0.7666 -0.4375
  754MOL0     C 1667   7.342   7.976   1.120 -0.1428 -1.0715  0.5397
  754MOL0     C 1668   7.202   7.914   1.070 -0.4212  0.7022 -0.5640
  754MOL0     C 1669   7.084   7.998   1.117  0.4389 -0.2143 -0.1245
  754MOL0     C 1670   6.964   7.905   1.105  0.2995 -0.0824 -0.1125
  754MOL0     C 1671   6.844   7.966   1.180  0.0058 -0.1756 -0.3509
  754MOL0     N 1672   6.739   7.867   1.184  0.5996 -0.0979 -0.0320
  754MOL0     C 1673   6.615   7.876   1.113 -0.3120  1.2470  0.7694
  754MOL0     C 1674   6.546   7.766   1.148 -0.3695  0.4160 -0.6952
  754MOL0     C 1675   6.403   7.753   1.091 -0.2763  0.1619  0.3478
  754MOL0     C 1676   6.295   7.748   1.196 -0.4202 -1.5115  0.4387
  754MOL0     C 1677   6.162   7.807   1.140  0.3378 -0.6152 -0.8269
  754MOL0     C 1678   6.046   7.790   1.235  0.4443  0.1368  0.3783
  754MOL0     O 1679   6.045   7.660   1.300  0.2616  0.0498 -0.0696
  754MOL0     C 1680   5.940   7.629   1.374 -0.3352  0.4703 -0.6715
  754MOL0     C 1681   5.953   7.494   1.421  0.0304  0.5383 -0.3225
  754MOL0     C 1682   5.864   7.443   1.512 -0.7879  0.1959 -0.1152
  754MOL0     C 1683   5.889   7.297   1.560  0.1351  0.5458 -0.7222
  754MOL0     C 1684   5.745   7.515   1.539 -0.6277  0.5145 -0.7998
  754MOL0     C 1685   5.641   7.470   1.636 -0.1813 -0.4537  0.0736
  754MOL0     O 1686   5.519   7.537   1.622 -0.0143  0.6841 -0.2789
  754MOL0     C 1687   5.404   7.474   1.665  1.1150  0.0604 -0.1864
  754MOL0     C 1688   5.374   7.342   1.639 -0.3248  0.0317 -0.4950
  754MOL0     C 1689   5.258   7.280   1.683 -0.4642  0.2992  0.2843
  754MOL0     C 1690   5.160   7.356   1.752  0.5333 -0.1962 -0.1559
  754MOL0     O 1691   5.030   7.309   1.790  0.2074  0.0647 -0.4944
  754MOL0     C 1692   5.007   7.169   1.814  0.5731  0.3316 -0.0018
  754MOL0     C 1693   4.856   7.151   1.837 -0.5243  1.0911  0.2281
  754MOL0     C 1694   4.816   7.013   1.887  0.4901  0.1232  0.1180
  754MOL0     C 1695   4.667   7.037   1.917  0.1777 -0.3133 -0.3122
  754MOL0     C 1696   4.585   6.910   1.935 -0.9359  0.5663  0.2485
  754MOL0     C 1697   4.456   6.936   2.009 -0.1387  0.1394  0.0623
  754MOL0     C 1698   4.381   6.812   2.074  0.2126  0.1137 -0.2567
  754MOL0     C 1699   4.290   6.858   2.185  0.3485  0.6124  0.7068
  754MOL0    Cl 1700   4.187   6.711   2.225 -0.1563 -0.0884  0.2524
  754MOL0     C 1701   5.176   7.493   1.770 -0.0580 -0.5080 -0.0450
  754MOL0     C 1702   5.301   7.555   1.733 -0.1126  0.2275 -0.0123
  754MOL0     O 1703   5.662   7.382   1.715  0.3537  0.1605  0.3570
  754MOL0     C 1704   5.730   7.646   1.491  0.7666  0.2531 -0.5156
  754MOL0     C 1705   5.829   7.703   1.417  0.4095 -0.0051  0.2090
  754MOL0     N 1706   6.621   7.699   1.245  0.4247 -0.9622  0.3424
  754MOL0     N 1707   6.728   7.755   1.264  0.1159  0.2855 -0.4221
  754MOL0     C 1708   7.768   7.559   1.436 -0.0082 -0.0694  0.6099
  754MOL0     C 1709   7.872   7.489   1.499 -0.1065  0.3413 -0.0109
  754MOL0     C 1710   8.327   7.403   1.587 -0.4312 -0.2964 -0.2187
  754MOL0     C 1711   8.458   7.451   1.584 -0.8115 -0.2878 -0.4633
  754MOL0     C 1712   8.563   7.376   1.646 -0.4705  0.1104 -0.2672
  754MOL0     C 1713   8.540   7.247   1.691  0.0236 -0.1788  0.5639
  754MOL0     O 1714   8.629   7.157   1.752  0.5562 -0.0157  1.1518
  754MOL0     C 1715   8.759   7.136   1.701 -0.9335 -0.3927 -0.6441
  754MOL0     C 1716   8.860   7.217   1.782  0.2455 -0.0149 -0.1556
  754MOL0     C 1717   8.993   7.210   1.717 -0.1537 -0.2216 -0.1779
  754MOL0     C 1718   9.095   7.310   1.786 -0.0201  0.5826  0.8906
  754MOL0     C 1719   9.063   7.449   1.772 -0.4668  0.6276 -0.9567
  754MOL0     C 1720   9.022   7.564   1.747  0.2691  0.5707  0.3851
  754MOL0     C 1721   8.415   7.194   1.680  0.1646  0.4096  0.4019
  754MOL0     C 1722   8.311   7.270   1.628 -0.0170  0.2524 -0.6191
  754MOL0     H 1723   8.129   7.562   1.297 -0.2114 -2.8942 -2.8829
  754MOL0     H 1724   7.942   7.715   1.190 -0.5833 -0.9705 -1.0545
  754MOL0     H 1725   7.785   7.874   1.189 -0.0527  0.4028 -0.4471
  754MOL0     H 1726   7.700   7.776   1.080 -0.8600  1.6821 -0.4379
  754MOL0     H 1727   7.544   7.924   1.298  0.0234 -2.5750  0.7074
  754MOL0     H 1728   7.618   8.022   1.168  1.3377  0.2313  1.4228
  754MOL0     H 1729   7.473   7.835   1.019 -1.2519 -3.6150  0.2617
  754MOL0     H 1730   7.434   7.776   1.173  0.9264 -0.3877  0.8343
  754MOL0     H 1731   7.339   8.007   1.225 -0.0526 -2.0229  0.8369
  754MOL0     H 1732   7.364   8.053   1.046 -0.5443 -2.3231 -0.9363
  754MOL0     H 1733   7.191   7.910   0.961 -0.6525  0.4711 -0.5349
  754MOL0     H 1734   7.198   7.810   1.105  1.1660  0.8388  0.1071
  754MOL0     H 1735   7.097   8.034   1.220 -2.1934 -1.3078  0.7050
  754MOL0     H 1736   7.068   8.077   1.044  2.4243 -0.9640 -1.4402
  754MOL0     H 1737   6.944   7.899   0.997  3.5942  3.5031 -1.1502
  754MOL0     H 1738   6.981   7.806   1.147  0.6431  0.3099  0.6795
  754MOL0     H 1739   6.807   8.055   1.128 -0.2179  0.0778  0.2297
  754MOL0     H 1740   6.892   8.004   1.271 -0.9047  1.0473 -0.3526
  754MOL0     H 1741   6.571   7.949   1.046 -2.5373  0.4249  1.2635
  754MOL0     H 1742   6.376   7.821   1.010  1.0234 -0.1476 -0.3711
  754MOL0     H 1743   6.400   7.652   1.048 -0.0053 -0.9150  2.6911
  754MOL0     H 1744   6.340   7.792   1.285  2.7402 -1.9053 -0.8521
  754MOL0     H 1745   6.287   7.644   1.231 -0.3528 -0.8096  2.6962
  754MOL0     H 1746   6.135   7.769   1.041 -0.4088  0.6538 -1.1318
  754MOL0     H 1747   6.181   7.914   1.129  5.3535 -1.1264  0.6624
  754MOL0     H 1748   5.945   7.798   1.193 -0.0843 -0.5402  1.4844
  754MOL0     H 1749   6.066   7.861   1.315  3.9276  0.6625 -0.7784
  754MOL0     H 1750   6.047   7.439   1.426 -0.6978 -0.6063  1.7662
  754MOL0     H 1751   5.932   7.302   1.661 -2.1950  0.1975  0.3476
  754MOL0     H 1752   5.794   7.244   1.573 -1.1303  2.7460 -0.3447
  754MOL0     H 1753   5.960   7.245   1.496 -0.1403  1.3095 -1.6657
  754MOL0     H 1754   5.443   7.288   1.575 -0.6880  2.9839 -3.6516
  754MOL0     H 1755   5.235   7.176   1.664 -1.7677  0.6198 -0.0121
  754MOL0     H 1756   5.030   7.104   1.729 -0.2685  1.0517 -0.8073
  754MOL0     H 1757   5.056   7.132   1.905  1.9154  0.4834 -0.6361
  754MOL0     H 1758   4.833   7.224   1.916 -0.6834 -1.1194  2.3197
  754MOL0     H 1759   4.805   7.180   1.744 -2.0328  0.8306  0.9354
  754MOL0     H 1760   4.865   6.976   1.978 -0.9572 -0.6482  0.6131
  754MOL0     H 1761   4.820   6.939   1.807 -3.0000 -0.8761  0.6786
  754MOL0     H 1762   4.666   7.103   2.005  0.8926 -0.6823 -0.0196
  754MOL0     H 1763   4.614   7.094   1.841  0.2897  1.3930  0.8349
  754MOL0     H 1764   4.638   6.842   2.001 -1.7327  0.7371  1.0867
  754MOL0     H 1765   4.569   6.862   1.838 -0.1486  1.7156 -0.4836
  754MOL0     H 1766   4.479   7.016   2.081 -1.7851  0.9490 -0.2675
  754MOL0     H 1767   4.382   6.987   1.947  0.3740  1.3393  0.3997
  754MOL0     H 1768   4.443   6.730   2.112 -1.4363 -0.8052  0.5737
  754MOL0     H 1769   4.324   6.763   1.994  0.1227 -1.6872  0.8503
  754MOL0     H 1770   4.221   6.939   2.156  0.8654  1.2736  1.2999
  754MOL0     H 1771   4.345   6.896   2.271  0.0640  3.1157 -0.1459
  754MOL0     H 1772   5.094   7.543   1.820  0.1433 -0.0415 -0.1743
  754MOL0     H 1773   5.317   7.662   1.740 -2.3116  0.8232 -2.4427
  754MOL0     H 1774   5.649   7.713   1.519  0.1552 -0.6081 -0.1744
  754MOL0     H 1775   5.826   7.804   1.377  1.3882 -0.3902 -0.9019
  754MOL0     H 1776   7.669   7.562   1.481 -0.7053  0.6731 -0.9150
  754MOL0     H 1777   7.858   7.416   1.578 -0.2393 -1.7632 -1.8495
  754MOL0     H 1778   8.481   7.553   1.553  0.3491 -0.7044 -1.0232
  754MOL0     H 1779   8.655   7.430   1.669 -0.5514  2.0828 -3.7843
  754MOL0     H 1780   8.777   7.028   1.712  1.6445  0.1826  1.8303
  754MOL0     H 1781   8.767   7.160   1.594 -1.4655  1.0176 -0.3905
  754MOL0     H 1782   8.873   7.179   1.883 -0.9596  4.5239  1.9525
  754MOL0     H 1783   8.828   7.321   1.777  1.6988  0.6461  2.6287
  754MOL0     H 1784   8.998   7.226   1.609  4.1231 -0.3945 -0.1944
  754MOL0     H 1785   9.034   7.109   1.729  1.6174  0.2072 -2.0316
  754MOL0     H 1786   9.187   7.296   1.728 -1.5325  0.7078 -1.7176
  754MOL0     H 1787   9.111   7.288   1.892 -1.4005 -1.4676  0.7269
  754MOL0     H 1788   8.983   7.656   1.707  3.3598  1.0388 -1.9228
  754MOL0     H 1789   8.395   7.091   1.708 -1.4248  0.7363  0.6004
  754MOL0     H 1790   8.212   7.227   1.624  0.1006 -0.0015 -0.7869
  755MOL0     O 1791  10.448   7.794   4.933  0.0987  0.0070  0.2437
  755MOL0     C 1792  10.546   7.726   4.911 -0.2862  0.8965 -0.8255
  755MOL0     O 1793  10.550   7.621   4.825 -0.2931 -0.5183 -0.0174
  755MOL0     C 1794  10.438   7.625   4.743 -0.5015  0.6102 -0.1430
  755MOL0     C 1795  10.335   7.522   4.752  0.4637 -0.0146  0.1769
  755MOL0     C 1796  10.222   7.528   4.673 -0.6703 -0.4592  0.1248
  755MOL0     C 1797  10.210   7.629   4.577 -1.0173 -0.1243 -0.3966
  755MOL0     O 1798  10.097   7.636   4.502  0.0502 -0.6809 -0.0103
  755MOL0     C 1799   9.980   7.660   4.581  0.2431  0.0290  0.0317
  755MOL0     C 1800   9.886   7.768   4.521 -0.1960  0.0770 -0.9436
  755MOL0     C 1801   9.814   7.727   4.391 -0.3810  0.5312  0.4841
  755MOL0     C 1802   9.697   7.826   4.353  0.1198  0.5546 -0.1929
  755MOL0     C 1803   9.636   7.834   4.206  0.0786 -0.5786  0.1373
  755MOL0     C 1804   9.509   7.923   4.198  0.1289  0.2290  0.9473
  755MOL0     C 1805   9.472   7.933   4.052 -0.7090 -0.4296 -0.0470
  755MOL0     C 1806   9.359   8.038   4.025  0.0272 -0.2334 -0.1114
  755MOL0     N 1807   9.216   8.001   4.036  0.3766  0.2634  0.0323
  755MOL0     C 1808   9.157   7.949   4.149 -0.5368 -0.0727 -0.7308
  755MOL0     C 1809   9.049   7.882   4.114 -0.1897 -0.4973 -0.1960
  755MOL0     C 1810   8.943   7.825   4.205 -0.1642 -0.4280 -0.1308
  755MOL0     C 1811   8.887   7.941   4.297  0.1943  0.3079 -0.6113
  755MOL0     C 1812   8.782   8.011   4.217  0.8234  0.4706  0.5324
  755MOL0     C 1813   8.640   7.957   4.217  0.0964  0.2635 -0.3167
  755MOL0     O 1814   8.583   7.952   4.350  0.2367 -0.5054  0.5300
  755MOL0     C 1815   8.466   7.900   4.380  0.0458 -0.0228 -0.1970
  755MOL0     C 1816   8.380   7.833   4.292 -0.2053 -0.2095 -0.2065
  755MOL0     C 1817   8.252   7.785   4.333  0.1137  0.4302  0.2736
  755MOL0     C 1818   8.170   7.722   4.231  0.4466 -0.2502 -0.0255
  755MOL0     C 1819   8.219   7.797   4.476 -0.0160  0.0856  0.5151
  755MOL0     C 1820   8.095   7.745   4.532  0.0964  0.1895 -0.7716
  755MOL0     O 1821   8.027   7.641   4.464  0.3783  0.3450 -0.2509
  755MOL0     C 1822   7.908   7.593   4.510  0.2636 -0.0644 -0.2215
  755MOL0     C 1823   7.786   7.677   4.500 -0.1052 -0.5227 -1.1508
  755MOL0     C 1824   7.663   7.612   4.528 -0.1661 -0.1638  0.4469
  755MOL0     C 1825   7.656   7.477   4.574  0.0711  0.5493  0.3454
  755MOL0     O 1826   7.549   7.408   4.613  0.5240  0.2880  0.4463
  755MOL0     C 1827   7.419   7.475   4.604  0.0594 -0.2211  0.5281
  755MOL0     C 1828   7.342   7.437   4.474 -1.0082  0.1945  0.2863
  755MOL0     C 1829   7.196   7.477   4.476  0.4665 -0.6710  0.1587
  755MOL0     C 1830   7.176   7.633   4.476 -0.7107  0.1538 -0.2600
  755MOL0     C 1831   7.039   7.670   4.532 -1.1005 -1.3422  0.0690
  755MOL0     C 1832   6.927   7.614   4.444  0.3783 -0.0395 -0.6986
  755MOL0     C 1833   6.807   7.578   4.533  1.0536  0.3261 -0.2603
  755MOL0     C 1834   6.721   7.698   4.568 -0.9882  0.0757 -0.1800
  755MOL0    Cl 1835   6.568   7.642   4.632 -0.0598  0.0391 -0.2983
  755MOL0     C 1836   7.777   7.410   4.583  0.5684 -0.0516  0.0709
  755MOL0     C 1837   7.898   7.466   4.553  0.4331  0.2068 -0.2329
  755MOL0     O 1838   8.054   7.795   4.638  0.1471 -0.3425  0.0488
  755MOL0     C 1839   8.311   7.853   4.569  0.1840 -0.3959  0.1799
  755MOL0     C 1840   8.430   7.900   4.514 -0.0808 -0.8195 -0.0457
  755MOL0     N 1841   9.029   7.902   3.977  0.6597 -0.8700 -0.0911
  755MOL0     N 1842   9.139   7.965   3.928  0.2462  0.4918  0.1728
  755MOL0     C 1843  10.314   7.727   4.565  0.1174  0.4351  0.2882
  755MOL0     C 1844  10.425   7.723   4.643 -0.1255  0.4260  0.2886
  755MOL0     C 1845  10.669   7.733   4.996 -0.5377  0.0794  1.4911
  755MOL0     C 1846  10.680   7.824   5.097 -1.0551  0.3453 -0.5138
  755MOL0     C 1847  10.793   7.835   5.179  0.9268 -0.5839  0.3654
  755MOL0     C 1848  10.905   7.756   5.158  0.2704 -0.2947 -0.1490
  755MOL0     O 1849  11.013   7.776   5.245  0.1219 -0.0123 -0.4119
  755MOL0     C 1850  11.133   7.720   5.187 -0.3538 -0.0912 -0.2040
  755MOL0     C 1851  11.266   7.780   5.235 -0.3306 -0.1774  0.3131
  755MOL0     C 1852  11.380   7.719   5.156 -1.3049 -0.1061  0.3097
  755MOL0     C 1853  11.510   7.812   5.186 -0.7377 -0.1082  0.3942
  755MOL0     C 1854  11.566   7.768   5.316  0.1155 -0.4763 -0.3460
  755MOL0     C 1855  11.615   7.727   5.427  0.5929  0.2987  0.6736
  755MOL0     C 1856  10.893   7.653   5.064  0.4449 -0.2287 -0.1624
  755MOL0     C 1857  10.772   7.639   4.991  0.1109 -0.1452  0.9291
  755MOL0     H 1858  10.337   7.439   4.822  0.0096 -2.7109 -2.8048
  755MOL0     H 1859  10.147   7.451   4.685 -0.5217 -0.5137  0.7287
  755MOL0     H 1860   9.929   7.563   4.579 -1.2496  0.7983 -0.0523
  755MOL0     H 1861  10.002   7.682   4.686  0.7077 -0.6395  0.0837
  755MOL0     H 1862   9.812   7.794   4.598  0.0001  0.4587 -0.8852
  755MOL0     H 1863   9.946   7.857   4.502  1.1157 -0.0382  2.1148
  755MOL0     H 1864   9.895   7.722   4.318 -1.0743  0.3531 -0.2872
  755MOL0     H 1865   9.773   7.628   4.414  3.2593 -0.8265  1.9401
  755MOL0     H 1866   9.604   7.801   4.405 -0.7309  0.4162 -1.7201
  755MOL0     H 1867   9.725   7.928   4.380 -2.0376  0.9701  0.7162
  755MOL0     H 1868   9.721   7.879   4.154  0.1004 -1.0761 -0.2646
  755MOL0     H 1869   9.612   7.736   4.162  0.9877 -0.6561 -0.2006
  755MOL0     H 1870   9.425   7.874   4.248  1.7822 -2.8520  0.9872
  755MOL0     H 1871   9.530   8.019   4.246 -1.1769  0.3256  1.3536
  755MOL0     H 1872   9.565   7.963   4.004 -0.7562  1.8642  1.1588
  755MOL0     H 1873   9.428   7.840   4.012 -3.9589  0.8745  0.1582
  755MOL0     H 1874   9.370   8.067   3.920  1.2852  1.2292  0.3914
  755MOL0     H 1875   9.370   8.127   4.087 -0.2488 -0.5891  0.4540
  755MOL0     H 1876   9.196   7.956   4.250 -1.5630  1.7640 -0.4063
  755MOL0     H 1877   8.878   7.765   4.140 -0.6817  0.3721 -0.3626
  755MOL0     H 1878   8.974   7.750   4.278 -0.9987 -0.2068  0.4662
  755MOL0     H 1879   8.963   8.014   4.326  0.1956  0.4748 -1.0276
  755MOL0     H 1880   8.846   7.893   4.386 -0.7786  0.0445 -1.1924
  755MOL0     H 1881   8.812   8.015   4.112 -0.2792 -1.2123  0.1006
  755MOL0     H 1882   8.761   8.110   4.259  2.8344  0.4378  1.7532
  755MOL0     H 1883   8.654   7.856   4.176  1.2915 -0.0608  0.7923
  755MOL0     H 1884   8.570   8.017   4.160  0.7588 -0.9288 -2.5057
  755MOL0     H 1885   8.409   7.824   4.188  1.9916  0.3005  0.3056
  755MOL0     H 1886   8.196   7.615   4.233  0.9799 -0.3016 -3.5596
  755MOL0     H 1887   8.063   7.743   4.241  0.7986  1.8122 -0.2107
  755MOL0     H 1888   8.193   7.760   4.131  0.6334  1.5103  0.6538
  755MOL0     H 1889   7.789   7.781   4.470 -1.7440 -0.9269 -2.9470
  755MOL0     H 1890   7.569   7.667   4.524 -0.3806 -0.3959  1.7385
  755MOL0     H 1891   7.361   7.442   4.691  1.1288  6.1331  4.3104
  755MOL0     H 1892   7.428   7.584   4.613  1.7386 -0.2754 -0.0632
  755MOL0     H 1893   7.392   7.485   4.390 -0.4392 -0.4808  0.2311
  755MOL0     H 1894   7.362   7.330   4.473  0.2946  0.4280 -0.3518
  755MOL0     H 1895   7.148   7.434   4.564  0.0397 -1.5716 -0.4936
  755MOL0     H 1896   7.153   7.432   4.385  2.5412  0.9753 -1.7442
  755MOL0     H 1897   7.254   7.671   4.543  0.6210 -0.1895 -1.5573
  755MOL0     H 1898   7.188   7.670   4.373  1.9129  1.8913  0.5628
  755MOL0     H 1899   7.024   7.778   4.539  1.0181 -0.9657 -0.4365
  755MOL0     H 1900   7.034   7.631   4.634  0.8271  0.6485  0.9931
  755MOL0     H 1901   6.896   7.682   4.364 -1.7626 -2.0018 -1.6357
  755MOL0     H 1902   6.954   7.516   4.405 -2.0049 -0.2136 -2.1406
  755MOL0     H 1903   6.834   7.526   4.625  0.3339  0.5140  0.0688
  755MOL0     H 1904   6.738   7.519   4.472  2.6817 -0.8564 -1.0390
  755MOL0     H 1905   6.703   7.766   4.484 -0.7920 -1.8292 -1.8484
  755MOL0     H 1906   6.770   7.759   4.644  1.0592 -0.1875 -1.2295
  755MOL0     H 1907   7.781   7.308   4.622 -0.5001 -1.2331 -2.6679
  755MOL0     H 1908   7.986   7.405   4.537  0.5952  0.7669 -1.6827
  755MOL0     H 1909   8.288   7.864   4.675  2.1174  1.5463  0.4827
  755MOL0     H 1910   8.505   7.951   4.573  0.7577 -1.1174 -0.8234
  755MOL0     H 1911  10.304   7.785   4.474 -1.8960  0.2364  0.3365
  755MOL0     H 1912  10.499   7.794   4.607 -0.5122  0.9677  0.5489
  755MOL0     H 1913  10.597   7.888   5.126 -0.4792  0.4897  0.8612
  755MOL0     H 1914  10.788   7.905   5.262  3.3816 -0.9467  0.9145
  755MOL0     H 1915  11.134   7.613   5.207  2.1833 -0.4877 -2.0448
  755MOL0     H 1916  11.117   7.733   5.080 -1.9053 -1.6406 -0.2025
  755MOL0     H 1917  11.296   7.771   5.340  0.1774  0.3796  0.2207
  755MOL0     H 1918  11.257   7.884   5.203 -0.7908 -1.0494 -2.7962
  755MOL0     H 1919  11.375   7.717   5.047  2.6171 -2.5127  0.0024
  755MOL0     H 1920  11.400   7.618   5.192 -1.3185 -0.4783 -0.7102
  755MOL0     H 1921  11.499   7.921   5.183  0.2129 -0.0317 -0.9813
  755MOL0     H 1922  11.581   7.793   5.105  0.5487  3.3434  0.5685
  755MOL0     H 1923  11.656   7.691   5.519  4.8188  1.2869 -0.5843
  755MOL0     H 1924  10.960   7.569   5.058  0.0006 -0.4671 -2.3101
  755MOL0     H 1925  10.767   7.556   4.921 -2.1377  0.1364  0.7011
  756MOL0     O 1926   9.923   3.708   8.302 -0.4232  0.1325 -0.1038
  756MOL0     C 1927   9.996   3.765   8.222  0.5897  0.5879  0.0144
  756MOL0     O 1928   9.955   3.855   8.125  0.2740 -0.1168 -0.2303
  756MOL0     C 1929   9.822   3.895   8.114 -0.2333 -0.3929 -0.4088
  756MOL0     C 1930   9.708   3.814   8.146 -0.6020 -0.4440 -0.2412
  756MOL0     C 1931   9.573   3.869   8.121  0.0717  0.2465 -1.0489
  756MOL0     C 1932   9.554   3.998   8.080 -0.0429  0.7735  0.2064
  756MOL0     O 1933   9.417   4.036   8.052 -0.7044  0.6857  0.3133
  756MOL0     C 1934   9.378   4.073   7.916 -0.0953  0.2749 -1.0112
  756MOL0     C 1935   9.308   4.205   7.921  0.0135 -0.1644 -0.1408
  756MOL0     C 1936   9.253   4.247   7.781 -0.0687  0.3917  0.1671
  756MOL0     C 1937   9.132   4.342   7.802 -0.9026  0.0995 -0.1988
  756MOL0     C 1938   9.057   4.383   7.676  0.0396  0.3172  0.6564
  756MOL0     C 1939   9.021   4.263   7.580 -0.2689 -0.7594 -0.3550
  756MOL0     C 1940   8.898   4.299   7.507 -0.0445  0.6269 -0.1086
  756MOL0     C 1941   8.848   4.179   7.427 -0.0087 -0.2592  0.2594
  756MOL0     N 1942   8.735   4.212   7.336 -0.3296 -0.1555 -0.9988
  756MOL0     C 1943   8.735   4.190   7.203  1.0779 -0.5488  0.9574
  756MOL0     C 1944   8.600   4.213   7.162  0.1344  0.7041 -1.5104
  756MOL0     C 1945   8.550   4.195   7.022 -1.1038  0.5790 -0.0439
  756MOL0     C 1946   8.420   4.123   7.013 -1.2150 -0.4361  0.4991
  756MOL0     C 1947   8.387   4.078   6.865 -0.3341  0.0353  0.2132
  756MOL0     C 1948   8.256   3.993   6.864 -0.6955  0.1751  0.1963
  756MOL0     O 1949   8.146   4.069   6.805 -0.0722  0.5274 -0.3958
  756MOL0     C 1950   8.032   4.006   6.774  0.2595  0.5705  0.5163
  756MOL0     C 1951   7.948   4.078   6.688 -0.6356 -0.0352 -1.4869
  756MOL0     C 1952   7.816   4.044   6.655  0.1938 -0.0460  0.8771
  756MOL0     C 1953   7.739   4.145   6.572  0.2674  0.1381  0.6973
  756MOL0     C 1954   7.766   3.915   6.697 -0.3861 -0.6633 -0.2621
  756MOL0     C 1955   7.631   3.853   6.669  0.2095 -0.4910 -0.2481
  756MOL0     O 1956   7.599   3.734   6.735 -0.0790  0.5740  0.0327
  756MOL0     C 1957   7.480   3.664   6.724 -0.0687 -0.2031  0.1721
  756MOL0     C 1958   7.471   3.560   6.816  0.3498 -0.1925  0.3397
  756MOL0     C 1959   7.346   3.494   6.817  0.1981  0.3911  0.1008
  756MOL0     C 1960   7.236   3.516   6.730  0.5475  0.4542 -0.3505
  756MOL0     O 1961   7.120   3.443   6.748 -0.1067  0.0332 -1.1065
  756MOL0     C 1962   7.026   3.431   6.638  0.6554 -0.4262  0.2298
  756MOL0     C 1963   6.909   3.335   6.675  0.4459 -0.1583  0.3757
  756MOL0     C 1964   6.821   3.366   6.797 -1.0893 -0.3327 -0.2640
  756MOL0     C 1965   6.708   3.257   6.819  0.9190  0.5130  0.7646
  756MOL0     C 1966   6.604   3.309   6.916  0.3721 -0.2841 -0.4632
  756MOL0     C 1967   6.514   3.187   6.966  0.5701 -0.1629  0.3272
  756MOL0     C 1968   6.584   3.067   7.036 -0.7889  0.1413 -0.1541
  756MOL0     C 1969   6.491   2.950   7.067 -0.7997  0.0951  0.0949
  756MOL0    Cl 1970   6.561   2.816   7.165  0.1958 -0.0380  0.5953
  756MOL0     C 1971   7.258   3.615   6.636  1.0842  0.0861 -0.3602
  756MOL0     C 1972   7.374   3.695   6.639  0.1684  0.6750 -0.1856
  756MOL0     O 1973   7.555   3.918   6.605  0.8491 -0.0185 -0.4264
  756MOL0     C 1974   7.857   3.840   6.774 -1.1694  0.4195  0.8848
  756MOL0     C 1975   7.985   3.882   6.808  0.0947 -0.0141 -0.2480
  756MOL0     N 1976   8.525   4.244   7.278  0.2043 -0.1095 -0.4851
  756MOL0     N 1977   8.608   4.244   7.382  0.7235 -0.3388  0.0168
  756MOL0     C 1978   9.664   4.083   8.063 -0.0151 -0.0776  0.0587
  756MOL0     C 1979   9.797   4.027   8.078 -0.3674 -0.6370  0.2139
  756MOL0     C 1980  10.144   3.743   8.245 -0.7725  0.4179 -0.1888
  756MOL0     C 1981  10.230   3.812   8.162  0.1194  0.0824 -0.7729
  756MOL0     C 1982  10.371   3.789   8.172  0.5957  1.2578 -0.0279
  756MOL0     C 1983  10.415   3.683   8.261 -0.8292  0.6044  0.7732
  756MOL0     O 1984  10.552   3.665   8.275  0.0875  0.8289 -0.1987
  756MOL0     C 1985  10.618   3.538   8.285  0.2446 -0.6195  0.1439
  756MOL0     C 1986  10.600   3.446   8.167  0.3815  0.0139  0.8184
  756MOL0     C 1987  10.648   3.512   8.030  0.6930  0.1799 -0.3427
  756MOL0     C 1988  10.798   3.551   8.041  0.4007 -0.7080  0.1511
  756MOL0     C 1989  10.850   3.570   7.902 -0.2553 -0.3925  1.0936
  756MOL0     C 1990  10.898   3.594   7.789  0.4272  0.0118  0.5885
  756MOL0     C 1991  10.327   3.618   8.345  0.4621 -0.2146 -0.3326
  756MOL0     C 1992  10.187   3.651   8.340 -0.5885  0.2888  0.5744
  756MOL0     H 1993   9.721   3.714   8.186 -4.0811 -0.5012  1.0521
  756MOL0     H 1994   9.480   3.815   8.133  0.2883  0.0124 -0.3734
  756MOL0     H 1995   9.457   4.077   7.840 -0.1591  2.4104 -1.0232
  756MOL0     H 1996   9.304   4.001   7.880  0.6655 -1.1079  0.0772
  756MOL0     H 1997   9.230   4.205   7.998  1.3304  0.5859  1.2443
  756MOL0     H 1998   9.378   4.280   7.958 -0.4133 -0.3701  1.1300
  756MOL0     H 1999   9.332   4.281   7.714  2.0867 -3.4490  0.5047
  756MOL0     H 2000   9.211   4.164   7.724  0.5436 -0.6569  1.2096
  756MOL0     H 2001   9.054   4.305   7.869  0.8520  1.0546  2.5555
  756MOL0     H 2002   9.168   4.427   7.861 -2.9077  0.8896 -0.0453
  756MOL0     H 2003   8.957   4.417   7.702 -0.3928 -1.2681  1.1842
  756MOL0     H 2004   9.111   4.458   7.618 -0.7803 -1.6615 -3.0325
  756MOL0     H 2005   9.107   4.248   7.514  2.1827 -0.0357  2.4624
  756MOL0     H 2006   9.013   4.177   7.646 -1.7475 -0.2812  0.1150
  756MOL0     H 2007   8.820   4.328   7.578  0.3983 -0.4140  0.8241
  756MOL0     H 2008   8.922   4.384   7.442 -2.6504  1.0695 -0.6275
  756MOL0     H 2009   8.802   4.108   7.495 -3.0074  0.0778 -1.2595
  756MOL0     H 2010   8.933   4.132   7.377 -0.3213 -1.0145  0.4344
  756MOL0     H 2011   8.819   4.147   7.149  1.8984  0.2973  1.5258
  756MOL0     H 2012   8.532   4.291   6.973 -0.5904  0.3167 -0.7662
  756MOL0     H 2013   8.627   4.135   6.971  0.0943  0.8603  1.3718
  756MOL0     H 2014   8.342   4.188   7.053 -0.2619  0.3063  1.2116
  756MOL0     H 2015   8.426   4.042   7.086 -0.4299  1.1626  2.2988
  756MOL0     H 2016   8.464   4.015   6.820 -0.1038  2.0965 -2.5571
  756MOL0     H 2017   8.381   4.158   6.791 -1.4250 -0.0961  0.1338
  756MOL0     H 2018   8.249   3.957   6.967 -0.0587  1.5733  0.7666
  756MOL0     H 2019   8.279   3.907   6.800 -1.4258  0.4063 -0.3897
  756MOL0     H 2020   7.996   4.171   6.661 -0.0554  0.9628  2.3262
  756MOL0     H 2021   7.727   4.098   6.474  2.5191  1.6631 -0.4156
  756MOL0     H 2022   7.644   4.176   6.616  0.2420  2.1111 -0.6361
  756MOL0     H 2023   7.795   4.236   6.547  0.2918 -0.2130 -0.5781
  756MOL0     H 2024   7.549   3.530   6.886  1.0559  0.2447 -0.2495
  756MOL0     H 2025   7.331   3.415   6.890  0.0556 -0.7516 -1.1376
  756MOL0     H 2026   6.979   3.526   6.609  0.5918 -1.1718 -2.4258
  756MOL0     H 2027   7.080   3.399   6.548  1.6412 -1.4924  1.1787
  756MOL0     H 2028   6.843   3.309   6.591  0.2081 -1.9352  1.0687
  756MOL0     H 2029   6.958   3.238   6.690  0.0494 -0.5396 -0.6915
  756MOL0     H 2030   6.771   3.461   6.777 -1.6963 -0.7194 -0.5998
  756MOL0     H 2031   6.885   3.384   6.884 -2.0715 -1.0345  0.6253
  756MOL0     H 2032   6.664   3.233   6.722  1.8021  1.1467  0.1847
  756MOL0     H 2033   6.756   3.165   6.852  2.3490  0.5855 -0.9695
  756MOL0     H 2034   6.539   3.381   6.865 -0.1667  0.2226  0.8860
  756MOL0     H 2035   6.656   3.352   7.002 -0.1721  0.9545 -0.7221
  756MOL0     H 2036   6.429   3.222   7.026 -1.1815  0.2293 -2.2036
  756MOL0     H 2037   6.461   3.146   6.879 -1.2017 -3.8428  2.9021
  756MOL0     H 2038   6.633   3.097   7.129  0.4295  0.6276 -0.9275
  756MOL0     H 2039   6.663   3.030   6.971  0.2459  0.4459  0.8865
  756MOL0     H 2040   6.470   2.913   6.966  2.8741 -2.1242 -0.0358
  756MOL0     H 2041   6.399   2.982   7.118 -0.5264 -1.2546  1.5192
  756MOL0     H 2042   7.172   3.648   6.578 -0.5698  1.1363  2.4486
  756MOL0     H 2043   7.391   3.770   6.563 -0.0735  0.9379  0.0170
  756MOL0     H 2044   7.824   3.745   6.815 -0.5544  0.1501  0.7573
  756MOL0     H 2045   8.049   3.813   6.862 -2.9582 -0.1109  3.7197
  756MOL0     H 2046   9.635   4.186   8.045 -0.1274 -0.6541 -4.0326
  756MOL0     H 2047   9.878   4.097   8.059 -1.2439  0.5384  0.6678
  756MOL0     H 2048  10.182   3.890   8.103  0.3557 -0.6309 -1.9461
  756MOL0     H 2049  10.430   3.846   8.101 -3.1448  2.7218 -2.2615
  756MOL0     H 2050  10.725   3.555   8.299  0.3076  1.0062 -1.9040
  756MOL0     H 2051  10.579   3.493   8.377 -0.9103  0.3164  0.1393
  756MOL0     H 2052  10.493   3.429   8.157  0.7000 -1.2957 -0.9826
  756MOL0     H 2053  10.660   3.356   8.182  0.6376 -0.3800 -1.9067
  756MOL0     H 2054  10.582   3.598   8.017 -1.3746 -1.3088 -0.1092
  756MOL0     H 2055  10.630   3.438   7.952 -1.9677  0.3454  0.0158
  756MOL0     H 2056  10.843   3.462   8.086  0.4741 -0.0910  1.3434
  756MOL0     H 2057  10.818   3.639   8.102  0.2932 -2.0836  2.2744
  756MOL0     H 2058  10.931   3.606   7.689 -1.6060 -1.7982 -0.3965
  756MOL0     H 2059  10.357   3.537   8.411  1.0455  0.4344  0.2222
  756MOL0     H 2060  10.110   3.599   8.396 -0.5712 -0.9865 -0.5577
  757MOL0     O 2061   1.917   4.297   9.212  0.5800 -0.0722 -0.0054
  757MOL0     C 2062   1.967   4.404   9.218 -0.6423  0.5050  0.5429
  757MOL0     O 2063   1.913   4.517   9.280 -1.5048  0.3863 -0.2296
  757MOL0     C 2064   1.779   4.536   9.309 -0.3180  0.2555  0.8518
  757MOL0     C 2065   1.672   4.456   9.262 -0.0734 -0.0760  0.4785
  757MOL0     C 2066   1.540   4.473   9.292 -0.2293 -0.6600 -0.0475
  757MOL0     C 2067   1.505   4.581   9.371 -0.4761  0.7401  1.4914
  757MOL0     O 2068   1.376   4.579   9.405 -0.0615 -0.1416 -1.2066
  757MOL0     C 2069   1.328   4.662   9.515 -0.2144  0.5388 -0.3034
  757MOL0     C 2070   1.200   4.602   9.563 -0.2143 -0.5195  0.6574
  757MOL0     C 2071   1.086   4.630   9.463  0.6608  0.1909  0.3206
  757MOL0     C 2072   0.943   4.602   9.508 -0.3579  0.9192 -0.7397
  757MOL0     C 2073   0.847   4.608   9.391  0.1337 -0.6397  1.6944
  757MOL0     C 2074   0.795   4.755   9.371 -0.1663  0.0806 -0.4608
  757MOL0     C 2075   0.713   4.753   9.245 -0.4375 -0.2150 -0.1507
  757MOL0     C 2076   0.681   4.897   9.204  0.0851 -0.1817 -0.4532
  757MOL0     N 2077   0.608   4.983   9.302 -0.7430  0.2498 -0.6170
  757MOL0     C 2078   0.654   5.041   9.423 -0.4541 -0.4057  1.2018
  757MOL0     C 2079   0.541   5.093   9.475  0.0399  0.1590  0.0476
  757MOL0     C 2080   0.541   5.162   9.608 -0.1911  0.9069 -0.2085
  757MOL0     C 2081   0.424   5.131   9.697 -0.6507 -0.1595  0.1155
  757MOL0     C 2082   0.437   4.991   9.759  1.1659  0.0435  0.8207
  757MOL0     C 2083   0.311   4.922   9.803  0.7861  0.4420 -0.5255
  757MOL0     O 2084   0.266   4.995   9.921 -0.1019 -0.4277 -0.1898
  757MOL0     C 2085   0.132   4.974   9.940  0.0266 -0.5464 -0.6323
  757MOL0     C 2086   0.084   4.854   9.994 -0.3929  0.3879 -0.4168
  757MOL0     C 2087  -0.057   4.822  10.010 -0.3115 -0.4292  0.1213
  757MOL0     C 2088  -0.086   4.689  10.072 -0.0402  0.6334  0.0758
  757MOL0     C 2089  -0.147   4.919   9.949  0.6105  0.3086 -0.2525
  757MOL0     C 2090  -0.284   4.893   9.959  0.4388  0.1168 -0.5625
  757MOL0     O 2091  -0.364   4.945   9.854  0.6599  0.3692 -0.3946
  757MOL0     C 2092  -0.498   4.937   9.871 -0.0750 -0.6202  0.8674
  757MOL0     C 2093  -0.577   5.058   9.857 -0.1625 -0.0310  0.2396
  757MOL0     C 2094  -0.720   5.052   9.871  0.4397 -0.2797 -0.1327
  757MOL0     C 2095  -0.789   4.931   9.891 -0.5094 -0.6702 -0.5471
  757MOL0     O 2096  -0.927   4.921   9.896  0.3549  0.3079 -0.1152
  757MOL0     C 2097  -0.993   5.041   9.865  1.2592 -0.0617  0.1775
  757MOL0     C 2098  -1.142   5.004   9.841 -0.2391 -0.2390  0.5649
  757MOL0     C 2099  -1.244   5.121   9.828  0.5140  0.5816 -0.7453
  757MOL0     C 2100  -1.386   5.079   9.836 -0.3292 -0.1515 -0.1391
  757MOL0     C 2101  -1.482   5.200   9.812  0.0168 -0.0775 -0.6834
  757MOL0     C 2102  -1.625   5.142   9.789  0.3745 -0.5232  0.2717
  757MOL0     C 2103  -1.728   5.260   9.767  1.0348  0.4222 -0.6514
  757MOL0     C 2104  -1.732   5.303   9.620  0.2605 -0.1445 -0.3260
  757MOL0    Cl 2105  -1.797   5.174   9.517 -0.2253 -0.0369 -0.1537
  757MOL0     C 2106  -0.717   4.812   9.910  0.3412  0.2465  0.8813
  757MOL0     C 2107  -0.577   4.812   9.897 -0.1773 -0.1339  0.0402
  757MOL0     O 2108  -0.333   4.855  10.065 -0.3417 -1.1014  0.8273
  757MOL0     C 2109  -0.097   5.027   9.882 -0.6885  0.2425  0.7005
  757MOL0     C 2110   0.040   5.060   9.889 -0.0636 -0.3497  0.0001
  757MOL0     N 2111   0.432   5.068   9.390 -0.5726 -0.3803  0.5823
  757MOL0     N 2112   0.474   4.995   9.294  0.4921 -0.0618 -0.4858
  757MOL0     C 2113   1.603   4.665   9.423  0.1172  0.2241 -0.2657
  757MOL0     C 2114   1.735   4.643   9.397 -0.9308 -0.5608 -0.5614
  757MOL0     C 2115   2.094   4.411   9.143 -0.1549 -0.4237 -0.5288
  757MOL0     C 2116   2.144   4.310   9.065 -0.1954 -0.9001 -0.8086
  757MOL0     C 2117   2.261   4.321   8.988 -0.2382  0.2878  1.0326
  757MOL0     C 2118   2.335   4.440   8.990  0.1945 -0.8982  0.6721
  757MOL0     O 2119   2.452   4.450   8.921 -0.1498 -0.5897  0.0412
  757MOL0     C 2120   2.456   4.537   8.805 -0.3290  0.4724 -0.8444
  757MOL0     C 2121   2.537   4.661   8.825 -0.0329 -0.5867  0.1565
  757MOL0     C 2122   2.682   4.617   8.859  0.7850 -0.0639 -0.4972
  757MOL0     C 2123   2.775   4.731   8.803  0.3733 -0.0982 -0.0491
  757MOL0     C 2124   2.917   4.694   8.818 -0.4094  0.0629 -0.1524
  757MOL0     C 2125   3.037   4.675   8.830  0.2554 -0.1796  0.6319
  757MOL0     C 2126   2.286   4.548   9.070  0.8540  0.2287 -0.0767
  757MOL0     C 2127   2.171   4.535   9.152 -0.3972  0.6245 -0.5458
  757MOL0     H 2128   1.694   4.380   9.188  1.6168  0.2351  0.6101
  757MOL0     H 2129   1.463   4.407   9.252 -1.1853 -0.7818  1.8898
  757MOL0     H 2130   1.389   4.640   9.603  0.0421 -0.2804 -0.6799
  757MOL0     H 2131   1.325   4.769   9.491 -0.5578  1.0225  1.6889
  757MOL0     H 2132   1.206   4.494   9.573  1.5612 -0.5908 -0.5654
  757MOL0     H 2133   1.163   4.659   9.648 -0.4112  4.4031 -2.2869
  757MOL0     H 2134   1.093   4.731   9.422  0.4968 -0.2235 -0.7391
  757MOL0     H 2135   1.106   4.561   9.381  0.9245  0.4364  0.1770
  757MOL0     H 2136   0.941   4.505   9.560  0.7102  0.2563 -1.8773
  757MOL0     H 2137   0.922   4.677   9.585  1.0148  1.2745 -0.6862
  757MOL0     H 2138   0.892   4.554   9.308  0.8714 -1.2892  2.4941
  757MOL0     H 2139   0.758   4.553   9.423 -0.4205 -1.0258 -0.4037
  757MOL0     H 2140   0.725   4.783   9.450  0.6509  1.3013 -0.1317
  757MOL0     H 2141   0.877   4.828   9.375  0.6773 -0.9132  1.8709
  757MOL0     H 2142   0.783   4.712   9.171 -0.7696  2.0139 -1.8199
  757MOL0     H 2143   0.619   4.699   9.255 -1.3052  1.6260  2.6197
  757MOL0     H 2144   0.626   4.896   9.109 -2.6307  1.2443  0.9850
  757MOL0     H 2145   0.779   4.941   9.183  0.1504 -1.0649 -2.2277
  757MOL0     H 2146   0.757   5.035   9.457 -0.4531  0.3808  1.3451
  757MOL0     H 2147   0.635   5.132   9.655 -1.2472 -4.5726 -0.9395
  757MOL0     H 2148   0.535   5.270   9.591  0.7487  0.9639 -0.2264
  757MOL0     H 2149   0.331   5.132   9.639  0.1682 -1.4675 -1.3096
  757MOL0     H 2150   0.413   5.201   9.780 -1.5136 -1.2007  0.9066
  757MOL0     H 2151   0.512   4.987   9.838  3.1545  0.6697 -0.9181
  757MOL0     H 2152   0.471   4.926   9.678  0.2869  1.4790 -0.7708
  757MOL0     H 2153   0.326   4.817   9.829 -1.7026 -0.5521 -2.6887
  757MOL0     H 2154   0.233   4.917   9.727  0.8899 -0.0880 -0.6002
  757MOL0     H 2155   0.162   4.791  10.036 -0.5460  0.5675  0.1299
  757MOL0     H 2156  -0.173   4.639  10.029  0.2986  0.5557 -0.5334
  757MOL0     H 2157   0.005   4.634  10.044 -0.2159  1.1654 -1.6887
  757MOL0     H 2158  -0.083   4.699  10.181  2.2692 -0.7336  0.2175
  757MOL0     H 2159  -0.516   5.146   9.843 -0.4829  0.3965  1.4038
  757MOL0     H 2160  -0.766   5.150   9.868 -0.2348 -0.6148 -1.1802
  757MOL0     H 2161  -0.982   5.115   9.944 -2.6541  1.6929 -0.7062
  757MOL0     H 2162  -0.959   5.086   9.772 -2.2982 -1.6711 -2.1096
  757MOL0     H 2163  -1.142   4.952   9.745 -0.8369  1.7211 -0.5637
  757MOL0     H 2164  -1.169   4.940   9.926 -0.2465  1.8327  2.2043
  757MOL0     H 2165  -1.240   5.162   9.727 -1.0509  0.3030 -0.9415
  757MOL0     H 2166  -1.231   5.209   9.892  1.2548  0.2292 -0.3973
  757MOL0     H 2167  -1.411   5.006   9.759  2.5575 -0.4604 -0.8867
  757MOL0     H 2168  -1.407   5.038   9.936 -2.2491  2.9768  0.8990
  757MOL0     H 2169  -1.440   5.251   9.725  1.5441  1.4187  0.8401
  757MOL0     H 2170  -1.475   5.269   9.897 -2.6717 -0.7359  0.1596
  757MOL0     H 2171  -1.624   5.071   9.706 -2.7250 -1.3261  0.8106
  757MOL0     H 2172  -1.647   5.074   9.871  0.9213 -0.7105  0.2674
  757MOL0     H 2173  -1.690   5.350   9.816 -0.8437  2.5379 -2.7777
  757MOL0     H 2174  -1.828   5.244   9.810  1.4917 -0.6152  0.0437
  757MOL0     H 2175  -1.632   5.336   9.591  1.2854 -1.7037  1.2752
  757MOL0     H 2176  -1.799   5.388   9.604  1.0983  0.3411 -1.3936
  757MOL0     H 2177  -0.776   4.724   9.934  0.3819 -0.1859 -0.5141
  757MOL0     H 2178  -0.522   4.719   9.893  0.8633  0.3701  1.8946
  757MOL0     H 2179  -0.158   5.105   9.838  1.7853  1.9966  0.1947
  757MOL0     H 2180   0.076   5.153   9.847 -0.6027 -1.1934 -2.4821
  757MOL0     H 2181   1.574   4.741   9.495  2.5237 -0.5547  1.6423
  757MOL0     H 2182   1.816   4.710   9.424 -2.6952  0.8419  1.5014
  757MOL0     H 2183   2.082   4.222   9.058  0.9997 -1.7522 -0.8770
  757MOL0     H 2184   2.285   4.237   8.924  2.3962  1.0259  0.9193
  757MOL0     H 2185   2.498   4.490   8.716 -3.6349 -0.9367 -1.8132
  757MOL0     H 2186   2.354   4.571   8.782 -0.0772  1.4036 -0.6445
  757MOL0     H 2187   2.507   4.722   8.911  3.2931  0.9301  0.4150
  757MOL0     H 2188   2.532   4.716   8.731 -0.2405 -0.9463 -0.0461
  757MOL0     H 2189   2.712   4.528   8.804  2.6660  2.1019 -3.2216
  757MOL0     H 2190   2.686   4.608   8.968  2.2647  0.6802 -0.4565
  757MOL0     H 2191   2.769   4.818   8.869  2.1453 -0.2770  0.3917
  757MOL0     H 2192   2.758   4.753   8.697 -2.2427  1.6926  0.6180
  757MOL0     H 2193   3.144   4.669   8.828  0.2342 -0.3641  0.1822
  757MOL0     H 2194   2.347   4.638   9.069  2.3817 -0.7580 -1.2045
  757MOL0     H 2195   2.137   4.620   9.210 -2.7117 -1.4794  1.4136
  758MOL0     O 2196   7.456  10.584   5.961  0.0393  1.0964 -0.7539
  758MOL0     C 2197   7.426  10.650   5.866  0.2464  0.2958  0.3036
  758MOL0     O 2198   7.310  10.639   5.791  0.4641  0.6171 -0.0108
  758MOL0     C 2199   7.192  10.579   5.836 -1.1794  0.2222 -1.2732
  758MOL0     C 2200   7.074  10.651   5.830  0.0888  0.1384 -0.1533
  758MOL0     C 2201   6.947  10.591   5.849 -0.6321  0.0155 -0.5271
  758MOL0     C 2202   6.944  10.450   5.875  0.6306 -0.3046 -0.2550
  758MOL0     O 2203   6.829  10.371   5.876 -0.1622 -0.1579 -0.3925
  758MOL0     C 2204   6.701  10.434   5.875  0.1792 -0.0231 -0.1511
  758MOL0     C 2205   6.594  10.339   5.932  0.0207 -1.0516  0.1004
  758MOL0     C 2206   6.455  10.404   5.935 -0.1876  0.1820  0.4073
  758MOL0     C 2207   6.352  10.296   5.968  0.7111 -0.2176  0.5491
  758MOL0     C 2208   6.222  10.372   6.025 -1.0326  0.0792  1.2301
  758MOL0     C 2209   6.121  10.265   6.075  0.1186  0.2694  0.4837
  758MOL0     C 2210   6.032  10.329   6.183  0.2698 -0.4722 -0.5170
  758MOL0     C 2211   5.954  10.463   6.150  0.2320  0.4722 -0.5446
  758MOL0     N 2212   5.854  10.434   6.047 -1.0388 -0.4851  0.3128
  758MOL0     C 2213   5.727  10.402   6.083  0.3404 -0.8730 -0.4249
  758MOL0     C 2214   5.657  10.454   5.976 -0.0422  0.9981  0.7893
  758MOL0     C 2215   5.505  10.438   5.952  0.2457 -0.8224 -0.4759
  758MOL0     C 2216   5.437  10.557   5.880 -0.3622 -0.4059  0.1404
  758MOL0     C 2217   5.426  10.559   5.728  0.2562 -0.0118  0.1239
  758MOL0     C 2218   5.556  10.561   5.654 -0.6679 -0.0761 -0.1435
  758MOL0     O 2219   5.541  10.584   5.514 -0.2407 -0.4908  0.2487
  758MOL0     C 2220   5.660  10.607   5.442 -0.3860 -0.4220 -1.1492
  758MOL0     C 2221   5.784  10.631   5.503  0.4358 -0.6021  0.2609
  758MOL0     C 2222   5.900  10.639   5.432  0.6127  0.4170 -0.1359
  758MOL0     C 2223   6.039  10.639   5.503  0.5245  0.1061  0.2943
  758MOL0     C 2224   5.896  10.635   5.293 -0.1005 -0.5447 -0.4636
  758MOL0     C 2225   6.016  10.643   5.213 -0.0438  0.2325 -0.2848
  758MOL0     O 2226   6.035  10.559   5.111 -0.4723 -0.3187 -0.1262
  758MOL0     C 2227   6.162  10.536   5.059  0.0331 -0.6598  0.0968
  758MOL0     C 2228   6.174  10.537   4.919  0.3544  0.8514 -0.4019
  758MOL0     C 2229   6.300  10.503   4.867  0.6082  0.1048 -0.4348
  758MOL0     C 2230   6.411  10.466   4.945  0.4627 -0.2980  0.1986
  758MOL0     O 2231   6.536  10.425   4.898 -0.2494 -0.3113 -0.0643
  758MOL0     C 2232   6.596  10.494   4.782 -0.2129 -0.1760  1.0858
  758MOL0     C 2233   6.744  10.509   4.816  0.3744 -0.1385 -0.0153
  758MOL0     C 2234   6.780  10.572   4.952  0.3292  0.2039  0.6586
  758MOL0     C 2235   6.924  10.616   4.968  0.9253 -0.4294 -0.5321
  758MOL0     C 2236   7.028  10.506   4.947 -0.0586 -0.2861 -0.3511
  758MOL0     C 2237   7.166  10.560   4.958 -0.6899 -0.1312  0.1741
  758MOL0     C 2238   7.280  10.460   4.924  0.8167 -0.1556 -0.5683
  758MOL0     C 2239   7.429  10.516   4.928 -0.2522 -1.6588 -0.1078
  758MOL0    Cl 2240   7.439  10.662   4.823 -0.1992  0.3642 -0.0778
  758MOL0     C 2241   6.389  10.469   5.085  0.5888 -0.3787 -0.1530
  758MOL0     C 2242   6.268  10.501   5.142 -0.2427 -0.0265 -0.5559
  758MOL0     O 2243   6.087  10.738   5.244  0.0844 -0.0083  0.3506
  758MOL0     C 2244   5.775  10.627   5.228  0.0587 -0.2511  0.4959
  758MOL0     C 2245   5.655  10.619   5.305  0.4521 -0.6370  0.6176
  758MOL0     N 2246   5.735  10.515   5.890  0.3245 -0.1369  0.3158
  758MOL0     N 2247   5.855  10.491   5.921 -0.0146 -0.2028  0.2897
  758MOL0     C 2248   7.062  10.379   5.894 -0.0952  0.6296  0.5434
  758MOL0     C 2249   7.188  10.447   5.879  0.3402  0.2911  1.2795
  758MOL0     C 2250   7.512  10.756   5.821 -0.8565 -0.1020 -0.6522
  758MOL0     C 2251   7.472  10.847   5.729 -0.0516  0.5336 -0.8249
  758MOL0     C 2252   7.562  10.946   5.686 -1.0735 -1.5960 -0.6609
  758MOL0     C 2253   7.689  10.961   5.746  0.2089 -0.2610 -0.0733
  758MOL0     O 2254   7.763  11.065   5.686 -0.4777 -0.7462  0.9457
  758MOL0     C 2255   7.902  11.045   5.705 -0.5110 -0.3401 -0.4169
  758MOL0     C 2256   7.986  11.157   5.637  0.8133 -0.0173  0.0683
  758MOL0     C 2257   8.143  11.141   5.644  0.5304  0.4570  0.2869
  758MOL0     C 2258   8.191  11.046   5.528  0.6686  0.6087 -1.0029
  758MOL0     C 2259   8.172  11.095   5.392 -0.9471 -0.0177  0.4810
  758MOL0     C 2260   8.160  11.137   5.275  0.5711 -0.8152  0.0964
  758MOL0     C 2261   7.723  10.875   5.838 -0.3373  0.1115 -0.1324
  758MOL0     C 2262   7.645  10.769   5.879  0.9415  0.0879  1.0492
  758MOL0     H 2263   7.085  10.754   5.798  0.8880  0.2438  0.4418
  758MOL0     H 2264   6.851  10.634   5.825 -0.9197 -1.4039 -2.1644
  758MOL0     H 2265   6.707  10.517   5.945 -2.0945 -0.6472  0.8765
  758MOL0     H 2266   6.682  10.467   5.772 -0.8976  1.9330  0.6315
  758MOL0     H 2267   6.589  10.248   5.871 -2.1380 -1.4283  0.7320
  758MOL0     H 2268   6.616  10.315   6.037  0.9017  1.2561  0.5008
  758MOL0     H 2269   6.468  10.479   6.014 -1.7457  1.0410 -0.1106
  758MOL0     H 2270   6.420  10.446   5.840  1.0021  1.9005  0.6948
  758MOL0     H 2271   6.326  10.229   5.886  1.9775  0.4391 -0.4250
  758MOL0     H 2272   6.388  10.228   6.045  0.1653 -1.7789 -0.5340
  758MOL0     H 2273   6.256  10.436   6.107  0.3712  2.1361 -0.8346
  758MOL0     H 2274   6.177  10.434   5.947 -0.9567 -1.1353  0.1996
  758MOL0     H 2275   6.060  10.227   5.993  2.0816 -0.8571 -0.5343
  758MOL0     H 2276   6.179  10.182   6.117 -0.7229 -1.4434 -1.5493
  758MOL0     H 2277   5.958  10.252   6.209  0.7842 -1.8505 -2.8126
  758MOL0     H 2278   6.094  10.350   6.271 -1.1748 -2.4542  1.1044
  758MOL0     H 2279   6.012  10.544   6.104  0.2035  2.5299  2.7638
  758MOL0     H 2280   5.902  10.503   6.237 -0.4815 -0.2695 -0.6067
  758MOL0     H 2281   5.688  10.352   6.170 -0.1417  2.1304  1.2401
  758MOL0     H 2282   5.472  10.349   5.899 -0.8888 -2.2982  2.4920
  758MOL0     H 2283   5.459  10.433   6.051 -1.7287 -0.2988 -1.3254
  758MOL0     H 2284   5.489  10.647   5.912  0.5771 -1.6103  2.2682
  758MOL0     H 2285   5.337  10.569   5.924 -0.8573 -1.8942 -0.4949
  758MOL0     H 2286   5.361  10.640   5.693 -0.2524 -0.3905  0.1760
  758MOL0     H 2287   5.384  10.464   5.693 -2.0650  0.6491  0.9626
  758MOL0     H 2288   5.611  10.468   5.671  0.6758  0.0203 -3.3175
  758MOL0     H 2289   5.616  10.636   5.708 -0.2043 -0.6070  0.0830
  758MOL0     H 2290   5.797  10.655   5.609 -0.3887  1.4872 -0.0536
  758MOL0     H 2291   6.090  10.733   5.479 -0.9921  0.6107 -1.1097
  758MOL0     H 2292   6.019  10.630   5.610 -1.2544 -2.0337 -0.1467
  758MOL0     H 2293   6.107  10.557   5.480 -0.0426 -0.3234  0.1219
  758MOL0     H 2294   6.084  10.562   4.863 -0.8700 -2.9646 -0.3981
  758MOL0     H 2295   6.320  10.503   4.760 -0.8007  1.7069 -0.7440
  758MOL0     H 2296   6.574  10.441   4.689 -0.2233  1.0166  0.3868
  758MOL0     H 2297   6.547  10.591   4.768 -0.9895 -0.7712 -0.5765
  758MOL0     H 2298   6.804  10.418   4.808  1.4679  0.4536  1.0799
  758MOL0     H 2299   6.786  10.583   4.747  0.9036 -0.4738 -0.0551
  758MOL0     H 2300   6.763  10.491   5.023 -1.2577  0.9469  1.2033
  758MOL0     H 2301   6.715  10.660   4.963  1.4367  1.2913 -1.0249
  758MOL0     H 2302   6.932  10.688   4.887 -2.8485  0.3101 -0.4319
  758MOL0     H 2303   6.943  10.666   5.063  0.4308 -0.6458 -0.3149
  758MOL0     H 2304   7.013  10.462   4.849  1.4534 -0.2638 -0.6181
  758MOL0     H 2305   7.002  10.434   5.026  0.5322 -1.2656 -1.0263
  758MOL0     H 2306   7.181  10.636   4.880 -0.7162 -1.3865 -1.0916
  758MOL0     H 2307   7.180  10.609   5.055  3.3450 -1.0429  0.2244
  758MOL0     H 2308   7.268  10.418   4.824  0.0841  0.1212 -0.5947
  758MOL0     H 2309   7.276  10.381   5.000 -2.2745 -0.5108 -0.9803
  758MOL0     H 2310   7.499  10.437   4.900  1.5946  0.5215 -2.0300
  758MOL0     H 2311   7.440  10.549   5.032 -2.4314  0.8329 -0.5411
  758MOL0     H 2312   6.480  10.449   5.140  0.5152  2.6141  1.2808
  758MOL0     H 2313   6.257  10.496   5.250 -0.0613 -0.1150 -0.5409
  758MOL0     H 2314   5.765  10.633   5.120  0.4678 -1.4742  0.3675
  758MOL0     H 2315   5.555  10.620   5.263  0.0820  1.3855  1.4237
  758MOL0     H 2316   7.060  10.272   5.914  0.7369  0.2692 -1.1315
  758MOL0     H 2317   7.284  10.396   5.885 -0.5095 -1.4027  1.1331
  758MOL0     H 2318   7.380  10.827   5.675 -0.0503 -2.9440  0.1941
  758MOL0     H 2319   7.534  11.015   5.608 -0.4284 -0.8662 -0.2583
  758MOL0     H 2320   7.934  11.042   5.809  2.4277  1.6688 -1.1531
  758MOL0     H 2321   7.934  10.948   5.665 -0.0134 -1.2563  1.9962
  758MOL0     H 2322   7.969  11.254   5.685 -1.4106  0.6235 -1.8196
  758MOL0     H 2323   7.943  11.147   5.537  0.7901 -1.9439  0.2375
  758MOL0     H 2324   8.162  11.109   5.746 -1.1268 -0.8218  0.2302
  758MOL0     H 2325   8.192  11.239   5.633 -2.4093  2.1981  1.5267
  758MOL0     H 2326   8.153  10.943   5.538 -0.2887  1.1642  2.3902
  758MOL0     H 2327   8.299  11.030   5.529  0.8550  1.1732 -3.9290
  758MOL0     H 2328   8.159  11.176   5.175  2.7918  1.5467  0.8915
  758MOL0     H 2329   7.824  10.882   5.877 -0.9634  1.2260  1.3851
  758MOL0     H 2330   7.695  10.691   5.937 -1.0682 -1.3451  0.9875
  759MOL0     O 2331   1.689   5.185   9.673 -0.0663  0.5519 -0.5623
  759MOL0     C 2332   1.683   5.308   9.658  0.7213 -0.3938 -0.2425
  759MOL0     O 2333   1.602   5.394   9.730 -0.6438  0.2901 -0.2044
  759MOL0     C 2334   1.532   5.349   9.843  0.3355 -0.2077 -0.1856
  759MOL0     C 2335   1.404   5.403   9.867  0.2908  0.3157 -0.9625
  759MOL0     C 2336   1.336   5.359   9.990 -0.1220 -0.2238  0.3792
  759MOL0     C 2337   1.401   5.269  10.076 -0.8289  1.5128  0.2914
  759MOL0     O 2338   1.338   5.242  10.197  0.6382 -0.6168  0.1852
  759MOL0     C 2339   1.226   5.313  10.248  0.3089  0.0734  0.1246
  759MOL0     C 2340   1.099   5.255  10.192 -0.0139 -0.0795 -0.9377
  759MOL0     C 2341   0.976   5.274  10.290  0.1739  0.4040 -0.4816
  759MOL0     C 2342   0.881   5.154  10.270  0.9934  1.1074  0.1261
  759MOL0     C 2343   0.767   5.157  10.375  0.0244 -0.3963  0.2567
  759MOL0     C 2344   0.706   5.029  10.405  0.2526 -0.2990  0.1980
  759MOL0     C 2345   0.626   4.969  10.286 -0.0270  0.9173 -0.3546
  759MOL0     C 2346   0.499   5.045  10.235 -0.4650  0.5006 -0.6582
  759MOL0     N 2347   0.396   5.051  10.344 -0.0132 -0.6353  0.1882
  759MOL0     C 2348   0.266   5.102  10.322  0.0987  0.0340 -0.6754
  759MOL0     C 2349   0.195   5.051  10.428 -0.3371  0.1779  0.8736
  759MOL0     C 2350   0.056   5.076  10.471  0.2687 -0.6821 -0.4358
  759MOL0     C 2351  -0.044   4.987  10.410 -0.2582  1.0485  0.2213
  759MOL0     C 2352  -0.184   5.007  10.467 -0.7356  0.7949  0.5043
  759MOL0     C 2353  -0.247   5.124  10.390 -0.0031 -0.1443  0.7387
  759MOL0     O 2354  -0.354   5.186  10.465 -0.1433  0.0396  0.1800
  759MOL0     C 2355  -0.480   5.129  10.449 -0.1945  0.1212 -0.8102
  759MOL0     C 2356  -0.524   5.025  10.362  0.5175  0.5260 -0.4552
  759MOL0     C 2357  -0.655   4.975  10.362 -0.8865  0.3313 -0.2710
  759MOL0     C 2358  -0.676   4.866  10.269 -0.4162  0.0125 -0.2962
  759MOL0     C 2359  -0.751   5.039  10.449 -0.6447  0.2094 -0.2309
  759MOL0     C 2360  -0.897   5.006  10.453 -0.2565 -0.5597 -0.6418
  759MOL0     O 2361  -0.968   5.034  10.572  0.2446 -0.1663  0.7419
  759MOL0     C 2362  -1.100   4.993  10.574 -0.6801  0.2322 -0.5789
  759MOL0     C 2363  -1.139   4.861  10.614  0.0516 -0.8128  0.1110
  759MOL0     C 2364  -1.272   4.825  10.601  0.4095 -0.3017 -0.4716
  759MOL0     C 2365  -1.371   4.917  10.551 -0.9480  0.2015  0.0702
  759MOL0     O 2366  -1.500   4.890  10.537  0.1225 -0.1681 -0.4057
  759MOL0     C 2367  -1.544   4.837  10.663 -0.0815 -0.1085 -0.0861
  759MOL0     C 2368  -1.689   4.877  10.700  0.4898 -0.1741  0.4054
  759MOL0     C 2369  -1.790   4.815  10.605  0.4707  0.2690 -0.2579
  759MOL0     C 2370  -1.930   4.821  10.679  0.0264 -0.6097  0.0269
  759MOL0     C 2371  -2.045   4.770  10.597  0.0860 -0.1167 -0.0674
  759MOL0     C 2372  -2.181   4.779  10.680  0.2313 -0.3695  0.0897
  759MOL0     C 2373  -2.300   4.715  10.614  0.9133  0.9642 -0.1326
  759MOL0     C 2374  -2.429   4.785  10.647  0.0171 -0.1008  0.7807
  759MOL0    Cl 2375  -2.449   4.780  10.823 -0.0415  0.2779 -0.0065
  759MOL0     C 2376  -1.340   5.048  10.535  0.2898  0.4478 -0.8646
  759MOL0     C 2377  -1.205   5.089  10.544 -0.6246  0.9491  0.5997
  759MOL0     O 2378  -0.941   4.948  10.355  0.8764 -0.4503 -0.2669
  759MOL0     C 2379  -0.703   5.142  10.537  0.7710  0.2053 -1.2565
  759MOL0     C 2380  -0.573   5.186  10.535  0.5798  0.4562  0.6686
  759MOL0     N 2381   0.273   4.967  10.492 -0.2565  0.2047 -0.1651
  759MOL0     N 2382   0.393   4.963  10.443 -0.7967 -0.6062 -0.4767
  759MOL0     C 2383   1.529   5.217  10.044 -0.0831  0.5547 -0.5196
  759MOL0     C 2384   1.592   5.259   9.934 -0.6224  0.8019 -0.6716
  759MOL0     C 2385   1.770   5.358   9.557 -0.9092 -1.0848 -0.2703
  759MOL0     C 2386   1.879   5.281   9.518  0.0683 -0.2069 -0.1370
  759MOL0     C 2387   1.975   5.338   9.434  0.5759 -0.9594 -0.3923
  759MOL0     C 2388   1.968   5.467   9.390  0.6424 -0.0395  0.2258
  759MOL0     O 2389   2.059   5.519   9.295 -1.0545  0.0318 -0.1524
  759MOL0     C 2390   2.135   5.409   9.224 -0.4332 -0.1803  0.1728
  759MOL0     C 2391   2.225   5.479   9.112  0.1344 -0.4408  0.1729
  759MOL0     C 2392   2.361   5.522   9.161  0.0292  0.2415 -0.2387
  759MOL0     C 2393   2.473   5.421   9.147 -0.2960  0.5588  0.4759
  759MOL0     C 2394   2.575   5.459   9.054 -0.4688 -0.4250  0.3028
  759MOL0     C 2395   2.661   5.478   8.970 -0.4556 -0.6299 -0.4128
  759MOL0     C 2396   1.869   5.549   9.433  0.8438  0.2078  1.0885
  759MOL0     C 2397   1.767   5.493   9.511  0.6677 -0.6358 -0.0496
  759MOL0     H 2398   1.357   5.480   9.807 -1.9156  0.2927  0.6362
  759MOL0     H 2399   1.236   5.388  10.020 -0.4877 -0.7638 -0.2972
  759MOL0     H 2400   1.224   5.289  10.355  1.8408 -0.2402  0.1080
  759MOL0     H 2401   1.229   5.422  10.236 -0.3462  0.2944  1.7364
  759MOL0     H 2402   1.077   5.285  10.089 -2.0300  0.6128 -0.3558
  759MOL0     H 2403   1.114   5.147  10.184  1.0851  0.1436 -2.1985
  759MOL0     H 2404   1.012   5.275  10.394 -1.2697  2.0182  0.0515
  759MOL0     H 2405   0.934   5.374  10.271 -4.1097 -1.0039  0.5895
  759MOL0     H 2406   0.844   5.155  10.167 -0.6946  0.3805  0.6869
  759MOL0     H 2407   0.934   5.058  10.268 -0.2112  0.4174 -2.2943
  759MOL0     H 2408   0.811   5.198  10.467 -0.8458  2.1921 -0.3972
  759MOL0     H 2409   0.692   5.233  10.352  0.5567 -0.5778 -2.4610
  759MOL0     H 2410   0.773   4.954  10.448  1.2843 -1.2841 -2.9270
  759MOL0     H 2411   0.635   5.052  10.486  0.8136 -0.2896  0.6960
  759MOL0     H 2412   0.697   4.952  10.204  2.7626  1.8912  1.7415
  759MOL0     H 2413   0.590   4.877  10.333  1.4555  1.8822  2.9121
  759MOL0     H 2414   0.451   4.998  10.148  0.0910 -0.6953 -0.3408
  759MOL0     H 2415   0.517   5.146  10.198 -1.8736  0.7327 -0.7932
  759MOL0     H 2416   0.238   5.167  10.240 -1.9367 -0.5991 -0.5516
  759MOL0     H 2417   0.055   5.072  10.581  0.9566 -1.1544 -0.4384
  759MOL0     H 2418   0.030   5.177  10.440 -0.2945 -1.2632 -1.9492
  759MOL0     H 2419  -0.008   4.887  10.435 -0.5607  0.5602 -1.2102
  759MOL0     H 2420  -0.038   4.983  10.301  2.8449 -0.1195  0.3361
  759MOL0     H 2421  -0.174   5.025  10.575 -0.2753  1.4488  0.3575
  759MOL0     H 2422  -0.241   4.918  10.441  2.1859 -1.4647  1.2702
  759MOL0     H 2423  -0.277   5.089  10.291 -0.4534  3.5811 -0.6110
  759MOL0     H 2424  -0.164   5.193  10.373  2.7018 -3.4776 -0.6345
  759MOL0     H 2425  -0.446   4.973  10.308  0.8617  0.6845 -0.1108
  759MOL0     H 2426  -0.756   4.887  10.197 -0.4209  2.6257  0.3839
  759MOL0     H 2427  -0.586   4.846  10.211 -1.3143 -2.1427 -1.0869
  759MOL0     H 2428  -0.695   4.777  10.331  2.5265 -0.1734  0.4586
  759MOL0     H 2429  -1.060   4.793  10.645  2.7726  1.1808 -1.9653
  759MOL0     H 2430  -1.300   4.720  10.600  1.2620 -0.5701  1.1453
  759MOL0     H 2431  -1.528   4.729  10.664  2.0222  0.1523 -1.0116
  759MOL0     H 2432  -1.484   4.868  10.749  2.0025  0.2649 -1.5921
  759MOL0     H 2433  -1.707   4.839  10.801  0.1853 -0.4417  0.2506
  759MOL0     H 2434  -1.708   4.985  10.707 -1.5057 -0.6082  3.3575
  759MOL0     H 2435  -1.769   4.709  10.588  1.7020  0.8198 -2.6319
  759MOL0     H 2436  -1.795   4.873  10.512  0.3851 -0.0784 -0.4741
  759MOL0     H 2437  -1.938   4.762  10.771  1.8195  2.5048  2.3878
  759MOL0     H 2438  -1.948   4.929  10.688  2.5874 -0.2276  1.4451
  759MOL0     H 2439  -2.017   4.667  10.572  2.0160  0.7088 -1.5181
  759MOL0     H 2440  -2.052   4.835  10.510 -0.5848 -0.3093 -0.1644
  759MOL0     H 2441  -2.173   4.729  10.777  0.3604 -1.5765 -0.5269
  759MOL0     H 2442  -2.195   4.884  10.704 -0.8023 -0.3891 -0.3900
  759MOL0     H 2443  -2.301   4.611  10.647 -0.2134  1.2078  0.6541
  759MOL0     H 2444  -2.277   4.700  10.508 -2.3848  2.5071 -1.2246
  759MOL0     H 2445  -2.516   4.736  10.603 -0.4518  1.7618 -0.5023
  759MOL0     H 2446  -2.438   4.888  10.611  0.0363 -0.2079  0.4620
  759MOL0     H 2447  -1.420   5.114  10.501 -2.7785 -1.9897  1.0573
  759MOL0     H 2448  -1.175   5.190  10.520 -1.4983  0.8149 -1.2303
  759MOL0     H 2449  -0.775   5.195  10.598  3.8931  0.2412  2.7849
  759MOL0     H 2450  -0.540   5.272  10.592  0.7000  0.8751 -0.0168
  759MOL0     H 2451   1.579   5.158  10.120  0.1264  3.5827  1.9247
  759MOL0     H 2452   1.692   5.219   9.922 -0.3428  1.0596  0.6428
  759MOL0     H 2453   1.885   5.176   9.542  1.6463 -0.3850 -1.1887
  759MOL0     H 2454   2.060   5.273   9.420  1.2918 -0.5673  1.7605
  759MOL0     H 2455   2.194   5.348   9.292 -4.7215 -1.7249  2.9451
  759MOL0     H 2456   2.070   5.334   9.177  2.2429 -1.7571 -1.2154
  759MOL0     H 2457   2.168   5.567   9.080  0.3807 -0.6780 -0.9384
  759MOL0     H 2458   2.228   5.413   9.025 -2.3620  0.3027 -0.5868
  759MOL0     H 2459   2.345   5.541   9.268  2.9601  1.2475  0.1013
  759MOL0     H 2460   2.384   5.615   9.110 -1.1151 -0.4682 -2.1758
  759MOL0     H 2461   2.421   5.333   9.109 -0.5244  0.4805  0.9653
  759MOL0     H 2462   2.512   5.395   9.245 -0.8978 -1.5257  0.2028
  759MOL0     H 2463   2.736   5.489   8.895 -0.4719  1.0411 -0.2278
  759MOL0     H 2464   1.863   5.646   9.385  1.9317 -0.2391  0.0200
  759MOL0     H 2465   1.691   5.566   9.539  1.1133  0.7195 -2.1031
  760MOL0     O 2466  10.229   6.347   0.476  0.2209  0.0191  0.7268
  760MOL0     C 2467  10.255   6.240   0.424 -0.2397 -0.0838  0.1507
  760MOL0     O 2468  10.162   6.147   0.391  0.5465 -0.3425  0.7959
  760MOL0     C 2469  10.033   6.187   0.369  1.3642  0.6541  0.1224
  760MOL0     C 2470   9.983   6.278   0.274 -0.0781  1.1024  0.2222
  760MOL0     C 2471   9.844   6.310   0.272  0.2221  0.0885 -0.2354
  760MOL0     C 2472   9.757   6.249   0.360  0.4409 -0.4010 -0.3263
  760MOL0     O 2473   9.625   6.268   0.357  0.4077  0.2430 -0.1284
  760MOL0     C 2474   9.561   6.362   0.271  0.4908 -0.5450 -0.2099
  760MOL0     C 2475   9.407   6.366   0.306  0.3339  0.1096  0.3967
  760MOL0     C 2476   9.346   6.436   0.181  0.1822  0.0675  0.0502
  760MOL0     C 2477   9.196   6.444   0.170 -0.6991 -0.3774  0.7661
  760MOL0     C 2478   9.148   6.325   0.088 -0.8631 -0.0311 -0.0101
  760MOL0     C 2479   8.992   6.324   0.076  0.3134 -0.8644  0.3303
  760MOL0     C 2480   8.934   6.231  -0.032 -0.1345 -0.9036  0.7765
  760MOL0     C 2481   8.967   6.284  -0.173  0.4978  0.5276  0.3065
  760MOL0     N 2482   8.905   6.414  -0.208 -0.4940 -0.2723  0.5335
  760MOL0     C 2483   8.777   6.450  -0.180 -0.5855 -0.3821  0.2915
  760MOL0     C 2484   8.771   6.576  -0.229 -0.4430  1.3428  0.1810
  760MOL0     C 2485   8.651   6.667  -0.233 -0.2291 -0.3237  0.0674
  760MOL0     C 2486   8.539   6.589  -0.300 -0.5104  0.3678  1.2177
  760MOL0     C 2487   8.411   6.669  -0.304  0.2633 -0.7026 -0.3304
  760MOL0     C 2488   8.310   6.630  -0.415 -0.3696 -0.2472  0.1299
  760MOL0     O 2489   8.237   6.514  -0.374 -0.2070  0.2934  0.4650
  760MOL0     C 2490   8.133   6.476  -0.464 -0.3429  0.7260 -0.6026
  760MOL0     C 2491   8.114   6.335  -0.493 -1.4166  0.3044 -0.2923
  760MOL0     C 2492   8.000   6.281  -0.559 -0.5551  0.0295 -0.9096
  760MOL0     C 2493   8.002   6.139  -0.587 -0.1998  0.3702 -0.4785
  760MOL0     C 2494   7.896   6.374  -0.603 -0.0061  0.6960 -0.0809
  760MOL0     C 2495   7.758   6.333  -0.647  0.2568 -0.5026  0.3403
  760MOL0     O 2496   7.661   6.420  -0.629  0.3806  0.3333  0.0907
  760MOL0     C 2497   7.539   6.402  -0.689 -0.2236  0.4283 -0.4009
  760MOL0     C 2498   7.416   6.396  -0.610 -0.2929  0.0319  0.7649
  760MOL0     C 2499   7.286   6.384  -0.669  0.6822  0.3590  0.2673
  760MOL0     C 2500   7.274   6.384  -0.810 -0.0529 -0.0596 -0.1579
  760MOL0     O 2501   7.155   6.392  -0.876  0.0277 -0.3227  0.3934
  760MOL0     C 2502   7.027   6.396  -0.804 -0.0676  0.3868 -0.5924
  760MOL0     C 2503   6.899   6.392  -0.888 -0.0257  0.3617  0.1911
  760MOL0     C 2504   6.876   6.255  -0.952 -0.5257 -1.0027  0.2996
  760MOL0     C 2505   6.745   6.249  -1.026  0.6941 -0.5454 -0.4365
  760MOL0     C 2506   6.710   6.105  -1.065 -0.0599  0.1141 -0.4572
  760MOL0     C 2507   6.620   6.096  -1.188 -0.3827  0.5465 -0.3172
  760MOL0     C 2508   6.494   6.160  -1.160 -0.9769 -0.0878  0.5703
  760MOL0     C 2509   6.390   6.170  -1.277  0.3736 -0.1837  0.9561
  760MOL0    Cl 2510   6.381   6.021  -1.354  0.0008  0.3079 -0.0997
  760MOL0     C 2511   7.387   6.401  -0.887 -0.4585 -1.0404  0.7189
  760MOL0     C 2512   7.519   6.405  -0.829 -0.4218 -0.9431  0.5591
  760MOL0     O 2513   7.750   6.228  -0.711  0.5089  0.2866 -0.1854
  760MOL0     C 2514   7.918   6.517  -0.562  0.6445  0.1733  0.7916
  760MOL0     C 2515   8.028   6.563  -0.500 -0.0212  0.0596 -0.0721
  760MOL0     N 2516   8.892   6.600  -0.296  0.8458 -0.1380 -0.5999
  760MOL0     N 2517   8.969   6.507  -0.281  0.0824  0.4985 -0.4008
  760MOL0     C 2518   9.802   6.157   0.453 -0.0981  0.6168  0.8101
  760MOL0     C 2519   9.939   6.120   0.451 -0.2668 -0.5786  0.3837
  760MOL0     C 2520  10.399   6.213   0.409  0.5227  0.3800  0.2321
  760MOL0     C 2521  10.495   6.321   0.413  0.3974 -1.3385 -0.1921
  760MOL0     C 2522  10.627   6.309   0.380 -0.6526  0.5990  0.0816
  760MOL0     C 2523  10.674   6.181   0.349 -0.2384 -1.0373  0.2439
  760MOL0     O 2524  10.807   6.167   0.311 -0.4609 -0.4768 -0.0900
  760MOL0     C 2525  10.843   6.075   0.208 -0.1368  0.6285  0.1921
  760MOL0     C 2526  10.984   6.124   0.155  0.3639 -0.2635 -0.0978
  760MOL0     C 2527  11.101   6.127   0.261  0.3003  0.4530  0.0644
  760MOL0     C 2528  11.239   6.156   0.200  0.1848  0.3648 -0.2794
  760MOL0     C 2529  11.342   6.135   0.300 -0.6690  0.0232 -0.1375
  760MOL0     C 2530  11.435   6.105   0.369 -1.6898 -0.6513 -0.2067
  760MOL0     C 2531  10.596   6.069   0.351  0.4893 -1.0542  0.0586
  760MOL0     C 2532  10.455   6.089   0.370  0.1735 -0.6047 -0.9948
  760MOL0     H 2533  10.054   6.323   0.204 -0.4995  0.3821 -0.7004
  760MOL0     H 2534   9.813   6.388   0.204  3.1320  1.5981  0.0162
  760MOL0     H 2535   9.605   6.459   0.297  2.1800 -1.3399  0.0114
  760MOL0     H 2536   9.584   6.342   0.166  0.0420  2.6150 -1.0319
  760MOL0     H 2537   9.357   6.268   0.308 -2.7410  1.4667 -2.2986
  760MOL0     H 2538   9.388   6.423   0.398 -1.5075 -1.4328  1.0359
  760MOL0     H 2539   9.379   6.540   0.194 -2.3842  0.8724  0.7202
  760MOL0     H 2540   9.389   6.402   0.086  0.9619 -0.5420  0.6092
  760MOL0     H 2541   9.140   6.462   0.263  0.1549  1.5415  0.9477
  760MOL0     H 2542   9.168   6.525   0.102 -0.7681 -0.3212  0.8597
  760MOL0     H 2543   9.193   6.337  -0.011  1.4167 -1.7740  0.7049
  760MOL0     H 2544   9.180   6.231   0.134  3.9866  1.2726 -0.1359
  760MOL0     H 2545   8.941   6.291   0.167 -3.2401  3.4853  0.2657
  760MOL0     H 2546   8.954   6.426   0.077  4.1802  0.7424  1.0806
  760MOL0     H 2547   8.981   6.132  -0.026 -0.1341 -1.0876 -1.4942
  760MOL0     H 2548   8.826   6.218  -0.019 -0.2757  0.6336  1.3747
  760MOL0     H 2549   8.939   6.213  -0.251 -0.8186  1.7756 -0.3860
  760MOL0     H 2550   9.075   6.302  -0.183  0.6186 -0.7193 -0.8558
  760MOL0     H 2551   8.691   6.407  -0.129 -1.3813  3.7255  2.8639
  760MOL0     H 2552   8.621   6.699  -0.133  0.0289  0.6996 -0.1780
  760MOL0     H 2553   8.694   6.751  -0.288 -0.6159  0.0234  0.2938
  760MOL0     H 2554   8.524   6.494  -0.248  3.9674 -0.4619  1.3973
  760MOL0     H 2555   8.571   6.551  -0.398  0.0429  1.3147  1.0162
  760MOL0     H 2556   8.436   6.775  -0.319 -2.1716  0.0804  0.5123
  760MOL0     H 2557   8.370   6.655  -0.204  2.4789  2.3587  1.1709
  760MOL0     H 2558   8.359   6.608  -0.510  0.8127 -1.5136  1.0038
  760MOL0     H 2559   8.248   6.718  -0.434  1.3110  1.1154  0.7268
  760MOL0     H 2560   8.191   6.266  -0.462 -0.5134  1.2293 -0.4367
  760MOL0     H 2561   7.952   6.113  -0.681 -2.1205 -0.4057  0.6801
  760MOL0     H 2562   8.104   6.102  -0.601 -0.8549 -0.6055 -3.3973
  760MOL0     H 2563   7.952   6.082  -0.507 -0.8187  2.6173  0.8388
  760MOL0     H 2564   7.421   6.389  -0.502 -1.1304  1.0569  0.8871
  760MOL0     H 2565   7.204   6.396  -0.599  1.8021  3.1514  1.2458
  760MOL0     H 2566   7.022   6.310  -0.737  2.8244  0.3985 -0.2488
  760MOL0     H 2567   7.027   6.492  -0.751  0.6822  1.5470 -2.5656
  760MOL0     H 2568   6.811   6.422  -0.831  0.2776  1.0381  0.3048
  760MOL0     H 2569   6.920   6.461  -0.970 -0.8699  1.8470  1.1957
  760MOL0     H 2570   6.876   6.178  -0.874 -1.9709 -0.0574  1.2846
  760MOL0     H 2571   6.951   6.234  -1.029  0.3398  2.2676  0.0993
  760MOL0     H 2572   6.664   6.293  -0.968 -1.3616 -0.0683 -3.4430
  760MOL0     H 2573   6.757   6.313  -1.114 -0.2138 -0.4039 -0.4617
  760MOL0     H 2574   6.660   6.060  -0.978  1.1511  0.3400  0.3829
  760MOL0     H 2575   6.806   6.057  -1.087  1.5316  1.8233  2.1588
  760MOL0     H 2576   6.682   6.142  -1.265 -0.5881  0.0585 -0.7791
  760MOL0     H 2577   6.603   5.992  -1.216 -3.2986  0.6286  0.8621
  760MOL0     H 2578   6.507   6.261  -1.119 -0.5085 -0.6861  1.9572
  760MOL0     H 2579   6.457   6.092  -1.082  0.9824 -0.7181  1.0209
  760MOL0     H 2580   6.416   6.245  -1.352 -0.7693  0.1874  0.9072
  760MOL0     H 2581   6.291   6.200  -1.239 -1.1177 -2.9151 -0.5070
  760MOL0     H 2582   7.394   6.424  -0.992  3.5093  2.0613  1.4098
  760MOL0     H 2583   7.606   6.429  -0.889 -0.4533  0.5033  1.0684
  760MOL0     H 2584   7.842   6.593  -0.573  1.1121  1.2262  3.8028
  760MOL0     H 2585   8.030   6.670  -0.481  0.8949 -0.1185  1.0087
  760MOL0     H 2586   9.731   6.105   0.517 -0.5313  0.7871  0.4676
  760MOL0     H 2587   9.963   6.042   0.522 -0.0929  1.0030  2.1382
  760MOL0     H 2588  10.471   6.425   0.429  1.4055 -1.1574  0.2058
  760MOL0     H 2589  10.705   6.384   0.387 -1.6397  1.5668  1.3962
  760MOL0     H 2590  10.846   5.976   0.254  2.5486  1.8084  2.9568
  760MOL0     H 2591  10.772   6.083   0.125 -1.7537  0.5426  1.5286
  760MOL0     H 2592  10.975   6.219   0.103 -1.3446 -0.3257  0.0278
  760MOL0     H 2593  11.011   6.057   0.073  0.5886  0.0148 -0.2541
  760MOL0     H 2594  11.110   6.028   0.306 -1.1460 -0.4645 -1.5502
  760MOL0     H 2595  11.084   6.190   0.350 -1.1485  0.2155 -0.0206
  760MOL0     H 2596  11.238   6.260   0.167  0.5768  1.3307  2.4914
  760MOL0     H 2597  11.248   6.081   0.121  0.0047  1.5019 -1.4097
  760MOL0     H 2598  11.519   6.072   0.427 -1.4121 -1.0963 -0.8444
  760MOL0     H 2599  10.632   5.969   0.331  0.7096 -0.5950 -1.9974
  760MOL0     H 2600  10.394   5.999   0.367 -1.7588  0.6364 -0.8010
  761MOL0     O 2601   6.857   4.384   4.646 -0.2625 -0.2651  0.0201
  761MOL0     C 2602   6.846   4.504   4.622 -0.1945  0.5516 -0.6143
  761MOL0     O 2603   6.733   4.577   4.620  0.6232  0.1573 -0.0822
  761MOL0     C 2604   6.614   4.518   4.599 -0.1033 -1.0830  0.1742
  761MOL0     C 2605   6.571   4.405   4.670  0.0062  0.0539 -0.6006
  761MOL0     C 2606   6.440   4.354   4.662  0.1657  0.4369 -0.5725
  761MOL0     C 2607   6.345   4.427   4.585 -0.6308  0.0831 -0.0808
  761MOL0     O 2608   6.212   4.385   4.584  0.5174  0.0107  0.6089
  761MOL0     C 2609   6.127   4.404   4.464 -0.9756 -0.5208 -0.2572
  761MOL0     C 2610   6.019   4.302   4.455 -0.0392 -0.2112  0.4448
  761MOL0     C 2611   5.946   4.257   4.583  1.0032 -0.7191  0.7164
  761MOL0     C 2612   5.839   4.149   4.544 -0.0872  0.6971 -0.6179
  761MOL0     C 2613   5.777   4.101   4.676 -0.4845  0.3697 -0.0513
  761MOL0     C 2614   5.689   3.975   4.661  0.5240 -0.6926  0.5776
  761MOL0     C 2615   5.759   3.846   4.628 -0.0606 -0.1968 -0.4579
  761MOL0     C 2616   5.662   3.728   4.625 -0.3667 -0.5904 -0.1391
  761MOL0     N 2617   5.611   3.694   4.757 -0.0329  0.2395  0.6850
  761MOL0     C 2618   5.682   3.686   4.868  0.2657  1.3750 -0.2785
  761MOL0     C 2619   5.595   3.673   4.975 -0.6622 -0.7195 -0.9568
  761MOL0     C 2620   5.613   3.668   5.126 -0.4013  1.2527  0.0930
  761MOL0     C 2621   5.688   3.531   5.144  0.1645  0.1296 -0.1548
  761MOL0     C 2622   5.611   3.396   5.096 -0.2093 -0.3524 -0.7542
  761MOL0     C 2623   5.473   3.385   5.156  0.0639 -0.2937 -0.5337
  761MOL0     O 2624   5.409   3.261   5.123 -0.7135 -0.2906 -0.2906
  761MOL0     C 2625   5.364   3.237   4.996 -0.0527 -0.0191  1.8972
  761MOL0     C 2626   5.350   3.331   4.888  0.2743  0.5395 -0.0455
  761MOL0     C 2627   5.290   3.312   4.768 -0.5950  0.4538  1.2519
  761MOL0     C 2628   5.287   3.426   4.673 -0.2144 -0.0300  1.1283
  761MOL0     C 2629   5.222   3.182   4.751  0.2079  0.1421 -0.1166
  761MOL0     C 2630   5.155   3.141   4.627 -0.1379 -0.2990 -0.4816
  761MOL0     O 2631   5.096   3.022   4.631  0.2099 -0.3605  0.1740
  761MOL0     C 2632   5.048   2.977   4.512 -0.0237  0.0984  0.2567
  761MOL0     C 2633   5.126   2.922   4.414  0.2283  0.8569 -0.2971
  761MOL0     C 2634   5.070   2.854   4.314  0.1039 -0.4000  0.2637
  761MOL0     C 2635   4.932   2.872   4.281 -0.3752 -0.3279  0.0290
  761MOL0     O 2636   4.877   2.812   4.171  0.2690  0.3928 -0.0540
  761MOL0     C 2637   4.737   2.813   4.152  0.1628 -0.1635  0.5826
  761MOL0     C 2638   4.691   2.762   4.016 -0.3564  0.5045 -0.5585
  761MOL0     C 2639   4.697   2.613   3.999 -0.2007 -0.0578  0.1802
  761MOL0     C 2640   4.583   2.537   4.071  0.1768  0.1382 -0.0244
  761MOL0     C 2641   4.453   2.548   3.981  0.1199 -0.2675 -0.1747
  761MOL0     C 2642   4.335   2.479   4.051  0.8215 -0.1679  1.0539
  761MOL0     C 2643   4.207   2.499   3.975 -0.8407 -0.2717  0.0145
  761MOL0     C 2644   4.139   2.632   3.991 -0.4460  0.5273  1.1995
  761MOL0    Cl 2645   4.021   2.642   3.861  0.1353  0.1781 -0.3469
  761MOL0     C 2646   4.860   2.945   4.378  0.0610  0.3722 -0.5541
  761MOL0     C 2647   4.909   2.994   4.499 -0.0687 -0.2463  0.7392
  761MOL0     O 2648   5.155   3.217   4.532  0.1055  0.2891 -0.2667
  761MOL0     C 2649   5.237   3.088   4.852  0.8547  0.8636  0.7875
  761MOL0     C 2650   5.306   3.111   4.970 -0.2513  0.5273 -0.5723
  761MOL0     N 2651   5.475   3.666   4.919  0.4843  0.3523  0.1862
  761MOL0     N 2652   5.482   3.692   4.788 -0.8549  0.1922 -0.4272
  761MOL0     C 2653   6.388   4.538   4.514  0.3237 -0.2416 -1.0506
  761MOL0     C 2654   6.522   4.593   4.519 -0.6071  0.1098  0.1040
  761MOL0     C 2655   6.972   4.584   4.612  0.0659 -0.1634  0.0844
  761MOL0     C 2656   7.098   4.525   4.620 -0.1214  0.3212  0.8181
  761MOL0     C 2657   7.214   4.601   4.622  0.6229  0.3919 -1.3802
  761MOL0     C 2658   7.213   4.740   4.617  0.2436 -0.1393 -0.3399
  761MOL0     O 2659   7.331   4.807   4.644  0.1913 -0.5522 -0.2281
  761MOL0     C 2660   7.337   4.950   4.674 -0.5135 -0.6616  0.1137
  761MOL0     C 2661   7.477   5.021   4.700 -0.2734  0.0677 -0.1428
  761MOL0     C 2662   7.578   4.936   4.777  0.8800  0.9656  0.0420
  761MOL0     C 2663   7.640   4.822   4.689 -0.2941 -0.1223 -0.7427
  761MOL0     C 2664   7.760   4.884   4.630  0.8216  0.0137  0.5091
  761MOL0     C 2665   7.864   4.929   4.585 -0.1560  1.1033 -0.0787
  761MOL0     C 2666   7.093   4.804   4.614 -0.1638  0.2090  0.0816
  761MOL0     C 2667   6.966   4.730   4.615 -0.2196  0.3263  0.6634
  761MOL0     H 2668   6.639   4.353   4.737  0.4093  0.3890 -0.7403
  761MOL0     H 2669   6.402   4.263   4.707 -2.3516  1.8883  0.4415
  761MOL0     H 2670   6.075   4.500   4.472 -1.1839 -0.7053  0.7150
  761MOL0     H 2671   6.182   4.402   4.370 -1.0854 -2.2085 -0.3137
  761MOL0     H 2672   5.944   4.346   4.388  2.3889  1.6660 -1.2354
  761MOL0     H 2673   6.059   4.218   4.396 -1.4863 -0.3539 -0.3648
  761MOL0     H 2674   6.015   4.230   4.663  1.5960  0.5766  0.6728
  761MOL0     H 2675   5.886   4.340   4.622 -1.6298 -1.3344 -1.6691
  761MOL0     H 2676   5.765   4.210   4.492 -2.2122 -0.5235  0.8513
  761MOL0     H 2677   5.884   4.073   4.479 -1.0004  1.4443 -2.1818
  761MOL0     H 2678   5.857   4.073   4.744  1.1719 -1.2155 -2.4909
  761MOL0     H 2679   5.712   4.182   4.711 -5.2152 -2.1239 -2.1707
  761MOL0     H 2680   5.640   3.956   4.757 -2.1444 -3.1390 -1.0751
  761MOL0     H 2681   5.613   3.994   4.584  1.9704 -1.7802 -1.2191
  761MOL0     H 2682   5.803   3.854   4.528  3.7043 -1.8467  0.8710
  761MOL0     H 2683   5.844   3.828   4.695  0.6957  0.7667 -1.1171
  761MOL0     H 2684   5.712   3.642   4.581  0.4422 -0.2536  0.1119
  761MOL0     H 2685   5.581   3.757   4.557 -1.3623 -0.1939  1.1632
  761MOL0     H 2686   5.790   3.677   4.873  0.0922 -0.3729  1.6745
  761MOL0     H 2687   5.667   3.750   5.172  0.5170 -0.7089  2.7628
  761MOL0     H 2688   5.514   3.676   5.172 -0.5225  0.3962  0.0112
  761MOL0     H 2689   5.714   3.520   5.250  1.9777 -1.2814 -0.6903
  761MOL0     H 2690   5.792   3.543   5.112  0.6015 -1.6300  0.4805
  761MOL0     H 2691   5.684   3.319   5.122  2.2050  2.0977  0.3519
  761MOL0     H 2692   5.597   3.385   4.988 -0.7971 -3.4576 -0.4423
  761MOL0     H 2693   5.410   3.471   5.129 -1.6957 -1.3354  0.0985
  761MOL0     H 2694   5.488   3.387   5.264 -0.1065  1.1220 -0.5174
  761MOL0     H 2695   5.388   3.429   4.915 -0.2471  1.1742 -1.5192
  761MOL0     H 2696   5.196   3.486   4.679 -0.3026  0.4119 -2.4866
  761MOL0     H 2697   5.373   3.492   4.692 -0.4451  2.6721 -4.7575
  761MOL0     H 2698   5.302   3.398   4.568  2.7784  3.4036  0.4279
  761MOL0     H 2699   5.232   2.928   4.436  0.7600 -0.0637 -2.3313
  761MOL0     H 2700   5.134   2.799   4.246 -0.6110 -0.9961  0.0697
  761MOL0     H 2701   4.690   2.755   4.231  1.2833 -0.9479  0.6965
  761MOL0     H 2702   4.705   2.917   4.166 -3.0896 -1.1603  1.4703
  761MOL0     H 2703   4.584   2.781   4.000  0.0869  0.3236 -4.9672
  761MOL0     H 2704   4.751   2.807   3.936 -0.0568 -0.6049 -0.9686
  761MOL0     H 2705   4.793   2.579   4.038 -1.5230 -3.2195  0.9678
  761MOL0     H 2706   4.710   2.591   3.893 -1.8980  1.5964 -0.4378
  761MOL0     H 2707   4.616   2.433   4.070  0.0858  0.0995  0.8225
  761MOL0     H 2708   4.574   2.579   4.171  1.8371  0.9367 -0.1613
  761MOL0     H 2709   4.469   2.498   3.885 -0.1671 -2.1597  0.7188
  761MOL0     H 2710   4.431   2.653   3.956  2.6251  0.2442 -0.5330
  761MOL0     H 2711   4.365   2.373   4.049  0.5185 -0.2437 -0.0608
  761MOL0     H 2712   4.336   2.506   4.157  0.8239 -5.0797  2.5527
  761MOL0     H 2713   4.131   2.428   4.008 -0.6814  0.8535  3.0525
  761MOL0     H 2714   4.242   2.483   3.872  2.8579  0.4868  0.9945
  761MOL0     H 2715   4.215   2.708   3.975  0.4301 -0.5270  0.1760
  761MOL0     H 2716   4.094   2.644   4.090 -1.1014 -1.3207  1.1731
  761MOL0     H 2717   4.755   2.970   4.369  0.0533  0.1566 -1.0783
  761MOL0     H 2718   4.852   3.047   4.574  2.7603  1.7108  1.7207
  761MOL0     H 2719   5.193   2.989   4.845 -1.6627  1.7886  2.1029
  761MOL0     H 2720   5.324   3.031   5.041  1.6613  1.9797  0.6820
  761MOL0     H 2721   6.326   4.605   4.455  2.2983  2.0178 -0.7334
  761MOL0     H 2722   6.548   4.687   4.473  2.0485 -0.0751  1.0341
  761MOL0     H 2723   7.111   4.418   4.615 -0.3218  0.2712  1.3323
  761MOL0     H 2724   7.310   4.551   4.622  1.3895  1.6929  1.4449
  761MOL0     H 2725   7.287   5.007   4.595 -0.2275 -1.2563 -0.5107
  761MOL0     H 2726   7.287   4.962   4.770  0.2601  1.5284  0.2944
  761MOL0     H 2727   7.462   5.116   4.752  2.0069  0.5107 -0.2015
  761MOL0     H 2728   7.521   5.057   4.606 -0.1194 -0.8428 -0.4355
  761MOL0     H 2729   7.518   4.884   4.853 -0.3885  0.8913 -0.9845
  761MOL0     H 2730   7.653   4.994   4.832  0.1053  0.5850  1.5710
  761MOL0     H 2731   7.573   4.778   4.615  2.0487 -0.4440 -2.7983
  761MOL0     H 2732   7.675   4.743   4.755  0.5899  2.1620  1.7167
  761MOL0     H 2733   7.957   4.966   4.547 -0.4881  2.2863  0.2275
  761MOL0     H 2734   7.081   4.911   4.629 -0.9839  0.1681 -0.2023
  761MOL0     H 2735   6.877   4.791   4.626  0.1510  0.6245  2.0979
  762MOL0     O 2736   7.020   2.199   6.322 -0.1695 -0.0084 -0.7456
  762MOL0     C 2737   7.107   2.140   6.385  0.0198 -0.3613 -0.6557
  762MOL0     O 2738   7.087   2.020   6.457 -0.5749 -0.2341 -0.1229
  762MOL0     C 2739   6.961   1.979   6.460 -0.3440  0.1885  0.0657
  762MOL0     C 2740   6.918   1.855   6.399  0.9696 -1.0139  0.6363
  762MOL0     C 2741   6.783   1.827   6.381  0.6932  0.0226  0.1662
  762MOL0     C 2742   6.686   1.915   6.427 -0.7692 -0.0290 -0.5161
  762MOL0     O 2743   6.551   1.902   6.441 -0.0104  0.6707  0.1747
  762MOL0     C 2744   6.506   1.779   6.389 -0.0815  0.3611 -0.5865
  762MOL0     C 2745   6.351   1.757   6.409 -0.4023  0.3434 -0.7340
  762MOL0     C 2746   6.304   1.802   6.544 -0.0108  1.0186  0.3078
  762MOL0     C 2747   6.383   1.728   6.653  0.7594 -0.6295 -0.9686
  762MOL0     C 2748   6.323   1.743   6.795  0.6997 -0.4897  0.9995
  762MOL0     C 2749   6.399   1.665   6.899 -0.2123  0.1033  1.0684
  762MOL0     C 2750   6.337   1.689   7.033  0.8160 -1.1720  0.4454
  762MOL0     C 2751   6.368   1.589   7.137 -0.0668  0.1896 -0.2740
  762MOL0     N 2752   6.509   1.568   7.170 -1.1902 -0.5241 -0.5288
  762MOL0     C 2753   6.589   1.477   7.095 -0.0733 -0.6640  0.1658
  762MOL0     C 2754   6.718   1.503   7.128  0.4409  0.1566  0.1107
  762MOL0     C 2755   6.840   1.438   7.065  0.5985  0.3958  0.6004
  762MOL0     C 2756   6.952   1.420   7.160  0.7964  0.6369  0.4196
  762MOL0     C 2757   7.074   1.373   7.084  0.2293  0.0219 -0.2673
  762MOL0     C 2758   7.185   1.361   7.192  0.1999 -0.2568 -0.6490
  762MOL0     O 2759   7.292   1.299   7.133 -0.7554  0.2575 -0.1371
  762MOL0     C 2760   7.411   1.296   7.203 -0.3434 -0.3618  0.3972
  762MOL0     C 2761   7.435   1.345   7.334 -0.8654 -0.0363 -0.4803
  762MOL0     C 2762   7.560   1.340   7.399 -0.1372 -0.6448  0.4383
  762MOL0     C 2763   7.569   1.383   7.547  0.1492  0.4230  0.9481
  762MOL0     C 2764   7.669   1.291   7.317  0.6538  0.7122  0.0238
  762MOL0     C 2765   7.810   1.283   7.367 -0.2325  0.7075 -0.4858
  762MOL0     O 2766   7.904   1.228   7.277  0.0028  0.2038  0.2763
  762MOL0     C 2767   8.031   1.203   7.325 -1.1715  0.0819 -0.1764
  762MOL0     C 2768   8.118   1.304   7.341  0.2265  0.4381 -0.1707
  762MOL0     C 2769   8.247   1.293   7.385 -0.0144 -0.7871  0.5122
  762MOL0     C 2770   8.304   1.171   7.409  0.1328 -0.6322  0.0495
  762MOL0     O 2771   8.438   1.165   7.424  0.2131 -0.3839  0.2222
  762MOL0     C 2772   8.504   1.044   7.472 -0.0137  0.9173 -0.0883
  762MOL0     C 2773   8.645   1.033   7.416  0.2753 -0.5365 -0.6902
  762MOL0     C 2774   8.724   1.154   7.485 -0.2725  0.0902 -0.2679
  762MOL0     C 2775   8.843   1.192   7.390  0.5809 -1.0262  0.5680
  762MOL0     C 2776   8.968   1.104   7.394 -0.4470  0.3537 -0.9861
  762MOL0     C 2777   9.047   1.111   7.533  0.0028 -0.4797 -0.4117
  762MOL0     C 2778   9.189   1.057   7.523  0.1773 -0.5827  0.7274
  762MOL0     C 2779   9.264   1.054   7.659  0.1001 -0.3494  0.6239
  762MOL0    Cl 2780   9.436   1.040   7.636 -0.0951  0.0281  0.2779
  762MOL0     C 2781   8.220   1.055   7.388  0.1710  0.4007 -0.0005
  762MOL0     C 2782   8.085   1.077   7.347  1.1817 -0.4164 -0.1711
  762MOL0     O 2783   7.837   1.327   7.477 -0.2413  0.2942 -0.1033
  762MOL0     C 2784   7.639   1.236   7.189 -0.1501 -0.7573 -0.2320
  762MOL0     C 2785   7.516   1.242   7.132  0.4683  0.2139  0.8774
  762MOL0     N 2786   6.720   1.601   7.226  0.2395 -0.2330  0.0545
  762MOL0     N 2787   6.595   1.636   7.248  0.3848  0.3935 -0.1843
  762MOL0     C 2788   6.729   2.033   6.484  0.4035  0.2760 -0.1519
  762MOL0     C 2789   6.862   2.061   6.512  1.5931  0.0369  0.0931
  762MOL0     C 2790   7.248   2.180   6.365  0.7854  0.2680  0.2138
  762MOL0     C 2791   7.354   2.106   6.419 -0.0496  0.3353  0.3537
  762MOL0     C 2792   7.488   2.152   6.419  0.3091 -0.6119  0.1752
  762MOL0     C 2793   7.512   2.275   6.361  0.0190 -0.0049 -0.0011
  762MOL0     O 2794   7.637   2.335   6.353  0.4327 -0.7841  0.1341
  762MOL0     C 2795   7.732   2.297   6.457  0.5563  0.2048 -0.2812
  762MOL0     C 2796   7.845   2.399   6.469  0.3199  0.0157  0.6062
  762MOL0     C 2797   7.785   2.538   6.500  0.0770  1.0271  0.0371
  762MOL0     C 2798   7.696   2.544   6.628  0.3881  0.9891 -0.2776
  762MOL0     C 2799   7.620   2.665   6.652  0.4435  0.0313  0.3560
  762MOL0     C 2800   7.543   2.761   6.660 -0.6215  0.2601 -0.6218
  762MOL0     C 2801   7.411   2.344   6.292  0.0413 -0.1094 -0.6921
  762MOL0     C 2802   7.280   2.292   6.291 -0.1368  0.4564 -0.4155
  762MOL0     H 2803   7.000   1.799   6.355  0.4975  0.0318 -1.7442
  762MOL0     H 2804   6.760   1.737   6.324 -1.1450  2.6575 -3.7242
  762MOL0     H 2805   6.531   1.758   6.285 -1.0804  0.1496 -0.7930
  762MOL0     H 2806   6.548   1.691   6.438 -1.0025  1.6489  2.7685
  762MOL0     H 2807   6.289   1.805   6.333 -0.5749  2.2410  0.5526
  762MOL0     H 2808   6.331   1.650   6.399  0.2705 -0.1788  2.3336
  762MOL0     H 2809   6.327   1.908   6.552 -0.3604  1.1414 -0.3001
  762MOL0     H 2810   6.196   1.792   6.553  0.0030  1.1312  0.6096
  762MOL0     H 2811   6.373   1.623   6.627 -1.8514  0.0438 -3.1893
  762MOL0     H 2812   6.486   1.764   6.651  1.4733 -2.5796 -1.8745
  762MOL0     H 2813   6.307   1.846   6.826 -1.1683  0.7608 -3.3010
  762MOL0     H 2814   6.220   1.706   6.787  0.9568 -1.6277  2.5474
  762MOL0     H 2815   6.395   1.559   6.873  0.1805  0.5605 -1.0111
  762MOL0     H 2816   6.503   1.700   6.906 -1.0274  2.7098  1.3594
  762MOL0     H 2817   6.348   1.791   7.073 -0.7114 -1.5314  1.8880
  762MOL0     H 2818   6.229   1.684   7.011  0.9139  1.8266 -1.3660
  762MOL0     H 2819   6.332   1.493   7.099  0.4940  0.5723 -1.8432
  762MOL0     H 2820   6.312   1.605   7.230  1.0557 -0.7842  0.6070
  762MOL0     H 2821   6.548   1.410   7.021 -1.1637  1.5284 -1.3443
  762MOL0     H 2822   6.803   1.340   7.033  1.8010  0.6832 -1.9545
  762MOL0     H 2823   6.879   1.498   6.982  0.2757  2.7262  2.0379
  762MOL0     H 2824   6.923   1.343   7.232 -0.7389 -0.5386 -1.3423
  762MOL0     H 2825   6.976   1.512   7.213  0.1229  1.2998 -0.3893
  762MOL0     H 2826   7.106   1.447   7.010  1.9317  3.0335  3.1606
  762MOL0     H 2827   7.050   1.272   7.051  0.9377 -0.5057  0.7924
  762MOL0     H 2828   7.144   1.325   7.287 -1.3319 -0.0317 -1.2022
  762MOL0     H 2829   7.214   1.465   7.213  0.5398 -0.3788 -0.4951
  762MOL0     H 2830   7.356   1.399   7.386 -1.4922 -0.3588 -1.0703
  762MOL0     H 2831   7.595   1.292   7.602 -2.7776  0.4567  2.5747
  762MOL0     H 2832   7.641   1.464   7.562 -0.5842  1.3943 -0.5426
  762MOL0     H 2833   7.471   1.419   7.580 -1.0574 -2.9106  1.4155
  762MOL0     H 2834   8.076   1.401   7.320  0.3742  0.1436 -1.9308
  762MOL0     H 2835   8.300   1.386   7.403 -3.8978  1.9555 -0.7721
  762MOL0     H 2836   8.506   1.042   7.582 -3.4907 -1.0952  0.0586
  762MOL0     H 2837   8.447   0.953   7.450 -0.8569  1.5021 -0.3473
  762MOL0     H 2838   8.686   0.935   7.441  0.3942 -0.1654  0.6286
  762MOL0     H 2839   8.637   1.053   7.308 -1.0492 -0.4747 -0.5974
  762MOL0     H 2840   8.751   1.124   7.587  1.3188 -1.0592 -0.9865
  762MOL0     H 2841   8.667   1.245   7.503  2.0857  1.5353  0.4059
  762MOL0     H 2842   8.806   1.206   7.289  1.2267  0.0501  0.4612
  762MOL0     H 2843   8.877   1.293   7.416 -0.0562 -0.2562 -1.4565
  762MOL0     H 2844   9.045   1.144   7.328  1.3927  2.1196  1.9726
  762MOL0     H 2845   8.933   1.002   7.372  2.7919 -0.9488 -0.6326
  762MOL0     H 2846   9.049   1.206   7.587 -1.1682 -1.1751  0.9077
  762MOL0     H 2847   8.993   1.045   7.601 -0.5502 -0.4591 -0.8328
  762MOL0     H 2848   9.241   1.120   7.449  1.5298 -0.3026  1.8735
  762MOL0     H 2849   9.193   0.952   7.493  0.9861 -0.6391  1.0125
  762MOL0     H 2850   9.222   0.966   7.707 -3.2201 -0.0662 -1.4454
  762MOL0     H 2851   9.232   1.140   7.718  0.9965 -0.9630  2.0502
  762MOL0     H 2852   8.258   0.953   7.389 -0.2807  0.1868 -1.7920
  762MOL0     H 2853   8.024   0.988   7.344 -0.9971  0.9725 -3.4995
  762MOL0     H 2854   7.720   1.192   7.131  0.2580 -1.6602  0.9820
  762MOL0     H 2855   7.502   1.210   7.029 -2.1877 -2.9373  2.0517
  762MOL0     H 2856   6.657   2.105   6.523 -0.8017 -0.5674 -0.7524
  762MOL0     H 2857   6.883   2.153   6.564 -0.7920  0.1519  0.9773
  762MOL0     H 2858   7.343   2.013   6.474 -0.8536 -0.9349 -1.8349
  762MOL0     H 2859   7.574   2.108   6.470  0.8609 -0.6541 -0.7608
  762MOL0     H 2860   7.681   2.281   6.553 -0.1157  3.6653  0.0750
  762MOL0     H 2861   7.781   2.202   6.437 -0.6371 -0.3756 -0.5303
  762MOL0     H 2862   7.906   2.411   6.379 -2.1652  0.8070 -1.0795
  762MOL0     H 2863   7.904   2.355   6.551 -2.2425 -1.4101  1.8131
  762MOL0     H 2864   7.732   2.560   6.407  1.3530 -3.0829 -1.8997
  762MOL0     H 2865   7.866   2.611   6.512  1.0714 -0.3768  2.7698
  762MOL0     H 2866   7.771   2.528   6.705 -0.7993  0.7774  0.8661
  762MOL0     H 2867   7.619   2.467   6.621  2.9614 -1.7127 -1.1809
  762MOL0     H 2868   7.482   2.850   6.659 -2.5428 -0.7744  3.3910
  762MOL0     H 2869   7.428   2.433   6.232 -3.9170  1.3890  0.0749
  762MOL0     H 2870   7.198   2.349   6.249 -1.1296  2.0424  3.2624
  763MOL0     O 2871   2.063   5.519  10.594 -0.5549 -0.0758 -0.1670
  763MOL0     C 2872   2.124   5.536  10.707 -0.3235  0.8086  0.2149
  763MOL0     O 2873   2.079   5.598  10.816  0.4705 -0.4261 -0.0468
  763MOL0     C 2874   1.943   5.620  10.824 -0.8509  0.8554  0.2402
  763MOL0     C 2875   1.843   5.534  10.771 -0.6990 -0.6301  0.3776
  763MOL0     C 2876   1.705   5.564  10.802 -0.1523  0.3795 -0.3586
  763MOL0     C 2877   1.672   5.662  10.894  0.9376  0.3511 -0.2136
  763MOL0     O 2878   1.536   5.670  10.925  0.3659 -0.0636  0.1834
  763MOL0     C 2879   1.507   5.719  11.060 -0.1498 -0.3978  0.1018
  763MOL0     C 2880   1.358   5.722  11.078  0.0594  0.2647 -0.6841
  763MOL0     C 2881   1.278   5.813  10.988 -0.3640 -0.1064 -0.0799
  763MOL0     C 2882   1.247   5.950  11.061 -0.0099 -0.5582  0.6396
  763MOL0     C 2883   1.172   6.047  10.963 -0.5363 -0.5581 -0.3094
  763MOL0     C 2884   1.251   6.086  10.839  0.0949  0.4084  0.4841
  763MOL0     C 2885   1.394   6.144  10.870  0.2349  0.0311 -0.7878
  763MOL0     C 2886   1.484   6.174  10.747  0.6516  0.9511 -0.2568
  763MOL0     N 2887   1.497   6.057  10.662 -0.7464  0.2808  0.6830
  763MOL0     C 2888   1.592   5.960  10.688 -0.3866 -0.0273  0.2398
  763MOL0     C 2889   1.617   5.910  10.562  0.1770 -0.1136  0.4750
  763MOL0     C 2890   1.721   5.812  10.528 -0.2802 -0.2544  1.2936
  763MOL0     C 2891   1.850   5.882  10.498 -0.5292  0.7984 -0.1055
  763MOL0     C 2892   1.845   5.987  10.382  0.2326  0.7305 -0.2461
  763MOL0     C 2893   1.783   5.927  10.254 -0.3415  0.7644 -0.1308
  763MOL0     O 2894   1.802   6.013  10.140 -0.4003  0.4919  0.1866
  763MOL0     C 2895   1.923   6.019  10.079  0.0777  0.0067 -0.5554
  763MOL0     C 2896   1.942   6.133   9.998 -0.8087  0.6248  0.0891
  763MOL0     C 2897   2.066   6.155   9.931  0.2629 -0.3638 -0.4556
  763MOL0     C 2898   2.065   6.286   9.845 -0.4082 -0.0216 -0.4706
  763MOL0     C 2899   2.168   6.066   9.946 -0.3642  0.1149  0.3684
  763MOL0     C 2900   2.302   6.072   9.879 -0.2905  0.4634 -0.3497
  763MOL0     O 2901   2.400   5.981   9.912 -0.4619 -0.3865  0.4173
  763MOL0     C 2902   2.529   6.001   9.864 -1.1515  0.3811  0.5550
  763MOL0     C 2903   2.561   6.055   9.741  0.5444 -0.2762 -1.2897
  763MOL0     C 2904   2.696   6.062   9.702 -0.1283 -0.7287  0.3419
  763MOL0     C 2905   2.795   6.005   9.776 -0.1711 -0.2651  0.7848
  763MOL0     O 2906   2.927   6.008   9.729  0.0695  0.3043 -0.3370
  763MOL0     C 2907   2.961   5.913   9.623  0.1287  0.1809  0.2327
  763MOL0     C 2908   3.045   5.988   9.521  0.1727  0.3921 -0.0763
  763MOL0     C 2909   3.191   6.001   9.558 -0.3873  0.9300  0.7442
  763MOL0     C 2910   3.256   6.094   9.470  0.1677 -0.0162  0.0636
  763MOL0     C 2911   3.413   6.079   9.476 -0.2180  0.0201 -0.5807
  763MOL0     C 2912   3.471   6.095   9.615 -1.3491  0.1060 -0.1322
  763MOL0     C 2913   3.620   6.044   9.627  0.5840  0.0790 -0.3082
  763MOL0     C 2914   3.720   6.113   9.541 -0.3385  0.5412 -0.1289
  763MOL0    Cl 2915   3.703   6.294   9.577 -0.5030  0.4117  0.0536
  763MOL0     C 2916   2.761   5.949   9.891 -0.4949 -0.0616 -0.0756
  763MOL0     C 2917   2.630   5.935   9.936  0.0283 -0.5922  0.4633
  763MOL0     O 2918   2.322   6.180   9.829 -0.8234  1.1352 -0.0337
  763MOL0     C 2919   2.155   5.951  10.031  0.4585  0.0473 -0.2482
  763MOL0     C 2920   2.030   5.935  10.097 -0.0515  0.1503 -0.3189
  763MOL0     N 2921   1.517   5.959  10.473 -0.6424  0.2957 -0.0532
  763MOL0     N 2922   1.457   6.048  10.538  0.2418 -0.3969  1.1527
  763MOL0     C 2923   1.771   5.745  10.945  0.6579 -0.1577  0.9240
  763MOL0     C 2924   1.907   5.725  10.906  0.0051  0.0187 -0.5472
  763MOL0     C 2925   2.270   5.484  10.697  0.8282  0.4279  0.0909
  763MOL0     C 2926   2.360   5.512  10.802  0.4433  0.5893  0.2012
  763MOL0     C 2927   2.483   5.444  10.800  0.6040 -0.0639 -0.0625
  763MOL0     C 2928   2.522   5.363  10.700  0.7696 -0.1478  0.0054
  763MOL0     O 2929   2.648   5.309  10.700 -0.0872  0.1321  0.4041
  763MOL0     C 2930   2.691   5.244  10.818 -0.6503  0.3559 -0.4586
  763MOL0     C 2931   2.808   5.330  10.875 -0.3239  0.4207 -0.3163
  763MOL0     C 2932   2.917   5.367  10.766 -0.2573 -0.0304  0.0805
  763MOL0     C 2933   2.999   5.486  10.815  0.4011 -0.3223  0.1689
  763MOL0     C 2934   3.131   5.452  10.854  0.6409 -0.0336  0.1641
  763MOL0     C 2935   3.245   5.437  10.899  0.5869  0.0246  0.2873
  763MOL0     C 2936   2.436   5.345  10.595  0.2653 -0.6494 -0.6471
  763MOL0     C 2937   2.304   5.387  10.600  0.4242  1.1903  0.7294
  763MOL0     H 2938   1.881   5.446  10.721 -0.6560 -0.8556  0.8026
  763MOL0     H 2939   1.625   5.497  10.772 -0.2868  0.9904 -1.4097
  763MOL0     H 2940   1.559   5.650  11.128 -0.0200 -0.4412 -0.0392
  763MOL0     H 2941   1.550   5.814  11.092  0.6021 -0.9714  0.8433
  763MOL0     H 2942   1.329   5.620  11.051 -0.5157  0.2793 -0.1343
  763MOL0     H 2943   1.329   5.746  11.181 -1.3357 -0.8668 -0.7716
  763MOL0     H 2944   1.325   5.825  10.890  1.1706  0.2276  0.6567
  763MOL0     H 2945   1.185   5.757  10.975  1.5362 -3.3088 -0.8449
  763MOL0     H 2946   1.177   5.930  11.143  3.1017 -1.1931  3.3378
  763MOL0     H 2947   1.337   5.989  11.109 -0.3283  1.3627 -0.2135
  763MOL0     H 2948   1.077   6.005  10.930 -1.2842  0.1602  0.8945
  763MOL0     H 2949   1.149   6.139  11.016  2.2112  1.1502 -1.8184
  763MOL0     H 2950   1.268   6.002  10.771 -0.1142  0.5675  0.2324
  763MOL0     H 2951   1.192   6.155  10.777  0.6695  0.4695 -0.0063
  763MOL0     H 2952   1.376   6.231  10.933 -1.9537 -1.3146  0.5788
  763MOL0     H 2953   1.449   6.072  10.930 -1.9806 -0.2649  1.0191
  763MOL0     H 2954   1.585   6.200  10.778  0.8178 -0.3226  0.3251
  763MOL0     H 2955   1.441   6.258  10.693  1.7231  1.0297 -1.0207
  763MOL0     H 2956   1.639   5.936  10.783  0.9798 -1.2423 -0.6864
  763MOL0     H 2957   1.723   5.740  10.610 -1.7702 -1.8992 -0.0282
  763MOL0     H 2958   1.697   5.749  10.442 -1.5353  1.1988  0.5199
  763MOL0     H 2959   1.927   5.809  10.470 -1.4296  0.9781 -3.4520
  763MOL0     H 2960   1.877   5.940  10.587 -0.8206  3.3016 -1.5691
  763MOL0     H 2961   1.946   6.021  10.359 -0.5767  2.2997 -1.6965
  763MOL0     H 2962   1.786   6.075  10.407 -1.2482  0.5253 -2.6739
  763MOL0     H 2963   1.675   5.913  10.263 -0.1354 -2.4263 -1.2616
  763MOL0     H 2964   1.822   5.827  10.234  2.3674  1.5178  1.0053
  763MOL0     H 2965   1.863   6.203   9.972 -1.6449 -0.6611 -0.9556
  763MOL0     H 2966   2.102   6.261   9.745  0.3007 -0.1737 -0.1729
  763MOL0     H 2967   1.967   6.331   9.826 -0.7159  0.3890  1.8013
  763MOL0     H 2968   2.126   6.362   9.895  1.1722 -2.3918  1.4447
  763MOL0     H 2969   2.480   6.102   9.685 -1.2769  0.9655  2.0814
  763MOL0     H 2970   2.726   6.097   9.603 -1.2486 -3.0474 -0.9167
  763MOL0     H 2971   2.998   5.817   9.660 -4.0546 -1.8960 -0.2984
  763MOL0     H 2972   2.870   5.879   9.573  1.7919 -1.2722 -1.9809
  763MOL0     H 2973   3.033   5.939   9.424  2.5175 -1.1567  0.3449
  763MOL0     H 2974   2.997   6.085   9.506  1.0003  0.7595 -0.4190
  763MOL0     H 2975   3.246   5.908   9.542 -0.1425  1.3779 -1.3858
  763MOL0     H 2976   3.184   6.024   9.665  2.1655 -1.0075  1.4208
  763MOL0     H 2977   3.224   6.074   9.367  0.6575 -0.2552 -0.0441
  763MOL0     H 2978   3.227   6.191   9.510  2.4393  0.3648  0.9186
  763MOL0     H 2979   3.459   6.155   9.412 -3.3238  1.5120 -1.2209
  763MOL0     H 2980   3.440   5.982   9.432 -0.6694  0.6182 -2.2580
  763MOL0     H 2981   3.476   6.191   9.668  2.9353 -1.6803  3.2640
  763MOL0     H 2982   3.414   6.025   9.676 -0.9852 -0.1459 -0.0819
  763MOL0     H 2983   3.616   5.937   9.605 -2.9708 -0.1277  0.8247
  763MOL0     H 2984   3.649   6.065   9.730 -2.1276  1.4079  0.2702
  763MOL0     H 2985   3.698   6.094   9.435 -1.8133  2.1635 -0.1606
  763MOL0     H 2986   3.818   6.069   9.563 -1.2022 -0.6168  1.6773
  763MOL0     H 2987   2.846   5.912   9.947 -0.0203  0.5882 -0.3620
  763MOL0     H 2988   2.614   5.891  10.034 -3.3030  0.2556  0.4299
  763MOL0     H 2989   2.241   5.886  10.047 -1.5562 -2.1459  2.6840
  763MOL0     H 2990   2.035   5.846  10.159  0.3898 -1.3276 -2.3784
  763MOL0     H 2991   1.737   5.825  11.010  0.5921 -0.3784  1.1619
  763MOL0     H 2992   1.978   5.793  10.953 -2.0676  3.1214 -1.5864
  763MOL0     H 2993   2.332   5.579  10.883 -0.6176  0.0519  0.3002
  763MOL0     H 2994   2.547   5.461  10.886 -1.5279  1.3195  1.3639
  763MOL0     H 2995   2.613   5.220  10.891 -0.1528 -0.1587 -0.0923
  763MOL0     H 2996   2.729   5.144  10.795  3.2471  1.3920  0.6971
  763MOL0     H 2997   2.858   5.269  10.951 -0.4344 -1.2493 -1.5380
  763MOL0     H 2998   2.761   5.418  10.919 -2.6184 -0.4921 -0.8141
  763MOL0     H 2999   2.873   5.402  10.672  2.0480 -0.2174 -1.1206
  763MOL0     H 3000   2.982   5.281  10.746 -2.1115 -1.6566  0.7113
  763MOL0     H 3001   2.948   5.537  10.897  0.4137 -0.3357  0.1854
  763MOL0     H 3002   3.010   5.556  10.732 -0.2588 -1.2866 -0.7607
  763MOL0     H 3003   3.343   5.422  10.939  1.0437 -0.1210 -0.8460
  763MOL0     H 3004   2.470   5.292  10.507  0.1331 -1.0142 -0.4829
  763MOL0     H 3005   2.238   5.360  10.518 -0.2058  0.7073  1.3802
  764MOL0     O 3006   9.015   9.567   1.868  0.0371 -0.1836  0.0428
  764MOL0     C 3007   9.073   9.510   1.958 -0.4663 -0.5998  0.3479
  764MOL0     O 3008   9.017   9.447   2.060 -0.2293 -0.0627 -0.8832
  764MOL0     C 3009   8.880   9.439   2.076 -0.3623 -0.7257  0.9794
  764MOL0     C 3010   8.795   9.387   1.984 -0.2013 -0.8544  0.1441
  764MOL0     C 3011   8.661   9.367   2.008 -0.4302 -1.2859  0.5838
  764MOL0     C 3012   8.599   9.419   2.118 -0.7224 -0.1885 -1.3054
  764MOL0     O 3013   8.459   9.394   2.127 -0.0888 -0.0112 -0.3984
  764MOL0     C 3014   8.386   9.417   2.245 -0.0705 -0.1406 -0.5509
  764MOL0     C 3015   8.364   9.563   2.269 -0.0260 -0.7535 -1.1609
  764MOL0     C 3016   8.220   9.580   2.326 -0.0129  0.9432  0.8087
  764MOL0     C 3017   8.190   9.723   2.374 -0.3354  0.2181 -0.2894
  764MOL0     C 3018   8.048   9.743   2.434  0.3435  0.0828 -0.2393
  764MOL0     C 3019   8.010   9.890   2.444  0.1843 -0.0742 -0.0417
  764MOL0     C 3020   8.101   9.974   2.540  1.1232  0.4908  0.0576
  764MOL0     C 3021   8.135   9.914   2.676  0.6314 -0.5574 -0.1059
  764MOL0     N 3022   8.009   9.894   2.756  1.1396  0.4797  0.1121
  764MOL0     C 3023   7.942   9.991   2.818  0.5913  0.2633 -0.0972
  764MOL0     C 3024   7.840   9.927   2.884 -0.1897  0.6372  1.0185
  764MOL0     C 3025   7.740   9.998   2.950  0.8478  0.4745  0.0207
  764MOL0     C 3026   7.641  10.055   2.851  0.9777 -0.7555 -0.0365
  764MOL0     C 3027   7.545   9.960   2.778 -0.2913 -0.4933 -0.7721
  764MOL0     C 3028   7.475   9.873   2.884  0.1643  0.3110  0.3892
  764MOL0     O 3029   7.399   9.770   2.824  0.0113 -0.6040  0.1051
  764MOL0     C 3030   7.358   9.676   2.911  0.3487 -0.6423 -0.6555
  764MOL0     C 3031   7.235   9.696   2.972 -0.1071  0.1106  0.6046
  764MOL0     C 3032   7.193   9.609   3.076 -0.5850 -0.4361 -0.4129
  764MOL0     C 3033   7.057   9.611   3.132 -0.3729  0.4171  1.2872
  764MOL0     C 3034   7.273   9.491   3.108 -0.5118  0.7428  0.8193
  764MOL0     C 3035   7.239   9.385   3.204 -0.1414 -0.1503 -0.1290
  764MOL0     O 3036   7.304   9.264   3.192 -0.5361  0.4753 -0.0381
  764MOL0     C 3037   7.327   9.189   3.308  0.4108  0.8185 -0.4554
  764MOL0     C 3038   7.423   9.214   3.403  0.0335 -0.1350 -0.1294
  764MOL0     C 3039   7.432   9.139   3.526  0.1743  0.4422  0.1974
  764MOL0     C 3040   7.347   9.029   3.551  1.3516  0.6581  0.7605
  764MOL0     O 3041   7.385   8.955   3.651 -0.0553 -0.1495 -0.2265
  764MOL0     C 3042   7.307   8.846   3.688 -0.2450  0.5658  0.5868
  764MOL0     C 3043   7.342   8.782   3.817  0.9760  0.0799  0.5645
  764MOL0     C 3044   7.375   8.883   3.935  0.3241  0.2474  0.2321
  764MOL0     C 3045   7.372   8.808   4.068  0.2409  0.1283  0.5966
  764MOL0     C 3046   7.402   8.896   4.189 -0.9539  0.2731 -0.0073
  764MOL0     C 3047   7.555   8.940   4.207  1.5093  0.2217  0.2160
  764MOL0     C 3048   7.626   8.815   4.252 -0.0937  0.4746 -0.0569
  764MOL0     C 3049   7.770   8.839   4.284 -0.5356 -0.6461 -0.4844
  764MOL0    Cl 3050   7.869   8.907   4.154  0.3989 -0.1293  0.6307
  764MOL0     C 3051   7.248   9.004   3.456  0.0375 -0.9571  0.1182
  764MOL0     C 3052   7.230   9.085   3.337  0.9593  0.5341  0.5234
  764MOL0     O 3053   7.189   9.429   3.306 -0.2360 -0.2408 -0.4810
  764MOL0     C 3054   7.395   9.471   3.039 -0.1466 -0.4636 -0.9239
  764MOL0     C 3055   7.432   9.555   2.937 -0.3763  0.1133 -0.3271
  764MOL0     N 3056   7.844   9.793   2.864  0.7377  0.3636 -0.2809
  764MOL0     N 3057   7.942   9.775   2.779 -1.0070  0.9372 -0.7015
  764MOL0     C 3058   8.686   9.467   2.222  0.0769 -0.2216  0.5471
  764MOL0     C 3059   8.827   9.483   2.192 -0.3418  0.3916 -0.6400
  764MOL0     C 3060   9.222   9.551   1.975 -0.6272  0.1160 -0.2061
  764MOL0     C 3061   9.286   9.645   1.892 -0.2344  0.0292 -0.2788
  764MOL0     C 3062   9.417   9.687   1.916 -0.6920  0.3125 -0.2086
  764MOL0     C 3063   9.492   9.631   2.018 -0.2369 -0.1681  0.2328
  764MOL0     O 3064   9.631   9.654   2.021 -0.0485 -0.1637 -0.2460
  764MOL0     C 3065   9.720   9.566   2.094 -0.6435 -0.1254  0.8565
  764MOL0     C 3066   9.856   9.562   2.023  0.5065 -0.4012  0.0513
  764MOL0     C 3067   9.959   9.656   2.086 -0.2595 -0.0651  1.1500
  764MOL0     C 3068   9.936   9.806   2.059  0.7087  0.2521  0.3373
  764MOL0     C 3069  10.036   9.899   2.114  0.0650 -0.1954  0.2885
  764MOL0     C 3070  10.123   9.971   2.149  0.5877 -0.0588 -0.0087
  764MOL0     C 3071   9.429   9.535   2.108 -0.3833 -0.1814 -0.0122
  764MOL0     C 3072   9.297   9.500   2.077  0.5244 -0.3662  0.0353
  764MOL0     H 3073   8.839   9.343   1.895 -2.3487 -2.1049 -0.3560
  764MOL0     H 3074   8.595   9.329   1.930  0.2527 -0.0618 -0.6423
  764MOL0     H 3075   8.291   9.363   2.243 -0.9681  0.9421  3.5512
  764MOL0     H 3076   8.439   9.367   2.327 -1.1374 -0.4889 -0.0505
  764MOL0     H 3077   8.432   9.608   2.342  0.6622  0.4050 -2.4678
  764MOL0     H 3078   8.383   9.620   2.177 -0.2376 -2.0314 -2.0190
  764MOL0     H 3079   8.148   9.547   2.250 -1.1853  1.7301  1.5531
  764MOL0     H 3080   8.214   9.513   2.412  0.7151  2.9732  2.4953
  764MOL0     H 3081   8.262   9.759   2.448 -1.0714 -1.0457  1.0821
  764MOL0     H 3082   8.204   9.784   2.283  3.3876  0.0094 -0.0186
  764MOL0     H 3083   7.978   9.699   2.361 -1.4966  1.0416  0.8590
  764MOL0     H 3084   8.031   9.678   2.521 -1.3609 -0.7631 -1.1389
  764MOL0     H 3085   8.027   9.936   2.347  5.1558  1.3439  1.2004
  764MOL0     H 3086   7.908   9.894   2.483 -0.0117 -1.2797 -0.3719
  764MOL0     H 3087   8.191   9.998   2.482  1.4518  0.5080  0.5686
  764MOL0     H 3088   8.052  10.069   2.563  0.4301 -0.1616  1.3593
  764MOL0     H 3089   8.197   9.990   2.723  1.2596 -2.5084  2.4550
  764MOL0     H 3090   8.186   9.817   2.674  0.2279 -0.7795  0.0346
  764MOL0     H 3091   7.953  10.099   2.810  0.8416  0.1450 -1.6235
  764MOL0     H 3092   7.689   9.943   3.029 -0.3770  0.4719 -0.7372
  764MOL0     H 3093   7.798  10.077   2.998  0.5902  2.0044 -2.0351
  764MOL0     H 3094   7.698  10.113   2.778  0.1880 -0.9894 -0.8685
  764MOL0     H 3095   7.575  10.127   2.900 -1.5404 -0.8284 -3.0127
  764MOL0     H 3096   7.601   9.892   2.713 -1.4553 -2.9991  0.6856
  764MOL0     H 3097   7.478  10.027   2.723  0.1227 -0.0915 -0.7932
  764MOL0     H 3098   7.407   9.932   2.946  1.7926  1.6691  0.9570
  764MOL0     H 3099   7.547   9.828   2.953 -1.8629 -1.9807  1.1533
  764MOL0     H 3100   7.188   9.790   2.947 -0.4157  0.1291  1.2272
  764MOL0     H 3101   7.045   9.655   3.232  0.5922  1.2278  1.0728
  764MOL0     H 3102   6.998   9.672   3.064  0.1646 -0.8510 -0.3677
  764MOL0     H 3103   7.024   9.507   3.133  0.2892  0.1815  3.0229
  764MOL0     H 3104   7.497   9.289   3.380  1.4256 -1.5356 -0.4161
  764MOL0     H 3105   7.520   9.157   3.587  0.6598  1.1754 -0.6913
  764MOL0     H 3106   7.205   8.882   3.699 -1.7036 -1.2588 -4.1465
  764MOL0     H 3107   7.307   8.764   3.615 -1.8653  0.0831  1.1040
  764MOL0     H 3108   7.269   8.708   3.851 -0.4539  0.6452 -1.1544
  764MOL0     H 3109   7.436   8.733   3.788 -0.3714 -0.2516 -3.9831
  764MOL0     H 3110   7.302   8.963   3.943  0.1232  0.1095 -0.2177
  764MOL0     H 3111   7.473   8.928   3.914  0.0389  0.8338  0.1326
  764MOL0     H 3112   7.277   8.757   4.084  1.0522 -3.8354 -4.6598
  764MOL0     H 3113   7.442   8.724   4.066  2.0112  1.5529 -0.2577
  764MOL0     H 3114   7.372   8.838   4.277  1.4259 -0.8155  0.1747
  764MOL0     H 3115   7.337   8.984   4.189 -2.1475 -0.5635  1.1182
  764MOL0     H 3116   7.599   8.993   4.123  0.8609 -0.3045 -0.4662
  764MOL0     H 3117   7.554   9.014   4.288 -1.7513  0.5586 -0.0155
  764MOL0     H 3118   7.624   8.738   4.174 -1.5605  1.0594 -0.6127
  764MOL0     H 3119   7.584   8.779   4.347  0.5204 -1.5094 -0.4905
  764MOL0     H 3120   7.825   8.749   4.313  0.8201  0.5483  0.7843
  764MOL0     H 3121   7.779   8.907   4.369  1.5394  2.0668 -2.6948
  764MOL0     H 3122   7.180   8.922   3.475  1.8142 -2.0269  2.3927
  764MOL0     H 3123   7.140   9.084   3.276  1.7686  0.5747 -0.6893
  764MOL0     H 3124   7.457   9.383   3.053 -1.2876 -1.4223 -1.6339
  764MOL0     H 3125   7.528   9.539   2.889  0.1986  1.2390  0.3844
  764MOL0     H 3126   8.654   9.492   2.323  1.0778 -3.0178  1.6687
  764MOL0     H 3127   8.892   9.529   2.266  0.4020 -1.3310 -0.1810
  764MOL0     H 3128   9.235   9.689   1.806 -0.5390  0.2156 -0.0063
  764MOL0     H 3129   9.462   9.764   1.854  0.0513  1.8439  2.1022
  764MOL0     H 3130   9.724   9.597   2.199 -0.7674  1.1284  0.4975
  764MOL0     H 3131   9.683   9.463   2.095 -0.8069 -0.1938 -2.2156
  764MOL0     H 3132   9.854   9.574   1.915  0.3610  1.3371  0.2191
  764MOL0     H 3133   9.890   9.460   2.046 -2.5611 -1.2078  1.5874
  764MOL0     H 3134  10.061   9.632   2.053 -0.2139  1.2262  0.2721
  764MOL0     H 3135   9.957   9.643   2.194 -1.7361  0.2367  1.1758
  764MOL0     H 3136   9.835   9.830   2.096 -1.4898 -1.1856 -3.9972
  764MOL0     H 3137   9.930   9.822   1.951 -2.3024 -0.5253  0.2845
  764MOL0     H 3138  10.211  10.028   2.168 -0.8520  1.1102  4.1421
  764MOL0     H 3139   9.485   9.482   2.184  2.3070 -0.9403 -2.3893
  764MOL0     H 3140   9.248   9.418   2.128  1.6415 -0.8133  0.4298
  765MOL0     O 3141   8.022   6.363  11.250  0.0326 -0.5924  0.6936
  765MOL0     C 3142   8.076   6.269  11.182  0.5878  0.8823  0.3814
  765MOL0     O 3143   8.214   6.240  11.177  0.5250  0.8517  0.3692
  765MOL0     C 3144   8.310   6.312  11.243  0.1330 -0.1660 -0.3889
  765MOL0     C 3145   8.429   6.241  11.253 -0.2811  1.0534  0.3551
  765MOL0     C 3146   8.529   6.302  11.332  0.6234  0.5547  1.2999
  765MOL0     C 3147   8.518   6.433  11.378 -0.7361 -0.3150 -0.1749
  765MOL0     O 3148   8.631   6.482  11.436 -1.2948 -0.1388 -0.0335
  765MOL0     C 3149   8.641   6.618  11.462  0.1726 -1.0224  0.0757
  765MOL0     C 3150   8.741   6.648  11.578  0.1954 -0.4057 -0.6200
  765MOL0     C 3151   8.730   6.804  11.604  0.0337 -0.3946  1.2590
  765MOL0     C 3152   8.836   6.857  11.700 -0.6433  0.1578  0.2165
  765MOL0     C 3153   8.827   7.005  11.722 -0.4155 -0.0860 -0.6744
  765MOL0     C 3154   8.705   7.047  11.801  0.9528 -1.1449 -0.2776
  765MOL0     C 3155   8.699   7.203  11.795 -0.4202  0.3166 -0.0365
  765MOL0     C 3156   8.574   7.247  11.873  0.1423  0.0638 -0.7496
  765MOL0     N 3157   8.447   7.205  11.813 -0.3626 -0.2814  0.5980
  765MOL0     C 3158   8.385   7.269  11.706 -0.6263  0.2422 -0.2238
  765MOL0     C 3159   8.252   7.241  11.722 -0.1133 -0.3130 -0.5053
  765MOL0     C 3160   8.131   7.288  11.646 -0.0668 -0.2738 -1.0850
  765MOL0     C 3161   7.996   7.260  11.720 -0.9460 -0.1378 -0.3029
  765MOL0     C 3162   7.882   7.316  11.648  0.9483  0.0703 -0.0118
  765MOL0     C 3163   7.755   7.304  11.733  0.5773  0.1614 -0.9292
  765MOL0     O 3164   7.639   7.332  11.648 -0.4676 -1.7102  0.0322
  765MOL0     C 3165   7.518   7.347  11.701 -0.9281 -0.2043 -0.8989
  765MOL0     C 3166   7.485   7.342  11.840 -0.2424 -0.9612 -0.2651
  765MOL0     C 3167   7.357   7.364  11.892 -0.3972  0.2454  1.5984
  765MOL0     C 3168   7.339   7.339  12.037  0.9286  0.0263  0.2935
  765MOL0     C 3169   7.250   7.385  11.794 -0.3807  0.3624 -0.0164
  765MOL0     C 3170   7.112   7.401  11.826  0.2037 -0.8294 -1.1976
  765MOL0     O 3171   7.012   7.357  11.740  0.0408  0.1071  0.0861
  765MOL0     C 3172   6.891   7.306  11.772 -0.0112 -0.5310  0.7635
  765MOL0     C 3173   6.848   7.268  11.897 -0.1145 -0.7352 -0.0507
  765MOL0     C 3174   6.717   7.225  11.931 -0.2223  0.6427 -0.4554
  765MOL0     C 3175   6.617   7.237  11.830 -0.3383  0.1569 -0.3112
  765MOL0     O 3176   6.488   7.203  11.858 -0.0512 -0.1939 -0.5941
  765MOL0     C 3177   6.433   7.115  11.765 -0.1719  0.1042  0.5346
  765MOL0     C 3178   6.316   7.032  11.823  0.5365 -0.1071  0.0883
  765MOL0     C 3179   6.231   6.960  11.717 -0.0586 -0.4334  0.4521
  765MOL0     C 3180   6.114   7.050  11.670  0.0699 -0.3051 -0.6455
  765MOL0     C 3181   6.036   6.989  11.556 -0.4850 -0.3087 -0.0342
  765MOL0     C 3182   5.925   7.073  11.505 -0.0095 -0.5152 -0.1320
  765MOL0     C 3183   5.814   7.128  11.606 -0.5089  0.0565  0.3370
  765MOL0     C 3184   5.709   7.220  11.542 -0.3204  1.0114 -0.0034
  765MOL0    Cl 3185   5.628   7.319  11.683 -0.5151  0.2079 -0.2915
  765MOL0     C 3186   6.656   7.271  11.698  0.0880  0.3563 -0.1232
  765MOL0     C 3187   6.791   7.305  11.674 -0.3276  0.2587 -0.1299
  765MOL0     O 3188   7.087   7.461  11.932  0.2939 -0.5261  0.7063
  765MOL0     C 3189   7.275   7.389  11.661  0.0424  0.3368  0.1510
  765MOL0     C 3190   7.413   7.371  11.613 -0.0779 -0.0453  0.2331
  765MOL0     N 3191   8.238   7.156  11.826  0.2815  0.3777  0.1463
  765MOL0     N 3192   8.349   7.140  11.886  0.0553 -0.0349  0.0724
  765MOL0     C 3193   8.402   6.506  11.358  0.0372  0.6616  0.4106
  765MOL0     C 3194   8.295   6.445  11.299  0.0147 -0.1528 -0.1200
  765MOL0     C 3195   7.972   6.189  11.118  0.4692  0.1505  0.0412
  765MOL0     C 3196   7.988   6.047  11.107 -0.5505 -0.2113  0.7994
  765MOL0     C 3197   7.882   5.974  11.056 -0.2705 -0.0801 -0.3668
  765MOL0     C 3198   7.765   6.035  11.011  0.5950  0.1898  0.1175
  765MOL0     O 3199   7.668   5.946  10.960 -0.7241 -0.3387  0.3223
  765MOL0     C 3200   7.614   5.993  10.831  0.8345 -0.4405  0.1433
  765MOL0     C 3201   7.541   5.871  10.770  0.4966  0.4257 -0.4223
  765MOL0     C 3202   7.497   5.915  10.628 -0.0123  0.1352  0.8155
  765MOL0     C 3203   7.361   5.995  10.644  0.1596 -0.5522 -0.7105
  765MOL0     C 3204   7.287   6.016  10.524 -0.4620  0.2054  0.6753
  765MOL0     C 3205   7.216   6.050  10.425 -0.7910  1.2271 -0.7332
  765MOL0     C 3206   7.765   6.176  11.010  0.0437 -0.3555  0.0860
  765MOL0     C 3207   7.866   6.249  11.058 -0.3305 -0.3018 -0.1439
  765MOL0     H 3208   8.443   6.144  11.208  0.8136  2.2929 -2.1488
  765MOL0     H 3209   8.623   6.250  11.346  1.2700  1.5245  0.7055
  765MOL0     H 3210   8.668   6.676  11.373 -3.2369  0.6919 -0.0145
  765MOL0     H 3211   8.547   6.663  11.495  0.8449  2.9251 -2.6301
  765MOL0     H 3212   8.705   6.592  11.664 -2.7221  2.5483  0.3073
  765MOL0     H 3213   8.843   6.610  11.564 -0.5910 -2.3898 -1.2522
  765MOL0     H 3214   8.737   6.848  11.504  2.5720 -2.2251  0.5196
  765MOL0     H 3215   8.630   6.833  11.637  0.1126  1.4292  0.0558
  765MOL0     H 3216   8.823   6.801  11.793 -2.0982 -3.5253 -2.0076
  765MOL0     H 3217   8.936   6.829  11.667 -0.4226 -2.2326  2.6211
  765MOL0     H 3218   8.918   7.033  11.776 -1.9177  0.6554  1.6791
  765MOL0     H 3219   8.827   7.066  11.631  0.4360  0.7403 -0.1400
  765MOL0     H 3220   8.618   7.011  11.746 -0.9046  3.7059 -0.9795
  765MOL0     H 3221   8.703   7.014  11.906 -1.2779  2.5651  1.0784
  765MOL0     H 3222   8.786   7.245  11.846 -0.9138  0.7604  0.4426
  765MOL0     H 3223   8.695   7.238  11.691  1.8216 -2.0773 -1.0345
  765MOL0     H 3224   8.591   7.355  11.882  1.1751 -0.1253 -0.1949
  765MOL0     H 3225   8.577   7.209  11.976  0.7347  1.4875 -0.2097
  765MOL0     H 3226   8.425   7.336  11.631  0.7485 -0.5055 -0.1827
  765MOL0     H 3227   8.142   7.393  11.619  0.0117  0.9232  2.9557
  765MOL0     H 3228   8.126   7.218  11.563 -0.5026 -2.3040  0.5666
  765MOL0     H 3229   8.002   7.301  11.821  1.3223 -0.7525 -0.1196
  765MOL0     H 3230   7.985   7.155  11.747  0.2025 -0.1959  0.0052
  765MOL0     H 3231   7.869   7.264  11.553  0.3762 -0.8254  0.5400
  765MOL0     H 3232   7.889   7.423  11.630  1.9371 -0.2797 -1.8822
  765MOL0     H 3233   7.769   7.361  11.825  1.4774 -0.7069 -0.5081
  765MOL0     H 3234   7.743   7.200  11.766  1.9637  0.3307  0.1738
  765MOL0     H 3235   7.557   7.327  11.919  0.0647 -0.7456 -0.5018
  765MOL0     H 3236   7.412   7.267  12.076  3.6537  3.0029  1.0518
  765MOL0     H 3237   7.354   7.429  12.097 -0.8687  0.6701 -0.1506
  765MOL0     H 3238   7.235   7.303  12.045  0.7776 -0.6640 -3.1542
  765MOL0     H 3239   6.924   7.262  11.975 -0.6496 -1.9504  0.4094
  765MOL0     H 3240   6.684   7.201  12.031 -0.9852  0.2817 -0.7865
  765MOL0     H 3241   6.402   7.169  11.676 -2.1531  2.0068  2.2545
  765MOL0     H 3242   6.506   7.037  11.740  0.2506  0.3791  0.9072
  765MOL0     H 3243   6.366   6.951  11.877  1.3894 -0.0627 -0.6254
  765MOL0     H 3244   6.245   7.090  11.884 -1.4248 -1.4254 -0.8241
  765MOL0     H 3245   6.187   6.865  11.750 -1.3416 -0.0020  0.0343
  765MOL0     H 3246   6.296   6.932  11.633 -1.1967 -1.1117 -0.2346
  765MOL0     H 3247   6.042   7.066  11.752 -1.9795 -0.7331 -2.2794
  765MOL0     H 3248   6.158   7.146  11.641 -1.0666  1.4303  2.7478
  765MOL0     H 3249   6.009   6.891  11.597  2.2754 -0.6277  1.3275
  765MOL0     H 3250   6.104   6.961  11.475 -2.1456  0.6047 -1.8013
  765MOL0     H 3251   5.961   7.163  11.453 -1.8518  1.2614  1.4950
  765MOL0     H 3252   5.865   7.022  11.429 -1.9792  1.7906 -0.2373
  765MOL0     H 3253   5.876   7.181  11.678  0.7397 -1.4441  0.4225
  765MOL0     H 3254   5.763   7.037  11.638  0.0886 -0.6782 -0.7342
  765MOL0     H 3255   5.626   7.165  11.497 -2.1973  1.5551  2.5496
  765MOL0     H 3256   5.751   7.289  11.468 -3.7354  2.4260 -0.8309
  765MOL0     H 3257   6.586   7.268  11.615  2.3671 -0.9764 -2.1204
  765MOL0     H 3258   6.812   7.325  11.569 -2.0270  1.9468 -0.2045
  765MOL0     H 3259   7.197   7.406  11.586 -0.2795  1.2078  0.6627
  765MOL0     H 3260   7.443   7.378  11.509  2.9256 -0.4954  0.9782
  765MOL0     H 3261   8.387   6.613  11.367  0.6312  0.8611 -0.8011
  765MOL0     H 3262   8.203   6.501  11.296 -0.1699 -0.4081  0.5678
  765MOL0     H 3263   8.079   6.000  11.144 -0.5738 -1.0277 -0.1311
  765MOL0     H 3264   7.892   5.866  11.056  2.9157  0.1368  0.4126
  765MOL0     H 3265   7.542   6.072  10.852 -0.3021 -1.8175  1.6181
  765MOL0     H 3266   7.692   6.040  10.771 -1.6616 -0.3452 -3.3709
  765MOL0     H 3267   7.449   5.853  10.827  1.7663 -0.6453  1.3762
  765MOL0     H 3268   7.603   5.781  10.763 -1.1920 -0.7885 -0.5699
  765MOL0     H 3269   7.482   5.832  10.557  0.4334 -0.2129  1.1197
  765MOL0     H 3270   7.558   5.987  10.573 -0.8202  1.2994  1.4056
  765MOL0     H 3271   7.382   6.090  10.694 -3.0977 -0.4632  0.7319
  765MOL0     H 3272   7.295   5.939  10.710  0.6580  1.4941  1.6652
  765MOL0     H 3273   7.174   6.064  10.327  2.0987  0.8257 -2.1210
  765MOL0     H 3274   7.673   6.216  10.969  1.0478 -1.6388 -3.8235
  765MOL0     H 3275   7.866   6.357  11.067 -0.8122 -0.1311 -1.7898
  766MOL0     O 3276   6.235  10.542   9.683  0.1263  0.1008 -0.2006
  766MOL0     C 3277   6.199  10.574   9.567  0.1725 -0.4253 -0.6280
  766MOL0     O 3278   6.085  10.541   9.505 -0.6520 -0.1646  0.0521
  766MOL0     C 3279   6.002  10.449   9.560 -0.4695 -0.4762  0.0056
  766MOL0     C 3280   6.002  10.325   9.497 -0.2186  0.1254 -1.4284
  766MOL0     C 3281   5.926  10.214   9.545  0.5530 -1.0013 -0.2412
  766MOL0     C 3282   5.836  10.239   9.656  0.0934  0.8483 -0.1483
  766MOL0     O 3283   5.762  10.130   9.700 -0.2112  0.1514 -0.2117
  766MOL0     C 3284   5.688  10.149   9.825  0.4797 -0.1024  0.4470
  766MOL0     C 3285   5.617  10.016   9.859  0.1816  0.2332 -0.3031
  766MOL0     C 3286   5.524  10.033   9.985 -0.1206 -0.1752 -0.0126
  766MOL0     C 3287   5.389  10.100   9.946  0.0885  0.8360  0.0233
  766MOL0     C 3288   5.292  10.021   9.862 -0.5613  0.2148 -0.7669
  766MOL0     C 3289   5.273   9.879   9.897  0.4063 -0.3723 -0.1939
  766MOL0     C 3290   5.144   9.812   9.834 -0.8911 -0.0541 -0.6562
  766MOL0     C 3291   5.150   9.658   9.833  0.2060 -0.0917  1.0033
  766MOL0     N 3292   5.030   9.585   9.781  0.1637  0.1748  0.5080
  766MOL0     C 3293   4.905   9.606   9.829 -0.3935  0.2217  0.6441
  766MOL0     C 3294   4.824   9.527   9.761 -0.9996 -0.1791 -0.7417
  766MOL0     C 3295   4.680   9.519   9.776  0.2326  0.0359 -0.4848
  766MOL0     C 3296   4.610   9.598   9.660 -0.0530  0.3392 -0.0107
  766MOL0     C 3297   4.631   9.748   9.644  0.5777  0.5158  0.0262
  766MOL0     C 3298   4.534   9.821   9.549  0.9253  0.0090  0.0301
  766MOL0     O 3299   4.403   9.823   9.600 -0.9844 -0.0488  0.4345
  766MOL0     C 3300   4.303   9.827   9.507 -0.4369 -0.1620  0.2499
  766MOL0     C 3301   4.329   9.896   9.385 -0.0849 -0.3982 -1.0512
  766MOL0     C 3302   4.218   9.918   9.301 -0.7637 -0.1266 -0.4222
  766MOL0     C 3303   4.248   9.997   9.176 -0.2087  0.5857 -0.2193
  766MOL0     C 3304   4.090   9.860   9.326 -0.2504  0.3799  0.0165
  766MOL0     C 3305   3.987   9.865   9.230 -0.0078  0.0806  1.1236
  766MOL0     O 3306   3.868   9.915   9.269 -0.1679 -0.1590  0.5435
  766MOL0     C 3307   3.765   9.922   9.182  0.4322  0.0110  0.0105
  766MOL0     C 3308   3.666   9.819   9.185  0.3024  0.1744  0.0263
  766MOL0     C 3309   3.558   9.820   9.102 -0.4953 -1.1117  0.2525
  766MOL0     C 3310   3.539   9.936   9.022  0.9947 -0.7328 -1.4070
  766MOL0     O 3311   3.433   9.939   8.943  0.0108 -0.8036 -0.0561
  766MOL0     C 3312   3.307   9.977   9.003 -0.5779 -0.4518 -0.8608
  766MOL0     C 3313   3.193   9.992   8.898 -0.2096  0.1319  0.1799
  766MOL0     C 3314   3.057  10.007   8.978  0.4029 -0.9945 -0.0882
  766MOL0     C 3315   2.939   9.977   8.891  0.0248  0.0430  0.6517
  766MOL0     C 3316   2.817  10.035   8.960  0.1278  0.5983  1.9109
  766MOL0     C 3317   2.695  10.013   8.876  0.2695  0.2746  0.1348
  766MOL0     C 3318   2.573  10.085   8.930  0.7645 -0.8283 -0.2005
  766MOL0     C 3319   2.468  10.099   8.827 -0.1682 -0.2533 -0.7282
  766MOL0    Cl 3320   2.499  10.211   8.683  0.1590  0.1963 -0.2765
  766MOL0     C 3321   3.624  10.043   9.034  0.1092 -0.2008  0.0019
  766MOL0     C 3322   3.741  10.029   9.101  0.0852 -0.0344  0.3427
  766MOL0     O 3323   4.018   9.826   9.115 -0.5258 -0.5455 -0.4745
  766MOL0     C 3324   4.068   9.781   9.449 -0.3391 -0.0631  0.2605
  766MOL0     C 3325   4.179   9.765   9.529 -0.1630 -0.5749 -0.6762
  766MOL0     N 3326   4.902   9.452   9.672  0.5881 -0.2895 -0.5532
  766MOL0     N 3327   5.023   9.492   9.683  0.5007 -0.0172  0.5576
  766MOL0     C 3328   5.833  10.367   9.716 -1.1026 -0.0998  0.1714
  766MOL0     C 3329   5.913  10.468   9.668 -0.1543  0.5477 -0.2021
  766MOL0     C 3330   6.282  10.670   9.482 -0.6078 -0.6578  0.5098
  766MOL0     C 3331   6.284  10.676   9.337  0.5084 -0.3875  0.6294
  766MOL0     C 3332   6.360  10.762   9.264 -0.0187 -0.1829  0.5259
  766MOL0     C 3333   6.427  10.868   9.333  0.1839 -0.1045 -0.3850
  766MOL0     O 3334   6.514  10.961   9.275 -0.7133 -0.3104 -0.2423
  766MOL0     C 3335   6.487  10.998   9.139  0.1388  0.7555  0.2095
  766MOL0     C 3336   6.534  11.143   9.123 -0.3708  0.5615 -0.1833
  766MOL0     C 3337   6.440  11.246   9.183  1.1202  0.6563 -0.6824
  766MOL0     C 3338   6.434  11.236   9.339 -0.3927 -0.3239  0.3110
  766MOL0     C 3339   6.383  11.365   9.390  0.4172  0.3785  0.1534
  766MOL0     C 3340   6.355  11.467   9.450  0.1325 -0.3343  0.2572
  766MOL0     C 3341   6.420  10.864   9.477  0.0153 -0.0798  0.5916
  766MOL0     C 3342   6.357  10.762   9.543 -0.1761 -0.3809 -0.2615
  766MOL0     H 3343   6.062  10.311   9.408  1.7042  0.7377 -0.2715
  766MOL0     H 3344   5.930  10.117   9.497  0.6017 -0.5887 -1.0874
  766MOL0     H 3345   5.759  10.176   9.904  4.1496  1.2092 -2.9877
  766MOL0     H 3346   5.610  10.225   9.808 -0.8085 -1.5206 -0.1667
  766MOL0     H 3347   5.565   9.968   9.777  1.4705  0.1284 -1.0895
  766MOL0     H 3348   5.697   9.951   9.895  1.1842  0.3749 -2.1543
  766MOL0     H 3349   5.516   9.934  10.030 -0.4888 -0.3036 -0.3504
  766MOL0     H 3350   5.582  10.096  10.053 -0.8425 -0.3978  0.8271
  766MOL0     H 3351   5.337  10.109  10.042 -0.1427 -0.1056 -0.0096
  766MOL0     H 3352   5.401  10.200   9.903 -4.8195  1.9216  0.5176
  766MOL0     H 3353   5.192  10.065   9.867 -0.6149 -0.0507  1.6694
  766MOL0     H 3354   5.328  10.022   9.758 -0.1322  0.3447 -0.6162
  766MOL0     H 3355   5.364   9.828   9.863  0.9948  0.1279  0.6038
  766MOL0     H 3356   5.262   9.876  10.005 -0.5164  1.1552 -0.2294
  766MOL0     H 3357   5.059   9.843   9.896  0.8480  1.4629  1.1247
  766MOL0     H 3358   5.128   9.842   9.730 -0.5116 -1.5333 -1.1599
  766MOL0     H 3359   5.187   9.626   9.930  2.0585 -2.7937 -0.4630
  766MOL0     H 3360   5.236   9.633   9.769  1.7693  1.3595  2.4529
  766MOL0     H 3361   4.876   9.689   9.893  3.9175  0.6504  2.3715
  766MOL0     H 3362   4.654   9.413   9.768  0.1420 -0.1342  1.6116
  766MOL0     H 3363   4.634   9.549   9.871 -0.5450  1.7138 -1.3534
  766MOL0     H 3364   4.502   9.591   9.675  0.0372 -2.6281 -0.1385
  766MOL0     H 3365   4.655   9.553   9.571  1.5553  0.6655  0.6147
  766MOL0     H 3366   4.732   9.764   9.606  1.6150 -1.1401  1.8906
  766MOL0     H 3367   4.620   9.790   9.744 -1.1305  0.3762 -0.0830
  766MOL0     H 3368   4.517   9.759   9.460 -2.7997 -0.0721  0.6556
  766MOL0     H 3369   4.571   9.919   9.517 -1.1576  1.5432  2.0349
  766MOL0     H 3370   4.427   9.929   9.351  0.5893 -2.1796 -0.9649
  766MOL0     H 3371   4.159  10.052   9.142 -0.1027 -0.0741 -1.6398
  766MOL0     H 3372   4.323  10.077   9.184 -0.1974  0.4836  0.7665
  766MOL0     H 3373   4.279   9.937   9.090 -0.8133 -0.3184  0.1793
  766MOL0     H 3374   3.678   9.730   9.246  1.1801 -1.3815 -2.2697
  766MOL0     H 3375   3.484   9.741   9.107 -0.5887 -1.1079 -0.8457
  766MOL0     H 3376   3.282   9.901   9.077  0.2993 -0.9233 -1.0384
  766MOL0     H 3377   3.326  10.071   9.056  1.1793 -1.3360  0.1893
  766MOL0     H 3378   3.202  10.071   8.823  1.2222  1.1408  1.3676
  766MOL0     H 3379   3.191   9.897   8.844 -0.0233  0.2680 -0.0669
  766MOL0     H 3380   3.057  10.107   9.020 -3.3165 -1.4901  1.5131
  766MOL0     H 3381   3.064   9.944   9.068  1.5493  0.0911  0.6170
  766MOL0     H 3382   2.946  10.026   8.794 -3.1236 -0.8098 -0.1089
  766MOL0     H 3383   2.925   9.869   8.875 -1.2335 -0.0090  1.8934
  766MOL0     H 3384   2.832  10.142   8.976  0.0250  0.7664  0.9544
  766MOL0     H 3385   2.796   9.989   9.057  0.7651 -0.2428  1.6680
  766MOL0     H 3386   2.713  10.050   8.774 -3.1433 -1.5444 -1.2889
  766MOL0     H 3387   2.675   9.907   8.859 -0.8996  0.4651  0.2633
  766MOL0     H 3388   2.601  10.185   8.965  0.4248 -0.9021  0.2870
  766MOL0     H 3389   2.532  10.029   9.015 -1.5542  0.4134 -0.4325
  766MOL0     H 3390   2.379  10.138   8.878  2.7678  1.9897  3.1907
  766MOL0     H 3391   2.437  10.001   8.788 -0.0684  0.3053 -2.3056
  766MOL0     H 3392   3.597  10.135   8.984 -0.2925  0.0087  0.5837
  766MOL0     H 3393   3.810  10.112   9.087 -0.6735  0.2485 -2.3465
  766MOL0     H 3394   3.970   9.742   9.475 -1.2839  2.9188  1.5491
  766MOL0     H 3395   4.178   9.710   9.623  1.6312  2.3906  1.2464
  766MOL0     H 3396   5.760  10.397   9.790 -1.0391 -0.5261  0.4076
  766MOL0     H 3397   5.912  10.562   9.722 -2.1166  1.8636 -2.3200
  766MOL0     H 3398   6.229  10.597   9.286 -0.0501 -0.1957  0.9203
  766MOL0     H 3399   6.359  10.756   9.155  1.1553  3.0598  0.2124
  766MOL0     H 3400   6.540  10.928   9.074 -2.0253 -0.6875 -0.1294
  766MOL0     H 3401   6.380  11.000   9.115  0.0904 -0.1617  0.3221
  766MOL0     H 3402   6.552  11.169   9.018 -0.4871 -0.8736 -0.5815
  766MOL0     H 3403   6.636  11.142   9.162  0.5946 -2.8829 -2.4008
  766MOL0     H 3404   6.341  11.239   9.138  0.6259 -0.1979  0.4957
  766MOL0     H 3405   6.487  11.339   9.149  2.7149 -0.2748 -1.1432
  766MOL0     H 3406   6.536  11.216   9.373  0.5454 -0.5201 -2.4210
  766MOL0     H 3407   6.358  11.163   9.369 -0.1931 -0.3224  0.8344
  766MOL0     H 3408   6.328  11.556   9.503  3.3379  1.3190 -0.6694
  766MOL0     H 3409   6.479  10.938   9.530 -0.9854 -0.6471  2.6232
  766MOL0     H 3410   6.352  10.758   9.652  0.6110 -0.4409 -0.2209
  767MOL0     O 3411   7.482   1.628   2.615 -0.8790  0.1870  0.0043
  767MOL0     C 3412   7.409   1.602   2.711 -0.6378  0.8189 -0.2969
  767MOL0     O 3413   7.279   1.564   2.694  0.2004  0.2015 -0.1811
  767MOL0     C 3414   7.233   1.564   2.568 -0.8147  0.3245  0.4051
  767MOL0     C 3415   7.122   1.640   2.545  0.1043  0.7988 -0.1374
  767MOL0     C 3416   7.048   1.617   2.431  0.3466 -0.5886  0.5088
  767MOL0     C 3417   7.091   1.532   2.319  0.1796  0.0406  0.2021
  767MOL0     O 3418   7.014   1.508   2.204 -0.1145  0.5017 -0.2325
  767MOL0     C 3419   7.054   1.401   2.121 -0.5667  0.5958  0.3106
  767MOL0     C 3420   6.957   1.396   2.007 -0.3328  0.7375  0.1701
  767MOL0     C 3421   6.810   1.375   2.050 -0.2076 -0.1922 -0.9989
  767MOL0     C 3422   6.731   1.305   1.936  1.5900 -0.5203 -0.7427
  767MOL0     C 3423   6.573   1.336   1.927 -0.2257  0.2958 -0.8811
  767MOL0     C 3424   6.515   1.229   1.827 -0.3262 -0.0486  0.1087
  767MOL0     C 3425   6.371   1.250   1.807  0.4892 -0.1656 -0.4207
  767MOL0     C 3426   6.279   1.194   1.922  0.1528  0.1464  0.7180
  767MOL0     N 3427   6.147   1.253   1.916  0.2642 -0.8659 -0.9588
  767MOL0     C 3428   6.058   1.287   1.810 -0.4238 -0.5821  0.6755
  767MOL0     C 3429   5.968   1.369   1.863  0.3609  0.4944 -0.6774
  767MOL0     C 3430   5.850   1.431   1.799 -0.0944  0.9241  0.3127
  767MOL0     C 3431   5.872   1.582   1.803 -0.0309  0.1967 -0.7738
  767MOL0     C 3432   5.768   1.660   1.724  0.0882 -0.2390 -0.0950
  767MOL0     C 3433   5.625   1.665   1.772  0.1987 -1.0322  0.2673
  767MOL0     O 3434   5.565   1.541   1.744  0.5749  0.5907 -0.2024
  767MOL0     C 3435   5.445   1.545   1.685  0.2384  0.0972  0.3492
  767MOL0     C 3436   5.426   1.619   1.564  0.7594  0.0349 -0.4502
  767MOL0     C 3437   5.293   1.628   1.508  0.1165 -0.0250 -0.1015
  767MOL0     C 3438   5.286   1.711   1.375 -0.1961  0.3866 -1.1601
  767MOL0     C 3439   5.185   1.553   1.559  0.1221 -0.2153 -0.6634
  767MOL0     C 3440   5.052   1.558   1.507 -0.6804  0.5616 -0.0818
  767MOL0     O 3441   4.985   1.447   1.545 -0.8399 -0.1223 -0.1933
  767MOL0     C 3442   4.864   1.418   1.491 -0.6273 -0.1814  0.2309
  767MOL0     C 3443   4.824   1.451   1.360  0.6404 -0.2269  0.2046
  767MOL0     C 3444   4.702   1.404   1.307  0.0363 -0.6077  0.1948
  767MOL0     C 3445   4.616   1.317   1.383 -0.0632 -0.0281 -0.4082
  767MOL0     O 3446   4.501   1.266   1.331  0.0177  0.2888  0.1712
  767MOL0     C 3447   4.378   1.285   1.400  0.2170  0.2842 -0.4960
  767MOL0     C 3448   4.252   1.247   1.320  0.2017  0.1792  0.3445
  767MOL0     C 3449   4.254   1.103   1.266 -0.1375  0.4250 -0.2192
  767MOL0     C 3450   4.227   0.993   1.374  0.8002  0.3334 -0.0931
  767MOL0     C 3451   4.070   0.987   1.401  0.1543 -0.9367  0.0886
  767MOL0     C 3452   4.017   0.895   1.515 -0.5090  0.7161  0.1175
  767MOL0     C 3453   3.866   0.858   1.502 -0.3038 -0.5741 -0.4925
  767MOL0     C 3454   3.812   0.782   1.615  0.2152 -0.1190 -0.6046
  767MOL0    Cl 3455   3.643   0.752   1.567 -0.2497  0.2229 -0.0626
  767MOL0     C 3456   4.665   1.279   1.506  0.3995  1.1527  0.0281
  767MOL0     C 3457   4.780   1.331   1.571  0.1441  0.2099  0.4890
  767MOL0     O 3458   5.004   1.653   1.453 -0.1805  0.4188  0.0298
  767MOL0     C 3459   5.210   1.475   1.676  0.4653  0.2507  0.8806
  767MOL0     C 3460   5.335   1.481   1.743  0.6063  0.2165 -0.7603
  767MOL0     N 3461   5.989   1.384   2.000 -0.1908 -0.1308  0.1989
  767MOL0     N 3462   6.105   1.324   2.027 -0.1249 -0.8501 -0.1238
  767MOL0     C 3463   7.214   1.473   2.346  0.3701 -0.1856  0.2637
  767MOL0     C 3464   7.283   1.488   2.467  0.5725 -0.7358 -0.6220
  767MOL0     C 3465   7.446   1.633   2.849 -0.4504  0.0005 -0.1051
  767MOL0     C 3466   7.367   1.592   2.961 -0.1378 -0.0628  0.5551
  767MOL0     C 3467   7.405   1.619   3.089 -0.4121 -0.9083  0.3291
  767MOL0     C 3468   7.531   1.681   3.120  0.0748  0.2368  0.0039
  767MOL0     O 3469   7.563   1.698   3.248  0.4670  0.0814 -0.9797
  767MOL0     C 3470   7.694   1.737   3.293 -0.6579 -0.5404 -1.0318
  767MOL0     C 3471   7.806   1.628   3.282 -0.0916 -0.5520 -0.0706
  767MOL0     C 3472   7.756   1.495   3.341  0.0136 -0.4959  0.1206
  767MOL0     C 3473   7.758   1.480   3.490 -0.8161 -0.2221 -0.2843
  767MOL0     C 3474   7.898   1.489   3.533 -0.2166  0.0632 -0.7599
  767MOL0     C 3475   8.021   1.495   3.546  0.1840  0.0250 -0.2286
  767MOL0     C 3476   7.606   1.720   3.010 -0.2919  0.3068  0.9035
  767MOL0     C 3477   7.570   1.693   2.878  0.6419  0.1795  0.4673
  767MOL0     H 3478   7.071   1.702   2.619 -2.5389 -1.0406 -0.2695
  767MOL0     H 3479   6.944   1.645   2.424  0.1651 -1.3099  0.1379
  767MOL0     H 3480   7.160   1.419   2.100 -0.6393 -0.6657 -1.3394
  767MOL0     H 3481   7.055   1.311   2.183  1.3742  0.8933  0.7995
  767MOL0     H 3482   6.965   1.492   1.956  1.0395  1.2256  1.2371
  767MOL0     H 3483   6.992   1.317   1.939  0.0973  0.0379  1.1744
  767MOL0     H 3484   6.800   1.312   2.139 -2.7128  0.3802 -0.7938
  767MOL0     H 3485   6.768   1.473   2.073  0.4658 -0.1834  0.3285
  767MOL0     H 3486   6.775   1.328   1.839  4.3115 -0.0939  0.4972
  767MOL0     H 3487   6.745   1.197   1.951 -0.3750 -0.7980 -0.5637
  767MOL0     H 3488   6.542   1.325   2.031  2.8234  2.8941  0.4673
  767MOL0     H 3489   6.553   1.438   1.891  0.1516  1.0344  0.9070
  767MOL0     H 3490   6.562   1.252   1.731  0.0135  0.6377  0.4312
  767MOL0     H 3491   6.537   1.128   1.862 -1.6885 -0.0359  1.1142
  767MOL0     H 3492   6.359   1.357   1.788  1.9322  0.1581  0.3432
  767MOL0     H 3493   6.344   1.200   1.714  0.5206  1.5492 -1.4029
  767MOL0     H 3494   6.321   1.220   2.019 -1.4195  2.7679  0.7887
  767MOL0     H 3495   6.276   1.085   1.931 -1.2013  0.1975  1.0908
  767MOL0     H 3496   6.060   1.255   1.706 -3.6393 -2.2677  1.0125
  767MOL0     H 3497   5.841   1.402   1.694  0.3188  1.4402  0.1277
  767MOL0     H 3498   5.752   1.404   1.838  0.1855 -1.0824 -0.2721
  767MOL0     H 3499   5.968   1.587   1.750  1.3896 -3.1913  1.1352
  767MOL0     H 3500   5.869   1.624   1.904 -0.9108  2.0791 -1.5457
  767MOL0     H 3501   5.775   1.629   1.620 -2.7930 -2.0578  0.1585
  767MOL0     H 3502   5.808   1.761   1.734  1.8210 -0.9433  0.6759
  767MOL0     H 3503   5.578   1.756   1.734  0.2193 -0.2468  2.0558
  767MOL0     H 3504   5.617   1.688   1.878 -3.5126  2.8881 -0.5805
  767MOL0     H 3505   5.512   1.674   1.527  1.9326 -2.1488 -1.1854
  767MOL0     H 3506   5.209   1.671   1.309 -0.5870 -1.6264  0.4080
  767MOL0     H 3507   5.265   1.817   1.394 -1.0644  0.0615 -0.2110
  767MOL0     H 3508   5.384   1.715   1.327 -0.0193 -1.3328 -0.9744
  767MOL0     H 3509   4.880   1.511   1.289 -0.1987 -0.7945 -0.9891
  767MOL0     H 3510   4.672   1.428   1.205 -2.0729 -0.4795  0.8035
  767MOL0     H 3511   4.391   1.223   1.489 -0.7325  1.8463  0.7879
  767MOL0     H 3512   4.366   1.384   1.446  2.4099  0.8444 -0.9748
  767MOL0     H 3513   4.171   1.257   1.393  1.2903  0.5779  1.5233
  767MOL0     H 3514   4.230   1.318   1.240 -3.5059 -1.7944 -0.6430
  767MOL0     H 3515   4.349   1.079   1.217  0.1922  3.2110 -1.1476
  767MOL0     H 3516   4.192   1.098   1.176  1.3753 -0.5581 -1.2500
  767MOL0     H 3517   4.269   0.895   1.351  0.3119 -0.2806  1.5327
  767MOL0     H 3518   4.272   1.015   1.471 -0.3538 -0.8603  0.7558
  767MOL0     H 3519   4.024   0.956   1.307  0.8256  0.7177 -0.8397
  767MOL0     H 3520   4.036   1.088   1.427  0.3483 -1.1296  1.1337
  767MOL0     H 3521   4.071   0.805   1.486  1.6187  2.0400 -0.1852
  767MOL0     H 3522   4.037   0.930   1.617  2.7303 -2.9576  0.9932
  767MOL0     H 3523   3.859   0.813   1.402  1.5855  1.8758 -1.8124
  767MOL0     H 3524   3.804   0.944   1.477 -1.5091 -1.1430  0.4296
  767MOL0     H 3525   3.811   0.843   1.706 -2.5288 -1.0279  0.0833
  767MOL0     H 3526   3.868   0.689   1.619  0.7852 -0.0033 -3.5799
  767MOL0     H 3527   4.610   1.212   1.571  1.1174 -0.0789 -0.6171
  767MOL0     H 3528   4.811   1.316   1.674  0.5168  2.1152  0.6818
  767MOL0     H 3529   5.126   1.427   1.725 -0.3277  0.0674 -0.6120
  767MOL0     H 3530   5.339   1.420   1.833  0.9106  0.5955 -0.5195
  767MOL0     H 3531   7.266   1.407   2.277  0.4749 -1.4471  1.5190
  767MOL0     H 3532   7.378   1.438   2.482  1.8174  1.3905 -0.9911
  767MOL0     H 3533   7.277   1.533   2.950  1.5591 -2.4174 -2.1724
  767MOL0     H 3534   7.345   1.585   3.172  0.3106  0.6661  1.5577
  767MOL0     H 3535   7.728   1.830   3.246  2.9708 -1.0130  0.3968
  767MOL0     H 3536   7.687   1.763   3.399  0.3147  0.3983 -1.1847
  767MOL0     H 3537   7.901   1.673   3.313 -1.3995  2.5582 -0.1543
  767MOL0     H 3538   7.814   1.596   3.178  0.5265 -0.5841 -0.0181
  767MOL0     H 3539   7.806   1.415   3.285 -0.5482 -0.3255 -0.6510
  767MOL0     H 3540   7.649   1.481   3.320 -0.0001 -1.1696  0.5939
  767MOL0     H 3541   7.716   1.382   3.515 -2.9103  0.2758 -1.5993
  767MOL0     H 3542   7.704   1.569   3.524  1.6906  2.7539 -3.3107
  767MOL0     H 3543   8.127   1.490   3.562  0.2364 -2.1633 -1.0148
  767MOL0     H 3544   7.699   1.775   3.027  1.8490 -2.9086  0.3782
  767MOL0     H 3545   7.642   1.723   2.803  0.8623 -1.2291  0.0776
  768MOL0     O 3546   4.903   8.620   0.584 -0.9080 -0.8290  0.2623
  768MOL0     C 3547   4.958   8.731   0.616 -0.0895  0.6626 -0.2962
  768MOL0     O 3548   4.889   8.847   0.639 -0.6408  0.9999 -0.2784
  768MOL0     C 3549   4.751   8.855   0.627  0.2128 -0.9463  0.4940
  768MOL0     C 3550   4.679   8.906   0.729  0.1609  0.2383 -0.4543
  768MOL0     C 3551   4.541   8.924   0.721 -0.8670  0.3372  0.4140
  768MOL0     C 3552   4.472   8.875   0.609 -0.0221  1.3961 -0.3600
  768MOL0     O 3553   4.338   8.864   0.597 -0.3378  0.4850  0.6725
  768MOL0     C 3554   4.272   8.811   0.707  0.3765 -0.2434 -0.0507
  768MOL0     C 3555   4.141   8.727   0.680  0.1424 -0.8137 -0.0977
  768MOL0     C 3556   4.020   8.804   0.623 -0.8628 -0.1807 -0.2427
  768MOL0     C 3557   3.913   8.701   0.585  0.5170 -0.5245  0.8067
  768MOL0     C 3558   3.782   8.773   0.551  0.2724  0.1421 -0.3268
  768MOL0     C 3559   3.703   8.670   0.474 -0.7147 -0.1468  0.7667
  768MOL0     C 3560   3.558   8.710   0.460  0.0005  0.1737 -0.3061
  768MOL0     C 3561   3.485   8.720   0.592 -0.8187 -0.1685 -0.1978
  768MOL0     N 3562   3.340   8.722   0.579 -0.3750 -0.2880 -0.6436
  768MOL0     C 3563   3.250   8.731   0.684 -0.2417 -0.2662  0.0093
  768MOL0     C 3564   3.133   8.721   0.627 -0.1717 -0.7511  0.7036
  768MOL0     C 3565   3.013   8.716   0.714  0.8201 -0.0231 -0.6401
  768MOL0     C 3566   2.878   8.699   0.643  0.0746 -0.2361  0.2655
  768MOL0     C 3567   2.772   8.656   0.740  0.3265  0.2498  0.8936
  768MOL0     C 3568   2.640   8.630   0.669 -0.4242  0.3276 -0.0365
  768MOL0     O 3569   2.541   8.576   0.758  0.2236  0.0453 -0.2347
  768MOL0     C 3570   2.406   8.587   0.727 -0.0399  0.2222  0.5249
  768MOL0     C 3571   2.317   8.576   0.829  0.0812 -0.6308  0.9630
  768MOL0     C 3572   2.184   8.578   0.799  0.0422  0.0314 -0.1664
  768MOL0     C 3573   2.093   8.567   0.915  0.4661 -0.8764 -0.1587
  768MOL0     C 3574   2.137   8.603   0.662 -0.9375  0.7715  0.5317
  768MOL0     C 3575   1.994   8.592   0.619  0.0511 -0.8366  0.3456
  768MOL0     O 3576   1.918   8.487   0.670 -0.4266 -0.6826  0.2530
  768MOL0     C 3577   1.781   8.489   0.669 -0.1742 -0.1867 -0.3203
  768MOL0     C 3578   1.712   8.578   0.755 -0.9927  0.2941 -0.2472
  768MOL0     C 3579   1.576   8.587   0.748  0.0680  0.5796 -0.2844
  768MOL0     C 3580   1.506   8.505   0.666  0.7905 -0.8605 -0.3357
  768MOL0     O 3581   1.371   8.516   0.674  0.4174 -0.1723 -0.1583
  768MOL0     C 3582   1.284   8.408   0.632  0.0601  0.7439  0.5692
  768MOL0     C 3583   1.169   8.390   0.731 -0.5015  0.6513 -0.3139
  768MOL0     C 3584   1.068   8.281   0.683 -0.3159 -0.1576  0.3552
  768MOL0     C 3585   0.979   8.348   0.579  0.2304 -0.4074  0.0102
  768MOL0     C 3586   0.855   8.269   0.548  0.6964 -0.2496 -0.0644
  768MOL0     C 3587   0.752   8.366   0.463 -0.6350 -0.0236  0.9741
  768MOL0     C 3588   0.618   8.295   0.438 -0.1868 -0.8336  0.1146
  768MOL0     C 3589   0.505   8.394   0.423 -0.0423 -0.7895  0.1058
  768MOL0    Cl 3590   0.368   8.300   0.355 -0.3097  0.1626  0.1503
  768MOL0     C 3591   1.574   8.427   0.582 -0.2456 -0.2928  0.7371
  768MOL0     C 3592   1.714   8.421   0.575 -0.4592  0.4668 -0.6044
  768MOL0     O 3593   1.954   8.684   0.547 -0.1821  0.3859 -0.0138
  768MOL0     C 3594   2.231   8.613   0.564 -0.5777 -0.3126  0.2624
  768MOL0     C 3595   2.364   8.600   0.596 -0.7844  0.5483  0.0945
  768MOL0     N 3596   3.145   8.705   0.492  0.2589 -0.1371 -0.2889
  768MOL0     N 3597   3.274   8.703   0.458  0.0492  0.1268 -0.9829
  768MOL0     C 3598   4.542   8.822   0.506  0.1934  0.4790 -0.0901
  768MOL0     C 3599   4.683   8.817   0.515 -0.2209 -0.8548 -0.9086
  768MOL0     C 3600   5.102   8.740   0.600 -0.4720 -0.4339  0.2792
  768MOL0     C 3601   5.183   8.633   0.641 -0.1893 -0.5355 -0.5002
  768MOL0     C 3602   5.319   8.635   0.624 -0.3010 -0.1605 -0.4714
  768MOL0     C 3603   5.378   8.735   0.549  0.3431  0.1211 -0.7186
  768MOL0     O 3604   5.503   8.714   0.523 -0.5199  0.2700  0.0624
  768MOL0     C 3605   5.551   8.717   0.387 -0.1891  0.3548  0.1869
  768MOL0     C 3606   5.672   8.625   0.373 -0.2920  0.2432  0.3745
  768MOL0     C 3607   5.696   8.590   0.215  0.1294  0.3095 -0.0003
  768MOL0     C 3608   5.803   8.683   0.154 -0.5493 -0.5065 -0.1268
  768MOL0     C 3609   5.791   8.704   0.010  0.1160  0.3898  0.7625
  768MOL0     C 3610   5.792   8.724  -0.112  0.6090  0.4682  0.9755
  768MOL0     C 3611   5.302   8.852   0.517 -0.3867  1.2485  0.4736
  768MOL0     C 3612   5.162   8.850   0.538 -1.1143 -0.0025 -0.0221
  768MOL0     H 3613   4.747   8.940   0.808  2.3109 -2.9147 -0.7446
  768MOL0     H 3614   4.501   8.973   0.809 -1.1653 -0.0458  0.4895
  768MOL0     H 3615   4.340   8.747   0.764  0.3766 -0.5812 -0.4289
  768MOL0     H 3616   4.252   8.899   0.769  0.4289  0.3904 -0.9136
  768MOL0     H 3617   4.169   8.643   0.616  0.2778 -0.6142 -0.2998
  768MOL0     H 3618   4.122   8.696   0.784  0.7099 -0.7634  0.0265
  768MOL0     H 3619   3.971   8.868   0.697 -1.0401 -0.3600 -0.2019
  768MOL0     H 3620   4.031   8.866   0.533 -2.4288  0.1788 -0.2255
  768MOL0     H 3621   3.960   8.639   0.508  3.7673 -0.4930  2.5758
  768MOL0     H 3622   3.902   8.633   0.670 -2.2580 -0.6042  0.4811
  768MOL0     H 3623   3.746   8.801   0.650 -0.2454 -0.5940 -0.3046
  768MOL0     H 3624   3.804   8.864   0.495 -2.1100 -0.0039 -1.5943
  768MOL0     H 3625   3.746   8.644   0.377  0.4370  4.0368 -0.0275
  768MOL0     H 3626   3.702   8.582   0.539 -5.2828  0.6749  2.1896
  768MOL0     H 3627   3.554   8.805   0.406 -0.8782  0.9579  1.0948
  768MOL0     H 3628   3.516   8.633   0.394  0.7917  0.2082 -0.8675
  768MOL0     H 3629   3.516   8.812   0.642 -0.5385 -1.8063  2.8459
  768MOL0     H 3630   3.526   8.633   0.644  0.7039  0.6189 -0.0260
  768MOL0     H 3631   3.275   8.723   0.789  1.8034  0.5089 -0.3761
  768MOL0     H 3632   3.021   8.634   0.786 -1.1109  0.7492  0.5364
  768MOL0     H 3633   3.025   8.805   0.777  0.3531  0.6792 -1.5372
  768MOL0     H 3634   2.873   8.639   0.551 -0.0753  1.8299 -1.1563
  768MOL0     H 3635   2.846   8.800   0.616  0.2448  0.0453  1.0930
  768MOL0     H 3636   2.761   8.734   0.816  1.2293  1.2517  0.0379
  768MOL0     H 3637   2.791   8.556   0.781  1.8734  1.1609  2.5793
  768MOL0     H 3638   2.658   8.549   0.597  0.1851  0.8918 -0.5366
  768MOL0     H 3639   2.616   8.723   0.617 -0.4779  1.1999  1.5114
  768MOL0     H 3640   2.343   8.548   0.930  0.6221 -2.2243  0.4119
  768MOL0     H 3641   2.043   8.664   0.927  1.9431  0.0434 -1.0453
  768MOL0     H 3642   2.023   8.486   0.896  0.0971 -0.4995 -0.4316
  768MOL0     H 3643   2.144   8.547   1.009 -2.6680 -0.1647  1.8204
  768MOL0     H 3644   1.771   8.647   0.815 -0.6910  0.3984 -0.6562
  768MOL0     H 3645   1.518   8.656   0.808 -2.2865 -1.7318  0.3443
  768MOL0     H 3646   1.263   8.428   0.527  0.0360 -0.9573  0.2287
  768MOL0     H 3647   1.342   8.315   0.640  0.9292  1.2404  0.2296
  768MOL0     H 3648   1.217   8.346   0.819  3.0346 -1.3214 -2.9450
  768MOL0     H 3649   1.121   8.485   0.754 -1.5764  1.0243 -3.5929
  768MOL0     H 3650   1.014   8.245   0.771  0.8270  1.0407  1.5910
  768MOL0     H 3651   1.127   8.195   0.649 -0.1028 -0.2935  1.0467
  768MOL0     H 3652   0.949   8.445   0.618  2.0208  0.1752  0.0438
  768MOL0     H 3653   1.041   8.373   0.493  2.2999  0.0960  1.5399
  768MOL0     H 3654   0.808   8.242   0.643 -0.1802 -2.2344 -0.9745
  768MOL0     H 3655   0.877   8.180   0.488  0.0343 -0.9700  0.7312
  768MOL0     H 3656   0.736   8.458   0.520 -1.7967  0.4770 -0.1405
  768MOL0     H 3657   0.800   8.384   0.367  0.6964  0.0929  1.6337
  768MOL0     H 3658   0.593   8.240   0.528 -3.4255  0.0933 -0.0811
  768MOL0     H 3659   0.629   8.230   0.351  0.4179 -1.3999  0.6143
  768MOL0     H 3660   0.525   8.474   0.352 -0.6884 -0.8561 -0.1614
  768MOL0     H 3661   0.487   8.440   0.520  2.5216  0.2118  0.1968
  768MOL0     H 3662   1.508   8.368   0.519  0.8010  0.4196 -1.0899
  768MOL0     H 3663   1.772   8.373   0.497 -1.3331 -0.3200 -0.7845
  768MOL0     H 3664   2.197   8.619   0.461  3.4769  1.6205 -1.1672
  768MOL0     H 3665   2.433   8.598   0.512  3.1423 -3.4215  2.9782
  768MOL0     H 3666   4.500   8.775   0.417  0.2882 -1.6963  0.9564
  768MOL0     H 3667   4.743   8.777   0.434  2.7450  0.0453  0.6891
  768MOL0     H 3668   5.137   8.546   0.686 -0.8455  0.0024 -0.1140
  768MOL0     H 3669   5.372   8.545   0.652 -0.1669 -0.3205 -1.2352
  768MOL0     H 3670   5.469   8.693   0.318 -0.5389 -2.3113  1.4218
  768MOL0     H 3671   5.570   8.824   0.375 -2.7474  0.9913  1.0456
  768MOL0     H 3672   5.655   8.538   0.438  1.0898  0.2769  0.8030
  768MOL0     H 3673   5.752   8.682   0.422  0.3996  0.6178 -1.1347
  768MOL0     H 3674   5.602   8.582   0.161 -0.5089 -0.6020  1.2169
  768MOL0     H 3675   5.730   8.487   0.226  4.3834  0.9341 -4.0472
  768MOL0     H 3676   5.899   8.633   0.172 -0.6470  0.0591  2.3090
  768MOL0     H 3677   5.808   8.778   0.208 -2.7729 -1.0261  1.1178
  768MOL0     H 3678   5.786   8.720  -0.219  2.1017 -0.7038  0.9046
  768MOL0     H 3679   5.356   8.930   0.465  0.2017  0.7213  0.2827
  768MOL0     H 3680   5.107   8.927   0.486 -0.5683  1.3114  1.2802
  769MOL0     O 3681  10.491   6.741   5.295 -0.3742 -0.3675 -0.5189
  769MOL0     C 3682  10.468   6.729   5.175  0.5350 -0.3492 -0.6211
  769MOL0     O 3683  10.357   6.767   5.114 -0.0141  0.5816  0.1022
  769MOL0     C 3684  10.254   6.825   5.178 -1.0430 -0.1308  0.1620
  769MOL0     C 3685  10.266   6.936   5.261 -0.1351  0.6513  0.3416
  769MOL0     C 3686  10.149   7.000   5.306  0.8179 -1.4994  0.7171
  769MOL0     C 3687  10.018   6.952   5.275 -0.7551  0.0057 -0.2630
  769MOL0     O 3688   9.915   7.020   5.329  0.0324  0.3984 -0.5188
  769MOL0     C 3689   9.779   6.974   5.305 -0.0212  0.5386 -0.0721
  769MOL0     C 3690   9.718   7.044   5.179 -0.4628  0.2356  0.1174
  769MOL0     C 3691   9.568   7.011   5.175  0.0868  0.2878  0.0177
  769MOL0     C 3692   9.509   7.092   5.067 -0.5229 -0.0447  0.2191
  769MOL0     C 3693   9.371   7.042   5.042 -0.2858 -0.5631  0.9594
  769MOL0     C 3694   9.275   7.059   5.172  0.6221  0.0352  0.0072
  769MOL0     C 3695   9.254   6.931   5.250 -0.6541  0.2663 -0.0455
  769MOL0     C 3696   9.267   6.797   5.179  0.4449 -0.6058 -0.8117
  769MOL0     N 3697   9.196   6.687   5.248 -0.6165  0.2092 -0.2488
  769MOL0     C 3698   9.252   6.607   5.345  0.7299  0.3122  0.0361
  769MOL0     C 3699   9.164   6.509   5.362 -0.2103  0.5893  0.1018
  769MOL0     C 3700   9.171   6.382   5.447 -0.2053  0.2946 -0.0197
  769MOL0     C 3701   9.242   6.275   5.367  0.8078  0.1337 -0.7674
  769MOL0     C 3702   9.271   6.148   5.451 -0.0269 -0.4019  0.4842
  769MOL0     C 3703   9.407   6.146   5.523  0.5990  0.2526  0.1456
  769MOL0     O 3704   9.413   6.026   5.595 -0.1280  0.4392  0.1776
  769MOL0     C 3705   9.530   6.009   5.672  0.0830  0.5080  0.6995
  769MOL0     C 3706   9.522   5.954   5.799  0.1312 -0.6462  0.0526
  769MOL0     C 3707   9.639   5.937   5.883 -0.0937 -0.8046  0.2590
  769MOL0     C 3708   9.617   5.921   6.034  1.5839 -0.0074 -0.0098
  769MOL0     C 3709   9.772   5.959   5.824  0.1948  0.2729  0.4455
  769MOL0     C 3710   9.891   5.927   5.892 -0.6181  0.4907 -0.2513
  769MOL0     O 3711   9.908   5.975   6.022 -0.3002  0.7450  0.5273
  769MOL0     C 3712  10.029   5.941   6.080  0.3723 -0.1279 -0.1950
  769MOL0     C 3713  10.140   6.014   6.048 -1.2739  0.0885 -0.9065
  769MOL0     C 3714  10.268   5.982   6.100  0.8808 -0.4069  0.0130
  769MOL0     C 3715  10.283   5.872   6.181  0.2208  0.2826  0.3133
  769MOL0     O 3716  10.410   5.861   6.215  0.0572 -0.1234 -0.7042
  769MOL0     C 3717  10.451   5.749   6.296 -0.2999 -0.1937 -0.3886
  769MOL0     C 3718  10.597   5.758   6.332  0.1385  0.0910 -0.7688
  769MOL0     C 3719  10.694   5.761   6.214  0.1637 -0.4867 -0.0635
  769MOL0     C 3720  10.841   5.745   6.249  0.3175 -0.2735  0.6832
  769MOL0     C 3721  10.876   5.598   6.291 -0.4234 -0.3605 -0.3649
  769MOL0     C 3722  11.025   5.585   6.323 -0.2063 -0.0222 -0.2362
  769MOL0     C 3723  11.054   5.630   6.465 -0.3309 -0.0647 -0.1973
  769MOL0     C 3724  11.206   5.618   6.480  0.1461  1.0876  0.6487
  769MOL0    Cl 3725  11.287   5.760   6.402 -0.0988 -0.0634  0.0144
  769MOL0     C 3726  10.172   5.780   6.193 -0.5325 -0.4298  0.4407
  769MOL0     C 3727  10.042   5.822   6.154 -0.4082 -0.3244 -0.6742
  769MOL0     O 3728   9.977   5.858   5.824  1.1328 -0.1762 -0.8323
  769MOL0     C 3729   9.776   5.998   5.684 -0.5620  0.3797  0.5513
  769MOL0     C 3730   9.660   6.029   5.611  0.5095 -0.1073  0.6544
  769MOL0     N 3731   9.056   6.534   5.281 -0.9088  0.1441 -0.5484
  769MOL0     N 3732   9.069   6.638   5.217 -0.4368 -0.1579 -0.5576
  769MOL0     C 3733  10.017   6.829   5.201 -0.4799  0.0877 -0.0250
  769MOL0     C 3734  10.128   6.774   5.147 -1.2125 -0.5023 -0.4142
  769MOL0     C 3735  10.580   6.685   5.085  0.1989 -0.1242 -0.3371
  769MOL0     C 3736  10.690   6.625   5.138  0.4062 -0.2093  0.3778
  769MOL0     C 3737  10.798   6.574   5.056  0.5441  0.3871 -0.2361
  769MOL0     C 3738  10.790   6.589   4.913  0.0503 -0.2056 -0.2809
  769MOL0     O 3739  10.880   6.531   4.816 -0.5389  0.0509  0.5713
  769MOL0     C 3740  10.996   6.465   4.851 -0.3298  0.9240  0.3638
  769MOL0     C 3741  11.104   6.563   4.866 -0.4296 -0.8693 -1.0499
  769MOL0     C 3742  11.221   6.495   4.951 -0.3229 -0.0140 -0.1735
  769MOL0     C 3743  11.204   6.484   5.101 -0.0336 -0.0644 -0.2921
  769MOL0     C 3744  11.128   6.362   5.149 -0.3001 -0.2939 -0.1219
  769MOL0     C 3745  11.048   6.281   5.193  0.4386  0.6573 -0.1323
  769MOL0     C 3746  10.673   6.645   4.860 -0.1393 -1.3379 -0.2070
  769MOL0     C 3747  10.569   6.679   4.948 -0.9579 -0.8307  0.1989
  769MOL0     H 3748  10.367   6.971   5.274  0.4887 -1.3840  1.4278
  769MOL0     H 3749  10.150   7.084   5.374 -1.5750 -0.1100 -0.8312
  769MOL0     H 3750   9.772   6.867   5.289 -1.0159  0.5315  0.3161
  769MOL0     H 3751   9.712   6.996   5.390 -1.6449  1.3675 -1.5002
  769MOL0     H 3752   9.737   7.151   5.177  0.0575  0.1373 -0.3345
  769MOL0     H 3753   9.772   7.011   5.090  3.0780  4.1219  0.5165
  769MOL0     H 3754   9.559   6.906   5.147  1.8022  0.3213 -0.7765
  769MOL0     H 3755   9.520   7.032   5.271 -0.0405 -0.7810  0.1927
  769MOL0     H 3756   9.510   7.199   5.092 -0.0619  0.1334 -0.5367
  769MOL0     H 3757   9.562   7.070   4.974 -1.8888 -0.2727 -0.5212
  769MOL0     H 3758   9.328   7.111   4.969  2.5764  1.8928  1.4292
  769MOL0     H 3759   9.371   6.943   4.994 -0.0938  0.5742 -1.5114
  769MOL0     H 3760   9.310   7.143   5.233  0.8806  0.7481 -1.0958
  769MOL0     H 3761   9.180   7.098   5.134  1.7502  0.8585 -2.1357
  769MOL0     H 3762   9.334   6.931   5.324 -0.1067  0.0813 -0.6321
  769MOL0     H 3763   9.155   6.931   5.296 -0.5490  1.3603  0.2015
  769MOL0     H 3764   9.375   6.778   5.171  0.9063  0.2446  2.0981
  769MOL0     H 3765   9.216   6.812   5.084 -2.3230  0.7916  0.7686
  769MOL0     H 3766   9.346   6.630   5.395  1.3211 -0.1575 -0.8302
  769MOL0     H 3767   9.229   6.403   5.537 -0.3350 -0.3943  0.2346
  769MOL0     H 3768   9.072   6.346   5.477  0.0582  1.7190  2.9200
  769MOL0     H 3769   9.335   6.314   5.325  1.0455  0.7135  0.2796
  769MOL0     H 3770   9.172   6.253   5.286  1.2006  0.6298 -1.2467
  769MOL0     H 3771   9.265   6.054   5.395  1.8641 -0.9056  1.0523
  769MOL0     H 3772   9.192   6.135   5.525 -0.5209  1.6261  0.3698
  769MOL0     H 3773   9.404   6.234   5.588  0.4619 -0.6746  1.4364
  769MOL0     H 3774   9.490   6.146   5.452  2.8066 -2.2514  2.4908
  769MOL0     H 3775   9.427   5.930   5.845  1.0724  1.4404  3.4589
  769MOL0     H 3776   9.687   5.974   6.100  1.0861  0.2161  0.3417
  769MOL0     H 3777   9.523   5.966   6.067 -0.1018 -0.8536 -3.2489
  769MOL0     H 3778   9.616   5.813   6.054  2.8538 -0.0309  0.0446
  769MOL0     H 3779  10.132   6.105   5.989 -0.2564  0.6256 -0.2446
  769MOL0     H 3780  10.352   6.048   6.083  0.0031  1.0342  1.0247
  769MOL0     H 3781  10.389   5.740   6.386 -2.7215 -0.2101 -1.9600
  769MOL0     H 3782  10.449   5.660   6.233 -0.7718 -0.5704  0.1409
  769MOL0     H 3783  10.612   5.831   6.412  2.8583 -0.5249 -0.6119
  769MOL0     H 3784  10.624   5.668   6.389  1.1963 -0.0240 -1.4302
  769MOL0     H 3785  10.682   5.854   6.158 -1.4797  0.0582  1.1100
  769MOL0     H 3786  10.678   5.676   6.147  0.8468  0.4356 -1.4363
  769MOL0     H 3787  10.903   5.778   6.165 -1.0450  5.1643  1.4635
  769MOL0     H 3788  10.850   5.806   6.340 -2.8526 -1.5955  2.0306
  769MOL0     H 3789  10.862   5.538   6.201 -0.3129 -0.2206 -0.4757
  769MOL0     H 3790  10.814   5.563   6.375 -1.3228  3.8211  0.9665
  769MOL0     H 3791  11.054   5.480   6.310 -0.8974 -0.2039 -0.3777
  769MOL0     H 3792  11.088   5.638   6.250  1.1211 -1.3663 -0.1111
  769MOL0     H 3793  11.009   5.560   6.536  0.0805 -0.5580 -0.4150
  769MOL0     H 3794  11.016   5.729   6.489  1.7174  0.2047  2.3759
  769MOL0     H 3795  11.239   5.524   6.436 -1.2282  0.5695  0.6732
  769MOL0     H 3796  11.229   5.613   6.586 -0.9219  1.4398  0.9105
  769MOL0     H 3797  10.169   5.689   6.252 -2.1601 -0.3497  0.5267
  769MOL0     H 3798   9.957   5.756   6.170  1.2795 -1.9078  2.7296
  769MOL0     H 3799   9.873   6.002   5.636  0.5348 -2.3927  2.2686
  769MOL0     H 3800   9.671   6.072   5.512 -1.0797  0.8290  0.8475
  769MOL0     H 3801   9.928   6.769   5.182 -0.8249  1.0239 -1.4645
  769MOL0     H 3802  10.135   6.686   5.084  1.1829 -1.2569  0.7681
  769MOL0     H 3803  10.698   6.610   5.245 -1.4558 -2.2631  0.3059
  769MOL0     H 3804  10.883   6.521   5.099  0.5999 -0.1316 -0.9710
  769MOL0     H 3805  10.982   6.401   4.939  0.4947 -1.2311 -0.9841
  769MOL0     H 3806  11.018   6.395   4.770  2.3762  2.5225 -0.4187
  769MOL0     H 3807  11.077   6.655   4.919  0.4900 -1.2182  0.0690
  769MOL0     H 3808  11.135   6.611   4.772  0.2022  0.1686 -0.3290
  769MOL0     H 3809  11.301   6.568   4.934  0.7520 -1.0905  0.0471
  769MOL0     H 3810  11.260   6.411   4.892 -0.6541 -0.7609  0.6524
  769MOL0     H 3811  11.145   6.569   5.139 -1.1334 -1.2468  0.7286
  769MOL0     H 3812  11.302   6.485   5.149 -0.4571 -3.6468  0.9140
  769MOL0     H 3813  10.982   6.207   5.235  0.3139  0.0604 -1.3526
  769MOL0     H 3814  10.656   6.662   4.754  3.4613 -0.8739 -0.8412
  769MOL0     H 3815  10.473   6.706   4.906 -0.2702 -0.8099 -1.4608
  770MOL0     O 3816   4.150   1.636   8.623 -0.3113 -0.4393 -0.0289
  770MOL0     C 3817   4.189   1.516   8.638 -0.4103  0.4768 -0.2740
  770MOL0     O 3818   4.100   1.404   8.623 -0.3663  0.2006 -0.9509
  770MOL0     C 3819   3.964   1.422   8.620  0.2028 -0.0560 -0.4778
  770MOL0     C 3820   3.886   1.339   8.539  0.0344  0.4893  0.4350
  770MOL0     C 3821   3.743   1.346   8.547  0.7794  0.3693 -0.4356
  770MOL0     C 3822   3.684   1.442   8.627 -0.7146  0.3153 -0.2946
  770MOL0     O 3823   3.551   1.472   8.631 -0.5331  0.4791 -0.3650
  770MOL0     C 3824   3.460   1.398   8.550  0.2796 -0.4328 -0.2619
  770MOL0     C 3825   3.320   1.467   8.571  0.2543 -0.6829  0.1456
  770MOL0     C 3826   3.300   1.608   8.538 -0.1728 -0.8239 -1.1802
  770MOL0     C 3827   3.310   1.649   8.389 -0.8338  0.6211  0.2516
  770MOL0     C 3828   3.288   1.805   8.372  0.0255 -0.7259  0.4523
  770MOL0     C 3829   3.234   1.830   8.229 -0.8615  0.8489 -1.1725
  770MOL0     C 3830   3.176   1.963   8.221  0.6123 -0.3385 -0.3496
  770MOL0     C 3831   3.102   1.986   8.086  0.6031 -0.9800 -0.0469
  770MOL0     N 3832   2.975   1.915   8.092  0.0708  0.5307 -0.3899
  770MOL0     C 3833   2.883   1.950   8.189  0.6344 -1.1298 -0.3586
  770MOL0     C 3834   2.779   1.873   8.160  0.5474  0.4574  0.3224
  770MOL0     C 3835   2.649   1.872   8.234  0.0139 -0.2130  0.0869
  770MOL0     C 3836   2.550   1.779   8.161 -0.5969 -0.3088  0.0881
  770MOL0     C 3837   2.418   1.774   8.235  0.1408  0.1996 -0.4831
  770MOL0     C 3838   2.298   1.718   8.159 -0.3291  0.5600  0.1939
  770MOL0     O 3839   2.189   1.742   8.252 -0.5061  0.3807  0.7870
  770MOL0     C 3840   2.061   1.764   8.203  0.8401  0.0739  0.0631
  770MOL0     C 3841   1.966   1.837   8.280  0.3445  0.1631 -0.3523
  770MOL0     C 3842   1.838   1.858   8.233  1.0636  0.1760  0.8284
  770MOL0     C 3843   1.744   1.933   8.322  0.2032 -0.5093 -0.3635
  770MOL0     C 3844   1.791   1.802   8.104  0.3983 -0.1503 -0.0839
  770MOL0     C 3845   1.655   1.827   8.048  0.2171 -1.1210 -0.3768
  770MOL0     O 3846   1.605   1.953   8.059  0.8375  0.6821  0.1807
  770MOL0     C 3847   1.494   1.976   7.992  0.8242 -0.6787  1.1567
  770MOL0     C 3848   1.372   1.982   8.065 -0.0763  0.9541 -0.5876
  770MOL0     C 3849   1.254   2.025   7.993 -0.1724  0.0353 -0.7498
  770MOL0     C 3850   1.257   2.068   7.858  0.1972 -1.0612 -0.1062
  770MOL0     O 3851   1.136   2.098   7.802 -0.3831 -0.2131  0.2104
  770MOL0     C 3852   1.134   2.104   7.659  0.0266  0.1164  0.4910
  770MOL0     C 3853   0.994   2.106   7.601  0.3927  0.0298  0.3821
  770MOL0     C 3854   0.915   2.234   7.615  0.0184  0.0275  0.0643
  770MOL0     C 3855   0.775   2.212   7.555  0.6809 -0.5237  0.8762
  770MOL0     C 3856   0.701   2.347   7.573  0.3033  0.6088  0.3678
  770MOL0     C 3857   0.552   2.329   7.563  0.1564 -0.2085  0.1404
  770MOL0     C 3858   0.487   2.463   7.574  0.0175  0.0783  0.1986
  770MOL0     C 3859   0.333   2.467   7.540 -0.7937  1.0128 -0.3635
  770MOL0    Cl 3860   0.248   2.369   7.667  0.0102  0.0777  0.0033
  770MOL0     C 3861   1.382   2.069   7.790 -0.2931  0.6392  0.4019
  770MOL0     C 3862   1.496   2.020   7.862 -0.5682  0.3802 -0.1768
  770MOL0     O 3863   1.598   1.735   8.001  0.5254  0.8689  0.5434
  770MOL0     C 3864   1.887   1.740   8.021  0.4146  0.7789 -0.1120
  770MOL0     C 3865   2.016   1.710   8.080 -0.0109  0.3189  0.4226
  770MOL0     N 3866   2.809   1.791   8.055 -0.5456 -0.5072  0.2164
  770MOL0     N 3867   2.926   1.824   8.010  0.0671 -0.0993  0.5616
  770MOL0     C 3868   3.765   1.521   8.704 -1.1949  0.5365 -0.2988
  770MOL0     C 3869   3.900   1.507   8.709  0.1420  0.2684  0.4789
  770MOL0     C 3870   4.332   1.475   8.673  0.2302 -0.5690 -0.6233
  770MOL0     C 3871   4.421   1.583   8.676 -0.5248 -0.2922  0.4254
  770MOL0     C 3872   4.552   1.565   8.720 -0.4207 -0.7653  0.0946
  770MOL0     C 3873   4.593   1.432   8.742 -0.3693  0.3012 -0.5236
  770MOL0     O 3874   4.731   1.414   8.759 -0.4330 -0.1368 -0.0405
  770MOL0     C 3875   4.786   1.279   8.781 -0.1500 -0.0169 -0.1846
  770MOL0     C 3876   4.933   1.305   8.809  0.2049  1.1215 -0.1439
  770MOL0     C 3877   5.013   1.179   8.855 -0.8518  0.0667 -0.2454
  770MOL0     C 3878   5.166   1.189   8.825  0.5521  0.0949 -0.0707
  770MOL0     C 3879   5.235   1.263   8.929 -0.2261 -0.0204  0.0777
  770MOL0     C 3880   5.285   1.316   9.022  0.8294 -0.4704  0.0934
  770MOL0     C 3881   4.505   1.321   8.727  0.8360  0.0584  0.5015
  770MOL0     C 3882   4.368   1.348   8.702  0.0299 -0.3053 -0.4430
  770MOL0     H 3883   3.945   1.278   8.471  0.4056 -0.1168  1.2854
  770MOL0     H 3884   3.701   1.287   8.466  0.6850  0.9287 -0.8022
  770MOL0     H 3885   3.482   1.412   8.444  2.3862  1.2714  0.3345
  770MOL0     H 3886   3.467   1.293   8.582  0.1590 -0.1319  0.8048
  770MOL0     H 3887   3.247   1.415   8.507  1.2830 -0.2572 -1.4269
  770MOL0     H 3888   3.281   1.451   8.672  0.3028  0.5493  0.3743
  770MOL0     H 3889   3.198   1.636   8.565  0.4476 -0.0565  0.5070
  770MOL0     H 3890   3.361   1.673   8.601 -0.7749 -2.2478  0.9933
  770MOL0     H 3891   3.413   1.625   8.363 -0.8798  1.6367 -0.9573
  770MOL0     H 3892   3.247   1.600   8.315 -1.4389  0.9195  0.5579
  770MOL0     H 3893   3.221   1.854   8.442 -0.5309  3.7857 -2.7741
  770MOL0     H 3894   3.381   1.862   8.381 -1.1580  1.4560 -0.5278
  770MOL0     H 3895   3.313   1.803   8.158  0.4631  2.1711 -0.2876
  770MOL0     H 3896   3.159   1.755   8.206 -1.2291  1.4241 -1.8780
  770MOL0     H 3897   3.106   1.971   8.305  0.0371 -1.2060 -0.7338
  770MOL0     H 3898   3.250   2.044   8.224  0.2513 -0.0245  1.7481
  770MOL0     H 3899   3.172   1.949   8.010  2.5269  1.4381  0.4121
  770MOL0     H 3900   3.066   2.083   8.049  0.8745 -1.7311 -2.4566
  770MOL0     H 3901   2.898   2.019   8.272 -0.8242  0.4035 -1.3043
  770MOL0     H 3902   2.664   1.846   8.339  0.6993 -2.4772 -0.5107
  770MOL0     H 3903   2.615   1.976   8.237  0.2115 -0.1648  0.9191
  770MOL0     H 3904   2.599   1.681   8.164  2.5261  1.1250 -0.5440
  770MOL0     H 3905   2.534   1.792   8.054 -0.2992 -0.6040  0.0055
  770MOL0     H 3906   2.399   1.876   8.269  2.0841  0.3330  0.3523
  770MOL0     H 3907   2.425   1.703   8.318 -1.1200 -1.3744 -1.6494
  770MOL0     H 3908   2.322   1.612   8.144  0.1124  0.6751  0.0678
  770MOL0     H 3909   2.279   1.754   8.058 -0.1576  0.2229  0.0404
  770MOL0     H 3910   1.990   1.869   8.381  1.3390 -0.0456 -0.5114
  770MOL0     H 3911   1.722   2.034   8.289 -2.4489 -0.1144  2.1953
  770MOL0     H 3912   1.650   1.877   8.316 -0.7798  1.1894 -1.3635
  770MOL0     H 3913   1.775   1.931   8.427  1.0027 -0.5027 -0.5932
  770MOL0     H 3914   1.377   1.947   8.167  1.7063  3.7102  0.3987
  770MOL0     H 3915   1.159   2.017   8.045  0.8130  1.2693  1.3989
  770MOL0     H 3916   1.175   2.202   7.632  0.3012 -0.1073  0.0826
  770MOL0     H 3917   1.185   2.017   7.617 -2.4955 -1.1684 -0.0802
  770MOL0     H 3918   1.017   2.079   7.497 -0.9668 -0.1610  0.1163
  770MOL0     H 3919   0.940   2.017   7.634  1.4546 -0.7816 -0.0224
  770MOL0     H 3920   0.975   2.315   7.573 -2.1080  1.1011 -1.0729
  770MOL0     H 3921   0.896   2.257   7.720 -0.3392  0.4327 -0.0861
  770MOL0     H 3922   0.782   2.191   7.448 -0.3631 -1.5648  0.9934
  770MOL0     H 3923   0.722   2.128   7.601  0.1890  0.6494  2.5486
  770MOL0     H 3924   0.734   2.413   7.493 -0.2111 -1.0823 -1.2987
  770MOL0     H 3925   0.722   2.387   7.673 -3.5244  3.0478  0.4153
  770MOL0     H 3926   0.542   2.287   7.462  4.0217 -0.2732 -0.3732
  770MOL0     H 3927   0.530   2.250   7.636  2.9201 -0.0319  1.3108
  770MOL0     H 3928   0.536   2.533   7.505 -0.0531 -1.2349 -1.2671
  770MOL0     H 3929   0.500   2.504   7.674  0.0952  0.4710  0.0308
  770MOL0     H 3930   0.314   2.419   7.443 -0.7686  0.8333 -0.2804
  770MOL0     H 3931   0.288   2.566   7.531 -4.7972 -0.7126 -1.3004
  770MOL0     H 3932   1.391   2.086   7.683  5.0765  1.7895  0.7560
  770MOL0     H 3933   1.596   2.010   7.819  0.5980  2.1065  1.9397
  770MOL0     H 3934   1.854   1.712   7.921 -2.8249  1.3333  0.6783
  770MOL0     H 3935   2.087   1.652   8.022  1.1151  2.7149 -0.7330
  770MOL0     H 3936   3.713   1.580   8.779  0.4849 -1.1632  2.3596
  770MOL0     H 3937   3.958   1.561   8.783  0.6391  0.8441 -0.3124
  770MOL0     H 3938   4.393   1.683   8.644 -0.3103 -1.1160 -2.5674
  770MOL0     H 3939   4.625   1.644   8.734  0.2723 -1.3796  0.0156
  770MOL0     H 3940   4.727   1.226   8.857 -1.1672 -0.6862 -1.4094
  770MOL0     H 3941   4.787   1.213   8.694 -0.1318 -1.1121  0.6175
  770MOL0     H 3942   4.933   1.373   8.895 -1.1197  0.1099  0.6978
  770MOL0     H 3943   4.982   1.345   8.720 -0.3375 -0.2660 -1.0940
  770MOL0     H 3944   4.971   1.090   8.807  1.7344 -1.2558 -0.2158
  770MOL0     H 3945   4.998   1.169   8.963 -2.3704  1.0051 -0.3310
  770MOL0     H 3946   5.188   1.240   8.731  0.8266  0.4200  0.1644
  770MOL0     H 3947   5.201   1.090   8.795 -3.1083 -1.3219 -0.1392
  770MOL0     H 3948   5.333   1.344   9.114  0.8995 -0.3529  0.0202
  770MOL0     H 3949   4.533   1.216   8.726  0.8612  0.0659 -0.3487
  770MOL0     H 3950   4.298   1.265   8.709 -0.7736  0.4994  2.1604
  771MOL0     O 3951   1.593   2.986  10.444  0.1690 -0.2083 -0.9210
  771MOL0     C 3952   1.650   3.092  10.463  0.6114  0.5342 -0.4034
  771MOL0     O 3953   1.586   3.205  10.503  0.3241 -0.1318  0.5185
  771MOL0     C 3954   1.450   3.211  10.524 -0.2290  0.3938 -0.6074
  771MOL0     C 3955   1.383   3.307  10.446  0.5213  0.2090  0.0532
  771MOL0     C 3956   1.245   3.314  10.459 -0.1349 -0.7559 -0.8175
  771MOL0     C 3957   1.175   3.263  10.574  0.4517  0.3069  0.0487
  771MOL0     O 3958   1.041   3.293  10.597 -0.3369  0.7397 -0.5231
  771MOL0     C 3959   0.967   3.329  10.480  0.1997 -0.5590  0.2224
  771MOL0     C 3960   0.819   3.307  10.516 -0.4005 -0.3466 -0.6028
  771MOL0     C 3961   0.783   3.400  10.634  0.9950  0.9680 -0.0942
  771MOL0     C 3962   0.649   3.351  10.687  1.2657 -0.1931 -0.2949
  771MOL0     C 3963   0.529   3.329  10.580  0.0705  0.0284  0.6357
  771MOL0     C 3964   0.499   3.464  10.514  0.2447  1.4099  0.3133
  771MOL0     C 3965   0.367   3.461  10.435 -0.1816  0.4174  0.3492
  771MOL0     C 3966   0.356   3.599  10.356 -0.1422  0.3870 -0.4754
  771MOL0     N 3967   0.242   3.612  10.265 -0.1377  0.4218 -0.3376
  771MOL0     C 3968   0.227   3.559  10.139  0.3713  0.1880 -0.2936
  771MOL0     C 3969   0.104   3.601  10.119  0.2405  0.1478 -0.1283
  771MOL0     C 3970   0.036   3.545  10.000  0.8213 -0.4419 -0.0410
  771MOL0     C 3971  -0.004   3.399  10.016 -0.1730 -0.3540  0.2483
  771MOL0     C 3972  -0.097   3.349   9.904 -0.4962  0.0850  0.2359
  771MOL0     C 3973  -0.236   3.408   9.924  0.1972  0.0042 -0.3804
  771MOL0     O 3974  -0.328   3.361   9.829  0.7975 -0.3147 -0.4443
  771MOL0     C 3975  -0.467   3.362   9.869  0.0852  0.0044  0.3597
  771MOL0     C 3976  -0.524   3.394   9.994 -0.9794  0.1449  0.6295
  771MOL0     C 3977  -0.664   3.388  10.013 -0.5132  0.5112 -0.5085
  771MOL0     C 3978  -0.704   3.414  10.157 -1.0599  0.5526 -0.4098
  771MOL0     C 3979  -0.754   3.352   9.912  0.1127  0.2339  0.3826
  771MOL0     C 3980  -0.890   3.330   9.938  0.2988  0.4858  0.6544
  771MOL0     O 3981  -0.954   3.270   9.831  0.3311  0.1369 -0.0068
  771MOL0     C 3982  -1.092   3.266   9.812  0.8724  0.2806  0.1443
  771MOL0     C 3983  -1.135   3.205   9.692  0.0604  0.0230  0.4884
  771MOL0     C 3984  -1.273   3.205   9.665  0.8102 -0.1918 -0.0611
  771MOL0     C 3985  -1.371   3.264   9.744  0.3242 -0.8171  0.2222
  771MOL0     O 3986  -1.502   3.259   9.693  0.0869  0.0653 -0.5693
  771MOL0     C 3987  -1.595   3.288   9.797  0.6372 -0.1086  0.9528
  771MOL0     C 3988  -1.732   3.226   9.761  0.8365 -0.6562 -0.4723
  771MOL0     C 3989  -1.847   3.323   9.800  0.5847  0.9533 -0.6817
  771MOL0     C 3990  -1.987   3.264   9.773  0.3372 -0.3657  0.3250
  771MOL0     C 3991  -2.095   3.368   9.817  0.5365  0.0361 -0.0404
  771MOL0     C 3992  -2.238   3.308   9.793  0.3080  0.6258  0.1557
  771MOL0     C 3993  -2.345   3.404   9.851  0.7783  0.2447 -0.1064
  771MOL0     C 3994  -2.482   3.378   9.784  0.8090  0.4372  0.4499
  771MOL0    Cl 3995  -2.606   3.501   9.813 -0.1524  0.1835 -0.2613
  771MOL0     C 3996  -1.325   3.329   9.863 -0.4818  0.5030  0.4201
  771MOL0     C 3997  -1.191   3.323   9.894  0.5589  0.2070 -0.8693
  771MOL0     O 3998  -0.938   3.364  10.045 -0.4138 -0.3387 -0.5975
  771MOL0     C 3999  -0.697   3.319   9.788 -0.0138 -0.4040 -0.0504
  771MOL0     C 4000  -0.557   3.326   9.767  0.0779 -0.6170  0.0631
  771MOL0     N 4001   0.045   3.687  10.206 -0.2507  0.5181  0.5986
  771MOL0     N 4002   0.129   3.681  10.300  0.4251  0.0836  0.1103
  771MOL0     C 4003   1.243   3.176  10.655  0.8630  0.1664 -0.4299
  771MOL0     C 4004   1.379   3.147  10.627 -0.6942 -0.4666 -0.1901
  771MOL0     C 4005   1.795   3.085  10.447 -0.7598  0.3923  0.5244
  771MOL0     C 4006   1.856   2.969  10.387 -0.1639 -1.1667 -1.2457
  771MOL0     C 4007   1.994   2.964  10.364 -0.3087 -0.6203  0.4293
  771MOL0     C 4008   2.070   3.079  10.398  0.1494  0.4229 -0.4083
  771MOL0     O 4009   2.200   3.096  10.375 -0.3888  0.5133 -0.5644
  771MOL0     C 4010   2.265   3.006  10.277 -0.3411  0.8774  0.2129
  771MOL0     C 4011   2.414   3.033  10.270 -0.0064  0.0701  0.5750
  771MOL0     C 4012   2.463   3.160  10.203  0.1487  0.3640 -0.4405
  771MOL0     C 4013   2.614   3.140  10.160  0.0956 -0.3812  0.3600
  771MOL0     C 4014   2.667   3.269  10.120  0.0301 -0.2844  0.5989
  771MOL0     C 4015   2.739   3.361  10.075  0.3838 -0.7942 -0.7605
  771MOL0     C 4016   2.005   3.192  10.447  0.0731  0.2080 -1.0466
  771MOL0     C 4017   1.875   3.193  10.479 -0.1174 -0.1768  0.0910
  771MOL0     H 4018   1.441   3.348  10.364  0.8242 -2.6989 -1.3164
  771MOL0     H 4019   1.188   3.370  10.385 -2.0112 -2.7307 -0.9488
  771MOL0     H 4020   0.986   3.432  10.450 -1.0969 -0.5677 -0.6970
  771MOL0     H 4021   0.988   3.267  10.393  1.2190  1.2704 -0.8869
  771MOL0     H 4022   0.759   3.330  10.427 -0.4638 -0.4437 -0.5864
  771MOL0     H 4023   0.806   3.200  10.533 -0.2841 -0.3037 -0.2398
  771MOL0     H 4024   0.839   3.380  10.726  0.3190 -1.4964 -0.1354
  771MOL0     H 4025   0.788   3.503  10.597  0.0762  2.0029  2.4329
  771MOL0     H 4026   0.668   3.253  10.732  1.1393  0.1222  0.4561
  771MOL0     H 4027   0.613   3.425  10.759  0.4033  0.3464 -1.2482
  771MOL0     H 4028   0.549   3.257  10.500  0.0169  2.6342 -1.9009
  771MOL0     H 4029   0.448   3.295  10.645 -1.1692  0.4412 -0.6352
  771MOL0     H 4030   0.480   3.541  10.590  0.5735 -0.4057  2.3371
  771MOL0     H 4031   0.575   3.490  10.440 -1.0809  0.6065 -1.4176
  771MOL0     H 4032   0.356   3.378  10.364 -0.6837 -0.8832  1.8741
  771MOL0     H 4033   0.280   3.450  10.501 -1.3267  0.2691 -1.1305
  771MOL0     H 4034   0.445   3.616  10.294 -0.1992 -0.6170 -0.8452
  771MOL0     H 4035   0.338   3.678  10.429  1.9224  1.5797 -1.1912
  771MOL0     H 4036   0.294   3.498  10.079 -3.2890 -3.3851 -1.1627
  771MOL0     H 4037  -0.052   3.606   9.979  0.0163 -0.6353  2.4914
  771MOL0     H 4038   0.098   3.549   9.910 -1.3022  2.9821 -1.5771
  771MOL0     H 4039  -0.043   3.380  10.116 -0.7128 -1.2313 -0.1159
  771MOL0     H 4040   0.095   3.352  10.008  0.3007  0.4321  1.2868
  771MOL0     H 4041  -0.106   3.240   9.905 -0.1886  0.0608  1.6630
  771MOL0     H 4042  -0.054   3.391   9.812  1.9158  0.8081  1.6136
  771MOL0     H 4043  -0.243   3.517   9.919 -2.0858 -0.0497  0.5815
  771MOL0     H 4044  -0.254   3.371  10.025  0.2372  1.9945  0.3983
  771MOL0     H 4045  -0.465   3.427  10.079  0.7071 -0.6861 -0.1606
  771MOL0     H 4046  -0.619   3.455  10.214  1.9962 -0.6981 -3.6789
  771MOL0     H 4047  -0.792   3.477  10.169 -2.2072 -1.4230  2.6559
  771MOL0     H 4048  -0.739   3.327  10.213  0.2233  0.9305  1.0684
  771MOL0     H 4049  -1.067   3.164   9.618 -0.6148  1.7018 -1.1579
  771MOL0     H 4050  -1.306   3.159   9.572  3.2842  0.4847 -1.3523
  771MOL0     H 4051  -1.564   3.252   9.895  0.4533 -1.0451  0.6748
  771MOL0     H 4052  -1.604   3.397   9.799  2.3094  0.1940 -1.7986
  771MOL0     H 4053  -1.732   3.202   9.654  1.4905 -0.0360 -0.6190
  771MOL0     H 4054  -1.735   3.136   9.822  1.0310 -0.7842 -0.6484
  771MOL0     H 4055  -1.841   3.420   9.749  1.4904  2.0700  1.3953
  771MOL0     H 4056  -1.838   3.340   9.908  0.1224  0.0336 -0.4913
  771MOL0     H 4057  -1.990   3.226   9.671  0.3677 -0.7280  0.4601
  771MOL0     H 4058  -1.999   3.177   9.838  2.1084  0.6210  2.0867
  771MOL0     H 4059  -2.081   3.464   9.765  2.9289 -0.2609 -0.0281
  771MOL0     H 4060  -2.085   3.380   9.925 -3.0070  1.5240  0.2776
  771MOL0     H 4061  -2.261   3.303   9.686 -3.3028 -1.4327  0.8462
  771MOL0     H 4062  -2.238   3.210   9.841  0.2982  0.9464  0.8320
  771MOL0     H 4063  -2.314   3.507   9.835  1.7769 -0.0659 -0.1936
  771MOL0     H 4064  -2.367   3.385   9.957 -0.9607 -0.1451 -0.4970
  771MOL0     H 4065  -2.525   3.281   9.811  4.3633 -1.8569 -1.3476
  771MOL0     H 4066  -2.460   3.373   9.677  0.0281 -0.5330  0.3180
  771MOL0     H 4067  -1.384   3.380   9.939  1.9041 -0.3463  2.9977
  771MOL0     H 4068  -1.165   3.365   9.991 -0.4905 -3.2681  1.0856
  771MOL0     H 4069  -0.761   3.271   9.713  0.9944 -0.0697 -1.1600
  771MOL0     H 4070  -0.528   3.301   9.665  0.4708  1.1171 -0.2787
  771MOL0     H 4071   1.187   3.132  10.737  1.8055  0.2937  0.3118
  771MOL0     H 4072   1.443   3.084  10.689 -1.0103 -2.1465 -1.5056
  771MOL0     H 4073   1.809   2.880  10.347 -0.5624 -2.3623  1.6059
  771MOL0     H 4074   2.038   2.876  10.319  0.3926 -0.9410  1.7028
  771MOL0     H 4075   2.264   2.903  10.314  1.4441  1.7731  3.0922
  771MOL0     H 4076   2.227   3.031  10.178  1.5172  0.9383 -0.5173
  771MOL0     H 4077   2.465   2.948  10.222  0.0609 -0.8182  2.1670
  771MOL0     H 4078   2.450   3.036  10.373  3.1648 -0.1854 -0.4160
  771MOL0     H 4079   2.454   3.240  10.277  0.6281 -0.1800  0.2125
  771MOL0     H 4080   2.404   3.183  10.113 -1.2235  1.2843  0.6424
  771MOL0     H 4081   2.609   3.068  10.078 -2.6296  0.6993 -0.5418
  771MOL0     H 4082   2.673   3.107  10.246  1.7833 -1.1453 -1.0322
  771MOL0     H 4083   2.798   3.437  10.029 -1.4032  0.3325 -1.2836
  771MOL0     H 4084   2.065   3.281  10.466  2.7588 -1.6665 -0.2903
  771MOL0     H 4085   1.837   3.286  10.522  0.1873  0.3226 -0.7083
  772MOL0     O 4086   8.943   1.900   8.783 -0.0550 -0.0477  0.3673
  772MOL0     C 4087   8.978   1.781   8.805 -0.1910 -0.7090 -0.3472
  772MOL0     O 4088   8.887   1.681   8.808  0.2178  0.9831  0.3621
  772MOL0     C 4089   8.754   1.709   8.787 -0.6031  0.0455 -0.3039
  772MOL0     C 4090   8.675   1.652   8.686  0.5133  0.1170 -0.1355
  772MOL0     C 4091   8.537   1.689   8.682  0.3228  0.5937  0.6723
  772MOL0     C 4092   8.483   1.797   8.754  0.2099 -0.4121  0.2047
  772MOL0     O 4093   8.350   1.828   8.741 -0.2415 -0.8310 -0.2131
  772MOL0     C 4094   8.305   1.959   8.724 -0.0007  0.4177 -0.2139
  772MOL0     C 4095   8.155   1.958   8.693  0.4569 -0.0135 -0.3444
  772MOL0     C 4096   8.069   1.924   8.810 -0.3209  0.4206  0.0538
  772MOL0     C 4097   7.922   1.903   8.769 -0.8940  0.1995 -0.0163
  772MOL0     C 4098   7.841   1.879   8.894  0.4313  0.1287 -0.5455
  772MOL0     C 4099   7.692   1.874   8.870 -0.0731 -0.2571  0.3326
  772MOL0     C 4100   7.607   1.905   8.997 -0.1605  0.1455  0.6422
  772MOL0     C 4101   7.619   1.789   9.092  0.7582  0.5739 -0.5704
  772MOL0     N 4102   7.520   1.819   9.201  0.4357 -0.2089  0.1814
  772MOL0     C 4103   7.545   1.923   9.294 -0.2775 -0.0193  0.2507
  772MOL0     C 4104   7.425   1.937   9.358  0.0613 -0.5058 -0.5654
  772MOL0     C 4105   7.399   2.044   9.459  0.3010  0.3065 -0.6123
  772MOL0     C 4106   7.387   1.969   9.594  0.8623  0.3818 -0.1863
  772MOL0     C 4107   7.360   2.073   9.712  0.1635 -0.1990 -0.1946
  772MOL0     C 4108   7.302   2.005   9.840 -1.0101 -0.7097 -0.5085
  772MOL0     O 4109   7.236   1.873   9.825  0.5498 -0.4825 -0.6517
  772MOL0     C 4110   7.107   1.857   9.775 -0.7234 -0.1010 -0.2445
  772MOL0     C 4111   7.021   1.958   9.749  0.7140  0.9074 -0.2722
  772MOL0     C 4112   6.894   1.939   9.693  0.2129 -0.7922 -0.0566
  772MOL0     C 4113   6.814   2.062   9.683 -0.4735 -0.4351  0.3997
  772MOL0     C 4114   6.847   1.809   9.661 -0.0200  0.6264 -0.0056
  772MOL0     C 4115   6.717   1.769   9.607  0.7419 -0.6034 -0.4773
  772MOL0     O 4116   6.699   1.634   9.596 -0.2708 -0.6914  0.2715
  772MOL0     C 4117   6.586   1.578   9.554 -0.7786  0.4812  0.1447
  772MOL0     C 4118   6.486   1.541   9.643 -0.3926  0.7226 -0.5290
  772MOL0     C 4119   6.363   1.494   9.588 -0.2617 -0.9144 -1.1444
  772MOL0     C 4120   6.332   1.512   9.457 -0.0707 -0.1144 -0.8096
  772MOL0     O 4121   6.203   1.506   9.404 -0.0642  0.1743  0.1504
  772MOL0     C 4122   6.185   1.402   9.304  0.1627 -0.3493 -0.0486
  772MOL0     C 4123   6.055   1.408   9.231  0.2889  0.4501 -0.2920
  772MOL0     C 4124   5.942   1.346   9.310 -0.1249 -0.3940  0.0077
  772MOL0     C 4125   5.802   1.357   9.243  0.3708 -0.8942 -0.4448
  772MOL0     C 4126   5.691   1.339   9.339  0.7674 -0.5972  0.0906
  772MOL0     C 4127   5.667   1.190   9.376 -0.3706 -0.1773  0.0701
  772MOL0     C 4128   5.548   1.186   9.473  0.1892 -0.4107 -0.7485
  772MOL0     C 4129   5.542   1.053   9.550 -1.0824 -0.0576  0.3145
  772MOL0    Cl 4130   5.543   0.901   9.464  0.2297  0.0907 -0.3109
  772MOL0     C 4131   6.425   1.566   9.376 -0.1279 -0.2461  0.6808
  772MOL0     C 4132   6.554   1.587   9.425  0.1058  0.6810  0.3334
  772MOL0     O 4133   6.638   1.855   9.568  0.2484  0.1071 -0.1151
  772MOL0     C 4134   6.933   1.704   9.698 -0.2181 -0.4271 -0.2481
  772MOL0     C 4135   7.064   1.729   9.749  0.5778 -0.2075  0.1861
  772MOL0     N 4136   7.339   1.833   9.317 -0.4311  0.3600 -0.2097
  772MOL0     N 4137   7.398   1.765   9.229  0.4023 -0.4709  0.4353
  772MOL0     C 4138   8.555   1.842   8.862  0.6679  0.0633 -0.0137
  772MOL0     C 4139   8.687   1.799   8.880 -0.5818 -0.3986  0.1605
  772MOL0     C 4140   9.124   1.749   8.833 -0.3758 -0.2402 -0.3180
  772MOL0     C 4141   9.167   1.621   8.891  0.7495  0.2061  0.2405
  772MOL0     C 4142   9.305   1.602   8.914  0.3718  0.0869 -0.5503
  772MOL0     C 4143   9.402   1.695   8.875 -0.5109  0.4025 -0.2470
  772MOL0     O 4144   9.533   1.685   8.900  0.0719  1.0606  0.4888
  772MOL0     C 4145   9.591   1.573   8.976 -0.7797 -0.0641 -0.3454
  772MOL0     C 4146   9.737   1.608   9.006 -0.4808 -0.1497  0.3617
  772MOL0     C 4147   9.814   1.645   8.873  0.3060 -0.5644 -0.5644
  772MOL0     C 4148   9.964   1.688   8.903 -0.9806  0.2492  0.2702
  772MOL0     C 4149   9.955   1.821   8.977  0.6543 -0.6806  0.2179
  772MOL0     C 4150   9.948   1.934   9.020 -0.5836  0.3301 -0.5914
  772MOL0     C 4151   9.358   1.812   8.822 -0.1230 -0.0786 -0.8172
  772MOL0     C 4152   9.219   1.845   8.809 -0.4853  0.1547  0.2558
  772MOL0     H 4153   8.719   1.588   8.610  1.1945  1.2319 -0.7107
  772MOL0     H 4154   8.476   1.643   8.604 -1.5696  1.3549  1.6385
  772MOL0     H 4155   8.318   2.017   8.815 -3.0656  0.7577  0.0940
  772MOL0     H 4156   8.355   2.004   8.637 -3.8228 -0.2144 -2.9819
  772MOL0     H 4157   8.124   2.047   8.639 -3.7694 -0.5316  0.8683
  772MOL0     H 4158   8.139   1.872   8.628 -0.8463 -1.1005  1.3446
  772MOL0     H 4159   8.105   1.830   8.852  0.3649 -0.1911 -1.8047
  772MOL0     H 4160   8.082   2.003   8.885  1.5454  0.6034 -0.4145
  772MOL0     H 4161   7.879   1.990   8.721 -1.1745  0.4345  0.6576
  772MOL0     H 4162   7.902   1.815   8.708 -2.0648 -0.4063  1.1847
  772MOL0     H 4163   7.874   1.784   8.937  2.8884  0.1923 -2.1429
  772MOL0     H 4164   7.853   1.960   8.967 -1.3866 -0.0531  0.0093
  772MOL0     H 4165   7.656   1.951   8.800 -1.7615  0.3289  1.7777
  772MOL0     H 4166   7.671   1.779   8.820  1.4085 -0.8011  0.6967
  772MOL0     H 4167   7.634   2.000   9.043 -1.1422  1.0360 -0.5604
  772MOL0     H 4168   7.504   1.930   8.970  0.1866  1.4547  0.4350
  772MOL0     H 4169   7.722   1.793   9.127  1.6540 -1.6771 -2.7019
  772MOL0     H 4170   7.595   1.693   9.045  0.0804  1.3248 -1.8094
  772MOL0     H 4171   7.627   1.992   9.305  0.1032 -0.4177 -0.0459
  772MOL0     H 4172   7.477   2.121   9.459 -1.1189  1.8296 -2.3660
  772MOL0     H 4173   7.300   2.088   9.443  0.4137  0.9834  0.4021
  772MOL0     H 4174   7.472   1.906   9.618  0.6202  0.2818  0.4197
  772MOL0     H 4175   7.300   1.903   9.591 -0.6358  2.1257  1.6898
  772MOL0     H 4176   7.292   2.153   9.681 -2.4446 -1.3180  2.2250
  772MOL0     H 4177   7.456   2.122   9.732 -0.3937  0.8654 -0.0486
  772MOL0     H 4178   7.226   2.062   9.895 -1.4262 -0.2898 -1.4944
  772MOL0     H 4179   7.387   1.988   9.906 -1.4586 -1.6891 -0.1475
  772MOL0     H 4180   7.051   2.062   9.764  1.8041  0.6807 -0.7114
  772MOL0     H 4181   6.724   2.046   9.743  0.2930 -0.2988  1.6120
  772MOL0     H 4182   6.860   2.151   9.728  1.5495  0.0116 -2.3046
  772MOL0     H 4183   6.781   2.081   9.580  0.2678 -2.8350 -0.3317
  772MOL0     H 4184   6.497   1.534   9.751 -2.6373 -1.3343 -0.3389
  772MOL0     H 4185   6.288   1.450   9.653 -1.2385 -1.3443 -2.5296
  772MOL0     H 4186   6.257   1.414   9.223 -0.2599  1.5288 -0.1785
  772MOL0     H 4187   6.208   1.304   9.348  3.2945 -0.4059 -1.5625
  772MOL0     H 4188   6.028   1.514   9.223 -0.3269  0.4666  1.4476
  772MOL0     H 4189   6.054   1.351   9.138  0.1621 -2.4498  1.3617
  772MOL0     H 4190   5.934   1.402   9.404 -0.0087  0.9789 -0.7701
  772MOL0     H 4191   5.976   1.243   9.323  0.9758  0.1103  1.4683
  772MOL0     H 4192   5.804   1.461   9.210  3.0961 -0.9767 -0.7673
  772MOL0     H 4193   5.788   1.293   9.155 -1.4165  2.5100 -2.8798
  772MOL0     H 4194   5.598   1.375   9.295  0.3030 -0.5013  1.1064
  772MOL0     H 4195   5.703   1.400   9.429  2.5280 -0.6191 -0.1060
  772MOL0     H 4196   5.639   1.133   9.287  0.2012  0.1081 -0.3004
  772MOL0     H 4197   5.754   1.146   9.427 -0.9229  1.6368  2.7778
  772MOL0     H 4198   5.456   1.203   9.416 -0.4887  0.3465  0.5207
  772MOL0     H 4199   5.565   1.266   9.545 -0.9651 -2.6264  2.2032
  772MOL0     H 4200   5.455   1.058   9.617 -0.4093 -2.2496  1.4471
  772MOL0     H 4201   5.626   1.054   9.620 -1.8692  3.3001  1.4105
  772MOL0     H 4202   6.403   1.587   9.272  0.3223  0.2803  0.6841
  772MOL0     H 4203   6.634   1.624   9.360  0.8004 -0.2655  0.6255
  772MOL0     H 4204   6.900   1.601   9.689 -0.9719 -0.5152  2.4663
  772MOL0     H 4205   7.121   1.645   9.788 -0.5416 -0.7914  0.6015
  772MOL0     H 4206   8.503   1.917   8.920 -1.3776  0.4239 -2.1476
  772MOL0     H 4207   8.745   1.840   8.963 -1.3777 -1.0150  1.0333
  772MOL0     H 4208   9.088   1.553   8.923 -1.3134  1.8413 -1.1318
  772MOL0     H 4209   9.340   1.507   8.954  2.0234  1.3568  1.2369
  772MOL0     H 4210   9.545   1.568   9.075 -0.3242  2.3398  0.0493
  772MOL0     H 4211   9.582   1.473   8.933 -4.2687  0.8803 -2.1697
  772MOL0     H 4212   9.778   1.522   9.059 -1.2806 -0.0070  1.2391
  772MOL0     H 4213   9.734   1.691   9.077  0.4791  0.0901  0.1338
  772MOL0     H 4214   9.756   1.717   8.815  0.0847 -1.5684 -1.6503
  772MOL0     H 4215   9.819   1.556   8.809 -0.5529 -0.9889 -0.0662
  772MOL0     H 4216  10.014   1.712   8.808 -2.8077  0.3399 -0.7276
  772MOL0     H 4217  10.023   1.616   8.960  0.6454  1.4010  0.0882
  772MOL0     H 4218   9.952   2.029   9.070  1.7158  1.2147 -2.2595
  772MOL0     H 4219   9.417   1.900   8.795 -2.7367  1.7339 -0.9704
  772MOL0     H 4220   9.199   1.942   8.764  1.2909  0.0119 -0.9783
  773MOL0     O 4221   0.503   0.616   7.374 -0.1852  0.5983 -0.1815
  773MOL0     C 4222   0.527   0.687   7.280 -0.1514  0.3123 -0.0905
  773MOL0     O 4223   0.436   0.777   7.223  0.1712  0.0246 -0.5106
  773MOL0     C 4224   0.311   0.790   7.280  0.5228  0.6691 -0.5347
  773MOL0     C 4225   0.221   0.690   7.289  0.1664  0.5603  0.2603
  773MOL0     C 4226   0.102   0.703   7.366 -0.1579  0.8098 -0.6060
  773MOL0     C 4227   0.066   0.827   7.419  0.2762  0.2967 -0.0748
  773MOL0     O 4228  -0.056   0.860   7.482  0.0330 -0.0030 -0.0507
  773MOL0     C 4229  -0.150   0.755   7.499 -0.1614 -0.3934  1.0157
  773MOL0     C 4230  -0.294   0.816   7.513  0.0983  0.2917  0.2507
  773MOL0     C 4231  -0.373   0.723   7.609  0.0121  0.0318 -0.1609
  773MOL0     C 4232  -0.521   0.757   7.614  0.1846  0.5035  0.0964
  773MOL0     C 4233  -0.594   0.665   7.724  0.0976 -0.3223 -0.2433
  773MOL0     C 4234  -0.747   0.681   7.715 -0.4229  0.4936  0.1559
  773MOL0     C 4235  -0.802   0.558   7.803  0.0972 -0.3073  0.9385
  773MOL0     C 4236  -0.749   0.564   7.951 -0.4018  0.1598  0.5226
  773MOL0     N 4237  -0.777   0.679   8.038  0.4402  0.8613 -0.4137
  773MOL0     C 4238  -0.901   0.740   8.046 -0.8501  0.4138  0.3282
  773MOL0     C 4239  -0.885   0.825   8.150 -0.4841 -0.3087  0.6236
  773MOL0     C 4240  -1.013   0.898   8.189  0.2031  0.3568 -0.1855
  773MOL0     C 4241  -1.043   0.869   8.338  0.0484 -0.3150  0.8225
  773MOL0     C 4242  -1.180   0.913   8.393  1.1622 -1.0103 -0.8045
  773MOL0     C 4243  -1.202   1.065   8.382  0.4544  0.4254 -0.3730
  773MOL0     O 4244  -1.309   1.127   8.448  0.9502 -0.2780  0.8514
  773MOL0     C 4245  -1.438   1.102   8.397 -0.0782  0.0210  0.3259
  773MOL0     C 4246  -1.510   0.982   8.416 -0.5923  0.8102 -0.2997
  773MOL0     C 4247  -1.644   0.964   8.378  0.2627 -0.4533  0.3719
  773MOL0     C 4248  -1.709   0.832   8.424  0.8534 -0.4430  0.5399
  773MOL0     C 4249  -1.713   1.066   8.302  0.0416 -0.0589  0.1738
  773MOL0     C 4250  -1.860   1.051   8.250  0.3786 -0.4628 -0.1663
  773MOL0     O 4251  -1.900   1.153   8.163 -0.4621  0.5132 -0.3243
  773MOL0     C 4252  -2.030   1.132   8.129  0.0246 -0.4671  0.0608
  773MOL0     C 4253  -2.080   1.040   8.040 -0.3142 -0.9149  0.5815
  773MOL0     C 4254  -2.217   1.026   8.012 -0.0651  0.0603  0.9464
  773MOL0     C 4255  -2.319   1.111   8.067 -0.1158 -0.0969  0.0312
  773MOL0     O 4256  -2.454   1.109   8.037 -0.6734  0.6382 -0.2713
  773MOL0     C 4257  -2.492   1.058   7.912  0.0541 -0.9979  0.0723
  773MOL0     C 4258  -2.632   1.106   7.871  0.2037  0.6562  0.0620
  773MOL0     C 4259  -2.628   1.257   7.878 -0.0955 -1.1200 -0.2643
  773MOL0     C 4260  -2.735   1.342   7.796 -0.7222 -0.1013 -0.2386
  773MOL0     C 4261  -2.877   1.306   7.828 -0.1994  0.1166 -0.8422
  773MOL0     C 4262  -2.975   1.369   7.733  0.7404 -0.0136 -0.7227
  773MOL0     C 4263  -3.118   1.304   7.732 -0.5065  0.3309  0.3941
  773MOL0     C 4264  -3.210   1.350   7.854  0.3218 -0.4157  0.8081
  773MOL0    Cl 4265  -3.268   1.518   7.830 -0.2512 -0.2391 -0.1137
  773MOL0     C 4266  -2.267   1.206   8.151  0.9373 -0.0620 -0.4102
  773MOL0     C 4267  -2.130   1.213   8.187  0.2755 -0.3772 -0.0987
  773MOL0     O 4268  -1.936   0.961   8.298  0.2614 -0.7375 -0.3140
  773MOL0     C 4269  -1.628   1.176   8.261  0.1135  1.3111  0.1685
  773MOL0     C 4270  -1.498   1.196   8.309 -0.0234 -0.2239 -0.7977
  773MOL0     N 4271  -0.753   0.814   8.201  0.2953  0.6172 -0.0984
  773MOL0     N 4272  -0.694   0.723   8.140  0.5212 -0.2169  0.3784
  773MOL0     C 4273   0.161   0.934   7.407 -0.3744  0.1286  0.4005
  773MOL0     C 4274   0.277   0.913   7.336  0.0112 -0.8636 -0.3208
  773MOL0     C 4275   0.662   0.676   7.216  0.4621  0.4728 -0.0775
  773MOL0     C 4276   0.698   0.758   7.118  0.5532  0.5182  1.1247
  773MOL0     C 4277   0.823   0.740   7.062 -0.1766 -0.2498 -0.2122
  773MOL0     C 4278   0.916   0.640   7.100 -0.1048 -0.5253 -0.4037
  773MOL0     O 4279   1.033   0.638   7.027  0.6923 -0.1140  0.6948
  773MOL0     C 4280   1.141   0.554   7.069  0.1022  0.0038 -0.8505
  773MOL0     C 4281   1.265   0.606   6.999 -0.0523 -0.6874  0.8324
  773MOL0     C 4282   1.347   0.711   7.066 -0.6319  0.6797  0.2213
  773MOL0     C 4283   1.444   0.774   6.965  0.1236  0.0298  0.5743
  773MOL0     C 4284   1.366   0.853   6.867  0.3993  0.0354 -0.3414
  773MOL0     C 4285   1.291   0.895   6.782 -1.1562 -0.2300 -0.1691
  773MOL0     C 4286   0.875   0.555   7.204 -0.7953 -0.2950  0.4314
  773MOL0     C 4287   0.750   0.582   7.268  0.5617  0.9705 -0.4728
  773MOL0     H 4288   0.251   0.596   7.242 -0.7399  1.1583 -1.6088
  773MOL0     H 4289   0.040   0.613   7.368  1.2595 -0.1996 -0.1983
  773MOL0     H 4290  -0.149   0.676   7.423  0.3040  0.1363  0.4583
  773MOL0     H 4291  -0.114   0.708   7.590 -0.4724 -2.2609  0.2185
  773MOL0     H 4292  -0.294   0.916   7.557 -0.1848 -0.1164  1.1873
  773MOL0     H 4293  -0.341   0.827   7.414 -6.0242 -0.1022  2.6825
  773MOL0     H 4294  -0.353   0.621   7.573  0.9932  0.2133 -0.1669
  773MOL0     H 4295  -0.331   0.722   7.710 -0.7305  0.7698  0.1658
  773MOL0     H 4296  -0.533   0.864   7.632 -1.0666  0.8698 -2.5188
  773MOL0     H 4297  -0.565   0.747   7.515 -0.2698 -1.2792  0.4371
  773MOL0     H 4298  -0.566   0.560   7.712 -2.7823 -1.2792  0.6484
  773MOL0     H 4299  -0.561   0.691   7.825 -1.4965 -1.1257  0.5113
  773MOL0     H 4300  -0.788   0.779   7.744 -2.0938  0.5609 -2.1734
  773MOL0     H 4301  -0.782   0.665   7.613 -0.7699 -1.9654  0.6026
  773MOL0     H 4302  -0.909   0.572   7.788  0.4729  0.9128 -1.0312
  773MOL0     H 4303  -0.774   0.467   7.750  1.7350  1.5743 -1.7152
  773MOL0     H 4304  -0.644   0.531   7.960  0.6347  3.4045  1.3919
  773MOL0     H 4305  -0.808   0.484   7.996  0.8127 -0.5236  0.9446
  773MOL0     H 4306  -0.988   0.737   7.982 -1.4190  2.9303  0.8827
  773MOL0     H 4307  -0.996   1.006   8.188 -2.0005  0.8558  3.2168
  773MOL0     H 4308  -1.100   0.882   8.124 -0.5580  0.6997  0.7392
  773MOL0     H 4309  -0.971   0.916   8.406  0.0840 -1.7209  1.8061
  773MOL0     H 4310  -1.034   0.762   8.362 -0.9686  0.0463  2.9907
  773MOL0     H 4311  -1.198   0.887   8.497  2.0834 -0.5826 -0.5256
  773MOL0     H 4312  -1.251   0.855   8.334  0.1922  1.3530 -2.1278
  773MOL0     H 4313  -1.218   1.084   8.275 -2.4080 -0.3710 -0.1661
  773MOL0     H 4314  -1.118   1.126   8.415 -0.3374  2.1887 -1.4514
  773MOL0     H 4315  -1.448   0.908   8.465  2.3421 -0.1286 -4.8033
  773MOL0     H 4316  -1.786   0.851   8.499 -0.3048 -2.1889 -0.1543
  773MOL0     H 4317  -1.750   0.786   8.334  0.3858 -1.3419  1.1907
  773MOL0     H 4318  -1.639   0.755   8.458  1.2106 -0.7699 -0.8679
  773MOL0     H 4319  -2.020   0.974   7.979  0.9067  1.7098 -1.2652
  773MOL0     H 4320  -2.247   0.949   7.941 -2.9903 -0.7249  2.8617
  773MOL0     H 4321  -2.417   1.082   7.836  0.6592 -1.5704  0.4761
  773MOL0     H 4322  -2.479   0.950   7.913  4.0541 -0.7502 -2.6105
  773MOL0     H 4323  -2.650   1.068   7.770 -0.8443 -3.4326  1.6247
  773MOL0     H 4324  -2.711   1.062   7.932  0.7339 -0.3100  0.0638
  773MOL0     H 4325  -2.532   1.283   7.832 -0.1222 -1.4925 -0.5274
  773MOL0     H 4326  -2.623   1.299   7.979  2.4138 -0.6160 -0.5246
  773MOL0     H 4327  -2.711   1.448   7.812  1.9249 -0.4960 -1.1170
  773MOL0     H 4328  -2.723   1.329   7.688  1.9497 -4.1131  0.3174
  773MOL0     H 4329  -2.909   1.331   7.929 -4.1893 -4.3890 -0.6264
  773MOL0     H 4330  -2.894   1.198   7.834 -0.4652  0.2585  1.7902
  773MOL0     H 4331  -2.980   1.477   7.747  0.9557 -0.2317  1.2699
  773MOL0     H 4332  -2.932   1.353   7.633 -0.7676 -1.1925 -1.2141
  773MOL0     H 4333  -3.103   1.197   7.746 -1.0184  0.3341  1.0380
  773MOL0     H 4334  -3.165   1.325   7.635  0.6115  1.9205  0.1613
  773MOL0     H 4335  -3.157   1.335   7.949  0.3055  1.2347  1.1115
  773MOL0     H 4336  -3.297   1.284   7.856  1.8550 -2.5873 -0.5091
  773MOL0     H 4337  -2.345   1.255   8.209 -2.0861 -3.8618 -0.8737
  773MOL0     H 4338  -2.105   1.285   8.264  0.2335  0.2280 -0.6484
  773MOL0     H 4339  -1.670   1.253   8.198 -2.2005 -0.6518 -0.8544
  773MOL0     H 4340  -1.453   1.294   8.300  0.5669 -0.0050  2.9994
  773MOL0     H 4341   0.143   1.034   7.446  0.4140 -0.2398  1.8092
  773MOL0     H 4342   0.349   0.994   7.321  0.7142 -1.6233 -1.1655
  773MOL0     H 4343   0.627   0.821   7.065 -0.8818 -1.0703  1.0482
  773MOL0     H 4344   0.845   0.792   6.969  2.4334 -1.6432 -0.4757
  773MOL0     H 4345   1.149   0.561   7.178 -3.9191 -0.8624 -0.3344
  773MOL0     H 4346   1.128   0.447   7.053  0.6730 -0.2991  0.5283
  773MOL0     H 4347   1.237   0.634   6.897  1.7513  3.1529  1.2355
  773MOL0     H 4348   1.334   0.523   6.982  0.8432  0.5607 -2.4443
  773MOL0     H 4349   1.407   0.663   7.143 -0.3275  0.9719  0.1714
  773MOL0     H 4350   1.280   0.787   7.107 -0.4063 -0.0923  2.0786
  773MOL0     H 4351   1.494   0.693   6.911  0.0977  1.0276 -1.0162
  773MOL0     H 4352   1.510   0.834   7.028 -0.4922 -2.4288  3.8198
  773MOL0     H 4353   1.231   0.940   6.706 -0.9443  0.5608  0.1188
  773MOL0     H 4354   0.938   0.475   7.240  2.3017  1.8260  0.0514
  773MOL0     H 4355   0.730   0.527   7.360  0.4950  0.9525 -0.4976
  774MOL0     O 4356  10.193   6.088   1.528 -0.3553  0.2203  0.3823
  774MOL0     C 4357  10.239   6.112   1.419  0.4965 -0.6730  0.6824
  774MOL0     O 4358  10.172   6.093   1.297 -0.1441  0.2724 -0.9499
  774MOL0     C 4359  10.055   6.024   1.299  0.3606 -0.1461 -0.1849
  774MOL0     C 4360  10.020   5.925   1.198 -0.3470 -0.8903  0.3798
  774MOL0     C 4361   9.903   5.865   1.186  0.5676  0.9511  0.7724
  774MOL0     C 4362   9.796   5.895   1.272  0.1986  0.2737  0.2669
  774MOL0     O 4363   9.674   5.828   1.256 -0.2858 -0.5788 -0.2067
  774MOL0     C 4364   9.635   5.752   1.369 -0.4339  0.4644 -0.3992
  774MOL0     C 4365   9.519   5.833   1.430 -0.3310  0.1169 -0.2743
  774MOL0     C 4366   9.397   5.848   1.326 -0.4319  0.4498  0.3722
  774MOL0     C 4367   9.284   5.926   1.394  0.3816 -0.1447 -0.1017
  774MOL0     C 4368   9.186   5.968   1.294 -0.6983 -0.0613  1.1541
  774MOL0     C 4369   9.042   5.988   1.341  0.1518  0.6715 -0.6496
  774MOL0     C 4370   8.943   6.020   1.239  0.0286 -0.2732 -0.4556
  774MOL0     C 4371   8.971   6.152   1.171  0.2403  0.2869 -0.3926
  774MOL0     N 4372   8.844   6.196   1.109 -0.2436 -0.6476 -0.5595
  774MOL0     C 4373   8.804   6.163   0.982  0.5387 -0.0046  0.4214
  774MOL0     C 4374   8.682   6.207   0.971  0.2602  0.3410 -0.0174
  774MOL0     C 4375   8.593   6.195   0.859  0.0404  0.4109  0.4238
  774MOL0     C 4376   8.520   6.059   0.857 -0.0075  0.1100 -0.6704
  774MOL0     C 4377   8.409   6.055   0.756  0.2397 -1.2051  0.1214
  774MOL0     C 4378   8.322   6.184   0.731 -0.0585 -0.7591 -0.1391
  774MOL0     O 4379   8.243   6.197   0.843  0.2323  0.0731  0.2976
  774MOL0     C 4380   8.147   6.294   0.847 -0.5346  0.2669 -0.1009
  774MOL0     C 4381   8.105   6.368   0.733 -1.8025  0.0118  0.4918
  774MOL0     C 4382   8.009   6.470   0.753  0.1830 -0.6133  0.1571
  774MOL0     C 4383   7.946   6.534   0.632  0.0070 -0.2098  0.4657
  774MOL0     C 4384   7.951   6.490   0.884 -0.4468 -0.4506 -0.9196
  774MOL0     C 4385   7.837   6.579   0.917 -0.4605 -0.1289  0.1681
  774MOL0     O 4386   7.828   6.630   1.043  0.1579  0.1389  0.3918
  774MOL0     C 4387   7.702   6.691   1.060  0.8756  0.7603  0.6879
  774MOL0     C 4388   7.599   6.619   1.125 -0.3566  0.3567 -0.8929
  774MOL0     C 4389   7.479   6.675   1.150 -0.7633  0.3757 -0.6318
  774MOL0     C 4390   7.458   6.809   1.114  0.4545  0.5255 -0.5084
  774MOL0     O 4391   7.336   6.874   1.139 -0.4216 -0.2161  0.0115
  774MOL0     C 4392   7.290   6.876   1.278 -0.5838  0.9463 -0.7268
  774MOL0     C 4393   7.134   6.886   1.290  0.0516 -0.3137 -0.1382
  774MOL0     C 4394   7.070   6.824   1.419  0.3746  0.7080 -0.4901
  774MOL0     C 4395   6.919   6.846   1.431 -0.0724 -0.1901 -0.0425
  774MOL0     C 4396   6.864   6.741   1.529 -0.2361  0.0418 -0.4725
  774MOL0     C 4397   6.704   6.733   1.539  0.0391 -0.7601 -0.3320
  774MOL0     C 4398   6.642   6.706   1.397 -0.9383  0.6551 -0.4310
  774MOL0     C 4399   6.491   6.682   1.408 -0.2388 -0.1094  0.0964
  774MOL0    Cl 4400   6.425   6.676   1.237  0.0139 -0.0591  0.4211
  774MOL0     C 4401   7.557   6.874   1.044  0.3957 -1.7078 -0.1766
  774MOL0     C 4402   7.677   6.819   1.021  0.2513 -0.1694 -0.0573
  774MOL0     O 4403   7.758   6.591   0.825  1.1239 -0.1230  0.6241
  774MOL0     C 4404   7.996   6.410   0.982 -0.0721 -0.6772  0.8253
  774MOL0     C 4405   8.087   6.316   0.965 -0.5290 -0.1752 -0.0127
  774MOL0     N 4406   8.646   6.275   1.094 -0.9640 -0.1042  0.3477
  774MOL0     N 4407   8.748   6.262   1.178  0.1020 -0.1190 -1.0450
  774MOL0     C 4408   9.824   5.989   1.367  0.5923  0.8830 -0.6565
  774MOL0     C 4409   9.951   6.051   1.392  0.0553 -0.1071 -0.2356
  774MOL0     C 4410  10.385   6.133   1.412  0.2285  0.3475 -1.0177
  774MOL0     C 4411  10.458   6.188   1.516  0.5522 -0.3784 -0.5993
  774MOL0     C 4412  10.592   6.217   1.499  0.0076 -0.8452 -0.4135
  774MOL0     C 4413  10.653   6.192   1.380  0.4219 -1.1303 -0.0005
  774MOL0     O 4414  10.782   6.216   1.353 -0.4688 -0.4043  0.6024
  774MOL0     C 4415  10.869   6.280   1.441 -0.6023 -0.0738 -0.5041
  774MOL0     C 4416  11.013   6.283   1.391 -0.6755  0.2194  0.2673
  774MOL0     C 4417  11.050   6.144   1.345 -0.6199 -0.1918  0.3594
  774MOL0     C 4418  11.166   6.152   1.245 -0.7025  0.6241  0.3376
  774MOL0     C 4419  11.235   6.021   1.215  0.2541 -0.0389 -0.3814
  774MOL0     C 4420  11.315   5.933   1.192 -0.7018 -0.4264 -0.0706
  774MOL0     C 4421  10.579   6.142   1.276  0.8632  0.1044 -0.1950
  774MOL0     C 4422  10.446   6.097   1.292  0.4718  0.0264  0.3051
  774MOL0     H 4423  10.100   5.901   1.128  0.5747  0.1895  1.0364
  774MOL0     H 4424   9.882   5.795   1.106  0.2692  1.6259  0.2514
  774MOL0     H 4425   9.609   5.655   1.326 -0.4899  0.2006  0.2209
  774MOL0     H 4426   9.710   5.740   1.447  0.0168  0.5416 -0.8170
  774MOL0     H 4427   9.480   5.779   1.517 -1.2731  1.9424  0.4777
  774MOL0     H 4428   9.556   5.929   1.466  0.7402 -1.0321  1.9484
  774MOL0     H 4429   9.427   5.897   1.233 -2.4494  1.3893  0.1459
  774MOL0     H 4430   9.368   5.748   1.292 -2.6781  2.1577 -3.3498
  774MOL0     H 4431   9.233   5.868   1.471 -0.6332  0.1010 -0.5767
  774MOL0     H 4432   9.316   6.019   1.442 -2.7908  0.0287  1.9374
  774MOL0     H 4433   9.214   6.059   1.239 -2.6239 -0.4288 -0.5727
  774MOL0     H 4434   9.191   5.890   1.218 -0.9588  1.2871 -0.3132
  774MOL0     H 4435   9.001   5.901   1.394 -0.5050  0.0101 -2.1729
  774MOL0     H 4436   9.035   6.074   1.408  0.6870  0.0329  0.2472
  774MOL0     H 4437   8.952   5.942   1.163  0.0363  0.2301 -0.9739
  774MOL0     H 4438   8.838   6.022   1.269 -0.3235  0.5744 -1.6735
  774MOL0     H 4439   9.040   6.139   1.087  0.2115  2.0116 -0.7187
  774MOL0     H 4440   9.014   6.225   1.240 -0.5367  1.5387 -1.1789
  774MOL0     H 4441   8.865   6.124   0.901  0.6520 -0.8082  0.8764
  774MOL0     H 4442   8.523   6.278   0.872  0.6816  1.0690 -0.1948
  774MOL0     H 4443   8.657   6.207   0.771  0.2535  1.7211  0.7342
  774MOL0     H 4444   8.475   6.041   0.955  2.1858 -2.2080  0.0019
  774MOL0     H 4445   8.596   5.983   0.837  0.9055  1.8681 -5.0247
  774MOL0     H 4446   8.345   5.970   0.780 -2.5065  0.3168 -1.3738
  774MOL0     H 4447   8.452   6.038   0.657 -2.3545  0.8944 -1.5025
  774MOL0     H 4448   8.262   6.158   0.644 -0.6371  1.2057 -0.3524
  774MOL0     H 4449   8.386   6.269   0.705 -2.1908  1.1992  0.7319
  774MOL0     H 4450   8.136   6.352   0.630  2.0078  0.4400  1.4120
  774MOL0     H 4451   7.843   6.509   0.607 -0.2107  2.0016 -1.2005
  774MOL0     H 4452   7.958   6.643   0.635 -1.5072 -0.0552  1.9458
  774MOL0     H 4453   8.008   6.504   0.547  1.9097  2.4707  0.7566
  774MOL0     H 4454   7.640   6.529   1.170  1.7158  2.4920  1.9238
  774MOL0     H 4455   7.410   6.612   1.206  0.3325 -2.0864 -1.9048
  774MOL0     H 4456   7.319   6.782   1.327  0.6217  2.1456  0.9657
  774MOL0     H 4457   7.322   6.961   1.338  1.5425  1.2108 -2.1151
  774MOL0     H 4458   7.109   6.992   1.279 -0.2351 -0.5416 -2.0306
  774MOL0     H 4459   7.082   6.839   1.206 -2.9941  2.4712 -0.0148
  774MOL0     H 4460   7.123   6.862   1.506  0.4274 -4.2097  1.9631
  774MOL0     H 4461   7.077   6.715   1.412 -2.8322  0.3295  0.5436
  774MOL0     H 4462   6.914   6.946   1.475  1.3791 -0.7694  1.5586
  774MOL0     H 4463   6.861   6.847   1.338  0.9984  0.5253 -0.7310
  774MOL0     H 4464   6.899   6.756   1.631  1.5557 -2.9300 -0.5370
  774MOL0     H 4465   6.895   6.642   1.494  0.9789  0.0944  0.3999
  774MOL0     H 4466   6.678   6.650   1.605  2.5364 -1.7781 -0.5023
  774MOL0     H 4467   6.659   6.818   1.591  2.3895  0.0479  0.5325
  774MOL0     H 4468   6.691   6.616   1.358 -1.0707  0.4023 -0.0181
  774MOL0     H 4469   6.659   6.792   1.331  0.6818 -0.0917 -1.0168
  774MOL0     H 4470   6.429   6.748   1.470  0.0183 -0.1316  0.3796
  774MOL0     H 4471   6.474   6.583   1.451  1.7874  0.3307  2.0866
  774MOL0     H 4472   7.532   6.978   1.024 -0.0703 -0.9928  3.5365
  774MOL0     H 4473   7.753   6.887   0.984 -0.6777  1.0994  0.3174
  774MOL0     H 4474   7.959   6.418   1.084 -2.1182 -2.0320  0.2579
  774MOL0     H 4475   8.122   6.262   1.053 -1.8407 -2.1118 -0.6196
  774MOL0     H 4476   9.747   6.031   1.430  0.5464  0.5384 -0.4813
  774MOL0     H 4477   9.972   6.134   1.459  0.6739 -0.6661  0.2767
  774MOL0     H 4478  10.416   6.215   1.613 -0.9354  0.9383 -1.5717
  774MOL0     H 4479  10.653   6.237   1.588  0.7701 -3.1197 -0.3779
  774MOL0     H 4480  10.830   6.379   1.465  1.0852  0.3767  0.5548
  774MOL0     H 4481  10.872   6.234   1.540 -0.5573 -0.9616 -0.9040
  774MOL0     H 4482  11.077   6.316   1.474 -1.5561  0.6139  0.8045
  774MOL0     H 4483  11.009   6.341   1.299 -4.1081  0.0388  0.1590
  774MOL0     H 4484  10.970   6.089   1.295 -0.0879 -2.5510  1.9557
  774MOL0     H 4485  11.081   6.098   1.439 -0.3566  0.1296  0.4335
  774MOL0     H 4486  11.245   6.220   1.280  0.0645 -1.0437  2.0553
  774MOL0     H 4487  11.135   6.180   1.144  1.7280 -0.2098 -0.7155
  774MOL0     H 4488  11.376   5.845   1.186  1.9701  1.2729  0.5177
  774MOL0     H 4489  10.626   6.122   1.180 -0.5328  0.9760 -1.1057
  774MOL0     H 4490  10.391   6.055   1.209 -1.1298  0.6337  1.0030
  775MOL0     O 4491   7.975   6.293   7.722  0.1432  0.0079 -0.2255
  775MOL0     C 4492   8.035   6.190   7.734  0.1112  0.1526  0.0945
  775MOL0     O 4493   7.976   6.070   7.770 -0.5488 -0.0846  0.0622
  775MOL0     C 4494   7.844   6.059   7.804  0.4673  0.8638  0.0655
  775MOL0     C 4495   7.782   5.940   7.769 -0.1695 -0.0485  0.4994
  775MOL0     C 4496   7.659   5.906   7.824 -0.3250 -0.4010  0.0810
  775MOL0     C 4497   7.593   5.996   7.910 -0.0479  0.0668  0.1116
  775MOL0     O 4498   7.465   5.962   7.958 -0.0616 -0.4868  0.4127
  775MOL0     C 4499   7.429   5.822   7.948 -0.0773  0.8263  0.0548
  775MOL0     C 4500   7.324   5.792   8.057 -0.5011  0.6476  0.9928
  775MOL0     C 4501   7.187   5.851   8.024  0.4920 -0.0039 -0.5033
  775MOL0     C 4502   7.087   5.816   8.138  0.4263 -0.4568 -0.7694
  775MOL0     C 4503   6.946   5.888   8.132  0.1493 -0.4883 -0.0223
  775MOL0     C 4504   6.858   5.856   8.007  0.2444  0.5118  0.3418
  775MOL0     C 4505   6.741   5.948   7.981 -0.6719  0.2387  0.9352
  775MOL0     C 4506   6.672   5.914   7.844  0.1244  0.0634 -0.0525
  775MOL0     N 4507   6.545   5.982   7.845 -1.7040 -0.1653  0.1056
  775MOL0     C 4508   6.425   5.926   7.894  0.0438 -0.3716 -0.1104
  775MOL0     C 4509   6.331   6.021   7.857  0.7798  0.3358 -0.2327
  775MOL0     C 4510   6.183   6.014   7.888 -0.4901  0.1147 -0.0860
  775MOL0     C 4511   6.123   5.890   7.833 -0.1932  0.6646  0.7521
  775MOL0     C 4512   5.986   5.882   7.905  0.9273  0.5566  1.0155
  775MOL0     C 4513   5.897   5.771   7.846 -0.4910  1.0676  0.2428
  775MOL0     O 4514   5.762   5.788   7.895  1.0798 -0.2689  0.2469
  775MOL0     C 4515   5.660   5.726   7.830 -0.9111  0.3479 -0.4535
  775MOL0     C 4516   5.665   5.623   7.730 -0.1229  0.0572 -0.1795
  775MOL0     C 4517   5.544   5.570   7.682 -0.5372  0.7867  0.6329
  775MOL0     C 4518   5.561   5.456   7.588 -0.9344 -0.2802  0.0140
  775MOL0     C 4519   5.414   5.628   7.718  0.2066  0.3321 -0.1635
  775MOL0     C 4520   5.284   5.587   7.667  1.1401  0.2682 -0.5834
  775MOL0     O 4521   5.173   5.658   7.701 -0.2642 -0.3788  0.0384
  775MOL0     C 4522   5.064   5.621   7.631 -0.0876 -0.1801 -0.1633
  775MOL0     C 4523   4.987   5.516   7.675 -0.1621 -0.0351 -0.0293
  775MOL0     C 4524   4.872   5.480   7.610  0.2233  0.2822 -0.0621
  775MOL0     C 4525   4.823   5.554   7.500  0.4673 -0.9278  0.7647
  775MOL0     O 4526   4.701   5.536   7.435 -0.4907  0.7286 -0.8395
  775MOL0     C 4527   4.615   5.434   7.494  0.2382  0.8048  0.5376
  775MOL0     C 4528   4.479   5.438   7.423 -0.3040 -0.2430  0.5945
  775MOL0     C 4529   4.474   5.365   7.289  0.1005 -0.5000 -0.4097
  775MOL0     C 4530   4.333   5.354   7.236 -0.1638  0.5005 -1.2278
  775MOL0     C 4531   4.320   5.266   7.113 -0.3132  0.2944  0.7273
  775MOL0     C 4532   4.176   5.236   7.066 -0.0573 -0.2792  0.7719
  775MOL0     C 4533   4.164   5.112   6.977  1.1045 -1.0852  0.5483
  775MOL0     C 4534   4.051   5.125   6.871 -0.6556  0.4739  0.4513
  775MOL0    Cl 4535   3.899   5.148   6.939  0.2148 -0.0867  0.2278
  775MOL0     C 4536   4.907   5.664   7.463 -1.0782  0.4436  0.3518
  775MOL0     C 4537   5.028   5.698   7.521 -0.7347  0.4555 -0.4649
  775MOL0     O 4538   5.282   5.493   7.592 -0.5080 -0.5145  0.0551
  775MOL0     C 4539   5.415   5.722   7.812  0.9234 -0.0956  0.7094
  775MOL0     C 4540   5.540   5.771   7.866  0.7722  0.4132 -0.2279
  775MOL0     N 4541   6.390   6.118   7.784  0.4358 -0.6602  0.2383
  775MOL0     N 4542   6.518   6.098   7.785 -0.6200  0.0918  0.4131
  775MOL0     C 4543   7.650   6.112   7.943  0.2534 -0.8757 -0.3950
  775MOL0     C 4544   7.782   6.146   7.900  0.3234 -0.1585  0.1703
  775MOL0     C 4545   8.172   6.183   7.669  0.5561  0.1313 -0.6163
  775MOL0     C 4546   8.215   6.284   7.579 -0.2141 -0.6614  1.6134
  775MOL0     C 4547   8.338   6.274   7.522 -0.7486 -0.5323 -0.6284
  775MOL0     C 4548   8.422   6.161   7.549 -0.6635  0.3569  0.5035
  775MOL0     O 4549   8.540   6.127   7.485  0.1558  0.4350  0.3730
  775MOL0     C 4550   8.628   6.233   7.451  0.3958  0.0484  0.3086
  775MOL0     C 4551   8.770   6.194   7.485 -0.3700 -0.3067 -0.4492
  775MOL0     C 4552   8.812   6.093   7.379 -0.6356 -0.0192 -0.0615
  775MOL0     C 4553   8.949   6.048   7.423 -0.1945  0.1075  0.0808
  775MOL0     C 4554   8.989   5.933   7.332 -0.0142  0.0255 -0.5999
  775MOL0     C 4555   9.017   5.826   7.272 -0.8097 -0.6323  0.6728
  775MOL0     C 4556   8.385   6.073   7.647  0.5167 -0.4913  0.2589
  775MOL0     C 4557   8.258   6.082   7.699  1.0588 -0.5264  0.1969
  775MOL0     H 4558   7.827   5.869   7.701 -0.0481 -0.3499  0.8902
  775MOL0     H 4559   7.617   5.813   7.785 -0.3144 -0.4597  0.2071
  775MOL0     H 4560   7.389   5.792   7.851  1.5401 -0.3508 -0.2906
  775MOL0     H 4561   7.513   5.763   7.987  0.7798  1.0606 -1.3688
  775MOL0     H 4562   7.316   5.683   8.061  1.0600  0.3885 -0.9800
  775MOL0     H 4563   7.355   5.832   8.153 -1.0405 -1.0502  1.9238
  775MOL0     H 4564   7.199   5.957   8.004 -0.3864 -0.0398 -1.2904
  775MOL0     H 4565   7.152   5.805   7.931 -1.3177  1.5324 -0.6390
  775MOL0     H 4566   7.073   5.708   8.149  2.2109 -0.6390  0.2888
  775MOL0     H 4567   7.139   5.849   8.229  0.1928 -3.1199  0.4172
  775MOL0     H 4568   6.894   5.847   8.219  1.5272 -2.4549 -0.0695
  775MOL0     H 4569   6.961   5.996   8.147 -1.5633 -0.5740  3.1624
  775MOL0     H 4570   6.920   5.870   7.917 -1.8565  0.6453 -1.1551
  775MOL0     H 4571   6.821   5.753   8.005 -0.0246  0.6072  0.4104
  775MOL0     H 4572   6.669   5.922   8.060  0.6597 -1.2473  1.7201
  775MOL0     H 4573   6.777   6.051   7.986 -0.5031  0.1352  2.0555
  775MOL0     H 4574   6.656   5.806   7.849 -1.1669  0.2899  1.1051
  775MOL0     H 4575   6.735   5.944   7.760  2.1422 -0.8765  1.0410
  775MOL0     H 4576   6.414   5.830   7.943  1.5880 -0.7661 -0.5047
  775MOL0     H 4577   6.158   6.030   7.994  1.6482  0.0519  0.4775
  775MOL0     H 4578   6.138   6.102   7.841  1.8399  1.3376 -0.1857
  775MOL0     H 4579   6.187   5.803   7.851  0.9401  1.7123  2.0205
  775MOL0     H 4580   6.096   5.900   7.727 -3.1207 -0.6092  1.2688
  775MOL0     H 4581   5.937   5.980   7.901  2.1198  1.1429 -1.9528
  775MOL0     H 4582   6.005   5.866   8.012  0.9994 -2.8114  0.5962
  775MOL0     H 4583   5.934   5.669   7.866 -1.0963  0.6262 -0.8331
  775MOL0     H 4584   5.900   5.771   7.737  0.4446 -3.1570  0.0730
  775MOL0     H 4585   5.759   5.578   7.700 -0.5746  1.0905 -3.4674
  775MOL0     H 4586   5.515   5.467   7.490  0.5013 -0.6651 -0.7357
  775MOL0     H 4587   5.667   5.443   7.563 -1.5845 -0.1711 -3.1499
  775MOL0     H 4588   5.508   5.375   7.639 -1.9351 -0.8409 -1.8365
  775MOL0     H 4589   5.012   5.471   7.770 -0.3231 -1.6789 -0.7307
  775MOL0     H 4590   4.801   5.413   7.658 -0.0633  0.6172 -0.0201
  775MOL0     H 4591   4.653   5.331   7.493  3.4868  1.9029 -1.2071
  775MOL0     H 4592   4.597   5.465   7.597 -0.4501  2.7794 -0.1361
  775MOL0     H 4593   4.395   5.398   7.480 -1.2782  1.3139  0.3028
  775MOL0     H 4594   4.459   5.544   7.403 -1.8281 -0.7922 -1.0362
  775MOL0     H 4595   4.519   5.266   7.277 -1.4343 -0.9926 -2.9436
  775MOL0     H 4596   4.523   5.433   7.218  0.4675  0.4122  0.6847
  775MOL0     H 4597   4.256   5.315   7.303 -1.0950  0.2537 -2.3851
  775MOL0     H 4598   4.301   5.456   7.213 -0.8989  0.7790  0.8572
  775MOL0     H 4599   4.366   5.169   7.136  0.4215  0.6312  0.6904
  775MOL0     H 4600   4.379   5.299   7.027 -0.2159 -1.7064 -0.0306
  775MOL0     H 4601   4.115   5.217   7.156 -1.1893  1.9884  0.5851
  775MOL0     H 4602   4.138   5.326   7.016 -0.3247 -0.3095  0.9160
  775MOL0     H 4603   4.164   5.019   7.036  1.5151  0.3236  2.8736
  775MOL0     H 4604   4.253   5.110   6.913  0.7970 -3.5669  0.1068
  775MOL0     H 4605   4.053   5.028   6.821  1.1425 -0.4304  2.1511
  775MOL0     H 4606   4.075   5.209   6.805  3.4634 -0.2005  0.8457
  775MOL0     H 4607   4.864   5.730   7.389 -1.9177 -1.0331 -0.5289
  775MOL0     H 4608   5.080   5.788   7.488 -1.8351  1.4248  0.3575
  775MOL0     H 4609   5.324   5.761   7.856  1.7592  0.4071  2.0504
  775MOL0     H 4610   5.536   5.834   7.954  0.8085 -0.4508  0.4054
  775MOL0     H 4611   7.597   6.179   8.009  0.0577 -0.9056 -0.5219
  775MOL0     H 4612   7.824   6.242   7.930 -3.4100  2.0191 -0.9410
  775MOL0     H 4613   8.135   6.354   7.556 -0.7593 -1.4930  0.9053
  775MOL0     H 4614   8.362   6.350   7.448 -1.4645  2.0551  1.6324
  775MOL0     H 4615   8.614   6.247   7.344  1.2302  1.2786  0.3409
  775MOL0     H 4616   8.608   6.321   7.513  1.1343  0.4806 -0.0541
  775MOL0     H 4617   8.783   6.153   7.585  3.2899 -0.7770 -0.9796
  775MOL0     H 4618   8.833   6.282   7.469  0.2199 -0.9689 -1.9756
  775MOL0     H 4619   8.827   6.132   7.278 -3.3453 -0.0395 -0.5318
  775MOL0     H 4620   8.745   6.007   7.379 -0.5091 -0.1756  2.1031
  775MOL0     H 4621   8.964   6.023   7.529 -1.2961 -0.7993  0.0448
  775MOL0     H 4622   9.016   6.131   7.400  0.6015  0.2435  2.6288
  775MOL0     H 4623   9.048   5.732   7.230 -1.3434 -0.7157  0.4626
  775MOL0     H 4624   8.449   5.990   7.676 -1.5468 -1.3717  2.6651
  775MOL0     H 4625   8.235   6.004   7.770  1.2249 -2.7701 -2.0521
  776MOL0     O 4626   0.703   4.982   4.941  0.5829  0.5737 -0.8447
  776MOL0     C 4627   0.742   4.934   5.045 -0.3411 -0.1982  0.6715
  776MOL0     O 4628   0.667   4.905   5.154  0.0367 -0.1842 -0.1906
  776MOL0     C 4629   0.532   4.870   5.141  1.0444  0.6628 -0.0434
  776MOL0     C 4630   0.484   4.794   5.032 -0.5611  0.4650 -0.1760
  776MOL0     C 4631   0.348   4.755   5.016  0.8401  0.4834 -0.2253
  776MOL0     C 4632   0.253   4.794   5.112  0.6303  0.0768 -0.1468
  776MOL0     O 4633   0.124   4.744   5.099  0.5645 -0.5550 -0.6803
  776MOL0     C 4634   0.020   4.839   5.144  0.1253  0.5416 -0.8410
  776MOL0     C 4635  -0.100   4.818   5.059  0.1615  0.1926 -0.1093
  776MOL0     C 4636  -0.212   4.919   5.087 -0.4811 -0.4811  0.8550
  776MOL0     C 4637  -0.296   4.890   5.217 -1.0378  0.9592  0.3812
  776MOL0     C 4638  -0.403   4.782   5.214  0.0322  0.0138  0.5023
  776MOL0     C 4639  -0.520   4.813   5.124 -0.0576  0.0892  0.5448
  776MOL0     C 4640  -0.610   4.933   5.154  0.4697 -0.1422 -0.8471
  776MOL0     C 4641  -0.668   4.928   5.296 -0.3630 -0.1061  0.7013
  776MOL0     N 4642  -0.800   4.998   5.302 -0.9086 -0.0906  0.3846
  776MOL0     C 4643  -0.919   4.938   5.251  0.1144 -0.4484 -0.6597
  776MOL0     C 4644  -1.017   5.035   5.267  0.2351 -0.3151 -0.6777
  776MOL0     C 4645  -1.148   5.018   5.199 -0.2533  0.2380  0.0327
  776MOL0     C 4646  -1.240   4.929   5.285  0.7001 -0.7417  0.8782
  776MOL0     C 4647  -1.204   4.778   5.265 -0.4283 -0.2375 -0.3557
  776MOL0     C 4648  -1.303   4.685   5.343  0.6115  1.0961  0.3914
  776MOL0     O 4649  -1.433   4.674   5.283  0.2363  0.1662  0.1398
  776MOL0     C 4650  -1.544   4.664   5.370 -0.0092 -0.2802  0.8630
  776MOL0     C 4651  -1.600   4.772   5.432 -0.0130 -0.1751 -0.0042
  776MOL0     C 4652  -1.707   4.755   5.522  1.0374 -0.2758 -0.0531
  776MOL0     C 4653  -1.754   4.865   5.612  0.7777  0.7286 -0.2489
  776MOL0     C 4654  -1.776   4.627   5.540  0.1808  0.3676 -0.1023
  776MOL0     C 4655  -1.906   4.598   5.615 -0.5810  0.0816 -0.4025
  776MOL0     O 4656  -1.933   4.470   5.624 -0.0562  0.3120 -0.0081
  776MOL0     C 4657  -2.041   4.442   5.701 -0.1306  0.5879  0.1485
  776MOL0     C 4658  -2.038   4.436   5.841  0.5350 -0.2909  0.5722
  776MOL0     C 4659  -2.150   4.385   5.906  0.2552 -0.3176 -0.3721
  776MOL0     C 4660  -2.268   4.350   5.831 -0.3422  0.6246  0.5750
  776MOL0     O 4661  -2.383   4.330   5.905 -0.5685 -0.0137  0.4512
  776MOL0     C 4662  -2.492   4.255   5.845 -0.1928 -0.1955  0.5318
  776MOL0     C 4663  -2.577   4.209   5.962  0.4773  0.5013  0.4705
  776MOL0     C 4664  -2.708   4.136   5.911 -0.4389 -0.5272 -0.1498
  776MOL0     C 4665  -2.791   4.094   6.035  0.2944 -0.0626 -0.0804
  776MOL0     C 4666  -2.932   4.051   6.008 -0.1815 -0.0461  0.1613
  776MOL0     C 4667  -2.948   3.918   5.935  0.6901 -0.0421  0.8023
  776MOL0     C 4668  -3.098   3.879   5.937 -0.2200  0.2673 -0.2751
  776MOL0     C 4669  -3.137   3.732   5.912  0.1976 -0.1769 -0.0583
  776MOL0    Cl 4670  -3.115   3.692   5.742 -0.2129 -0.0278  0.1228
  776MOL0     C 4671  -2.270   4.362   5.691 -0.4482  0.9045  0.1693
  776MOL0     C 4672  -2.149   4.405   5.627  0.6105 -0.8361  0.0228
  776MOL0     O 4673  -1.975   4.684   5.666 -0.1746 -0.0761  0.0903
  776MOL0     C 4674  -1.711   4.519   5.478  0.6737  0.6761 -0.0976
  776MOL0     C 4675  -1.595   4.539   5.404 -0.0274  0.5566  0.1042
  776MOL0     N 4676  -0.964   5.143   5.340  0.3096 -0.7631 -0.2481
  776MOL0     N 4677  -0.839   5.112   5.355  1.0340 -0.3485  0.2194
  776MOL0     C 4678   0.295   4.871   5.220  0.0633 -0.2899 -0.0710
  776MOL0     C 4679   0.434   4.909   5.232  0.1750 -0.1007 -0.5649
  776MOL0     C 4680   0.884   4.903   5.071  0.6485 -0.4914 -0.6817
  776MOL0     C 4681   0.980   4.965   4.982  0.8611 -0.2227 -0.9436
  776MOL0     C 4682   1.118   4.938   5.001 -0.7188 -0.3380  0.7278
  776MOL0     C 4683   1.160   4.851   5.104 -0.2751  0.0547  0.3086
  776MOL0     O 4684   1.293   4.822   5.117  0.1379 -0.0693  0.3170
  776MOL0     C 4685   1.388   4.930   5.143 -0.2505 -0.1589  0.0514
  776MOL0     C 4686   1.517   4.903   5.220 -0.1266  0.8453  0.6869
  776MOL0     C 4687   1.614   4.816   5.135 -0.6075  0.2041  0.3454
  776MOL0     C 4688   1.742   4.790   5.216  0.6927 -0.2029  0.0896
  776MOL0     C 4689   1.845   4.713   5.140 -0.1684  0.0555 -0.0647
  776MOL0     C 4690   1.940   4.660   5.085 -0.6160 -0.5891  0.6845
  776MOL0     C 4691   1.066   4.792   5.191 -0.8033 -1.2881  0.5227
  776MOL0     C 4692   0.931   4.819   5.172  0.9962  0.3900 -0.3347
  776MOL0     H 4693   0.558   4.756   4.963 -0.0171  1.0152  0.0921
  776MOL0     H 4694   0.323   4.699   4.927  0.8573  1.3178 -0.7660
  776MOL0     H 4695  -0.004   4.820   5.248 -0.0256 -2.7455 -1.3677
  776MOL0     H 4696   0.062   4.940   5.148  1.0054  0.1530  2.2575
  776MOL0     H 4697  -0.081   4.839   4.953  2.0732  1.2732  0.3983
  776MOL0     H 4698  -0.147   4.719   5.064 -0.7361  0.6392  0.4115
  776MOL0     H 4699  -0.169   5.018   5.101  2.2007 -1.6720  1.6189
  776MOL0     H 4700  -0.277   4.929   4.999 -0.7238  1.8852  1.2231
  776MOL0     H 4701  -0.228   4.866   5.298 -1.6033  0.1666  0.6353
  776MOL0     H 4702  -0.335   4.991   5.232  0.3575  1.4072  1.1663
  776MOL0     H 4703  -0.352   4.689   5.188 -1.2723 -0.6036  0.0656
  776MOL0     H 4704  -0.431   4.779   5.320 -1.9596  2.0312  0.0923
  776MOL0     H 4705  -0.483   4.833   5.023 -0.5136 -0.8467  0.1834
  776MOL0     H 4706  -0.584   4.724   5.127 -0.7320  0.5146 -0.5525
  776MOL0     H 4707  -0.550   5.024   5.143  0.2264 -0.0156 -1.1343
  776MOL0     H 4708  -0.684   4.921   5.075  0.8288  0.3116 -1.2604
  776MOL0     H 4709  -0.594   4.981   5.356  0.0490  0.5390 -0.3691
  776MOL0     H 4710  -0.678   4.831   5.347  2.2299 -0.8852 -0.1163
  776MOL0     H 4711  -0.930   4.844   5.198 -0.7710  0.0347 -1.3625
  776MOL0     H 4712  -1.185   5.121   5.199  1.1938  0.8842  3.1806
  776MOL0     H 4713  -1.143   4.972   5.100  1.7812 -2.1768  1.1193
  776MOL0     H 4714  -1.343   4.929   5.249  0.6445 -0.9359  1.0350
  776MOL0     H 4715  -1.241   4.961   5.389 -1.6888  0.8880  0.4336
  776MOL0     H 4716  -1.100   4.756   5.290 -0.1201  0.8700 -0.6164
  776MOL0     H 4717  -1.205   4.743   5.161 -2.1114 -3.1250  0.4894
  776MOL0     H 4718  -1.308   4.711   5.449  2.3319  2.8308  0.1104
  776MOL0     H 4719  -1.256   4.586   5.333 -0.7526  0.4781 -0.1196
  776MOL0     H 4720  -1.538   4.861   5.426  0.2766 -0.4348 -1.0963
  776MOL0     H 4721  -1.756   4.837   5.718  0.4633  0.5612 -0.2971
  776MOL0     H 4722  -1.698   4.959   5.605  0.3257  0.9292 -1.3518
  776MOL0     H 4723  -1.855   4.878   5.572 -0.4712 -0.2968  2.3324
  776MOL0     H 4724  -1.954   4.472   5.901 -1.5705  1.5036  2.6945
  776MOL0     H 4725  -2.171   4.382   6.013 -0.4682  4.4488 -0.1866
  776MOL0     H 4726  -2.549   4.320   5.778  0.8504  1.6649  1.3894
  776MOL0     H 4727  -2.446   4.171   5.792  1.7534  0.4906  1.0287
  776MOL0     H 4728  -2.523   4.131   6.017 -1.1964 -1.6465 -0.7669
  776MOL0     H 4729  -2.601   4.289   6.033 -1.6769  1.1017 -0.8363
  776MOL0     H 4730  -2.678   4.060   5.839  3.0782  1.2516 -0.7714
  776MOL0     H 4731  -2.758   4.219   5.861 -0.0037  0.4095  0.9272
  776MOL0     H 4732  -2.731   4.014   6.079  1.4140  1.1542  0.7072
  776MOL0     H 4733  -2.786   4.182   6.100  2.5577 -0.0984 -0.1058
  776MOL0     H 4734  -2.980   4.135   5.956 -1.3373  0.7155  2.3313
  776MOL0     H 4735  -2.983   4.040   6.104 -0.1481 -3.8015 -0.1129
  776MOL0     H 4736  -2.916   3.927   5.831 -3.6857  2.8450 -0.6209
  776MOL0     H 4737  -2.900   3.834   5.985 -2.7744 -3.3795 -0.9473
  776MOL0     H 4738  -3.151   3.946   5.869  0.5327  0.2635 -0.8807
  776MOL0     H 4739  -3.133   3.894   6.040 -1.0419  0.0230 -0.5083
  776MOL0     H 4740  -3.244   3.718   5.929  0.3058 -1.4082 -0.3103
  776MOL0     H 4741  -3.086   3.659   5.976 -0.3231 -0.1348  0.4110
  776MOL0     H 4742  -2.352   4.347   5.621 -1.3699 -2.4540  1.7846
  776MOL0     H 4743  -2.151   4.407   5.518  0.1909 -0.1987  0.0344
  776MOL0     H 4744  -1.757   4.422   5.467 -1.1386  1.2359  1.9164
  776MOL0     H 4745  -1.533   4.461   5.361 -0.9204  0.7288 -1.5951
  776MOL0     H 4746   0.231   4.892   5.305 -1.3640 -0.4737 -1.0579
  776MOL0     H 4747   0.469   4.965   5.318 -2.5144 -0.1606  0.6547
  776MOL0     H 4748   0.944   5.020   4.895  0.3965 -1.6737 -1.6903
  776MOL0     H 4749   1.196   4.980   4.939  0.2322 -0.7286  1.6134
  776MOL0     H 4750   1.425   4.981   5.053  2.4647  2.0428  2.2209
  776MOL0     H 4751   1.331   5.009   5.192 -0.1765  0.0586 -0.2117
  776MOL0     H 4752   1.485   4.847   5.309 -0.9462 -1.0226 -0.7272
  776MOL0     H 4753   1.569   4.997   5.241  1.5990  0.5027 -1.6598
  776MOL0     H 4754   1.636   4.868   5.042  0.8190  1.4963  1.3699
  776MOL0     H 4755   1.565   4.721   5.110  2.2859 -0.4775 -3.6463
  776MOL0     H 4756   1.721   4.730   5.305 -0.9588 -0.7396 -0.6391
  776MOL0     H 4757   1.787   4.886   5.244 -0.7126 -0.0186  1.8641
  776MOL0     H 4758   2.012   4.587   5.053 -0.5670 -2.3441  4.3041
  776MOL0     H 4759   1.111   4.733   5.271  2.9134 -0.6070 -0.8301
  776MOL0     H 4760   0.854   4.776   5.235  1.4837 -1.6924 -1.0789
  777MOL0     O 4761   0.945   6.280   0.940 -0.6678  0.4972 -0.5319
  777MOL0     C 4762   0.996   6.375   0.888 -0.5708 -0.0597  0.4657
  777MOL0     O 4763   0.951   6.502   0.885  0.2000  0.3287  0.0428
  777MOL0     C 4764   0.825   6.535   0.916  1.1565 -0.1436 -0.9317
  777MOL0     C 4765   0.712   6.467   0.876 -0.2020  0.3672  0.0843
  777MOL0     C 4766   0.586   6.509   0.920 -0.2387  0.8130  0.0104
  777MOL0     C 4767   0.572   6.620   1.007  0.6861  0.2379 -0.4515
  777MOL0     O 4768   0.449   6.669   1.042 -0.8266 -0.0114 -0.0781
  777MOL0     C 4769   0.333   6.613   0.988  0.2650  0.2136 -0.3011
  777MOL0     C 4770   0.221   6.654   1.080  0.4420  0.2457 -0.6720
  777MOL0     C 4771   0.086   6.591   1.038  0.2727  0.4264 -0.5063
  777MOL0     C 4772  -0.017   6.665   1.133 -0.3589  0.4749 -0.3180
  777MOL0     C 4773  -0.158   6.609   1.124 -0.4311 -0.2098 -0.2507
  777MOL0     C 4774  -0.250   6.700   1.210 -0.3532 -0.1172  0.0563
  777MOL0     C 4775  -0.392   6.642   1.212  0.5046  0.0816  0.1912
  777MOL0     C 4776  -0.483   6.738   1.281 -0.7404 -0.2078 -1.0884
  777MOL0     N 4777  -0.622   6.698   1.244 -1.1550 -0.6867 -1.0184
  777MOL0     C 4778  -0.688   6.588   1.296  0.0972 -0.5280 -0.0274
  777MOL0     C 4779  -0.812   6.587   1.226 -1.1157  0.1246  0.1149
  777MOL0     C 4780  -0.929   6.491   1.222  0.0487  0.4809 -0.0516
  777MOL0     C 4781  -1.000   6.485   1.354 -1.2894 -0.0021  0.0761
  777MOL0     C 4782  -1.105   6.591   1.354  0.3281  0.1655  0.0610
  777MOL0     C 4783  -1.241   6.535   1.305 -0.6918 -0.1116 -0.0727
  777MOL0     O 4784  -1.295   6.436   1.395  0.8353 -0.9098  0.0409
  777MOL0     C 4785  -1.426   6.410   1.393  0.2262  0.1249 -0.2682
  777MOL0     C 4786  -1.505   6.452   1.295  0.2056 -0.0623 -0.1530
  777MOL0     C 4787  -1.641   6.421   1.289  0.5872 -1.2102 -0.9977
  777MOL0     C 4788  -1.718   6.471   1.166 -0.0511 -0.9891 -0.1827
  777MOL0     C 4789  -1.697   6.348   1.401 -0.3262  0.3129  0.4726
  777MOL0     C 4790  -1.844   6.296   1.408  0.3094 -0.3393 -0.3687
  777MOL0     O 4791  -1.890   6.273   1.535 -0.1371  0.5976 -0.1019
  777MOL0     C 4792  -2.026   6.256   1.557  0.7192  0.3584 -0.3170
  777MOL0     C 4793  -2.074   6.145   1.631 -0.5515  0.0980 -0.1400
  777MOL0     C 4794  -2.210   6.123   1.642 -0.6569 -0.4543 -0.3181
  777MOL0     C 4795  -2.299   6.225   1.598  0.0345  0.1450  0.2433
  777MOL0     O 4796  -2.431   6.213   1.602  0.5518 -0.2026  0.2343
  777MOL0     C 4797  -2.487   6.083   1.650 -0.5124  0.4237 -0.4085
  777MOL0     C 4798  -2.645   6.098   1.661  0.2090  0.6670 -1.1242
  777MOL0     C 4799  -2.714   5.962   1.697 -0.0825 -0.6866  0.0164
  777MOL0     C 4800  -2.861   5.969   1.661 -0.3803  0.2854  0.4400
  777MOL0     C 4801  -2.936   6.088   1.732 -0.7945  0.1865  0.4126
  777MOL0     C 4802  -3.079   6.089   1.694 -0.3955 -0.5078  0.3107
  777MOL0     C 4803  -3.174   6.154   1.790 -0.6264 -0.3252 -0.5745
  777MOL0     C 4804  -3.318   6.128   1.779  0.2152 -0.4796  0.6274
  777MOL0    Cl 4805  -3.397   6.264   1.861  0.1220  0.0214  0.1116
  777MOL0     C 4806  -2.246   6.344   1.530 -0.2671 -0.4040  0.1402
  777MOL0     C 4807  -2.113   6.355   1.510 -0.8988  1.2202  0.4030
  777MOL0     O 4808  -1.912   6.297   1.307 -0.6753 -0.3642  0.1185
  777MOL0     C 4809  -1.610   6.316   1.504  0.3601 -0.2992  0.0298
  777MOL0     C 4810  -1.475   6.340   1.501 -0.2283 -0.4113  0.0430
  777MOL0     N 4811  -0.817   6.704   1.148 -0.0617  0.4194  0.1866
  777MOL0     N 4812  -0.698   6.763   1.148  0.4743  0.6615 -0.0850
  777MOL0     C 4813   0.688   6.682   1.051  0.2497  0.0667 -0.5634
  777MOL0     C 4814   0.814   6.643   1.008  0.4434  0.2239  1.1005
  777MOL0     C 4815   1.127   6.359   0.835 -0.7709  1.1885  0.4190
  777MOL0     C 4816   1.189   6.234   0.839  0.3076 -0.4792 -1.1235
  777MOL0     C 4817   1.319   6.210   0.789  0.2303  0.4031  0.8484
  777MOL0     C 4818   1.390   6.306   0.721  0.0103  0.1804  0.1234
  777MOL0     O 4819   1.507   6.284   0.649  0.0334  0.4421  0.3094
  777MOL0     C 4820   1.530   6.145   0.616 -0.1636 -0.5995  0.0840
  777MOL0     C 4821   1.669   6.130   0.545  1.0072  0.5503 -0.3204
  777MOL0     C 4822   1.786   6.107   0.651  0.3259 -0.1397 -0.6391
  777MOL0     C 4823   1.816   6.230   0.746  0.7043 -0.0845  0.6956
  777MOL0     C 4824   1.928   6.193   0.840 -0.0882  0.6694  0.0797
  777MOL0     C 4825   2.022   6.167   0.912 -0.1831  0.2156  0.2074
  777MOL0     C 4826   1.335   6.433   0.723  0.2431  0.5302  0.0320
  777MOL0     C 4827   1.210   6.463   0.775 -0.2299  0.4518  0.0304
  777MOL0     H 4828   0.722   6.398   0.793 -1.1612 -0.1966  0.4256
  777MOL0     H 4829   0.506   6.459   0.868 -1.1256  3.0905 -0.9703
  777MOL0     H 4830   0.313   6.648   0.886 -2.3567 -3.4324 -1.2254
  777MOL0     H 4831   0.329   6.504   0.999 -3.3425  0.2811  0.0169
  777MOL0     H 4832   0.252   6.613   1.176  0.5255 -1.9156 -1.5636
  777MOL0     H 4833   0.211   6.761   1.099  1.3728  0.1131  0.7441
  777MOL0     H 4834   0.074   6.613   0.932 -0.2365 -1.1063 -0.7902
  777MOL0     H 4835   0.080   6.483   1.049  0.1998  0.6601  2.6273
  777MOL0     H 4836   0.015   6.655   1.237  0.4261 -1.7275 -0.7239
  777MOL0     H 4837  -0.007   6.770   1.103 -1.8903  0.9034  0.5457
  777MOL0     H 4838  -0.195   6.617   1.021 -0.3864 -0.1779 -0.2644
  777MOL0     H 4839  -0.155   6.502   1.147  0.5724  0.4123  2.9322
  777MOL0     H 4840  -0.213   6.710   1.312 -0.4602 -1.0425  0.1955
  777MOL0     H 4841  -0.260   6.801   1.170  0.4050 -0.1759 -0.3077
  777MOL0     H 4842  -0.430   6.630   1.110 -0.1194  1.8788  0.1800
  777MOL0     H 4843  -0.395   6.551   1.273  0.4126 -0.0345  0.0153
  777MOL0     H 4844  -0.465   6.843   1.254 -0.4901 -0.1421 -0.6789
  777MOL0     H 4845  -0.470   6.735   1.390  0.5308  2.7807 -1.0265
  777MOL0     H 4846  -0.648   6.527   1.377  1.8926  3.0556  2.0263
  777MOL0     H 4847  -0.995   6.521   1.140  0.1561  3.9748  1.0074
  777MOL0     H 4848  -0.891   6.392   1.193 -3.4340 -1.6432  1.8388
  777MOL0     H 4849  -0.932   6.505   1.437  0.4546 -1.0841 -1.0273
  777MOL0     H 4850  -1.045   6.385   1.363  1.1350 -1.0592  1.6526
  777MOL0     H 4851  -1.083   6.683   1.299 -0.1536  0.6531  0.6617
  777MOL0     H 4852  -1.106   6.613   1.462  0.8570  3.2462 -0.4725
  777MOL0     H 4853  -1.236   6.506   1.200 -1.2361 -0.7028  0.0590
  777MOL0     H 4854  -1.314   6.617   1.297  0.3743  0.7539 -1.5639
  777MOL0     H 4855  -1.473   6.507   1.208  0.9505 -3.2472 -2.0301
  777MOL0     H 4856  -1.758   6.397   1.096 -1.0292  0.8738 -1.7075
  777MOL0     H 4857  -1.801   6.528   1.208 -0.3440 -1.5140 -0.0431
  777MOL0     H 4858  -1.659   6.540   1.105  0.3370  1.9715  3.1698
  777MOL0     H 4859  -2.010   6.066   1.668 -1.9820 -2.9341 -3.5297
  777MOL0     H 4860  -2.239   6.035   1.699  1.0937  0.0671  1.5266
  777MOL0     H 4861  -2.452   6.010   1.577  0.7788  1.5321 -0.9587
  777MOL0     H 4862  -2.453   6.049   1.748 -2.5782 -0.3101  0.0930
  777MOL0     H 4863  -2.659   6.163   1.747  1.4132 -1.8168  1.0811
  777MOL0     H 4864  -2.686   6.132   1.565 -0.1068  2.7316 -0.2921
  777MOL0     H 4865  -2.694   5.941   1.803 -0.1830 -1.8673 -0.1872
  777MOL0     H 4866  -2.668   5.889   1.631  0.7250  0.2310 -0.4650
  777MOL0     H 4867  -2.879   5.975   1.553 -0.1857 -1.5423  0.2679
  777MOL0     H 4868  -2.915   5.876   1.679 -1.7141  0.7640 -0.8540
  777MOL0     H 4869  -2.888   6.184   1.712  0.5673 -0.0990  2.0148
  777MOL0     H 4870  -2.921   6.069   1.839  1.6465 -0.3626  0.0500
  777MOL0     H 4871  -3.079   6.143   1.598  0.8587 -0.8787  0.0862
  777MOL0     H 4872  -3.114   5.987   1.674 -2.9699  0.8785 -3.5528
  777MOL0     H 4873  -3.151   6.260   1.781  0.1163 -0.5412 -1.3717
  777MOL0     H 4874  -3.143   6.119   1.889 -2.7688  2.9897  1.4695
  777MOL0     H 4875  -3.340   6.025   1.810 -0.5291 -0.9906 -1.4232
  777MOL0     H 4876  -3.358   6.147   1.679 -0.3887 -1.2104  0.7239
  777MOL0     H 4877  -2.310   6.418   1.482 -0.7027 -0.2929  0.8787
  777MOL0     H 4878  -2.067   6.442   1.464  0.2131  0.6068  0.3198
  777MOL0     H 4879  -1.650   6.267   1.592 -1.0301  5.1902  2.9443
  777MOL0     H 4880  -1.411   6.306   1.582  1.2649 -0.4547 -1.1049
  777MOL0     H 4881   0.682   6.758   1.128  0.3115  1.4962 -1.9287
  777MOL0     H 4882   0.908   6.696   1.022  1.4986 -1.7358  2.0163
  777MOL0     H 4883   1.138   6.149   0.884  3.2639 -1.4751  0.6265
  777MOL0     H 4884   1.360   6.110   0.800  1.1856  0.9352  2.4070
  777MOL0     H 4885   1.521   6.065   0.690 -0.8733 -1.5033 -0.9652
  777MOL0     H 4886   1.450   6.120   0.546 -2.0740  2.2606  1.0464
  777MOL0     H 4887   1.697   6.215   0.482  0.7339  0.5426 -0.4534
  777MOL0     H 4888   1.664   6.038   0.487 -0.8023  0.7106 -0.4808
  777MOL0     H 4889   1.875   6.083   0.592  1.9500 -2.0100  2.3092
  777MOL0     H 4890   1.763   6.024   0.719 -0.5977  2.1992  2.1218
  777MOL0     H 4891   1.724   6.247   0.802 -0.3365  1.5315 -1.3852
  777MOL0     H 4892   1.830   6.324   0.691 -0.7223 -0.8146 -1.0206
  777MOL0     H 4893   2.119   6.159   0.956 -0.9929 -0.4212  1.9903
  777MOL0     H 4894   1.380   6.511   0.663  0.5614 -1.0880 -1.9196
  777MOL0     H 4895   1.165   6.561   0.771  1.1789  1.3361  3.2303
  778MOL0     O 4896   6.323   5.838   4.508  0.2086 -0.3951  0.0709
  778MOL0     C 4897   6.401   5.847   4.600  0.5130  0.8273 -0.7826
  778MOL0     O 4898   6.397   5.941   4.701  0.1001 -0.4534 -0.0705
  778MOL0     C 4899   6.285   6.018   4.709  0.4036 -0.5293  0.2541
  778MOL0     C 4900   6.289   6.147   4.755  0.3106  0.2275 -0.5082
  778MOL0     C 4901   6.176   6.221   4.795  0.3115 -0.0677 -0.0361
  778MOL0     C 4902   6.043   6.168   4.774 -0.5580  0.6622  0.2463
  778MOL0     O 4903   5.927   6.236   4.788 -0.2853  0.2294  0.2204
  778MOL0     C 4904   5.917   6.380   4.812  0.0058 -0.1572 -0.0438
  778MOL0     C 4905   5.769   6.424   4.821  0.7383 -1.2076  0.4267
  778MOL0     C 4906   5.685   6.410   4.691  0.3971 -0.0705  0.2326
  778MOL0     C 4907   5.535   6.461   4.702  0.0652  0.5043 -0.0440
  778MOL0     C 4908   5.454   6.436   4.572 -0.2641 -0.8245 -0.0128
  778MOL0     C 4909   5.311   6.497   4.577  0.2411 -0.3324 -0.3590
  778MOL0     C 4910   5.217   6.459   4.455  0.1650  0.4346 -0.5742
  778MOL0     C 4911   5.204   6.312   4.424 -0.2630 -0.4323  0.7028
  778MOL0     N 4912   5.127   6.240   4.527 -0.2898  0.2097  0.0785
  778MOL0     C 4913   5.058   6.292   4.630  0.3485  0.6154  0.2119
  778MOL0     C 4914   5.010   6.179   4.687 -0.3679  0.8462 -0.3657
  778MOL0     C 4915   4.908   6.178   4.800 -0.5096 -0.2544  0.4869
  778MOL0     C 4916   4.771   6.127   4.755  0.0280 -0.3504 -0.6313
  778MOL0     C 4917   4.683   6.139   4.876 -0.1167  0.8981 -0.1896
  778MOL0     C 4918   4.535   6.080   4.861 -0.6468  0.0949  0.5603
  778MOL0     O 4919   4.459   6.180   4.783 -0.5275  0.6705  0.8303
  778MOL0     C 4920   4.323   6.176   4.809 -1.3155 -0.6196  0.6124
  778MOL0     C 4921   4.247   6.081   4.763 -0.7114  0.3544 -0.2871
  778MOL0     C 4922   4.114   6.074   4.781  0.0672  0.0727 -0.2637
  778MOL0     C 4923   4.051   5.950   4.728 -0.3472  0.9203 -0.9170
  778MOL0     C 4924   4.050   6.182   4.851  0.4864 -0.2149  0.4085
  778MOL0     C 4925   3.903   6.201   4.878  0.9942  0.6323 -0.0787
  778MOL0     O 4926   3.862   6.311   4.955 -0.1831 -0.0092 -0.2826
  778MOL0     C 4927   3.727   6.344   4.951 -0.4026 -0.3954  0.1590
  778MOL0     C 4928   3.672   6.399   4.835  0.8028 -1.1232 -0.2535
  778MOL0     C 4929   3.533   6.440   4.814 -0.2596  0.2514 -0.5137
  778MOL0     C 4930   3.458   6.422   4.940  0.6004  0.0746  0.3199
  778MOL0     O 4931   3.328   6.449   4.960  0.1139 -0.2523  0.7009
  778MOL0     C 4932   3.255   6.483   4.832  0.5697 -1.0550  0.2280
  778MOL0     C 4933   3.117   6.525   4.874 -0.0300  0.0446  0.5740
  778MOL0     C 4934   3.037   6.557   4.741  0.4812 -0.1340 -0.3254
  778MOL0     C 4935   2.894   6.603   4.751  0.2133 -0.4490 -0.7709
  778MOL0     C 4936   2.808   6.507   4.838  0.4000  0.1991 -0.1726
  778MOL0     C 4937   2.671   6.566   4.851  0.7448  0.2733 -0.7313
  778MOL0     C 4938   2.579   6.545   4.730  0.3432  0.5406  0.2396
  778MOL0     C 4939   2.447   6.626   4.740  0.5433 -0.0772 -0.3141
  778MOL0    Cl 4940   2.343   6.564   4.613  0.0395  0.2105  0.0527
  778MOL0     C 4941   3.514   6.368   5.058 -0.5528  0.1341  1.3039
  778MOL0     C 4942   3.649   6.330   5.063  0.9693  0.4604 -0.9513
  778MOL0     O 4943   3.826   6.124   4.825 -0.5353  0.4702 -0.0723
  778MOL0     C 4944   4.133   6.292   4.886 -0.1621 -0.6123 -0.3578
  778MOL0     C 4945   4.276   6.287   4.877 -0.8290  0.3093 -0.7133
  778MOL0     N 4946   5.046   6.064   4.617 -0.3477 -0.1599 -0.2131
  778MOL0     N 4947   5.110   6.101   4.518  0.1645 -0.5708  0.2544
  778MOL0     C 4948   6.031   6.034   4.746 -0.5822  0.4057  0.7750
  778MOL0     C 4949   6.154   5.952   4.711  0.1620 -0.4838 -1.4847
  778MOL0     C 4950   6.510   5.744   4.606 -0.2764  0.2284  0.1935
  778MOL0     C 4951   6.604   5.749   4.701 -0.4567  0.1444  0.4405
  778MOL0     C 4952   6.720   5.668   4.676  0.1249  0.1870 -0.7399
  778MOL0     C 4953   6.725   5.567   4.570 -0.8380 -0.2998  0.4227
  778MOL0     O 4954   6.850   5.498   4.563  0.0283 -0.5668 -0.0569
  778MOL0     C 4955   6.890   5.440   4.438 -0.3740 -0.2243 -0.5178
  778MOL0     C 4956   7.014   5.356   4.467 -0.8102  0.1796  0.3469
  778MOL0     C 4957   7.154   5.422   4.508 -0.2585 -0.1267  0.0124
  778MOL0     C 4958   7.270   5.316   4.523  0.2367  0.8575 -0.6977
  778MOL0     C 4959   7.369   5.364   4.618  0.0689 -1.0530  0.3378
  778MOL0     C 4960   7.448   5.401   4.703 -0.1558  0.5501 -0.4073
  778MOL0     C 4961   6.617   5.563   4.479 -0.1123 -0.1796  1.2592
  778MOL0     C 4962   6.517   5.654   4.495  0.6083  0.6589 -0.7412
  778MOL0     H 4963   6.388   6.192   4.762  1.1387 -1.0365 -2.8317
  778MOL0     H 4964   6.172   6.320   4.840 -0.8988  0.2234 -0.7394
  778MOL0     H 4965   5.961   6.408   4.908 -0.0443  1.3101 -0.4240
  778MOL0     H 4966   5.964   6.431   4.727 -2.4832  1.1408 -0.7430
  778MOL0     H 4967   5.714   6.371   4.899 -2.8693 -2.7792 -2.8620
  778MOL0     H 4968   5.769   6.532   4.840 -1.8911 -1.3315  1.5299
  778MOL0     H 4969   5.737   6.472   4.616  0.2805  0.3912  0.5272
  778MOL0     H 4970   5.685   6.304   4.667 -1.6668 -0.5391  2.0426
  778MOL0     H 4971   5.467   6.411   4.771 -0.8322  2.5257  0.6276
  778MOL0     H 4972   5.548   6.565   4.733  0.4572  0.0833  1.2341
  778MOL0     H 4973   5.510   6.471   4.485 -1.3918  1.6939  0.1924
  778MOL0     H 4974   5.449   6.327   4.575 -1.1948 -0.7850  3.1390
  778MOL0     H 4975   5.259   6.459   4.665  2.2126 -0.0071  1.0135
  778MOL0     H 4976   5.311   6.607   4.579  0.0479 -0.2328 -2.8773
  778MOL0     H 4977   5.118   6.505   4.471  0.2369  0.0908  0.9781
  778MOL0     H 4978   5.251   6.510   4.364 -1.2913  2.6626  0.0394
  778MOL0     H 4979   5.302   6.265   4.406 -0.7543 -0.3670 -3.0170
  778MOL0     H 4980   5.153   6.307   4.327  1.0907  1.3210 -0.1717
  778MOL0     H 4981   5.036   6.394   4.660  3.1803  2.1030 -2.3216
  778MOL0     H 4982   4.952   6.114   4.877  0.2751 -0.8079 -0.3937
  778MOL0     H 4983   4.901   6.281   4.834 -1.5174 -0.0519 -0.2792
  778MOL0     H 4984   4.782   6.020   4.735  2.4866 -0.5899  1.5356
  778MOL0     H 4985   4.729   6.185   4.672  1.5278  1.3218 -0.2848
  778MOL0     H 4986   4.675   6.240   4.916 -1.9951  0.9206 -0.5032
  778MOL0     H 4987   4.728   6.074   4.951 -0.1713 -0.6249 -1.4150
  778MOL0     H 4988   4.496   6.063   4.962 -0.6671  0.9760  0.7041
  778MOL0     H 4989   4.541   5.991   4.798  3.5253  0.3740  0.2662
  778MOL0     H 4990   4.308   5.996   4.732 -0.2363 -0.3796  2.4662
  778MOL0     H 4991   4.110   5.896   4.654 -0.5180  1.2224 -1.2755
  778MOL0     H 4992   4.022   5.886   4.812 -1.7827 -0.2962 -2.2859
  778MOL0     H 4993   3.956   5.969   4.678  0.4169  1.7579 -2.0987
  778MOL0     H 4994   3.726   6.406   4.741 -1.0240 -2.1613 -1.4523
  778MOL0     H 4995   3.498   6.485   4.721  0.0650  0.8222 -0.3618
  778MOL0     H 4996   3.296   6.573   4.784 -1.9482 -0.2477 -0.5730
  778MOL0     H 4997   3.260   6.406   4.754 -0.1872  0.5566 -1.5067
  778MOL0     H 4998   3.080   6.438   4.928 -0.5632  1.5027  2.7192
  778MOL0     H 4999   3.124   6.607   4.947 -1.6933  0.9537 -0.2207
  778MOL0     H 5000   3.036   6.463   4.685 -1.6674  1.1487 -2.6410
  778MOL0     H 5001   3.100   6.630   4.689  2.1208 -0.4640  1.1104
  778MOL0     H 5002   2.888   6.704   4.792 -1.2130 -1.2789  1.2527
  778MOL0     H 5003   2.840   6.606   4.655  0.1543 -0.3138 -0.7326
  778MOL0     H 5004   2.861   6.487   4.932  0.7483  1.3287 -0.1145
  778MOL0     H 5005   2.815   6.413   4.784  2.3547  0.4431 -0.3930
  778MOL0     H 5006   2.624   6.541   4.946  1.3191 -0.1704 -0.5590
  778MOL0     H 5007   2.673   6.675   4.859 -1.9263  0.2539  1.6857
  778MOL0     H 5008   2.549   6.441   4.716  0.8825  0.4378 -0.1755
  778MOL0     H 5009   2.643   6.563   4.643  1.3944 -2.4688  0.2771
  778MOL0     H 5010   2.451   6.735   4.732 -3.4898  0.4120  1.8520
  778MOL0     H 5011   2.405   6.602   4.838  1.0406  0.6060  0.0770
  778MOL0     H 5012   3.450   6.356   5.144 -0.6611 -2.3981  0.9463
  778MOL0     H 5013   3.693   6.277   5.146  1.4705 -0.1658 -1.6006
  778MOL0     H 5014   4.084   6.374   4.937 -0.7892 -0.9844 -0.3611
  778MOL0     H 5015   4.331   6.372   4.914 -1.4603 -0.4330  2.1549
  778MOL0     H 5016   5.927   6.001   4.749 -0.4793 -1.2189 -4.2067
  778MOL0     H 5017   6.154   5.844   4.699  1.0433 -0.6471 -0.2147
  778MOL0     H 5018   6.602   5.822   4.782  0.5540  1.6958 -0.8605
  778MOL0     H 5019   6.790   5.678   4.758 -2.6462 -0.6832  1.9585
  778MOL0     H 5020   6.813   5.375   4.395 -1.7355 -0.8099  2.5691
  778MOL0     H 5021   6.914   5.524   4.372  1.9018  0.6860  1.3146
  778MOL0     H 5022   7.041   5.301   4.377 -2.9709  0.2019 -0.3783
  778MOL0     H 5023   7.006   5.285   4.550  0.9566  0.8264  1.1169
  778MOL0     H 5024   7.139   5.477   4.602 -2.9030 -1.2368  0.3248
  778MOL0     H 5025   7.192   5.493   4.435 -1.2777  0.9093  0.4605
  778MOL0     H 5026   7.306   5.284   4.425 -2.3740 -1.9783 -0.8553
  778MOL0     H 5027   7.225   5.227   4.567  0.5759  1.6151  1.3014
  778MOL0     H 5028   7.514   5.438   4.779  2.1092  1.0656 -2.4780
  778MOL0     H 5029   6.617   5.500   4.391 -0.5428  3.1995 -1.3397
  778MOL0     H 5030   6.440   5.656   4.420  0.9977  0.8115 -1.1414
  779MOL0     O 5031   5.606   7.114   7.586  0.3056 -0.0262  0.1072
  779MOL0     C 5032   5.677   7.034   7.646  0.0567 -0.2402 -0.0465
  779MOL0     O 5033   5.632   6.933   7.716  0.2314 -0.2419 -0.1752
  779MOL0     C 5034   5.499   6.920   7.748 -0.8830  0.1935  0.6850
  779MOL0     C 5035   5.406   6.895   7.647  0.3415  0.3743 -0.1669
  779MOL0     C 5036   5.273   6.855   7.686 -0.9538 -0.0224  0.6790
  779MOL0     C 5037   5.242   6.832   7.821  0.1169  0.1840 -0.2951
  779MOL0     O 5038   5.112   6.803   7.871 -0.2386  0.5348 -0.1501
  779MOL0     C 5039   5.026   6.717   7.795 -0.5265 -0.4164 -0.2026
  779MOL0     C 5040   4.928   6.804   7.715 -0.1093 -0.1578 -0.1322
  779MOL0     C 5041   4.802   6.843   7.796  0.6231 -1.2552 -0.5351
  779MOL0     C 5042   4.711   6.944   7.722 -0.6136 -0.1302 -0.4984
  779MOL0     C 5043   4.584   6.975   7.805 -0.0160  0.3626  0.1403
  779MOL0     C 5044   4.498   7.077   7.733 -0.1224  0.2996  0.5711
  779MOL0     C 5045   4.351   7.063   7.777  0.2806  0.3913  0.5223
  779MOL0     C 5046   4.264   7.128   7.661 -0.3352 -0.1028 -0.3446
  779MOL0     N 5047   4.125   7.131   7.704  0.6082 -0.2557  0.1769
  779MOL0     C 5048   4.046   7.242   7.732 -0.0372  0.5234  0.1726
  779MOL0     C 5049   3.927   7.195   7.764  1.2348  0.1312 -0.5200
  779MOL0     C 5050   3.795   7.269   7.810 -0.5717  1.2260  0.1481
  779MOL0     C 5051   3.674   7.194   7.754 -0.7288 -0.1737  0.3414
  779MOL0     C 5052   3.550   7.266   7.805  0.2763 -0.4415  0.4115
  779MOL0     C 5053   3.423   7.210   7.735  0.1515 -1.1726 -0.4781
  779MOL0     O 5054   3.323   7.315   7.771  0.2671 -0.4484 -0.2924
  779MOL0     C 5055   3.187   7.281   7.767 -0.1737  0.1573  0.3760
  779MOL0     C 5056   3.101   7.379   7.730  0.1135  0.3454 -0.2192
  779MOL0     C 5057   2.961   7.351   7.710 -0.4185  0.6432 -0.1849
  779MOL0     C 5058   2.883   7.463   7.682 -0.3750 -0.6634  0.7736
  779MOL0     C 5059   2.915   7.219   7.729  0.2591  0.1359 -0.0412
  779MOL0     C 5060   2.771   7.174   7.709 -0.1179  0.4116 -1.0618
  779MOL0     O 5061   2.753   7.036   7.661 -0.2090 -0.4159 -0.7110
  779MOL0     C 5062   2.632   6.980   7.630  0.0103 -0.6815  0.3590
  779MOL0     C 5063   2.531   7.038   7.551  0.4767  0.0717  0.3442
  779MOL0     C 5064   2.416   6.970   7.523  0.0525 -1.5038 -0.6058
  779MOL0     C 5065   2.400   6.842   7.570 -0.0346  0.6043 -0.5263
  779MOL0     O 5066   2.293   6.774   7.525  0.5000  0.1196 -1.3222
  779MOL0     C 5067   2.233   6.674   7.617  0.2040 -0.0311 -0.7856
  779MOL0     C 5068   2.089   6.640   7.582 -0.5610  0.2802 -0.2050
  779MOL0     C 5069   2.028   6.535   7.678 -0.4195  0.1821  0.6545
  779MOL0     C 5070   1.885   6.491   7.637 -0.7421 -0.0209  0.4503
  779MOL0     C 5071   1.826   6.371   7.722 -0.6933  0.2461 -0.7173
  779MOL0     C 5072   1.690   6.343   7.660  0.6375  0.5778 -0.0351
  779MOL0     C 5073   1.615   6.238   7.747 -0.5580  0.2167  0.5591
  779MOL0     C 5074   1.483   6.191   7.698  0.3906  0.0810  0.6091
  779MOL0    Cl 5075   1.410   6.087   7.821  0.4844  0.0271  0.0862
  779MOL0     C 5076   2.489   6.792   7.674  0.7370 -0.2831 -0.0444
  779MOL0     C 5077   2.609   6.860   7.689 -0.7321 -0.2366 -0.3098
  779MOL0     O 5078   2.678   7.246   7.752 -0.0615 -0.0803  0.2485
  779MOL0     C 5079   2.999   7.118   7.770 -1.5971 -1.2578  0.3964
  779MOL0     C 5080   3.137   7.152   7.786  0.1672  0.0972 -0.0899
  779MOL0     N 5081   3.932   7.059   7.759 -0.3021  0.0699  0.3687
  779MOL0     N 5082   4.047   7.024   7.718 -0.1362  0.0573  0.1577
  779MOL0     C 5083   5.340   6.858   7.916  0.7598  0.2399 -0.6159
  779MOL0     C 5084   5.468   6.896   7.875 -0.3465  0.4223  1.2497
  779MOL0     C 5085   5.823   7.042   7.622 -0.0992 -0.0188  0.2375
  779MOL0     C 5086   5.913   6.945   7.661  0.1093  0.3475 -0.0467
  779MOL0     C 5087   6.054   6.950   7.660  0.1822 -0.6551  0.2416
  779MOL0     C 5088   6.111   7.063   7.596  0.0313  0.2381  0.0267
  779MOL0     O 5089   6.247   7.087   7.587 -0.1882 -0.3466 -0.0447
  779MOL0     C 5090   6.326   7.124   7.706  1.0533  0.1423 -0.4983
  779MOL0     C 5091   6.467   7.160   7.665 -0.3845 -0.9201 -0.6113
  779MOL0     C 5092   6.537   7.026   7.630 -0.2754 -0.6652  0.2295
  779MOL0     C 5093   6.670   7.053   7.574  0.7624  0.0240 -0.2525
  779MOL0     C 5094   6.721   6.926   7.519 -0.7158 -0.5487 -0.9752
  779MOL0     C 5095   6.777   6.832   7.476 -0.9094  0.1209  0.7069
  779MOL0     C 5096   6.024   7.156   7.539 -0.4691 -0.5872  0.7727
  779MOL0     C 5097   5.885   7.150   7.550  0.3909 -0.6961  0.5848
  779MOL0     H 5098   5.430   6.901   7.541 -2.0916 -0.1423 -0.7977
  779MOL0     H 5099   5.195   6.844   7.611 -0.5721 -0.6183  0.3620
  779MOL0     H 5100   5.084   6.654   7.728  1.0988 -0.7217  1.4138
  779MOL0     H 5101   4.966   6.656   7.863 -0.8230  0.5672  0.4544
  779MOL0     H 5102   4.974   6.896   7.677  0.3495  0.5810  2.0166
  779MOL0     H 5103   4.901   6.734   7.636 -1.1428 -2.2132  1.9064
  779MOL0     H 5104   4.752   6.751   7.828 -1.1673  0.7567  3.1824
  779MOL0     H 5105   4.830   6.898   7.887  0.6569 -2.1025 -0.0134
  779MOL0     H 5106   4.768   7.035   7.705  0.1768 -0.4638  0.2875
  779MOL0     H 5107   4.673   6.894   7.633 -1.8798 -3.2082  1.5875
  779MOL0     H 5108   4.536   6.877   7.797  0.0637  0.0796  2.5750
  779MOL0     H 5109   4.601   7.013   7.906 -0.4209  3.3579 -0.8062
  779MOL0     H 5110   4.545   7.174   7.750  2.0364 -0.1334 -2.2574
  779MOL0     H 5111   4.506   7.059   7.626  1.9006 -0.4619  0.8249
  779MOL0     H 5112   4.321   6.958   7.775 -2.8142  1.1516  1.5431
  779MOL0     H 5113   4.334   7.112   7.873 -2.6956 -1.0210  0.8093
  779MOL0     H 5114   4.271   7.074   7.567 -1.4738  2.3990 -1.9668
  779MOL0     H 5115   4.297   7.233   7.661 -1.0549  0.3337  3.8865
  779MOL0     H 5116   4.068   7.349   7.732 -0.6358  0.6639 -1.4776
  779MOL0     H 5117   3.784   7.289   7.917 -3.2431 -0.2781  0.2347
  779MOL0     H 5118   3.804   7.367   7.762  0.6764  0.1218 -2.0365
  779MOL0     H 5119   3.666   7.092   7.794 -5.1137 -0.8954 -1.7993
  779MOL0     H 5120   3.677   7.191   7.645  1.6906 -2.9358  0.3495
  779MOL0     H 5121   3.559   7.367   7.765  1.0052 -1.0252 -0.9439
  779MOL0     H 5122   3.541   7.265   7.914 -0.8889  0.0953  0.3420
  779MOL0     H 5123   3.388   7.108   7.754 -2.2128 -0.7583 -2.0873
  779MOL0     H 5124   3.436   7.206   7.626 -3.1639 -2.8873 -0.9666
  779MOL0     H 5125   3.143   7.478   7.713  2.7012 -1.0643 -3.0550
  779MOL0     H 5126   2.860   7.531   7.765 -0.5571  0.8270 -0.4466
  779MOL0     H 5127   2.943   7.518   7.609  0.1703 -0.1436  1.6067
  779MOL0     H 5128   2.791   7.428   7.633 -0.0911 -2.9078  1.7449
  779MOL0     H 5129   2.536   7.138   7.510 -3.4011  0.2007 -0.1788
  779MOL0     H 5130   2.352   7.023   7.454 -1.0984 -0.4455  1.2174
  779MOL0     H 5131   2.287   6.579   7.618 -1.9656 -1.4233  2.3674
  779MOL0     H 5132   2.232   6.714   7.719  2.5625 -0.9544 -0.3493
  779MOL0     H 5133   2.032   6.733   7.587 -0.5192  0.3417 -0.7952
  779MOL0     H 5134   2.089   6.599   7.481 -1.7441 -0.4544  0.0680
  779MOL0     H 5135   2.024   6.578   7.778  3.3632  3.4040 -0.3256
  779MOL0     H 5136   2.100   6.453   7.679 -1.4507 -0.7521  2.0376
  779MOL0     H 5137   1.825   6.581   7.649  1.6204  1.6867  0.2488
  779MOL0     H 5138   1.878   6.478   7.529 -4.3556  0.2454  0.5388
  779MOL0     H 5139   1.828   6.394   7.829  0.8434 -3.7697  0.3060
  779MOL0     H 5140   1.887   6.282   7.705  0.7982  1.4516 -2.0508
  779MOL0     H 5141   1.639   6.439   7.652  1.7305  1.2653  0.9399
  779MOL0     H 5142   1.701   6.299   7.560  2.2603  1.5591 -0.3217
  779MOL0     H 5143   1.598   6.290   7.842  0.6889  2.2909 -0.2907
  779MOL0     H 5144   1.680   6.151   7.761 -2.5631 -1.5811 -0.6263
  779MOL0     H 5145   1.489   6.139   7.601 -3.5372  0.8703 -0.2428
  779MOL0     H 5146   1.428   6.282   7.672  0.4221 -0.1889 -0.4755
  779MOL0     H 5147   2.479   6.691   7.712 -2.7750 -1.0364 -2.4604
  779MOL0     H 5148   2.687   6.809   7.745 -0.7652 -0.4337 -0.4431
  779MOL0     H 5149   2.964   7.017   7.782  1.3800 -2.5087 -0.4902
  779MOL0     H 5150   3.203   7.077   7.827 -0.9699 -0.7130  0.3162
  779MOL0     H 5151   5.319   6.848   8.022 -1.5118  0.4424 -0.9945
  779MOL0     H 5152   5.546   6.903   7.950 -0.6534  0.9801  1.5224
  779MOL0     H 5153   5.879   6.851   7.705 -1.7128  1.4295  0.9821
  779MOL0     H 5154   6.125   6.881   7.704 -0.3605 -1.8456 -0.6760
  779MOL0     H 5155   6.277   7.203   7.765 -1.5106 -2.3736  0.9885
  779MOL0     H 5156   6.331   7.036   7.770  1.8835  1.8976  1.9805
  779MOL0     H 5157   6.521   7.196   7.753  1.1589  0.0019 -1.8736
  779MOL0     H 5158   6.474   7.242   7.593  0.7865  0.9692  1.5153
  779MOL0     H 5159   6.468   6.964   7.573 -0.2540  0.5522 -1.1613
  779MOL0     H 5160   6.558   6.965   7.718 -0.9887 -0.0516  0.8460
  779MOL0     H 5161   6.739   7.082   7.653  0.9740  1.0005 -0.7813
  779MOL0     H 5162   6.659   7.133   7.500 -3.3912 -1.7273 -1.8596
  779MOL0     H 5163   6.814   6.756   7.410 -3.3467  0.2654 -0.9729
  779MOL0     H 5164   6.072   7.222   7.467 -0.2025 -2.2990 -0.6747
  779MOL0     H 5165   5.823   7.222   7.497 -0.2871 -1.6853  0.0070
  780MOL0     O 5166   3.084   5.299   2.117  0.3586  0.5832 -1.1901
  780MOL0     C 5167   3.165   5.389   2.089 -0.6515 -0.3163 -0.5348
  780MOL0     O 5168   3.132   5.513   2.048 -0.2266 -0.5128  0.1340
  780MOL0     C 5169   3.002   5.569   2.059 -0.7429  0.0624 -0.1213
  780MOL0     C 5170   2.971   5.666   1.968 -0.2277  0.9873 -0.3712
  780MOL0     C 5171   2.839   5.712   1.959 -0.4005 -0.7105  0.0316
  780MOL0     C 5172   2.751   5.691   2.061 -0.4953  0.2026 -0.1326
  780MOL0     O 5173   2.620   5.739   2.070  0.3500 -0.2615  0.0865
  780MOL0     C 5174   2.549   5.774   1.954 -0.0138 -0.5433  0.5301
  780MOL0     C 5175   2.433   5.670   1.927 -0.1652  0.4764  0.4864
  780MOL0     C 5176   2.331   5.680   2.038 -0.0888  0.7101 -0.2009
  780MOL0     C 5177   2.219   5.584   2.026  0.2556 -0.4992  0.4736
  780MOL0     C 5178   2.101   5.605   2.131 -0.4054 -0.7231  0.9662
  780MOL0     C 5179   1.998   5.495   2.109  0.3257  0.2064 -0.0378
  780MOL0     C 5180   1.891   5.495   2.215  0.4660 -0.0070  0.8702
  780MOL0     C 5181   1.781   5.594   2.178 -0.0612  0.6990 -0.6623
  780MOL0     N 5182   1.673   5.587   2.282  0.3040 -0.1892  0.7954
  780MOL0     C 5183   1.543   5.545   2.242 -0.2327 -0.4251 -0.1107
  780MOL0     C 5184   1.463   5.587   2.349 -0.2465  0.7426  0.6540
  780MOL0     C 5185   1.309   5.579   2.343  0.5700 -0.3341 -0.2320
  780MOL0     C 5186   1.255   5.444   2.387 -0.5754  0.2593  0.5544
  780MOL0     C 5187   1.105   5.464   2.377  0.4223  0.0325 -0.2916
  780MOL0     C 5188   1.031   5.326   2.398 -0.0177 -0.8875  0.2544
  780MOL0     O 5189   1.051   5.241   2.289  0.3788  0.4652  0.1984
  780MOL0     C 5190   0.972   5.120   2.275  0.1848  0.0047  0.2669
  780MOL0     C 5191   0.875   5.076   2.365  0.2011  0.3596 -0.3243
  780MOL0     C 5192   0.816   4.951   2.345 -0.1388 -0.3320 -0.7944
  780MOL0     C 5193   0.716   4.898   2.452  0.4689  0.9597 -0.3170
  780MOL0     C 5194   0.839   4.874   2.230  0.0578 -0.5763 -0.2627
  780MOL0     C 5195   0.772   4.747   2.218 -0.0227  0.2607  0.3149
  780MOL0     O 5196   0.834   4.636   2.278 -0.1143 -0.3869  0.4664
  780MOL0     C 5197   0.761   4.520   2.267  0.7741 -1.1358 -0.0396
  780MOL0     C 5198   0.744   4.459   2.145 -0.2956  0.1211 -0.8076
  780MOL0     C 5199   0.684   4.337   2.135  0.8003 -0.0745 -0.8027
  780MOL0     C 5200   0.632   4.275   2.244  0.7742  0.6834 -0.1516
  780MOL0     O 5201   0.584   4.142   2.214  0.1839 -0.4645 -0.1508
  780MOL0     C 5202   0.565   4.056   2.328 -0.7592 -0.5592 -0.4562
  780MOL0     C 5203   0.561   3.906   2.298  0.2085  0.0772 -0.8811
  780MOL0     C 5204   0.694   3.850   2.271 -0.5662 -0.4427  0.1754
  780MOL0     C 5205   0.788   3.827   2.392  1.0546  0.2828  0.8803
  780MOL0     C 5206   0.750   3.701   2.460  0.5802 -0.2261 -0.4085
  780MOL0     C 5207   0.784   3.576   2.391 -0.7653 -0.6110 -0.3948
  780MOL0     C 5208   0.740   3.445   2.470 -0.4397 -0.9888  0.5274
  780MOL0     C 5209   0.840   3.331   2.451 -0.6751 -0.1575  0.2743
  780MOL0    Cl 5210   0.995   3.365   2.545 -0.5571 -0.2533  0.3227
  780MOL0     C 5211   0.641   4.340   2.371  1.0733  0.1852 -0.1792
  780MOL0     C 5212   0.702   4.470   2.384 -0.6703  0.4681  0.7191
  780MOL0     O 5213   0.666   4.737   2.150 -0.3406 -0.3518 -0.1114
  780MOL0     C 5214   0.934   4.918   2.132 -0.5635 -0.3849 -0.5816
  780MOL0     C 5215   0.998   5.042   2.163 -0.0984 -0.8471  0.5169
  780MOL0     N 5216   1.549   5.639   2.445  0.5340  0.0451  0.5252
  780MOL0     N 5217   1.672   5.639   2.405 -0.0636 -0.2329 -0.6686
  780MOL0     C 5218   2.800   5.608   2.163  1.3709  0.8553 -0.3599
  780MOL0     C 5219   2.922   5.541   2.164  1.0436  0.0967 -0.1053
  780MOL0     C 5220   3.312   5.357   2.106  0.2288  0.1615  0.3849
  780MOL0     C 5221   3.358   5.262   2.197  0.0909  0.2177 -0.7906
  780MOL0     C 5222   3.494   5.231   2.215  0.2754 -0.4436 -0.6313
  780MOL0     C 5223   3.593   5.308   2.143 -0.6251 -0.6642 -0.5803
  780MOL0     O 5224   3.731   5.302   2.155  0.3739 -0.3063  0.0253
  780MOL0     C 5225   3.795   5.218   2.252 -0.6882 -0.4125  0.1334
  780MOL0     C 5226   3.930   5.196   2.194 -0.3243  0.2129  0.1512
  780MOL0     C 5227   4.036   5.125   2.297  0.3303  0.2987  0.6750
  780MOL0     C 5228   4.066   5.194   2.430 -0.6862 -0.1285 -1.0964
  780MOL0     C 5229   4.162   5.099   2.499  0.0059  0.5036  0.2489
  780MOL0     C 5230   4.222   5.008   2.555  0.3297 -0.7076  0.1538
  780MOL0     C 5231   3.540   5.405   2.061  0.0380 -0.3576  0.8632
  780MOL0     C 5232   3.406   5.432   2.036 -1.0841 -0.0456 -0.2855
  780MOL0     H 5233   3.055   5.696   1.906  1.2993 -0.7537  0.7426
  780MOL0     H 5234   2.825   5.763   1.865 -0.9513 -0.3141  0.3197
  780MOL0     H 5235   2.500   5.869   1.978 -0.5142 -1.1508  2.0517
  780MOL0     H 5236   2.610   5.795   1.866 -1.9978  1.5889 -0.4336
  780MOL0     H 5237   2.385   5.693   1.832  0.0141  0.8144  0.4750
  780MOL0     H 5238   2.473   5.571   1.904  2.6713  2.0967 -2.3456
  780MOL0     H 5239   2.380   5.676   2.135  1.3987 -1.1387 -0.9787
  780MOL0     H 5240   2.285   5.780   2.036 -2.8081 -0.3095  2.8670
  780MOL0     H 5241   2.178   5.607   1.927 -0.8493 -2.6374  0.3949
  780MOL0     H 5242   2.271   5.488   2.033  1.0274 -0.1462 -0.2077
  780MOL0     H 5243   2.145   5.592   2.231 -2.1586 -1.1514  1.7162
  780MOL0     H 5244   2.060   5.706   2.118  2.8471  0.5828 -0.0985
  780MOL0     H 5245   1.960   5.490   2.007  1.8596  0.9693 -0.6758
  780MOL0     H 5246   2.053   5.401   2.120  0.9786  0.3846 -1.5687
  780MOL0     H 5247   1.846   5.395   2.212  1.2954 -0.4606  2.4825
  780MOL0     H 5248   1.936   5.516   2.312  1.8584  0.4806  0.1496
  780MOL0     H 5249   1.742   5.569   2.079 -1.0336 -2.2398  0.3444
  780MOL0     H 5250   1.831   5.690   2.194 -1.6054  0.9655  4.1511
  780MOL0     H 5251   1.505   5.508   2.147 -1.4083 -0.4875  0.3691
  780MOL0     H 5252   1.268   5.665   2.396 -1.8945  1.9564 -5.2393
  780MOL0     H 5253   1.279   5.594   2.239 -0.8150  1.2955  0.3590
  780MOL0     H 5254   1.289   5.414   2.487 -1.0788 -1.2113  0.3205
  780MOL0     H 5255   1.284   5.370   2.311  1.9536 -0.4167  2.0436
  780MOL0     H 5256   1.072   5.501   2.279  1.8677  1.8401 -0.1606
  780MOL0     H 5257   1.074   5.534   2.455  2.9162  0.5202  0.3645
  780MOL0     H 5258   0.924   5.351   2.399 -0.3468 -1.6500 -3.4007
  780MOL0     H 5259   1.057   5.279   2.493  1.5337 -3.7027 -1.4418
  780MOL0     H 5260   0.850   5.127   2.457  1.2633 -0.7046  0.5769
  780MOL0     H 5261   0.703   4.792   2.472 -4.9677  1.6591  1.4034
  780MOL0     H 5262   0.729   4.940   2.553  0.3560 -1.9772  1.0128
  780MOL0     H 5263   0.614   4.920   2.420 -0.0361 -1.5874 -0.6457
  780MOL0     H 5264   0.791   4.499   2.056  2.3754  0.8236  0.8301
  780MOL0     H 5265   0.678   4.282   2.041 -3.4622 -2.0259  0.3696
  780MOL0     H 5266   0.642   4.080   2.401  0.0505  1.0369 -1.7659
  780MOL0     H 5267   0.466   4.091   2.359  0.0040  1.2802  0.0057
  780MOL0     H 5268   0.506   3.857   2.379 -2.9901  1.2924 -2.1448
  780MOL0     H 5269   0.490   3.892   2.216  2.4717  0.7702 -3.0701
  780MOL0     H 5270   0.748   3.910   2.196 -2.5982  0.2372 -0.8276
  780MOL0     H 5271   0.669   3.754   2.224 -0.7905 -0.5148  0.4415
  780MOL0     H 5272   0.885   3.817   2.342  1.1667 -1.2527  1.3382
  780MOL0     H 5273   0.789   3.916   2.455  0.7754  0.2640  0.9128
  780MOL0     H 5274   0.642   3.706   2.476  0.7069 -0.8175  0.6813
  780MOL0     H 5275   0.806   3.689   2.553  0.1810 -0.5740 -0.2142
  780MOL0     H 5276   0.718   3.559   2.305 -0.7341 -2.0310 -0.1561
  780MOL0     H 5277   0.890   3.575   2.363 -0.1792  0.8673  1.5087
  780MOL0     H 5278   0.641   3.409   2.442 -1.7211  2.7006 -0.2537
  780MOL0     H 5279   0.720   3.472   2.573  2.3189  0.8432  0.6903
  780MOL0     H 5280   0.871   3.316   2.347  2.5838 -1.3388  1.2893
  780MOL0     H 5281   0.790   3.240   2.487 -1.1881  0.5924  1.5067
  780MOL0     H 5282   0.587   4.305   2.459 -0.0767  1.4759 -0.3396
  780MOL0     H 5283   0.721   4.518   2.479  2.3437  0.6178  0.1537
  780MOL0     H 5284   0.966   4.863   2.044 -2.2258 -0.9191 -0.8943
  780MOL0     H 5285   1.068   5.088   2.095 -2.4073 -1.7851 -2.7770
  780MOL0     H 5286   2.733   5.591   2.247  3.2550  1.3269  1.3027
  780MOL0     H 5287   2.948   5.467   2.238 -0.1561  2.2354  2.6090
  780MOL0     H 5288   3.294   5.187   2.242  1.6664 -0.7002  0.0175
  780MOL0     H 5289   3.526   5.159   2.290  0.9969  1.1558  0.6781
  780MOL0     H 5290   3.797   5.275   2.345  1.0386 -0.4882  0.1843
  780MOL0     H 5291   3.754   5.120   2.277  1.8415 -1.4891  0.3481
  780MOL0     H 5292   3.979   5.291   2.173  1.6454 -0.1499  2.6948
  780MOL0     H 5293   3.920   5.146   2.097 -0.2003 -1.1643  0.8180
  780MOL0     H 5294   4.127   5.116   2.236 -1.1035  0.9828 -1.7045
  780MOL0     H 5295   4.006   5.023   2.321  1.9726  0.2591  2.8971
  780MOL0     H 5296   3.976   5.216   2.488  0.2833 -1.6574  1.1220
  780MOL0     H 5297   4.118   5.288   2.409 -0.2389  0.5462  2.4436
  780MOL0     H 5298   4.286   4.933   2.597  0.3724 -0.0849  1.2703
  780MOL0     H 5299   3.607   5.471   2.007 -1.7303  0.5564 -0.2801
  780MOL0     H 5300   3.369   5.511   1.971  0.9589 -0.0367 -1.5333
  781MOL0     O 5301   2.183  10.444   7.374  0.1170  0.2009 -0.0084
  781MOL0     C 5302   2.263  10.504   7.449 -0.4376 -0.3348  0.6857
  781MOL0     O 5303   2.324  10.461   7.558 -0.3594  0.4017 -0.5704
  781MOL0     C 5304   2.296  10.340   7.618 -0.2355  0.8935  0.7160
  781MOL0     C 5305   2.193  10.250   7.585 -0.5305  0.2932  0.4425
  781MOL0     C 5306   2.179  10.133   7.661  1.4174  0.7245  0.0112
  781MOL0     C 5307   2.266  10.102   7.768 -0.1390  0.3982 -0.0339
  781MOL0     O 5308   2.244   9.983   7.837  0.0806  0.0979 -0.0106
  781MOL0     C 5309   2.335   9.938   7.933  0.4768  0.9188 -0.2564
  781MOL0     C 5310   2.268   9.823   8.006 -0.4363 -0.3597  0.2397
  781MOL0     C 5311   2.257   9.697   7.922 -0.2431  0.1411 -0.0834
  781MOL0     C 5312   2.158   9.600   7.988  0.4588  0.1201 -0.4269
  781MOL0     C 5313   2.174   9.465   7.911 -0.3460 -0.5007 -0.2414
  781MOL0     C 5314   2.121   9.343   7.992  0.4238  0.1430 -0.1017
  781MOL0     C 5315   2.142   9.206   7.923  0.6314  0.3383 -0.5991
  781MOL0     C 5316   2.147   9.211   7.772  0.5685 -0.4244  1.1135
  781MOL0     N 5317   2.134   9.074   7.719 -0.3524  0.3944 -0.6255
  781MOL0     C 5318   2.023   9.005   7.717  0.3519 -1.0387 -0.3704
  781MOL0     C 5319   2.064   8.891   7.663 -0.3196 -0.1765 -0.1356
  781MOL0     C 5320   1.963   8.784   7.616  0.6945 -0.0281 -0.0635
  781MOL0     C 5321   2.026   8.657   7.570  0.1702 -0.0593 -0.1819
  781MOL0     C 5322   1.920   8.556   7.537  0.1017 -0.1387 -0.0614
  781MOL0     C 5323   1.991   8.428   7.475 -0.4570 -0.2095 -0.1930
  781MOL0     O 5324   1.911   8.304   7.495  0.2305  0.1516  0.2107
  781MOL0     C 5325   1.794   8.282   7.428  1.0899  0.5005  0.1305
  781MOL0     C 5326   1.731   8.373   7.340 -1.0921 -0.4642 -0.1035
  781MOL0     C 5327   1.606   8.359   7.287 -0.2537  0.4073  0.2853
  781MOL0     C 5328   1.564   8.469   7.199  1.3634  0.2512  0.0499
  781MOL0     C 5329   1.525   8.250   7.328 -0.4259 -0.6604  0.3084
  781MOL0     C 5330   1.394   8.234   7.283 -0.4227  0.8406 -0.1255
  781MOL0     O 5331   1.317   8.339   7.311  0.2216 -0.4276 -0.7757
  781MOL0     C 5332   1.180   8.331   7.313 -0.5154  0.8721  0.0387
  781MOL0     C 5333   1.098   8.356   7.204 -0.2367 -0.5810 -0.7980
  781MOL0     C 5334   0.965   8.357   7.207  0.0392 -0.1579 -0.9060
  781MOL0     C 5335   0.894   8.350   7.331  0.3237  0.4303 -0.5250
  781MOL0     O 5336   0.759   8.344   7.320  0.1708 -0.1656 -0.5696
  781MOL0     C 5337   0.676   8.260   7.404  0.9644 -0.0585 -0.4310
  781MOL0     C 5338   0.620   8.350   7.514  0.7268 -0.7007  0.6660
  781MOL0     C 5339   0.532   8.458   7.455  0.4276 -0.4048 -0.3994
  781MOL0     C 5340   0.458   8.533   7.562 -0.7454 -0.4758 -0.1099
  781MOL0     C 5341   0.357   8.615   7.494 -0.4752 -0.7628  0.2735
  781MOL0     C 5342   0.270   8.689   7.599  0.7407  0.2220  0.4347
  781MOL0     C 5343   0.250   8.834   7.556  0.3709  0.7466 -0.4701
  781MOL0     C 5344   0.156   8.897   7.652  0.4315  0.6262 -0.3104
  781MOL0    Cl 5345   0.153   9.069   7.629 -0.6279 -0.3192  0.2281
  781MOL0     C 5346   0.974   8.318   7.442  0.4628 -0.8407  0.1209
  781MOL0     C 5347   1.109   8.298   7.429  0.3637 -0.2403 -0.4728
  781MOL0     O 5348   1.359   8.121   7.252 -0.1998  0.8273 -0.1496
  781MOL0     C 5349   1.585   8.151   7.412  1.0309  0.6844  0.7024
  781MOL0     C 5350   1.716   8.165   7.460  0.0684 -0.4457 -0.1936
  781MOL0     N 5351   2.202   8.892   7.630  1.0342 -0.3344  0.4862
  781MOL0     N 5352   2.246   9.004   7.676  0.1440  0.3770 -0.5124
  781MOL0     C 5353   2.377  10.192   7.793  0.1976 -0.1319 -0.5331
  781MOL0     C 5354   2.386  10.309   7.719 -0.2094  0.4100  0.4013
  781MOL0     C 5355   2.314  10.640   7.400 -0.2968  0.0315 -0.3418
  781MOL0     C 5356   2.419  10.716   7.471  0.2074  0.6692  0.0990
  781MOL0     C 5357   2.470  10.830   7.416 -0.3379 -0.0414 -0.7753
  781MOL0     C 5358   2.429  10.879   7.300 -0.4860 -0.6323  0.3222
  781MOL0     O 5359   2.484  10.999   7.269 -0.4228 -0.1495  0.4192
  781MOL0     C 5360   2.501  11.033   7.135  0.2094  0.3419  0.6438
  781MOL0     C 5361   2.602  11.140   7.117 -0.0438 -0.4752  0.8006
  781MOL0     C 5362   2.741  11.104   7.175  0.2770 -0.7606  0.4408
  781MOL0     C 5363   2.816  10.980   7.108  0.5191 -0.7010  0.5180
  781MOL0     C 5364   2.832  11.010   6.967  0.1258 -0.3521  0.6439
  781MOL0     C 5365   2.845  11.036   6.850 -0.0933 -0.8283 -0.6005
  781MOL0     C 5366   2.332  10.812   7.226 -0.4508  0.7573  0.1212
  781MOL0     C 5367   2.268  10.696   7.275 -0.4498  0.6093 -0.5691
  781MOL0     H 5368   2.137  10.278   7.497  2.3372  0.9581 -1.3173
  781MOL0     H 5369   2.097  10.063   7.642 -1.8095  3.4296  2.7462
  781MOL0     H 5370   2.424   9.893   7.888 -1.2250 -3.1035  0.0183
  781MOL0     H 5371   2.359  10.013   8.009 -1.5911  3.0290 -1.5340
  781MOL0     H 5372   2.325   9.807   8.098  0.0017  2.9018  0.6518
  781MOL0     H 5373   2.168   9.854   8.036  0.2838  0.1560  2.2524
  781MOL0     H 5374   2.204   9.722   7.830 -2.7097  2.8492  1.8610
  781MOL0     H 5375   2.356   9.658   7.897  0.1182  0.3496  0.9565
  781MOL0     H 5376   2.194   9.582   8.090 -0.7438  4.6641  1.0531
  781MOL0     H 5377   2.050   9.620   7.985  0.4540 -0.0065 -2.5054
  781MOL0     H 5378   2.107   9.469   7.825 -0.0786 -1.0184 -0.4827
  781MOL0     H 5379   2.279   9.463   7.880  0.2619  0.1245  1.6699
  781MOL0     H 5380   2.170   9.339   8.090  1.8337  0.3228 -0.7727
  781MOL0     H 5381   2.015   9.360   8.013  0.5044 -0.5772  0.9837
  781MOL0     H 5382   2.237   9.171   7.965  1.4363  2.9628 -0.0436
  781MOL0     H 5383   2.062   9.143   7.962 -0.1185  2.5954  1.8219
  781MOL0     H 5384   2.246   9.250   7.746  0.3098  0.4064  1.3552
  781MOL0     H 5385   2.071   9.278   7.733  2.4123  0.8747 -0.4512
  781MOL0     H 5386   1.921   9.038   7.734  1.2532  2.5573 -1.1433
  781MOL0     H 5387   1.892   8.773   7.699  1.7369 -1.1839  0.6966
  781MOL0     H 5388   1.914   8.828   7.528 -1.8817  0.9629  1.7108
  781MOL0     H 5389   2.079   8.620   7.658 -0.4921  0.3886  0.4204
  781MOL0     H 5390   2.106   8.673   7.497  1.2529  1.1619  1.2204
  781MOL0     H 5391   1.855   8.601   7.462  2.2391  1.4422 -1.0544
  781MOL0     H 5392   1.853   8.522   7.617 -0.0251 -0.6516 -0.3825
  781MOL0     H 5393   2.089   8.413   7.521 -1.8573 -0.2325  3.0626
  781MOL0     H 5394   2.006   8.446   7.368  0.2831  5.0930  0.5420
  781MOL0     H 5395   1.790   8.463   7.328  0.0339 -0.9710  1.1954
  781MOL0     H 5396   1.496   8.429   7.124  0.6660 -0.6875  1.1526
  781MOL0     H 5397   1.517   8.559   7.241 -0.5374  0.0777 -1.5818
  781MOL0     H 5398   1.654   8.506   7.151  0.5601  1.5604 -0.5100
  781MOL0     H 5399   1.151   8.372   7.111 -0.9474  0.5035 -1.0322
  781MOL0     H 5400   0.902   8.370   7.120 -0.2578  0.7149 -0.5650
  781MOL0     H 5401   0.596   8.205   7.353  0.1963  1.8641 -1.4063
  781MOL0     H 5402   0.745   8.185   7.444  1.1108 -0.3448 -1.2033
  781MOL0     H 5403   0.562   8.281   7.576 -1.2240  0.4892  0.2384
  781MOL0     H 5404   0.705   8.395   7.567 -0.1648  1.5026  0.3358
  781MOL0     H 5405   0.460   8.412   7.386 -1.0347  0.9527  0.1652
  781MOL0     H 5406   0.586   8.533   7.396 -2.5879  3.3928  1.2925
  781MOL0     H 5407   0.418   8.472   7.644 -1.4621  1.5896  1.1660
  781MOL0     H 5408   0.528   8.602   7.610 -0.8059 -0.8124  0.4736
  781MOL0     H 5409   0.289   8.561   7.427 -0.9919  1.3883 -1.0471
  781MOL0     H 5410   0.408   8.696   7.442 -3.7168 -0.0518 -2.0836
  781MOL0     H 5411   0.175   8.636   7.611  0.1400  0.9692 -0.8585
  781MOL0     H 5412   0.322   8.683   7.695 -1.8693  0.4454  1.9584
  781MOL0     H 5413   0.218   8.841   7.451  1.6394  0.5022 -0.8873
  781MOL0     H 5414   0.337   8.901   7.560 -0.3901  1.8087 -1.0681
  781MOL0     H 5415   0.181   8.874   7.756 -0.0046  1.7379  0.0477
  781MOL0     H 5416   0.056   8.854   7.639  0.3473  0.4334  0.9056
  781MOL0     H 5417   0.925   8.308   7.539 -1.2087  1.5866 -0.3827
  781MOL0     H 5418   1.163   8.276   7.521  1.2658  0.5717 -0.8011
  781MOL0     H 5419   1.528   8.064   7.442 -0.5164  1.7980  1.0957
  781MOL0     H 5420   1.757   8.092   7.530 -2.0238 -3.3224 -1.7575
  781MOL0     H 5421   2.437  10.175   7.883 -1.3895 -0.1752  0.5586
  781MOL0     H 5422   2.470  10.374   7.740 -0.0595 -0.3288  2.2996
  781MOL0     H 5423   2.461  10.690   7.568 -0.8509  0.4115  0.5009
  781MOL0     H 5424   2.544  10.880   7.478 -1.3378  0.7766 -0.2153
  781MOL0     H 5425   2.528  10.940   7.085  2.0132 -0.4521  2.9346
  781MOL0     H 5426   2.408  11.075   7.095  2.1938  2.2113 -2.3934
  781MOL0     H 5427   2.580  11.234   7.169  0.2933  1.0953 -1.7479
  781MOL0     H 5428   2.607  11.176   7.014 -3.0936  0.0649  0.7573
  781MOL0     H 5429   2.732  11.088   7.283 -4.3222 -3.4549 -0.0528
  781MOL0     H 5430   2.808  11.190   7.169  0.8175 -1.2300 -0.2841
  781MOL0     H 5431   2.747  10.897   7.128 -2.2652  0.8409 -1.8121
  781MOL0     H 5432   2.917  10.969   7.147  1.6930  0.3376 -1.9937
  781MOL0     H 5433   2.865  11.071   6.751 -1.7256 -0.7007 -0.9147
  781MOL0     H 5434   2.304  10.847   7.127 -0.7299 -0.1449 -0.1391
  781MOL0     H 5435   2.186  10.650   7.222 -2.3950  1.2848  1.6663
  782MOL0     O 5436   8.944   0.235   6.547 -0.1456 -0.0502 -0.5069
  782MOL0     C 5437   8.921   0.184   6.659 -0.2355  0.3967  0.8023
  782MOL0     O 5438   8.802   0.168   6.712 -0.4877 -0.3598 -0.2057
  782MOL0     C 5439   8.690   0.208   6.632  0.1480 -0.1778 -1.2094
  782MOL0     C 5440   8.599   0.118   6.584  0.5675  0.2720  0.1727
  782MOL0     C 5441   8.478   0.149   6.517  0.3453 -0.0586 -0.4001
  782MOL0     C 5442   8.440   0.281   6.501 -0.6339 -0.1728 -0.6179
  782MOL0     O 5443   8.326   0.320   6.440  0.3921  0.1303  0.3072
  782MOL0     C 5444   8.209   0.241   6.483  1.0984 -0.2026 -0.1370
  782MOL0     C 5445   8.069   0.324   6.466 -0.4607 -0.6137  0.1628
  782MOL0     C 5446   8.062   0.383   6.331 -0.6080 -0.0976 -0.4884
  782MOL0     C 5447   7.929   0.452   6.307 -0.4489 -0.1525  0.4619
  782MOL0     C 5448   7.917   0.507   6.170 -0.6448 -0.2216  0.3206
  782MOL0     C 5449   7.773   0.514   6.119  0.3036  0.1159  0.0507
  782MOL0     C 5450   7.741   0.546   5.974 -0.4384 -0.0592  0.7221
  782MOL0     C 5451   7.586   0.532   5.945  0.6047  0.1048  0.0059
  782MOL0     N 5452   7.542   0.615   5.831 -0.2869  0.9988  0.3438
  782MOL0     C 5453   7.495   0.572   5.707 -0.2227  0.2126 -0.3837
  782MOL0     C 5454   7.460   0.686   5.641 -1.2920  0.4054 -0.0579
  782MOL0     C 5455   7.410   0.706   5.499  0.3687  0.1736  0.4276
  782MOL0     C 5456   7.285   0.803   5.499 -0.1023  0.3068 -0.2206
  782MOL0     C 5457   7.212   0.788   5.361 -0.5930 -0.1354 -0.4249
  782MOL0     C 5458   7.079   0.862   5.363  0.7785  0.0439 -0.2405
  782MOL0     O 5459   6.988   0.800   5.457  0.5246  0.0153  0.0753
  782MOL0     C 5460   6.859   0.853   5.453  0.1362 -0.6364  0.6372
  782MOL0     C 5461   6.811   0.960   5.374  0.3814 -0.4563 -1.0849
  782MOL0     C 5462   6.673   1.002   5.386  0.2850 -0.8085  0.1013
  782MOL0     C 5463   6.635   1.124   5.300 -0.4408 -0.8769  0.0925
  782MOL0     C 5464   6.590   0.934   5.481 -0.3347 -0.3609  0.0335
  782MOL0     C 5465   6.450   0.959   5.492  0.6264 -0.0926  0.5274
  782MOL0     O 5466   6.367   0.853   5.494 -0.1070  0.4506 -0.2218
  782MOL0     C 5467   6.234   0.864   5.494  0.7818 -0.2359 -0.2348
  782MOL0     C 5468   6.158   0.957   5.419 -0.6306  0.9825 -0.1743
  782MOL0     C 5469   6.024   0.965   5.437  0.4643  0.0732  0.2789
  782MOL0     C 5470   5.956   0.881   5.528 -0.0243  0.0104  0.0255
  782MOL0     O 5471   5.818   0.883   5.543  0.4034  0.4920  0.2785
  782MOL0     C 5472   5.783   0.900   5.685  0.4022 -0.0725  0.3097
  782MOL0     C 5473   5.645   0.966   5.697  0.0151  0.2548  0.2857
  782MOL0     C 5474   5.546   0.878   5.620 -0.0849  0.2831 -0.1859
  782MOL0     C 5475   5.398   0.900   5.640  0.3614  0.1285  0.4586
  782MOL0     C 5476   5.347   0.871   5.778  0.0534 -0.3252 -0.5752
  782MOL0     C 5477   5.195   0.894   5.798 -0.2956  0.3269 -0.7181
  782MOL0     C 5478   5.147   1.039   5.773 -0.0844  0.7102  0.0682
  782MOL0     C 5479   4.998   1.063   5.795 -0.2373 -0.4226 -0.6724
  782MOL0    Cl 5480   4.961   1.244   5.790 -0.3084  0.4055 -0.3960
  782MOL0     C 5481   6.024   0.783   5.585 -0.3619  0.1334 -0.1466
  782MOL0     C 5482   6.164   0.766   5.568  0.8515 -1.0310 -0.1993
  782MOL0     O 5483   6.419   1.082   5.498 -0.0841  0.4910  0.1359
  782MOL0     C 5484   6.643   0.840   5.564  0.0956  0.4659  0.2564
  782MOL0     C 5485   6.776   0.791   5.545 -0.1723  0.3402  1.2277
  782MOL0     N 5486   7.487   0.794   5.730 -0.0842 -0.0217 -0.1858
  782MOL0     N 5487   7.539   0.743   5.840  0.4239  0.3129  0.7975
  782MOL0     C 5488   8.532   0.379   6.557 -0.4483  0.0460  0.1530
  782MOL0     C 5489   8.653   0.345   6.618  0.6147 -0.0998  0.3966
  782MOL0     C 5490   9.037   0.133   6.729  0.6275 -0.0322 -1.1041
  782MOL0     C 5491   9.019   0.113   6.870 -0.2608  0.0656 -0.0538
  782MOL0     C 5492   9.126   0.086   6.958 -0.6368  0.7607  0.1610
  782MOL0     C 5493   9.256   0.069   6.907 -0.3871  0.3526  0.1613
  782MOL0     O 5494   9.372   0.032   6.973  0.2109 -0.6274 -0.3489
  782MOL0     C 5495   9.398   0.114   7.080 -0.1633 -0.6715 -0.8763
  782MOL0     C 5496   9.393   0.021   7.208 -0.3521 -0.4853 -0.2028
  782MOL0     C 5497   9.464  -0.116   7.190 -0.2338  0.2005 -0.0991
  782MOL0     C 5498   9.622  -0.106   7.163 -0.0092 -0.3593 -0.0352
  782MOL0     C 5499   9.687  -0.232   7.125  0.3815  0.1162  0.5335
  782MOL0     C 5500   9.743  -0.340   7.102  0.7442 -0.3737  0.0754
  782MOL0     C 5501   9.274   0.092   6.769  1.0395  0.3215 -0.6939
  782MOL0     C 5502   9.166   0.127   6.678 -0.1237  0.6388 -0.2134
  782MOL0     H 5503   8.625   0.014   6.602  0.4908 -0.1568 -1.9380
  782MOL0     H 5504   8.414   0.068   6.483 -1.1180  0.1240  1.6987
  782MOL0     H 5505   8.198   0.153   6.419 -0.3830  1.1247 -1.8260
  782MOL0     H 5506   8.222   0.210   6.587  0.0071 -0.8882 -0.1809
  782MOL0     H 5507   7.996   0.246   6.489  0.9253 -1.9701  0.0948
  782MOL0     H 5508   8.065   0.402   6.543 -2.1309 -0.2782 -0.2198
  782MOL0     H 5509   8.141   0.455   6.308  0.0474 -1.3401 -2.3875
  782MOL0     H 5510   8.061   0.297   6.263  1.5592 -0.9158  0.4434
  782MOL0     H 5511   7.857   0.371   6.324  1.1154 -1.5307  0.7630
  782MOL0     H 5512   7.907   0.535   6.374  0.0350  0.8354 -0.5766
  782MOL0     H 5513   7.951   0.611   6.174 -1.4579  0.0296  1.0369
  782MOL0     H 5514   7.981   0.448   6.105  3.5096  1.3826  2.5480
  782MOL0     H 5515   7.718   0.425   6.151 -2.1313  1.3558 -0.4673
  782MOL0     H 5516   7.740   0.601   6.176 -0.3259  2.3422 -3.4174
  782MOL0     H 5517   7.778   0.646   5.948  1.3148 -1.1951 -1.5197
  782MOL0     H 5518   7.803   0.479   5.914  0.7616  0.2767  1.5471
  782MOL0     H 5519   7.538   0.579   6.031 -1.0215 -3.8898  1.5221
  782MOL0     H 5520   7.565   0.425   5.933 -0.2983  0.2800 -0.0759
  782MOL0     H 5521   7.485   0.468   5.678  0.9745 -0.1287  0.3748
  782MOL0     H 5522   7.488   0.747   5.434  2.0153 -0.0873  2.1616
  782MOL0     H 5523   7.369   0.614   5.457  0.3455  0.5792 -0.4628
  782MOL0     H 5524   7.332   0.900   5.510  0.4111  0.1814 -1.1967
  782MOL0     H 5525   7.217   0.797   5.585  0.1472  0.8881  0.0192
  782MOL0     H 5526   7.188   0.684   5.338 -0.5632 -0.1370 -0.4481
  782MOL0     H 5527   7.280   0.832   5.288 -0.8174  0.6961 -0.1430
  782MOL0     H 5528   7.034   0.871   5.264 -0.6110 -0.5769  0.2971
  782MOL0     H 5529   7.084   0.968   5.393  2.1235  0.0935 -0.6107
  782MOL0     H 5530   6.871   1.033   5.320  1.1079 -0.7074 -0.6357
  782MOL0     H 5531   6.542   1.100   5.247  0.8195  0.1606 -2.7749
  782MOL0     H 5532   6.633   1.213   5.363  0.2039 -3.3854  4.1015
  782MOL0     H 5533   6.710   1.129   5.221 -1.5217  0.5352 -0.8743
  782MOL0     H 5534   6.215   1.021   5.352  1.8354  0.1810  1.0310
  782MOL0     H 5535   5.979   1.046   5.379  1.5369  1.6258  1.5209
  782MOL0     H 5536   5.786   0.802   5.735  0.8468  1.0321  2.5910
  782MOL0     H 5537   5.851   0.970   5.734 -0.4885  1.6035 -0.7772
  782MOL0     H 5538   5.619   0.970   5.804 -0.5146  0.8588  0.1384
  782MOL0     H 5539   5.653   1.064   5.649 -1.4366 -0.6115 -1.8745
  782MOL0     H 5540   5.566   0.775   5.653  2.5415  1.5034  2.5182
  782MOL0     H 5541   5.574   0.894   5.515  4.1019  0.7464  0.8184
  782MOL0     H 5542   5.379   1.005   5.613 -3.3788 -0.7281 -0.9117
  782MOL0     H 5543   5.344   0.840   5.567 -1.4586  3.0406 -0.7734
  782MOL0     H 5544   5.399   0.942   5.842 -1.8553 -1.3061  2.2984
  782MOL0     H 5545   5.385   0.771   5.803  2.6375  0.6053 -0.5461
  782MOL0     H 5546   5.138   0.831   5.729 -0.4596  1.0270 -1.2231
  782MOL0     H 5547   5.183   0.864   5.902  0.2431 -0.6364 -0.9110
  782MOL0     H 5548   5.171   1.063   5.669  1.5256 -2.4716 -0.4403
  782MOL0     H 5549   5.200   1.097   5.850  1.2908 -0.5013  0.0864
  782MOL0     H 5550   4.968   1.025   5.893 -0.1412  0.1722 -0.4068
  782MOL0     H 5551   4.930   1.021   5.721 -1.3702  1.3691 -0.7138
  782MOL0     H 5552   5.977   0.719   5.660 -0.4801  1.9653  1.4447
  782MOL0     H 5553   6.208   0.677   5.613 -1.2289 -0.7961  2.5939
  782MOL0     H 5554   6.577   0.793   5.637 -1.3009 -0.0795 -1.2942
  782MOL0     H 5555   6.815   0.709   5.605 -1.9189 -0.2330  1.6548
  782MOL0     H 5556   8.515   0.486   6.556  0.4004  0.2091  1.2604
  782MOL0     H 5557   8.711   0.427   6.659  1.2641  0.3566 -1.3685
  782MOL0     H 5558   8.919   0.107   6.913 -0.0350  1.2224  0.7006
  782MOL0     H 5559   9.109   0.057   7.062  2.6911 -0.5545  0.4682
  782MOL0     H 5560   9.500   0.153   7.076  0.5472 -2.4478 -1.0314
  782MOL0     H 5561   9.325   0.195   7.089  0.7519  0.1626 -0.6823
  782MOL0     H 5562   9.287   0.006   7.231 -0.9370  1.5396 -1.3102
  782MOL0     H 5563   9.443   0.068   7.293 -0.7719 -0.2173 -0.0977
  782MOL0     H 5564   9.413  -0.178   7.116  1.8355  0.8919 -2.2418
  782MOL0     H 5565   9.444  -0.173   7.281  0.4576  2.7387  1.7462
  782MOL0     H 5566   9.672  -0.067   7.252  0.2076 -1.3777  0.3041
  782MOL0     H 5567   9.648  -0.036   7.084  0.2537  0.5031  0.7914
  782MOL0     H 5568   9.786  -0.436   7.080  1.3434  0.0545 -0.6480
  782MOL0     H 5569   9.377   0.086   6.734  0.9445  1.8579 -1.3081
  782MOL0     H 5570   9.178   0.155   6.573  0.7022  1.8429  0.1708
  783MOL0     O 5571   5.355   0.623  10.334 -0.3014  0.3508  0.6321
  783MOL0     C 5572   5.377   0.713  10.413  0.7018  0.0715  0.0682
  783MOL0     O 5573   5.299   0.827  10.423 -0.2819  0.3903  0.2908
  783MOL0     C 5574   5.187   0.827  10.352  0.8123 -0.1603  0.2049
  783MOL0     C 5575   5.183   0.855  10.210 -0.2172  0.0945 -0.3194
  783MOL0     C 5576   5.060   0.860  10.143 -0.2894 -0.7006  0.1304
  783MOL0     C 5577   4.940   0.826  10.215 -0.4804 -0.4481  0.6726
  783MOL0     O 5578   4.825   0.810  10.138 -0.7630 -0.6008 -0.6908
  783MOL0     C 5579   4.701   0.856  10.188  0.3374 -0.3018 -0.5838
  783MOL0     C 5580   4.688   1.003  10.162  0.3846  0.2329 -0.6384
  783MOL0     C 5581   4.704   1.045  10.017  0.0317  0.7002 -0.1691
  783MOL0     C 5582   4.647   1.188   9.985 -0.1379  0.3130 -1.0385
  783MOL0     C 5583   4.629   1.200   9.832  0.4264 -0.6396 -0.2110
  783MOL0     C 5584   4.553   1.327   9.789  0.3677 -0.1830 -0.0968
  783MOL0     C 5585   4.410   1.333   9.841  0.3614 -0.0782 -0.2149
  783MOL0     C 5586   4.339   1.455   9.777 -0.6379 -0.2781  0.2362
  783MOL0     N 5587   4.192   1.457   9.799  0.0575 -1.1308  0.5941
  783MOL0     C 5588   4.093   1.537   9.744  0.2761  0.1765  0.3466
  783MOL0     C 5589   3.972   1.508   9.800  0.7074 -0.0636 -0.4099
  783MOL0     C 5590   3.832   1.554   9.766  0.2293 -0.0587  0.9703
  783MOL0     C 5591   3.804   1.696   9.816 -0.3906 -0.4545  0.3067
  783MOL0     C 5592   3.670   1.755   9.772  0.2445 -0.2382 -0.2542
  783MOL0     C 5593   3.567   1.707   9.874  0.8612  0.1676  0.3891
  783MOL0     O 5594   3.510   1.581   9.846  0.3336  0.7954  0.7185
  783MOL0     C 5595   3.383   1.550   9.904 -1.2302  0.4847 -0.1790
  783MOL0     C 5596   3.309   1.634   9.987  0.4449  0.7042 -0.0767
  783MOL0     C 5597   3.179   1.596  10.030 -0.2941  1.0048  0.7919
  783MOL0     C 5598   3.101   1.676  10.132 -0.4090 -0.2179 -0.7735
  783MOL0     C 5599   3.120   1.477   9.984 -0.4353  0.0593 -0.6874
  783MOL0     C 5600   2.982   1.437  10.020 -0.6957 -0.3658 -0.5360
  783MOL0     O 5601   2.883   1.516   9.962  0.5502 -0.2855  0.4931
  783MOL0     C 5602   2.748   1.488   9.979  0.8671 -0.5684  0.3653
  783MOL0     C 5603   2.689   1.378  10.040  0.0201  0.1105 -0.0907
  783MOL0     C 5604   2.553   1.360  10.065 -0.3688 -0.7158 -0.4431
  783MOL0     C 5605   2.467   1.469  10.038  0.0535  0.4573  0.4767
  783MOL0     O 5606   2.334   1.453  10.063 -0.7450 -0.5246  0.6527
  783MOL0     C 5607   2.245   1.496   9.957  0.4129 -0.3779 -1.8417
  783MOL0     C 5608   2.136   1.391   9.969  0.2139 -0.8969 -0.0923
  783MOL0     C 5609   2.031   1.394   9.855  0.0532 -0.4702  0.2222
  783MOL0     C 5610   1.916   1.307   9.908 -1.3649  0.0674 -0.2444
  783MOL0     C 5611   1.810   1.291   9.796 -0.1383  0.0884  0.7062
  783MOL0     C 5612   1.664   1.272   9.856 -0.1999 -0.5275  0.7916
  783MOL0     C 5613   1.652   1.156   9.962  0.5070  0.6862 -0.5213
  783MOL0     C 5614   1.512   1.106   9.951 -0.2858 -0.4150 -0.1517
  783MOL0    Cl 5615   1.509   0.954  10.062  0.0400 -0.0812  0.2138
  783MOL0     C 5616   2.524   1.579   9.977 -0.1887 -0.8072 -0.4860
  783MOL0     C 5617   2.659   1.590   9.953  0.1337 -0.2911  0.8336
  783MOL0     O 5618   2.966   1.331  10.081 -0.0801  0.0060  0.6407
  783MOL0     C 5619   3.195   1.385   9.910  0.6085 -0.2009 -0.4848
  783MOL0     C 5620   3.323   1.424   9.868  1.1854  0.0940 -0.4728
  783MOL0     N 5621   4.003   1.415   9.895  0.2097  0.2048 -0.2470
  783MOL0     N 5622   4.122   1.384   9.889 -0.0465  0.2165  0.2212
  783MOL0     C 5623   4.940   0.809  10.352  0.0332  0.1467 -0.0192
  783MOL0     C 5624   5.061   0.814  10.418  0.3943  0.6681  0.0085
  783MOL0     C 5625   5.498   0.714  10.485  0.1077  0.6026 -0.7264
  783MOL0     C 5626   5.542   0.612  10.572  0.4203  0.2142 -0.0819
  783MOL0     C 5627   5.662   0.625  10.649  1.4287 -0.3162  0.3239
  783MOL0     C 5628   5.728   0.746  10.654  0.3705  1.0615  0.4858
  783MOL0     O 5629   5.841   0.754  10.731 -0.5469 -0.2072  0.0468
  783MOL0     C 5630   5.963   0.824  10.684  0.3804 -0.0827 -0.0320
  783MOL0     C 5631   6.020   0.772  10.548 -0.0062  0.6395 -0.2300
  783MOL0     C 5632   6.037   0.621  10.561 -0.2399 -0.4173  0.2794
  783MOL0     C 5633   6.070   0.553  10.428  0.3837  0.3040 -0.2668
  783MOL0     C 5634   6.069   0.407  10.450 -0.2517  0.2201  0.5683
  783MOL0     C 5635   6.055   0.282  10.462 -0.4074 -0.8237  0.0219
  783MOL0     C 5636   5.685   0.854  10.574 -0.5144 -0.3123  0.5857
  783MOL0     C 5637   5.572   0.836  10.484 -0.0797 -0.2071  0.1627
  783MOL0     H 5638   5.273   0.854  10.149 -0.3069  1.3480 -0.5089
  783MOL0     H 5639   5.053   0.872  10.036 -0.1094 -0.0226  0.1887
  783MOL0     H 5640   4.618   0.805  10.138 -0.1017  2.0736 -2.5067
  783MOL0     H 5641   4.679   0.838  10.293  0.3767 -0.2238 -0.5615
  783MOL0     H 5642   4.589   1.036  10.194 -0.4535 -0.1316 -2.7127
  783MOL0     H 5643   4.757   1.062  10.224 -0.1760  1.7502 -1.3925
  783MOL0     H 5644   4.810   1.035   9.991  0.1530  1.1488  0.1464
  783MOL0     H 5645   4.655   0.965   9.960  2.3957 -2.6494  2.1031
  783MOL0     H 5646   4.553   1.205  10.038 -0.5671 -0.7707 -1.4474
  783MOL0     H 5647   4.721   1.264  10.012  1.3710 -1.1291 -0.9572
  783MOL0     H 5648   4.722   1.195   9.776  0.5465 -4.7976 -0.0057
  783MOL0     H 5649   4.576   1.110   9.797  0.7666 -1.8632  2.1583
  783MOL0     H 5650   4.602   1.416   9.829  1.3126 -0.3262 -0.9032
  783MOL0     H 5651   4.548   1.325   9.680 -1.4567 -2.2991 -0.0373
  783MOL0     H 5652   4.362   1.237   9.823  0.0103 -0.6286  2.9982
  783MOL0     H 5653   4.399   1.353   9.949 -1.4862 -4.1279  0.5046
  783MOL0     H 5654   4.354   1.455   9.668 -3.3603  1.9656 -0.2517
  783MOL0     H 5655   4.382   1.550   9.811 -1.5796  0.2509 -0.0194
  783MOL0     H 5656   4.109   1.600   9.657  1.9557 -1.6755 -0.7663
  783MOL0     H 5657   3.811   1.549   9.659  0.9621 -1.5843  0.8686
  783MOL0     H 5658   3.763   1.479   9.807  1.0690 -2.5381 -1.7618
  783MOL0     H 5659   3.877   1.763   9.769 -1.2382 -0.9690 -1.8904
  783MOL0     H 5660   3.818   1.707   9.924 -0.5367  0.4133  0.2407
  783MOL0     H 5661   3.624   1.721   9.678  0.7079 -1.6468  0.0040
  783MOL0     H 5662   3.678   1.864   9.781  2.8279 -0.2145 -2.0318
  783MOL0     H 5663   3.483   1.777   9.870  0.6542 -0.1152 -1.1443
  783MOL0     H 5664   3.608   1.703   9.975 -3.0787 -1.5880  2.1223
  783MOL0     H 5665   3.344   1.731  10.020 -1.5603  0.2404  3.9705
  783MOL0     H 5666   2.998   1.694  10.098 -0.8197  0.9452  0.9735
  783MOL0     H 5667   3.105   1.627  10.230 -1.6090  1.1889  0.0381
  783MOL0     H 5668   3.149   1.767  10.169 -1.6682  0.6473 -1.1812
  783MOL0     H 5669   2.745   1.288  10.062 -0.0996  0.2439  0.8021
  783MOL0     H 5670   2.515   1.274  10.119 -0.6464  0.6874  1.7298
  783MOL0     H 5671   2.195   1.591   9.980  0.2259 -0.9030  0.0335
  783MOL0     H 5672   2.295   1.514   9.861 -0.6549  1.8717 -2.0329
  783MOL0     H 5673   2.192   1.297   9.970  2.1230  0.1985  0.9432
  783MOL0     H 5674   2.090   1.406  10.067 -2.0347  0.1357 -1.2232
  783MOL0     H 5675   2.064   1.354   9.759 -0.2917  1.8496 -0.9453
  783MOL0     H 5676   2.005   1.497   9.828  3.4377  0.3039 -0.5314
  783MOL0     H 5677   1.948   1.205   9.933  2.6012  0.9525 -1.1213
  783MOL0     H 5678   1.872   1.356   9.995 -0.4072 -0.1342  0.3694
  783MOL0     H 5679   1.834   1.220   9.716 -0.9194  0.9278 -0.2920
  783MOL0     H 5680   1.807   1.388   9.745  0.1058 -0.9494 -1.3691
  783MOL0     H 5681   1.620   1.365   9.893 -0.3844 -0.3446  0.1173
  783MOL0     H 5682   1.604   1.251   9.767  0.0442  0.5743  0.3573
  783MOL0     H 5683   1.667   1.194  10.064 -0.0974 -0.7675  0.1375
  783MOL0     H 5684   1.727   1.078   9.941 -0.3762 -0.3013 -0.0797
  783MOL0     H 5685   1.483   1.077   9.850 -2.1088  0.5662  0.0541
  783MOL0     H 5686   1.451   1.187   9.991  1.2458  0.7334 -0.0425
  783MOL0     H 5687   2.459   1.664   9.955 -0.8363 -1.4818 -1.2372
  783MOL0     H 5688   2.682   1.689   9.913 -3.4819 -0.8093 -3.3192
  783MOL0     H 5689   3.155   1.285   9.894  2.6213 -1.9307  3.8086
  783MOL0     H 5690   3.366   1.351   9.800  0.4984 -0.2193 -0.5825
  783MOL0     H 5691   4.846   0.785  10.401 -0.8314  2.5202 -0.3484
  783MOL0     H 5692   5.065   0.794  10.525  1.9006  0.2126 -0.1129
  783MOL0     H 5693   5.489   0.518  10.573 -3.0250  1.9980  0.1952
  783MOL0     H 5694   5.694   0.535  10.702 -1.5400 -0.7768  1.5398
  783MOL0     H 5695   5.939   0.926  10.654  1.8663  0.1550 -0.4828
  783MOL0     H 5696   6.035   0.836  10.765 -0.3252 -2.0987  0.9565
  783MOL0     H 5697   6.114   0.819  10.519  0.5526 -0.3090  0.0092
  783MOL0     H 5698   5.955   0.788  10.461  0.9172  0.5253 -0.9587
  783MOL0     H 5699   5.945   0.587  10.610 -0.0304  1.6368  2.3081
  783MOL0     H 5700   6.124   0.609  10.627 -0.4122  0.1044  0.6145
  783MOL0     H 5701   6.167   0.582  10.386  0.5927  1.3158  0.8332
  783MOL0     H 5702   5.994   0.574  10.353 -0.2093 -2.4743 -0.5636
  783MOL0     H 5703   6.027   0.182  10.487  0.7665 -0.7379  1.9277
  783MOL0     H 5704   5.740   0.947  10.570 -0.4502 -0.3727 -2.7566
  783MOL0     H 5705   5.535   0.922  10.430 -2.3667 -0.8384  0.6144
  784MOL0     O 5706   3.986   8.735   1.450  0.4570  0.9318 -0.2492
  784MOL0     C 5707   4.022   8.844   1.487  0.3405  0.4867 -0.1105
  784MOL0     O 5708   3.938   8.953   1.510 -1.0334 -0.2637  0.5865
  784MOL0     C 5709   3.802   8.929   1.511 -0.0905  0.3612 -0.0152
  784MOL0     C 5710   3.732   8.911   1.625  0.3264 -0.5314 -0.2656
  784MOL0     C 5711   3.599   8.881   1.623 -0.6364 -0.8587 -1.1138
  784MOL0     C 5712   3.526   8.873   1.505  0.2834 -0.1744  0.8208
  784MOL0     O 5713   3.394   8.842   1.487  0.3572 -0.6433 -0.3031
  784MOL0     C 5714   3.308   8.856   1.604 -0.5580 -0.2595  0.3424
  784MOL0     C 5715   3.167   8.851   1.544 -0.4955  0.3203 -0.8801
  784MOL0     C 5716   3.066   8.830   1.668 -0.1026 -0.0375 -0.0211
  784MOL0     C 5717   2.925   8.801   1.622  0.1322  0.1876  1.0949
  784MOL0     C 5718   2.832   8.788   1.737 -0.2625  1.1218  0.8248
  784MOL0     C 5719   2.695   8.723   1.714 -0.0081 -0.0982  0.5896
  784MOL0     C 5720   2.628   8.762   1.579 -0.3972 -0.0095 -0.6581
  784MOL0     C 5721   2.504   8.678   1.574  0.4366  0.3099  0.2871
  784MOL0     N 5722   2.386   8.746   1.636  0.4325 -0.0805 -0.1678
  784MOL0     C 5723   2.304   8.829   1.575 -0.6027  0.0035  0.5294
  784MOL0     C 5724   2.193   8.832   1.645  0.3232  0.0757 -0.2131
  784MOL0     C 5725   2.087   8.926   1.603  0.6430  0.3249  0.4227
  784MOL0     C 5726   1.950   8.847   1.632  0.3101 -0.2783 -0.8317
  784MOL0     C 5727   1.832   8.946   1.592  0.3717  0.2264  0.6004
  784MOL0     C 5728   1.711   8.908   1.663 -0.4401  1.0665 -0.7865
  784MOL0     O 5729   1.602   8.986   1.609 -0.2138  1.0410  0.6383
  784MOL0     C 5730   1.482   8.977   1.678  0.0496 -0.0685  0.2560
  784MOL0     C 5731   1.386   9.055   1.624 -0.2590 -0.5434 -0.3531
  784MOL0     C 5732   1.263   9.066   1.681  0.1358 -0.1313 -0.2779
  784MOL0     C 5733   1.158   9.161   1.621 -0.7539 -0.3770 -0.3447
  784MOL0     C 5734   1.233   8.985   1.794 -0.0832  0.1826 -0.7709
  784MOL0     C 5735   1.093   8.961   1.857  0.0346  0.0973  0.8028
  784MOL0     O 5736   1.082   8.857   1.956 -0.8043  0.6147  0.0157
  784MOL0     C 5737   0.959   8.853   2.008  0.0728 -0.4064  1.1158
  784MOL0     C 5738   0.914   8.954   2.095 -0.1156  0.7254  0.5502
  784MOL0     C 5739   0.776   8.949   2.144 -0.2828  0.7477 -0.5567
  784MOL0     C 5740   0.696   8.838   2.107  0.7142  0.1492  1.1161
  784MOL0     O 5741   0.565   8.811   2.168 -0.3841  0.2936 -0.1295
  784MOL0     C 5742   0.499   8.931   2.214  0.7152  0.8248 -0.2917
  784MOL0     C 5743   0.356   8.897   2.242  0.5276 -0.3663  0.0495
  784MOL0     C 5744   0.273   9.000   2.323  0.4562  0.0140  0.1543
  784MOL0     C 5745   0.123   8.952   2.308  0.3390 -0.4277  0.0414
  784MOL0     C 5746   0.025   9.038   2.389 -0.0261  0.1166 -0.6253
  784MOL0     C 5747  -0.002   8.975   2.533 -0.8923  0.2903 -0.4834
  784MOL0     C 5748  -0.086   9.083   2.614  0.0296  0.5254 -0.1184
  784MOL0     C 5749  -0.169   9.034   2.729  0.5580  0.5905  0.4012
  784MOL0    Cl 5750  -0.312   8.944   2.666  0.1520 -0.1832 -0.3541
  784MOL0     C 5751   0.743   8.736   2.020 -0.6255 -0.0143 -0.7502
  784MOL0     C 5752   0.878   8.745   1.981  0.5711  0.2336 -0.3535
  784MOL0     O 5753   0.996   9.035   1.829 -0.2892 -0.0890  0.0909
  784MOL0     C 5754   1.336   8.910   1.852 -0.3406  0.2890 -0.5265
  784MOL0     C 5755   1.460   8.907   1.793  0.0219 -0.3546  0.7911
  784MOL0     N 5756   2.205   8.749   1.752  0.6295 -0.0447  0.4440
  784MOL0     N 5757   2.321   8.702   1.751 -0.2206 -0.3167 -0.1584
  784MOL0     C 5758   3.602   8.890   1.389 -0.9876  0.8868  0.2812
  784MOL0     C 5759   3.740   8.920   1.391  0.0706 -0.1022  0.1916
  784MOL0     C 5760   4.159   8.856   1.525  0.0245 -0.5737 -0.9240
  784MOL0     C 5761   4.259   8.776   1.473  0.5319  0.1473 -0.2067
  784MOL0     C 5762   4.393   8.803   1.507  0.3381 -0.6981  0.1500
  784MOL0     C 5763   4.429   8.918   1.592  0.4717  1.2499  0.6323
  784MOL0     O 5764   4.569   8.912   1.615  0.2123  0.6113 -0.0178
  784MOL0     C 5765   4.640   9.032   1.662 -0.0940  0.2185  0.2309
  784MOL0     C 5766   4.775   8.978   1.719  0.2825  0.0444 -1.2148
  784MOL0     C 5767   4.758   8.885   1.842  0.2470 -0.4329 -0.5037
  784MOL0     C 5768   4.877   8.797   1.874  0.1206 -0.2059 -0.7942
  784MOL0     C 5769   5.005   8.858   1.876 -0.2246  0.3744 -0.2227
  784MOL0     C 5770   5.117   8.907   1.871  0.3106  0.2381  0.0612
  784MOL0     C 5771   4.325   8.994   1.646  0.3885  0.4580 -0.1281
  784MOL0     C 5772   4.196   8.968   1.610  0.8914  0.1145 -0.6744
  784MOL0     H 5773   3.769   8.902   1.727 -2.6455 -1.2394  0.8702
  784MOL0     H 5774   3.553   8.868   1.721  1.7772  0.2302  0.2427
  784MOL0     H 5775   3.333   8.764   1.657 -1.3098 -0.9681 -0.4983
  784MOL0     H 5776   3.308   8.949   1.662 -3.7238  0.6806 -0.9153
  784MOL0     H 5777   3.153   8.941   1.484  1.5793  0.8151 -0.7055
  784MOL0     H 5778   3.158   8.760   1.485  2.5626 -0.8148  0.1655
  784MOL0     H 5779   3.088   8.748   1.738  0.2093  0.7043  0.7779
  784MOL0     H 5780   3.064   8.920   1.730  0.9299  0.1321 -0.2100
  784MOL0     H 5781   2.893   8.882   1.556 -0.2891 -0.9981 -0.2030
  784MOL0     H 5782   2.924   8.711   1.559  0.0034  1.9130 -1.5247
  784MOL0     H 5783   2.887   8.725   1.807  0.4494 -1.9858 -2.2381
  784MOL0     H 5784   2.815   8.887   1.780 -0.4389  1.7240 -0.5867
  784MOL0     H 5785   2.709   8.615   1.730 -3.8826 -0.7990  0.1405
  784MOL0     H 5786   2.626   8.761   1.790  1.0688  0.7850  1.1588
  784MOL0     H 5787   2.617   8.871   1.573  2.0695  0.3152 -0.4712
  784MOL0     H 5788   2.687   8.724   1.495 -2.4487  0.2116 -2.2608
  784MOL0     H 5789   2.515   8.578   1.617  1.8684 -0.8042 -2.4152
  784MOL0     H 5790   2.482   8.666   1.468  0.0410 -0.3733  0.4369
  784MOL0     H 5791   2.318   8.890   1.486  0.3291 -0.8200  0.0900
  784MOL0     H 5792   2.091   9.018   1.663 -1.9880  0.0859  1.1242
  784MOL0     H 5793   2.103   8.950   1.498 -1.1620 -0.6626 -0.1352
  784MOL0     H 5794   1.933   8.843   1.740 -0.5077  2.5523 -0.7782
  784MOL0     H 5795   1.946   8.744   1.596 -2.3947 -1.2728  1.8306
  784MOL0     H 5796   1.823   8.953   1.483  0.5985  1.1094  0.6311
  784MOL0     H 5797   1.844   9.050   1.623 -2.0814  0.6624  0.2914
  784MOL0     H 5798   1.730   8.912   1.770  0.5568  0.9677 -0.9514
  784MOL0     H 5799   1.691   8.804   1.634 -1.9823  1.4700 -1.2262
  784MOL0     H 5800   1.427   9.126   1.552  3.0767  1.4669  3.0966
  784MOL0     H 5801   1.201   9.208   1.532  3.1587  0.4214  1.7438
  784MOL0     H 5802   1.068   9.107   1.589 -1.4166  0.1153  0.6495
  784MOL0     H 5803   1.135   9.237   1.696  1.5464  2.2562 -2.1113
  784MOL0     H 5804   0.977   9.040   2.113 -1.5361  1.9018  0.0745
  784MOL0     H 5805   0.748   9.026   2.215 -0.1178  1.3829 -1.1686
  784MOL0     H 5806   0.537   8.963   2.311 -0.0676  1.5249 -0.2080
  784MOL0     H 5807   0.507   9.023   2.155  0.9167  1.5840  0.8838
  784MOL0     H 5808   0.306   8.894   2.144 -0.3860 -1.1065  0.5255
  784MOL0     H 5809   0.353   8.794   2.279 -2.0100 -0.8182 -1.1698
  784MOL0     H 5810   0.286   9.098   2.275  1.1262 -0.8748 -1.5591
  784MOL0     H 5811   0.308   9.013   2.426 -0.2347  1.6657  0.2205
  784MOL0     H 5812   0.091   8.954   2.204  2.5607 -0.4259 -0.7050
  784MOL0     H 5813   0.115   8.845   2.331 -0.6198 -0.2953  0.3692
  784MOL0     H 5814  -0.070   9.032   2.335 -1.7921 -2.3650  2.4535
  784MOL0     H 5815   0.055   9.143   2.396 -0.0655  0.2000 -1.5604
  784MOL0     H 5816  -0.050   8.877   2.541 -1.2758  0.5257  0.1842
  784MOL0     H 5817   0.097   8.960   2.576 -0.7425 -0.6798 -1.1453
  784MOL0     H 5818  -0.148   9.140   2.545  0.0545  0.0299 -0.5589
  784MOL0     H 5819  -0.012   9.149   2.660  0.9516  0.5049 -1.5094
  784MOL0     H 5820  -0.209   9.117   2.788  0.0948 -0.0412  0.9997
  784MOL0     H 5821  -0.112   8.965   2.792  2.0281 -1.6571 -3.1133
  784MOL0     H 5822   0.676   8.655   1.994  0.5474 -1.6845  1.1409
  784MOL0     H 5823   0.911   8.674   1.905  0.4952  1.0368 -1.1593
  784MOL0     H 5824   1.324   8.847   1.939 -1.1927  0.8110 -0.2556
  784MOL0     H 5825   1.532   8.840   1.839  0.4366  0.4190  1.3082
  784MOL0     H 5826   3.555   8.896   1.291  0.8668 -0.1588 -0.7346
  784MOL0     H 5827   3.804   8.942   1.305 -3.3277  0.7669 -2.3135
  784MOL0     H 5828   4.236   8.693   1.406 -2.1598 -1.3910  2.3977
  784MOL0     H 5829   4.473   8.746   1.459 -0.2930  1.4424 -3.8397
  784MOL0     H 5830   4.659   9.105   1.582  1.4868  0.9427  1.2151
  784MOL0     H 5831   4.579   9.079   1.740 -0.2212  0.4834 -0.0260
  784MOL0     H 5832   4.841   9.059   1.749 -0.2336  0.0972 -0.1863
  784MOL0     H 5833   4.832   8.933   1.637  3.8626  4.3838 -1.4787
  784MOL0     H 5834   4.674   8.817   1.829  0.7041 -1.1745  0.3309
  784MOL0     H 5835   4.738   8.946   1.930  2.2832  0.6681 -0.7225
  784MOL0     H 5836   4.884   8.716   1.801  0.1467 -0.4792 -0.4927
  784MOL0     H 5837   4.871   8.759   1.977 -0.6741  3.0593  0.4769
  784MOL0     H 5838   5.211   8.959   1.865 -0.9952  2.8006  0.2330
  784MOL0     H 5839   4.343   9.064   1.727  3.0797 -1.9580  1.5776
  784MOL0     H 5840   4.116   9.036   1.639  1.3593  1.1865 -1.8053
  785MOL0     O 5841   6.338  10.478  10.598  0.4814 -0.4093  0.1715
  785MOL0     C 5842   6.312  10.429  10.491 -0.3586  1.0802  0.8461
  785MOL0     O 5843   6.196  10.436  10.426  0.2346 -0.2294  0.6969
  785MOL0     C 5844   6.094  10.506  10.483 -0.8242 -0.0795 -0.4556
  785MOL0     C 5845   6.071  10.638  10.462  0.2089 -0.7460  0.5770
  785MOL0     C 5846   5.969  10.710  10.537 -0.3700  0.2036  0.7557
  785MOL0     C 5847   5.890  10.644  10.622 -0.4109  0.0532 -0.0396
  785MOL0     O 5848   5.792  10.720  10.678 -0.3103 -0.8214 -0.0465
  785MOL0     C 5849   5.701  10.655  10.772  0.7253 -0.1141  0.8503
  785MOL0     C 5850   5.594  10.749  10.816 -0.6174 -0.9785  0.0814
  785MOL0     C 5851   5.644  10.871  10.892 -0.0315  1.8621 -1.2594
  785MOL0     C 5852   5.786  10.865  10.963  0.2191 -0.2908 -0.2768
  785MOL0     C 5853   5.805  10.995  11.043  0.4434 -0.2580  0.1629
  785MOL0     C 5854   5.944  10.993  11.107 -0.5803  0.5658  0.0586
  785MOL0     C 5855   5.972  11.118  11.190 -0.5691  0.0545  0.2946
  785MOL0     C 5856   6.091  11.111  11.286  0.2797 -0.4262  0.1541
  785MOL0     N 5857   6.115  11.241  11.354  0.0415  0.5640  0.8584
  785MOL0     C 5858   6.106  11.361  11.291  0.5285 -0.4620  0.2237
  785MOL0     C 5859   6.174  11.449  11.365  0.4697 -0.3917  0.2693
  785MOL0     C 5860   6.174  11.591  11.328 -1.0706 -0.3359  0.3354
  785MOL0     C 5861   6.253  11.683  11.429 -0.7198  0.0599  0.4191
  785MOL0     C 5862   6.181  11.720  11.563 -0.4249  0.0771 -0.8503
  785MOL0     C 5863   6.027  11.750  11.554 -0.1142 -0.1623  0.1720
  785MOL0     O 5864   6.012  11.867  11.478 -0.2775 -0.3495  0.0013
  785MOL0     C 5865   5.884  11.924  11.479 -0.2825 -0.2663  0.3404
  785MOL0     C 5866   5.781  11.909  11.571 -0.1170  0.1752 -0.1048
  785MOL0     C 5867   5.651  11.966  11.556 -1.1014 -0.2623  0.4466
  785MOL0     C 5868   5.553  11.943  11.664 -0.0430  0.2344 -0.0839
  785MOL0     C 5869   5.631  12.053  11.445  0.0734  0.3845  0.1863
  785MOL0     C 5870   5.498  12.121  11.419  0.3940  0.4672  0.2322
  785MOL0     O 5871   5.391  12.032  11.437 -0.0074  0.0230 -0.2180
  785MOL0     C 5872   5.262  12.077  11.411 -0.0926 -0.2342  0.1556
  785MOL0     C 5873   5.170  12.009  11.489 -0.4156  0.7117 -0.3233
  785MOL0     C 5874   5.026  12.024  11.472  0.3320 -0.3090  0.4438
  785MOL0     C 5875   4.982  12.119  11.374 -1.2582  0.1393 -0.1609
  785MOL0     O 5876   4.860  12.153  11.352 -0.4559  0.2002  0.7008
  785MOL0     C 5877   4.756  12.111  11.443 -0.7485 -0.5016 -0.9520
  785MOL0     C 5878   4.631  12.171  11.378 -0.5549  0.1763 -0.7271
  785MOL0     C 5879   4.595  12.103  11.254 -0.5149  0.1860  0.6579
  785MOL0     C 5880   4.455  12.147  11.203 -0.0140  0.5857  0.9269
  785MOL0     C 5881   4.434  12.110  11.055 -0.8183  0.7558 -0.0314
  785MOL0     C 5882   4.428  11.958  11.036 -0.7299  0.1018  0.1124
  785MOL0     C 5883   4.384  11.914  10.897  0.5465 -0.4296  0.5251
  785MOL0     C 5884   4.230  11.915  10.875 -0.2474  0.5923 -0.1072
  785MOL0    Cl 5885   4.207  11.815  10.724 -0.1027  0.1362  0.2209
  785MOL0     C 5886   5.082  12.174  11.292 -0.5552 -0.2817 -0.2994
  785MOL0     C 5887   5.218  12.161  11.315 -0.7567  0.5308  0.3012
  785MOL0     O 5888   5.491  12.243  11.389 -0.1712 -0.7330 -0.2494
  785MOL0     C 5889   5.737  12.075  11.360 -0.6016  0.3559 -0.8473
  785MOL0     C 5890   5.858  12.013  11.378 -0.3647 -0.2987  0.3468
  785MOL0     N 5891   6.235  11.376  11.463 -0.2889 -0.2943 -0.1398
  785MOL0     N 5892   6.204  11.252  11.452  0.2430 -0.7459 -0.1191
  785MOL0     C 5893   5.904  10.499  10.626 -0.3334  0.5436 -0.0581
  785MOL0     C 5894   6.006  10.436  10.565  0.4538  0.2734 -0.1565
  785MOL0     C 5895   6.423  10.348  10.434 -0.3049  0.4474  0.4965
  785MOL0     C 5896   6.414  10.295  10.302  0.0758  0.2474 -0.2770
  785MOL0     C 5897   6.521  10.218  10.248  1.0792  0.0920  0.0314
  785MOL0     C 5898   6.631  10.186  10.314  0.6576 -0.1334 -0.3871
  785MOL0     O 5899   6.727  10.110  10.251 -0.6990 -0.0899  0.2005
  785MOL0     C 5900   6.865  10.132  10.283  0.7412  0.3177  0.1337
  785MOL0     C 5901   6.960  10.140  10.164  0.8225 -0.5911 -0.0177
  785MOL0     C 5902   7.034  10.274  10.164 -0.1268 -0.2369 -0.3197
  785MOL0     C 5903   7.103  10.288  10.023  0.1647 -0.7169 -0.3651
  785MOL0     C 5904   7.242  10.229  10.011 -0.3584 -0.7813 -0.3042
  785MOL0     C 5905   7.353  10.172   9.998 -0.4836 -0.3047 -0.4541
  785MOL0     C 5906   6.640  10.233  10.450 -0.2279  0.1574 -0.6765
  785MOL0     C 5907   6.535  10.314  10.513 -0.7090 -0.2521  0.7573
  785MOL0     H 5908   6.143  10.682  10.393 -2.1638 -0.0249 -1.5897
  785MOL0     H 5909   5.946  10.812  10.510 -0.7656 -0.0376  0.1433
  785MOL0     H 5910   5.654  10.570  10.721  1.4324 -1.3309  2.1650
  785MOL0     H 5911   5.760  10.618  10.856  0.5478 -2.5487 -0.0144
  785MOL0     H 5912   5.535  10.783  10.730 -2.1612 -1.2806  0.9877
  785MOL0     H 5913   5.523  10.698  10.881  0.0011  0.1650  1.7169
  785MOL0     H 5914   5.641  10.955  10.821 -3.6363  2.3447 -0.7431
  785MOL0     H 5915   5.576  10.913  10.967  0.4881  0.8689 -0.1997
  785MOL0     H 5916   5.789  10.780  11.032  4.4359  0.1942  0.4237
  785MOL0     H 5917   5.864  10.852  10.888  1.0036 -0.7703  0.5938
  785MOL0     H 5918   5.817  11.081  10.976  0.4696  0.6796  1.3413
  785MOL0     H 5919   5.727  11.004  11.120  2.5380 -1.4008  2.5548
  785MOL0     H 5920   5.949  10.906  11.173  1.0372  1.0427  0.6056
  785MOL0     H 5921   6.016  10.994  11.025 -2.0279  3.2537 -1.3044
  785MOL0     H 5922   5.977  11.198  11.115  1.0467 -0.4221 -0.1560
  785MOL0     H 5923   5.879  11.136  11.244 -1.2785 -0.2905 -0.7887
  785MOL0     H 5924   6.184  11.084  11.235  0.3139  1.5205 -0.8994
  785MOL0     H 5925   6.078  11.038  11.366  3.9443 -0.8232  0.5556
  785MOL0     H 5926   6.039  11.385  11.209  0.2157 -0.1364  0.5607
  785MOL0     H 5927   6.240  11.594  11.241  2.3716  0.6772  2.7579
  785MOL0     H 5928   6.073  11.627  11.306 -1.8332 -2.4004  0.2986
  785MOL0     H 5929   6.258  11.782  11.382 -1.1676 -0.3621 -0.5569
  785MOL0     H 5930   6.349  11.643  11.461  0.0134  1.1696 -0.3074
  785MOL0     H 5931   6.226  11.798  11.625 -2.0095  0.5473 -0.2578
  785MOL0     H 5932   6.200  11.628  11.621  1.5365  0.9549 -0.0085
  785MOL0     H 5933   5.986  11.759  11.655 -2.4918  0.2471 -0.7669
  785MOL0     H 5934   5.971  11.673  11.500  1.6435 -0.9434 -0.6190
  785MOL0     H 5935   5.801  11.842  11.654 -1.3512  0.8479  0.7690
  785MOL0     H 5936   5.604  11.942  11.761  0.3365 -1.2310 -0.2684
  785MOL0     H 5937   5.483  12.025  11.681  1.6563  1.4112  1.7572
  785MOL0     H 5938   5.508  11.845  11.645  1.8343 -1.0827  1.7427
  785MOL0     H 5939   5.208  11.945  11.568 -0.6719 -1.0879 -1.6145
  785MOL0     H 5940   4.944  11.975  11.523 -2.6152 -0.4979 -3.9261
  785MOL0     H 5941   4.748  12.002  11.453 -2.2267 -0.5172 -1.9812
  785MOL0     H 5942   4.760  12.165  11.538 -1.3328 -0.7376 -0.7831
  785MOL0     H 5943   4.548  12.166  11.449 -0.6446  0.3792 -0.8166
  785MOL0     H 5944   4.655  12.277  11.362 -0.0745  0.0643 -0.7740
  785MOL0     H 5945   4.602  11.994  11.265 -0.0222  0.1061 -0.3369
  785MOL0     H 5946   4.671  12.125  11.178 -0.3946 -1.5231  0.2278
  785MOL0     H 5947   4.374  12.109  11.266 -2.6695  0.6969 -2.1717
  785MOL0     H 5948   4.456  12.257  11.205 -0.7541  0.6907 -1.2644
  785MOL0     H 5949   4.525  12.145  11.007  0.8900 -1.2881  1.4825
  785MOL0     H 5950   4.349  12.166  11.015 -0.7329  0.8604 -0.0664
  785MOL0     H 5951   4.525  11.912  11.057 -1.1623 -1.7317 -1.6059
  785MOL0     H 5952   4.357  11.907  11.103  0.7023 -1.7987  0.2798
  785MOL0     H 5953   4.421  11.812  10.887  1.4478  0.1182 -2.8868
  785MOL0     H 5954   4.430  11.980  10.823 -0.9258  0.5777  0.4637
  785MOL0     H 5955   4.193  12.018  10.869 -3.5371 -0.2376  2.8520
  785MOL0     H 5956   4.174  11.863  10.953 -1.3761  0.0601 -1.2373
  785MOL0     H 5957   5.055  12.239  11.209 -0.9493  1.7076  1.3131
  785MOL0     H 5958   5.289  12.215  11.253 -0.8169  4.0500  2.9492
  785MOL0     H 5959   5.723  12.145  11.279 -0.5132 -0.4469 -1.5765
  785MOL0     H 5960   5.944  12.039  11.317  0.2419  0.1247  1.3678
  785MOL0     H 5961   5.849  10.432  10.690  0.0712 -0.2407 -0.5056
  785MOL0     H 5962   6.029  10.331  10.578 -3.7463 -0.5760  2.3320
  785MOL0     H 5963   6.326  10.318  10.243  0.6119  0.3451 -1.0489
  785MOL0     H 5964   6.509  10.175  10.149  2.6077 -0.7439  0.1826
  785MOL0     H 5965   6.878  10.210  10.358 -0.6937  0.7642 -0.0485
  785MOL0     H 5966   6.896  10.037  10.326  0.8693 -0.7110 -2.0572
  785MOL0     H 5967   6.890  10.128  10.081 -2.4429  0.6639  2.3515
  785MOL0     H 5968   7.038  10.063  10.161  1.7942  0.3539 -3.2836
  785MOL0     H 5969   7.109  10.284  10.244  1.1958  2.2186 -1.7413
  785MOL0     H 5970   6.964  10.356  10.180 -0.3351  0.1836 -2.9409
  785MOL0     H 5971   7.112  10.396  10.008  0.5173 -0.3195  2.2417
  785MOL0     H 5972   7.033  10.245   9.950 -1.2093 -2.9237  2.0748
  785MOL0     H 5973   7.455  10.140   9.992  0.0433  0.0885  3.6172
  785MOL0     H 5974   6.718  10.196  10.515 -0.9787 -1.4136 -0.6175
  785MOL0     H 5975   6.544  10.348  10.616 -2.9279  1.3051  0.4975
  786MOL0     O 5976   1.603   5.365  11.235  0.3185  0.3295 -0.0585
  786MOL0     C 5977   1.618   5.260  11.173  0.0420  1.0764 -1.3218
  786MOL0     O 5978   1.526   5.157  11.168 -0.4145  0.0294 -0.0628
  786MOL0     C 5979   1.386   5.176  11.181  0.6520  0.3712  0.7212
  786MOL0     C 5980   1.314   5.055  11.171  0.6671  0.4271  0.7003
  786MOL0     C 5981   1.173   5.050  11.165 -0.1478  0.0788 -1.4382
  786MOL0     C 5982   1.094   5.167  11.180  0.3600 -0.8166 -0.4779
  786MOL0     O 5983   0.957   5.171  11.188 -0.0807 -0.3027 -0.5895
  786MOL0     C 5984   0.886   5.045  11.212 -0.3175 -0.3957  0.4099
  786MOL0     C 5985   0.741   5.069  11.218 -0.5089 -0.6238  0.3914
  786MOL0     C 5986   0.699   5.194  11.311 -0.7425  0.3590  0.1411
  786MOL0     C 5987   0.722   5.167  11.462  0.3411 -0.1686  0.3183
  786MOL0     C 5988   0.672   5.294  11.533  0.9908  0.7199  0.2967
  786MOL0     C 5989   0.521   5.290  11.543  0.0420 -0.0626 -0.0951
  786MOL0     C 5990   0.475   5.399  11.624  0.1707  0.6753  0.2003
  786MOL0     C 5991   0.523   5.408  11.769  1.0308 -0.7247 -0.1170
  786MOL0     N 5992   0.454   5.304  11.847 -0.2670  0.2875 -0.6191
  786MOL0     C 5993   0.485   5.164  11.859 -0.0381 -0.6625 -0.4686
  786MOL0     C 5994   0.380   5.113  11.926  0.3468  1.1532  0.0929
  786MOL0     C 5995   0.377   4.964  11.963 -0.1223 -0.0168 -0.3362
  786MOL0     C 5996   0.490   4.921  12.059  0.1124  0.2389  0.0530
  786MOL0     C 5997   0.516   4.774  12.042 -0.0110  0.1443 -0.3174
  786MOL0     C 5998   0.415   4.683  12.115 -0.4971 -0.0134 -0.4160
  786MOL0     O 5999   0.412   4.734  12.253  0.5061 -0.0970 -0.0047
  786MOL0     C 6000   0.349   4.663  12.354 -0.5134 -0.2359  0.6614
  786MOL0     C 6001   0.332   4.725  12.476 -0.0736 -0.5093 -0.7482
  786MOL0     C 6002   0.262   4.676  12.585 -0.0446  0.6782  0.2343
  786MOL0     C 6003   0.212   4.766  12.689 -0.2149  0.2638  0.3164
  786MOL0     C 6004   0.198   4.546  12.567 -0.2347 -0.5271  0.1738
  786MOL0     C 6005   0.096   4.494  12.661 -0.4239 -0.3227  0.3061
  786MOL0     O 6006   0.079   4.551  12.787 -0.2951  0.0687  0.0129
  786MOL0     C 6007  -0.028   4.507  12.861  0.5996 -0.7450 -0.1545
  786MOL0     C 6008  -0.078   4.385  12.892  0.3159 -0.1711 -0.2169
  786MOL0     C 6009  -0.181   4.369  12.988 -0.0979  0.3768  0.2803
  786MOL0     C 6010  -0.243   4.477  13.051 -0.6356 -0.8891  0.3222
  786MOL0     O 6011  -0.350   4.459  13.136 -0.0622 -0.0877 -0.3264
  786MOL0     C 6012  -0.372   4.544  13.246 -0.3589 -0.3809 -1.3681
  786MOL0     C 6013  -0.503   4.507  13.310 -0.8144 -0.6450 -0.2470
  786MOL0     C 6014  -0.551   4.606  13.416  0.0893 -0.4396 -0.4844
  786MOL0     C 6015  -0.453   4.600  13.535 -0.4652  0.2874 -0.2967
  786MOL0     C 6016  -0.494   4.700  13.650  0.0674  0.6817 -0.2905
  786MOL0     C 6017  -0.618   4.656  13.727 -0.4834 -0.5155 -0.1157
  786MOL0     C 6018  -0.647   4.723  13.868  0.7378 -0.6213 -0.3877
  786MOL0     C 6019  -0.673   4.877  13.849 -0.5261 -0.4824 -0.0417
  786MOL0    Cl 6020  -0.683   4.946  14.012 -0.2839 -0.2449  0.0567
  786MOL0     C 6021  -0.199   4.601  13.016 -0.7146 -0.4090 -0.1200
  786MOL0     C 6022  -0.090   4.617  12.929  0.3553 -0.6893 -0.4090
  786MOL0     O 6023   0.027   4.398  12.624 -0.2544  0.2625  0.2790
  786MOL0     C 6024   0.221   4.474  12.445  0.3782  0.0607  0.4039
  786MOL0     C 6025   0.295   4.532  12.337  0.2136  0.8764  0.2861
  786MOL0     N 6026   0.279   5.212  11.934 -0.1697  0.7889 -0.1085
  786MOL0     N 6027   0.328   5.329  11.902  0.3789  0.5429 -0.4338
  786MOL0     C 6028   1.164   5.288  11.181 -0.3010  0.9775  0.1035
  786MOL0     C 6029   1.307   5.294  11.178  0.9633  0.8730  0.2091
  786MOL0     C 6030   1.742   5.241  11.108 -0.7442  0.4995  1.0046
  786MOL0     C 6031   1.776   5.112  11.048 -0.3183  0.0430 -0.8510
  786MOL0     C 6032   1.896   5.093  10.983 -0.2661 -0.4109  1.0470
  786MOL0     C 6033   1.984   5.206  10.973  0.2293 -0.4311 -0.3246
  786MOL0     O 6034   2.105   5.200  10.904  0.4392  0.2345 -0.0062
  786MOL0     C 6035   2.225   5.222  10.977  0.5330  0.3463  0.2684
  786MOL0     C 6036   2.244   5.125  11.083  0.1306  0.5053 -1.3777
  786MOL0     C 6037   2.322   5.003  11.052  0.9788  0.7162 -0.3078
  786MOL0     C 6038   2.234   4.885  10.992  0.1909  0.1503  0.0754
  786MOL0     C 6039   2.117   4.861  11.076  0.2917 -0.3155 -0.5989
  786MOL0     C 6040   2.029   4.834  11.154  0.3342  0.0939 -0.0641
  786MOL0     C 6041   1.952   5.329  11.025 -0.2316  0.5084 -0.3655
  786MOL0     C 6042   1.835   5.351  11.098 -0.4443  0.3679  0.4062
  786MOL0     H 6043   1.372   4.964  11.158 -0.4391 -0.1921 -0.0797
  786MOL0     H 6044   1.134   4.949  11.156  1.1561 -0.8905  2.0275
  786MOL0     H 6045   0.904   4.964  11.141 -0.6126  0.3747 -0.5604
  786MOL0     H 6046   0.924   5.010  11.309  0.5761  0.3887  0.3520
  786MOL0     H 6047   0.701   5.090  11.119  0.9528 -2.4227 -0.6409
  786MOL0     H 6048   0.684   4.987  11.263 -0.8184  1.1007  3.4235
  786MOL0     H 6049   0.752   5.284  11.279  0.2918 -0.4423 -0.4446
  786MOL0     H 6050   0.594   5.218  11.290 -0.4162  0.6273 -1.3307
  786MOL0     H 6051   0.664   5.082  11.496 -0.9541  0.1975 -0.8822
  786MOL0     H 6052   0.830   5.155  11.478  0.7010  3.7248  2.1058
  786MOL0     H 6053   0.722   5.302  11.630  1.4533  3.5186 -0.1038
  786MOL0     H 6054   0.703   5.383  11.478 -0.5068  0.4650 -1.0324
  786MOL0     H 6055   0.483   5.314  11.443 -1.2209  1.1832  0.6527
  786MOL0     H 6056   0.484   5.190  11.567 -0.2579  0.7487  3.3447
  786MOL0     H 6057   0.494   5.493  11.571  0.7349 -0.0247 -0.8578
  786MOL0     H 6058   0.365   5.394  11.624  0.1531  0.8537  0.9060
  786MOL0     H 6059   0.507   5.510  11.805 -0.2446 -0.7489 -0.5643
  786MOL0     H 6060   0.627   5.377  11.780  0.6316 -1.5202  2.0942
  786MOL0     H 6061   0.568   5.102  11.829 -0.3026 -0.7021 -1.1420
  786MOL0     H 6062   0.284   4.938  12.014  0.9412 -1.3599  1.0525
  786MOL0     H 6063   0.377   4.903  11.872  1.6523 -0.0077 -0.3922
  786MOL0     H 6064   0.455   4.955  12.157 -4.7425  0.0419 -1.3403
  786MOL0     H 6065   0.581   4.980  12.042 -1.3413  2.8440  0.8645
  786MOL0     H 6066   0.616   4.745  12.076 -0.5178 -0.4509  0.7414
  786MOL0     H 6067   0.512   4.757  11.934 -0.5319  2.7162 -0.7627
  786MOL0     H 6068   0.443   4.578  12.108  0.8549  0.3559 -0.8933
  786MOL0     H 6069   0.314   4.688  12.073 -1.1335 -2.5893  0.6408
  786MOL0     H 6070   0.378   4.823  12.480  0.0124 -0.5938  1.9825
  786MOL0     H 6071   0.246   4.736  12.788  0.0824 -2.2189 -0.4652
  786MOL0     H 6072   0.250   4.867  12.674 -1.1316  0.4517 -0.8868
  786MOL0     H 6073   0.103   4.770  12.677 -0.2193 -1.5072 -0.6390
  786MOL0     H 6074  -0.035   4.293  12.851 -0.7114 -2.4596  3.3384
  786MOL0     H 6075  -0.212   4.266  13.004  0.0240  0.6053  2.3287
  786MOL0     H 6076  -0.299   4.506  13.317  0.7854  1.3214 -1.5710
  786MOL0     H 6077  -0.353   4.651  13.239  1.5981 -0.7250 -1.9318
  786MOL0     H 6078  -0.577   4.490  13.232  0.7741 -3.1110 -1.3406
  786MOL0     H 6079  -0.497   4.414  13.368  2.0874  1.4597  3.3367
  786MOL0     H 6080  -0.656   4.584  13.440 -0.3551 -1.5737 -3.0847
  786MOL0     H 6081  -0.552   4.707  13.374  0.2673 -0.7537 -1.2607
  786MOL0     H 6082  -0.428   4.497  13.564 -0.3604  0.3156 -0.2874
  786MOL0     H 6083  -0.359   4.637  13.494 -0.1528 -1.1908 -0.9801
  786MOL0     H 6084  -0.509   4.803  13.618  0.3715  0.7139 -0.3348
  786MOL0     H 6085  -0.414   4.693  13.724  0.0909 -0.5919 -0.4220
  786MOL0     H 6086  -0.705   4.659  13.660  1.5328  0.2784 -2.8430
  786MOL0     H 6087  -0.615   4.548  13.747 -0.0509 -0.3732  0.6164
  786MOL0     H 6088  -0.561   4.712  13.935  1.3656 -2.3087 -1.4162
  786MOL0     H 6089  -0.730   4.674  13.921  2.0056 -2.9998 -0.4619
  786MOL0     H 6090  -0.759   4.904  13.786  1.4515 -0.6288 -2.9825
  786MOL0     H 6091  -0.584   4.913  13.798 -1.2357  0.8204 -0.4076
  786MOL0     H 6092  -0.230   4.696  13.059 -0.6067 -1.0592  1.4341
  786MOL0     H 6093  -0.045   4.714  12.912  0.9722 -0.0220  3.9595
  786MOL0     H 6094   0.169   4.381  12.426 -0.4803  0.8038 -1.1137
  786MOL0     H 6095   0.304   4.483  12.241 -1.1090 -0.7028  0.9150
  786MOL0     H 6096   1.097   5.370  11.204 -0.1640  1.6582 -1.7769
  786MOL0     H 6097   1.355   5.391  11.187  3.3589 -0.1133 -0.9565
  786MOL0     H 6098   1.721   5.020  11.064  1.2534 -0.7489  0.3517
  786MOL0     H 6099   1.930   5.001  10.936  3.6526  2.3435 -2.2624
  786MOL0     H 6100   2.317   5.230  10.917  0.1464 -0.6061 -0.4699
  786MOL0     H 6101   2.209   5.323  11.018 -1.1676  0.9911 -1.8350
  786MOL0     H 6102   2.156   5.108  11.146  2.0918  1.2335  1.7700
  786MOL0     H 6103   2.309   5.178  11.153 -0.8776 -1.9815  1.6615
  786MOL0     H 6104   2.371   4.970  11.144  0.1826 -0.6246 -0.3282
  786MOL0     H 6105   2.398   5.030  10.979  1.4399  1.6034  0.4738
  786MOL0     H 6106   2.294   4.794  10.997  0.3991  0.3353  2.7832
  786MOL0     H 6107   2.192   4.912  10.895  1.4011  1.4237 -0.1369
  786MOL0     H 6108   1.956   4.775  11.205  0.9147  1.0809  2.0211
  786MOL0     H 6109   2.011   5.419  11.011  0.2327  0.1110 -1.0353
  786MOL0     H 6110   1.809   5.450  11.136 -0.1223  0.0139  1.5835
  787MOL0     O 6111   9.855   7.342  10.203 -0.1988 -0.1135 -0.0957
  787MOL0     C 6112   9.922   7.267  10.141 -0.4574 -0.5748  0.4037
  787MOL0     O 6113   9.875   7.145  10.099  1.3219 -0.4247 -0.6992
  787MOL0     C 6114   9.744   7.107  10.112 -0.0873 -0.1791 -0.1976
  787MOL0     C 6115   9.632   7.194  10.092 -0.0428 -0.2273  0.7341
  787MOL0     C 6116   9.501   7.142  10.098 -0.2417  0.4258 -1.6645
  787MOL0     C 6117   9.477   7.008  10.139 -0.0724 -0.0329  0.4864
  787MOL0     O 6118   9.344   6.970  10.132 -0.3067  1.3021  0.0510
  787MOL0     C 6119   9.306   6.829  10.117 -0.4174  1.0299 -0.1719
  787MOL0     C 6120   9.163   6.806  10.088  0.1817 -0.3608 -0.2704
  787MOL0     C 6121   9.067   6.850  10.201  0.1320  0.7864  0.1397
  787MOL0     C 6122   8.920   6.812  10.157  0.3380  0.1245  0.3029
  787MOL0     C 6123   8.827   6.823  10.285  0.1854 -0.0650 -0.2352
  787MOL0     C 6124   8.671   6.829  10.232 -0.4325 -0.4409 -0.3454
  787MOL0     C 6125   8.621   6.698  10.172  0.1841  0.4400  0.9774
  787MOL0     C 6126   8.553   6.607  10.283  0.1608 -0.6022 -0.6654
  787MOL0     N 6127   8.653   6.538  10.363 -0.4713  0.2161  0.4986
  787MOL0     C 6128   8.712   6.587  10.477  1.2475  0.1051 -0.7255
  787MOL0     C 6129   8.808   6.494  10.500 -0.4335 -0.6394 -0.3885
  787MOL0     C 6130   8.926   6.503  10.599 -0.3067 -0.9268  0.2081
  787MOL0     C 6131   8.998   6.638  10.589 -0.9389 -0.0910  0.2895
  787MOL0     C 6132   9.107   6.644  10.699 -0.4376 -0.1080  0.3257
  787MOL0     C 6133   9.228   6.726  10.668  0.2132 -0.6969  0.4180
  787MOL0     O 6134   9.301   6.675  10.559  0.1895  0.5794  0.0277
  787MOL0     C 6135   9.428   6.719  10.525  1.0059  0.1770 -1.2482
  787MOL0     C 6136   9.491   6.642  10.430 -0.2337 -0.0918 -0.3533
  787MOL0     C 6137   9.627   6.670  10.390 -0.6188  0.4344 -0.2270
  787MOL0     C 6138   9.698   6.588  10.281  0.4545  0.5039  0.0537
  787MOL0     C 6139   9.697   6.779  10.458  0.4583 -0.6774  1.1078
  787MOL0     C 6140   9.839   6.827  10.443  0.4782  0.1336  0.0249
  787MOL0     O 6141   9.889   6.940  10.505 -0.2268 -0.0055 -0.1403
  787MOL0     C 6142  10.024   6.969  10.497  0.5984 -0.7837  0.4360
  787MOL0     C 6143  10.087   7.050  10.401  0.7532  0.3959 -1.0243
  787MOL0     C 6144  10.229   7.070  10.403 -0.1881 -0.1639 -0.2654
  787MOL0     C 6145  10.311   6.991  10.487 -0.2756 -0.2260  0.1788
  787MOL0     O 6146  10.451   7.006  10.480  0.8856  0.8533  0.3769
  787MOL0     C 6147  10.504   7.125  10.430  0.0058  0.0370 -0.5096
  787MOL0     C 6148  10.655   7.133  10.457  0.1465 -0.1053  0.7633
  787MOL0     C 6149  10.696   7.186  10.597 -1.0016  0.4803  0.0067
  787MOL0     C 6150  10.832   7.259  10.601  0.1615  0.6647  0.6103
  787MOL0     C 6151  10.870   7.320  10.742 -0.9485  0.5916  0.9246
  787MOL0     C 6152  11.022   7.339  10.753  0.9105 -0.3218 -0.0993
  787MOL0     C 6153  11.069   7.371  10.890 -0.2496 -0.7390  0.3503
  787MOL0     C 6154  11.024   7.499  10.963 -0.4733  0.4929 -0.7003
  787MOL0    Cl 6155  11.035   7.645  10.860  0.4567 -0.1095  0.5231
  787MOL0     C 6156  10.247   6.901  10.585 -0.9402  0.2639 -0.0449
  787MOL0     C 6157  10.107   6.904  10.592  0.3686  0.3197 -0.3895
  787MOL0     O 6158   9.905   6.757  10.371 -0.1227 -0.1063  0.1148
  787MOL0     C 6159   9.621   6.849  10.556 -1.2596 -0.9840 -0.6471
  787MOL0     C 6160   9.493   6.816  10.591  0.7254  0.2763 -0.5723
  787MOL0     N 6161   8.814   6.400  10.405  0.0892  0.6278  0.3239
  787MOL0     N 6162   8.723   6.435  10.316 -0.7408  0.0144 -0.3196
  787MOL0     C 6163   9.584   6.927  10.148 -0.1184  1.1509  0.2098
  787MOL0     C 6164   9.714   6.971  10.140 -0.5524  0.3385  0.0776
  787MOL0     C 6165  10.067   7.298  10.116  0.1594  0.2610  0.5138
  787MOL0     C 6166  10.158   7.200  10.068 -0.0023  0.9674 -0.2073
  787MOL0     C 6167  10.297   7.232  10.064 -0.1391 -0.4284  0.8364
  787MOL0     C 6168  10.350   7.357  10.097 -0.1053 -1.1489  0.1900
  787MOL0     O 6169  10.476   7.393  10.103  0.1053  0.2065 -0.8252
  787MOL0     C 6170  10.548   7.397   9.980 -0.5512  0.3814 -0.0892
  787MOL0     C 6171  10.576   7.537   9.946 -0.1904  0.0444 -0.1553
  787MOL0     C 6172  10.656   7.549   9.819 -0.3408  0.1849  0.1924
  787MOL0     C 6173  10.720   7.688   9.805 -0.0163  0.2340 -0.5359
  787MOL0     C 6174  10.818   7.740   9.912  1.0264 -0.0221  0.5344
  787MOL0     C 6175  10.899   7.776   9.995  0.1698 -0.0918 -1.0894
  787MOL0     C 6176  10.266   7.451  10.138  0.2981 -0.5001 -0.9054
  787MOL0     C 6177  10.126   7.428  10.152 -0.2796  0.4380  0.9143
  787MOL0     H 6178   9.640   7.300  10.067 -0.0198  0.0654  1.9368
  787MOL0     H 6179   9.404   7.189  10.086 -2.9266 -2.7804  3.4480
  787MOL0     H 6180   9.360   6.784  10.033  0.1711  2.1509 -0.4081
  787MOL0     H 6181   9.328   6.785  10.215 -1.5433 -1.7271 -1.0410
  787MOL0     H 6182   9.138   6.859   9.996 -1.8115  0.8741  0.9263
  787MOL0     H 6183   9.144   6.699  10.076 -0.6776 -0.3860  1.0790
  787MOL0     H 6184   9.080   6.802  10.298  1.9703 -1.4315 -1.1297
  787MOL0     H 6185   9.074   6.959  10.212  2.9450  0.9056 -1.8768
  787MOL0     H 6186   8.887   6.882  10.080  1.5759  1.6038  1.0874
  787MOL0     H 6187   8.908   6.718  10.101 -1.6755  1.1977 -1.2366
  787MOL0     H 6188   8.841   6.734  10.347 -2.7075 -0.3586  0.1239
  787MOL0     H 6189   8.857   6.911  10.343  1.3937 -0.5013 -0.1640
  787MOL0     H 6190   8.616   6.851  10.324  0.4441 -1.3461  0.3998
  787MOL0     H 6191   8.659   6.911  10.160 -1.4338  0.8578  1.2334
  787MOL0     H 6192   8.547   6.709  10.093 -0.3733 -2.0799  1.0600
  787MOL0     H 6193   8.704   6.647  10.123  1.5566  0.6402  2.9520
  787MOL0     H 6194   8.499   6.531  10.225  1.7578 -1.3956 -1.1642
  787MOL0     H 6195   8.474   6.653  10.343  0.2798 -0.1357 -0.8651
  787MOL0     H 6196   8.688   6.675  10.535 -1.5200 -1.7264  1.1137
  787MOL0     H 6197   8.884   6.488  10.699 -3.5844  1.3210 -0.6695
  787MOL0     H 6198   8.999   6.423  10.582  1.6212  0.1101  2.9431
  787MOL0     H 6199   8.925   6.718  10.603 -3.1422 -1.8603 -0.4494
  787MOL0     H 6200   9.036   6.658  10.488 -0.1082  2.1723  0.9828
  787MOL0     H 6201   9.140   6.542  10.722  3.2365  0.9427  0.2866
  787MOL0     H 6202   9.061   6.695  10.784  1.2635  0.3736  1.0001
  787MOL0     H 6203   9.296   6.724  10.754  0.2335  0.0305  0.4306
  787MOL0     H 6204   9.197   6.828  10.640  0.0567 -1.5302 -2.9552
  787MOL0     H 6205   9.444   6.557  10.380  3.7565 -1.1109 -2.8663
  787MOL0     H 6206   9.770   6.526  10.334 -1.2795 -2.6780 -1.0460
  787MOL0     H 6207   9.621   6.529  10.230 -0.4521 -0.0221  1.9606
  787MOL0     H 6208   9.748   6.657  10.212 -2.1028  0.2161 -2.2618
  787MOL0     H 6209  10.031   7.092  10.318 -2.0547 -2.6578 -0.8505
  787MOL0     H 6210  10.265   7.129  10.319  0.5023  1.6051  1.2149
  787MOL0     H 6211  10.487   7.140  10.324  1.9846  0.8605 -0.7550
  787MOL0     H 6212  10.459   7.204  10.491 -0.5814 -0.1257 -0.7262
  787MOL0     H 6213  10.709   7.042  10.428  0.5902  0.0127  1.2033
  787MOL0     H 6214  10.700   7.199  10.382 -1.1426  0.1005  0.1413
  787MOL0     H 6215  10.713   7.090  10.646 -0.9194  0.0725 -0.7936
  787MOL0     H 6216  10.614   7.237  10.646 -2.3923 -0.6838 -1.0237
  787MOL0     H 6217  10.918   7.201  10.565  0.8810  1.7458  0.5450
  787MOL0     H 6218  10.825   7.348  10.538 -1.5322 -0.7107 -1.2839
  787MOL0     H 6219  10.835   7.252  10.820 -2.0084 -0.7012 -0.6101
  787MOL0     H 6220  10.822   7.416  10.761  0.2298  0.8952  2.6245
  787MOL0     H 6221  11.075   7.247  10.726 -0.2699 -0.6965 -1.2918
  787MOL0     H 6222  11.060   7.420  10.690  2.2069 -1.1547 -0.4191
  787MOL0     H 6223  11.178   7.369  10.882 -0.2543 -1.5670  0.4348
  787MOL0     H 6224  11.043   7.290  10.958 -3.1923 -0.7721 -0.6505
  787MOL0     H 6225  11.080   7.514  11.055  0.1817 -1.0529 -0.8204
  787MOL0     H 6226  10.917   7.497  10.984 -0.3212 -1.4883  0.0523
  787MOL0     H 6227  10.309   6.852  10.659  1.2431 -0.5412 -2.2513
  787MOL0     H 6228  10.068   6.843  10.673  0.6025  2.7326  1.6608
  787MOL0     H 6229   9.666   6.924  10.620  0.0251  1.3794 -4.0153
  787MOL0     H 6230   9.441   6.877  10.664  2.4483  0.6810  0.3713
  787MOL0     H 6231   9.574   6.819  10.147  3.6608  0.6712 -0.2592
  787MOL0     H 6232   9.798   6.903  10.147  0.2336  1.3815  1.1763
  787MOL0     H 6233  10.125   7.099  10.046  0.0831  0.9794 -0.3915
  787MOL0     H 6234  10.368   7.151  10.051 -0.2507 -0.4015  0.0012
  787MOL0     H 6235  10.645   7.347   9.986  0.6090  2.0200 -3.1199
  787MOL0     H 6236  10.482   7.355   9.903 -0.3082 -0.5987  0.2185
  787MOL0     H 6237  10.640   7.577  10.025 -1.2812  0.2797  0.6296
  787MOL0     H 6238  10.483   7.594   9.931 -0.7844 -1.4906 -2.9858
  787MOL0     H 6239  10.595   7.533   9.730  1.2288 -0.7691 -0.7447
  787MOL0     H 6240  10.740   7.480   9.816  1.3980  2.1487  0.9757
  787MOL0     H 6241  10.635   7.757   9.801  0.1390  0.3971 -1.1710
  787MOL0     H 6242  10.762   7.688   9.704 -1.2006 -1.1746 -1.0565
  787MOL0     H 6243  10.975   7.799  10.067  0.7502 -2.7977 -0.7241
  787MOL0     H 6244  10.306   7.547  10.166 -0.8334 -0.2961  0.0896
  787MOL0     H 6245  10.071   7.516  10.180  1.3308  1.5548  0.7141
  788MOL0     O 6246   8.444   9.828  10.064  0.3142  0.2873  0.4431
  788MOL0     C 6247   8.501   9.819  10.177  0.6496 -0.2199  0.5523
  788MOL0     O 6248   8.438   9.829  10.296 -0.5308 -0.9725  1.0560
  788MOL0     C 6249   8.296   9.835  10.292  0.2313  0.3906 -0.2297
  788MOL0     C 6250   8.227   9.736  10.355  0.8447  0.4394  0.2360
  788MOL0     C 6251   8.084   9.755  10.370 -0.3379  0.4505  0.3310
  788MOL0     C 6252   8.019   9.857  10.307 -0.2269  0.2480  0.1744
  788MOL0     O 6253   7.885   9.867  10.320  0.8825  0.0758 -0.3155
  788MOL0     C 6254   7.807   9.921  10.210  0.8345  0.3637 -0.6811
  788MOL0     C 6255   7.737  10.039  10.274 -0.2280 -0.5352  0.8919
  788MOL0     C 6256   7.608  10.020  10.359 -0.6017 -0.1755 -0.6817
  788MOL0     C 6257   7.568  10.155  10.413 -0.8519 -0.0716 -0.0669
  788MOL0     C 6258   7.436  10.135  10.490 -0.1582 -0.6828  0.1555
  788MOL0     C 6259   7.367  10.268  10.541 -1.3634  0.3796  0.0035
  788MOL0     C 6260   7.237  10.238  10.621  0.3322 -0.6693  0.9584
  788MOL0     C 6261   7.118  10.223  10.528  0.1320 -0.4523  0.5416
  788MOL0     N 6262   7.001  10.198  10.616 -0.0531 -0.1565  0.0505
  788MOL0     C 6263   6.952  10.078  10.648  0.3189 -0.0071  0.0078
  788MOL0     C 6264   6.846  10.091  10.725  1.0189  0.6796  0.0240
  788MOL0     C 6265   6.745   9.978  10.766 -0.6432 -0.4382  0.1669
  788MOL0     C 6266   6.741   9.857  10.682 -0.0081 -0.2081 -0.4611
  788MOL0     C 6267   6.819   9.745  10.754 -0.2104  0.1885 -0.1876
  788MOL0     C 6268   6.880   9.651  10.649  0.0008  0.7657 -0.3737
  788MOL0     O 6269   6.778   9.570  10.569  0.2793 -0.0260  0.6819
  788MOL0     C 6270   6.825   9.452  10.518 -0.0130  0.1300  0.2216
  788MOL0     C 6271   6.734   9.355  10.475  0.0386 -0.0996  0.2895
  788MOL0     C 6272   6.776   9.222  10.447  0.1560  0.3233  0.1665
  788MOL0     C 6273   6.662   9.118  10.419 -0.2616 -0.5851 -0.0860
  788MOL0     C 6274   6.905   9.182  10.457 -0.8496 -0.2924  0.2426
  788MOL0     C 6275   6.959   9.045  10.421  0.5477  0.2551  0.9209
  788MOL0     O 6276   7.089   9.017  10.454 -0.4169  0.8108 -0.0579
  788MOL0     C 6277   7.157   8.910  10.404 -1.2572  0.1538  0.2294
  788MOL0     C 6278   7.286   8.902  10.454  0.6059  0.3222  0.1358
  788MOL0     C 6279   7.375   8.800  10.417  1.0049  0.5103  0.2446
  788MOL0     C 6280   7.341   8.701  10.323 -0.1340 -0.3785  0.3014
  788MOL0     O 6281   7.423   8.591  10.292  0.0589 -0.3131  0.1227
  788MOL0     C 6282   7.558   8.632  10.253  0.4102  0.9999  0.0547
  788MOL0     C 6283   7.630   8.526  10.162  0.3606 -0.3889 -0.3051
  788MOL0     C 6284   7.570   8.508  10.014 -0.3600 -0.0254 -1.1144
  788MOL0     C 6285   7.416   8.489  10.010  0.1107 -0.4806  0.5817
  788MOL0     C 6286   7.362   8.439   9.872 -0.2572  1.0103  0.1914
  788MOL0     C 6287   7.358   8.549   9.773  0.6755 -0.3494  0.1324
  788MOL0     C 6288   7.295   8.504   9.640  0.2220 -0.6786 -0.2763
  788MOL0     C 6289   7.226   8.625   9.571 -0.2144 -0.1754  0.8799
  788MOL0    Cl 6290   7.195   8.579   9.395  0.3635 -0.2960 -0.1291
  788MOL0     C 6291   7.211   8.711  10.268  0.0880 -0.2201 -0.0359
  788MOL0     C 6292   7.124   8.810  10.308 -0.1039  0.0728 -0.4383
  788MOL0     O 6293   6.878   8.964  10.383 -0.1950 -0.5776  0.0683
  788MOL0     C 6294   6.999   9.283  10.504  0.0548 -0.9517  0.7551
  788MOL0     C 6295   6.958   9.417  10.531  0.3244  0.5076 -0.7862
  788MOL0     N 6296   6.826  10.229  10.741 -0.8008 -0.2030  0.0381
  788MOL0     N 6297   6.919  10.290  10.679  0.1912  0.2666  1.0599
  788MOL0     C 6298   8.098   9.961  10.255  0.5907 -0.2692 -0.2079
  788MOL0     C 6299   8.234   9.954  10.250 -0.0120  0.3001  0.2079
  788MOL0     C 6300   8.638   9.793  10.175 -0.0572  0.5062  0.2490
  788MOL0     C 6301   8.704   9.732  10.282 -0.2488  0.4357 -0.3658
  788MOL0     C 6302   8.842   9.720  10.277 -0.7863  0.4118  0.0763
  788MOL0     C 6303   8.920   9.771  10.170 -0.6213  0.5376 -0.0384
  788MOL0     O 6304   9.056   9.748  10.156 -0.4987  0.3373 -0.4427
  788MOL0     C 6305   9.145   9.726  10.269  0.2061  0.4639  0.3048
  788MOL0     C 6306   9.278   9.781  10.222  0.2063  0.0818 -0.2917
  788MOL0     C 6307   9.331   9.717  10.098 -0.4123 -0.1489  0.5735
  788MOL0     C 6308   9.311   9.810   9.976 -0.1758 -0.6466 -0.3325
  788MOL0     C 6309   9.371   9.766   9.848 -0.6666  1.0913 -0.2616
  788MOL0     C 6310   9.421   9.751   9.740 -0.4364  0.2041  0.5870
  788MOL0     C 6311   8.855   9.831  10.058 -0.0604 -0.0805 -0.5809
  788MOL0     C 6312   8.715   9.844  10.065 -0.0419 -0.1708  0.1203
  788MOL0     H 6313   8.279   9.651  10.398 -0.3104 -1.2185 -1.4726
  788MOL0     H 6314   8.036   9.689  10.441  0.2344 -0.2759  0.0599
  788MOL0     H 6315   7.873   9.951  10.128  3.0577  0.6838  1.1280
  788MOL0     H 6316   7.734   9.846  10.178  2.1241  0.1421 -3.3792
  788MOL0     H 6317   7.816  10.086  10.333 -0.4524  1.8271 -0.5644
  788MOL0     H 6318   7.716  10.112  10.195  0.8380  2.6604  3.3594
  788MOL0     H 6319   7.523   9.972  10.309 -0.7180 -1.2947  0.5456
  788MOL0     H 6320   7.645   9.970  10.449  3.7516  0.2168 -2.0341
  788MOL0     H 6321   7.647  10.205  10.470 -1.5903 -1.0096  1.8610
  788MOL0     H 6322   7.544  10.215  10.325  0.7042  0.7115  0.0051
  788MOL0     H 6323   7.369  10.081  10.423  0.6695 -0.3058 -1.0279
  788MOL0     H 6324   7.456  10.067  10.573 -0.5786  3.0229  3.5475
  788MOL0     H 6325   7.430  10.322  10.613  0.5078 -1.7723  0.1005
  788MOL0     H 6326   7.342  10.330  10.455 -0.2003  0.3483 -0.3796
  788MOL0     H 6327   7.246  10.139  10.668 -1.0138 -1.4317 -0.2823
  788MOL0     H 6328   7.223  10.315  10.696  1.9907  0.8064 -0.1601
  788MOL0     H 6329   7.131  10.147  10.450 -0.5386 -0.0654  0.0470
  788MOL0     H 6330   7.113  10.311  10.464  0.4841 -1.6218 -1.1922
  788MOL0     H 6331   6.990   9.979  10.622  0.6246 -0.6168  2.5006
  788MOL0     H 6332   6.757   9.943  10.869  1.2322  0.0520  0.1434
  788MOL0     H 6333   6.651  10.034  10.771 -1.1920 -1.3873  0.7776
  788MOL0     H 6334   6.785   9.870  10.582  1.4553  2.4838  0.4325
  788MOL0     H 6335   6.636   9.828  10.669  0.0055 -0.0562 -0.9279
  788MOL0     H 6336   6.742   9.687  10.806  0.1351 -1.5523 -1.4892
  788MOL0     H 6337   6.897   9.795  10.811 -0.3786  1.5424 -1.0943
  788MOL0     H 6338   6.956   9.594  10.704  4.8486  5.2953 -1.5863
  788MOL0     H 6339   6.931   9.713  10.575 -2.3376  1.6245 -1.3645
  788MOL0     H 6340   6.631   9.386  10.463  0.5572  1.3084 -0.8438
  788MOL0     H 6341   6.562   9.158  10.440 -0.1914 -0.4355 -0.0293
  788MOL0     H 6342   6.658   9.092  10.313 -1.7918 -2.7784  0.4592
  788MOL0     H 6343   6.680   9.029  10.478  1.1721 -0.3816 -0.1788
  788MOL0     H 6344   7.306   8.984  10.522  2.1830  0.3961 -0.3778
  788MOL0     H 6345   7.472   8.786  10.464  0.1310 -0.2001  1.9315
  788MOL0     H 6346   7.554   8.731  10.207 -0.8326  0.9821  0.0801
  788MOL0     H 6347   7.622   8.643  10.341 -0.6569  0.7556  0.8940
  788MOL0     H 6348   7.735   8.557  10.154 -0.1239  2.1456  1.8410
  788MOL0     H 6349   7.643   8.433  10.217  2.6194  1.1289  1.9808
  788MOL0     H 6350   7.629   8.434   9.961  1.2900  0.0344  0.5071
  788MOL0     H 6351   7.590   8.602   9.962  2.4073  1.0201  1.5330
  788MOL0     H 6352   7.396   8.415  10.088  0.8283 -3.8824 -2.1853
  788MOL0     H 6353   7.358   8.578  10.036  0.9093  1.4583 -3.4295
  788MOL0     H 6354   7.266   8.388   9.886 -1.4081  2.4758 -1.8248
  788MOL0     H 6355   7.438   8.367   9.840 -2.2625 -0.8883 -0.5429
  788MOL0     H 6356   7.290   8.619   9.822  0.7541 -1.7469  2.4240
  788MOL0     H 6357   7.459   8.585   9.757  1.0167 -1.1368  0.4521
  788MOL0     H 6358   7.219   8.430   9.667 -1.2873 -0.0842 -2.6369
  788MOL0     H 6359   7.369   8.457   9.575 -0.7515 -2.4724 -0.1762
  788MOL0     H 6360   7.295   8.709   9.566 -1.4382  0.8226  0.3940
  788MOL0     H 6361   7.135   8.656   9.623  0.0750 -0.2043  1.4102
  788MOL0     H 6362   7.191   8.641  10.187  0.8078 -0.7484  0.2229
  788MOL0     H 6363   7.029   8.833  10.260 -0.2329  0.6721  0.0967
  788MOL0     H 6364   7.103   9.253  10.501 -0.4941 -2.9594  0.4943
  788MOL0     H 6365   7.039   9.487  10.547  0.9565 -0.5488  0.8999
  788MOL0     H 6366   8.047  10.054  10.231  2.0594  1.1211  1.6474
  788MOL0     H 6367   8.297  10.030  10.206 -0.0269  0.9850  1.3246
  788MOL0     H 6368   8.648   9.693  10.367  0.6097 -1.3710 -0.5874
  788MOL0     H 6369   8.900   9.669  10.353  2.6346  1.3515 -1.6686
  788MOL0     H 6370   9.114   9.776  10.361  0.6726  3.3058 -0.9775
  788MOL0     H 6371   9.144   9.617  10.278  1.4285  0.2681 -1.3942
  788MOL0     H 6372   9.345   9.769  10.307 -3.5369  0.2865  3.0007
  788MOL0     H 6373   9.261   9.889  10.212 -1.0855 -0.0874 -0.1795
  788MOL0     H 6374   9.277   9.623  10.082  0.2096  0.0165 -3.2648
  788MOL0     H 6375   9.438   9.698  10.108  0.2751  2.3180 -1.1680
  788MOL0     H 6376   9.353   9.909   9.996  1.2387 -1.1066 -0.8751
  788MOL0     H 6377   9.205   9.832   9.960 -0.8156 -0.3677  3.4961
  788MOL0     H 6378   9.449   9.739   9.638  0.7603 -4.6879  1.2602
  788MOL0     H 6379   8.907   9.864   9.969  2.3022 -1.9646  0.0257
  788MOL0     H 6380   8.679   9.889   9.973  2.9356 -1.4164 -1.8257
  789MOL0     O 6381   1.718   3.556   6.515  0.1983  0.4547  0.8081
  789MOL0     C 6382   1.834   3.515   6.496  0.7060  0.0041 -0.2787
  789MOL0     O 6383   1.896   3.419   6.568 -0.2711 -0.5051  0.3612
  789MOL0     C 6384   1.810   3.351   6.652  0.4984  0.3674  0.6536
  789MOL0     C 6385   1.718   3.266   6.586 -0.0658  0.4406 -0.2040
  789MOL0     C 6386   1.631   3.185   6.669  0.6520 -0.0818  0.1319
  789MOL0     C 6387   1.627   3.195   6.811  0.6790 -0.1149  0.1799
  789MOL0     O 6388   1.526   3.130   6.881 -0.3350  0.6024 -0.0518
  789MOL0     C 6389   1.419   3.050   6.815  0.8634 -0.3498  0.0116
  789MOL0     C 6390   1.321   3.016   6.923  0.2628  0.9760 -0.0606
  789MOL0     C 6391   1.245   3.133   6.996 -0.1683 -0.4688  0.5205
  789MOL0     C 6392   1.107   3.093   7.059 -0.3959 -0.3026 -0.4989
  789MOL0     C 6393   1.017   3.213   7.110 -0.2561  0.5800  0.1639
  789MOL0     C 6394   0.964   3.296   6.995 -0.6523 -0.6680  0.8070
  789MOL0     C 6395   0.869   3.404   7.043 -0.5149  1.1410  0.0986
  789MOL0     C 6396   0.731   3.345   7.070 -0.3070  0.4459 -0.2363
  789MOL0     N 6397   0.633   3.454   7.104 -1.1615  0.1742 -0.0316
  789MOL0     C 6398   0.601   3.489   7.229  0.8113 -0.2800 -0.3578
  789MOL0     C 6399   0.507   3.584   7.208 -0.3541  0.2290 -0.5268
  789MOL0     C 6400   0.433   3.667   7.303 -0.3449 -0.1707  0.3482
  789MOL0     C 6401   0.287   3.627   7.293  0.1362  0.8192  0.3950
  789MOL0     C 6402   0.206   3.716   7.390  0.3444  0.1839 -0.4243
  789MOL0     C 6403   0.204   3.865   7.390 -0.7323 -0.4160 -0.3506
  789MOL0     O 6404   0.135   3.919   7.506  0.0400  0.1255 -0.6061
  789MOL0     C 6405  -0.005   3.926   7.496  0.2512 -0.3532 -0.2251
  789MOL0     C 6406  -0.075   3.975   7.608 -0.5055  0.0465  0.3070
  789MOL0     C 6407  -0.216   3.992   7.602  0.1458 -0.3117  0.3574
  789MOL0     C 6408  -0.286   4.069   7.711  1.0184 -0.9303  0.2491
  789MOL0     C 6409  -0.295   3.946   7.499 -0.0047  0.5105  0.0207
  789MOL0     C 6410  -0.442   3.961   7.489 -0.4918  0.3214 -0.7493
  789MOL0     O 6411  -0.490   3.995   7.367  0.0365 -0.1568  0.3588
  789MOL0     C 6412  -0.624   4.027   7.377  1.6289  0.4910 -0.7621
  789MOL0     C 6413  -0.712   3.966   7.284 -0.0127 -0.0116  0.1192
  789MOL0     C 6414  -0.852   3.997   7.281 -0.2368 -0.0714  0.2575
  789MOL0     C 6415  -0.902   4.094   7.369 -0.4760  0.3142  0.2787
  789MOL0     O 6416  -1.032   4.140   7.390  0.6656 -0.7988 -0.1458
  789MOL0     C 6417  -1.144   4.079   7.319 -0.4124  0.5069 -0.5475
  789MOL0     C 6418  -1.271   4.167   7.352  0.4821  0.4356 -0.2027
  789MOL0     C 6419  -1.406   4.097   7.330  0.0848 -0.0867 -0.0093
  789MOL0     C 6420  -1.526   4.190   7.337 -0.6237 -0.8350 -0.3100
  789MOL0     C 6421  -1.663   4.133   7.326 -0.0126  0.1304  0.0636
  789MOL0     C 6422  -1.770   4.242   7.324 -0.3390 -0.8831  0.6667
  789MOL0     C 6423  -1.784   4.314   7.460  0.1402 -0.6355 -0.2653
  789MOL0     C 6424  -1.894   4.421   7.455 -0.0234  0.3532  0.0251
  789MOL0    Cl 6425  -1.845   4.558   7.361 -0.3883 -0.0508 -0.0272
  789MOL0     C 6426  -0.808   4.145   7.463  0.9895 -0.6085  0.2950
  789MOL0     C 6427  -0.679   4.112   7.470 -0.3738  0.2826 -0.3585
  789MOL0     O 6428  -0.509   3.915   7.581  0.4839 -0.1193 -0.0821
  789MOL0     C 6429  -0.221   3.887   7.394  1.3374  0.0164  0.2456
  789MOL0     C 6430  -0.086   3.875   7.400  0.6464  0.7821  0.0106
  789MOL0     N 6431   0.508   3.611   7.069  0.2725 -0.8578 -0.7301
  789MOL0     N 6432   0.569   3.524   7.006 -0.1136 -0.2547  0.4354
  789MOL0     C 6433   1.717   3.286   6.868  0.3645 -0.2977 -0.3843
  789MOL0     C 6434   1.803   3.361   6.786  0.1778  0.4431 -0.1020
  789MOL0     C 6435   1.916   3.603   6.413  1.2117 -0.3738 -0.7510
  789MOL0     C 6436   1.881   3.740   6.424 -0.7837 -0.2201 -0.4322
  789MOL0     C 6437   1.973   3.841   6.385  0.3209 -0.5368  0.3180
  789MOL0     C 6438   2.081   3.798   6.302  0.4416 -0.2765 -0.0789
  789MOL0     O 6439   2.170   3.895   6.246  0.0084 -0.1540 -0.2555
  789MOL0     C 6440   2.111   4.028   6.221  0.1374 -0.0979 -0.1719
  789MOL0     C 6441   2.190   4.102   6.115 -0.2758 -0.4504 -0.2438
  789MOL0     C 6442   2.315   4.165   6.174 -0.0173  0.4677 -0.0683
  789MOL0     C 6443   2.380   4.267   6.083 -0.4760 -0.3341 -0.0023
  789MOL0     C 6444   2.489   4.216   5.990  0.1861 -0.0296 -0.0642
  789MOL0     C 6445   2.564   4.165   5.912  0.2210  0.2203 -0.3890
  789MOL0     C 6446   2.108   3.660   6.277 -0.2963 -0.1639  0.2619
  789MOL0     C 6447   2.033   3.562   6.341  0.4339 -0.0029  0.3584
  789MOL0     H 6448   1.733   3.257   6.479  1.2887  0.6426 -0.0520
  789MOL0     H 6449   1.568   3.122   6.607  0.8491 -0.0737 -0.0768
  789MOL0     H 6450   1.371   3.115   6.742 -0.5014 -1.9633 -0.5911
  789MOL0     H 6451   1.448   2.954   6.771 -1.5021 -0.6127 -1.0691
  789MOL0     H 6452   1.247   2.945   6.886  0.0413 -0.7306  3.3208
  789MOL0     H 6453   1.376   2.961   6.999  0.5930  0.6571 -0.5264
  789MOL0     H 6454   1.308   3.193   7.063  0.7067  0.1163 -0.7823
  789MOL0     H 6455   1.226   3.211   6.921  1.1711 -1.1644 -0.5916
  789MOL0     H 6456   1.047   3.029   6.994 -1.6566  1.1086 -0.7762
  789MOL0     H 6457   1.129   3.044   7.154  0.0538  0.8606  0.0197
  789MOL0     H 6458   0.932   3.175   7.169  0.4421 -0.3985  0.5713
  789MOL0     H 6459   1.074   3.277   7.178 -0.4986  2.0509 -0.9883
  789MOL0     H 6460   1.048   3.352   6.952 -1.0794  0.1843  1.0645
  789MOL0     H 6461   0.928   3.230   6.915 -0.2610 -1.0902  0.9741
  789MOL0     H 6462   0.925   3.449   7.125  2.9573 -0.2191 -1.3140
  789MOL0     H 6463   0.866   3.495   6.982  0.6703  1.3253  0.2815
  789MOL0     H 6464   0.724   3.268   7.147 -3.2291  0.7724 -0.0678
  789MOL0     H 6465   0.689   3.291   6.985 -1.5336  0.6379  0.2381
  789MOL0     H 6466   0.634   3.455   7.327 -1.0259  0.4864  0.5764
  789MOL0     H 6467   0.481   3.655   7.400  0.2109 -1.3146 -0.0532
  789MOL0     H 6468   0.448   3.774   7.286 -0.1894 -0.0362  1.2914
  789MOL0     H 6469   0.281   3.520   7.313  0.0577  0.4742 -1.3162
  789MOL0     H 6470   0.249   3.643   7.192  0.6119  1.1347  0.2612
  789MOL0     H 6471   0.253   3.685   7.484  2.8780 -1.8813 -2.2501
  789MOL0     H 6472   0.103   3.679   7.388  1.3425 -2.8049 -1.7374
  789MOL0     H 6473   0.164   3.905   7.296 -1.4103 -1.0545 -0.3393
  789MOL0     H 6474   0.310   3.891   7.397 -0.9569  0.3844  0.2491
  789MOL0     H 6475  -0.018   4.017   7.690 -1.6876  0.4482  0.9525
  789MOL0     H 6476  -0.331   4.164   7.680 -1.5946 -1.6277  1.5921
  789MOL0     H 6477  -0.362   4.010   7.762  0.8900  1.1055  2.5722
  789MOL0     H 6478  -0.212   4.087   7.789  1.8208 -0.5244 -0.5859
  789MOL0     H 6479  -0.673   3.888   7.220 -1.9299 -0.8398 -0.1095
  789MOL0     H 6480  -0.914   3.960   7.199  0.2336  2.4682 -1.3479
  789MOL0     H 6481  -1.127   4.065   7.212 -1.6009 -0.0057 -0.6810
  789MOL0     H 6482  -1.161   3.982   7.367  0.6566  1.1778  1.2966
  789MOL0     H 6483  -1.247   4.189   7.457 -2.9789 -1.2605  1.0899
  789MOL0     H 6484  -1.271   4.262   7.297  1.0592  1.2579  1.1714
  789MOL0     H 6485  -1.416   4.026   7.413 -1.5674  2.0592  1.7651
  789MOL0     H 6486  -1.409   4.037   7.239 -0.5520  1.5288 -1.1009
  789MOL0     H 6487  -1.522   4.238   7.436  0.9761  0.2219 -0.8494
  789MOL0     H 6488  -1.511   4.268   7.262  3.4725 -0.6384  0.5007
  789MOL0     H 6489  -1.680   4.058   7.404 -0.5084  0.5525  0.3651
  789MOL0     H 6490  -1.668   4.075   7.234 -0.2226  0.4555 -0.1321
  789MOL0     H 6491  -1.738   4.307   7.241  3.2451 -3.9544 -0.6527
  789MOL0     H 6492  -1.867   4.202   7.295  0.0965 -0.4753 -1.5996
  789MOL0     H 6493  -1.690   4.368   7.477 -0.2398 -0.4146  1.3170
  789MOL0     H 6494  -1.797   4.238   7.538  1.0008  0.8306  1.3832
  789MOL0     H 6495  -1.911   4.467   7.553 -1.7981 -0.8319  0.3299
  789MOL0     H 6496  -1.988   4.383   7.415 -0.7861 -0.9506  2.8055
  789MOL0     H 6497  -0.834   4.219   7.538  1.8114 -1.0123  1.0056
  789MOL0     H 6498  -0.614   4.149   7.548 -1.6098 -0.9589  1.3571
  789MOL0     H 6499  -0.267   3.849   7.303  4.2088 -0.0195 -1.3238
  789MOL0     H 6500  -0.050   3.841   7.304  1.9699 -0.5011  0.9227
  789MOL0     H 6501   1.725   3.297   6.976 -0.1530 -2.3451 -0.0896
  789MOL0     H 6502   1.868   3.427   6.842  2.1732 -2.9880  1.9827
  789MOL0     H 6503   1.796   3.777   6.481 -0.0711  2.0664 -0.7473
  789MOL0     H 6504   1.941   3.941   6.413 -1.8050 -1.6571  2.2842
  789MOL0     H 6505   2.006   4.015   6.192 -0.1703  0.1413  0.7914
  789MOL0     H 6506   2.102   4.090   6.310  2.0355  1.1124 -0.7718
  789MOL0     H 6507   2.126   4.181   6.075  1.0531  0.5729 -0.4472
  789MOL0     H 6508   2.218   4.046   6.024  0.7514  1.8615 -1.4405
  789MOL0     H 6509   2.386   4.086   6.198  1.9254  2.0960 -0.2397
  789MOL0     H 6510   2.288   4.207   6.271  0.5286 -0.4792  0.5090
  789MOL0     H 6511   2.434   4.334   6.151  1.2331 -2.1380  0.5466
  789MOL0     H 6512   2.322   4.333   6.019  0.8624  1.5299  0.6266
  789MOL0     H 6513   2.619   4.121   5.831 -2.4444 -0.2065 -2.1014
  789MOL0     H 6514   2.188   3.639   6.207 -1.4943 -2.4533 -0.5083
  789MOL0     H 6515   2.050   3.456   6.323 -0.2310  0.1867 -1.6902
  790MOL0     O 6516   1.344   3.607   6.100  0.3899 -0.2367  0.0352
  790MOL0     C 6517   1.448   3.630   6.164 -0.2372 -0.1282 -0.8707
  790MOL0     O 6518   1.466   3.612   6.299  0.3123 -0.2306 -0.5190
  790MOL0     C 6519   1.367   3.568   6.383 -0.3569 -0.3259  0.1398
  790MOL0     C 6520   1.405   3.475   6.471  0.0456  0.7874  0.3197
  790MOL0     C 6521   1.310   3.424   6.561 -0.4982 -0.1580  0.1978
  790MOL0     C 6522   1.179   3.466   6.564 -0.0775 -0.2572  0.5266
  790MOL0     O 6523   1.105   3.424   6.668  0.0713  0.4409 -0.0078
  790MOL0     C 6524   0.964   3.452   6.669 -0.3085  0.5562  0.8183
  790MOL0     C 6525   0.895   3.361   6.561  0.5280  0.0804  0.3912
  790MOL0     C 6526   0.754   3.405   6.527  0.5387 -0.4021  0.4331
  790MOL0     C 6527   0.653   3.374   6.638 -0.3817  0.5887 -0.2505
  790MOL0     C 6528   0.509   3.406   6.600  0.0704 -0.1662  0.0927
  790MOL0     C 6529   0.445   3.307   6.496 -0.0604  0.8389 -0.0953
  790MOL0     C 6530   0.299   3.350   6.464  0.5756  0.0882 -0.6977
  790MOL0     C 6531   0.220   3.251   6.367  0.0870  0.8613  0.3916
  790MOL0     N 6532   0.075   3.262   6.363  0.1272  0.7299 -0.5490
  790MOL0     C 6533  -0.006   3.183   6.447  0.4119 -0.2325 -0.3426
  790MOL0     C 6534  -0.129   3.223   6.424 -0.5926  0.2306  1.7373
  790MOL0     C 6535  -0.248   3.163   6.484 -0.4147  0.0664  0.1046
  790MOL0     C 6536  -0.313   3.265   6.584  0.1397  0.1687  0.2809
  790MOL0     C 6537  -0.440   3.217   6.660 -0.4388 -0.3229 -0.1473
  790MOL0     C 6538  -0.553   3.178   6.566 -0.6703  0.3292  0.7858
  790MOL0     O 6539  -0.663   3.131   6.645 -0.1543 -0.6681 -0.0161
  790MOL0     C 6540  -0.787   3.115   6.579  0.7029 -0.7477 -0.3761
  790MOL0     C 6541  -0.834   3.164   6.459  0.0763  0.0048 -0.3568
  790MOL0     C 6542  -0.955   3.134   6.398  0.0251 -0.2710  0.2182
  790MOL0     C 6543  -0.980   3.202   6.265  0.1267  0.2424  0.2491
  790MOL0     C 6544  -1.040   3.047   6.467 -0.1111  0.1992 -0.3443
  790MOL0     C 6545  -1.186   3.032   6.430  0.1594  0.3301  0.0591
  790MOL0     O 6546  -1.261   2.962   6.521  0.1087 -0.4402 -0.1892
  790MOL0     C 6547  -1.400   2.949   6.505 -0.5777 -0.1699 -0.1863
  790MOL0     C 6548  -1.445   2.817   6.526 -0.3548 -0.1935  0.5750
  790MOL0     C 6549  -1.578   2.791   6.534  0.1797  0.2158 -0.3736
  790MOL0     C 6550  -1.667   2.894   6.526 -0.3245 -0.0089 -0.1282
  790MOL0     O 6551  -1.800   2.873   6.519 -0.5526  0.1087 -0.2133
  790MOL0     C 6552  -1.857   2.791   6.616 -0.8264 -0.4939  0.5992
  790MOL0     C 6553  -1.994   2.838   6.637 -0.1261  0.6184  0.6815
  790MOL0     C 6554  -2.003   2.981   6.692 -0.9910  0.7587  0.0922
  790MOL0     C 6555  -2.147   3.023   6.713 -0.2114 -0.0298 -0.1380
  790MOL0     C 6556  -2.172   3.158   6.764  0.0522  0.3662  0.0243
  790MOL0     C 6557  -2.311   3.217   6.718 -0.2224 -0.3979  0.2925
  790MOL0     C 6558  -2.421   3.153   6.802  0.3559 -0.9318  0.4565
  790MOL0     C 6559  -2.565   3.191   6.747  0.7841  0.7005  0.1660
  790MOL0    Cl 6560  -2.689   3.110   6.839  0.0949 -0.1590  0.1522
  790MOL0     C 6561  -1.624   3.025   6.498  0.1918  0.1024  0.0976
  790MOL0     C 6562  -1.486   3.051   6.482  0.0690  0.0297 -0.5684
  790MOL0     O 6563  -1.233   3.092   6.333  0.1163  0.2103 -0.0049
  790MOL0     C 6564  -1.005   3.009   6.594  0.2641  0.3815 -0.2972
  790MOL0     C 6565  -0.884   3.041   6.645 -0.4415 -0.1379  0.1702
  790MOL0     N 6566  -0.131   3.313   6.316 -0.3222 -0.3879 -0.3126
  790MOL0     N 6567  -0.004   3.345   6.294  0.7096  0.0267  0.3108
  790MOL0     C 6568   1.138   3.565   6.465  0.0180  0.7394 -0.0554
  790MOL0     C 6569   1.233   3.615   6.372 -0.6298 -0.4414  0.3266
  790MOL0     C 6570   1.559   3.688   6.082 -1.1204 -0.0862  0.3864
  790MOL0     C 6571   1.549   3.711   5.946 -0.0316 -0.4093 -0.2016
  790MOL0     C 6572   1.659   3.744   5.860 -0.3479 -0.1406  0.0257
  790MOL0     C 6573   1.785   3.769   5.917 -0.5025  0.4719  0.0201
  790MOL0     O 6574   1.879   3.801   5.821 -0.6664 -0.0671 -0.2448
  790MOL0     C 6575   2.018   3.847   5.857  0.4558  0.1492 -0.5732
  790MOL0     C 6576   2.104   3.722   5.884 -0.3418 -0.0580 -0.3277
  790MOL0     C 6577   2.123   3.637   5.762 -0.0415 -0.0635 -0.6714
  790MOL0     C 6578   2.193   3.499   5.801  0.0019  0.4978 -0.5980
  790MOL0     C 6579   2.223   3.414   5.685 -0.3320  0.0201 -0.5636
  790MOL0     C 6580   2.271   3.340   5.598  0.7573 -0.1174  0.3278
  790MOL0     C 6581   1.796   3.750   6.060 -0.7526  0.2283 -0.2800
  790MOL0     C 6582   1.691   3.703   6.138  0.4483  0.1936  0.7503
  790MOL0     H 6583   1.509   3.444   6.477  0.4630  2.3371  2.3107
  790MOL0     H 6584   1.347   3.363   6.643 -1.0255  0.1147  0.6478
  790MOL0     H 6585   0.917   3.429   6.765 -2.1691 -0.4976 -0.2856
  790MOL0     H 6586   0.954   3.558   6.641 -0.7461 -0.0900 -1.7358
  790MOL0     H 6587   0.949   3.373   6.467  0.8756 -1.1208  0.4167
  790MOL0     H 6588   0.904   3.255   6.587 -1.8170 -0.4573 -0.6332
  790MOL0     H 6589   0.756   3.513   6.511 -2.4840 -0.0982  1.3960
  790MOL0     H 6590   0.728   3.363   6.429  2.7467 -1.5826  0.2928
  790MOL0     H 6591   0.662   3.266   6.656  1.8907  0.7255 -0.3228
  790MOL0     H 6592   0.685   3.418   6.732  0.2772  0.8685 -0.6054
  790MOL0     H 6593   0.441   3.393   6.685 -1.0754  1.9712 -0.4246
  790MOL0     H 6594   0.498   3.511   6.571  0.2183  0.2605  1.5368
  790MOL0     H 6595   0.513   3.306   6.410  1.2058  0.3889  0.8699
  790MOL0     H 6596   0.449   3.206   6.538  2.2023  1.2645  0.8669
  790MOL0     H 6597   0.233   3.355   6.551  0.1695  0.0902 -1.0023
  790MOL0     H 6598   0.300   3.450   6.419 -1.0092  1.6167  2.3883
  790MOL0     H 6599   0.262   3.153   6.390  1.0260  1.4916  1.4981
  790MOL0     H 6600   0.262   3.278   6.270  2.7028 -1.1071  0.8594
  790MOL0     H 6601   0.015   3.098   6.512  0.0884 -0.6797 -0.8082
  790MOL0     H 6602  -0.319   3.137   6.404 -0.7390 -0.8985  0.6879
  790MOL0     H 6603  -0.226   3.067   6.532  2.5394 -0.8892 -2.7983
  790MOL0     H 6604  -0.344   3.359   6.538 -0.8575 -0.3154 -0.0628
  790MOL0     H 6605  -0.237   3.298   6.656  0.3695  1.9416 -0.7105
  790MOL0     H 6606  -0.478   3.300   6.720 -0.7989 -0.6708  0.1099
  790MOL0     H 6607  -0.412   3.134   6.725 -0.0169  1.6224  2.2623
  790MOL0     H 6608  -0.524   3.100   6.495  0.7907  1.8110 -0.3347
  790MOL0     H 6609  -0.587   3.266   6.510 -0.5096 -0.6373 -0.9015
  790MOL0     H 6610  -0.778   3.245   6.411 -0.0565  2.1656  2.8361
  790MOL0     H 6611  -0.884   3.227   6.217  0.1500 -3.5379 -2.1556
  790MOL0     H 6612  -1.024   3.133   6.192 -0.3367 -1.6600  2.2316
  790MOL0     H 6613  -1.048   3.287   6.272 -1.9715 -1.0717 -2.4041
  790MOL0     H 6614  -1.371   2.738   6.534  0.7573  0.6156 -1.0459
  790MOL0     H 6615  -1.600   2.686   6.521  2.3209 -0.5933  1.7906
  790MOL0     H 6616  -1.855   2.685   6.588 -0.2452 -0.9889  2.3660
  790MOL0     H 6617  -1.799   2.797   6.708  1.7971  0.0003 -0.9608
  790MOL0     H 6618  -2.049   2.834   6.543  0.7600 -0.9317  0.1931
  790MOL0     H 6619  -2.034   2.765   6.708  1.0610 -0.4816  0.2623
  790MOL0     H 6620  -1.943   3.055   6.638  0.9334 -0.1748  0.8420
  790MOL0     H 6621  -1.949   2.987   6.787 -1.7343  1.3863  0.4894
  790MOL0     H 6622  -2.203   3.001   6.621 -4.4623  0.0366  2.2090
  790MOL0     H 6623  -2.184   2.950   6.785 -2.3111  0.9352 -0.1783
  790MOL0     H 6624  -2.089   3.219   6.725  0.5957  0.7629  1.7024
  790MOL0     H 6625  -2.163   3.153   6.873 -4.5007 -3.3803  0.5322
  790MOL0     H 6626  -2.304   3.324   6.740 -1.1716 -0.8240  3.0216
  790MOL0     H 6627  -2.322   3.193   6.612 -0.6322 -1.8136  0.6280
  790MOL0     H 6628  -2.415   3.193   6.903  0.3242 -1.8011  0.8128
  790MOL0     H 6629  -2.429   3.044   6.796  2.6440 -1.0778 -1.9476
  790MOL0     H 6630  -2.578   3.169   6.640  0.1272  1.9065 -0.0228
  790MOL0     H 6631  -2.584   3.298   6.756 -2.0971  0.3169 -0.2968
  790MOL0     H 6632  -1.696   3.104   6.482 -0.6996 -0.9333 -1.3002
  790MOL0     H 6633  -1.450   3.151   6.457 -0.3698 -0.4844 -3.6143
  790MOL0     H 6634  -1.068   2.942   6.651 -0.2415  0.3079 -0.9309
  790MOL0     H 6635  -0.842   2.995   6.733  0.2778  1.9941  1.0118
  790MOL0     H 6636   1.040   3.612   6.469  0.0386  0.7938 -0.2117
  790MOL0     H 6637   1.194   3.682   6.295 -3.0935 -2.1835 -0.0846
  790MOL0     H 6638   1.455   3.699   5.892  0.4595  2.1251 -1.7675
  790MOL0     H 6639   1.644   3.749   5.752  1.2910 -1.9033 -0.3405
  790MOL0     H 6640   2.058   3.924   5.791  3.6235 -0.7109  0.1730
  790MOL0     H 6641   2.013   3.885   5.960  1.0154 -0.5071 -0.2952
  790MOL0     H 6642   2.050   3.659   5.956 -1.5690 -0.7706 -1.8285
  790MOL0     H 6643   2.194   3.762   5.932 -1.2495 -0.4429  1.7970
  790MOL0     H 6644   2.172   3.695   5.684 -3.2371  1.3638 -1.7720
  790MOL0     H 6645   2.026   3.606   5.720 -0.2573 -0.3509  0.0237
  790MOL0     H 6646   2.123   3.447   5.867  0.2116  0.5760 -0.3157
  790MOL0     H 6647   2.288   3.515   5.852 -0.8303  0.3736  1.0562
  790MOL0     H 6648   2.324   3.297   5.515 -0.3627 -1.1206  0.1032
  790MOL0     H 6649   1.889   3.767   6.114 -0.7403  3.8507 -1.1733
  790MOL0     H 6650   1.708   3.677   6.242  3.4875  0.2241  0.3554
  791MOL0     O 6651  10.129   1.289  10.041 -0.7864 -0.0278  0.4556
  791MOL0     C 6652  10.184   1.331  10.144  0.0557 -0.3682 -0.5385
  791MOL0     O 6653  10.114   1.370  10.253 -0.5656  0.2056 -0.1560
  791MOL0     C 6654   9.977   1.371  10.250 -0.2380  0.0278  0.0165
  791MOL0     C 6655   9.913   1.495  10.260  0.3995  0.0541 -0.2763
  791MOL0     C 6656   9.771   1.511  10.257  0.0137  0.2567  0.7468
  791MOL0     C 6657   9.693   1.397  10.254  0.4965  0.0769  0.2396
  791MOL0     O 6658   9.561   1.394  10.262 -0.7459  0.1784 -0.1757
  791MOL0     C 6659   9.474   1.499  10.221  1.4284  0.3750  0.3199
  791MOL0     C 6660   9.345   1.424  10.198  0.6810 -0.1245  0.1966
  791MOL0     C 6661   9.216   1.499  10.170  0.4083 -0.3421  0.1279
  791MOL0     C 6662   9.154   1.595  10.275 -0.7333  0.3140 -0.6449
  791MOL0     C 6663   9.020   1.649  10.219  1.0203  0.5864  0.4657
  791MOL0     C 6664   8.942   1.713  10.330  0.3361  0.0286 -0.3599
  791MOL0     C 6665   8.825   1.802  10.280  0.0433 -0.6382  0.0085
  791MOL0     C 6666   8.727   1.837  10.394 -0.0160 -0.1328 -0.1486
  791MOL0     N 6667   8.643   1.948  10.345  0.3898 -0.1761  0.3078
  791MOL0     C 6668   8.690   2.071  10.316 -0.4288 -0.6803  0.1606
  791MOL0     C 6669   8.582   2.150  10.294 -0.7577  1.3273 -0.4017
  791MOL0     C 6670   8.582   2.299  10.255  0.6345  0.0721 -0.2564
  791MOL0     C 6671   8.523   2.321  10.118 -0.4483  0.6599 -0.4069
  791MOL0     C 6672   8.366   2.320  10.096  0.4426 -1.0001 -0.9166
  791MOL0     C 6673   8.319   2.352   9.957 -0.0953 -0.5333 -0.6812
  791MOL0     O 6674   8.178   2.320   9.966  0.7875  0.2556  0.8126
  791MOL0     C 6675   8.092   2.335   9.858 -0.2592  0.1323  0.5912
  791MOL0     C 6676   7.958   2.292   9.886 -0.3316  0.3833 -0.2418
  791MOL0     C 6677   7.854   2.304   9.791  0.1531 -0.1544  0.1751
  791MOL0     C 6678   7.725   2.266   9.846  0.3886 -0.3518 -0.2486
  791MOL0     C 6679   7.888   2.352   9.663  0.3524  1.2063  0.1763
  791MOL0     C 6680   7.782   2.382   9.556  0.7566  0.7477  0.1784
  791MOL0     O 6681   7.811   2.488   9.482  0.2612  0.3308 -0.1506
  791MOL0     C 6682   7.715   2.566   9.425 -0.3990 -0.2900 -0.2341
  791MOL0     C 6683   7.770   2.679   9.355  0.4850 -0.6175 -0.7739
  791MOL0     C 6684   7.688   2.782   9.307  0.3450  0.1914  0.7710
  791MOL0     C 6685   7.552   2.762   9.311 -0.0886 -0.9430  0.9696
  791MOL0     O 6686   7.468   2.843   9.240 -0.0346  0.3878 -0.0458
  791MOL0     C 6687   7.502   2.983   9.247 -0.3927  0.8567 -0.6347
  791MOL0     C 6688   7.389   3.062   9.201 -0.3963 -0.5080  0.1487
  791MOL0     C 6689   7.270   3.062   9.301  0.4285  0.7251 -1.0040
  791MOL0     C 6690   7.205   2.932   9.351 -0.5069 -0.7393 -0.5025
  791MOL0     C 6691   7.139   2.850   9.243  0.2372  0.0152  0.3618
  791MOL0     C 6692   7.047   2.739   9.298 -0.3817 -0.2418 -0.8250
  791MOL0     C 6693   6.963   2.675   9.187 -0.4240  0.5734  0.6077
  791MOL0     C 6694   7.016   2.647   9.052 -0.8193 -0.5796  0.8397
  791MOL0    Cl 6695   6.893   2.570   8.948  0.0367 -0.3174 -0.2060
  791MOL0     C 6696   7.500   2.652   9.372 -0.1501 -0.6834  0.7024
  791MOL0     C 6697   7.580   2.564   9.438  0.4186  0.5555  0.6221
  791MOL0     O 6698   7.690   2.302   9.542 -0.0912 -0.1697 -0.8017
  791MOL0     C 6699   8.019   2.388   9.631  0.0686  0.8838 -0.4761
  791MOL0     C 6700   8.116   2.387   9.728 -0.5227  0.0253 -0.1814
  791MOL0     N 6701   8.473   2.068  10.297  0.0445 -0.0065 -0.5090
  791MOL0     N 6702   8.503   1.950  10.322  0.3236  0.4454  0.1367
  791MOL0     C 6703   9.753   1.273  10.241 -0.0259  0.4049 -0.5145
  791MOL0     C 6704   9.899   1.262  10.226 -0.6836  1.1200  0.1616
  791MOL0     C 6705  10.332   1.355  10.145  0.2777  0.6047  0.5868
  791MOL0     C 6706  10.416   1.305  10.044 -0.6412  0.8394  0.4781
  791MOL0     C 6707  10.556   1.330  10.057 -0.9400 -0.2590 -0.0697
  791MOL0     C 6708  10.608   1.390  10.171 -0.0866 -0.2958 -0.8255
  791MOL0     O 6709  10.748   1.388  10.194 -0.1202  0.3391 -0.0596
  791MOL0     C 6710  10.799   1.482  10.286  0.0295 -0.3515  0.5728
  791MOL0     C 6711  10.945   1.507  10.275 -1.2676 -0.2801 -0.6039
  791MOL0     C 6712  10.986   1.561  10.139  0.2515 -0.3044  0.0196
  791MOL0     C 6713  11.121   1.633  10.140 -0.1577 -0.1838  1.1292
  791MOL0     C 6714  11.155   1.689  10.011  0.0953 -0.3512  0.0724
  791MOL0     C 6715  11.155   1.731   9.896 -0.0990  0.2756  0.2556
  791MOL0     C 6716  10.522   1.427  10.271  0.7788 -0.0413  0.0603
  791MOL0     C 6717  10.390   1.424  10.251  0.0247  0.1687  0.0796
  791MOL0     H 6718   9.984   1.576  10.261  1.6711 -1.0125 -0.9290
  791MOL0     H 6719   9.732   1.612  10.255 -2.5028 -0.6665 -0.0519
  791MOL0     H 6720   9.443   1.561  10.306 -0.2209 -2.9137  2.3550
  791MOL0     H 6721   9.514   1.566  10.145  1.1631  0.0142 -0.1430
  791MOL0     H 6722   9.361   1.346  10.124 -2.5125  0.9961 -1.8738
  791MOL0     H 6723   9.330   1.356  10.282 -1.3118  0.5657  0.4496
  791MOL0     H 6724   9.231   1.561  10.081  1.5097 -1.8316 -0.7779
  791MOL0     H 6725   9.134   1.430  10.147 -1.3226  0.4831  3.3000
  791MOL0     H 6726   9.133   1.543  10.369 -0.4853  1.3122 -0.0218
  791MOL0     H 6727   9.220   1.682  10.286 -1.0239  0.2688  2.1245
  791MOL0     H 6728   9.033   1.724  10.141 -1.0995  2.8474  2.1441
  791MOL0     H 6729   8.957   1.569  10.180  1.7301 -0.7191  1.8765
  791MOL0     H 6730   8.908   1.646  10.409  2.0197  3.1055  3.3129
  791MOL0     H 6731   9.020   1.770  10.382 -1.2195  0.8178  1.1804
  791MOL0     H 6732   8.865   1.891  10.232  2.2958 -2.8466 -2.5950
  791MOL0     H 6733   8.772   1.756  10.196  1.0634 -0.2598 -0.8633
  791MOL0     H 6734   8.778   1.883  10.479  0.2317 -1.5136  0.4865
  791MOL0     H 6735   8.661   1.760  10.435 -0.8974  0.9762  0.5657
  791MOL0     H 6736   8.794   2.102  10.309 -0.8447  0.3778 -2.0475
  791MOL0     H 6737   8.511   2.340  10.328 -1.7247 -0.5553 -2.0706
  791MOL0     H 6738   8.680   2.346  10.265  0.1336  2.0506 -3.3472
  791MOL0     H 6739   8.580   2.260  10.047  2.1540  0.0881  2.0135
  791MOL0     H 6740   8.547   2.425  10.095  0.5964  0.1392 -1.7952
  791MOL0     H 6741   8.308   2.382  10.165 -0.4013  1.6389 -3.7344
  791MOL0     H 6742   8.339   2.216  10.112  2.3570 -1.3351  0.5784
  791MOL0     H 6743   8.385   2.310   9.881  1.7149 -1.5796  1.3819
  791MOL0     H 6744   8.328   2.460   9.940  1.3544 -0.5856 -0.3082
  791MOL0     H 6745   7.940   2.247   9.982  1.2317 -0.0916 -0.1351
  791MOL0     H 6746   7.705   2.293   9.950  1.4555  1.0250 -0.3759
  791MOL0     H 6747   7.647   2.306   9.780 -1.2820 -2.7542  0.1056
  791MOL0     H 6748   7.715   2.158   9.827  1.3310 -0.0586 -2.8274
  791MOL0     H 6749   7.877   2.695   9.343  0.0301  1.7815 -2.4304
  791MOL0     H 6750   7.732   2.860   9.246  1.8269 -2.1866 -1.3556
  791MOL0     H 6751   7.539   3.005   9.347 -0.3272  0.5024 -0.5794
  791MOL0     H 6752   7.585   2.998   9.176  1.1552 -0.2353  0.8776
  791MOL0     H 6753   7.435   3.161   9.202  0.2647 -0.8124 -0.0956
  791MOL0     H 6754   7.348   3.028   9.105 -1.3921  0.6214  0.1479
  791MOL0     H 6755   7.190   3.126   9.264  1.1448  0.6693 -2.7506
  791MOL0     H 6756   7.301   3.121   9.388 -1.9796 -0.2390  0.6256
  791MOL0     H 6757   7.282   2.872   9.400  1.7182 -0.1350 -3.0061
  791MOL0     H 6758   7.129   2.961   9.424 -0.5031 -0.7638 -0.4880
  791MOL0     H 6759   7.216   2.816   9.174  0.6540 -0.6466  1.1365
  791MOL0     H 6760   7.069   2.912   9.186 -0.3083 -2.6313 -2.0494
  791MOL0     H 6761   7.101   2.660   9.351  0.2398  1.1329  0.6683
  791MOL0     H 6762   6.980   2.782   9.373  0.4698  1.5956 -1.0612
  791MOL0     H 6763   6.883   2.749   9.179 -0.8465  0.0156 -0.5461
  791MOL0     H 6764   6.919   2.580   9.220  0.5125  0.3241  1.1892
  791MOL0     H 6765   7.099   2.577   9.064 -0.3048  0.0447  0.9647
  791MOL0     H 6766   7.062   2.739   9.015 -0.9218 -1.0682 -0.5938
  791MOL0     H 6767   7.393   2.631   9.369 -0.1918 -0.8874 -4.1783
  791MOL0     H 6768   7.535   2.471   9.474  0.6426  0.3969  0.4910
  791MOL0     H 6769   8.050   2.413   9.530 -2.6831  0.4791 -1.4912
  791MOL0     H 6770   8.217   2.409   9.695 -1.0750  0.6894 -1.5292
  791MOL0     H 6771   9.692   1.183  10.237 -1.7441  1.5517 -1.4335
  791MOL0     H 6772   9.935   1.160  10.219  1.3678  1.7379  0.8405
  791MOL0     H 6773  10.391   1.251   9.953  3.2359  1.1862 -0.9732
  791MOL0     H 6774  10.623   1.293   9.981  1.2100 -0.7373  1.9371
  791MOL0     H 6775  10.746   1.576  10.273 -0.9658 -0.5863  2.5530
  791MOL0     H 6776  10.782   1.447  10.388  2.8153 -2.4045  0.4652
  791MOL0     H 6777  10.994   1.410  10.284 -0.6340 -0.2319 -2.8400
  791MOL0     H 6778  10.987   1.570  10.353  2.3774  0.0716 -2.6134
  791MOL0     H 6779  10.909   1.636  10.116  0.5878  0.0158 -0.0764
  791MOL0     H 6780  10.990   1.480  10.066  2.6914  1.6561 -2.2084
  791MOL0     H 6781  11.196   1.564  10.180  0.1493  1.0893  2.8889
  791MOL0     H 6782  11.119   1.713  10.215 -1.7160  2.2410 -1.3519
  791MOL0     H 6783  11.155   1.753   9.791 -1.4758 -1.9879 -0.2939
  791MOL0     H 6784  10.564   1.476  10.359  1.8852  1.7287 -1.3885
  791MOL0     H 6785  10.326   1.468  10.328  1.4943  0.6733  1.0731
  792MOL0     O 6786  11.246   0.116   6.366  0.0335  0.0547  0.7816
  792MOL0     C 6787  11.275   0.173   6.264  0.0677 -0.5633 -0.1233
  792MOL0     O 6788  11.188   0.258   6.195 -0.1346 -0.2551 -0.2680
  792MOL0     C 6789  11.054   0.249   6.224  0.3020  0.6697 -0.0118
  792MOL0     C 6790  10.994   0.308   6.338 -0.0038  0.4372 -0.3443
  792MOL0     C 6791  10.864   0.271   6.385  0.3226  0.1388 -0.1529
  792MOL0     C 6792  10.791   0.169   6.322  0.1807  0.4384  0.2540
  792MOL0     O 6793  10.673   0.144   6.386  0.7687  1.0896 -0.3024
  792MOL0     C 6794  10.579   0.068   6.304 -0.8662 -0.2067  0.6073
  792MOL0     C 6795  10.437   0.078   6.359 -0.9636 -0.1501  1.1051
  792MOL0     C 6796  10.337  -0.019   6.296 -0.3897  0.3351 -0.9289
  792MOL0     C 6797  10.190   0.028   6.309 -0.1255  0.0931  0.2498
  792MOL0     C 6798  10.104  -0.093   6.262 -0.0340 -0.0160  0.3463
  792MOL0     C 6799   9.957  -0.049   6.256  0.1955 -0.1074 -0.1898
  792MOL0     C 6800   9.864  -0.172   6.230 -0.6543 -0.3965  0.0196
  792MOL0     C 6801   9.872  -0.210   6.084 -0.0379  0.2239  0.6693
  792MOL0     N 6802   9.741  -0.278   6.055 -0.0164 -0.7044  0.2965
  792MOL0     C 6803   9.624  -0.218   6.027  0.2543 -0.6595 -0.3500
  792MOL0     C 6804   9.531  -0.316   6.012  0.4335  0.0984  0.2577
  792MOL0     C 6805   9.383  -0.304   5.997  0.5587  0.5844 -0.1572
  792MOL0     C 6806   9.325  -0.160   5.966  0.0475 -0.3903 -0.2232
  792MOL0     C 6807   9.182  -0.170   5.913 -0.1083  0.5838  0.3762
  792MOL0     C 6808   9.158  -0.244   5.776  0.1686  0.5345 -0.0949
  792MOL0     O 6809   9.020  -0.231   5.740 -0.8038  0.2031  1.0649
  792MOL0     C 6810   8.910  -0.300   5.790 -0.7387 -0.1698  0.4061
  792MOL0     C 6811   8.910  -0.409   5.870 -0.0535  0.7419 -0.6304
  792MOL0     C 6812   8.794  -0.466   5.929 -0.0730 -0.3265  0.0533
  792MOL0     C 6813   8.808  -0.589   6.011  0.1947  0.7417  0.3075
  792MOL0     C 6814   8.670  -0.414   5.882 -0.5926 -0.3558 -0.0544
  792MOL0     C 6815   8.542  -0.444   5.931  0.0622 -0.2449  0.3936
  792MOL0     O 6816   8.425  -0.369   5.880 -0.1654  0.1387  0.8067
  792MOL0     C 6817   8.313  -0.411   5.944  0.3118 -0.1756  1.1734
  792MOL0     C 6818   8.286  -0.378   6.074  0.3556  0.2699 -0.7606
  792MOL0     C 6819   8.159  -0.412   6.134  0.0726 -0.6320 -0.4146
  792MOL0     C 6820   8.061  -0.472   6.062 -0.1292  0.3782  0.3259
  792MOL0     O 6821   7.939  -0.514   6.105  0.6317  0.3021 -0.2201
  792MOL0     C 6822   7.874  -0.423   6.203 -0.2799  1.0290 -0.3929
  792MOL0     C 6823   7.740  -0.487   6.241  0.4155  0.3144  0.5091
  792MOL0     C 6824   7.660  -0.418   6.351  0.3836 -0.1921 -1.3354
  792MOL0     C 6825   7.534  -0.503   6.365  0.0732  0.6351  0.6918
  792MOL0     C 6826   7.442  -0.443   6.473 -0.3426 -0.2826 -0.5161
  792MOL0     C 6827   7.319  -0.530   6.492 -0.4750 -0.4983 -0.5575
  792MOL0     C 6828   7.212  -0.462   6.584  0.5386  0.2198 -0.0881
  792MOL0     C 6829   7.149  -0.338   6.516 -0.2480  0.0394 -0.0774
  792MOL0    Cl 6830   7.071  -0.393   6.360 -0.2893 -0.9752 -0.6113
  792MOL0     C 6831   8.092  -0.508   5.932  0.0734  1.0945  0.4756
  792MOL0     C 6832   8.219  -0.479   5.874  0.7557  0.5032  0.6833
  792MOL0     O 6833   8.539  -0.536   6.010  1.3479 -0.4113 -0.0625
  792MOL0     C 6834   8.669  -0.311   5.786 -0.5557  0.1965  0.7210
  792MOL0     C 6835   8.790  -0.261   5.738 -0.5536  0.0657 -0.1145
  792MOL0     N 6836   9.597  -0.442   6.017  0.1741 -0.0131 -0.2031
  792MOL0     N 6837   9.724  -0.414   6.039  0.0595  0.7112 -0.1134
  792MOL0     C 6838  10.849   0.110   6.208  0.0555  0.0762  0.1252
  792MOL0     C 6839  10.973   0.150   6.159  0.0290  0.2549  0.0081
  792MOL0     C 6840  11.413   0.156   6.232  0.3100 -0.7226  0.3895
  792MOL0     C 6841  11.487   0.033   6.244 -0.2525 -0.5753 -0.5973
  792MOL0     C 6842  11.629   0.026   6.214 -0.2816  0.1460 -0.5047
  792MOL0     C 6843  11.692   0.136   6.168  0.2872  0.1998  0.4156
  792MOL0     O 6844  11.832   0.124   6.148 -0.5487 -0.0266  0.3180
  792MOL0     C 6845  11.916   0.235   6.120 -0.2119  0.0099 -0.7065
  792MOL0     C 6846  12.053   0.197   6.176  0.2188  0.8752  0.1031
  792MOL0     C 6847  12.151   0.307   6.146  0.4469  0.3458 -0.1503
  792MOL0     C 6848  12.292   0.277   6.207 -0.3296  0.3181 -0.4406
  792MOL0     C 6849  12.359   0.165   6.144 -1.0458 -0.3046 -0.8263
  792MOL0     C 6850  12.419   0.075   6.083  0.0054 -0.1844  0.2246
  792MOL0     C 6851  11.616   0.257   6.147  0.5071 -0.8729 -0.3488
  792MOL0     C 6852  11.478   0.264   6.176  0.7348  0.2690  0.1200
  792MOL0     H 6853  11.050   0.382   6.394 -1.6439 -0.4994  2.8217
  792MOL0     H 6854  10.811   0.326   6.462 -0.7248 -0.0609 -0.7095
  792MOL0     H 6855  10.578   0.109   6.203 -0.2790  1.1888  1.1421
  792MOL0     H 6856  10.617  -0.034   6.302  2.8182  0.9725  2.3272
  792MOL0     H 6857  10.446   0.060   6.467  0.8565 -0.7588  0.8874
  792MOL0     H 6858  10.405   0.182   6.345 -1.1498 -0.4197 -0.6938
  792MOL0     H 6859  10.360  -0.032   6.190 -0.1528 -0.1589 -0.8175
  792MOL0     H 6860  10.360  -0.108   6.355 -0.1255  1.1759  0.2787
  792MOL0     H 6861  10.172   0.053   6.414 -1.6029  0.1930 -0.0053
  792MOL0     H 6862  10.174   0.114   6.243 -1.3378  0.3147  0.8067
  792MOL0     H 6863  10.135  -0.119   6.160  1.0208 -0.7535  0.8348
  792MOL0     H 6864  10.099  -0.187   6.317  1.8449 -1.7390 -2.2027
  792MOL0     H 6865   9.927  -0.005   6.352 -2.1921  2.4834 -1.9884
  792MOL0     H 6866   9.952   0.028   6.180 -0.3598  0.2213  0.1761
  792MOL0     H 6867   9.900  -0.253   6.294 -1.0476 -0.3509  0.3055
  792MOL0     H 6868   9.759  -0.144   6.246  0.3300  3.7982  0.2813
  792MOL0     H 6869   9.960  -0.276   6.074 -0.0342  0.1382  1.2495
  792MOL0     H 6870   9.880  -0.121   6.021  0.0418 -0.3427 -0.1419
  792MOL0     H 6871   9.611  -0.110   6.018  0.9835 -0.6440 -1.5991
  792MOL0     H 6872   9.359  -0.376   5.918  0.7791 -1.3815  1.5138
  792MOL0     H 6873   9.332  -0.344   6.085 -0.9673  0.8603 -0.8796
  792MOL0     H 6874   9.400  -0.112   5.902  0.8020 -0.1487  0.8053
  792MOL0     H 6875   9.329  -0.099   6.057 -0.0978  0.6493 -0.8930
  792MOL0     H 6876   9.152  -0.067   5.892  0.3853  0.3359 -1.7814
  792MOL0     H 6877   9.120  -0.221   5.987  0.9667 -1.3694 -0.0098
  792MOL0     H 6878   9.183  -0.351   5.774 -0.0695  0.4070 -4.0670
  792MOL0     H 6879   9.214  -0.213   5.688 -0.1987 -1.9073 -1.2987
  792MOL0     H 6880   9.006  -0.449   5.899 -0.2915 -0.1267 -1.0078
  792MOL0     H 6881   8.915  -0.605   6.025  0.4646 -0.0607 -2.2336
  792MOL0     H 6882   8.755  -0.569   6.105 -0.3302  1.2262 -0.0819
  792MOL0     H 6883   8.773  -0.679   5.961  3.3787 -0.4650  0.0417
  792MOL0     H 6884   8.371  -0.344   6.132 -1.5969 -0.3770  2.7674
  792MOL0     H 6885   8.141  -0.370   6.232 -2.1005 -1.4703 -0.4035
  792MOL0     H 6886   7.931  -0.421   6.296 -2.4543 -1.2767  1.1181
  792MOL0     H 6887   7.868  -0.322   6.161  1.1925  0.9657 -0.8204
  792MOL0     H 6888   7.677  -0.501   6.153  0.4179  2.1029  0.1901
  792MOL0     H 6889   7.775  -0.584   6.279 -1.4013 -0.7299 -0.4074
  792MOL0     H 6890   7.650  -0.311   6.333 -0.6007  0.6772  3.0196
  792MOL0     H 6891   7.704  -0.426   6.451 -3.9760  0.1208  0.8234
  792MOL0     H 6892   7.486  -0.508   6.267 -1.0710  2.1565  1.1331
  792MOL0     H 6893   7.567  -0.606   6.386 -0.8627  0.6333  2.3357
  792MOL0     H 6894   7.418  -0.337   6.463  1.8933  0.6864  2.8439
  792MOL0     H 6895   7.507  -0.448   6.560  1.6319  0.5458 -1.8587
  792MOL0     H 6896   7.286  -0.553   6.390  0.8526 -1.8540 -0.7355
  792MOL0     H 6897   7.347  -0.623   6.542  0.8481  0.9435  1.5474
  792MOL0     H 6898   7.229  -0.446   6.691 -2.3727  0.9004  0.3508
  792MOL0     H 6899   7.139  -0.543   6.583 -0.9806  1.5336  0.4613
  792MOL0     H 6900   7.213  -0.250   6.509 -0.0118  0.1036  2.0795
  792MOL0     H 6901   7.069  -0.314   6.588 -1.3858 -1.0112 -0.9506
  792MOL0     H 6902   8.029  -0.577   5.877  1.3255 -1.1415  1.7132
  792MOL0     H 6903   8.236  -0.503   5.770  0.2523  3.6319 -0.2290
  792MOL0     H 6904   8.571  -0.270   5.764 -1.2960 -0.9789  1.6571
  792MOL0     H 6905   8.789  -0.174   5.672 -2.7676  2.3100  2.5948
  792MOL0     H 6906  10.815   0.027   6.147  1.0453  0.5875 -1.1837
  792MOL0     H 6907  11.029   0.095   6.084 -1.4741  1.7780 -2.3635
  792MOL0     H 6908  11.451  -0.055   6.295  0.8633 -1.0675 -0.6279
  792MOL0     H 6909  11.683  -0.068   6.223  0.2851  0.6009  1.3331
  792MOL0     H 6910  11.915   0.258   6.013 -0.3367  2.8234 -0.1757
  792MOL0     H 6911  11.896   0.330   6.169 -0.2650 -0.6660  0.6482
  792MOL0     H 6912  12.079   0.101   6.131  0.6759  1.9119 -1.9447
  792MOL0     H 6913  12.054   0.192   6.285 -1.6655 -0.7489  0.1046
  792MOL0     H 6914  12.109   0.402   6.181 -0.3148 -0.6095  1.6484
  792MOL0     H 6915  12.169   0.306   6.038  3.5431 -1.3083  0.2552
  792MOL0     H 6916  12.291   0.275   6.316 -1.1558  0.3644 -0.4388
  792MOL0     H 6917  12.360   0.360   6.188  0.4466 -1.1768 -5.8442
  792MOL0     H 6918  12.467  -0.012   6.042  0.4507  0.0768  0.1848
  792MOL0     H 6919  11.661   0.347   6.105 -1.4729 -0.2473 -1.2138
  792MOL0     H 6920  11.429   0.360   6.162  0.4158 -0.0201 -0.7808
  793MOL0     O 6921   9.793   5.557   1.593 -0.2254  0.0497 -0.1515
  793MOL0     C 6922   9.880   5.642   1.622 -0.5268 -0.2957  0.3950
  793MOL0     O 6923   9.870   5.745   1.706  0.0513  0.1264  0.5309
  793MOL0     C 6924   9.746   5.785   1.747  0.4660 -0.0739  0.4108
  793MOL0     C 6925   9.657   5.701   1.807  0.5270  0.6719 -0.1389
  793MOL0     C 6926   9.527   5.737   1.838  0.8496  0.1487 -0.2908
  793MOL0     C 6927   9.480   5.867   1.826  0.6490  0.0182 -0.7277
  793MOL0     O 6928   9.352   5.904   1.869 -1.1376 -0.4274 -0.9529
  793MOL0     C 6929   9.246   5.813   1.872  0.7966  0.8122 -0.3471
  793MOL0     C 6930   9.122   5.873   1.935  0.6352  1.5806 -0.3061
  793MOL0     C 6931   9.005   5.779   1.921  0.8927  0.5758 -0.3678
  793MOL0     C 6932   8.948   5.755   1.773  0.4966 -0.6572  0.2262
  793MOL0     C 6933   8.807   5.696   1.764 -0.3836  0.6390 -0.4930
  793MOL0     C 6934   8.797   5.557   1.799  0.1843 -0.2686 -0.2504
  793MOL0     C 6935   8.664   5.492   1.767  0.0599  0.1396 -0.2111
  793MOL0     C 6936   8.633   5.362   1.840  0.4222 -0.5221 -0.6204
  793MOL0     N 6937   8.743   5.270   1.835  0.1035 -0.2217  0.2372
  793MOL0     C 6938   8.750   5.153   1.770  0.1946  0.2087  0.4011
  793MOL0     C 6939   8.873   5.102   1.802 -0.2422 -0.1358 -0.2407
  793MOL0     C 6940   8.926   4.979   1.739 -0.5508  0.0452 -0.2022
  793MOL0     C 6941   9.067   4.989   1.685  0.1906  0.2381 -0.3108
  793MOL0     C 6942   9.159   4.894   1.766  1.2778 -0.0712 -0.1187
  793MOL0     C 6943   9.292   4.879   1.706 -0.1323  0.1236  0.7602
  793MOL0     O 6944   9.359   4.771   1.768  0.1179  0.4568 -0.7046
  793MOL0     C 6945   9.483   4.738   1.724 -0.3394  0.0386 -0.2582
  793MOL0     C 6946   9.553   4.639   1.795  0.2775  0.1883 -0.8653
  793MOL0     C 6947   9.689   4.606   1.784  0.1528 -0.0599  0.4812
  793MOL0     C 6948   9.749   4.496   1.875  0.1519 -0.3763  0.4501
  793MOL0     C 6949   9.757   4.676   1.674 -0.0920  0.4797 -0.0707
  793MOL0     C 6950   9.906   4.655   1.663  0.7392  0.6547  0.2800
  793MOL0     O 6951   9.975   4.740   1.597 -0.1202 -0.9982  0.7011
  793MOL0     C 6952  10.115   4.739   1.588  0.3466  0.7871  0.1705
  793MOL0     C 6953  10.186   4.761   1.465  0.5687  0.0329 -0.1125
  793MOL0     C 6954  10.325   4.745   1.460 -0.5437 -0.0195  0.3785
  793MOL0     C 6955  10.390   4.702   1.576 -0.5711 -0.6291  0.6858
  793MOL0     O 6956  10.527   4.680   1.566 -0.1572 -0.4106 -0.0986
  793MOL0     C 6957  10.577   4.560   1.627  0.0909 -0.8067  0.0916
  793MOL0     C 6958  10.722   4.531   1.577 -0.3797 -0.3647 -0.3030
  793MOL0     C 6959  10.720   4.459   1.436  0.1823  0.7986  0.0465
  793MOL0     C 6960  10.859   4.459   1.367 -0.2288  0.9048  0.0569
  793MOL0     C 6961  10.865   4.578   1.269  0.1731 -0.4886 -0.4083
  793MOL0     C 6962  11.006   4.598   1.203  0.6156 -0.7165  0.3434
  793MOL0     C 6963  11.045   4.474   1.125  0.0124 -0.3344  0.2784
  793MOL0     C 6964  11.157   4.491   1.022 -0.3095 -0.2215  0.4152
  793MOL0    Cl 6965  11.170   4.346   0.923 -0.0162  0.3662 -0.1979
  793MOL0     C 6966  10.325   4.694   1.694 -0.3007  0.2561  0.4645
  793MOL0     C 6967  10.192   4.718   1.703 -0.0848  0.1189 -0.0516
  793MOL0     O 6968   9.948   4.546   1.689 -0.0847 -0.0564  0.0029
  793MOL0     C 6969   9.691   4.774   1.600  0.7064 -0.3926 -0.1553
  793MOL0     C 6970   9.555   4.813   1.625 -0.0230  0.5218  0.1359
  793MOL0     N 6971   8.929   5.182   1.901  0.3709  0.8111 -0.1967
  793MOL0     N 6972   8.851   5.276   1.922 -0.0609 -0.2437 -0.5147
  793MOL0     C 6973   9.571   5.952   1.755  0.7057 -0.2405 -0.2616
  793MOL0     C 6974   9.697   5.913   1.705 -0.1721  0.2330 -0.0446
  793MOL0     C 6975  10.014   5.623   1.559  0.1560 -0.0524 -0.5672
  793MOL0     C 6976  10.055   5.496   1.525 -0.6252 -0.1389 -0.4347
  793MOL0     C 6977  10.167   5.478   1.432 -0.5172  0.5341 -0.2801
  793MOL0     C 6978  10.254   5.593   1.411  0.4376  0.9453  0.5980
  793MOL0     O 6979  10.369   5.562   1.336 -0.2621  0.2600  0.2464
  793MOL0     C 6980  10.376   5.636   1.217 -0.0458  0.0041  0.8779
  793MOL0     C 6981  10.485   5.574   1.119 -0.5862 -0.1944 -0.5133
  793MOL0     C 6982  10.623   5.626   1.144  0.3313  0.4608 -0.3286
  793MOL0     C 6983  10.717   5.588   1.024 -0.3434  0.0765 -0.2301
  793MOL0     C 6984  10.851   5.627   1.055 -0.1893  0.2241 -0.3477
  793MOL0     C 6985  10.958   5.665   1.092 -0.3998 -0.1563 -0.4944
  793MOL0     C 6986  10.208   5.724   1.452 -0.3820 -0.2932 -0.3932
  793MOL0     C 6987  10.088   5.737   1.528  0.1328 -0.1850 -0.8732
  793MOL0     H 6988   9.708   5.606   1.815  0.9509  0.8571 -0.5779
  793MOL0     H 6989   9.467   5.658   1.881  0.3615  0.4752 -0.3726
  793MOL0     H 6990   9.219   5.796   1.767 -0.6650 -2.2737  0.3969
  793MOL0     H 6991   9.268   5.712   1.907 -1.8766 -0.6727 -2.4774
  793MOL0     H 6992   9.141   5.886   2.042 -0.5056 -0.0890  0.1470
  793MOL0     H 6993   9.098   5.970   1.892  2.0710  1.7779 -0.7338
  793MOL0     H 6994   9.020   5.683   1.971 -0.3758 -0.0057 -1.0581
  793MOL0     H 6995   8.921   5.826   1.972  0.8965  2.2364 -1.7861
  793MOL0     H 6996   8.939   5.852   1.724 -2.0802 -0.2863  1.2494
  793MOL0     H 6997   9.013   5.687   1.717  0.2474 -1.3935  0.8096
  793MOL0     H 6998   8.733   5.752   1.821 -1.8910 -0.9232 -0.8217
  793MOL0     H 6999   8.772   5.704   1.661 -0.3846 -1.1470 -0.6580
  793MOL0     H 7000   8.877   5.502   1.747  2.4851 -0.3407  3.0298
  793MOL0     H 7001   8.807   5.539   1.906 -2.8501  1.3318  0.4100
  793MOL0     H 7002   8.583   5.564   1.781 -0.7716 -0.8355  0.1096
  793MOL0     H 7003   8.669   5.467   1.660 -0.0180 -1.9546  0.2298
  793MOL0     H 7004   8.549   5.313   1.791 -0.0630  0.7295 -1.0905
  793MOL0     H 7005   8.610   5.377   1.946 -1.3616 -1.4066 -0.8465
  793MOL0     H 7006   8.677   5.110   1.702  2.8209 -1.0761 -1.7879
  793MOL0     H 7007   8.903   4.898   1.809  0.7845  0.2297  0.4857
  793MOL0     H 7008   8.859   4.960   1.655  0.6065  2.3279 -1.7536
  793MOL0     H 7009   9.093   5.095   1.676  1.2380  0.0424  0.2118
  793MOL0     H 7010   9.063   4.940   1.587  0.2969 -1.6731  0.5999
  793MOL0     H 7011   9.105   4.799   1.760 -0.1572  0.5578  1.5286
  793MOL0     H 7012   9.166   4.921   1.872  1.1486  0.1748 -0.1712
  793MOL0     H 7013   9.337   4.974   1.734 -1.1785  1.7630 -2.5753
  793MOL0     H 7014   9.292   4.878   1.596 -0.4429  0.3918  0.7550
  793MOL0     H 7015   9.488   4.584   1.863  2.0391 -1.8589 -0.7452
  793MOL0     H 7016   9.676   4.477   1.954  0.0824  1.8402  1.0032
  793MOL0     H 7017   9.773   4.410   1.813  1.7442  2.2273 -2.9199
  793MOL0     H 7018   9.845   4.526   1.920 -1.8316  1.5854  3.8551
  793MOL0     H 7019  10.117   4.783   1.384 -0.6572  2.3180  1.4298
  793MOL0     H 7020  10.378   4.746   1.365  2.7674 -2.1566  2.0094
  793MOL0     H 7021  10.588   4.572   1.735  1.3292 -0.6289 -0.0462
  793MOL0     H 7022  10.516   4.473   1.603  0.2678 -0.2019 -3.0911
  793MOL0     H 7023  10.785   4.619   1.564  1.7953 -1.9523 -1.1399
  793MOL0     H 7024  10.770   4.464   1.649 -1.5078  0.1281  0.9446
  793MOL0     H 7025  10.643   4.501   1.370 -2.2087  1.0348  2.7477
  793MOL0     H 7026  10.693   4.356   1.461  1.8452  0.1692 -0.5814
  793MOL0     H 7027  10.943   4.462   1.437 -0.2567  0.5770  0.1052
  793MOL0     H 7028  10.867   4.366   1.311  0.4402 -0.9371  2.9802
  793MOL0     H 7029  10.853   4.669   1.328  0.3377  0.1903 -1.3937
  793MOL0     H 7030  10.781   4.577   1.200  1.9469 -2.1506 -2.7072
  793MOL0     H 7031  11.000   4.680   1.132 -0.1426 -0.8515  0.2400
  793MOL0     H 7032  11.082   4.618   1.279  2.0341 -1.1254 -0.9450
  793MOL0     H 7033  10.955   4.440   1.073 -0.9664 -1.3595  2.5210
  793MOL0     H 7034  11.064   4.389   1.191  0.4934 -1.7225 -1.5356
  793MOL0     H 7035  11.248   4.492   1.083  1.1329 -0.8934 -1.5884
  793MOL0     H 7036  11.150   4.588   0.972 -0.2021 -0.5552 -0.2543
  793MOL0     H 7037  10.384   4.665   1.780  2.9122 -1.7439 -2.1640
  793MOL0     H 7038  10.135   4.724   1.795  0.5656 -2.5388  0.6278
  793MOL0     H 7039   9.751   4.843   1.541  1.2434 -1.5614 -1.0244
  793MOL0     H 7040   9.514   4.902   1.579 -0.6323  1.4296  2.2751
  793MOL0     H 7041   9.531   6.051   1.735 -0.9997 -0.3959  1.9069
  793MOL0     H 7042   9.763   5.983   1.655 -0.0815 -1.6249 -2.7376
  793MOL0     H 7043  10.001   5.406   1.554 -0.4622 -0.3054 -0.6443
  793MOL0     H 7044  10.198   5.382   1.393 -3.1707 -0.4580 -0.1453
  793MOL0     H 7045  10.278   5.619   1.171 -0.2680  0.9062  0.9906
  793MOL0     H 7046  10.384   5.743   1.239 -0.6445  0.7797 -2.1864
  793MOL0     H 7047  10.458   5.602   1.017  3.1351  2.2685 -0.9893
  793MOL0     H 7048  10.485   5.464   1.118  0.6768 -0.2146 -2.4740
  793MOL0     H 7049  10.662   5.579   1.234  0.0107  0.8784  0.0299
  793MOL0     H 7050  10.620   5.734   1.158  1.4389  0.7638 -2.1143
  793MOL0     H 7051  10.683   5.637   0.933  0.2735  0.6486 -0.1608
  793MOL0     H 7052  10.710   5.479   1.018 -1.2603  0.1335 -0.3593
  793MOL0     H 7053  11.052   5.698   1.132 -2.0175  1.8544  2.0030
  793MOL0     H 7054  10.267   5.813   1.434  2.1113 -1.2984  2.1341
  793MOL0     H 7055  10.048   5.834   1.555 -1.2495 -1.6219  2.8311
  794MOL0     O 7056   6.948   8.876   5.343  0.0330  0.1218  0.6700
  794MOL0     C 7057   6.905   8.839   5.236  0.6112 -0.2803 -0.0079
  794MOL0     O 7058   6.784   8.784   5.214 -0.4734  0.0970  0.0904
  794MOL0     C 7059   6.685   8.795   5.314 -1.1980  0.4627  0.1124
  794MOL0     C 7060   6.665   8.691   5.398  0.3069  0.7603  0.6744
  794MOL0     C 7061   6.573   8.694   5.507  0.2677 -0.1271  0.0083
  794MOL0     C 7062   6.500   8.808   5.535  0.2231 -0.5034 -0.0339
  794MOL0     O 7063   6.435   8.817   5.654  0.5582  0.3585  0.4289
  794MOL0     C 7064   6.357   8.936   5.680 -0.2435 -0.3552 -0.7988
  794MOL0     C 7065   6.296   8.939   5.817  0.2035  0.2085 -0.3000
  794MOL0     C 7066   6.409   8.924   5.925 -0.9048  0.4869 -0.0361
  794MOL0     C 7067   6.345   8.911   6.066  0.5163 -0.7684 -0.4316
  794MOL0     C 7068   6.458   8.918   6.170  0.2592 -1.1121  0.0517
  794MOL0     C 7069   6.420   8.842   6.294  0.5366  0.3068 -0.0085
  794MOL0     C 7070   6.538   8.851   6.395 -0.5302 -0.6859  0.1402
  794MOL0     C 7071   6.499   8.815   6.537  0.4990  0.0574  0.1464
  794MOL0     N 7072   6.405   8.911   6.595 -0.0395  0.0908 -1.0387
  794MOL0     C 7073   6.310   8.877   6.690  0.4484  0.3288 -0.5101
  794MOL0     C 7074   6.229   8.987   6.703  0.2953 -0.1344  0.2339
  794MOL0     C 7075   6.106   9.011   6.787  0.2073 -0.2248  0.2750
  794MOL0     C 7076   5.982   9.037   6.688 -0.3025 -0.3406  0.5097
  794MOL0     C 7077   5.937   8.934   6.587 -0.4341 -0.1689 -0.4295
  794MOL0     C 7078   5.793   8.951   6.543 -0.5011  0.0544  0.1668
  794MOL0     O 7079   5.708   8.903   6.656 -0.1833 -0.1088  0.0078
  794MOL0     C 7080   5.578   8.947   6.672  0.2023 -0.7084  0.0245
  794MOL0     C 7081   5.506   9.036   6.598 -0.4147 -1.1338  0.1033
  794MOL0     C 7082   5.381   9.087   6.624 -0.2887  0.2263 -0.2358
  794MOL0     C 7083   5.323   9.192   6.526 -0.0499  0.2037  0.6433
  794MOL0     C 7084   5.315   9.049   6.743 -0.8229  0.4890 -0.6368
  794MOL0     C 7085   5.187   9.104   6.787 -0.4613  0.3477  0.5074
  794MOL0     O 7086   5.167   9.131   6.923 -0.2339 -0.0983  0.0731
  794MOL0     C 7087   5.084   9.237   6.948  0.5086  0.6487 -0.8465
  794MOL0     C 7088   5.134   9.340   7.036 -0.1813  0.1434 -0.2360
  794MOL0     C 7089   5.045   9.434   7.081 -0.1236 -0.8765 -0.0941
  794MOL0     C 7090   4.913   9.448   7.028  0.0663  0.4214 -0.3519
  794MOL0     O 7091   4.825   9.551   7.076 -0.5121 -0.3193 -0.4424
  794MOL0     C 7092   4.747   9.620   6.983 -0.7640 -0.6435 -0.6179
  794MOL0     C 7093   4.687   9.745   7.047 -0.1760 -1.2947 -0.1534
  794MOL0     C 7094   4.567   9.805   6.960  0.3581 -0.3070 -0.8103
  794MOL0     C 7095   4.548   9.958   6.974 -0.7993 -0.4606  0.1542
  794MOL0     C 7096   4.439   9.995   6.880 -0.8071 -0.9578  0.4030
  794MOL0     C 7097   4.319   9.902   6.875 -0.0850 -0.7567 -0.0114
  794MOL0     C 7098   4.205   9.962   6.789 -0.2478  0.3029 -0.2098
  794MOL0     C 7099   4.127  10.078   6.855 -0.3697 -0.2448 -0.7889
  794MOL0    Cl 7100   4.068  10.031   7.023  0.2604  0.2511  0.1314
  794MOL0     C 7101   4.875   9.347   6.938 -0.1037 -0.3636  0.5543
  794MOL0     C 7102   4.955   9.242   6.901  0.3927  0.0241  0.3877
  794MOL0     O 7103   5.098   9.106   6.700 -0.4892 -0.0551 -0.4298
  794MOL0     C 7104   5.388   8.961   6.827 -0.6099 -0.3756  0.0887
  794MOL0     C 7105   5.517   8.917   6.792 -0.1994  0.4423 -0.4619
  794MOL0     N 7106   6.278   9.078   6.613  0.0883  0.3636  0.1146
  794MOL0     N 7107   6.384   9.039   6.556 -0.1405 -1.0250 -1.2150
  794MOL0     C 7108   6.503   8.916   5.439 -1.0560 -0.6384  0.0807
  794MOL0     C 7109   6.597   8.902   5.328  0.6932  0.4049 -0.3370
  794MOL0     C 7110   7.005   8.837   5.127  0.0872 -0.0220 -0.5329
  794MOL0     C 7111   6.989   8.753   5.018 -0.5201 -0.0145 -0.2089
  794MOL0     C 7112   7.099   8.735   4.927  1.4108 -0.1347  0.2323
  794MOL0     C 7113   7.211   8.807   4.939 -0.2592 -0.1167 -0.2653
  794MOL0     O 7114   7.295   8.782   4.835 -0.0568  0.2065 -0.2581
  794MOL0     C 7115   7.435   8.801   4.870 -0.1272 -0.7882  0.5499
  794MOL0     C 7116   7.512   8.748   4.747  0.2702 -0.1595  0.4651
  794MOL0     C 7117   7.660   8.757   4.767 -0.5154  0.1340 -0.3388
  794MOL0     C 7118   7.725   8.776   4.634  0.6946  0.4090  0.3423
  794MOL0     C 7119   7.871   8.769   4.624  0.1295 -0.1459 -1.0794
  794MOL0     C 7120   7.995   8.769   4.638 -0.1081  0.6256 -1.1232
  794MOL0     C 7121   7.234   8.882   5.058 -0.9465  0.2787  0.0830
  794MOL0     C 7122   7.128   8.905   5.147  0.3849 -0.4120 -0.5922
  794MOL0     H 7123   6.728   8.603   5.385 -1.2166  0.0440 -3.2081
  794MOL0     H 7124   6.575   8.615   5.582 -2.7714 -0.6915 -0.3836
  794MOL0     H 7125   6.425   9.021   5.688 -1.5600  0.7443 -0.8802
  794MOL0     H 7126   6.290   8.950   5.594 -0.0557 -0.5321 -0.9727
  794MOL0     H 7127   6.238   9.031   5.829 -0.6552 -0.5257  1.4881
  794MOL0     H 7128   6.223   8.858   5.817  0.3189  0.0479  1.7264
  794MOL0     H 7129   6.472   8.836   5.910  1.9997  2.0835  1.7011
  794MOL0     H 7130   6.472   9.013   5.919  0.2132 -0.3364 -0.8453
  794MOL0     H 7131   6.269   8.979   6.104  1.9881 -0.0388  1.3946
  794MOL0     H 7132   6.300   8.811   6.062  1.3663 -1.1087 -2.7926
  794MOL0     H 7133   6.543   8.867   6.123  0.7694  0.0629 -0.3374
  794MOL0     H 7134   6.487   9.021   6.191 -2.2644 -0.3690  0.1718
  794MOL0     H 7135   6.331   8.897   6.327 -0.8510 -1.8498  0.0621
  794MOL0     H 7136   6.381   8.743   6.269 -0.8356  1.3788 -2.4230
  794MOL0     H 7137   6.617   8.782   6.366 -0.4240 -1.3026  1.7783
  794MOL0     H 7138   6.569   8.955   6.402  0.1458 -0.9184  0.6643
  794MOL0     H 7139   6.586   8.813   6.602  2.6068 -3.3875 -2.4366
  794MOL0     H 7140   6.464   8.712   6.548  2.0849 -0.4418  0.7445
  794MOL0     H 7141   6.303   8.788   6.752  1.6104  0.1087 -0.6710
  794MOL0     H 7142   6.084   8.930   6.857 -2.9718 -0.6639 -1.0647
  794MOL0     H 7143   6.124   9.100   6.848 -5.0739  0.3169  1.4495
  794MOL0     H 7144   6.006   9.130   6.636  0.6028 -0.2552  1.0506
  794MOL0     H 7145   5.900   9.068   6.754 -1.3107  1.9242 -1.6349
  794MOL0     H 7146   5.957   8.836   6.631  2.8147 -0.8241 -2.9535
  794MOL0     H 7147   5.993   8.943   6.493  1.1106 -0.0564  0.4692
  794MOL0     H 7148   5.774   8.890   6.454 -0.0455 -0.5277  0.4615
  794MOL0     H 7149   5.772   9.055   6.519 -2.1664 -0.2704  0.0550
  794MOL0     H 7150   5.548   9.066   6.502  0.5098 -2.6717 -0.0133
  794MOL0     H 7151   5.409   9.246   6.486 -0.9427  0.4016 -1.1448
  794MOL0     H 7152   5.274   9.132   6.449  1.1782 -0.0168  0.0097
  794MOL0     H 7153   5.249   9.264   6.563  1.2819  2.2686 -0.4622
  794MOL0     H 7154   5.237   9.336   7.068 -0.8791  0.7706  2.2885
  794MOL0     H 7155   5.076   9.510   7.153  1.1115  0.1543 -1.6394
  794MOL0     H 7156   4.807   9.649   6.896  1.1811  0.2836  0.9597
  794MOL0     H 7157   4.662   9.556   6.957 -0.7057 -1.4563  1.0954
  794MOL0     H 7158   4.657   9.732   7.151 -1.7477  2.4119  0.0058
  794MOL0     H 7159   4.768   9.819   7.052 -1.5688  0.3677 -1.1516
  794MOL0     H 7160   4.479   9.760   7.007 -0.5759 -1.1118 -3.1546
  794MOL0     H 7161   4.588   9.764   6.860  1.3008 -1.0553 -0.3290
  794MOL0     H 7162   4.529   9.991   7.077  0.1487  0.4477  0.0588
  794MOL0     H 7163   4.642  10.004   6.943 -0.3593 -0.4253  1.4836
  794MOL0     H 7164   4.480  10.005   6.779 -1.6720  1.1307  0.2049
  794MOL0     H 7165   4.399  10.089   6.918  4.5618  1.8652 -0.0134
  794MOL0     H 7166   4.352   9.809   6.828 -0.2849  0.0433 -1.7835
  794MOL0     H 7167   4.270   9.882   6.971 -0.6172  0.3008 -0.0544
  794MOL0     H 7168   4.136   9.879   6.768 -0.0324  0.2629 -0.8056
  794MOL0     H 7169   4.250   9.994   6.694  1.0354  1.0844  0.6395
  794MOL0     H 7170   4.049  10.109   6.784 -0.5942  0.3907 -0.2663
  794MOL0     H 7171   4.192  10.165   6.870  0.2549 -1.0584  1.6547
  794MOL0     H 7172   4.769   9.343   6.914  0.1202  3.1825 -1.7994
  794MOL0     H 7173   4.913   9.158   6.848 -1.7957  0.7409  0.8728
  794MOL0     H 7174   5.344   8.933   6.923 -3.1880  1.0646 -0.5777
  794MOL0     H 7175   5.574   8.849   6.855 -1.2634  0.4459  0.5463
  794MOL0     H 7176   6.446   9.008   5.435  0.9849  0.6777 -2.2913
  794MOL0     H 7177   6.618   8.971   5.247  1.0197 -1.5778 -2.0519
  794MOL0     H 7178   6.896   8.699   5.006  0.4373 -1.6905 -0.5071
  794MOL0     H 7179   7.080   8.688   4.831 -0.1745 -1.0192  0.9427
  794MOL0     H 7180   7.464   8.905   4.889  2.3839 -1.0987 -1.0804
  794MOL0     H 7181   7.475   8.751   4.959  1.5970 -0.6526 -0.1139
  794MOL0     H 7182   7.477   8.804   4.660  0.6246  0.0912  0.4861
  794MOL0     H 7183   7.487   8.642   4.732  1.2474 -0.1694 -1.3660
  794MOL0     H 7184   7.697   8.675   4.828  0.3661  1.1099  0.4813
  794MOL0     H 7185   7.677   8.845   4.829 -0.0047  0.1775 -0.5340
  794MOL0     H 7186   7.685   8.872   4.600  0.8478  1.5655  3.1893
  794MOL0     H 7187   7.691   8.695   4.568  1.8336  0.8333 -0.8126
  794MOL0     H 7188   8.098   8.790   4.654 -0.3017  0.7119  0.1231
  794MOL0     H 7189   7.331   8.925   5.080 -1.1003 -0.0562  1.5325
  794MOL0     H 7190   7.136   8.972   5.232 -3.6911 -1.7389  1.1183
  795MOL0     O 7191   8.541   5.735   6.952  0.1150  0.2506  0.3245
  795MOL0     C 7192   8.620   5.664   7.022  0.6539 -1.0636 -0.1837
  795MOL0     O 7193   8.701   5.570   6.975 -0.8038  0.6910  0.5498
  795MOL0     C 7194   8.676   5.541   6.844 -0.2945  0.5074  0.5457
  795MOL0     C 7195   8.768   5.564   6.745  0.0378  0.3422  1.2268
  795MOL0     C 7196   8.746   5.525   6.609  0.8821 -0.1762 -0.6497
  795MOL0     C 7197   8.620   5.462   6.570  0.3255 -0.3660 -0.6217
  795MOL0     O 7198   8.602   5.412   6.441  0.2629  0.5817 -0.5375
  795MOL0     C 7199   8.473   5.401   6.382 -0.3418 -0.0529  0.5024
  795MOL0     C 7200   8.399   5.544   6.372 -0.9486  0.4415  0.0386
  795MOL0     C 7201   8.267   5.515   6.304  0.8677 -0.4660  0.7050
  795MOL0     C 7202   8.184   5.647   6.281 -0.5433 -0.3764  0.2416
  795MOL0     C 7203   8.041   5.605   6.232 -0.3811  0.3741 -0.8147
  795MOL0     C 7204   7.956   5.728   6.228 -0.5078 -0.3323  0.0019
  795MOL0     C 7205   7.819   5.700   6.171 -0.2917  0.3104  0.8365
  795MOL0     C 7206   7.724   5.816   6.199 -0.1229  0.5477  0.3728
  795MOL0     N 7207   7.591   5.796   6.125  0.3239 -0.4873 -0.0846
  795MOL0     C 7208   7.565   5.725   6.009 -0.4423 -0.0240 -0.1649
  795MOL0     C 7209   7.435   5.746   5.978 -0.3584 -0.3763  0.1773
  795MOL0     C 7210   7.359   5.709   5.854 -0.6122 -0.1198  0.1548
  795MOL0     C 7211   7.297   5.577   5.863 -0.3083 -0.2101 -0.0279
  795MOL0     C 7212   7.391   5.458   5.848 -0.9840  0.3119 -0.5121
  795MOL0     C 7213   7.330   5.318   5.840 -1.0705 -0.2872 -0.7621
  795MOL0     O 7214   7.208   5.331   5.762  0.5551 -0.0598 -0.4114
  795MOL0     C 7215   7.081   5.335   5.825 -0.0161  0.2615 -0.9332
  795MOL0     C 7216   7.064   5.342   5.970 -1.0339  0.1137  0.4144
  795MOL0     C 7217   6.942   5.366   6.035 -0.2400  0.8236  0.6778
  795MOL0     C 7218   6.956   5.391   6.183 -0.4149  0.9615 -0.0225
  795MOL0     C 7219   6.824   5.350   5.957 -0.1426 -0.8338  0.4624
  795MOL0     C 7220   6.686   5.346   6.011 -0.3638  0.2486 -0.0797
  795MOL0     O 7221   6.596   5.302   5.922  0.0782  0.3101 -0.1382
  795MOL0     C 7222   6.460   5.261   5.942 -0.1425 -0.5217  0.3334
  795MOL0     C 7223   6.389   5.236   5.823 -0.9284  0.7912 -0.5540
  795MOL0     C 7224   6.258   5.201   5.838  0.6010  0.2106  0.8970
  795MOL0     C 7225   6.197   5.179   5.958  0.5619  0.7169 -1.2152
  795MOL0     O 7226   6.088   5.100   5.982  0.0554 -0.2410  0.2301
  795MOL0     C 7227   5.978   5.126   5.894 -0.2269  0.5167 -0.4883
  795MOL0     C 7228   5.854   5.063   5.962 -0.2718 -0.5086 -0.2037
  795MOL0     C 7229   5.859   4.914   5.954  0.6710  0.0270 -0.3825
  795MOL0     C 7230   5.747   4.863   6.056 -0.4832 -0.2501  0.4086
  795MOL0     C 7231   5.792   4.737   6.133  0.4216 -0.0749 -1.1271
  795MOL0     C 7232   5.821   4.612   6.040 -0.0076 -0.4125  0.2916
  795MOL0     C 7233   5.873   4.503   6.143  0.2992 -0.4781 -0.3347
  795MOL0     C 7234   5.844   4.361   6.102 -0.7987 -0.2772  0.2863
  795MOL0    Cl 7235   5.923   4.316   5.940 -0.1516 -0.0269  0.2514
  795MOL0     C 7236   6.268   5.222   6.077  0.7810  1.0170  0.1708
  795MOL0     C 7237   6.399   5.258   6.066  0.2937  0.7052 -0.0813
  795MOL0     O 7238   6.671   5.342   6.129  0.8389 -0.5043  0.2946
  795MOL0     C 7239   6.841   5.342   5.813  0.7874 -0.3304  0.1563
  795MOL0     C 7240   6.966   5.339   5.750  0.4412 -0.1916  0.4033
  795MOL0     N 7241   7.380   5.828   6.079  0.4318 -0.8905 -0.7188
  795MOL0     N 7242   7.472   5.851   6.168 -0.1929  0.4749  0.8457
  795MOL0     C 7243   8.540   5.425   6.680  0.0412  0.0753  0.1495
  795MOL0     C 7244   8.567   5.452   6.814 -0.1150 -0.3826  0.4966
  795MOL0     C 7245   8.628   5.683   7.176 -0.0098  0.5887  0.6683
  795MOL0     C 7246   8.718   5.612   7.260 -0.4872 -0.8281 -1.1789
  795MOL0     C 7247   8.731   5.651   7.391  0.5878  0.6530  0.4350
  795MOL0     C 7248   8.637   5.733   7.451  0.0031  0.0345 -0.2567
  795MOL0     O 7249   8.636   5.754   7.583  0.5115 -0.4151 -0.2448
  795MOL0     C 7250   8.716   5.675   7.669 -0.0989  0.1208 -0.4106
  795MOL0     C 7251   8.678   5.708   7.814 -0.3125 -0.2325  1.2173
  795MOL0     C 7252   8.726   5.849   7.865 -0.1392 -0.2189 -0.0484
  795MOL0     C 7253   8.657   5.862   8.011  0.4760  0.3434 -0.4872
  795MOL0     C 7254   8.566   5.979   8.010 -0.3492 -0.2361 -0.9828
  795MOL0     C 7255   8.513   6.097   8.011 -1.0252 -0.2807 -0.0012
  795MOL0     C 7256   8.544   5.798   7.373  1.1806 -0.1200  0.5406
  795MOL0     C 7257   8.535   5.772   7.238  1.2624 -0.2171  0.5977
  795MOL0     H 7258   8.867   5.607   6.757  0.0718  0.4692  0.5595
  795MOL0     H 7259   8.820   5.560   6.539  0.5661  1.6909 -0.1068
  795MOL0     H 7260   8.505   5.374   6.281  3.7251  4.9892  0.0256
  795MOL0     H 7261   8.423   5.318   6.432  1.4810 -0.2648  2.1011
  795MOL0     H 7262   8.390   5.577   6.476  0.0965 -1.9217  0.9822
  795MOL0     H 7263   8.454   5.618   6.314  0.6392 -1.3083 -0.8011
  795MOL0     H 7264   8.285   5.472   6.205 -2.7212 -2.4801  0.7873
  795MOL0     H 7265   8.219   5.441   6.368  1.6948  0.6272  2.6787
  795MOL0     H 7266   8.173   5.702   6.374 -4.2715 -0.8211  0.2158
  795MOL0     H 7267   8.237   5.708   6.207  1.3232  0.3817  2.1330
  795MOL0     H 7268   8.055   5.563   6.132 -0.2122  2.7255 -1.8328
  795MOL0     H 7269   7.997   5.534   6.303 -0.4221 -0.2778 -1.4808
  795MOL0     H 7270   7.940   5.764   6.330  3.6414  1.3179  0.2679
  795MOL0     H 7271   8.006   5.814   6.182  0.7678 -1.1744 -0.2562
  795MOL0     H 7272   7.824   5.685   6.062 -0.1634 -0.7501  0.9802
  795MOL0     H 7273   7.764   5.624   6.227 -2.5375  1.1395 -0.1306
  795MOL0     H 7274   7.776   5.905   6.162  0.6077 -1.2939 -3.5797
  795MOL0     H 7275   7.706   5.828   6.306  0.3678  1.0998  0.3955
  795MOL0     H 7276   7.637   5.678   5.942  0.3406  2.3117 -1.0539
  795MOL0     H 7277   7.275   5.778   5.849 -0.8478 -0.2777  1.4924
  795MOL0     H 7278   7.429   5.717   5.769  1.4981  1.9004  1.9260
  795MOL0     H 7279   7.219   5.585   5.786  0.7377  3.4547 -0.8719
  795MOL0     H 7280   7.255   5.559   5.963  3.3699  0.8793  1.8719
  795MOL0     H 7281   7.477   5.471   5.914  1.0899  3.1508 -3.5022
  795MOL0     H 7282   7.431   5.478   5.749 -0.2392 -1.8370 -0.7072
  795MOL0     H 7283   7.319   5.278   5.941 -0.8535  0.4922 -0.4199
  795MOL0     H 7284   7.399   5.243   5.799 -1.3563 -1.5507  0.9843
  795MOL0     H 7285   7.150   5.351   6.036  0.8238  2.9687 -2.1312
  795MOL0     H 7286   6.970   5.293   6.230  0.0608  1.1638  0.2620
  795MOL0     H 7287   7.040   5.458   6.204 -0.7637  1.1849  0.6943
  795MOL0     H 7288   6.868   5.439   6.226 -0.1887  1.1320  0.2500
  795MOL0     H 7289   6.432   5.243   5.723  0.7311 -0.1889  0.0447
  795MOL0     H 7290   6.203   5.177   5.748  1.2957  0.4691  0.3981
  795MOL0     H 7291   5.964   5.234   5.881 -0.3936  0.6401  0.5509
  795MOL0     H 7292   5.993   5.073   5.800 -3.4162 -2.1648  0.3372
  795MOL0     H 7293   5.850   5.089   6.068  0.1866 -1.8160  0.1544
  795MOL0     H 7294   5.761   5.103   5.921 -0.0515  1.2652  0.9058
  795MOL0     H 7295   5.960   4.878   5.976  1.0747 -0.7517 -3.0816
  795MOL0     H 7296   5.834   4.877   5.854 -1.8324 -0.2942  0.2824
  795MOL0     H 7297   5.747   4.927   6.145  0.4289  0.5642 -0.1494
  795MOL0     H 7298   5.643   4.856   6.024 -0.1770 -0.9682 -0.4734
  795MOL0     H 7299   5.719   4.718   6.212 -0.3171  1.9817 -1.2777
  795MOL0     H 7300   5.887   4.760   6.184 -0.3115  1.3269 -0.3539
  795MOL0     H 7301   5.728   4.583   5.991 -0.4743  1.6505 -0.1203
  795MOL0     H 7302   5.902   4.627   5.968  0.4476 -1.4466  0.5698
  795MOL0     H 7303   5.833   4.515   6.244  0.5429  0.5627 -0.3512
  795MOL0     H 7304   5.980   4.526   6.144 -0.0422  1.2138  0.0098
  795MOL0     H 7305   5.735   4.350   6.098 -0.5508 -3.7167 -0.8365
  795MOL0     H 7306   5.875   4.291   6.180 -1.0163 -2.2688 -1.2997
  795MOL0     H 7307   6.219   5.198   6.171  1.1372 -1.6120 -0.2374
  795MOL0     H 7308   6.441   5.289   6.162  2.4482 -0.5640 -0.5513
  795MOL0     H 7309   6.757   5.322   5.747  1.0909 -0.0273 -0.3190
  795MOL0     H 7310   6.970   5.326   5.642  0.4321 -0.1251  0.3946
  795MOL0     H 7311   8.446   5.374   6.668  1.0921 -1.6567 -1.1396
  795MOL0     H 7312   8.505   5.408   6.892 -0.4020 -1.0641 -0.1119
  795MOL0     H 7313   8.800   5.554   7.219  0.9630  1.8764 -2.3711
  795MOL0     H 7314   8.822   5.616   7.438  0.5489 -0.5916 -0.3594
  795MOL0     H 7315   8.712   5.566   7.661 -0.3261  0.2076 -1.6612
  795MOL0     H 7316   8.821   5.705   7.664 -0.4952  1.4202 -1.5674
  795MOL0     H 7317   8.723   5.631   7.876  2.0967 -0.0559 -0.2108
  795MOL0     H 7318   8.572   5.687   7.831 -0.1198 -0.3445  2.3435
  795MOL0     H 7319   8.705   5.933   7.799  1.1564 -0.4830 -0.8244
  795MOL0     H 7320   8.835   5.847   7.874 -0.1117  1.0215 -0.0606
  795MOL0     H 7321   8.735   5.871   8.087 -1.2904  1.9332  1.2384
  795MOL0     H 7322   8.594   5.777   8.037  2.3656 -0.1482  3.0686
  795MOL0     H 7323   8.484   6.200   8.009 -2.3457 -0.5664  1.9622
  795MOL0     H 7324   8.495   5.881   7.424  0.6510 -2.3434  3.9885
  795MOL0     H 7325   8.470   5.830   7.173 -0.3731 -2.4653  0.1168
  796MOL0     O 7326   6.731   3.687   6.898  0.0589  0.3630 -0.4996
  796MOL0     C 7327   6.748   3.655   7.020  0.3206 -0.2602  0.6042
  796MOL0     O 7328   6.650   3.644   7.116  0.2368 -0.0018 -0.3443
  796MOL0     C 7329   6.522   3.653   7.075 -0.0360 -0.6349  0.0245
  796MOL0     C 7330   6.434   3.540   7.091 -0.0195 -1.0623 -0.0099
  796MOL0     C 7331   6.309   3.540   7.035  0.0311  0.2244  0.3368
  796MOL0     C 7332   6.263   3.651   6.959  0.6169  1.3046 -0.8644
  796MOL0     O 7333   6.136   3.623   6.910  0.0705  0.5909 -0.3136
  796MOL0     C 7334   6.109   3.721   6.812  0.2250  0.5804  0.5783
  796MOL0     C 7335   5.970   3.711   6.754  0.3457  0.1146  0.6106
  796MOL0     C 7336   5.932   3.575   6.699 -0.2227  0.1194 -0.3355
  796MOL0     C 7337   5.783   3.559   6.661  0.1764  0.4567 -0.8986
  796MOL0     C 7338   5.751   3.649   6.553  0.6252  0.1559  0.1746
  796MOL0     C 7339   5.606   3.643   6.493  0.4771 -0.1968 -1.1391
  796MOL0     C 7340   5.578   3.759   6.392 -0.6370 -0.7709 -0.2627
  796MOL0     C 7341   5.431   3.780   6.372 -0.3675 -0.2542 -0.3792
  796MOL0     N 7342   5.343   3.661   6.359  0.3241 -0.6079 -0.3247
  796MOL0     C 7343   5.366   3.553   6.274  0.1684 -0.0969 -0.7137
  796MOL0     C 7344   5.259   3.474   6.308  0.4031  0.0297 -0.4468
  796MOL0     C 7345   5.242   3.333   6.261  1.2970  0.3287 -0.3283
  796MOL0     C 7346   5.368   3.240   6.284  0.3472 -0.1722 -0.1195
  796MOL0     C 7347   5.408   3.180   6.151 -0.6957 -0.1249 -0.1414
  796MOL0     C 7348   5.300   3.087   6.088 -0.1254  0.4298  0.0298
  796MOL0     O 7349   5.293   3.115   5.949  0.0464  0.0813  0.2186
  796MOL0     C 7350   5.181   3.168   5.900 -0.3296  0.3865  0.0095
  796MOL0     C 7351   5.061   3.086   5.897 -0.5499 -0.0548 -0.3419
  796MOL0     C 7352   4.948   3.130   5.821 -0.0418  0.1659  0.7179
  796MOL0     C 7353   4.845   3.036   5.799 -0.6629 -0.4906 -0.3195
  796MOL0     C 7354   4.956   3.258   5.754 -0.2656  0.6510 -0.6927
  796MOL0     C 7355   4.855   3.319   5.667  0.9166  0.8848  0.6764
  796MOL0     O 7356   4.844   3.273   5.543 -0.4471 -0.2457 -0.2437
  796MOL0     C 7357   4.753   3.334   5.463  0.4895  0.8454 -0.0425
  796MOL0     C 7358   4.804   3.400   5.349 -0.1442 -0.4564 -0.2746
  796MOL0     C 7359   4.720   3.456   5.258  0.4985 -0.1817  0.2035
  796MOL0     C 7360   4.584   3.443   5.279 -0.8364 -0.7855  0.1080
  796MOL0     O 7361   4.510   3.495   5.173 -0.6166 -0.0574  0.3435
  796MOL0     C 7362   4.374   3.459   5.152 -0.0365  0.5900  0.1942
  796MOL0     C 7363   4.286   3.564   5.225  0.3453 -0.0320  0.3912
  796MOL0     C 7364   4.137   3.524   5.205 -0.9456 -0.0427 -0.0677
  796MOL0     C 7365   4.050   3.641   5.241 -0.7000 -0.0153 -0.4060
  796MOL0     C 7366   3.898   3.612   5.249  0.8650 -0.0309  0.9681
  796MOL0     C 7367   3.833   3.538   5.124 -0.1917  0.1959 -0.8411
  796MOL0     C 7368   3.694   3.508   5.158 -0.5608 -0.3728 -0.1695
  796MOL0     C 7369   3.615   3.460   5.034  0.6537 -0.2469 -0.6891
  796MOL0    Cl 7370   3.686   3.317   4.949  0.6030  0.1488 -0.2406
  796MOL0     C 7371   4.528   3.378   5.389 -0.4695 -0.4102  0.1007
  796MOL0     C 7372   4.612   3.310   5.476 -0.9171 -0.6996  0.5187
  796MOL0     O 7373   4.776   3.394   5.722  0.4951 -0.7066 -0.2737
  796MOL0     C 7374   5.073   3.332   5.759 -0.2732 -0.0218 -0.2577
  796MOL0     C 7375   5.192   3.287   5.833  0.2896  0.9953  0.5982
  796MOL0     N 7376   5.168   3.538   6.395 -0.6159 -0.0401  0.9471
  796MOL0     N 7377   5.223   3.654   6.421 -0.4859 -0.6667 -0.1148
  796MOL0     C 7378   6.353   3.760   6.935  0.6758 -0.7843 -0.1647
  796MOL0     C 7379   6.479   3.764   6.997 -0.5705  1.1627 -0.3201
  796MOL0     C 7380   6.889   3.653   7.066  0.0810 -0.0666 -0.0768
  796MOL0     C 7381   6.990   3.683   6.965 -0.2640  0.3193 -0.1321
  796MOL0     C 7382   7.115   3.702   7.003 -1.0138  0.5754 -0.2652
  796MOL0     C 7383   7.161   3.677   7.135 -1.1887 -0.3827 -0.2966
  796MOL0     O 7384   7.298   3.696   7.152  0.0201 -0.1502  0.3367
  796MOL0     C 7385   7.358   3.606   7.250 -0.6878  0.3936 -0.4117
  796MOL0     C 7386   7.508   3.600   7.216  0.2520 -0.0429 -0.1329
  796MOL0     C 7387   7.585   3.568   7.349 -0.1511  0.3902 -0.7950
  796MOL0     C 7388   7.730   3.547   7.320 -0.2298  0.3785  0.1355
  796MOL0     C 7389   7.805   3.660   7.269  0.5308  0.4730 -0.2090
  796MOL0     C 7390   7.864   3.756   7.226  0.2904  0.6080 -1.2661
  796MOL0     C 7391   7.068   3.648   7.235  0.1746  0.5492 -0.0974
  796MOL0     C 7392   6.931   3.632   7.197  0.0306 -0.4236 -0.0285
  796MOL0     H 7393   6.481   3.454   7.138  0.6217 -0.9049 -0.3461
  796MOL0     H 7394   6.250   3.452   7.057  0.4378 -0.4967 -1.3337
  796MOL0     H 7395   6.104   3.823   6.850  2.5039  1.7201 -1.8715
  796MOL0     H 7396   6.183   3.708   6.733  0.5325 -2.5734  1.2351
  796MOL0     H 7397   5.894   3.733   6.830 -1.3771 -2.4982 -0.2011
  796MOL0     H 7398   5.980   3.787   6.676 -0.1753 -0.2864  0.1430
  796MOL0     H 7399   5.991   3.555   6.609  0.0673  1.9057 -0.5762
  796MOL0     H 7400   5.959   3.490   6.762  0.5629  0.0313 -0.7766
  796MOL0     H 7401   5.749   3.457   6.644 -0.1808  0.6280 -1.2248
  796MOL0     H 7402   5.727   3.591   6.750  1.9743  0.6953  0.1947
  796MOL0     H 7403   5.780   3.753   6.569  1.5815  0.2515 -1.8471
  796MOL0     H 7404   5.819   3.613   6.475  0.9290 -3.5192  1.9296
  796MOL0     H 7405   5.592   3.550   6.437  0.3746 -1.0575  0.2493
  796MOL0     H 7406   5.536   3.661   6.575 -1.1515  2.2859 -2.9342
  796MOL0     H 7407   5.622   3.844   6.444  1.9691 -1.1804 -1.6474
  796MOL0     H 7408   5.625   3.740   6.296 -1.1419  0.4198 -0.7689
  796MOL0     H 7409   5.429   3.830   6.275  0.8177  0.2976 -0.1375
  796MOL0     H 7410   5.402   3.851   6.450  1.5444 -1.5402  1.6236
  796MOL0     H 7411   5.439   3.526   6.199  2.4463  1.2099  0.9205
  796MOL0     H 7412   5.161   3.282   6.313  2.7903 -0.6797  1.1110
  796MOL0     H 7413   5.219   3.338   6.154  0.8155 -4.1419 -0.6532
  796MOL0     H 7414   5.338   3.155   6.346  0.6728  0.8986  1.5798
  796MOL0     H 7415   5.452   3.290   6.332 -0.6153  0.9988  0.3965
  796MOL0     H 7416   5.490   3.108   6.158 -1.6742 -1.3645 -0.9103
  796MOL0     H 7417   5.450   3.253   6.081 -0.7697 -1.1717 -1.3258
  796MOL0     H 7418   5.202   3.106   6.133 -0.0628 -1.0143  0.8433
  796MOL0     H 7419   5.327   2.982   6.103  1.9218  0.5692 -2.0697
  796MOL0     H 7420   5.047   2.994   5.953  1.3676 -0.2494 -0.1133
  796MOL0     H 7421   4.869   2.934   5.832  2.3607  0.2578  0.0988
  796MOL0     H 7422   4.757   3.073   5.853  0.8610  0.8344  1.3618
  796MOL0     H 7423   4.807   3.033   5.696 -0.4913 -0.4484 -0.3842
  796MOL0     H 7424   4.911   3.416   5.346 -0.1227 -0.7410 -1.9257
  796MOL0     H 7425   4.771   3.492   5.169  3.7827 -0.3015  1.8655
  796MOL0     H 7426   4.366   3.457   5.043  0.6946  1.9400  0.0983
  796MOL0     H 7427   4.354   3.359   5.193 -1.6622  1.1718  0.9255
  796MOL0     H 7428   4.316   3.570   5.329 -0.2471 -2.1561  0.7318
  796MOL0     H 7429   4.305   3.660   5.175 -1.3732 -0.0012 -0.3027
  796MOL0     H 7430   4.101   3.447   5.275 -1.5437  1.5983  1.4897
  796MOL0     H 7431   4.128   3.492   5.101  0.2802 -0.1695 -0.1587
  796MOL0     H 7432   4.077   3.675   5.342 -0.1480 -3.2554  0.6730
  796MOL0     H 7433   4.061   3.717   5.163  2.3186  1.3059  1.1412
  796MOL0     H 7434   3.850   3.710   5.260  0.3624  0.0578 -1.4294
  796MOL0     H 7435   3.876   3.549   5.335 -1.6686  1.7798  1.7701
  796MOL0     H 7436   3.856   3.606   5.041  1.2687  1.4485  0.5192
  796MOL0     H 7437   3.894   3.450   5.104  1.4970  0.9189  0.7993
  796MOL0     H 7438   3.645   3.598   5.198  2.2046  0.9449  0.5091
  796MOL0     H 7439   3.694   3.433   5.237 -0.8730  0.6684  0.8513
  796MOL0     H 7440   3.602   3.539   4.959  3.0197 -0.8383 -1.8050
  796MOL0     H 7441   3.514   3.445   5.072  1.1546  1.2682  1.4056
  796MOL0     H 7442   4.420   3.381   5.403 -0.5343  0.3229 -0.4884
  796MOL0     H 7443   4.572   3.248   5.555 -3.1417 -0.3926 -0.2963
  796MOL0     H 7444   5.072   3.422   5.699 -0.6831  0.1140 -0.0526
  796MOL0     H 7445   5.287   3.340   5.826 -0.2835  1.8361 -2.9852
  796MOL0     H 7446   6.325   3.854   6.891 -0.3017  0.7409  3.3580
  796MOL0     H 7447   6.556   3.838   6.983 -0.2259  0.6502 -1.1837
  796MOL0     H 7448   6.966   3.684   6.859 -0.5098 -0.4016 -0.0842
  796MOL0     H 7449   7.179   3.733   6.922  0.4550 -1.2782  0.1050
  796MOL0     H 7450   7.353   3.648   7.351 -0.8999 -0.1972 -0.1696
  796MOL0     H 7451   7.304   3.511   7.249 -0.6917  0.3601 -3.1366
  796MOL0     H 7452   7.549   3.698   7.191 -1.3535  0.7606  0.3087
  796MOL0     H 7453   7.535   3.537   7.131  2.1409 -0.1209  0.4784
  796MOL0     H 7454   7.551   3.472   7.389  1.9030  0.4091  1.2226
  796MOL0     H 7455   7.574   3.646   7.425 -0.4495  0.2939 -0.7393
  796MOL0     H 7456   7.735   3.465   7.247 -1.9556 -0.3210  0.7777
  796MOL0     H 7457   7.782   3.511   7.409  1.3127 -1.7016 -1.5085
  796MOL0     H 7458   7.918   3.844   7.198  0.7872  1.1781  1.2773
  796MOL0     H 7459   7.093   3.645   7.340  0.2431 -1.6815 -0.1297
  796MOL0     H 7460   6.848   3.622   7.266 -0.9117 -0.0728 -1.0769
  797MOL0     O 7461  10.811  10.290   8.038 -0.5070 -0.1839 -0.4671
  797MOL0     C 7462  10.850  10.325   8.148  0.0684  0.2615  0.4167
  797MOL0     O 7463  10.768  10.340   8.260 -0.3029  0.2536 -0.7527
  797MOL0     C 7464  10.631  10.328   8.266  0.1653  0.0072 -0.1571
  797MOL0     C 7465  10.568  10.387   8.373 -0.3958 -0.4078 -0.2171
  797MOL0     C 7466  10.437  10.361   8.402 -0.0036 -0.2625  0.3245
  797MOL0     C 7467  10.360  10.276   8.324 -0.4123 -0.0466  0.6316
  797MOL0     O 7468  10.237  10.246   8.347 -1.2267  0.3237 -0.3558
  797MOL0     C 7469  10.179  10.291   8.470 -0.2738  0.1460  0.4721
  797MOL0     C 7470  10.037  10.240   8.473 -0.1159  0.1781  0.4400
  797MOL0     C 7471   9.949  10.335   8.388  0.2338 -0.6956 -0.9274
  797MOL0     C 7472   9.808  10.300   8.398  0.5949  0.4164  0.3611
  797MOL0     C 7473   9.722  10.416   8.338  0.2370 -0.7864  0.7926
  797MOL0     C 7474   9.575  10.389   8.334  0.2778 -1.6614 -0.2880
  797MOL0     C 7475   9.519  10.412   8.481 -0.5265  0.1004  0.4696
  797MOL0     C 7476   9.375  10.380   8.483 -0.4146  0.0396  0.0692
  797MOL0     N 7477   9.297  10.385   8.609  0.5935  0.4017  0.1668
  797MOL0     C 7478   9.296  10.493   8.689  1.1721  0.3036 -0.1244
  797MOL0     C 7479   9.219  10.463   8.792 -0.5601 -0.1429  0.6244
  797MOL0     C 7480   9.174  10.560   8.899  0.4982 -0.3512 -1.0628
  797MOL0     C 7481   9.030  10.611   8.874  0.3023  0.0745 -0.0405
  797MOL0     C 7482   8.924  10.502   8.898 -0.6125 -0.3053  0.1679
  797MOL0     C 7483   8.782  10.557   8.873 -0.2583  0.4109 -1.4167
  797MOL0     O 7484   8.694  10.458   8.917 -0.1061  0.4812 -0.8986
  797MOL0     C 7485   8.567  10.480   8.948  0.0075 -0.2411  0.4427
  797MOL0     C 7486   8.506  10.605   8.951 -0.4184  0.1542 -0.0957
  797MOL0     C 7487   8.369  10.613   8.979  1.1028 -0.6337  0.5470
  797MOL0     C 7488   8.326  10.751   9.013 -0.1014  0.0299  0.4480
  797MOL0     C 7489   8.288  10.501   8.996  0.4624  0.2202  0.7963
  797MOL0     C 7490   8.140  10.508   9.026 -0.7207 -0.0751  0.0685
  797MOL0     O 7491   8.078  10.412   9.106  0.3561 -0.1941  0.2135
  797MOL0     C 7492   7.943  10.411   9.123  0.0884  0.2692  0.0762
  797MOL0     C 7493   7.887  10.289   9.127  0.2358  0.9624 -1.2918
  797MOL0     C 7494   7.749  10.269   9.158  0.6066 -0.0104  0.5674
  797MOL0     C 7495   7.665  10.375   9.184 -0.6538  0.6197  0.3632
  797MOL0     O 7496   7.535  10.352   9.220 -0.0078  0.0491  0.8179
  797MOL0     C 7497   7.446  10.465   9.195  0.2589 -0.0377  0.0078
  797MOL0     C 7498   7.297  10.417   9.193  0.6369  0.5272 -0.8045
  797MOL0     C 7499   7.237  10.365   9.321  0.0527 -0.0312 -0.2918
  797MOL0     C 7500   7.105  10.311   9.285  0.7103  0.2287 -0.0235
  797MOL0     C 7501   7.007  10.304   9.404 -0.8466  0.2857 -0.8567
  797MOL0     C 7502   7.049  10.205   9.510 -0.3255  0.1234  1.2166
  797MOL0     C 7503   6.969  10.222   9.645  0.6144  0.3266 -1.0113
  797MOL0     C 7504   6.941  10.092   9.722  0.1013  0.5492 -0.1697
  797MOL0    Cl 7505   7.088   9.999   9.735  0.1345 -0.1851 -0.4019
  797MOL0     C 7506   7.729  10.496   9.186 -0.1946  0.2228  0.0800
  797MOL0     C 7507   7.858  10.517   9.152 -0.6780  0.1863  1.0984
  797MOL0     O 7508   8.083  10.600   8.964  0.4696  0.4877 -0.2376
  797MOL0     C 7509   8.350  10.373   8.988 -0.3522  0.3369 -1.0361
  797MOL0     C 7510   8.490  10.368   8.976  0.0940 -0.2335 -0.2915
  797MOL0     N 7511   9.183  10.331   8.784  0.7075  0.0473  0.3341
  797MOL0     N 7512   9.229  10.284   8.670 -0.4501  0.8520 -0.3192
  797MOL0     C 7513  10.416  10.220   8.211 -0.4772  0.5030  0.5477
  797MOL0     C 7514  10.556  10.242   8.186  0.2512 -0.3992 -0.6883
  797MOL0     C 7515  10.985  10.364   8.168  0.3347  0.7362  1.1541
  797MOL0     C 7516  11.082  10.359   8.070 -0.9289  0.2547 -0.4311
  797MOL0     C 7517  11.212  10.398   8.088  0.5946  0.1364 -0.3052
  797MOL0     C 7518  11.262  10.434   8.214 -0.4778  0.3394  0.0016
  797MOL0     O 7519  11.398  10.457   8.220 -1.1507  0.8308  0.1196
  797MOL0     C 7520  11.431  10.571   8.299 -0.5317  0.5831  0.2273
  797MOL0     C 7521  11.556  10.632   8.238 -0.4625 -0.3090 -0.8236
  797MOL0     C 7522  11.617  10.727   8.331 -0.4233 -0.0049 -0.4266
  797MOL0     C 7523  11.736  10.793   8.261  0.4561 -0.2779  1.1292
  797MOL0     C 7524  11.793  10.890   8.357  0.0144  0.6041 -0.5509
  797MOL0     C 7525  11.837  10.972   8.433  0.0159 -0.0608 -0.4324
  797MOL0     C 7526  11.170  10.443   8.316  0.0342  0.0439  0.6882
  797MOL0     C 7527  11.039  10.403   8.296  0.1874  0.5188 -0.6466
  797MOL0     H 7528  10.627  10.442   8.446  1.0500 -1.4576 -0.5379
  797MOL0     H 7529  10.389  10.400   8.491 -1.5148 -1.5625  0.1262
  797MOL0     H 7530  10.223  10.254   8.563 -1.5149  1.0452  1.4542
  797MOL0     H 7531  10.171  10.400   8.472  0.4706  0.2377 -0.5582
  797MOL0     H 7532  10.018  10.138   8.440 -1.2112  0.3627  0.4537
  797MOL0     H 7533  10.004  10.247   8.576  0.5990  1.4836  0.6115
  797MOL0     H 7534   9.960  10.434   8.433  0.5741 -0.8805 -0.5977
  797MOL0     H 7535   9.988  10.332   8.286  3.6778  2.0106  0.1149
  797MOL0     H 7536   9.791  10.211   8.337  2.2510  0.0363  0.4100
  797MOL0     H 7537   9.777  10.279   8.501  0.4231 -0.8803  0.0612
  797MOL0     H 7538   9.745  10.510   8.389 -1.5002  0.2235 -0.1834
  797MOL0     H 7539   9.752  10.424   8.234  0.0622  1.3804  0.8570
  797MOL0     H 7540   9.525  10.455   8.262  2.6851 -0.8194 -1.2989
  797MOL0     H 7541   9.572  10.289   8.289 -1.3946 -1.0598 -1.6257
  797MOL0     H 7542   9.586  10.358   8.548  0.0378  0.9182  0.5850
  797MOL0     H 7543   9.537  10.517   8.505 -0.4490  0.3273 -0.5391
  797MOL0     H 7544   9.371  10.273   8.462 -2.0029 -0.0333  0.6231
  797MOL0     H 7545   9.331  10.441   8.404  1.0212  0.7677 -0.2027
  797MOL0     H 7546   9.341  10.590   8.672  0.6110  0.9925  1.9930
  797MOL0     H 7547   9.165  10.501   8.990 -1.7129 -1.8069 -2.1111
  797MOL0     H 7548   9.235  10.649   8.914 -1.3886  0.8733 -0.2504
  797MOL0     H 7549   9.026  10.662   8.777  1.6478  1.0862  0.3979
  797MOL0     H 7550   9.009  10.684   8.953  0.9685  1.6301 -1.2339
  797MOL0     H 7551   8.933  10.462   9.000  0.7177  0.7476  0.4905
  797MOL0     H 7552   8.937  10.412   8.839 -0.1301 -0.5907  0.6938
  797MOL0     H 7553   8.770  10.575   8.765  0.5210 -0.0456 -1.5845
  797MOL0     H 7554   8.770  10.652   8.927 -1.0404 -0.5145  0.0883
  797MOL0     H 7555   8.557  10.694   8.915 -0.1037 -0.0484 -0.1484
  797MOL0     H 7556   8.253  10.775   8.935 -0.4107  1.2793  1.0949
  797MOL0     H 7557   8.261  10.760   9.101  1.9332  1.6183  1.8753
  797MOL0     H 7558   8.402  10.829   9.010 -0.3842  0.3166  0.6420
  797MOL0     H 7559   7.953  10.205   9.110 -0.9228 -0.0303 -0.9849
  797MOL0     H 7560   7.712  10.168   9.166  2.6704 -0.8568  0.1525
  797MOL0     H 7561   7.450  10.536   9.278 -0.8939  1.1133 -0.8913
  797MOL0     H 7562   7.473  10.505   9.097  1.3008 -1.9627 -0.5539
  797MOL0     H 7563   7.242  10.506   9.161 -0.4921 -0.1330 -0.7619
  797MOL0     H 7564   7.285  10.336   9.120 -0.6459 -1.1885  1.2217
  797MOL0     H 7565   7.228  10.451   9.387  2.0767  0.9846 -1.2429
  797MOL0     H 7566   7.300  10.292   9.374  3.7349  1.9922 -1.5139
  797MOL0     H 7567   7.057  10.375   9.211 -0.2708  1.2729  1.4790
  797MOL0     H 7568   7.120  10.214   9.236  2.7365 -0.1010  1.1504
  797MOL0     H 7569   6.905  10.277   9.375 -0.3300 -1.4176 -1.1711
  797MOL0     H 7570   6.997  10.397   9.460  1.1927 -0.5476  1.0792
  797MOL0     H 7571   7.039  10.103   9.471 -1.8008  1.8859 -3.8891
  797MOL0     H 7572   7.155  10.232   9.521  0.7203 -0.4497 -4.3021
  797MOL0     H 7573   6.871  10.268   9.631 -0.5335 -1.9161 -0.7972
  797MOL0     H 7574   7.034  10.285   9.706 -0.8596  0.1502  0.8116
  797MOL0     H 7575   6.871  10.038   9.657 -0.5190  2.2624 -0.9834
  797MOL0     H 7576   6.896  10.093   9.822  0.4205  0.2364 -0.0229
  797MOL0     H 7577   7.677  10.589   9.205 -0.8017  0.3131 -1.8176
  797MOL0     H 7578   7.908  10.613   9.159 -0.4091  0.1004  0.4712
  797MOL0     H 7579   8.300  10.278   8.997  1.4659 -0.7519 -1.8887
  797MOL0     H 7580   8.536  10.270   8.961 -1.1484 -0.6816 -1.3391
  797MOL0     H 7581  10.369  10.157   8.136  0.8414  0.3839 -0.2033
  797MOL0     H 7582  10.603  10.189   8.104  3.0940  0.8676  0.0303
  797MOL0     H 7583  11.059  10.335   7.966  3.4221 -1.1123 -1.3276
  797MOL0     H 7584  11.273  10.390   7.999  0.8080 -0.9230 -0.0796
  797MOL0     H 7585  11.345  10.639   8.295 -2.6672 -2.0245 -2.1901
  797MOL0     H 7586  11.444  10.535   8.401 -0.1522 -1.6243 -0.5562
  797MOL0     H 7587  11.529  10.679   8.143 -1.4525 -1.5301 -1.1753
  797MOL0     H 7588  11.622  10.548   8.212 -0.8110 -0.4562 -1.2400
  797MOL0     H 7589  11.652  10.689   8.427  2.1268  1.2403 -0.7768
  797MOL0     H 7590  11.551  10.806   8.366  1.2421 -0.5107  4.6235
  797MOL0     H 7591  11.714  10.846   8.168  0.0980  0.5510  1.6664
  797MOL0     H 7592  11.817  10.724   8.234  0.3478  0.7081 -2.0649
  797MOL0     H 7593  11.889  11.038   8.500 -1.1531  1.3735 -0.8689
  797MOL0     H 7594  11.204  10.468   8.416 -0.5195  0.4176  0.7894
  797MOL0     H 7595  10.971  10.424   8.377  0.7509  1.0436 -0.3022
  798MOL0     O 7596  11.107   9.982   0.046  0.5138 -0.1932  0.3312
  798MOL0     C 7597  11.064  10.091   0.018 -0.1975  0.3787 -0.0528
  798MOL0     O 7598  10.948  10.150   0.056  0.4384  0.2996  0.1668
  798MOL0     C 7599  10.852  10.074   0.116 -0.1762  0.1316 -0.0355
  798MOL0     C 7600  10.758  10.155   0.187 -0.0642  0.0875  0.0600
  798MOL0     C 7601  10.660  10.093   0.273 -0.1474 -0.5698  1.1107
  798MOL0     C 7602  10.641   9.960   0.266  0.9424  0.4066  0.6336
  798MOL0     O 7603  10.531   9.903   0.326 -0.4450  0.4689  0.2281
  798MOL0     C 7604  10.413   9.991   0.347 -0.3306 -0.0108 -0.2194
  798MOL0     C 7605  10.284   9.906   0.342 -0.1034  0.8261  0.3502
  798MOL0     C 7606  10.168   9.999   0.355 -0.5815  0.1235  0.3919
  798MOL0     C 7607  10.037   9.920   0.359  0.1572  0.5839 -0.6297
  798MOL0     C 7608   9.915   9.995   0.407  0.2497  1.2557 -0.6706
  798MOL0     C 7609   9.793   9.910   0.390  0.3583  0.3874  0.0106
  798MOL0     C 7610   9.668  10.001   0.393  0.3953  0.1203  0.0289
  798MOL0     C 7611   9.565   9.942   0.473 -0.3265  0.9102 -0.0971
  798MOL0     N 7612   9.449  10.037   0.473  1.1922  0.5527 -0.1711
  798MOL0     C 7613   9.383  10.088   0.359 -0.4018  1.4504 -1.0940
  798MOL0     C 7614   9.279  10.145   0.415  0.1887  0.0398  0.5244
  798MOL0     C 7615   9.175  10.222   0.332  0.3222 -0.1510  0.2960
  798MOL0     C 7616   9.028  10.185   0.345 -0.1565  0.8490  0.4521
  798MOL0     C 7617   8.938  10.229   0.224  0.2866 -0.1538  0.3892
  798MOL0     C 7618   8.790  10.192   0.246  0.2670 -0.1361  0.0279
  798MOL0     O 7619   8.745  10.265   0.361 -0.4033 -0.2145 -0.2670
  798MOL0     C 7620   8.626  10.214   0.413  0.2744 -0.2620 -0.9302
  798MOL0     C 7621   8.597  10.250   0.546  0.1954 -0.2426 -0.4348
  798MOL0     C 7622   8.468  10.229   0.597 -0.1604  0.6469 -0.2257
  798MOL0     C 7623   8.449  10.248   0.746 -0.0584  0.8043 -0.2160
  798MOL0     C 7624   8.361  10.182   0.512 -0.3715  0.3336 -0.6535
  798MOL0     C 7625   8.222  10.173   0.555  0.4040  0.0380  0.2073
  798MOL0     O 7626   8.141  10.095   0.483 -0.0638 -0.4508 -0.0824
  798MOL0     C 7627   8.012  10.116   0.509  0.7636  0.5347  0.7786
  798MOL0     C 7628   7.954  10.021   0.591  0.8744  0.5683  0.2499
  798MOL0     C 7629   7.820  10.034   0.636  0.3556 -0.0809  0.5730
  798MOL0     C 7630   7.746  10.140   0.583  0.0208 -0.7270  0.0368
  798MOL0     O 7631   7.611  10.153   0.625 -0.6950 -0.3093  0.3625
  798MOL0     C 7632   7.514  10.051   0.607 -0.1639  0.2780 -0.5665
  798MOL0     C 7633   7.385  10.087   0.687 -0.0772  0.7854  0.0658
  798MOL0     C 7634   7.294   9.968   0.701  0.4939 -0.3210 -0.8079
  798MOL0     C 7635   7.165  10.006   0.777 -0.5665  0.3403 -0.5414
  798MOL0     C 7636   7.087   9.887   0.824  0.0779  0.1440  0.1094
  798MOL0     C 7637   6.983   9.921   0.918 -0.1650 -0.2205 -0.8080
  798MOL0     C 7638   6.866   9.998   0.843 -0.5199  0.5004  0.8845
  798MOL0     C 7639   6.760  10.039   0.938 -0.2575  0.1038 -0.0367
  798MOL0    Cl 7640   6.827  10.121   1.083 -0.2379 -0.2449 -0.2004
  798MOL0     C 7641   7.808  10.238   0.503  0.4436 -0.1393  0.4407
  798MOL0     C 7642   7.940  10.234   0.468 -0.3564 -0.2381  0.0829
  798MOL0     O 7643   8.185  10.247   0.647 -1.3015 -0.2127  0.5451
  798MOL0     C 7644   8.394  10.149   0.382  0.6921  0.2910  0.4978
  798MOL0     C 7645   8.524  10.158   0.333  0.5719 -0.3252 -0.4624
  798MOL0     N 7646   9.289  10.146   0.548 -0.5725 -0.0987 -0.2773
  798MOL0     N 7647   9.384  10.074   0.587  0.2695  0.6986  0.4233
  798MOL0     C 7648  10.722   9.878   0.192  0.4899 -0.5508 -0.4779
  798MOL0     C 7649  10.828   9.935   0.115 -0.4648  0.5666 -0.1037
  798MOL0     C 7650  11.155  10.175  -0.062  0.2104  0.3411 -1.1066
  798MOL0     C 7651  11.148  10.321  -0.039  0.3968 -0.2854 -0.6090
  798MOL0     C 7652  11.251  10.390  -0.097 -0.2596 -1.0332  0.5690
  798MOL0     C 7653  11.344  10.338  -0.186 -1.1759  0.0848 -0.8150
  798MOL0     O 7654  11.436  10.406  -0.266  0.2416  0.5363 -0.4419
  798MOL0     C 7655  11.469  10.546  -0.226 -0.2888 -0.0693  0.4677
  798MOL0     C 7656  11.541  10.544  -0.089 -0.0227  0.5807  0.4082
  798MOL0     C 7657  11.507  10.670  -0.004  0.1854 -0.6580  0.6773
  798MOL0     C 7658  11.635  10.739   0.054 -0.0853  0.0867  0.6690
  798MOL0     C 7659  11.607  10.853   0.145  0.0052 -1.0866  0.6132
  798MOL0     C 7660  11.564  10.939   0.215  0.1249 -0.1971 -0.0782
  798MOL0     C 7661  11.341  10.202  -0.224 -0.7780  0.1087  0.0413
  798MOL0     C 7662  11.243  10.123  -0.158 -0.2393  0.1430  0.1311
  798MOL0     H 7663  10.768  10.261   0.166  0.8797 -0.1700 -0.8529
  798MOL0     H 7664  10.607  10.164   0.335 -1.2279 -0.3362 -0.0386
  798MOL0     H 7665  10.414  10.045   0.442 -0.1316  0.5802 -0.5517
  798MOL0     H 7666  10.403  10.057   0.260 -4.1559 -1.0844 -0.7839
  798MOL0     H 7667  10.279   9.855   0.246  1.5951 -1.7748  1.5269
  798MOL0     H 7668  10.295   9.830   0.420  1.7483 -0.3259 -0.9476
  798MOL0     H 7669  10.190  10.063   0.441  1.1125 -0.2409  0.2585
  798MOL0     H 7670  10.163  10.067   0.269  2.8270  0.7954  0.5983
  798MOL0     H 7671  10.014   9.882   0.260 -0.8707 -0.7194  0.0769
  798MOL0     H 7672  10.052   9.830   0.419 -0.2357 -0.8065 -2.5198
  798MOL0     H 7673   9.930  10.014   0.514 -0.2770 -1.1289 -0.1320
  798MOL0     H 7674   9.902  10.088   0.351  0.8302  0.3407 -2.3777
  798MOL0     H 7675   9.798   9.865   0.290  1.3730  0.6280 -0.0607
  798MOL0     H 7676   9.798   9.829   0.464  0.3111  0.1446 -0.2488
  798MOL0     H 7677   9.683  10.106   0.422 -2.7542  0.2638  1.4499
  798MOL0     H 7678   9.632  10.002   0.290 -0.0379 -0.7343  0.1657
  798MOL0     H 7679   9.603   9.929   0.575 -2.1567 -3.4198  0.2473
  798MOL0     H 7680   9.530   9.844   0.439 -1.8032  1.5307 -0.4648
  798MOL0     H 7681   9.392  10.064   0.254 -1.8991 -0.1968 -0.8857
  798MOL0     H 7682   9.190  10.324   0.366  0.6463 -0.4083  0.9495
  798MOL0     H 7683   9.202  10.225   0.226 -1.6155 -3.2923 -0.4253
  798MOL0     H 7684   8.988  10.227   0.438 -0.5236  1.9405 -0.1725
  798MOL0     H 7685   9.023  10.076   0.342  1.2038  0.7992 -1.5164
  798MOL0     H 7686   8.971  10.180   0.132 -0.9336  0.8202 -0.6062
  798MOL0     H 7687   8.952  10.336   0.204  1.9288 -0.8499 -2.8076
  798MOL0     H 7688   8.787  10.085   0.270 -1.4698  0.0993  1.0682
  798MOL0     H 7689   8.732  10.218   0.158 -0.2531  2.0755  0.9562
  798MOL0     H 7690   8.674  10.294   0.609 -0.6919  2.3152 -0.9952
  798MOL0     H 7691   8.379  10.328   0.771 -0.0782  0.7839 -0.2009
  798MOL0     H 7692   8.413  10.159   0.800 -0.0922  1.7687  1.4185
  798MOL0     H 7693   8.543  10.274   0.794  0.8831  0.6355 -1.8920
  798MOL0     H 7694   8.004   9.928   0.617  2.4094  1.1006 -0.7377
  798MOL0     H 7695   7.779   9.961   0.705  1.5798  1.0858  2.6539
  798MOL0     H 7696   7.478  10.037   0.505  0.1058 -1.2288 -0.4793
  798MOL0     H 7697   7.549   9.954   0.644 -0.4095  1.7242  4.1796
  798MOL0     H 7698   7.420  10.115   0.787 -1.5654  1.1160  0.5206
  798MOL0     H 7699   7.334  10.173   0.643 -0.8052  0.7647  0.8342
  798MOL0     H 7700   7.341   9.890   0.762 -1.9108 -0.7445  0.6435
  798MOL0     H 7701   7.271   9.923   0.604 -1.4674  0.8447 -0.9459
  798MOL0     H 7702   7.176  10.073   0.862 -3.6115  1.7507 -1.1136
  798MOL0     H 7703   7.097  10.067   0.716 -2.3654 -0.3137  0.7225
  798MOL0     H 7704   7.162   9.828   0.878  0.4699  2.9128  2.8656
  798MOL0     H 7705   7.033   9.832   0.746 -1.6791 -0.5249  1.7049
  798MOL0     H 7706   6.938   9.831   0.961  0.2072  0.6696  1.5513
  798MOL0     H 7707   7.018   9.988   0.996 -2.2876 -0.1423  0.1582
  798MOL0     H 7708   6.822   9.938   0.763  1.7516 -0.2001  0.0790
  798MOL0     H 7709   6.903  10.085   0.788 -4.1895  1.7258  0.0667
  798MOL0     H 7710   6.706   9.956   0.984  1.7549 -1.4134 -0.2614
  798MOL0     H 7711   6.685  10.096   0.884 -1.5541 -0.8051  0.7385
  798MOL0     H 7712   7.750  10.322   0.466 -2.2135 -0.5315  3.3261
  798MOL0     H 7713   7.998  10.303   0.407 -0.7719 -1.5020 -1.8322
  798MOL0     H 7714   8.324  10.104   0.314 -0.2233  2.1504  0.1616
  798MOL0     H 7715   8.532  10.132   0.228  0.9357 -2.7430  0.1085
  798MOL0     H 7716  10.715   9.770   0.193  1.4667 -0.6260 -0.6942
  798MOL0     H 7717  10.876   9.860   0.054 -2.0549 -1.8258  1.4092
  798MOL0     H 7718  11.079  10.377   0.023  2.0485  1.3777 -0.1952
  798MOL0     H 7719  11.254  10.495  -0.070  3.0249 -0.8069 -0.2309
  798MOL0     H 7720  11.533  10.593  -0.301  0.2511  0.1010  1.0280
  798MOL0     H 7721  11.381  10.609  -0.209  0.2503  0.5092  1.1998
  798MOL0     H 7722  11.646  10.541  -0.120 -1.4164  1.0626 -5.7640
  798MOL0     H 7723  11.515  10.457  -0.029  2.0327 -1.2603 -1.2382
  798MOL0     H 7724  11.448  10.640   0.083 -1.0216  1.5855  0.7244
  798MOL0     H 7725  11.457  10.750  -0.060  4.0068  1.7842  0.3740
  798MOL0     H 7726  11.700  10.777  -0.025  0.8517  0.8713  1.7847
  798MOL0     H 7727  11.685  10.660   0.110  0.8167 -0.1199 -0.3987
  798MOL0     H 7728  11.528  11.016   0.280 -0.0540  0.9704 -1.5217
  798MOL0     H 7729  11.404  10.156  -0.300 -0.0888  0.7995  0.1891
  798MOL0     H 7730  11.247  10.014  -0.162 -0.1164 -0.0535  3.3853
  799MOL0     O 7731   0.749   6.325   3.936  0.6671 -0.1082 -0.4308
  799MOL0     C 7732   0.725   6.342   4.052  0.7885 -0.5605 -1.0171
  799MOL0     O 7733   0.603   6.330   4.105 -0.1907  0.3945 -0.1041
  799MOL0     C 7734   0.507   6.289   4.018 -0.6654 -0.2920  0.0035
  799MOL0     C 7735   0.417   6.377   3.962  0.6657 -0.0402 -0.2633
  799MOL0     C 7736   0.314   6.336   3.874  0.9285  0.3669  0.4562
  799MOL0     C 7737   0.308   6.204   3.841  0.3306 -0.6128  0.1883
  799MOL0     O 7738   0.198   6.169   3.767 -0.5495 -0.5889  0.0932
  799MOL0     C 7739   0.150   6.036   3.753 -0.8026 -0.4634  0.4119
  799MOL0     C 7740   0.017   6.044   3.677  0.2719  0.1519 -0.2337
  799MOL0     C 7741  -0.072   5.909   3.676 -0.6912 -0.5237  0.6688
  799MOL0     C 7742  -0.155   5.902   3.554  0.5808  0.3004  0.4153
  799MOL0     C 7743  -0.217   5.766   3.528 -0.0093 -0.8413 -0.7593
  799MOL0     C 7744  -0.349   5.748   3.619  0.5178  0.4791  0.2526
  799MOL0     C 7745  -0.411   5.605   3.632 -0.2757  0.5746 -0.4796
  799MOL0     C 7746  -0.343   5.511   3.734 -0.3340 -0.0132 -0.2312
  799MOL0     N 7747  -0.391   5.374   3.731 -0.1861 -0.5975  0.1094
  799MOL0     C 7748  -0.522   5.337   3.701 -0.1122 -0.4534  0.1878
  799MOL0     C 7749  -0.525   5.200   3.709  0.2677  0.7363  0.3093
  799MOL0     C 7750  -0.642   5.104   3.690  0.1662  0.0367  0.1358
  799MOL0     C 7751  -0.741   5.099   3.804 -0.9065 -0.2093  0.0012
  799MOL0     C 7752  -0.877   5.043   3.769  0.5238 -0.1302 -0.4208
  799MOL0     C 7753  -0.964   5.063   3.888  0.1442  0.0246 -0.1442
  799MOL0     O 7754  -0.910   4.989   4.001  0.0726 -0.1180  0.4676
  799MOL0     C 7755  -0.975   5.002   4.116  0.6066  0.0199 -0.3171
  799MOL0     C 7756  -1.110   5.035   4.126  0.1766  0.0128 -0.0766
  799MOL0     C 7757  -1.173   5.054   4.253 -0.1716 -0.6249  0.6661
  799MOL0     C 7758  -1.325   5.069   4.259  0.0766  0.3877 -0.1470
  799MOL0     C 7759  -1.095   5.057   4.365 -0.0618 -0.0265  0.3514
  799MOL0     C 7760  -1.144   5.090   4.501 -0.0764  0.3967 -1.3564
  799MOL0     O 7761  -1.228   5.192   4.513 -0.5857 -0.0255 -0.0785
  799MOL0     C 7762  -1.310   5.199   4.627 -0.1378  0.6332 -0.4677
  799MOL0     C 7763  -1.446   5.149   4.605 -0.8249  0.1040 -0.5369
  799MOL0     C 7764  -1.526   5.136   4.717 -0.5074 -1.1857 -0.6724
  799MOL0     C 7765  -1.488   5.193   4.844  0.7655 -0.7755  0.1332
  799MOL0     O 7766  -1.570   5.179   4.955  0.8040 -0.1035 -0.4480
  799MOL0     C 7767  -1.521   5.170   5.099  0.3708 -0.1248  0.5998
  799MOL0     C 7768  -1.583   5.037   5.166  0.5154 -0.8581 -0.1715
  799MOL0     C 7769  -1.742   5.031   5.164  0.8253 -0.2562  1.3243
  799MOL0     C 7770  -1.815   5.152   5.229 -0.0461 -0.1526 -0.5782
  799MOL0     C 7771  -1.970   5.149   5.217  0.8983  0.9420 -0.7901
  799MOL0     C 7772  -2.031   5.066   5.326 -0.4235 -0.0194 -0.1807
  799MOL0     C 7773  -2.184   5.056   5.313  0.4972 -0.0372  0.2766
  799MOL0     C 7774  -2.248   4.989   5.431 -0.3477 -0.2997  0.8190
  799MOL0    Cl 7775  -2.427   4.976   5.420  0.3743 -0.3333 -0.1067
  799MOL0     C 7776  -1.364   5.250   4.853 -0.4145  0.1324 -0.0159
  799MOL0     C 7777  -1.268   5.243   4.751  0.9813  0.3567  0.0163
  799MOL0     O 7778  -1.109   5.024   4.593 -0.2429  0.2575 -0.5375
  799MOL0     C 7779  -0.960   5.033   4.361  0.1334  0.4926  0.2596
  799MOL0     C 7780  -0.902   5.007   4.239 -0.1736  0.4998  0.1336
  799MOL0     N 7781  -0.395   5.153   3.735 -0.4183  0.4536  0.2991
  799MOL0     N 7782  -0.315   5.259   3.744  0.2978 -0.1322  0.6375
  799MOL0     C 7783   0.402   6.108   3.891 -0.4771 -0.1361  0.0486
  799MOL0     C 7784   0.501   6.150   3.979 -1.0344 -0.2075  0.3199
  799MOL0     C 7785   0.831   6.387   4.141 -0.3107  0.9368 -0.2998
  799MOL0     C 7786   0.955   6.438   4.080  0.3403  0.0520  0.6425
  799MOL0     C 7787   1.061   6.477   4.155  0.0269 -0.4260  0.3417
  799MOL0     C 7788   1.049   6.480   4.295  0.5378  0.1689 -0.2509
  799MOL0     O 7789   1.148   6.538   4.372 -0.0968 -0.6355  0.4474
  799MOL0     C 7790   1.246   6.630   4.319  0.2345  0.0959  0.9387
  799MOL0     C 7791   1.331   6.686   4.425 -0.5511 -0.6088  0.2254
  799MOL0     C 7792   1.458   6.773   4.391  1.1437  0.3893 -0.1265
  799MOL0     C 7793   1.529   6.813   4.520 -0.0649 -0.4236 -0.5943
  799MOL0     C 7794   1.654   6.893   4.492  0.3208  1.0858 -0.5664
  799MOL0     C 7795   1.751   6.961   4.485  0.0428  0.4739  0.0579
  799MOL0     C 7796   0.931   6.428   4.351 -0.4841 -0.8963  0.8364
  799MOL0     C 7797   0.823   6.381   4.279 -0.3034 -0.4268  0.8145
  799MOL0     H 7798   0.430   6.482   3.985  1.9106 -0.4934  1.2924
  799MOL0     H 7799   0.232   6.400   3.845  0.7771  0.3787  0.9015
  799MOL0     H 7800   0.228   5.975   3.706 -0.5219  1.3801 -1.6224
  799MOL0     H 7801   0.126   5.992   3.851 -1.4759  0.2341  0.5700
  799MOL0     H 7802  -0.044   6.119   3.728 -1.1627  0.4846 -2.3258
  799MOL0     H 7803   0.033   6.074   3.573 -2.2750  2.9941  0.0618
  799MOL0     H 7804  -0.005   5.823   3.666 -0.5687 -0.3473 -0.0989
  799MOL0     H 7805  -0.133   5.907   3.766 -0.5166  1.4593  0.8700
  799MOL0     H 7806  -0.240   5.971   3.563  0.8096  0.7982 -0.9711
  799MOL0     H 7807  -0.095   5.927   3.466 -1.4783  0.3508 -1.0584
  799MOL0     H 7808  -0.250   5.759   3.424 -0.9422 -1.0103 -0.4644
  799MOL0     H 7809  -0.142   5.687   3.538 -0.1781 -0.9459 -0.2656
  799MOL0     H 7810  -0.336   5.781   3.723  0.9812 -0.4765  0.5118
  799MOL0     H 7811  -0.421   5.819   3.577  1.7804  0.3892 -2.2478
  799MOL0     H 7812  -0.517   5.615   3.659  0.0285 -2.5061  2.4195
  799MOL0     H 7813  -0.418   5.560   3.532  2.3701 -1.5483  0.1847
  799MOL0     H 7814  -0.346   5.550   3.836  0.3136 -1.6053  0.4238
  799MOL0     H 7815  -0.236   5.510   3.708 -0.6997  2.7982 -2.3481
  799MOL0     H 7816  -0.597   5.405   3.662  0.1355 -1.7890 -2.9468
  799MOL0     H 7817  -0.699   5.144   3.605  1.3347 -1.1419 -1.2774
  799MOL0     H 7818  -0.618   4.999   3.669 -2.3401 -0.9309  1.7450
  799MOL0     H 7819  -0.752   5.204   3.833  1.8466 -0.1899  1.2888
  799MOL0     H 7820  -0.698   5.034   3.881  0.3117  3.4732  2.6702
  799MOL0     H 7821  -0.876   4.935   3.747  0.0702  0.1040 -1.6684
  799MOL0     H 7822  -0.923   5.094   3.684 -1.5910  2.2657  1.9865
  799MOL0     H 7823  -1.066   5.041   3.857  0.8533 -0.6345 -2.1810
  799MOL0     H 7824  -0.956   5.169   3.915  1.0881  0.6564 -2.6429
  799MOL0     H 7825  -1.187   5.016   4.052 -1.0323 -2.2299  1.6135
  799MOL0     H 7826  -1.353   5.007   4.344 -1.9512 -0.1003 -1.1103
  799MOL0     H 7827  -1.372   5.164   4.285 -4.3031 -1.3407 -0.9692
  799MOL0     H 7828  -1.374   5.037   4.166  1.4196 -0.5739 -0.5551
  799MOL0     H 7829  -1.472   5.105   4.510 -0.8414  1.5540 -1.2237
  799MOL0     H 7830  -1.615   5.077   4.700 -0.8777 -0.5918 -0.8398
  799MOL0     H 7831  -1.411   5.167   5.097  0.3389 -1.5627 -0.3403
  799MOL0     H 7832  -1.552   5.260   5.153 -2.0773  0.3671 -1.4440
  799MOL0     H 7833  -1.533   4.947   5.130  1.4262 -0.8754  1.0815
  799MOL0     H 7834  -1.555   5.044   5.271  0.2561  0.8846 -0.1943
  799MOL0     H 7835  -1.769   4.937   5.215 -0.2975 -0.8170 -0.2449
  799MOL0     H 7836  -1.774   5.019   5.060  1.4025 -1.0008  1.2242
  799MOL0     H 7837  -1.782   5.145   5.333 -0.5659 -2.3246 -0.5004
  799MOL0     H 7838  -1.776   5.242   5.182  3.5158 -1.3272 -0.1913
  799MOL0     H 7839  -2.001   5.113   5.118  1.1465  1.2850 -0.9959
  799MOL0     H 7840  -2.010   5.251   5.217 -0.9699  0.2653 -1.9713
  799MOL0     H 7841  -1.990   4.965   5.331  3.8919  1.5557  0.2588
  799MOL0     H 7842  -2.000   5.122   5.414  1.1994 -0.5022 -0.4105
  799MOL0     H 7843  -2.206   5.003   5.220 -1.4107  0.3694  0.4581
  799MOL0     H 7844  -2.221   5.158   5.299 -1.3626 -0.9393 -2.0661
  799MOL0     H 7845  -2.225   5.039   5.525  2.1889  0.3684 -0.0636
  799MOL0     H 7846  -2.216   4.884   5.439  1.2811  0.1729  0.9206
  799MOL0     H 7847  -1.348   5.300   4.948 -2.3680 -0.5137  0.7043
  799MOL0     H 7848  -1.168   5.278   4.775  0.0053  0.9244  4.0614
  799MOL0     H 7849  -0.902   5.049   4.451 -2.5443  2.9663  1.6739
  799MOL0     H 7850  -0.796   4.989   4.228 -0.4196 -1.1590  0.3341
  799MOL0     H 7851   0.399   6.004   3.863 -0.9732 -0.7418  2.1699
  799MOL0     H 7852   0.582   6.087   4.015  1.3021  3.0305  1.2260
  799MOL0     H 7853   0.961   6.461   3.974 -1.6444  2.5437  0.9765
  799MOL0     H 7854   1.147   6.520   4.105 -1.5340  1.4918 -0.8210
  799MOL0     H 7855   1.304   6.579   4.242 -1.6845  3.3964 -3.0664
  799MOL0     H 7856   1.191   6.708   4.265 -1.5210 -2.4037 -1.1581
  799MOL0     H 7857   1.362   6.594   4.474 -2.3099 -0.6529  1.3502
  799MOL0     H 7858   1.271   6.744   4.496  0.1111  0.3479  0.0228
  799MOL0     H 7859   1.428   6.869   4.349  0.8793  1.4068  2.2420
  799MOL0     H 7860   1.521   6.725   4.315 -2.5517 -0.6319 -2.8464
  799MOL0     H 7861   1.550   6.722   4.577 -0.8261 -0.1535  0.1442
  799MOL0     H 7862   1.462   6.883   4.571 -0.9829 -0.7529 -1.3242
  799MOL0     H 7863   1.845   7.010   4.472  0.9249 -1.3553 -0.8167
  799MOL0     H 7864   0.927   6.422   4.459  1.6787 -2.2608  0.8995
  799MOL0     H 7865   0.736   6.339   4.328  0.4396 -1.8022  0.9941
  800MOL0     O 7866   1.116   3.172   5.593  0.6981 -0.1493  1.1473
  800MOL0     C 7867   1.108   3.257   5.503  0.1406 -0.4843 -0.9335
  800MOL0     O 7868   0.997   3.315   5.452  0.1966 -0.5810 -0.1303
  800MOL0     C 7869   0.879   3.303   5.515 -0.4999 -0.6095 -0.9414
  800MOL0     C 7870   0.828   3.414   5.580  0.0089 -0.7935 -0.4797
  800MOL0     C 7871   0.728   3.388   5.677 -0.3656 -0.5887 -0.4344
  800MOL0     C 7872   0.663   3.267   5.695 -0.5113  0.7269  0.7081
  800MOL0     O 7873   0.550   3.248   5.774  0.4400  0.1499  0.2351
  800MOL0     C 7874   0.449   3.354   5.745 -1.1613 -0.4236  1.0546
  800MOL0     C 7875   0.316   3.297   5.765  0.5386 -0.3086  0.5731
  800MOL0     C 7876   0.199   3.390   5.797  0.3328 -0.5997 -0.2753
  800MOL0     C 7877   0.060   3.331   5.769  0.1888  0.8029  0.6031
  800MOL0     C 7878   0.031   3.321   5.614  0.5685 -0.3078 -0.6244
  800MOL0     C 7879  -0.111   3.267   5.611  0.3502 -0.6180  0.3953
  800MOL0     C 7880  -0.157   3.264   5.469 -0.1482  0.1218  0.3512
  800MOL0     C 7881  -0.205   3.405   5.414  0.5634  0.3998  0.0948
  800MOL0     N 7882  -0.224   3.389   5.269  0.0657  0.3602 -0.1131
  800MOL0     C 7883  -0.321   3.317   5.206  0.3499  0.7745 -0.6472
  800MOL0     C 7884  -0.292   3.312   5.067 -0.5537 -0.6063 -1.3215
  800MOL0     C 7885  -0.372   3.251   4.960  0.4999 -0.9942 -0.1889
  800MOL0     C 7886  -0.492   3.335   4.946 -0.3748  0.5069 -0.1689
  800MOL0     C 7887  -0.564   3.283   4.813  0.0849  0.1509 -0.6422
  800MOL0     C 7888  -0.676   3.372   4.782  1.0334  0.1433 -0.0278
  800MOL0     O 7889  -0.782   3.366   4.884  0.6958  0.2038 -0.1707
  800MOL0     C 7890  -0.877   3.270   4.869  0.0056 -0.3507  0.2415
  800MOL0     C 7891  -0.903   3.195   4.755  0.0222  0.1082 -0.2205
  800MOL0     C 7892  -1.001   3.101   4.747 -0.9112  1.0654  0.3757
  800MOL0     C 7893  -1.011   3.022   4.616 -0.6504 -0.2119  0.9375
  800MOL0     C 7894  -1.076   3.062   4.865 -0.2485 -0.5411  0.8977
  800MOL0     C 7895  -1.180   2.966   4.874 -0.5345  0.1443 -0.5494
  800MOL0     O 7896  -1.250   2.930   4.764  0.5816 -0.7426  0.6502
  800MOL0     C 7897  -1.324   2.815   4.756  0.0443  0.1216  0.6447
  800MOL0     C 7898  -1.271   2.712   4.679  0.8496 -0.6845 -0.3692
  800MOL0     C 7899  -1.347   2.599   4.652 -0.2056 -0.2693 -0.2342
  800MOL0     C 7900  -1.476   2.582   4.712 -0.3616  0.7432  0.3771
  800MOL0     O 7901  -1.551   2.464   4.696  0.1360  0.3956 -0.3899
  800MOL0     C 7902  -1.525   2.381   4.584  0.2932  0.4067  0.8206
  800MOL0     C 7903  -1.628   2.266   4.608 -0.1095  0.4868  0.3031
  800MOL0     C 7904  -1.570   2.144   4.540  0.3632  0.0872 -0.4069
  800MOL0     C 7905  -1.689   2.048   4.495 -0.9314  0.2222 -0.3253
  800MOL0     C 7906  -1.631   1.917   4.442 -0.9988 -0.0239  1.1346
  800MOL0     C 7907  -1.530   1.927   4.321 -0.0877  0.3315  0.5329
  800MOL0     C 7908  -1.587   1.975   4.183 -0.0577  0.8349  0.3990
  800MOL0     C 7909  -1.723   1.910   4.139 -0.0301 -0.4225  0.5751
  800MOL0    Cl 7910  -1.731   1.731   4.180 -0.0111 -0.2198 -0.1399
  800MOL0     C 7911  -1.523   2.685   4.804 -0.0286  0.6361 -0.6708
  800MOL0     C 7912  -1.445   2.798   4.816  0.2472 -0.2570 -0.0289
  800MOL0     O 7913  -1.198   2.917   4.985  0.3634 -1.0945  0.1587
  800MOL0     C 7914  -1.056   3.144   4.978 -0.6390  0.6436 -0.0625
  800MOL0     C 7915  -0.960   3.245   4.974 -0.2797 -0.2186  0.1495
  800MOL0     N 7916  -0.172   3.379   5.060 -0.0880 -0.3688 -0.2418
  800MOL0     N 7917  -0.134   3.416   5.176 -0.1163 -0.2394 -0.0157
  800MOL0     C 7918   0.714   3.163   5.618  0.2981  0.9283 -1.1104
  800MOL0     C 7919   0.829   3.176   5.534  1.0805  0.0286 -0.7568
  800MOL0     C 7920   1.233   3.301   5.445  0.2350 -0.5858  0.6262
  800MOL0     C 7921   1.354   3.243   5.476  0.2590  0.3708 -0.5594
  800MOL0     C 7922   1.476   3.279   5.417  0.6322 -0.2444 -0.1435
  800MOL0     C 7923   1.478   3.388   5.331  0.3603 -0.1879  1.2825
  800MOL0     O 7924   1.589   3.428   5.264  0.8769  0.6446 -1.3551
  800MOL0     C 7925   1.690   3.335   5.231 -0.7237  0.1529 -0.2409
  800MOL0     C 7926   1.642   3.227   5.134  0.2008  0.1613 -0.4170
  800MOL0     C 7927   1.746   3.122   5.125  0.2485 -0.6328 -0.2551
  800MOL0     C 7928   1.693   3.016   5.028  0.3713  0.0431  0.6186
  800MOL0     C 7929   1.682   3.064   4.887  0.1739  0.0177  0.1236
  800MOL0     C 7930   1.671   3.087   4.772  0.1903 -1.0043  0.0895
  800MOL0     C 7931   1.361   3.463   5.303  0.0465  0.0892  0.5766
  800MOL0     C 7932   1.246   3.419   5.364  0.3599 -0.0056  0.2822
  800MOL0     H 7933   0.887   3.505   5.590 -0.4986 -0.7306  3.7554
  800MOL0     H 7934   0.698   3.478   5.729 -0.6338 -0.0502 -1.4753
  800MOL0     H 7935   0.477   3.436   5.812  0.1818  1.1563 -1.2925
  800MOL0     H 7936   0.457   3.394   5.644 -0.5676 -0.1815  1.1963
  800MOL0     H 7937   0.290   3.246   5.671  0.0561  0.4564  0.2771
  800MOL0     H 7938   0.316   3.230   5.851 -2.1752 -0.5407  0.4704
  800MOL0     H 7939   0.204   3.413   5.903  0.4649  1.3951 -0.6795
  800MOL0     H 7940   0.204   3.488   5.748  0.1849  0.3381  1.4963
  800MOL0     H 7941   0.053   3.235   5.822 -0.6570  1.4576  1.7295
  800MOL0     H 7942  -0.016   3.397   5.812  0.2783  1.0935  0.3151
  800MOL0     H 7943   0.037   3.420   5.568 -0.4930 -0.2288 -0.6128
  800MOL0     H 7944   0.108   3.256   5.571  0.7790 -0.8076  0.4941
  800MOL0     H 7945  -0.122   3.167   5.654  0.5105 -0.7250  0.1883
  800MOL0     H 7946  -0.181   3.333   5.662  2.9852  1.4558  1.5715
  800MOL0     H 7947  -0.079   3.225   5.403 -0.4677  2.8895 -1.8146
  800MOL0     H 7948  -0.241   3.195   5.467 -0.1595  0.1113  1.0199
  800MOL0     H 7949  -0.138   3.487   5.442 -0.6946  0.7273  2.4084
  800MOL0     H 7950  -0.300   3.438   5.458  0.5295  0.6352 -0.1486
  800MOL0     H 7951  -0.394   3.263   5.266  2.2270 -1.0002  0.1672
  800MOL0     H 7952  -0.309   3.252   4.871 -1.2715  2.4417 -1.6024
  800MOL0     H 7953  -0.412   3.153   4.988  0.3407 -1.0470 -0.6099
  800MOL0     H 7954  -0.457   3.438   4.942 -0.1008  0.4512  0.6530
  800MOL0     H 7955  -0.553   3.322   5.036 -1.8078 -1.7868 -1.3680
  800MOL0     H 7956  -0.595   3.179   4.832  2.1271 -0.5430 -0.8422
  800MOL0     H 7957  -0.498   3.285   4.726 -0.5097 -1.4099 -1.1669
  800MOL0     H 7958  -0.713   3.350   4.682 -2.3847 -0.4691  1.2327
  800MOL0     H 7959  -0.639   3.475   4.776  2.0614 -0.1149  1.1800
  800MOL0     H 7960  -0.848   3.220   4.664  2.1301 -0.3483  0.8544
  800MOL0     H 7961  -1.108   3.041   4.567  0.6953  0.1860 -1.7795
  800MOL0     H 7962  -0.936   3.051   4.542 -0.7627 -1.0638  0.4718
  800MOL0     H 7963  -1.003   2.916   4.641 -2.0943 -1.0419 -1.6223
  800MOL0     H 7964  -1.170   2.733   4.645  0.4169  0.3737 -1.0495
  800MOL0     H 7965  -1.301   2.525   4.588 -3.0545 -0.9967 -1.5611
  800MOL0     H 7966  -1.556   2.431   4.491  0.4113  0.1297  0.6297
  800MOL0     H 7967  -1.420   2.350   4.577  0.5795  1.2175  1.3449
  800MOL0     H 7968  -1.636   2.225   4.709  2.2443 -2.8547 -0.6792
  800MOL0     H 7969  -1.726   2.294   4.568 -1.4944 -3.2304  0.6609
  800MOL0     H 7970  -1.498   2.091   4.602 -0.3262 -1.8579 -1.2030
  800MOL0     H 7971  -1.510   2.177   4.455 -0.6025 -0.7625 -1.4431
  800MOL0     H 7972  -1.752   2.027   4.583 -1.7423  0.7087 -0.7785
  800MOL0     H 7973  -1.754   2.086   4.415 -4.0873 -2.1972  0.8422
  800MOL0     H 7974  -1.711   1.847   4.416  0.6673 -1.1254 -1.5227
  800MOL0     H 7975  -1.577   1.868   4.523 -0.4720 -0.5540  0.4782
  800MOL0     H 7976  -1.442   1.985   4.350  1.7562 -0.2796 -3.1485
  800MOL0     H 7977  -1.488   1.826   4.316 -0.3695  0.0630  2.6176
  800MOL0     H 7978  -1.512   1.964   4.103 -2.8712 -0.7239 -2.2268
  800MOL0     H 7979  -1.603   2.083   4.189  2.7088  1.2837  1.0038
  800MOL0     H 7980  -1.740   1.913   4.030  3.3737  0.4264 -0.0631
  800MOL0     H 7981  -1.801   1.968   4.189 -0.4842 -1.1977  0.7698
  800MOL0     H 7982  -1.626   2.679   4.837 -0.1652  0.0564 -1.1757
  800MOL0     H 7983  -1.499   2.873   4.873  0.5683 -0.8471  1.1042
  800MOL0     H 7984  -1.112   3.145   5.071  0.7207  0.1333  0.7905
  800MOL0     H 7985  -0.941   3.297   5.067  3.1207 -2.1764  0.7384
  800MOL0     H 7986   0.671   3.068   5.649  0.3980 -0.0696 -3.7185
  800MOL0     H 7987   0.863   3.083   5.490 -0.5326 -1.2664  0.5533
  800MOL0     H 7988   1.355   3.157   5.543  1.1945 -0.5667 -1.7199
  800MOL0     H 7989   1.560   3.211   5.428 -1.2328 -2.9142 -1.1214
  800MOL0     H 7990   1.780   3.385   5.193 -0.6711 -1.0366 -1.7809
  800MOL0     H 7991   1.729   3.280   5.317  0.5538 -1.8058 -1.9674
  800MOL0     H 7992   1.630   3.282   5.040 -3.8462 -1.2676 -0.9565
  800MOL0     H 7993   1.546   3.176   5.144  0.7638 -1.0198 -0.8410
  800MOL0     H 7994   1.761   3.068   5.219  0.2028  0.4171  0.3672
  800MOL0     H 7995   1.836   3.170   5.086  0.0313 -0.2667 -0.3165
  800MOL0     H 7996   1.596   2.978   5.062  1.0828 -1.4322  1.0916
  800MOL0     H 7997   1.764   2.933   5.035  1.7994  1.3391  2.3687
  800MOL0     H 7998   1.659   3.102   4.666 -0.1984 -0.5059  0.1990
  800MOL0     H 7999   1.353   3.548   5.236  1.9352 -0.3145 -0.2230
  800MOL0     H 8000   1.155   3.469   5.333  1.5852  0.2933 -3.1967
  801MOL0     O 8001   2.460   7.765   5.213 -0.3622 -0.1563  1.0570
  801MOL0     C 8002   2.399   7.868   5.243  1.1902  0.1151  0.6579
  801MOL0     O 8003   2.262   7.871   5.285  0.1355 -0.4427 -0.3460
  801MOL0     C 8004   2.205   7.757   5.310 -0.3097 -0.2972 -0.6143
  801MOL0     C 8005   2.132   7.743   5.437 -0.5057 -0.6524  0.8820
  801MOL0     C 8006   2.069   7.629   5.468  0.1808 -0.2799 -0.6276
  801MOL0     C 8007   2.075   7.523   5.375  0.3094  0.2882 -0.7171
  801MOL0     O 8008   2.014   7.404   5.418  0.2587  0.0876  0.0714
  801MOL0     C 8009   1.979   7.308   5.312 -0.5159 -0.6533 -0.0057
  801MOL0     C 8010   1.873   7.366   5.214 -0.7886  0.5095 -0.0978
  801MOL0     C 8011   1.779   7.256   5.165  0.3718  0.1618 -0.2851
  801MOL0     C 8012   1.687   7.323   5.059  0.6360  1.0341  0.0415
  801MOL0     C 8013   1.596   7.211   5.003 -0.0265  0.5597  0.1902
  801MOL0     C 8014   1.670   7.095   4.935  0.6522  0.1825 -0.1558
  801MOL0     C 8015   1.578   7.023   4.841  0.1394 -0.2229  0.6978
  801MOL0     C 8016   1.470   6.939   4.908  1.0869  0.3983 -0.4830
  801MOL0     N 8017   1.365   6.895   4.813 -0.1339 -0.6493  1.2993
  801MOL0     C 8018   1.260   6.971   4.786  0.1826  0.7963 -0.3675
  801MOL0     C 8019   1.168   6.879   4.738  1.5352 -0.0242  0.6133
  801MOL0     C 8020   1.021   6.913   4.687 -0.7556 -0.2653 -0.1229
  801MOL0     C 8021   0.977   6.810   4.580 -0.0170 -0.0520 -0.5200
  801MOL0     C 8022   0.833   6.858   4.540 -0.3162 -0.6135  1.0776
  801MOL0     C 8023   0.719   6.820   4.632 -0.2470  0.3443 -0.0134
  801MOL0     O 8024   0.603   6.864   4.558 -0.3165  0.3330 -0.7018
  801MOL0     C 8025   0.501   6.770   4.559  0.4196 -0.4175  0.5073
  801MOL0     C 8026   0.495   6.671   4.461  0.8632  0.0771 -0.4915
  801MOL0     C 8027   0.387   6.591   4.432  0.3728  0.1136 -0.2316
  801MOL0     C 8028   0.398   6.480   4.329 -0.5002  0.2165  0.4758
  801MOL0     C 8029   0.270   6.615   4.513 -0.6364 -0.3129  0.7911
  801MOL0     C 8030   0.148   6.534   4.492  0.4260  0.2144 -0.3870
  801MOL0     O 8031   0.057   6.522   4.587 -0.2426 -0.5480  0.0208
  801MOL0     C 8032  -0.055   6.450   4.564  0.4074  0.3045 -0.8682
  801MOL0     C 8033  -0.063   6.312   4.562 -0.0187 -0.2728 -0.2594
  801MOL0     C 8034  -0.182   6.243   4.534  0.5366  1.4803  0.5529
  801MOL0     C 8035  -0.302   6.315   4.518  0.0752 -0.0615  0.2673
  801MOL0     O 8036  -0.428   6.252   4.509 -1.0459  0.4928  0.1546
  801MOL0     C 8037  -0.534   6.319   4.551  0.2373 -0.6746 -0.0465
  801MOL0     C 8038  -0.657   6.233   4.544 -0.3291  0.1688  1.0927
  801MOL0     C 8039  -0.770   6.287   4.629  0.4668  0.3008  0.9053
  801MOL0     C 8040  -0.857   6.405   4.577  0.2561 -0.0313 -0.4021
  801MOL0     C 8041  -0.960   6.448   4.681  0.2198  0.8282 -0.8223
  801MOL0     C 8042  -1.018   6.580   4.640  1.0877 -0.2282  0.6457
  801MOL0     C 8043  -1.107   6.649   4.753  0.1416  0.3637 -0.5528
  801MOL0     C 8044  -1.254   6.647   4.714  0.8695 -0.5476  0.7569
  801MOL0    Cl 8045  -1.375   6.732   4.815 -0.0285  0.0030  0.4533
  801MOL0     C 8046  -0.299   6.462   4.517 -0.3062 -1.1270 -1.2062
  801MOL0     C 8047  -0.175   6.524   4.542  0.4682  0.0013  0.6422
  801MOL0     O 8048   0.124   6.502   4.377 -0.2675 -0.1126  0.6021
  801MOL0     C 8049   0.276   6.712   4.617  0.5156 -1.1937  0.4004
  801MOL0     C 8050   0.389   6.789   4.640  0.2625  0.2657 -0.7722
  801MOL0     N 8051   1.215   6.755   4.755  0.8462 -0.2265  0.0881
  801MOL0     N 8052   1.337   6.766   4.793 -0.5291 -0.1208 -0.2964
  801MOL0     C 8053   2.131   7.542   5.246  0.2220 -0.3630  0.4036
  801MOL0     C 8054   2.189   7.666   5.213 -0.8257  0.5775 -0.2600
  801MOL0     C 8055   2.454   8.005   5.221 -0.0193 -0.5417  0.0101
  801MOL0     C 8056   2.389   8.122   5.265 -0.5455 -0.4985  0.2055
  801MOL0     C 8057   2.455   8.253   5.271  0.4809  0.6648 -0.3757
  801MOL0     C 8058   2.585   8.264   5.221  0.4344  0.2854 -0.5059
  801MOL0     O 8059   2.627   8.393   5.213  0.3193  0.4177  0.3056
  801MOL0     C 8060   2.772   8.406   5.216  0.0281  0.1932 -0.1542
  801MOL0     C 8061   2.815   8.548   5.220 -0.7306  0.1661 -0.4492
  801MOL0     C 8062   2.758   8.617   5.348  0.4401  0.5337  0.1943
  801MOL0     C 8063   2.841   8.730   5.407  0.2704  0.3656 -1.1551
  801MOL0     C 8064   2.844   8.856   5.323  0.1461  1.1845 -0.1708
  801MOL0     C 8065   2.854   8.947   5.252 -0.1360 -0.4825 -1.4383
  801MOL0     C 8066   2.649   8.146   5.175  0.1472 -0.3714 -0.0185
  801MOL0     C 8067   2.581   8.023   5.168 -0.8282  0.6817 -0.0369
  801MOL0     H 8068   2.120   7.821   5.512 -0.0165 -0.2818  0.5871
  801MOL0     H 8069   2.011   7.612   5.559  0.5626 -0.1630 -0.3590
  801MOL0     H 8070   2.066   7.281   5.253 -1.7187 -0.3611 -1.9952
  801MOL0     H 8071   1.950   7.218   5.367  2.9526 -3.4972 -2.4052
  801MOL0     H 8072   1.821   7.451   5.261  0.8693  0.1799  2.5158
  801MOL0     H 8073   1.922   7.405   5.125  1.2098 -0.0119  0.7241
  801MOL0     H 8074   1.832   7.171   5.119  2.2372  0.2636  1.5228
  801MOL0     H 8075   1.727   7.209   5.249  0.0183 -0.5674 -0.8912
  801MOL0     H 8076   1.623   7.397   5.107  0.8435  1.0343  0.3198
  801MOL0     H 8077   1.746   7.375   4.983  0.1816  1.1403 -0.2402
  801MOL0     H 8078   1.517   7.186   5.074 -0.9650  4.4134  0.7331
  801MOL0     H 8079   1.538   7.260   4.925  2.0236  1.7425 -0.6784
  801MOL0     H 8080   1.753   7.141   4.879 -0.6185  0.4796 -1.8630
  801MOL0     H 8081   1.714   7.019   5.001  1.3195  2.2766  1.9660
  801MOL0     H 8082   1.519   7.092   4.781  1.3137 -0.7352 -1.1404
  801MOL0     H 8083   1.642   6.962   4.776 -1.7080 -2.5495  0.9404
  801MOL0     H 8084   1.423   6.992   4.991 -1.2507 -1.1754 -0.7067
  801MOL0     H 8085   1.511   6.848   4.952 -2.0582  0.5405  3.2270
  801MOL0     H 8086   1.268   7.078   4.800 -1.6701  1.0119 -0.6993
  801MOL0     H 8087   0.953   6.918   4.773  0.9631 -1.4274  1.3634
  801MOL0     H 8088   1.023   7.011   4.640  0.7143  0.1042  0.6490
  801MOL0     H 8089   0.989   6.708   4.618  0.4679  0.6573  1.3823
  801MOL0     H 8090   1.037   6.815   4.489 -2.2526 -3.2446 -2.3303
  801MOL0     H 8091   0.816   6.828   4.436  1.0323  2.6523 -0.2054
  801MOL0     H 8092   0.828   6.967   4.536  1.4480 -0.5326 -0.5406
  801MOL0     H 8093   0.720   6.876   4.726  0.5753 -1.5744  1.1903
  801MOL0     H 8094   0.716   6.716   4.665 -3.5595 -0.0346 -1.1158
  801MOL0     H 8095   0.580   6.655   4.394 -0.2336 -0.8733 -1.7087
  801MOL0     H 8096   0.370   6.383   4.373 -2.0923  0.9261  1.1310
  801MOL0     H 8097   0.330   6.496   4.245  1.3974 -0.6921 -1.3174
  801MOL0     H 8098   0.499   6.471   4.290 -0.5786  3.0416 -0.5801
  801MOL0     H 8099   0.028   6.256   4.583 -0.8021 -1.2189  0.7572
  801MOL0     H 8100  -0.189   6.135   4.527 -0.1765  1.5134  0.6942
  801MOL0     H 8101  -0.512   6.361   4.649 -0.5626 -0.8107  0.1925
  801MOL0     H 8102  -0.567   6.399   4.484  0.3506  0.4103  1.1641
  801MOL0     H 8103  -0.696   6.232   4.441  2.0923  0.6585  0.1118
  801MOL0     H 8104  -0.632   6.131   4.575 -2.5193 -0.8296 -0.1442
  801MOL0     H 8105  -0.733   6.323   4.725 -5.4336  0.8135  3.4201
  801MOL0     H 8106  -0.834   6.201   4.648 -2.2788  1.8566 -0.6706
  801MOL0     H 8107  -0.798   6.490   4.541  1.4404 -1.2447 -1.4078
  801MOL0     H 8108  -0.914   6.367   4.491  0.4665 -1.9095  0.2509
  801MOL0     H 8109  -0.920   6.463   4.782 -3.5969 -1.7748  1.3343
  801MOL0     H 8110  -1.035   6.369   4.690 -0.4400  1.5153 -0.0510
  801MOL0     H 8111  -0.938   6.650   4.617 -0.1391  1.4309  1.2193
  801MOL0     H 8112  -1.080   6.560   4.553  0.9802 -0.3785  0.7553
  801MOL0     H 8113  -1.095   6.758   4.762  2.0476  0.0702  1.2070
  801MOL0     H 8114  -1.091   6.596   4.847 -0.3255  0.3297 -0.4891
  801MOL0     H 8115  -1.293   6.546   4.700 -1.0280 -0.3674  3.7224
  801MOL0     H 8116  -1.258   6.694   4.615  3.1433  1.2261  1.4345
  801MOL0     H 8117  -0.385   6.523   4.490 -1.0990 -0.8539  1.6140
  801MOL0     H 8118  -0.175   6.632   4.535  0.3491  0.1520  2.4188
  801MOL0     H 8119   0.195   6.718   4.690  0.6012 -1.9859  0.5732
  801MOL0     H 8120   0.396   6.869   4.713  0.1016  0.3026 -0.7973
  801MOL0     H 8121   2.140   7.467   5.168  1.5542  0.4781 -0.2889
  801MOL0     H 8122   2.234   7.682   5.116 -1.6557 -0.9773 -0.9385
  801MOL0     H 8123   2.290   8.118   5.310  0.5931 -0.3826  2.9204
  801MOL0     H 8124   2.399   8.332   5.320  1.5164  1.0617  0.2002
  801MOL0     H 8125   2.802   8.338   5.297 -4.1329 -1.6945  0.0870
  801MOL0     H 8126   2.810   8.367   5.121  0.4595  2.5668 -1.0125
  801MOL0     H 8127   2.799   8.605   5.127  2.3425  1.8933 -0.0819
  801MOL0     H 8128   2.924   8.544   5.234 -0.6343  2.5187 -0.0822
  801MOL0     H 8129   2.739   8.537   5.420 -0.8706  0.9645  0.3557
  801MOL0     H 8130   2.657   8.654   5.327 -0.6852 -2.1956  0.3298
  801MOL0     H 8131   2.945   8.700   5.417  0.6284  1.7729 -0.4520
  801MOL0     H 8132   2.799   8.760   5.503 -0.9132  2.9723 -2.3847
  801MOL0     H 8133   2.863   9.048   5.219 -1.0000  0.3051  0.5966
  801MOL0     H 8134   2.750   8.153   5.136 -0.2918 -1.0255 -1.3495
  801MOL0     H 8135   2.645   7.943   5.134  0.7771  2.2891 -0.9555
  802MOL0     O 8136   8.443   9.393  11.123 -0.5842  0.1101 -0.1619
  802MOL0     C 8137   8.510   9.495  11.155 -0.2269 -0.7099  0.1040
  802MOL0     O 8138   8.466   9.617  11.185 -0.4371  0.3876 -0.1999
  802MOL0     C 8139   8.331   9.630  11.182  0.2941  0.2440  0.3103
  802MOL0     C 8140   8.280   9.715  11.087  0.1451  0.4846 -0.0590
  802MOL0     C 8141   8.143   9.742  11.091  0.5599  0.1697 -0.0229
  802MOL0     C 8142   8.059   9.675  11.183  0.1547 -0.2242  0.1268
  802MOL0     O 8143   7.932   9.715  11.168 -0.4835 -0.0087 -0.5693
  802MOL0     C 8144   7.830   9.627  11.223 -0.9395  0.4203  0.8069
  802MOL0     C 8145   7.702   9.660  11.151  1.0585  0.1726 -0.3882
  802MOL0     C 8146   7.581   9.589  11.225  0.5562  0.4695  0.4371
  802MOL0     C 8147   7.455   9.643  11.161 -0.8238  0.2190 -0.4062
  802MOL0     C 8148   7.326   9.597  11.236  0.9554 -0.2410  0.1149
  802MOL0     C 8149   7.202   9.619  11.145  0.1604 -0.5130  1.0340
  802MOL0     C 8150   7.073   9.581  11.217 -0.1942  0.0220  0.7778
  802MOL0     C 8151   6.939   9.619  11.144  0.2177  0.1187  0.2506
  802MOL0     N 8152   6.822   9.651  11.227 -0.4215  0.3092 -1.4605
  802MOL0     C 8153   6.703   9.586  11.214  0.3821  0.8855 -0.6622
  802MOL0     C 8154   6.619   9.654  11.290  0.3908  0.0745 -0.6112
  802MOL0     C 8155   6.471   9.618  11.312 -0.1983 -0.4306 -0.0672
  802MOL0     C 8156   6.403   9.554  11.183  0.8382  0.4636  0.7943
  802MOL0     C 8157   6.253   9.525  11.206  0.2698 -0.0180  0.0728
  802MOL0     C 8158   6.185   9.463  11.073 -0.1181 -1.0029  0.6563
  802MOL0     O 8159   6.060   9.407  11.101 -0.4733  0.6182  0.1863
  802MOL0     C 8160   6.000   9.341  10.993  0.4673 -0.0030 -0.9712
  802MOL0     C 8161   5.979   9.202  11.003  0.3207  0.5080 -0.8324
  802MOL0     C 8162   5.936   9.122  10.889  0.2780 -0.1347  0.1048
  802MOL0     C 8163   5.939   8.975  10.906 -0.5141 -0.0730  0.4027
  802MOL0     C 8164   5.912   9.189  10.771 -0.5269 -0.1723  0.5979
  802MOL0     C 8165   5.877   9.122  10.640 -0.4399 -0.7073 -0.5416
  802MOL0     O 8166   5.835   9.205  10.537  0.1092  0.1538 -0.1536
  802MOL0     C 8167   5.854   9.152  10.409  0.5350  0.1187 -0.2807
  802MOL0     C 8168   5.974   9.096  10.364 -0.0406 -0.4243 -0.3084
  802MOL0     C 8169   5.993   9.046  10.239 -0.9421  0.8958 -0.4501
  802MOL0     C 8170   5.877   9.033  10.158  0.5639  0.4741  0.0796
  802MOL0     O 8171   5.879   8.980  10.038 -0.4919  0.5879 -0.3996
  802MOL0     C 8172   5.923   8.849  10.033 -0.7820  0.0283 -1.2810
  802MOL0     C 8173   5.867   8.785   9.913  0.6745  0.5545  1.1909
  802MOL0     C 8174   5.719   8.809   9.898 -0.2542 -0.1417  0.0293
  802MOL0     C 8175   5.658   8.736   9.780 -0.7278 -2.0441 -0.0587
  802MOL0     C 8176   5.509   8.767   9.757  0.1606 -0.3217  0.0136
  802MOL0     C 8177   5.421   8.708   9.870  1.5066 -0.3700 -0.4218
  802MOL0     C 8178   5.267   8.743   9.841 -0.6549 -0.2758  0.1716
  802MOL0     C 8179   5.165   8.665   9.931 -0.9989  0.0831 -0.1652
  802MOL0    Cl 8180   5.175   8.490   9.925  0.2980  0.0707  0.0797
  802MOL0     C 8181   5.755   9.090  10.193  0.9316  0.0454 -0.5783
  802MOL0     C 8182   5.753   9.152  10.313  0.4598  0.4676 -0.1620
  802MOL0     O 8183   5.909   9.003  10.623  0.8861  0.2529 -0.2166
  802MOL0     C 8184   5.928   9.329  10.760 -0.1600 -0.6379 -0.6272
  802MOL0     C 8185   5.975   9.402  10.868  0.5523  0.4890  0.0236
  802MOL0     N 8186   6.687   9.765  11.335  0.3602  0.3380  0.1120
  802MOL0     N 8187   6.813   9.762  11.304  0.3224  0.0225  0.1063
  802MOL0     C 8188   8.109   9.575  11.270 -0.0377 -0.6716  0.2705
  802MOL0     C 8189   8.252   9.567  11.274  0.3976  0.2466  0.4922
  802MOL0     C 8190   8.661   9.486  11.147  0.5072  0.3291 -0.7417
  802MOL0     C 8191   8.735   9.365  11.150  1.1888 -0.4265  0.1646
  802MOL0     C 8192   8.876   9.355  11.134 -0.0093 -0.6381 -0.6803
  802MOL0     C 8193   8.947   9.477  11.114 -0.6065 -0.1563 -0.9712
  802MOL0     O 8194   9.084   9.482  11.093 -0.1922  0.3548 -0.0301
  802MOL0     C 8195   9.158   9.609  11.106 -0.4663  0.2879 -0.1421
  802MOL0     C 8196   9.308   9.581  11.135 -0.8048  0.6460  0.2506
  802MOL0     C 8197   9.377   9.468  11.055 -0.2029  0.2907 -0.3240
  802MOL0     C 8198   9.532   9.455  11.081  0.1541 -0.5108  0.2195
  802MOL0     C 8199   9.555   9.394  11.217  0.2564  0.6664 -0.2985
  802MOL0     C 8200   9.575   9.345  11.327  0.0223 -0.1086  0.6715
  802MOL0     C 8201   8.869   9.601  11.121 -0.4589 -0.4364 -0.8034
  802MOL0     C 8202   8.737   9.603  11.134  0.0941 -0.1251  0.0417
  802MOL0     H 8203   8.343   9.771  11.019 -0.6738 -1.9787 -3.0405
  802MOL0     H 8204   8.099   9.814  11.023  3.0165 -0.1255 -2.0593
  802MOL0     H 8205   7.848   9.521  11.201 -0.8286  0.5943  0.0173
  802MOL0     H 8206   7.826   9.631  11.332 -1.0082 -0.0203  0.8240
  802MOL0     H 8207   7.684   9.768  11.150 -3.3267 -0.3265 -3.1084
  802MOL0     H 8208   7.701   9.636  11.045 -1.3138  1.9408 -0.8723
  802MOL0     H 8209   7.597   9.483  11.203  0.6157  0.8874 -1.7797
  802MOL0     H 8210   7.582   9.606  11.333  1.9301 -0.8687  0.6579
  802MOL0     H 8211   7.446   9.752  11.154 -1.0221  0.2125 -0.2657
  802MOL0     H 8212   7.446   9.608  11.058 -1.8964 -1.7804  0.3104
  802MOL0     H 8213   7.337   9.494  11.270  2.4894 -0.1118  0.0949
  802MOL0     H 8214   7.312   9.654  11.328  0.6275  0.1034 -0.1472
  802MOL0     H 8215   7.210   9.720  11.103  3.5584 -1.4313 -0.8842
  802MOL0     H 8216   7.199   9.556  11.056 -1.1788 -1.4903  1.7370
  802MOL0     H 8217   7.075   9.473  11.239  1.5236  0.1741  1.5382
  802MOL0     H 8218   7.069   9.640  11.309  4.9780  1.0486  0.5962
  802MOL0     H 8219   6.922   9.529  11.085  0.0327  1.1885 -1.3962
  802MOL0     H 8220   6.953   9.704  11.076 -1.0072  0.4835  0.4303
  802MOL0     H 8221   6.689   9.494  11.158  0.5034  0.9869 -0.8600
  802MOL0     H 8222   6.454   9.556  11.401  1.4700  0.7798  1.1528
  802MOL0     H 8223   6.408   9.704  11.336 -0.4821 -0.2618 -1.3279
  802MOL0     H 8224   6.459   9.467  11.148  0.7885  0.9575 -0.5686
  802MOL0     H 8225   6.418   9.620  11.098 -0.8160 -1.4135 -1.0819
  802MOL0     H 8226   6.203   9.621  11.224  0.8413  0.1695  0.6617
  802MOL0     H 8227   6.235   9.461  11.293  0.2836 -2.9283 -1.9487
  802MOL0     H 8228   6.247   9.385  11.027  0.3523  0.0627 -0.5366
  802MOL0     H 8229   6.181   9.534  10.991  0.0458 -1.4454  0.2601
  802MOL0     H 8230   5.999   9.152  11.097  0.4518  1.3118 -0.4188
  802MOL0     H 8231   5.856   8.923  10.859  1.6868 -2.2997 -1.2926
  802MOL0     H 8232   6.033   8.934  10.867  0.2902  3.7287 -2.2104
  802MOL0     H 8233   5.931   8.955  11.014  0.9998  3.0632  1.2382
  802MOL0     H 8234   6.054   9.096  10.437 -0.9554  0.5441  0.7171
  802MOL0     H 8235   6.086   8.999  10.209 -0.5757  0.7152  0.9049
  802MOL0     H 8236   6.031   8.851  10.051 -0.8048 -0.0334 -1.1372
  802MOL0     H 8237   5.887   8.788  10.116  0.6567 -3.9092 -3.2750
  802MOL0     H 8238   5.916   8.824   9.823 -0.6671  0.1284  0.2372
  802MOL0     H 8239   5.878   8.676   9.910  0.4744  0.4021 -4.0212
  802MOL0     H 8240   5.694   8.916   9.902 -2.3659 -0.6224  2.6852
  802MOL0     H 8241   5.652   8.773   9.978 -2.3656 -0.1640 -1.6551
  802MOL0     H 8242   5.712   8.758   9.688  1.6434 -2.6053  1.1166
  802MOL0     H 8243   5.664   8.628   9.800 -1.6527 -2.4414 -1.6924
  802MOL0     H 8244   5.470   8.731   9.661  0.9875  0.3039 -0.5671
  802MOL0     H 8245   5.503   8.877   9.753  2.4289 -0.1814 -3.2825
  802MOL0     H 8246   5.427   8.599   9.872 -0.3957 -0.4804  1.1300
  802MOL0     H 8247   5.448   8.755   9.965  0.7946  3.2823 -1.8561
  802MOL0     H 8248   5.238   8.720   9.738 -0.4536 -0.4617  0.1550
  802MOL0     H 8249   5.249   8.849   9.856 -1.7434 -0.4053 -0.1377
  802MOL0     H 8250   5.066   8.698   9.900 -1.2357 -2.6264 -2.8092
  802MOL0     H 8251   5.204   8.689  10.030  0.2317 -0.1736 -0.5746
  802MOL0     H 8252   5.666   9.083  10.131  1.0272 -2.4676 -0.5552
  802MOL0     H 8253   5.656   9.193  10.338  1.1711  1.1086  1.7185
  802MOL0     H 8254   5.904   9.394  10.677  0.0723  1.8865  1.1718
  802MOL0     H 8255   5.990   9.507  10.845 -2.4108  0.4289 -3.0405
  802MOL0     H 8256   8.041   9.526  11.339 -1.2395  0.6617  0.0820
  802MOL0     H 8257   8.300   9.499  11.344  1.2019 -0.3719 -0.6324
  802MOL0     H 8258   8.680   9.272  11.154  1.0420 -0.3185  0.8011
  802MOL0     H 8259   8.936   9.265  11.144  0.8885  0.0825  0.7679
  802MOL0     H 8260   9.147   9.671  11.017  1.1202  0.5525 -0.1768
  802MOL0     H 8261   9.133   9.661  11.199 -2.7677 -0.8858 -0.0427
  802MOL0     H 8262   9.319   9.558  11.241  0.7144 -1.6178 -0.3360
  802MOL0     H 8263   9.364   9.671  11.108  1.4349 -0.3863  1.1699
  802MOL0     H 8264   9.350   9.491  10.951 -0.0461 -0.6616 -0.5844
  802MOL0     H 8265   9.337   9.367  11.069 -0.9346  0.7892  1.3122
  802MOL0     H 8266   9.583   9.550  11.066 -0.4219 -0.3330 -0.6863
  802MOL0     H 8267   9.572   9.390  11.003 -0.4776 -0.5157 -0.1099
  802MOL0     H 8268   9.579   9.307  11.427 -3.2454  1.1416  1.4002
  802MOL0     H 8269   8.921   9.696  11.117  0.2777 -0.7469  0.9685
  802MOL0     H 8270   8.684   9.697  11.145  1.4583  0.5299  1.6160
  803MOL0     O 8271   2.577   1.206   1.115  0.2363  0.3016  0.0809
  803MOL0     C 8272   2.650   1.119   1.168  0.0690 -0.5565  0.1998
  803MOL0     O 8273   2.600   1.038   1.269  0.0332  0.3382 -0.3021
  803MOL0     C 8274   2.472   1.055   1.318 -0.6901  0.6705  0.8017
  803MOL0     C 8275   2.434   1.173   1.396  0.6730  0.8914  0.2378
  803MOL0     C 8276   2.304   1.178   1.445  0.3740 -0.7254  0.5495
  803MOL0     C 8277   2.208   1.077   1.424  0.6207 -0.7863 -0.1343
  803MOL0     O 8278   2.068   1.075   1.451 -0.0215  0.1432 -0.1376
  803MOL0     C 8279   1.993   1.199   1.441 -0.1587 -0.4842 -0.3904
  803MOL0     C 8280   1.846   1.172   1.451 -0.1103 -0.1765 -0.3227
  803MOL0     C 8281   1.794   1.079   1.341 -0.6939 -0.2400  0.8285
  803MOL0     C 8282   1.641   1.098   1.344 -0.7510  0.1910  0.7287
  803MOL0     C 8283   1.582   1.037   1.220 -0.6745 -0.3079 -0.7460
  803MOL0     C 8284   1.429   1.013   1.230  0.0595  0.0767 -0.3270
  803MOL0     C 8285   1.365   0.957   1.110  1.1614  0.0719 -0.7201
  803MOL0     C 8286   1.214   0.991   1.101 -0.4040 -0.2044  0.2466
  803MOL0     N 8287   1.145   0.926   0.993 -0.9391  0.2397 -0.0759
  803MOL0     C 8288   1.043   0.991   0.933 -0.3855  0.6085 -0.1439
  803MOL0     C 8289   0.985   0.890   0.866  0.1196  0.6402 -0.2926
  803MOL0     C 8290   0.878   0.909   0.760  0.2724  0.0379 -0.0131
  803MOL0     C 8291   0.737   0.912   0.816 -0.9292 -0.6651  0.2171
  803MOL0     C 8292   0.704   0.781   0.897 -0.6614  0.5989  0.7009
  803MOL0     C 8293   0.564   0.784   0.954 -0.1733 -0.1916  0.1235
  803MOL0     O 8294   0.464   0.807   0.854 -0.1305 -0.1264 -0.0614
  803MOL0     C 8295   0.339   0.846   0.884  0.0688 -0.1563 -0.4475
  803MOL0     C 8296   0.279   0.934   0.796  0.4664 -0.0706 -0.1311
  803MOL0     C 8297   0.151   0.999   0.840 -0.1620  0.1235  0.1731
  803MOL0     C 8298   0.083   1.098   0.751 -0.0293  0.1192  0.9731
  803MOL0     C 8299   0.091   0.953   0.966  0.6213  0.0885  0.2978
  803MOL0     C 8300  -0.041   0.996   1.015 -0.6196 -0.3158 -0.4615
  803MOL0     O 8301  -0.139   1.035   0.923  0.0139  0.1705 -0.0153
  803MOL0     C 8302  -0.272   1.032   0.965  0.4176 -0.5345  0.0350
  803MOL0     C 8303  -0.316   1.139   1.045 -0.5472 -0.6931 -0.0710
  803MOL0     C 8304  -0.452   1.167   1.068  0.1315 -0.1331 -0.5756
  803MOL0     C 8305  -0.551   1.081   1.016 -0.1168  0.3829  0.2159
  803MOL0     O 8306  -0.691   1.093   1.022 -0.4507 -0.4389 -0.1635
  803MOL0     C 8307  -0.753   1.182   1.120 -0.3249 -0.0986  0.3510
  803MOL0     C 8308  -0.753   1.125   1.271 -1.1180 -0.0442 -0.1917
  803MOL0     C 8309  -0.840   1.002   1.284  0.4033  0.7400 -0.1652
  803MOL0     C 8310  -0.994   1.037   1.267 -0.3068 -0.0824 -0.2468
  803MOL0     C 8311  -1.087   0.932   1.337 -0.4213 -0.2409  0.5963
  803MOL0     C 8312  -1.223   0.983   1.385  0.8043 -0.7207 -0.4030
  803MOL0     C 8313  -1.306   0.886   1.473  0.4232 -0.4877 -0.5245
  803MOL0     C 8314  -1.454   0.937   1.487 -0.6121  0.2108 -0.0420
  803MOL0    Cl 8315  -1.568   0.825   1.566 -0.0301  0.0444 -0.5558
  803MOL0     C 8316  -0.507   0.981   0.930  1.2386 -0.2421  0.0884
  803MOL0     C 8317  -0.377   0.952   0.899  0.6451 -0.2513 -0.2521
  803MOL0     O 8318  -0.057   0.992   1.141  0.1254  0.7055  0.1624
  803MOL0     C 8319   0.154   0.858   1.047 -0.1947  0.3614 -0.2844
  803MOL0     C 8320   0.282   0.816   1.007 -0.3598 -0.3270 -1.0591
  803MOL0     N 8321   1.050   0.778   0.880 -0.0600 -0.2350 -0.3699
  803MOL0     N 8322   1.150   0.795   0.958 -0.5035  0.2546  0.8423
  803MOL0     C 8323   2.242   0.961   1.359  0.7479 -0.0126  0.2122
  803MOL0     C 8324   2.372   0.947   1.307  0.0305  0.0868  0.2826
  803MOL0     C 8325   2.790   1.108   1.137 -0.6169 -0.2999  0.8106
  803MOL0     C 8326   2.842   1.180   1.030  0.4596  0.7717  0.9689
  803MOL0     C 8327   2.981   1.159   1.008  0.1713 -0.4075 -0.0927
  803MOL0     C 8328   3.067   1.075   1.079  0.3804 -0.8859  0.1292
  803MOL0     O 8329   3.193   1.059   1.035 -0.1137 -0.2188  0.3278
  803MOL0     C 8330   3.302   1.002   1.116  0.0641 -0.7462  0.1411
  803MOL0     C 8331   3.306   0.850   1.151  0.0917 -1.0690  0.0002
  803MOL0     C 8332   3.263   0.784   1.019 -0.2251 -0.4860  0.0594
  803MOL0     C 8333   3.375   0.798   0.907 -0.3804  0.4247 -0.5556
  803MOL0     C 8334   3.491   0.718   0.941 -0.2815 -0.9346  0.2536
  803MOL0     C 8335   3.595   0.662   0.959 -0.5188  0.2243  0.2051
  803MOL0     C 8336   3.016   1.024   1.187  0.6204 -0.0069  0.5945
  803MOL0     C 8337   2.880   1.032   1.221  0.2470 -0.1384  0.5868
  803MOL0     H 8338   2.511   1.244   1.425  2.1787 -1.1595  1.5376
  803MOL0     H 8339   2.281   1.269   1.500 -0.3856 -1.2041  1.0574
  803MOL0     H 8340   2.034   1.276   1.507  3.0058  1.0969 -3.8639
  803MOL0     H 8341   1.997   1.237   1.338 -0.2184  0.2510 -0.1274
  803MOL0     H 8342   1.822   1.125   1.547 -1.3710  1.3825  0.1658
  803MOL0     H 8343   1.795   1.268   1.453  0.8525  0.3514  1.6765
  803MOL0     H 8344   1.840   1.098   1.243 -2.7879 -1.5305 -0.5031
  803MOL0     H 8345   1.827   0.977   1.361  1.6607 -0.1515 -1.8643
  803MOL0     H 8346   1.604   1.041   1.430 -3.3854 -0.4690 -0.7508
  803MOL0     H 8347   1.617   1.205   1.351 -2.0493  0.1423 -1.8690
  803MOL0     H 8348   1.593   1.107   1.136 -2.5497 -1.2459 -1.8420
  803MOL0     H 8349   1.624   0.938   1.202 -1.0092 -0.5462 -0.2377
  803MOL0     H 8350   1.406   0.944   1.311  1.7739  0.7305  0.7863
  803MOL0     H 8351   1.382   1.105   1.265 -1.3812 -0.4583 -0.8063
  803MOL0     H 8352   1.421   0.979   1.018  0.7041 -2.2783 -1.6466
  803MOL0     H 8353   1.369   0.848   1.111 -1.1877 -0.0691  1.0582
  803MOL0     H 8354   1.208   1.096   1.071 -1.0790 -0.4265 -0.4262
  803MOL0     H 8355   1.169   0.987   1.201 -1.4454  1.6823 -0.0841
  803MOL0     H 8356   1.013   1.096   0.936 -4.6765 -0.3099 -2.5514
  803MOL0     H 8357   0.906   1.006   0.719 -0.4054  1.0080  1.7316
  803MOL0     H 8358   0.889   0.832   0.683  3.3639 -0.3173  0.6392
  803MOL0     H 8359   0.676   0.910   0.726  1.0375  0.4283 -1.2079
  803MOL0     H 8360   0.718   0.999   0.881  0.6156 -0.5329  0.5214
  803MOL0     H 8361   0.778   0.761   0.975  1.9329 -0.7477 -1.9065
  803MOL0     H 8362   0.726   0.698   0.829 -0.4536  0.5224  0.8600
  803MOL0     H 8363   0.558   0.849   1.042 -1.4353  1.0706 -0.8466
  803MOL0     H 8364   0.522   0.692   0.995 -1.0228  0.5035  0.8672
  803MOL0     H 8365   0.326   0.960   0.702  0.1396  1.2553  0.0487
  803MOL0     H 8366  -0.001   1.048   0.702  0.2147  0.2703  0.3886
  803MOL0     H 8367   0.056   1.196   0.791  0.8594  2.1497 -2.9000
  803MOL0     H 8368   0.158   1.125   0.676 -0.4014  2.7736  1.4719
  803MOL0     H 8369  -0.239   1.192   1.100  0.9294 -3.2660  0.5248
  803MOL0     H 8370  -0.474   1.264   1.113  2.0498  0.0057  0.1480
  803MOL0     H 8371  -0.702   1.279   1.118  0.6263 -0.5796 -1.1324
  803MOL0     H 8372  -0.857   1.198   1.089 -0.2057 -2.2092 -1.4374
  803MOL0     H 8373  -0.652   1.097   1.302 -0.5514  1.1231 -0.9245
  803MOL0     H 8374  -0.775   1.210   1.336  0.8837  0.0606  0.4173
  803MOL0     H 8375  -0.831   0.964   1.386 -0.4487  2.2431  0.4970
  803MOL0     H 8376  -0.818   0.924   1.210 -1.3013  0.7414 -0.7123
  803MOL0     H 8377  -1.010   1.128   1.325 -0.4109 -0.2873  0.0482
  803MOL0     H 8378  -1.017   1.051   1.161 -0.3589 -3.4548 -0.8178
  803MOL0     H 8379  -1.035   0.899   1.427 -1.5508  1.3420  1.8754
  803MOL0     H 8380  -1.099   0.840   1.278  1.0737 -0.7875  1.0958
  803MOL0     H 8381  -1.204   1.071   1.448  1.9436 -1.0109 -0.3153
  803MOL0     H 8382  -1.282   1.004   1.295  1.2384 -1.4215 -0.8568
  803MOL0     H 8383  -1.272   0.882   1.577 -4.0013  0.3850  1.1574
  803MOL0     H 8384  -1.304   0.782   1.439  2.2738 -0.3775 -0.9096
  803MOL0     H 8385  -1.499   0.962   1.391 -0.5056 -0.9529 -0.4164
  803MOL0     H 8386  -1.444   1.034   1.536  0.5339 -0.6816  1.6228
  803MOL0     H 8387  -0.578   0.909   0.889  0.6138 -0.0499  0.8144
  803MOL0     H 8388  -0.341   0.869   0.839 -0.8009 -1.5184  0.5715
  803MOL0     H 8389   0.107   0.824   1.139 -1.3165  1.6523 -0.3421
  803MOL0     H 8390   0.328   0.750   1.079 -1.3418 -0.6772 -0.7272
  803MOL0     H 8391   2.166   0.884   1.350 -0.3572  0.9339  1.1479
  803MOL0     H 8392   2.393   0.867   1.237 -1.8599 -0.4074  0.2276
  803MOL0     H 8393   2.774   1.235   0.967 -0.6836 -2.1661 -0.5329
  803MOL0     H 8394   3.026   1.208   0.922 -1.1070 -0.6018 -0.9014
  803MOL0     H 8395   3.398   1.019   1.065  1.8656 -3.1234  2.4368
  803MOL0     H 8396   3.317   1.048   1.214 -0.6946 -1.5923  0.6736
  803MOL0     H 8397   3.237   0.817   1.228 -1.5968 -0.6177 -1.2519
  803MOL0     H 8398   3.405   0.821   1.186  0.3511 -1.8045 -1.2702
  803MOL0     H 8399   3.166   0.831   0.998  0.3023  1.6240  1.9625
  803MOL0     H 8400   3.248   0.678   1.045  1.4106 -0.6940  0.2377
  803MOL0     H 8401   3.414   0.900   0.893  0.6335  0.1056 -0.1615
  803MOL0     H 8402   3.338   0.754   0.814  0.8505 -1.1223 -0.3502
  803MOL0     H 8403   3.679   0.595   0.958  0.2144  1.0667  2.0840
  803MOL0     H 8404   3.081   0.971   1.256 -1.5965 -0.4602  2.4579
  803MOL0     H 8405   2.835   0.983   1.306 -0.7010  0.4553  0.4401
  804MOL0     O 8406   9.990   2.187   4.219 -0.2678 -0.0091 -0.0089
  804MOL0     C 8407  10.075   2.133   4.145  0.4683  0.0751 -0.3392
  804MOL0     O 8408  10.066   2.125   4.010  0.0670 -0.1682  0.7935
  804MOL0     C 8409   9.957   2.166   3.938 -0.0179 -0.1774  0.7692
  804MOL0     C 8410   9.901   2.288   3.974 -0.1900 -0.3738  0.0294
  804MOL0     C 8411   9.799   2.345   3.897  0.6907  0.8639  0.4901
  804MOL0     C 8412   9.755   2.283   3.773 -0.3183  0.2729  0.4152
  804MOL0     O 8413   9.663   2.351   3.693 -0.0156 -0.9238 -0.5355
  804MOL0     C 8414   9.621   2.298   3.569  0.6315  0.8802  0.8521
  804MOL0     C 8415   9.501   2.204   3.580  0.0235  0.4579 -0.5570
  804MOL0     C 8416   9.376   2.268   3.640 -0.6901 -0.6480 -0.0710
  804MOL0     C 8417   9.258   2.176   3.629 -0.3777  0.4105  0.3335
  804MOL0     C 8418   9.141   2.234   3.705  0.4743  0.0241 -0.0858
  804MOL0     C 8419   9.016   2.135   3.698  0.6173 -0.4885 -0.2956
  804MOL0     C 8420   8.895   2.184   3.783  0.1721 -0.6692 -0.3470
  804MOL0     C 8421   8.777   2.086   3.777  0.7423  0.0689 -0.5372
  804MOL0     N 8422   8.687   2.125   3.887  0.3086  0.6088 -0.5495
  804MOL0     C 8423   8.557   2.164   3.871  0.1116  0.2454  0.3908
  804MOL0     C 8424   8.512   2.188   3.992  0.0478  0.5298  0.4071
  804MOL0     C 8425   8.386   2.246   4.043 -0.2896  0.3150  0.2661
  804MOL0     C 8426   8.275   2.144   4.072 -0.1542 -0.7401  0.1943
  804MOL0     C 8427   8.165   2.185   4.165  0.4490  0.0122  0.5533
  804MOL0     C 8428   8.077   2.297   4.096 -0.6512  0.2713 -0.5623
  804MOL0     O 8429   7.983   2.359   4.184  0.4806  0.5348 -0.2774
  804MOL0     C 8430   7.871   2.277   4.207 -0.1444 -0.5147 -0.1593
  804MOL0     C 8431   7.808   2.321   4.318  1.2468 -0.2009 -0.2838
  804MOL0     C 8432   7.677   2.267   4.361 -0.9042 -1.4114  0.1866
  804MOL0     C 8433   7.610   2.329   4.480  0.5324 -0.3967 -0.4957
  804MOL0     C 8434   7.623   2.167   4.285 -0.0739  0.5480  0.1279
  804MOL0     C 8435   7.491   2.103   4.306  0.3971 -0.6080  0.6770
  804MOL0     O 8436   7.466   1.990   4.237 -0.7292  0.1064  0.5045
  804MOL0     C 8437   7.345   1.930   4.248  0.2664 -0.0635  0.4236
  804MOL0     C 8438   7.285   1.902   4.367  0.3549  0.1555  0.6501
  804MOL0     C 8439   7.155   1.842   4.371  0.0308 -0.1295  0.0040
  804MOL0     C 8440   7.083   1.823   4.252 -0.2924 -0.9054 -0.2801
  804MOL0     O 8441   6.950   1.791   4.260 -0.1685 -0.1549  0.5233
  804MOL0     C 8442   6.887   1.695   4.163 -0.9466 -0.2290 -0.8809
  804MOL0     C 8443   6.804   1.751   4.055  0.2115 -0.6323 -0.6752
  804MOL0     C 8444   6.665   1.743   4.091 -0.2751  0.5612  0.1563
  804MOL0     C 8445   6.575   1.776   3.964  0.0517  1.3651 -1.2028
  804MOL0     C 8446   6.421   1.756   3.987 -0.5058  0.9601 -0.1501
  804MOL0     C 8447   6.343   1.826   3.877 -0.1019  0.5533 -0.2038
  804MOL0     C 8448   6.343   1.734   3.759 -0.1681  0.0637  0.2663
  804MOL0     C 8449   6.276   1.806   3.636  0.3824 -0.4834  0.4205
  804MOL0    Cl 8450   6.280   1.708   3.482 -0.0251  0.0320 -0.4819
  804MOL0     C 8451   7.149   1.855   4.132 -0.0353 -0.5477  0.3730
  804MOL0     C 8452   7.283   1.907   4.123  0.1402 -0.0429 -0.4268
  804MOL0     O 8453   7.422   2.145   4.399  0.2685  0.1869 -0.2326
  804MOL0     C 8454   7.704   2.111   4.180 -0.1987 -0.0512 -0.9146
  804MOL0     C 8455   7.827   2.171   4.147  0.9586  0.4568 -0.2594
  804MOL0     N 8456   8.611   2.163   4.087 -0.1413  0.3854 -0.3547
  804MOL0     N 8457   8.716   2.123   4.020  0.3599  0.8041 -0.5074
  804MOL0     C 8458   9.810   2.157   3.737  0.1211  0.5489 -0.1342
  804MOL0     C 8459   9.913   2.096   3.816  0.2054 -0.8083 -0.7929
  804MOL0     C 8460  10.209   2.083   4.199  0.2289 -0.5607 -0.1733
  804MOL0     C 8461  10.255   2.138   4.317 -0.1861  0.1091 -0.8611
  804MOL0     C 8462  10.383   2.107   4.363 -0.0842 -0.0930 -0.5650
  804MOL0     C 8463  10.472   2.025   4.293 -0.0708 -0.7045  0.1891
  804MOL0     O 8464  10.601   2.013   4.350  0.2413 -0.0125  0.0923
  804MOL0     C 8465  10.695   1.923   4.287  0.6277  0.3916 -0.1199
  804MOL0     C 8466  10.811   1.879   4.383 -0.5395  0.1893 -0.5444
  804MOL0     C 8467  10.887   2.006   4.439  0.0683 -0.3024  0.4949
  804MOL0     C 8468  10.971   1.968   4.556  0.3001 -1.0854  0.1885
  804MOL0     C 8469  11.093   1.907   4.506  0.2255  0.6160  0.2392
  804MOL0     C 8470  11.171   1.827   4.470  0.0264  0.2533  0.0816
  804MOL0     C 8471  10.431   1.970   4.170  0.1022 -0.6641  0.4712
  804MOL0     C 8472  10.297   1.998   4.126 -0.5316  0.3333  0.4423
  804MOL0     H 8473   9.937   2.350   4.055  1.4173 -0.6125 -0.4841
  804MOL0     H 8474   9.759   2.446   3.910  0.7391  1.1280 -1.1931
  804MOL0     H 8475   9.576   2.376   3.506 -2.0293 -1.3081 -0.1228
  804MOL0     H 8476   9.707   2.258   3.515  1.2807  2.4041  0.7103
  804MOL0     H 8477   9.476   2.162   3.483  1.0019  0.3295 -0.7666
  804MOL0     H 8478   9.528   2.118   3.643 -0.7100  1.4103  1.1468
  804MOL0     H 8479   9.398   2.292   3.744 -1.7203  0.3225 -0.0584
  804MOL0     H 8480   9.350   2.368   3.603  0.5998 -0.5334 -0.7372
  804MOL0     H 8481   9.232   2.161   3.523  3.7465 -1.5022 -0.6150
  804MOL0     H 8482   9.278   2.074   3.663 -0.8783 -0.0499 -0.6737
  804MOL0     H 8483   9.179   2.242   3.807  0.5066 -0.4616 -0.0568
  804MOL0     H 8484   9.110   2.331   3.664 -2.7128 -0.1706  1.5811
  804MOL0     H 8485   8.984   2.126   3.594  0.1530  1.3682 -0.3407
  804MOL0     H 8486   9.058   2.043   3.741 -1.0355 -0.3626  1.7450
  804MOL0     H 8487   8.928   2.196   3.887 -0.3753  1.8204 -0.3785
  804MOL0     H 8488   8.861   2.280   3.742  2.9734  0.9642  0.8154
  804MOL0     H 8489   8.810   1.984   3.802 -1.7700 -0.5283  0.6555
  804MOL0     H 8490   8.733   2.078   3.678  4.3828 -2.1778 -2.1787
  804MOL0     H 8491   8.496   2.182   3.783 -1.9045  2.5235  2.1175
  804MOL0     H 8492   8.414   2.285   4.141  1.1297  0.8066 -0.3126
  804MOL0     H 8493   8.358   2.331   3.979  1.9249  1.7394  1.0780
  804MOL0     H 8494   8.316   2.060   4.128 -0.7927 -1.8346 -0.9357
  804MOL0     H 8495   8.240   2.093   3.982 -1.9935  2.3576 -1.0126
  804MOL0     H 8496   8.210   2.224   4.257  0.3335  2.2375 -0.2833
  804MOL0     H 8497   8.103   2.096   4.177  2.0462 -0.9348  2.1885
  804MOL0     H 8498   8.039   2.249   4.005  1.5426  0.6789 -1.7532
  804MOL0     H 8499   8.137   2.385   4.071  1.1502 -0.1837  1.8053
  804MOL0     H 8500   7.854   2.402   4.373 -0.1519  0.8077 -0.5266
  804MOL0     H 8501   7.587   2.254   4.556 -0.1139  0.1249 -0.1525
  804MOL0     H 8502   7.668   2.406   4.533 -0.3266  0.0767 -0.2137
  804MOL0     H 8503   7.518   2.377   4.445  0.7750  2.8968  2.7046
  804MOL0     H 8504   7.347   1.918   4.454  1.8071  0.3642 -0.3870
  804MOL0     H 8505   7.102   1.807   4.459 -2.5306  1.4810 -0.7816
  804MOL0     H 8506   6.972   1.652   4.109  0.5754  1.7482 -0.1640
  804MOL0     H 8507   6.834   1.615   4.217  1.1915  0.5912  2.7647
  804MOL0     H 8508   6.835   1.855   4.036 -1.2733 -0.0112  0.1398
  804MOL0     H 8509   6.821   1.689   3.966 -0.3552 -1.6753 -0.0704
  804MOL0     H 8510   6.654   1.813   4.174  4.9290 -0.5779  2.1799
  804MOL0     H 8511   6.635   1.650   4.140  0.2033  0.8855  1.0784
  804MOL0     H 8512   6.601   1.878   3.934 -1.5934  1.7093 -1.5782
  804MOL0     H 8513   6.605   1.707   3.885 -0.4810 -1.1471  0.6564
  804MOL0     H 8514   6.381   1.797   4.080  1.6065  1.5916  0.5320
  804MOL0     H 8515   6.404   1.648   3.991 -0.9328  1.0511  0.8153
  804MOL0     H 8516   6.240   1.856   3.900  0.5172  0.8298  2.6153
  804MOL0     H 8517   6.386   1.923   3.854 -3.3504  2.8602  2.4439
  804MOL0     H 8518   6.300   1.636   3.781  0.7869 -1.2095 -2.9082
  804MOL0     H 8519   6.442   1.705   3.722 -0.2193  0.5850 -0.3049
  804MOL0     H 8520   6.321   1.905   3.624  0.9138 -0.8519 -0.8990
  804MOL0     H 8521   6.169   1.811   3.654  0.1635  0.2875 -0.9400
  804MOL0     H 8522   7.107   1.830   4.035  2.3931 -1.8741 -0.4113
  804MOL0     H 8523   7.321   1.939   4.027  0.0209  2.6208  0.3498
  804MOL0     H 8524   7.672   2.035   4.110  0.5360  0.1370 -1.4648
  804MOL0     H 8525   7.876   2.121   4.063 -0.8422  3.3554 -3.2898
  804MOL0     H 8526   9.762   2.098   3.660 -1.9540  0.4111  1.1692
  804MOL0     H 8527   9.941   1.995   3.789  0.6288 -1.6661  2.5412
  804MOL0     H 8528  10.203   2.211   4.378  0.1889 -1.9299  2.1444
  804MOL0     H 8529  10.424   2.157   4.450 -0.1085  1.7155 -1.5536
  804MOL0     H 8530  10.644   1.828   4.271  3.3393 -0.9151 -1.8351
  804MOL0     H 8531  10.730   1.966   4.192 -0.9166 -0.3584 -1.0673
  804MOL0     H 8532  10.877   1.823   4.317 -0.8486  1.6299 -2.1633
  804MOL0     H 8533  10.767   1.833   4.472  0.3102 -0.2318 -0.3355
  804MOL0     H 8534  10.809   2.079   4.462 -0.7256 -1.2888  1.0344
  804MOL0     H 8535  10.943   2.053   4.358 -1.8913  3.0827  0.8980
  804MOL0     H 8536  10.912   1.906   4.624 -1.1576  0.7449  0.6525
  804MOL0     H 8537  11.007   2.061   4.600  1.3094 -1.3956  0.0589
  804MOL0     H 8538  11.229   1.752   4.421 -0.8612  0.7415 -1.8226
  804MOL0     H 8539  10.496   1.897   4.123  0.0428 -1.0756  1.0114
  804MOL0     H 8540  10.264   1.942   4.039  2.8831 -0.3285 -0.5946
  805MOL0     O 8541  10.716   8.618   3.067  0.1765 -0.7432 -0.2525
  805MOL0     C 8542  10.757   8.526   3.142 -0.4128  0.5728  0.0684
  805MOL0     O 8543  10.688   8.454   3.220 -0.0514  0.0447 -0.0222
  805MOL0     C 8544  10.553   8.471   3.242 -0.1538  0.0133  0.0371
  805MOL0     C 8545  10.496   8.593   3.279  0.9053 -0.1389 -0.4763
  805MOL0     C 8546  10.361   8.600   3.301  0.2246 -0.2432  0.3230
  805MOL0     C 8547  10.284   8.485   3.289  0.2123  0.9648  0.0147
  805MOL0     O 8548  10.145   8.489   3.299  0.2803  0.1457 -0.2468
  805MOL0     C 8549  10.083   8.592   3.218  0.4589 -0.0403  0.1290
  805MOL0     C 8550   9.929   8.563   3.207 -0.2025 -0.7108  0.2566
  805MOL0     C 8551   9.917   8.417   3.147 -0.1631 -1.1876  1.1255
  805MOL0     C 8552   9.928   8.417   3.002  0.0456  0.0437  0.3090
  805MOL0     C 8553   9.786   8.451   2.940  0.6407  0.0853  0.5051
  805MOL0     C 8554   9.790   8.444   2.793  0.3549  0.0862 -0.5980
  805MOL0     C 8555   9.656   8.490   2.731 -0.3500 -1.6351  0.1877
  805MOL0     C 8556   9.536   8.399   2.720  1.0548  0.0683  0.1065
  805MOL0     N 8557   9.420   8.452   2.648 -1.0043  0.0676  0.2225
  805MOL0     C 8558   9.414   8.567   2.566  0.0514  0.8792 -0.7526
  805MOL0     C 8559   9.284   8.561   2.512  0.9283  0.1899  1.6758
  805MOL0     C 8560   9.228   8.650   2.408 -0.2660  0.4903  0.2076
  805MOL0     C 8561   9.265   8.600   2.272  0.6110 -0.5054 -0.2416
  805MOL0     C 8562   9.193   8.686   2.162 -1.0805 -0.2014  0.2283
  805MOL0     C 8563   9.050   8.691   2.159  0.1309 -0.4837  0.0954
  805MOL0     O 8564   9.013   8.736   2.026 -0.0327  0.1293  0.8681
  805MOL0     C 8565   8.886   8.766   2.002 -0.6449  0.3229 -0.5409
  805MOL0     C 8566   8.872   8.833   1.883  0.0537  0.2050  0.6957
  805MOL0     C 8567   8.746   8.883   1.839  0.4119 -0.4202 -0.4686
  805MOL0     C 8568   8.749   8.981   1.722 -1.1017 -0.2486 -0.1880
  805MOL0     C 8569   8.632   8.861   1.927  0.5935  1.1771  0.9209
  805MOL0     C 8570   8.499   8.933   1.897 -0.6339  0.5300 -0.8292
  805MOL0     O 8571   8.399   8.885   1.981 -0.7029 -0.4705  0.6305
  805MOL0     C 8572   8.273   8.942   1.962 -0.6621 -0.1005 -0.5601
  805MOL0     C 8573   8.226   9.032   2.049 -1.2012 -0.2256 -0.4683
  805MOL0     C 8574   8.106   9.082   2.039  1.5573 -0.0594  0.5530
  805MOL0     C 8575   8.016   9.054   1.932  0.0561  0.1305  0.4133
  805MOL0     O 8576   7.901   9.117   1.924  0.6903 -0.3125  0.0302
  805MOL0     C 8577   7.834   9.122   1.796  0.5845  0.7828 -0.2994
  805MOL0     C 8578   7.700   9.200   1.823  0.4739 -0.6344 -0.7066
  805MOL0     C 8579   7.620   9.222   1.693 -0.9077  0.2957  0.3884
  805MOL0     C 8580   7.560   9.361   1.686  0.3645 -0.4437 -0.4485
  805MOL0     C 8581   7.464   9.386   1.568  0.3560 -0.7486  0.2064
  805MOL0     C 8582   7.346   9.300   1.565  0.2867  0.3978  0.4497
  805MOL0     C 8583   7.274   9.306   1.430  0.7238 -0.6272 -0.0273
  805MOL0     C 8584   7.152   9.226   1.428  0.8417  1.0152 -0.1359
  805MOL0    Cl 8585   7.040   9.258   1.561  0.2764  0.1146  0.2638
  805MOL0     C 8586   8.069   8.960   1.837 -0.3334  0.2229 -0.8961
  805MOL0     C 8587   8.190   8.890   1.856 -1.0784  0.2277 -0.2363
  805MOL0     O 8588   8.485   9.020   1.811 -0.0912  0.0062 -0.4019
  805MOL0     C 8589   8.653   8.772   2.035  0.0653  0.1769  0.0739
  805MOL0     C 8590   8.775   8.724   2.074 -0.2541 -0.9608  0.6163
  805MOL0     N 8591   9.222   8.449   2.567 -0.5016 -0.4755 -0.5789
  805MOL0     N 8592   9.306   8.384   2.641  0.5750  0.4103  0.1606
  805MOL0     C 8593  10.338   8.359   3.261  0.4007 -0.4588  0.3263
  805MOL0     C 8594  10.476   8.354   3.237  0.1696  0.2520 -0.0379
  805MOL0     C 8595  10.905   8.498   3.127  0.3457  0.5611 -0.2153
  805MOL0     C 8596  10.969   8.543   3.015 -0.0654  0.1372 -0.1817
  805MOL0     C 8597  11.102   8.509   3.000  0.7322 -0.1835  0.4453
  805MOL0     C 8598  11.177   8.444   3.099  0.5605  0.0735  0.3295
  805MOL0     O 8599  11.311   8.429   3.085 -0.2455  0.1633 -0.3379
  805MOL0     C 8600  11.375   8.315   3.132  0.3776 -0.2959  0.1695
  805MOL0     C 8601  11.518   8.302   3.084 -0.2097 -0.7836 -0.2232
  805MOL0     C 8602  11.561   8.158   3.081  0.1625  0.6793 -0.3918
  805MOL0     C 8603  11.693   8.130   3.011 -0.0655 -0.9609  0.1365
  805MOL0     C 8604  11.732   7.987   3.029 -0.2919 -0.4722  0.7480
  805MOL0     C 8605  11.762   7.872   3.043 -0.1386  0.5699 -0.8603
  805MOL0     C 8606  11.110   8.412   3.216 -0.1211 -0.2496 -0.6768
  805MOL0     C 8607  10.973   8.428   3.228  0.7075 -0.4446 -0.0141
  805MOL0     H 8608  10.562   8.679   3.289 -0.7924  1.1265  0.1944
  805MOL0     H 8609  10.307   8.684   3.344  1.7530 -0.5701  3.1344
  805MOL0     H 8610  10.092   8.687   3.271  1.7638  2.3098 -3.8688
  805MOL0     H 8611  10.143   8.590   3.126 -1.3091  1.6445 -1.1443
  805MOL0     H 8612   9.877   8.556   3.303  3.1386 -0.3074  2.2572
  805MOL0     H 8613   9.885   8.642   3.146  3.3488  0.1813 -1.4548
  805MOL0     H 8614   9.987   8.342   3.185  1.3273 -0.0446  0.7653
  805MOL0     H 8615   9.818   8.382   3.176 -1.2952  0.6751 -0.2259
  805MOL0     H 8616  10.007   8.490   2.981  1.0063 -1.3263 -1.0441
  805MOL0     H 8617   9.963   8.322   2.959  5.0540  1.5242  0.4834
  805MOL0     H 8618   9.714   8.372   2.963  0.3090 -0.5917 -2.4104
  805MOL0     H 8619   9.751   8.549   2.975  0.2123  0.8777 -1.9138
  805MOL0     H 8620   9.869   8.513   2.762 -0.7791  1.6242 -0.1885
  805MOL0     H 8621   9.816   8.345   2.754  2.0796  0.0607  0.4717
  805MOL0     H 8622   9.629   8.577   2.791  3.1430  0.4545 -0.9642
  805MOL0     H 8623   9.677   8.520   2.628 -1.3374  1.0737  0.6903
  805MOL0     H 8624   9.504   8.361   2.818  2.1582 -0.6610  0.1989
  805MOL0     H 8625   9.577   8.307   2.677  0.4097 -1.8522  3.2461
  805MOL0     H 8626   9.491   8.636   2.533  0.9242  1.1868  1.7584
  805MOL0     H 8627   9.120   8.646   2.421 -0.1514 -2.2913  0.9078
  805MOL0     H 8628   9.251   8.756   2.424  0.2993  0.2758  0.9208
  805MOL0     H 8629   9.237   8.494   2.270 -0.1424 -0.4656  2.8599
  805MOL0     H 8630   9.372   8.601   2.251  0.4328  0.9412 -1.2070
  805MOL0     H 8631   9.229   8.658   2.062  0.0212  2.0388 -0.0681
  805MOL0     H 8632   9.233   8.787   2.175 -0.5750 -0.4820  0.9732
  805MOL0     H 8633   9.013   8.755   2.240 -1.6313  0.7462 -1.6157
  805MOL0     H 8634   9.006   8.592   2.175  1.4289 -1.2227 -0.7065
  805MOL0     H 8635   8.958   8.865   1.826  0.1982  0.3148  0.9720
  805MOL0     H 8636   8.848   8.978   1.675 -0.0666 -1.6086  1.9228
  805MOL0     H 8637   8.674   8.952   1.647 -0.5982 -1.4357 -0.2625
  805MOL0     H 8638   8.725   9.085   1.744  0.0772 -0.0842  0.4122
  805MOL0     H 8639   8.285   9.072   2.130 -3.3156  0.2369  0.9318
  805MOL0     H 8640   8.073   9.142   2.123  2.1885 -0.8406  1.3779
  805MOL0     H 8641   7.905   9.168   1.726  1.1329  2.1139  1.0579
  805MOL0     H 8642   7.799   9.023   1.768 -0.0172  0.9685 -0.2144
  805MOL0     H 8643   7.642   9.163   1.907  2.2011  1.0862  1.3782
  805MOL0     H 8644   7.729   9.302   1.850 -0.5684 -0.6434  0.5420
  805MOL0     H 8645   7.543   9.145   1.685 -1.2841  0.4809  1.9163
  805MOL0     H 8646   7.694   9.203   1.615 -0.9488 -1.6610  0.7650
  805MOL0     H 8647   7.521   9.383   1.786  4.5571  3.0179  0.7422
  805MOL0     H 8648   7.644   9.429   1.668  1.1963 -0.5641  2.4108
  805MOL0     H 8649   7.524   9.371   1.478  4.1562  0.9515  2.2206
  805MOL0     H 8650   7.429   9.489   1.576  0.7551 -0.5604 -0.4281
  805MOL0     H 8651   7.371   9.196   1.590  2.7988  0.7410 -0.3544
  805MOL0     H 8652   7.276   9.337   1.640 -0.5880 -0.5528  0.1382
  805MOL0     H 8653   7.339   9.283   1.345  0.0025 -2.4473 -0.1334
  805MOL0     H 8654   7.226   9.404   1.420 -3.2305 -2.6120 -2.9844
  805MOL0     H 8655   7.164   9.118   1.414  0.5263  1.0645 -0.8132
  805MOL0     H 8656   7.087   9.251   1.343  0.6534  0.7949 -0.0582
  805MOL0     H 8657   8.016   8.921   1.751 -0.6608 -1.2572 -0.0432
  805MOL0     H 8658   8.225   8.802   1.803  3.4288 -1.3701  4.5768
  805MOL0     H 8659   8.569   8.745   2.099  0.2782  1.0477  0.7362
  805MOL0     H 8660   8.787   8.662   2.162 -0.3629 -0.9233  0.6585
  805MOL0     H 8661  10.267   8.277   3.253  0.8472 -1.0539  1.9865
  805MOL0     H 8662  10.530   8.260   3.226  2.9639  1.7914 -0.3402
  805MOL0     H 8663  10.921   8.586   2.928 -1.1426 -1.7450 -0.5903
  805MOL0     H 8664  11.146   8.536   2.904  0.9114  0.2262  0.6393
  805MOL0     H 8665  11.389   8.313   3.241  1.6680 -1.0029  0.0068
  805MOL0     H 8666  11.324   8.225   3.097 -0.4136  0.5563 -0.9541
  805MOL0     H 8667  11.588   8.366   3.137 -0.3779 -1.0647  0.3410
  805MOL0     H 8668  11.513   8.341   2.982 -4.1428 -2.2482 -0.8077
  805MOL0     H 8669  11.482   8.096   3.038 -0.3587  0.9573  0.1462
  805MOL0     H 8670  11.579   8.139   3.188  2.3522  0.6239 -0.7310
  805MOL0     H 8671  11.777   8.191   3.045 -0.5346  1.5495 -2.7299
  805MOL0     H 8672  11.687   8.150   2.903  3.9202  1.2595  0.1462
  805MOL0     H 8673  11.809   7.776   3.035  3.7677  1.9950  2.1041
  805MOL0     H 8674  11.161   8.368   3.301  0.0281  0.2530 -0.5022
  805MOL0     H 8675  10.927   8.400   3.322  0.9137 -0.9971 -0.0750
  806MOL0     O 8676   0.775   4.284   7.657 -0.6053 -0.0801  0.0178
  806MOL0     C 8677   0.889   4.340   7.665  0.3752 -0.0851  0.1557
  806MOL0     O 8678   0.913   4.462   7.718  0.7647 -1.2043  0.0189
  806MOL0     C 8679   0.810   4.545   7.767 -0.7207 -0.3184  0.5897
  806MOL0     C 8680   0.690   4.510   7.830  0.3687  0.1413 -0.0346
  806MOL0     C 8681   0.592   4.599   7.884 -0.7658 -0.0924 -1.2107
  806MOL0     C 8682   0.618   4.737   7.880  0.3257  0.0181 -0.1659
  806MOL0     O 8683   0.518   4.818   7.942 -0.5194  0.4300 -0.2317
  806MOL0     C 8684   0.524   4.960   7.950 -0.4600 -0.0022 -1.3149
  806MOL0     C 8685   0.392   5.016   8.007 -0.7111  0.3291 -1.2171
  806MOL0     C 8686   0.273   4.976   7.914  0.3643  0.0834  0.5420
  806MOL0     C 8687   0.242   5.096   7.830 -0.0006 -0.2556 -0.0321
  806MOL0     C 8688   0.146   5.065   7.712 -1.0720 -1.1133 -0.3459
  806MOL0     C 8689   0.059   5.190   7.696 -0.1838  0.1386 -0.8502
  806MOL0     C 8690  -0.076   5.151   7.643  0.7389  0.1233 -0.1849
  806MOL0     C 8691  -0.172   5.095   7.743  0.3601 -0.4126 -0.4450
  806MOL0     N 8692  -0.305   5.069   7.678 -0.4107 -0.3593  0.4923
  806MOL0     C 8693  -0.415   5.013   7.739  0.0252 -0.4113  0.2743
  806MOL0     C 8694  -0.523   5.075   7.671 -0.2937  0.1011  0.2178
  806MOL0     C 8695  -0.657   5.048   7.738 -0.2909 -0.6140 -0.5471
  806MOL0     C 8696  -0.766   5.025   7.635  0.5615 -0.3930  0.8283
  806MOL0     C 8697  -0.881   5.135   7.636 -0.2799  0.2753  0.1802
  806MOL0     C 8698  -0.993   5.090   7.543  0.3456  0.2755 -0.6647
  806MOL0     O 8699  -0.948   5.073   7.406 -0.1502 -0.4269 -0.2741
  806MOL0     C 8700  -1.033   4.994   7.330  0.3533  0.1520  0.6100
  806MOL0     C 8701  -0.993   4.884   7.265  0.2790  0.7796 -0.4072
  806MOL0     C 8702  -1.078   4.808   7.181  0.6725  0.3818 -0.5713
  806MOL0     C 8703  -1.012   4.709   7.096  0.0621  0.5848  0.1414
  806MOL0     C 8704  -1.217   4.834   7.178  0.0840  0.4460 -0.8041
  806MOL0     C 8705  -1.323   4.758   7.112 -0.0894 -0.2150  0.3678
  806MOL0     O 8706  -1.451   4.807   7.130  0.0976  0.1626 -0.3051
  806MOL0     C 8707  -1.553   4.743   7.066  0.2252 -0.4095 -0.1221
  806MOL0     C 8708  -1.596   4.792   6.942  0.2517 -0.2545 -0.9334
  806MOL0     C 8709  -1.705   4.730   6.884  0.2633 -0.0259 -0.5581
  806MOL0     C 8710  -1.775   4.626   6.934  0.1797 -0.6078 -1.1864
  806MOL0     O 8711  -1.879   4.576   6.864 -0.1578 -0.2349  0.2668
  806MOL0     C 8712  -1.845   4.511   6.743  0.0473  0.3774 -0.2352
  806MOL0     C 8713  -1.969   4.470   6.664 -0.1560  0.0197  0.7888
  806MOL0     C 8714  -1.920   4.407   6.526  0.3575  0.3143  0.8793
  806MOL0     C 8715  -1.869   4.499   6.416  0.2368  0.4038  0.4324
  806MOL0     C 8716  -1.858   4.412   6.287  0.1046  0.1740  0.3743
  806MOL0     C 8717  -1.847   4.483   6.150 -0.3369  0.5334  0.3451
  806MOL0     C 8718  -1.742   4.588   6.147  0.7670  0.1208 -0.4817
  806MOL0     C 8719  -1.727   4.655   6.012  0.4194 -0.8634 -0.9845
  806MOL0    Cl 8720  -1.668   4.559   5.882 -0.1324 -0.1074 -0.0866
  806MOL0     C 8721  -1.726   4.572   7.058 -0.0027 -0.6093 -0.2416
  806MOL0     C 8722  -1.620   4.640   7.126 -0.2192 -0.2531  0.1395
  806MOL0     O 8723  -1.297   4.655   7.056 -0.0007  0.3036  0.6480
  806MOL0     C 8724  -1.255   4.951   7.249 -0.2870 -0.7006 -0.1674
  806MOL0     C 8725  -1.174   5.027   7.337 -0.7996 -0.3749  1.0166
  806MOL0     N 8726  -0.481   5.161   7.574  0.2775  0.1971 -0.4829
  806MOL0     N 8727  -0.351   5.158   7.571 -0.2382  0.7419 -0.3638
  806MOL0     C 8728   0.741   4.776   7.827 -0.6622 -0.4389  0.0050
  806MOL0     C 8729   0.833   4.679   7.770 -0.7100  0.5663 -0.0850
  806MOL0     C 8730   1.015   4.261   7.635 -0.2840 -0.2479  1.0839
  806MOL0     C 8731   1.007   4.129   7.589  0.6129  0.4463 -0.2824
  806MOL0     C 8732   1.121   4.054   7.561 -0.6139 -1.0410 -0.3248
  806MOL0     C 8733   1.252   4.107   7.587 -0.0687  0.0377  0.2702
  806MOL0     O 8734   1.366   4.028   7.569  0.3704 -0.3566 -1.3436
  806MOL0     C 8735   1.482   4.068   7.642 -0.0962  0.3951  0.2398
  806MOL0     C 8736   1.583   4.163   7.565 -1.1162  0.0864  0.3064
  806MOL0     C 8737   1.689   4.078   7.485 -0.7901  0.0622 -0.7848
  806MOL0     C 8738   1.749   4.160   7.378 -0.0396 -0.1484 -0.7315
  806MOL0     C 8739   1.879   4.107   7.345 -0.4834 -0.8920 -0.0478
  806MOL0     C 8740   1.986   4.059   7.310 -0.0402 -0.2036  0.1552
  806MOL0     C 8741   1.257   4.237   7.647 -0.1445 -0.0058 -0.3967
  806MOL0     C 8742   1.140   4.317   7.651 -0.3779  0.4925 -0.6646
  806MOL0     H 8743   0.665   4.404   7.818 -1.7648  0.7267 -1.3656
  806MOL0     H 8744   0.504   4.563   7.936  1.1028  1.4575  3.5518
  806MOL0     H 8745   0.611   4.994   8.006 -1.0215 -2.1651  1.0820
  806MOL0     H 8746   0.526   4.995   7.847 -2.2812  2.2226 -0.6460
  806MOL0     H 8747   0.376   4.963   8.102  1.1650  0.1958 -0.9346
  806MOL0     H 8748   0.394   5.123   8.027 -3.3451  0.4478 -1.2904
  806MOL0     H 8749   0.290   4.885   7.855 -1.7123 -0.4991  0.7611
  806MOL0     H 8750   0.187   4.952   7.978 -0.1925 -1.1238 -0.6167
  806MOL0     H 8751   0.206   5.176   7.896 -2.6114 -2.0715  0.9322
  806MOL0     H 8752   0.336   5.130   7.786  0.0427  0.8998  0.8921
  806MOL0     H 8753   0.205   5.042   7.623 -1.8733  2.7527 -2.0873
  806MOL0     H 8754   0.097   4.971   7.740  2.2464 -3.4326 -1.6432
  806MOL0     H 8755   0.054   5.243   7.792  0.3386  1.3961 -1.5049
  806MOL0     H 8756   0.101   5.262   7.626 -0.6766  1.7115  0.4256
  806MOL0     H 8757  -0.125   5.239   7.599 -1.8243 -1.3739 -0.5373
  806MOL0     H 8758  -0.068   5.080   7.560 -1.0361 -1.2661  0.7702
  806MOL0     H 8759  -0.167   5.174   7.818  2.4416 -0.8527 -0.0650
  806MOL0     H 8760  -0.135   5.004   7.791 -0.1420  0.4317  1.6239
  806MOL0     H 8761  -0.401   4.951   7.826  2.6265  1.5090  1.3631
  806MOL0     H 8762  -0.654   4.959   7.801 -0.7294  0.2763  0.7794
  806MOL0     H 8763  -0.682   5.132   7.804 -2.6439 -0.1098 -1.9479
  806MOL0     H 8764  -0.803   4.924   7.653 -4.0098  0.6543 -1.3325
  806MOL0     H 8765  -0.719   5.012   7.537  0.4529  0.0629  0.7112
  806MOL0     H 8766  -0.837   5.233   7.614 -0.1677 -0.2779 -2.4432
  806MOL0     H 8767  -0.913   5.133   7.740  1.1204 -1.8460  0.6136
  806MOL0     H 8768  -1.080   5.157   7.539 -0.8709 -1.1633  0.6182
  806MOL0     H 8769  -1.029   4.997   7.586  0.6583  0.7321  0.6235
  806MOL0     H 8770  -0.885   4.870   7.269  1.0689  4.6868 -3.0246
  806MOL0     H 8771  -1.051   4.715   6.994  2.2785 -0.9184 -0.8686
  806MOL0     H 8772  -0.903   4.717   7.096  0.0180  1.2307  0.7831
  806MOL0     H 8773  -1.042   4.609   7.126  3.2230 -1.0768 -1.6424
  806MOL0     H 8774  -1.554   4.886   6.906 -1.7013  0.7581 -0.7157
  806MOL0     H 8775  -1.734   4.779   6.791 -3.7673 -0.4339  0.2923
  806MOL0     H 8776  -1.776   4.569   6.681 -1.4107  1.6094 -0.7644
  806MOL0     H 8777  -1.792   4.418   6.768 -2.2886 -0.4381  2.0887
  806MOL0     H 8778  -2.039   4.402   6.712 -1.4279 -2.1534 -3.5552
  806MOL0     H 8779  -2.020   4.560   6.629 -0.1157  0.5078  1.9638
  806MOL0     H 8780  -2.007   4.349   6.493  0.4221  0.8690 -0.3127
  806MOL0     H 8781  -1.836   4.344   6.558  0.4953  1.0642  2.0779
  806MOL0     H 8782  -1.942   4.577   6.392 -0.2362  0.3199  1.5310
  806MOL0     H 8783  -1.770   4.539   6.440  0.0755  0.7215  0.5770
  806MOL0     H 8784  -1.941   4.340   6.287  1.1906 -1.1130  0.4942
  806MOL0     H 8785  -1.773   4.343   6.289  0.3498  0.4181 -1.0055
  806MOL0     H 8786  -1.797   4.414   6.082 -0.5750  1.4174 -0.7619
  806MOL0     H 8787  -1.945   4.518   6.117 -0.5936 -0.7599 -0.3428
  806MOL0     H 8788  -1.646   4.545   6.179  0.3274 -1.0560 -0.6875
  806MOL0     H 8789  -1.768   4.662   6.223 -0.0202 -1.8255  1.2210
  806MOL0     H 8790  -1.654   4.735   6.022 -1.5761  0.8539  0.8077
  806MOL0     H 8791  -1.821   4.704   5.986  1.0000  0.6601 -0.3131
  806MOL0     H 8792  -1.766   4.482   7.104  1.9544 -1.7176 -0.5579
  806MOL0     H 8793  -1.597   4.628   7.231 -1.1966  1.3754  0.5843
  806MOL0     H 8794  -1.356   4.991   7.249 -0.1064 -0.1828  1.6941
  806MOL0     H 8795  -1.217   5.100   7.404 -1.4319 -0.3983  0.6377
  806MOL0     H 8796   0.764   4.882   7.831 -0.7274 -0.4283  3.4553
  806MOL0     H 8797   0.924   4.719   7.727 -0.0938  0.3766  1.0118
  806MOL0     H 8798   0.907   4.088   7.578  0.7392  0.7475 -3.4684
  806MOL0     H 8799   1.119   3.953   7.522 -1.4296 -0.3305 -2.2477
  806MOL0     H 8800   1.465   4.117   7.739  1.4908 -0.4137  0.9639
  806MOL0     H 8801   1.536   3.976   7.665  1.4918  0.9638 -1.0312
  806MOL0     H 8802   1.637   4.229   7.634  1.2276  1.6760 -2.8059
  806MOL0     H 8803   1.535   4.217   7.483  0.7033 -1.6327 -2.0644
  806MOL0     H 8804   1.640   3.989   7.444 -0.8346  0.3286 -1.3156
  806MOL0     H 8805   1.761   4.042   7.559  1.6089  2.1754 -1.9234
  806MOL0     H 8806   1.765   4.258   7.424 -1.3365 -0.5411  0.6377
  806MOL0     H 8807   1.684   4.173   7.292  1.3416 -0.6879 -1.8952
  806MOL0     H 8808   2.079   4.020   7.273  0.0410 -0.2863  0.4439
  806MOL0     H 8809   1.348   4.287   7.678 -0.9717  1.0314  0.4597
  806MOL0     H 8810   1.141   4.421   7.682 -1.3924  0.6992 -1.2846
  807MOL0     O 8811   7.493   6.876   7.294  0.3112 -0.2102  0.0429
  807MOL0     C 8812   7.412   6.787   7.323 -0.6388  0.7256 -0.0077
  807MOL0     O 8813   7.310   6.800   7.408  0.1962  0.1578 -0.4067
  807MOL0     C 8814   7.292   6.917   7.474  0.4521  0.2293  0.1999
  807MOL0     C 8815   7.387   6.993   7.540  0.0941  0.3473 -0.4050
  807MOL0     C 8816   7.344   7.110   7.619  0.2364  0.1530 -0.7366
  807MOL0     C 8817   7.209   7.138   7.640 -0.1371  0.5569 -0.9661
  807MOL0     O 8818   7.189   7.242   7.727  0.4391 -0.3812 -0.1458
  807MOL0     C 8819   7.058   7.293   7.720  0.7225  0.2393 -0.1346
  807MOL0     C 8820   7.048   7.422   7.797  0.0350 -0.2286  0.5622
  807MOL0     C 8821   6.943   7.515   7.730 -0.1928 -0.3830  0.0752
  807MOL0     C 8822   6.796   7.470   7.741 -0.1905 -0.9822 -0.1527
  807MOL0     C 8823   6.696   7.576   7.699  0.1732  0.0363 -0.7285
  807MOL0     C 8824   6.559   7.563   7.767 -0.5536  0.0986  0.2153
  807MOL0     C 8825   6.470   7.663   7.700  1.0041 -0.5812  0.1425
  807MOL0     C 8826   6.337   7.706   7.767  0.3557  0.9045  0.0203
  807MOL0     N 8827   6.240   7.591   7.777 -0.4633 -0.1739  0.2800
  807MOL0     C 8828   6.167   7.541   7.886 -0.7825  0.3729  0.6184
  807MOL0     C 8829   6.090   7.430   7.842 -0.5721 -0.5509 -0.9195
  807MOL0     C 8830   5.997   7.355   7.935  0.8716 -0.4582 -0.5706
  807MOL0     C 8831   5.864   7.425   7.963  0.0695 -0.1089 -0.6785
  807MOL0     C 8832   5.764   7.399   7.843 -0.7049 -0.1135 -0.3852
  807MOL0     C 8833   5.621   7.425   7.887 -0.3071  1.1545  0.1483
  807MOL0     O 8834   5.593   7.554   7.846  0.1032  0.0348 -0.3023
  807MOL0     C 8835   5.456   7.585   7.869 -0.1403 -0.0061  0.0730
  807MOL0     C 8836   5.431   7.715   7.819 -0.1563 -0.7148 -0.1251
  807MOL0     C 8837   5.314   7.785   7.857 -0.1145  0.0829  0.2684
  807MOL0     C 8838   5.290   7.929   7.816 -0.2301 -0.7331  0.2738
  807MOL0     C 8839   5.219   7.712   7.941  0.4097  0.8582  1.1699
  807MOL0     C 8840   5.101   7.775   7.992  0.0252  0.2169 -0.6732
  807MOL0     O 8841   5.058   7.723   8.117 -0.6425 -0.7097  0.0092
  807MOL0     C 8842   4.934   7.740   8.170 -0.8161  0.1019  0.2142
  807MOL0     C 8843   4.924   7.784   8.307 -0.2489  0.3856  0.0551
  807MOL0     C 8844   4.800   7.816   8.362 -0.4813 -0.0125  0.8001
  807MOL0     C 8845   4.686   7.818   8.285  0.6980 -0.3878 -0.3318
  807MOL0     O 8846   4.567   7.857   8.336 -0.4045  0.4910  0.3412
  807MOL0     C 8847   4.494   7.754   8.414 -0.1729  0.0958  0.6970
  807MOL0     C 8848   4.350   7.796   8.446 -0.0983  0.2144  0.0945
  807MOL0     C 8849   4.287   7.707   8.553  0.6685 -0.2162 -0.3784
  807MOL0     C 8850   4.147   7.766   8.577 -1.1043  0.0172  0.0327
  807MOL0     C 8851   4.072   7.655   8.637  0.5944  0.5892  0.2014
  807MOL0     C 8852   3.947   7.719   8.705 -0.6913 -0.0238 -0.8855
  807MOL0     C 8853   3.882   7.619   8.803 -0.5142 -0.2027 -0.2615
  807MOL0     C 8854   3.741   7.662   8.825  0.0773  0.8317 -0.4714
  807MOL0    Cl 8855   3.669   7.581   8.958  0.0486  0.6006  0.1146
  807MOL0     C 8856   4.697   7.782   8.148 -0.5094 -0.1331 -0.4873
  807MOL0     C 8857   4.819   7.736   8.091 -0.0716  0.0830  0.0585
  807MOL0     O 8858   5.037   7.848   7.921 -0.0278 -0.6475  0.6797
  807MOL0     C 8859   5.251   7.581   7.978 -0.3615 -0.3030 -0.6217
  807MOL0     C 8860   5.366   7.509   7.943  0.3813  1.1137 -0.0278
  807MOL0     N 8861   6.121   7.419   7.708  0.2473 -0.1187 -0.1150
  807MOL0     N 8862   6.210   7.504   7.670 -0.0696  0.2431 -0.5703
  807MOL0     C 8863   7.110   7.059   7.572 -0.7518  0.1329  0.0191
  807MOL0     C 8864   7.154   6.952   7.492 -0.4589  0.6779  0.3125
  807MOL0     C 8865   7.427   6.649   7.271 -0.5542  0.4109  0.3250
  807MOL0     C 8866   7.548   6.609   7.203 -0.1968  0.3513 -0.3761
  807MOL0     C 8867   7.551   6.484   7.135  0.2779 -0.5036  0.0553
  807MOL0     C 8868   7.461   6.382   7.152 -1.4776 -0.6698 -0.0240
  807MOL0     O 8869   7.483   6.257   7.093  0.5247 -0.2693 -0.2705
  807MOL0     C 8870   7.382   6.155   7.118 -0.1127 -0.0815 -0.7495
  807MOL0     C 8871   7.428   6.019   7.068 -0.3079  1.1748  0.1012
  807MOL0     C 8872   7.563   5.980   7.140 -0.6941 -0.8996  0.2512
  807MOL0     C 8873   7.580   5.832   7.175  0.5407  0.0886  0.3347
  807MOL0     C 8874   7.613   5.752   7.051 -0.0272  0.6863 -0.2854
  807MOL0     C 8875   7.656   5.684   6.960 -1.1650  0.7551 -0.3897
  807MOL0     C 8876   7.344   6.427   7.222  0.5011 -0.2839 -1.1032
  807MOL0     C 8877   7.328   6.555   7.276 -0.0481 -0.3285  0.5091
  807MOL0     H 8878   7.491   6.976   7.517  0.0018 -0.5685 -0.1795
  807MOL0     H 8879   7.413   7.170   7.678 -0.2253  0.1652 -0.1969
  807MOL0     H 8880   7.034   7.318   7.616 -0.3242  0.0676  0.0621
  807MOL0     H 8881   6.993   7.213   7.754 -0.3886  1.3140  0.3347
  807MOL0     H 8882   7.023   7.412   7.903 -3.9598  0.3009 -0.1748
  807MOL0     H 8883   7.149   7.463   7.796 -0.1216  0.2118  1.6160
  807MOL0     H 8884   6.954   7.615   7.773  0.8529 -1.1746  1.7490
  807MOL0     H 8885   6.976   7.533   7.627  4.5368  0.4695  1.4984
  807MOL0     H 8886   6.776   7.375   7.690  2.2473 -2.1899  0.9397
  807MOL0     H 8887   6.779   7.434   7.843 -1.1748 -2.2047 -0.7124
  807MOL0     H 8888   6.730   7.679   7.716 -0.0872  0.0629 -0.3775
  807MOL0     H 8889   6.690   7.556   7.592  5.4420  1.6680 -1.6483
  807MOL0     H 8890   6.523   7.462   7.744  0.3294 -0.0696 -0.5097
  807MOL0     H 8891   6.558   7.574   7.876 -0.6347  0.0353  0.2216
  807MOL0     H 8892   6.528   7.755   7.686  2.8353 -1.6868  0.0838
  807MOL0     H 8893   6.447   7.623   7.601  1.4512  0.3696 -0.3562
  807MOL0     H 8894   6.303   7.797   7.716 -0.8832  0.3288 -0.2294
  807MOL0     H 8895   6.374   7.734   7.866 -0.3768 -0.8058  0.8139
  807MOL0     H 8896   6.181   7.567   7.990  0.0546  0.5211  0.4746
  807MOL0     H 8897   5.978   7.257   7.891 -3.1283  0.2583 -0.7932
  807MOL0     H 8898   6.052   7.332   8.027  0.2778  2.9564  0.8146
  807MOL0     H 8899   5.881   7.533   7.974 -0.6790 -0.2224  2.3480
  807MOL0     H 8900   5.828   7.377   8.054  1.4114  0.1850  0.0309
  807MOL0     H 8901   5.771   7.300   7.797 -0.8542 -1.2936  2.0006
  807MOL0     H 8902   5.780   7.466   7.758  0.4930  0.1837  0.0555
  807MOL0     H 8903   5.609   7.411   7.995  2.0172 -1.8945  0.1604
  807MOL0     H 8904   5.562   7.350   7.832  1.1767 -1.2110  1.5792
  807MOL0     H 8905   5.514   7.761   7.766  1.3236 -0.1730  2.4739
  807MOL0     H 8906   5.198   7.946   7.759 -0.7675  0.6494  1.4956
  807MOL0     H 8907   5.305   7.992   7.904 -1.8076  1.7764 -1.1319
  807MOL0     H 8908   5.372   7.952   7.748 -1.7861 -1.8129 -2.0994
  807MOL0     H 8909   5.011   7.791   8.371 -0.3974  1.4480  0.1485
  807MOL0     H 8910   4.796   7.836   8.468 -1.8252  4.9747  0.0795
  807MOL0     H 8911   4.499   7.659   8.361  2.6056  1.0011 -0.8714
  807MOL0     H 8912   4.549   7.747   8.509  0.4475  2.4878  0.5817
  807MOL0     H 8913   4.358   7.899   8.482  2.7694  0.6248 -1.4141
  807MOL0     H 8914   4.297   7.799   8.351  1.3185  3.4836 -0.7277
  807MOL0     H 8915   4.347   7.695   8.644 -0.1619 -0.6514  0.1182
  807MOL0     H 8916   4.277   7.610   8.504 -2.6427 -0.5447  0.7187
  807MOL0     H 8917   4.163   7.847   8.649 -1.4681 -1.2906  1.6545
  807MOL0     H 8918   4.100   7.796   8.483  1.3785  2.5588 -0.5037
  807MOL0     H 8919   4.134   7.609   8.715 -1.1330  0.0718  1.3244
  807MOL0     H 8920   4.055   7.572   8.569  1.3986 -0.9399  1.7731
  807MOL0     H 8921   3.968   7.811   8.762 -0.2614 -0.6815  0.0554
  807MOL0     H 8922   3.876   7.744   8.626 -2.2184  0.8302  0.6695
  807MOL0     H 8923   3.931   7.625   8.901 -0.0273  3.4361 -0.5721
  807MOL0     H 8924   3.887   7.518   8.762 -0.4901 -1.0160  1.6456
  807MOL0     H 8925   3.671   7.655   8.741 -1.8512  1.7522  0.9579
  807MOL0     H 8926   3.739   7.766   8.858 -2.4948  1.5356 -2.5349
  807MOL0     H 8927   4.606   7.783   8.088  1.2948  0.9718 -3.3858
  807MOL0     H 8928   4.819   7.712   7.985 -2.4440  5.1485 -1.4015
  807MOL0     H 8929   5.179   7.523   8.035 -0.7699 -1.6957 -2.4694
  807MOL0     H 8930   5.378   7.405   7.972 -1.1543  0.3970 -1.7655
  807MOL0     H 8931   7.005   7.088   7.577 -1.1898 -1.0697 -1.3784
  807MOL0     H 8932   7.083   6.886   7.444  0.0809 -0.0988  0.5648
  807MOL0     H 8933   7.628   6.683   7.206 -2.1181  2.5460  2.1819
  807MOL0     H 8934   7.639   6.467   7.074  0.8906  0.8757  0.5090
  807MOL0     H 8935   7.361   6.146   7.225  1.9391 -0.6326 -0.3530
  807MOL0     H 8936   7.286   6.174   7.070  1.0615 -3.4215 -5.0495
  807MOL0     H 8937   7.451   6.020   6.961 -0.1454 -0.9525  0.0781
  807MOL0     H 8938   7.348   5.947   7.088 -1.4479  2.0375 -1.2210
  807MOL0     H 8939   7.556   6.038   7.233  1.5418  3.2225 -1.9033
  807MOL0     H 8940   7.647   6.022   7.084 -0.3836 -2.1334 -0.2432
  807MOL0     H 8941   7.506   5.793   7.244  0.9365 -1.2774  0.0274
  807MOL0     H 8942   7.672   5.834   7.235  0.2440 -1.0357  0.8461
  807MOL0     H 8943   7.689   5.637   6.870 -0.8973  1.0760 -0.4602
  807MOL0     H 8944   7.254   6.366   7.231  1.1629 -1.2074 -0.5366
  807MOL0     H 8945   7.231   6.576   7.321 -1.3879  0.7768 -2.5772
  808MOL0     O 8946   0.943   1.383   1.218 -0.2658  0.3380 -0.1817
  808MOL0     C 8947   1.020   1.431   1.303 -0.3661 -0.3599 -0.0420
  808MOL0     O 8948   0.988   1.463   1.438  0.0284 -0.5874  1.0292
  808MOL0     C 8949   0.858   1.480   1.472  1.3304  0.3017 -0.4241
  808MOL0     C 8950   0.782   1.567   1.396  1.2656 -0.0544 -0.2866
  808MOL0     C 8951   0.647   1.584   1.423  0.6799  0.7008 -0.1101
  808MOL0     C 8952   0.591   1.525   1.546  0.0979 -0.9300  0.3826
  808MOL0     O 8953   0.461   1.544   1.580  0.2740 -0.1695 -0.0932
  808MOL0     C 8954   0.368   1.490   1.490  0.3275 -0.2402  0.6734
  808MOL0     C 8955   0.362   1.341   1.514 -1.1398  0.2504  0.3818
  808MOL0     C 8956   0.322   1.294   1.651 -0.4602  0.1608  0.5065
  808MOL0     C 8957   0.170   1.306   1.680  1.3583 -0.1194 -0.0157
  808MOL0     C 8958   0.118   1.277   1.823 -0.6348 -0.3628 -0.3695
  808MOL0     C 8959  -0.025   1.261   1.842 -0.4209  0.2056  0.5700
  808MOL0     C 8960  -0.057   1.183   1.977  0.6477  0.4163 -0.1138
  808MOL0     C 8961  -0.211   1.186   2.013 -0.1515  0.2461 -0.8945
  808MOL0     N 8962  -0.299   1.110   1.923  0.2662 -0.2286  0.6476
  808MOL0     C 8963  -0.370   1.171   1.820  1.1553 -0.4353 -0.0982
  808MOL0     C 8964  -0.440   1.069   1.763  0.0048 -0.0112  0.2466
  808MOL0     C 8965  -0.534   1.077   1.644 -0.3441 -0.1498  0.7831
  808MOL0     C 8966  -0.676   1.089   1.688  0.0225 -0.2667 -0.1564
  808MOL0     C 8967  -0.726   0.954   1.746  0.0928  0.0763  0.3741
  808MOL0     C 8968  -0.881   0.947   1.776  0.2554 -0.1435 -0.0214
  808MOL0     O 8969  -0.922   1.071   1.845 -0.7046 -0.1127 -0.4176
  808MOL0     C 8970  -1.057   1.108   1.839 -0.0950  0.0276 -0.2383
  808MOL0     C 8971  -1.100   1.232   1.891 -0.9218  0.2651  0.7794
  808MOL0     C 8972  -1.232   1.269   1.914  0.1087  0.8734  0.3374
  808MOL0     C 8973  -1.260   1.398   1.983 -0.1444 -1.0064 -0.0065
  808MOL0     C 8974  -1.330   1.175   1.872 -0.2036  0.0975 -0.4193
  808MOL0     C 8975  -1.474   1.208   1.871 -0.5327 -0.0285 -1.0182
  808MOL0     O 8976  -1.554   1.127   1.800  1.2124 -0.8008  0.9530
  808MOL0     C 8977  -1.682   1.129   1.836  0.3924  0.1935 -1.0700
  808MOL0     C 8978  -1.773   1.237   1.802 -0.4015 -0.8472 -0.3322
  808MOL0     C 8979  -1.910   1.243   1.840 -0.1395  1.1766  0.1126
  808MOL0     C 8980  -1.967   1.134   1.906 -0.3755  0.9277  0.3888
  808MOL0     O 8981  -2.108   1.129   1.919 -0.1565 -0.4308  0.7170
  808MOL0     C 8982  -2.183   1.005   1.918  0.1750  0.5333  0.7290
  808MOL0     C 8983  -2.163   0.930   1.785 -0.0001  0.1857  0.0610
  808MOL0     C 8984  -2.177   1.016   1.656 -0.9302  0.5864 -0.8093
  808MOL0     C 8985  -2.128   0.932   1.540  0.5489 -0.3947  0.6867
  808MOL0     C 8986  -2.107   1.021   1.412 -0.1617  0.7917 -0.4180
  808MOL0     C 8987  -2.016   0.965   1.295  0.2597 -0.0119  0.0630
  808MOL0     C 8988  -2.055   0.825   1.255 -0.6403 -0.1480  0.0887
  808MOL0     C 8989  -2.034   0.793   1.106 -0.1894 -0.2884  0.0472
  808MOL0    Cl 8990  -2.070   0.614   1.078  0.3704  0.2482  0.1639
  808MOL0     C 8991  -1.878   1.029   1.942 -0.1108  0.0462  0.0242
  808MOL0     C 8992  -1.742   1.029   1.908  0.5397  0.2673  0.2047
  808MOL0     O 8993  -1.512   1.300   1.941  0.1627  0.5351  0.6276
  808MOL0     C 8994  -1.298   1.048   1.835 -0.5919  0.1351  0.5060
  808MOL0     C 8995  -1.161   1.019   1.815  0.3261  0.2856  0.7367
  808MOL0     N 8996  -0.405   0.948   1.825  0.0334 -0.1360 -0.3820
  808MOL0     N 8997  -0.326   0.975   1.924  0.1098  0.3463  0.7847
  808MOL0     C 8998   0.674   1.440   1.612 -0.5347  0.4687 -0.1965
  808MOL0     C 8999   0.798   1.408   1.580 -0.3104 -0.7385  0.5843
  808MOL0     C 9000   1.160   1.432   1.252  0.6396 -0.3250 -0.1658
  808MOL0     C 9001   1.202   1.386   1.125 -0.4318 -0.9345 -0.8432
  808MOL0     C 9002   1.337   1.385   1.093 -0.0678 -0.7324 -0.4500
  808MOL0     C 9003   1.438   1.422   1.190  0.5844  0.0500  0.9753
  808MOL0     O 9004   1.573   1.429   1.157  0.2731 -0.3981 -0.2121
  808MOL0     C 9005   1.622   1.409   1.019 -0.3386  0.7797 -0.1408
  808MOL0     C 9006   1.760   1.464   0.999  0.6967 -0.2540  0.7449
  808MOL0     C 9007   1.873   1.405   1.077  0.2326  0.0558 -0.2671
  808MOL0     C 9008   1.968   1.304   0.993  0.5797 -0.5591 -0.0220
  808MOL0     C 9009   1.900   1.184   0.945 -0.2560  0.4187  0.6739
  808MOL0     C 9010   1.862   1.099   0.866  0.9204  1.0121  0.2771
  808MOL0     C 9011   1.399   1.472   1.310 -0.1120 -0.0674 -0.0064
  808MOL0     C 9012   1.259   1.476   1.342 -0.2716  0.2871 -0.5284
  808MOL0     H 9013   0.812   1.608   1.300 -1.4054 -1.1730 -1.6974
  808MOL0     H 9014   0.590   1.649   1.358  1.7263  1.3014 -0.4558
  808MOL0     H 9015   0.268   1.530   1.507  0.8962  0.7709  1.7949
  808MOL0     H 9016   0.390   1.525   1.389 -0.8729  3.3912  1.5223
  808MOL0     H 9017   0.289   1.294   1.448 -1.7902  1.7254 -0.0091
  808MOL0     H 9018   0.461   1.296   1.501 -1.6924 -1.2409  1.1837
  808MOL0     H 9019   0.350   1.188   1.652  3.4508  1.0377  0.7343
  808MOL0     H 9020   0.374   1.340   1.735  0.6322  3.2878 -1.7039
  808MOL0     H 9021   0.141   1.411   1.668 -1.6327 -0.8085  0.3343
  808MOL0     H 9022   0.120   1.247   1.602  0.5931 -0.9969  1.1053
  808MOL0     H 9023   0.158   1.178   1.845  1.2122 -0.0709 -2.1724
  808MOL0     H 9024   0.159   1.348   1.896  2.2676 -0.6433 -1.5924
  808MOL0     H 9025  -0.069   1.361   1.845  2.5593  1.7547 -2.0268
  808MOL0     H 9026  -0.064   1.211   1.753  0.7058 -2.1512  1.3082
  808MOL0     H 9027  -0.029   1.079   1.959 -2.5014 -0.2243 -2.3215
  808MOL0     H 9028  -0.016   1.224   2.069  1.1570 -0.6460  0.1473
  808MOL0     H 9029  -0.251   1.288   2.008  0.2086  0.3938 -0.7375
  808MOL0     H 9030  -0.211   1.139   2.111  2.4357  1.0115 -0.4441
  808MOL0     H 9031  -0.376   1.276   1.792 -0.5452 -0.6793 -0.7364
  808MOL0     H 9032  -0.507   1.171   1.593 -2.1250  1.8401  3.2250
  808MOL0     H 9033  -0.528   0.996   1.571  2.3911  1.4874 -1.0042
  808MOL0     H 9034  -0.738   1.122   1.604 -0.7664  0.9235  0.8561
  808MOL0     H 9035  -0.686   1.163   1.768 -1.3675  1.3872 -1.7579
  808MOL0     H 9036  -0.677   0.938   1.842  0.2609  0.2830  0.3208
  808MOL0     H 9037  -0.701   0.871   1.680 -2.8224  0.3619 -1.2839
  808MOL0     H 9038  -0.897   0.863   1.845  2.0343 -0.0232  0.6083
  808MOL0     H 9039  -0.938   0.929   1.685 -2.8664  1.5116  1.4659
  808MOL0     H 9040  -1.022   1.300   1.922 -0.4353  0.8478 -1.5297
  808MOL0     H 9041  -1.161   1.440   2.001 -0.8218  0.7732 -0.2702
  808MOL0     H 9042  -1.326   1.465   1.927 -1.6037 -3.2913 -1.1914
  808MOL0     H 9043  -1.305   1.387   2.082  1.0493 -0.0755  0.6632
  808MOL0     H 9044  -1.725   1.314   1.743  1.7442 -2.5587 -0.9692
  808MOL0     H 9045  -1.980   1.319   1.808 -1.8965 -0.2314  0.4836
  808MOL0     H 9046  -2.137   0.945   1.997 -0.6962  0.2813  1.0591
  808MOL0     H 9047  -2.290   1.024   1.932 -0.2679  0.2443 -1.8636
  808MOL0     H 9048  -2.065   0.881   1.792 -0.3484 -0.3004  1.9489
  808MOL0     H 9049  -2.236   0.849   1.786 -0.2255  0.2911  3.4644
  808MOL0     H 9050  -2.115   1.107   1.655 -2.1737  1.4795  0.0857
  808MOL0     H 9051  -2.283   1.036   1.638 -1.3035 -0.1614  0.4249
  808MOL0     H 9052  -2.044   0.868   1.571  1.0910 -0.1276 -0.1823
  808MOL0     H 9053  -2.213   0.863   1.531 -0.0680  0.2127  1.7714
  808MOL0     H 9054  -2.071   1.120   1.440  0.0023  0.9615 -1.1920
  808MOL0     H 9055  -2.211   1.033   1.380 -0.2105  1.0571 -0.1551
  808MOL0     H 9056  -2.033   1.035   1.212 -0.0231  0.1552  0.2584
  808MOL0     H 9057  -1.909   0.966   1.318  0.6510 -0.4359 -1.5926
  808MOL0     H 9058  -2.156   0.798   1.286 -0.6080 -2.2117 -1.3465
  808MOL0     H 9059  -1.989   0.765   1.318 -1.6591  0.9113  2.2733
  808MOL0     H 9060  -1.928   0.818   1.091 -0.3129  0.4026  0.2776
  808MOL0     H 9061  -2.103   0.855   1.048 -2.2112 -1.1998  1.3954
  808MOL0     H 9062  -1.927   0.949   1.998  1.0667 -1.1972 -0.6643
  808MOL0     H 9063  -1.680   0.948   1.946  1.3748  0.3861 -0.8610
  808MOL0     H 9064  -1.377   0.973   1.830  2.2142 -3.2253  2.2075
  808MOL0     H 9065  -1.118   0.924   1.785 -0.6122  0.7869 -2.5686
  808MOL0     H 9066   0.644   1.387   1.702  3.7686  0.1576  1.2808
  808MOL0     H 9067   0.856   1.332   1.631 -0.3850 -2.4152 -1.6838
  808MOL0     H 9068   1.125   1.355   1.055 -1.3793  3.1474 -1.9148
  808MOL0     H 9069   1.368   1.360   0.992  0.9209 -0.9853 -0.0945
  808MOL0     H 9070   1.618   1.301   0.998 -0.4872  0.5992  0.7702
  808MOL0     H 9071   1.555   1.459   0.948  0.2467  0.9816 -0.5592
  808MOL0     H 9072   1.741   1.567   1.030 -2.8599 -1.1385  2.0126
  808MOL0     H 9073   1.787   1.460   0.893 -2.0830  0.6698 -0.0685
  808MOL0     H 9074   1.845   1.351   1.168  1.3258 -1.9197 -1.0340
  808MOL0     H 9075   1.930   1.490   1.115  2.0906 -0.1148 -2.4221
  808MOL0     H 9076   2.051   1.274   1.058  1.8641  0.6727 -1.0463
  808MOL0     H 9077   2.014   1.352   0.906  0.7510 -1.3479 -0.3734
  808MOL0     H 9078   1.819   1.032   0.794 -1.2492  1.8201  0.7621
  808MOL0     H 9079   1.483   1.501   1.370  0.8001  1.2684 -1.8222
  808MOL0     H 9080   1.223   1.520   1.435  1.5862  0.6230  0.0763
  809MOL0     O 9081  11.076   2.343   6.419  0.4387  0.0248 -0.7571
  809MOL0     C 9082  11.135   2.264   6.343 -0.3365 -0.4578 -0.1466
  809MOL0     O 9083  11.097   2.140   6.302 -0.3794 -0.6174 -0.2549
  809MOL0     C 9084  10.981   2.090   6.345  0.3258 -1.2467  0.5963
  809MOL0     C 9085  10.945   2.080   6.478 -0.1103 -0.4948 -0.6450
  809MOL0     C 9086  10.820   2.024   6.514  0.1370  0.2100  0.2167
  809MOL0     C 9087  10.729   1.992   6.417  0.2824  0.1998  0.3619
  809MOL0     O 9088  10.611   1.950   6.460 -0.2582  0.0071  0.1319
  809MOL0     C 9089  10.516   1.890   6.369  0.1141  0.3314  0.1134
  809MOL0     C 9090  10.398   1.847   6.470 -0.6468 -0.2486  0.6055
  809MOL0     C 9091  10.325   1.966   6.529  0.8129 -0.1721 -0.1087
  809MOL0     C 9092  10.193   1.924   6.600 -0.8127 -0.0959  0.1542
  809MOL0     C 9093  10.097   2.041   6.607 -0.1508  1.0766 -0.2295
  809MOL0     C 9094   9.960   2.014   6.669  0.0664  0.0970  0.5825
  809MOL0     C 9095   9.867   1.940   6.567  0.3127  0.9565 -0.0249
  809MOL0     C 9096   9.713   1.963   6.599 -1.5698 -0.3298  0.1934
  809MOL0     N 9097   9.640   1.902   6.482  0.3079 -0.4908  0.4438
  809MOL0     C 9098   9.581   1.974   6.380  0.6074 -0.1594  0.0948
  809MOL0     C 9099   9.564   1.886   6.282  0.3488  0.6177  0.5652
  809MOL0     C 9100   9.545   1.916   6.132  0.5493  0.6049  0.4652
  809MOL0     C 9101   9.408   1.868   6.072  0.1020  0.1186  0.2414
  809MOL0     C 9102   9.406   1.886   5.920  0.3346 -0.4907  0.3262
  809MOL0     C 9103   9.279   1.834   5.861  0.1748 -0.2319  0.6449
  809MOL0     O 9104   9.164   1.885   5.931 -0.8203  0.7184  0.3874
  809MOL0     C 9105   9.040   1.875   5.875 -0.4659  0.7139  0.2284
  809MOL0     C 9106   8.941   1.939   5.940 -0.0498 -0.4197  1.0822
  809MOL0     C 9107   8.809   1.933   5.900  0.6444  0.4449 -0.3779
  809MOL0     C 9108   8.704   2.004   5.981 -0.0765 -0.4994  0.1850
  809MOL0     C 9109   8.771   1.865   5.787 -0.3349  0.3743 -0.4226
  809MOL0     C 9110   8.631   1.863   5.733 -0.1675  0.4222  1.4452
  809MOL0     O 9111   8.556   1.975   5.741  0.7967 -0.4526 -0.1469
  809MOL0     C 9112   8.427   1.980   5.691  0.0643  0.3080  0.1060
  809MOL0     C 9113   8.323   1.885   5.717 -0.3762 -0.4418 -0.8031
  809MOL0     C 9114   8.202   1.897   5.650 -0.2072  0.5381 -0.6037
  809MOL0     C 9115   8.168   2.008   5.572 -0.1950  0.3139  1.4360
  809MOL0     O 9116   8.047   2.041   5.526  0.3209 -0.2240  0.5478
  809MOL0     C 9117   7.947   1.985   5.610 -0.0659 -0.0268 -0.8917
  809MOL0     C 9118   7.812   2.061   5.597 -0.0836  0.1630  0.1471
  809MOL0     C 9119   7.693   2.002   5.673  1.0314  0.1588 -0.0139
  809MOL0     C 9120   7.600   2.112   5.728  0.0922  0.8994  0.1242
  809MOL0     C 9121   7.552   2.218   5.626  0.0202 -0.6528 -0.0154
  809MOL0     C 9122   7.488   2.177   5.494  0.3677  0.0164 -0.7319
  809MOL0     C 9123   7.375   2.068   5.506  0.9072 -0.9102 -0.1166
  809MOL0     C 9124   7.254   2.112   5.588 -0.0810 -0.2619  0.4415
  809MOL0    Cl 9125   7.147   1.962   5.592 -0.3983  0.1436  0.1233
  809MOL0     C 9126   8.270   2.100   5.541  0.1470 -0.1503 -0.1401
  809MOL0     C 9127   8.395   2.084   5.601  0.7030  0.3023  0.2527
  809MOL0     O 9128   8.601   1.762   5.673 -0.5851 -0.7350  0.4676
  809MOL0     C 9129   8.877   1.812   5.710  0.2175 -0.1854  0.0376
  809MOL0     C 9130   9.010   1.814   5.748  0.9158  0.7173 -0.8053
  809MOL0     N 9131   9.591   1.757   6.332 -0.9645 -1.0225  0.5588
  809MOL0     N 9132   9.650   1.772   6.447  1.0136  0.7352  0.2614
  809MOL0     C 9133  10.770   1.995   6.283  0.2597  0.0688  0.5527
  809MOL0     C 9134  10.894   2.040   6.246  0.2474 -0.7887  0.5016
  809MOL0     C 9135  11.260   2.308   6.291 -0.1168  0.0334  0.0650
  809MOL0     C 9136  11.293   2.442   6.274 -0.5146 -0.4072  0.5308
  809MOL0     C 9137  11.420   2.476   6.218  0.7877 -0.6769  0.2372
  809MOL0     C 9138  11.521   2.385   6.191  0.2660  0.1914  0.1820
  809MOL0     O 9139  11.629   2.443   6.131 -0.3486 -0.4661 -0.0741
  809MOL0     C 9140  11.731   2.349   6.088 -0.5966  0.6024  0.3991
  809MOL0     C 9141  11.864   2.421   6.054  0.4464  0.0761  0.1554
  809MOL0     C 9142  11.942   2.475   6.172 -0.8269 -0.5588 -0.1527
  809MOL0     C 9143  12.056   2.555   6.130 -0.6949 -0.9350  0.1559
  809MOL0     C 9144  12.171   2.545   6.230  0.3928  0.2265  0.6101
  809MOL0     C 9145  12.262   2.534   6.317  0.2094 -0.7450  0.0188
  809MOL0     C 9146  11.492   2.248   6.213 -0.5283 -0.3345 -0.0315
  809MOL0     C 9147  11.364   2.213   6.258  0.4263  0.1154 -0.2193
  809MOL0     H 9148  11.020   2.108   6.551 -2.3052  2.7026  0.5776
  809MOL0     H 9149  10.792   2.013   6.618 -1.9664  2.0565 -0.0774
  809MOL0     H 9150  10.480   1.952   6.287  1.1613 -0.1444 -0.7275
  809MOL0     H 9151  10.563   1.803   6.322  0.4865  0.7988 -0.3833
  809MOL0     H 9152  10.323   1.780   6.426 -3.6557  3.0483  0.2785
  809MOL0     H 9153  10.455   1.791   6.544  1.2607  1.1303  0.2492
  809MOL0     H 9154  10.384   2.025   6.600  1.7970 -0.3367 -0.7667
  809MOL0     H 9155  10.305   2.038   6.449  0.5694  1.3561  1.2722
  809MOL0     H 9156  10.147   1.847   6.537  1.5217 -0.1482 -1.5948
  809MOL0     H 9157  10.211   1.875   6.696 -0.1957 -2.5001 -1.1292
  809MOL0     H 9158  10.145   2.117   6.669  1.0459 -0.5030  0.8507
  809MOL0     H 9159  10.076   2.087   6.510 -0.5635  0.3277 -0.5014
  809MOL0     H 9160   9.958   1.969   6.769  0.6410  1.0707  1.0515
  809MOL0     H 9161   9.915   2.111   6.692  1.5747  0.4078  2.4431
  809MOL0     H 9162   9.892   1.985   6.471  3.5641  3.0871  1.6529
  809MOL0     H 9163   9.888   1.833   6.563 -0.7504  0.5456  2.7555
  809MOL0     H 9164   9.694   2.070   6.609  0.6145  0.1083  0.0547
  809MOL0     H 9165   9.684   1.913   6.692 -1.5818 -1.4689 -0.4078
  809MOL0     H 9166   9.558   2.080   6.372  1.2171  0.1007  1.5791
  809MOL0     H 9167   9.562   2.021   6.110 -1.7774  0.6488 -1.5275
  809MOL0     H 9168   9.620   1.864   6.071 -0.5445  1.2003 -1.4821
  809MOL0     H 9169   9.326   1.920   6.123  0.9573  1.9358 -0.1565
  809MOL0     H 9170   9.399   1.763   6.102 -0.1234  0.0625 -0.0189
  809MOL0     H 9171   9.486   1.828   5.872 -1.6597 -4.4895  1.4451
  809MOL0     H 9172   9.417   1.993   5.898  1.3706 -0.7840 -0.7567
  809MOL0     H 9173   9.276   1.725   5.858 -0.2070 -0.2203  0.4611
  809MOL0     H 9174   9.280   1.867   5.756  4.2453  0.0304  0.6095
  809MOL0     H 9175   8.948   1.992   6.034 -1.1458  1.3530  0.2060
  809MOL0     H 9176   8.601   1.968   5.977 -0.4051  0.5435 -2.1958
  809MOL0     H 9177   8.736   1.994   6.085  2.4337  5.0739  0.3192
  809MOL0     H 9178   8.699   2.113   5.969  0.0689 -0.3841  1.0990
  809MOL0     H 9179   8.325   1.798   5.783 -1.3201 -0.2348 -0.4766
  809MOL0     H 9180   8.130   1.820   5.675  1.7370 -1.6606 -1.4493
  809MOL0     H 9181   7.927   1.880   5.589 -1.2248  0.2136 -1.0705
  809MOL0     H 9182   7.963   1.984   5.718 -3.1760 -1.4008 -0.3348
  809MOL0     H 9183   7.836   2.163   5.628  0.4271  1.0881 -2.9033
  809MOL0     H 9184   7.788   2.062   5.490 -2.4086 -2.6021  0.5378
  809MOL0     H 9185   7.736   1.951   5.760 -1.1354 -1.6612  0.0838
  809MOL0     H 9186   7.642   1.927   5.612  0.4687  1.2028 -0.8567
  809MOL0     H 9187   7.512   2.059   5.764  0.3828  1.6543  2.0921
  809MOL0     H 9188   7.643   2.162   5.815  0.4560  1.4480 -0.3613
  809MOL0     H 9189   7.628   2.291   5.596 -0.2749 -0.8078 -1.1630
  809MOL0     H 9190   7.483   2.282   5.682 -1.4725 -3.1433  1.1373
  809MOL0     H 9191   7.446   2.270   5.455  1.1925  1.2027  1.0823
  809MOL0     H 9192   7.568   2.134   5.432 -0.2676 -1.8499 -0.3271
  809MOL0     H 9193   7.410   1.972   5.546 -2.6483 -1.7679  1.3416
  809MOL0     H 9194   7.342   2.042   5.405 -1.5593 -0.5305  0.5140
  809MOL0     H 9195   7.205   2.203   5.550 -2.0065 -1.4655 -0.0858
  809MOL0     H 9196   7.279   2.127   5.693  0.6081  2.9772 -0.0667
  809MOL0     H 9197   8.231   2.187   5.490 -0.7695 -1.1662 -1.2316
  809MOL0     H 9198   8.468   2.163   5.584  2.8940 -1.6147  0.1646
  809MOL0     H 9199   8.841   1.781   5.612 -0.4232  0.5462  0.0262
  809MOL0     H 9200   9.079   1.765   5.681  0.9439  0.6149 -0.7023
  809MOL0     H 9201  10.697   1.949   6.216 -2.4807 -0.9267  3.9199
  809MOL0     H 9202  10.921   2.044   6.141  0.0590  0.0501  0.4766
  809MOL0     H 9203  11.229   2.516   6.320 -1.1736 -2.2698  2.7763
  809MOL0     H 9204  11.447   2.581   6.217 -3.5152  0.6272  0.0812
  809MOL0     H 9205  11.749   2.273   6.165 -1.0606  0.4980  0.4092
  809MOL0     H 9206  11.690   2.300   5.999 -0.3326 -0.2213  0.7283
  809MOL0     H 9207  11.843   2.503   5.984 -1.9726  0.0852  0.7925
  809MOL0     H 9208  11.922   2.343   6.003 -2.1674 -1.1794 -1.1129
  809MOL0     H 9209  11.966   2.388   6.235 -1.7485 -0.6268  0.1157
  809MOL0     H 9210  11.876   2.543   6.226  0.6259  1.8828 -1.3129
  809MOL0     H 9211  12.029   2.661   6.132 -1.7831 -1.1535 -1.5037
  809MOL0     H 9212  12.087   2.545   6.026 -1.0787 -0.1654 -0.0344
  809MOL0     H 9213  12.348   2.532   6.381  0.7734  1.7873 -0.5560
  809MOL0     H 9214  11.561   2.167   6.193 -1.1687 -1.5061  2.0971
  809MOL0     H 9215  11.353   2.107   6.278  1.0368  0.0421 -0.2266
  810MOL0     O 9216   3.349   3.029   7.143 -0.6488 -0.0434 -0.2116
  810MOL0     C 9217   3.428   3.123   7.108  0.1432 -0.1542 -0.0505
  810MOL0     O 9218   3.409   3.251   7.130  0.1087 -0.7242  0.0973
  810MOL0     C 9219   3.288   3.293   7.176  0.3786 -0.5167 -0.5064
  810MOL0     C 9220   3.170   3.251   7.107 -0.2554  0.9374 -0.1707
  810MOL0     C 9221   3.046   3.260   7.170  0.5142 -0.3111  0.1015
  810MOL0     C 9222   3.035   3.332   7.291  0.7187  0.6198 -0.2580
  810MOL0     O 9223   2.909   3.332   7.348 -0.1740  0.0831  0.0572
  810MOL0     C 9224   2.862   3.421   7.445 -0.7262  0.3045 -0.3271
  810MOL0     C 9225   2.719   3.451   7.408  0.6625 -0.2170  0.5906
  810MOL0     C 9226   2.616   3.342   7.459  0.4234  0.1288 -0.0815
  810MOL0     C 9227   2.587   3.352   7.609 -0.4214  0.7465 -0.4039
  810MOL0     C 9228   2.485   3.250   7.654 -0.4442 -0.3040 -0.1199
  810MOL0     C 9229   2.475   3.257   7.807 -0.3766  0.2511 -0.3435
  810MOL0     C 9230   2.357   3.179   7.867  0.4192 -0.2012  0.6761
  810MOL0     C 9231   2.365   3.026   7.851 -0.8493 -0.1079  0.5325
  810MOL0     N 9232   2.244   2.957   7.903  0.1552 -0.0308 -1.0482
  810MOL0     C 9233   2.212   2.955   8.032  1.1349  0.1940 -0.1056
  810MOL0     C 9234   2.089   2.893   8.031  0.3233  0.0575 -1.1652
  810MOL0     C 9235   1.997   2.882   8.152 -0.8533 -0.7470  0.5695
  810MOL0     C 9236   1.856   2.943   8.110  0.3724  0.6667 -0.2857
  810MOL0     C 9237   1.758   2.947   8.223 -0.4055 -0.0549  0.5172
  810MOL0     C 9238   1.715   2.807   8.269  0.9151 -0.1287 -1.0301
  810MOL0     O 9239   1.662   2.817   8.404 -0.1392 -0.1303 -0.1711
  810MOL0     C 9240   1.534   2.772   8.423  0.9856 -0.0030  0.4485
  810MOL0     C 9241   1.467   2.819   8.536  0.4721 -0.1058  0.1788
  810MOL0     C 9242   1.337   2.805   8.560 -0.2912 -0.1405  0.2255
  810MOL0     C 9243   1.279   2.859   8.689 -0.2722 -0.5661  0.2897
  810MOL0     C 9244   1.264   2.727   8.462 -0.3920  0.1929  0.1518
  810MOL0     C 9245   1.117   2.708   8.470 -0.5725 -0.1476  0.2409
  810MOL0     O 9246   1.072   2.617   8.381 -0.9164  0.0825  0.1332
  810MOL0     C 9247   0.938   2.613   8.343  0.0646  0.1760 -0.6546
  810MOL0     C 9248   0.826   2.595   8.433 -0.5641  0.4928  0.4485
  810MOL0     C 9249   0.698   2.586   8.381  0.7872  0.0154  0.3434
  810MOL0     C 9250   0.682   2.578   8.242  0.0747  0.5798 -0.0859
  810MOL0     O 9251   0.555   2.581   8.197  0.0901 -1.1142  0.0195
  810MOL0     C 9252   0.516   2.465   8.125  0.5381  0.8937  0.0569
  810MOL0     C 9253   0.371   2.449   8.144  0.0360  0.4852 -0.0396
  810MOL0     C 9254   0.316   2.310   8.076 -0.6197 -0.0625 -0.5813
  810MOL0     C 9255   0.182   2.296   8.130 -0.0445  0.8092 -0.8128
  810MOL0     C 9256   0.086   2.221   8.025  0.1500 -1.1139 -0.1204
  810MOL0     C 9257  -0.036   2.159   8.096  0.0192  0.0501  0.1433
  810MOL0     C 9258  -0.118   2.083   7.992 -0.0855  0.8710  0.3060
  810MOL0     C 9259  -0.209   1.972   8.050  0.3779 -0.0853 -0.1077
  810MOL0    Cl 9260  -0.338   1.943   7.926 -0.0072  0.3241  0.1601
  810MOL0     C 9261   0.790   2.580   8.158 -0.4769  0.4544  0.2085
  810MOL0     C 9262   0.921   2.603   8.209 -0.3385 -1.0964 -0.2035
  810MOL0     O 9263   1.047   2.788   8.530  0.4811  0.2199  0.0219
  810MOL0     C 9264   1.332   2.661   8.356 -0.4991  0.6675 -0.1698
  810MOL0     C 9265   1.465   2.684   8.344  0.2227  0.2247  0.5168
  810MOL0     N 9266   2.051   2.859   7.902  0.0996 -0.0168 -0.3259
  810MOL0     N 9267   2.155   2.887   7.825 -0.0647 -0.5502  0.3198
  810MOL0     C 9268   3.145   3.396   7.346  0.8510 -0.7204 -0.3066
  810MOL0     C 9269   3.276   3.369   7.289  0.0122 -0.9128 -0.3470
  810MOL0     C 9270   3.553   3.078   7.037 -0.7654  0.1250 -0.2321
  810MOL0     C 9271   3.608   3.154   6.937 -0.2275  0.9109 -0.0281
  810MOL0     C 9272   3.716   3.106   6.868  0.0475  0.3935  0.5441
  810MOL0     C 9273   3.783   2.991   6.888 -0.0314  0.5223 -0.3412
  810MOL0     O 9274   3.888   2.958   6.804  0.5385 -0.6565 -0.1923
  810MOL0     C 9275   3.962   2.833   6.834  0.5357 -0.2423 -0.3236
  810MOL0     C 9276   4.082   2.810   6.746  0.6027 -0.3861 -0.0426
  810MOL0     C 9277   4.208   2.884   6.769 -1.0481  0.7333 -0.5490
  810MOL0     C 9278   4.338   2.806   6.727 -0.6292  0.3638 -0.1340
  810MOL0     C 9279   4.365   2.682   6.797  0.3585  0.6892  0.9494
  810MOL0     C 9280   4.378   2.576   6.848 -0.0064 -0.0488  0.1314
  810MOL0     C 9281   3.739   2.919   6.992  0.2005  0.3112  0.3934
  810MOL0     C 9282   3.623   2.960   7.066  0.2691 -0.0856 -0.8259
  810MOL0     H 9283   3.170   3.196   7.014  1.2814  3.1647 -1.6052
  810MOL0     H 9284   2.954   3.218   7.129  1.9183 -1.3882 -2.2292
  810MOL0     H 9285   2.856   3.368   7.541 -1.6120  0.0369 -0.5200
  810MOL0     H 9286   2.923   3.512   7.446 -1.2714  0.6868 -1.0864
  810MOL0     H 9287   2.692   3.546   7.454 -0.8555 -1.3533  2.1663
  810MOL0     H 9288   2.716   3.449   7.299  0.4365 -2.3440  0.5841
  810MOL0     H 9289   2.517   3.352   7.414  0.5424 -3.3615 -1.3982
  810MOL0     H 9290   2.653   3.241   7.442  1.0376 -0.0708  2.0746
  810MOL0     H 9291   2.678   3.339   7.670 -0.7968  1.7483  0.4037
  810MOL0     H 9292   2.546   3.452   7.622 -2.2411  0.1791 -1.5014
  810MOL0     H 9293   2.388   3.270   7.606 -0.9013 -1.6206  0.2273
  810MOL0     H 9294   2.521   3.149   7.635 -0.5597 -0.0599 -1.7784
  810MOL0     H 9295   2.571   3.231   7.851 -0.4983  2.0037  1.0451
  810MOL0     H 9296   2.457   3.361   7.835 -0.7602 -0.4306  2.1122
  810MOL0     H 9297   2.358   3.195   7.975  0.5960 -0.6330  0.7389
  810MOL0     H 9298   2.264   3.217   7.824  0.8489  1.3940  1.0651
  810MOL0     H 9299   2.456   2.986   7.898 -1.1901  0.1032  1.3956
  810MOL0     H 9300   2.366   3.000   7.745 -3.7681 -2.0101  0.8615
  810MOL0     H 9301   2.256   3.008   8.116 -3.0754  0.3770  2.2413
  810MOL0     H 9302   1.992   2.774   8.168  2.1923 -0.9710  0.5717
  810MOL0     H 9303   2.033   2.931   8.243 -1.0727 -0.5399  0.5489
  810MOL0     H 9304   1.809   2.890   8.026  0.6226 -1.3833  0.8128
  810MOL0     H 9305   1.866   3.047   8.078  1.9520  0.6205 -0.0095
  810MOL0     H 9306   1.671   2.998   8.182 -2.6100 -1.7050  2.8283
  810MOL0     H 9307   1.810   3.005   8.299 -0.8528 -2.2204  2.6056
  810MOL0     H 9308   1.808   2.752   8.291 -0.5589 -1.7526  1.7619
  810MOL0     H 9309   1.646   2.769   8.194  0.2379  0.6500 -0.8056
  810MOL0     H 9310   1.515   2.876   8.615 -1.3062 -0.3638  1.4811
  810MOL0     H 9311   1.361   2.876   8.759 -0.5966 -2.5586  1.1895
  810MOL0     H 9312   1.240   2.960   8.670  0.9761  0.0618  0.9432
  810MOL0     H 9313   1.207   2.795   8.740 -1.4935  0.1384 -0.5003
  810MOL0     H 9314   0.843   2.589   8.540  3.0581  3.2995  0.2345
  810MOL0     H 9315   0.608   2.584   8.440 -0.2849 -2.0310 -1.2292
  810MOL0     H 9316   0.534   2.471   8.018 -4.3193  0.2664 -1.0256
  810MOL0     H 9317   0.558   2.375   8.170 -3.7227 -1.7868 -0.7300
  810MOL0     H 9318   0.343   2.445   8.249  2.1793 -1.4877  0.5520
  810MOL0     H 9319   0.333   2.541   8.099  1.1019  2.5180  2.8866
  810MOL0     H 9320   0.378   2.229   8.117 -0.7345  0.1783  0.0656
  810MOL0     H 9321   0.323   2.304   7.967  2.2004  0.3081 -0.5130
  810MOL0     H 9322   0.204   2.236   8.219  2.3769 -0.2788 -2.0535
  810MOL0     H 9323   0.130   2.387   8.160 -1.7235 -0.2739 -0.2978
  810MOL0     H 9324   0.142   2.138   7.980  2.4952 -1.7729  3.5583
  810MOL0     H 9325   0.062   2.301   7.954  1.1980 -0.3246  0.4030
  810MOL0     H 9326   0.007   2.094   8.173 -1.6128  0.0575  1.1098
  810MOL0     H 9327  -0.098   2.236   8.143  0.0974  0.8668 -1.0547
  810MOL0     H 9328  -0.060   2.031   7.915 -2.4699 -1.1076 -0.2865
  810MOL0     H 9329  -0.186   2.161   7.958  0.3548  1.3502  0.5167
  810MOL0     H 9330  -0.262   2.011   8.137 -1.6296  2.5472 -2.3291
  810MOL0     H 9331  -0.156   1.876   8.056 -3.3177 -2.4600 -1.6128
  810MOL0     H 9332   0.783   2.578   8.050 -2.3956  1.0506  0.2907
  810MOL0     H 9333   1.010   2.604   8.146 -0.3649 -0.7979 -0.2341
  810MOL0     H 9334   1.287   2.597   8.281 -1.0595  0.0729  0.6454
  810MOL0     H 9335   1.531   2.633   8.274 -0.0054  0.6413 -0.0089
  810MOL0     H 9336   3.131   3.452   7.439 -2.9346 -1.3247 -0.3450
  810MOL0     H 9337   3.362   3.415   7.336 -0.0798 -1.0860 -0.0095
  810MOL0     H 9338   3.542   3.236   6.910 -1.6514  0.0872  0.8497
  810MOL0     H 9339   3.755   3.170   6.790 -0.8343 -1.4836 -1.5413
  810MOL0     H 9340   3.995   2.821   6.937 -1.0495 -0.1066  0.2370
  810MOL0     H 9341   3.889   2.752   6.818  1.4852 -1.6842  2.0091
  810MOL0     H 9342   4.046   2.832   6.645  1.9870  1.1642 -0.2445
  810MOL0     H 9343   4.113   2.708   6.770  1.2771 -0.1039  0.3237
  810MOL0     H 9344   4.224   2.902   6.876  1.8237  0.2917 -0.8100
  810MOL0     H 9345   4.204   2.981   6.718 -0.1850  1.5286  0.7951
  810MOL0     H 9346   4.424   2.873   6.739 -2.4820  2.9270 -0.5597
  810MOL0     H 9347   4.323   2.780   6.622 -2.7281  0.8641  0.0136
  810MOL0     H 9348   4.401   2.492   6.910  0.6905 -0.8118 -1.1397
  810MOL0     H 9349   3.773   2.826   7.035  1.6555  0.8854  0.5578
  810MOL0     H 9350   3.592   2.899   7.150  2.8013 -3.1241 -1.8963
  811MOL0     O 9351   9.710   4.463   0.798  0.0147 -0.0989 -0.7721
  811MOL0     C 9352   9.739   4.527   0.898  0.0129 -0.4862 -0.5975
  811MOL0     O 9353   9.657   4.556   1.002 -0.4949  0.3373 -0.1312
  811MOL0     C 9354   9.533   4.518   1.009  0.4685  1.0569  1.1032
  811MOL0     C 9355   9.451   4.588   1.088 -0.3453  0.1082  0.0103
  811MOL0     C 9356   9.318   4.554   1.107  0.8845 -0.7212 -0.1267
  811MOL0     C 9357   9.263   4.434   1.054 -0.3134 -0.4951  0.3639
  811MOL0     O 9358   9.132   4.385   1.066 -0.4779 -0.7487 -0.0066
  811MOL0     C 9359   9.014   4.465   1.048 -0.5640 -0.1133  0.2649
  811MOL0     C 9360   8.905   4.418   1.144 -0.4944 -0.3710 -0.4860
  811MOL0     C 9361   8.781   4.509   1.133  0.0078  0.7400  0.6949
  811MOL0     C 9362   8.689   4.507   1.255 -0.3468 -0.9223 -0.1418
  811MOL0     C 9363   8.571   4.605   1.248 -0.0199  0.2477 -0.2569
  811MOL0     C 9364   8.476   4.562   1.134 -0.6188 -0.5411  0.0203
  811MOL0     C 9365   8.406   4.433   1.147 -0.1232  0.3073  0.6633
  811MOL0     C 9366   8.288   4.446   1.251  0.2538 -0.4735 -0.6823
  811MOL0     N 9367   8.182   4.345   1.246 -0.0862  0.4756 -0.2924
  811MOL0     C 9368   8.080   4.327   1.144 -0.3473  0.2598  0.6125
  811MOL0     C 9369   8.000   4.235   1.195  0.5616  0.1422  0.3795
  811MOL0     C 9370   7.885   4.170   1.119  0.0105  0.2918  0.3450
  811MOL0     C 9371   7.753   4.204   1.175  0.7633 -0.6269 -0.2512
  811MOL0     C 9372   7.638   4.100   1.148  0.2954  0.2963 -0.0442
  811MOL0     C 9373   7.540   4.112   1.262 -0.6140 -0.2136 -0.1648
  811MOL0     O 9374   7.425   4.038   1.225  0.7342 -0.3947 -0.0352
  811MOL0     C 9375   7.314   4.100   1.176 -0.0119  0.5177 -0.0790
  811MOL0     C 9376   7.321   4.222   1.121 -0.8972 -0.4127  0.8952
  811MOL0     C 9377   7.211   4.304   1.099  0.2156  0.5639  0.4611
  811MOL0     C 9378   7.228   4.448   1.071  0.5495 -0.3109  0.9494
  811MOL0     C 9379   7.081   4.255   1.108 -0.0885  0.0077 -0.2057
  811MOL0     C 9380   6.957   4.321   1.043  0.3805  0.6769  0.1615
  811MOL0     O 9381   6.836   4.267   1.075  0.3574  0.6375  0.4619
  811MOL0     C 9382   6.717   4.329   1.040 -0.3251 -1.0689 -1.2364
  811MOL0     C 9383   6.691   4.454   1.103  0.3984  0.2203 -0.1868
  811MOL0     C 9384   6.571   4.520   1.079  0.6141  0.5546  0.2169
  811MOL0     C 9385   6.467   4.460   1.002  0.9938  0.0135  0.4643
  811MOL0     O 9386   6.341   4.509   0.981  0.4780  0.7984  0.0776
  811MOL0     C 9387   6.311   4.636   1.049 -0.7916  0.8850 -0.7460
  811MOL0     C 9388   6.162   4.651   1.031  0.0738  0.0062 -0.4870
  811MOL0     C 9389   6.120   4.703   0.897  0.5016  0.4699 -0.3367
  811MOL0     C 9390   5.992   4.783   0.911  0.2379  0.0633 -0.9798
  811MOL0     C 9391   5.874   4.707   0.966  0.0245 -0.3174 -0.5129
  811MOL0     C 9392   5.740   4.789   0.950 -0.0683  0.0195  0.5473
  811MOL0     C 9393   5.727   4.904   1.045  0.0147 -0.3829  0.0181
  811MOL0     C 9394   5.694   4.857   1.186 -0.5675  0.4572  0.3513
  811MOL0    Cl 9395   5.617   4.987   1.278 -0.1048 -0.3764 -0.1965
  811MOL0     C 9396   6.496   4.337   0.937 -0.2726  0.2918 -0.6463
  811MOL0     C 9397   6.613   4.269   0.966 -0.0048 -0.0059 -0.5954
  811MOL0     O 9398   6.974   4.400   0.949  0.2329  0.0641 -0.1271
  811MOL0     C 9399   7.075   4.137   1.179  0.3319  0.9862  0.3396
  811MOL0     C 9400   7.189   4.066   1.223 -0.0386  0.3863 -0.7456
  811MOL0     N 9401   8.046   4.204   1.322  0.4065 -0.0236 -0.0337
  811MOL0     N 9402   8.142   4.278   1.354 -0.5212  0.4905 -0.0567
  811MOL0     C 9403   9.347   4.356   0.981  0.6011  0.6003  0.9650
  811MOL0     C 9404   9.481   4.394   0.954  0.4918 -0.4611 -0.9342
  811MOL0     C 9405   9.871   4.585   0.902 -0.0184 -0.8295  0.1415
  811MOL0     C 9406   9.919   4.655   1.017 -0.0176  1.1315 -0.1493
  811MOL0     C 9407  10.055   4.687   1.027  0.5794 -0.0701 -0.7034
  811MOL0     C 9408  10.139   4.673   0.924  0.1214 -0.1985 -0.8315
  811MOL0     O 9409  10.262   4.724   0.921 -0.7283  0.3087 -0.6822
  811MOL0     C 9410  10.308   4.780   1.045 -0.1167  0.0695 -0.1805
  811MOL0     C 9411  10.447   4.840   1.033  0.8063  0.1544 -0.3249
  811MOL0     C 9412  10.553   4.728   1.032  0.6147  1.0048  0.5825
  811MOL0     C 9413  10.692   4.785   1.017 -0.2587  0.3040  0.0683
  811MOL0     C 9414  10.730   4.868   1.138  0.0373 -0.7428 -0.1282
  811MOL0     C 9415  10.762   4.924   1.240 -0.4027  0.1232  0.0106
  811MOL0     C 9416  10.103   4.602   0.810  0.2717  0.4820 -0.2505
  811MOL0     C 9417   9.969   4.563   0.797 -0.3402  0.3440 -0.4214
  811MOL0     H 9418   9.489   4.674   1.143  0.9801 -0.1380 -0.4980
  811MOL0     H 9419   9.266   4.620   1.177 -0.0814  1.0070 -2.3427
  811MOL0     H 9420   9.037   4.569   1.071 -3.6014  0.8805 -0.7015
  811MOL0     H 9421   8.985   4.452   0.943 -1.4421 -1.2033  0.6271
  811MOL0     H 9422   8.873   4.314   1.135 -0.9392 -0.2682 -0.1560
  811MOL0     H 9423   8.938   4.426   1.248 -2.0640  0.5683 -0.0117
  811MOL0     H 9424   8.815   4.612   1.121  0.2168  0.4862 -1.1697
  811MOL0     H 9425   8.730   4.471   1.044  2.0549 -1.4829  0.3389
  811MOL0     H 9426   8.644   4.409   1.274 -1.8472 -0.6278 -1.8660
  811MOL0     H 9427   8.749   4.533   1.343 -1.0536  4.8783 -0.9477
  811MOL0     H 9428   8.515   4.590   1.341 -1.3688  2.8449 -0.5722
  811MOL0     H 9429   8.606   4.708   1.244  1.0841 -0.0773  0.5835
  811MOL0     H 9430   8.407   4.644   1.111  1.8302  1.2853 -1.1759
  811MOL0     H 9431   8.540   4.565   1.046  0.2673  4.8802  0.5620
  811MOL0     H 9432   8.370   4.393   1.051  1.7280 -0.9298  0.4067
  811MOL0     H 9433   8.463   4.344   1.178 -2.1168 -1.2890 -0.0384
  811MOL0     H 9434   8.250   4.547   1.240  1.1842  0.3131  2.3174
  811MOL0     H 9435   8.321   4.444   1.355  2.2985 -3.1740 -1.2664
  811MOL0     H 9436   8.083   4.367   1.043 -0.6214  3.6608  1.8258
  811MOL0     H 9437   7.882   4.207   1.016 -1.0014  4.0604  1.5413
  811MOL0     H 9438   7.903   4.063   1.120 -0.5862  0.1899  1.4683
  811MOL0     H 9439   7.716   4.304   1.150 -1.6950 -0.9871  1.4849
  811MOL0     H 9440   7.770   4.211   1.283  2.7026  1.2553 -0.6200
  811MOL0     H 9441   7.671   3.998   1.128  0.2947  0.3005 -0.0689
  811MOL0     H 9442   7.583   4.137   1.060  0.4160 -1.5800 -0.9755
  811MOL0     H 9443   7.511   4.216   1.280 -3.7335 -0.2661 -3.7008
  811MOL0     H 9444   7.582   4.065   1.351 -2.7379 -1.3921  0.3027
  811MOL0     H 9445   7.413   4.278   1.107 -1.3642  0.0342 -0.5834
  811MOL0     H 9446   7.326   4.491   1.097 -0.0276  2.6001 -1.1498
  811MOL0     H 9447   7.222   4.467   0.964  1.4662  0.0660  0.9581
  811MOL0     H 9448   7.152   4.509   1.121  0.1401 -0.3718  0.4045
  811MOL0     H 9449   6.767   4.510   1.158 -0.3094 -0.4045  1.4876
  811MOL0     H 9450   6.569   4.625   1.107  0.9739  0.8115 -0.6929
  811MOL0     H 9451   6.340   4.624   1.154  1.3823 -0.6508 -1.4350
  811MOL0     H 9452   6.372   4.718   1.012 -0.1304  0.4291 -0.6977
  811MOL0     H 9453   6.111   4.555   1.035  1.2603 -0.6651 -0.9948
  811MOL0     H 9454   6.120   4.705   1.116 -0.8784  1.0826 -1.5889
  811MOL0     H 9455   6.110   4.617   0.830  4.7123  0.0427 -0.6513
  811MOL0     H 9456   6.201   4.763   0.856  0.4276  1.6625  1.1631
  811MOL0     H 9457   6.008   4.873   0.971  0.0712 -1.8388  2.1233
  811MOL0     H 9458   5.958   4.812   0.811 -1.7484  3.3430  0.4668
  811MOL0     H 9459   5.896   4.672   1.067  3.8899  2.4034 -0.2189
  811MOL0     H 9460   5.862   4.619   0.902  0.4498  1.1944 -2.8177
  811MOL0     H 9461   5.725   4.820   0.846  0.0180  2.5688  1.2197
  811MOL0     H 9462   5.659   4.718   0.968  0.9594 -1.5098 -0.6394
  811MOL0     H 9463   5.650   4.974   1.011 -0.5467 -0.6961  0.6098
  811MOL0     H 9464   5.818   4.963   1.048 -1.4607  2.1242  4.5188
  811MOL0     H 9465   5.779   4.822   1.246  0.4009  1.0808 -0.6212
  811MOL0     H 9466   5.623   4.774   1.192  0.8591 -1.0182 -1.7513
  811MOL0     H 9467   6.418   4.291   0.877  0.1164  0.8373 -1.6001
  811MOL0     H 9468   6.610   4.175   0.912 -1.4923 -1.3274  1.6266
  811MOL0     H 9469   6.976   4.101   1.206  0.4599 -0.1479 -0.5891
  811MOL0     H 9470   7.175   3.980   1.288  0.6935 -0.1448 -1.2763
  811MOL0     H 9471   9.315   4.255   0.958  2.9570  0.1064 -0.4583
  811MOL0     H 9472   9.539   4.325   0.893 -2.4452 -2.0695 -2.0630
  811MOL0     H 9473   9.851   4.646   1.101  0.8234  0.5216  0.4861
  811MOL0     H 9474  10.088   4.723   1.124 -2.7250  3.4577 -0.6095
  811MOL0     H 9475  10.241   4.861   1.074  1.5082  2.5778 -2.8801
  811MOL0     H 9476  10.305   4.704   1.123 -1.4442 -1.4976 -1.6939
  811MOL0     H 9477  10.453   4.911   1.116 -0.0903 -0.1117 -0.0250
  811MOL0     H 9478  10.464   4.893   0.938  1.4127  3.5145  1.4819
  811MOL0     H 9479  10.533   4.663   0.947  0.5964 -0.1365  1.4353
  811MOL0     H 9480  10.539   4.676   1.127 -1.9379  0.8555  0.1879
  811MOL0     H 9481  10.700   4.841   0.923  1.7646  0.3749  0.2447
  811MOL0     H 9482  10.762   4.702   1.001 -3.0230 -2.3945  0.7960
  811MOL0     H 9483  10.806   4.960   1.331  0.6132  0.3448 -0.5463
  811MOL0     H 9484  10.176   4.592   0.730  0.4877  0.6890 -0.0799
  811MOL0     H 9485   9.940   4.510   0.706  2.8176 -2.3373 -0.0868
  812MOL0     O 9486   2.002   1.363   3.050 -0.1963 -0.3101  0.4316
  812MOL0     C 9487   2.015   1.284   3.141 -0.4107  0.5593 -0.1486
  812MOL0     O 9488   2.121   1.203   3.162  0.0151 -0.0024 -0.0343
  812MOL0     C 9489   2.229   1.189   3.075  0.7444 -0.3143  0.0059
  812MOL0     C 9490   2.345   1.155   3.141 -0.4133 -0.0216  0.3368
  812MOL0     C 9491   2.471   1.139   3.076  0.1623  0.3115  0.4816
  812MOL0     C 9492   2.470   1.152   2.939 -0.8368 -0.1602 -0.4316
  812MOL0     O 9493   2.585   1.129   2.869  0.3016  0.5946 -0.6034
  812MOL0     C 9494   2.681   1.035   2.922  0.4513 -0.5059  0.2526
  812MOL0     C 9495   2.789   1.002   2.813 -0.1865  0.3567 -0.2334
  812MOL0     C 9496   2.721   0.923   2.698  0.1119  0.4319  0.3188
  812MOL0     C 9497   2.830   0.868   2.604  0.0675 -0.1357  1.1056
  812MOL0     C 9498   2.812   0.718   2.568  0.0332 -0.7835  0.2235
  812MOL0     C 9499   2.682   0.696   2.495 -0.7815  0.3705 -0.3628
  812MOL0     C 9500   2.682   0.551   2.440 -0.0159 -0.0186  0.0130
  812MOL0     C 9501   2.718   0.433   2.531 -0.0609  0.2111  0.0015
  812MOL0     N 9502   2.622   0.396   2.635 -0.3719 -0.4588 -0.6991
  812MOL0     C 9503   2.505   0.335   2.606  0.4564  0.1157 -0.3265
  812MOL0     C 9504   2.439   0.309   2.724 -0.1634  0.2638  0.5637
  812MOL0     C 9505   2.311   0.241   2.745 -0.0842  0.4383  0.7584
  812MOL0     C 9506   2.187   0.337   2.765 -1.0515 -0.2317 -0.5170
  812MOL0     C 9507   2.058   0.254   2.789 -0.2242  0.0320  0.4858
  812MOL0     C 9508   1.940   0.329   2.850 -0.3946  0.1034 -0.4649
  812MOL0     O 9509   1.832   0.249   2.804 -0.4351  0.0049 -0.6813
  812MOL0     C 9510   1.707   0.281   2.848  0.2145 -0.4613 -0.4736
  812MOL0     C 9511   1.682   0.319   2.980  0.5052 -0.4846  0.1119
  812MOL0     C 9512   1.552   0.334   3.027 -0.1493 -0.6230  0.6570
  812MOL0     C 9513   1.540   0.396   3.169  0.1365  0.4143  0.2629
  812MOL0     C 9514   1.450   0.309   2.940 -0.3932 -0.3472  0.7327
  812MOL0     C 9515   1.305   0.333   2.979  0.6215  0.2461 -0.0554
  812MOL0     O 9516   1.264   0.374   3.104  0.9555 -0.2824 -0.4819
  812MOL0     C 9517   1.131   0.371   3.127 -0.8955  0.9119  0.4994
  812MOL0     C 9518   1.073   0.244   3.122  0.8766  0.3857  0.4187
  812MOL0     C 9519   0.940   0.220   3.144 -0.2139 -0.4129  0.1112
  812MOL0     C 9520   0.856   0.326   3.176 -0.7128 -0.3089  0.1114
  812MOL0     O 9521   0.720   0.323   3.176 -0.2014  0.2600 -0.0846
  812MOL0     C 9522   0.638   0.395   3.269  0.7117  0.5402  0.7914
  812MOL0     C 9523   0.487   0.369   3.254  0.9307  0.3699  0.3913
  812MOL0     C 9524   0.438   0.232   3.298 -0.1349  0.4352  0.4866
  812MOL0     C 9525   0.293   0.240   3.334  0.0563 -0.3820 -0.5054
  812MOL0     C 9526   0.254   0.092   3.370  0.5878  0.0343 -0.5451
  812MOL0     C 9527   0.109   0.079   3.426 -0.0605 -0.1687  0.2299
  812MOL0     C 9528   0.088  -0.064   3.466 -0.1749 -0.5132 -0.1056
  812MOL0     C 9529   0.015  -0.079   3.600 -0.6244  0.7095  0.0090
  812MOL0    Cl 9530  -0.150   0.004   3.585  0.5609 -0.3999 -0.0603
  812MOL0     C 9531   0.910   0.453   3.202 -0.6616 -0.7062 -0.1184
  812MOL0     C 9532   1.047   0.471   3.181  0.2957  0.1221  0.3411
  812MOL0     O 9533   1.225   0.317   2.886  0.4615  0.2028  0.6793
  812MOL0     C 9534   1.480   0.270   2.800  0.6767 -0.0911  0.3644
  812MOL0     C 9535   1.605   0.258   2.762  0.5105 -0.6540 -0.3156
  812MOL0     N 9536   2.521   0.361   2.824 -0.4446 -0.0159 -0.9337
  812MOL0     N 9537   2.629   0.424   2.773  0.0982  0.5098  0.5262
  812MOL0     C 9538   2.359   1.203   2.877  0.2763  0.4117 -0.6078
  812MOL0     C 9539   2.232   1.213   2.938 -0.5203 -0.0397  0.3554
  812MOL0     C 9540   1.893   1.262   3.226 -0.4996  0.3190 -0.3548
  812MOL0     C 9541   1.773   1.335   3.196 -0.2936  0.1483  0.2216
  812MOL0     C 9542   1.663   1.332   3.289  0.0697  0.5823  0.8945
  812MOL0     C 9543   1.666   1.239   3.389 -0.4037  0.0245 -1.0393
  812MOL0     O 9544   1.557   1.212   3.477  0.4406 -0.0140  0.2837
  812MOL0     C 9545   1.429   1.282   3.463  0.3612 -0.0295 -0.7803
  812MOL0     C 9546   1.342   1.261   3.588  0.1464  1.1197  0.3479
  812MOL0     C 9547   1.424   1.297   3.715  0.2529  0.4935 -1.3125
  812MOL0     C 9548   1.353   1.250   3.841 -0.1657  0.2017  0.3137
  812MOL0     C 9549   1.223   1.316   3.841 -0.6951 -0.1008 -0.0603
  812MOL0     C 9550   1.109   1.362   3.842 -0.4734  0.8970 -0.6710
  812MOL0     C 9551   1.779   1.159   3.410  0.9534  0.4460 -0.5213
  812MOL0     C 9552   1.889   1.170   3.337 -0.4951 -0.1825 -0.8776
  812MOL0     H 9553   2.341   1.159   3.249 -0.1551 -2.1670  0.4748
  812MOL0     H 9554   2.558   1.112   3.135 -0.6787  2.0014  2.6285
  812MOL0     H 9555   2.735   1.084   3.003  0.9267 -1.1202  0.3068
  812MOL0     H 9556   2.629   0.941   2.943 -0.1861 -0.3491 -0.5952
  812MOL0     H 9557   2.823   1.102   2.784 -2.8007  0.8274 -2.0149
  812MOL0     H 9558   2.870   0.944   2.859  0.1008  1.2874  0.4806
  812MOL0     H 9559   2.667   0.837   2.740  0.0734 -0.3819 -1.2941
  812MOL0     H 9560   2.650   0.985   2.642 -0.9495  0.3274  1.5057
  812MOL0     H 9561   2.831   0.923   2.509  0.0906 -4.0123 -1.3494
  812MOL0     H 9562   2.932   0.883   2.641  0.7527  0.9042 -1.0338
  812MOL0     H 9563   2.898   0.692   2.505 -0.6844 -2.4090 -0.1605
  812MOL0     H 9564   2.825   0.660   2.660  1.0597 -2.6600 -1.0189
  812MOL0     H 9565   2.599   0.694   2.566  1.5677 -5.3445  2.8545
  812MOL0     H 9566   2.662   0.766   2.413  1.1520  1.0383 -0.3133
  812MOL0     H 9567   2.581   0.528   2.404  0.9042 -2.5622 -1.1967
  812MOL0     H 9568   2.760   0.543   2.363 -1.2802  0.6431 -1.4063
  812MOL0     H 9569   2.812   0.458   2.581  0.5588  0.9663 -1.4699
  812MOL0     H 9570   2.723   0.345   2.466 -3.4362  0.6047 -1.0281
  812MOL0     H 9571   2.472   0.328   2.503 -1.7460 -0.2187  0.3445
  812MOL0     H 9572   2.291   0.160   2.675 -2.0642  0.7686  0.8781
  812MOL0     H 9573   2.325   0.184   2.837 -2.0737 -2.2394 -0.4848
  812MOL0     H 9574   2.174   0.405   2.680  0.3553 -0.2886 -0.7969
  812MOL0     H 9575   2.203   0.401   2.853  3.6365 -0.2754 -1.0904
  812MOL0     H 9576   2.087   0.172   2.855  2.8639  1.6525  1.2928
  812MOL0     H 9577   2.029   0.209   2.693  1.4336 -1.5930  0.7119
  812MOL0     H 9578   1.943   0.432   2.813 -0.5269  0.1685 -0.2992
  812MOL0     H 9579   1.943   0.341   2.959 -0.4034  0.1067 -0.4651
  812MOL0     H 9580   1.765   0.328   3.049  0.6033 -3.8265  0.5702
  812MOL0     H 9581   1.485   0.344   3.247  1.0799 -0.7872  0.1483
  812MOL0     H 9582   1.642   0.404   3.210 -0.1308  1.2783  0.7830
  812MOL0     H 9583   1.499   0.497   3.164  0.8139  0.7248  0.7579
  812MOL0     H 9584   1.131   0.156   3.096  0.8088  0.1389  1.0678
  812MOL0     H 9585   0.893   0.122   3.145 -2.6769  0.7027  0.0714
  812MOL0     H 9586   0.663   0.365   3.371  0.8682 -0.7771  0.3853
  812MOL0     H 9587   0.654   0.503   3.262  2.0815  0.2896 -0.6102
  812MOL0     H 9588   0.441   0.441   3.322 -1.0652 -2.1350  1.8502
  812MOL0     H 9589   0.436   0.384   3.159 -3.8107 -1.7011  2.3140
  812MOL0     H 9590   0.502   0.200   3.381  3.7000 -0.7606 -2.5930
  812MOL0     H 9591   0.446   0.158   3.218 -2.1789 -1.0056  1.5326
  812MOL0     H 9592   0.277   0.302   3.422  0.7427 -1.0787  0.1284
  812MOL0     H 9593   0.230   0.277   3.253  2.7281  0.3710 -2.3871
  812MOL0     H 9594   0.318   0.067   3.455 -3.4797 -1.7599  2.3729
  812MOL0     H 9595   0.256   0.012   3.295 -1.5365 -4.3640  3.4760
  812MOL0     H 9596   0.099   0.147   3.510 -2.2625 -0.9030  0.6140
  812MOL0     H 9597   0.042   0.106   3.344  1.3859  1.1881 -0.5548
  812MOL0     H 9598   0.188  -0.103   3.486  1.6959  4.3830  1.3782
  812MOL0     H 9599   0.041  -0.123   3.386 -3.1248 -0.0973  1.1663
  812MOL0     H 9600   0.077  -0.047   3.683  0.0658  0.6176 -0.4618
  812MOL0     H 9601  -0.004  -0.183   3.629  0.4027  0.1478 -1.2176
  812MOL0     H 9602   0.851   0.543   3.212  2.0007  0.9121  2.3976
  812MOL0     H 9603   1.078   0.573   3.203 -2.3120  1.1276 -0.3168
  812MOL0     H 9604   1.406   0.249   2.724  1.2187 -3.3205  0.5642
  812MOL0     H 9605   1.632   0.227   2.661  1.5236  0.2521 -0.3451
  812MOL0     H 9606   2.358   1.222   2.770  0.1620 -0.6500 -0.7989
  812MOL0     H 9607   2.141   1.222   2.880 -1.2943 -1.2793  1.3253
  812MOL0     H 9608   1.765   1.390   3.103 -1.1186 -2.4353 -1.3273
  812MOL0     H 9609   1.577   1.396   3.272  0.5352  0.2730 -4.2888
  812MOL0     H 9610   1.444   1.390   3.454 -1.3609  0.2982 -0.0029
  812MOL0     H 9611   1.377   1.246   3.373 -2.3991  0.5858  0.4726
  812MOL0     H 9612   1.309   1.157   3.587  2.3508  0.3266  2.4338
  812MOL0     H 9613   1.251   1.322   3.593  0.8678  2.3047 -0.5872
  812MOL0     H 9614   1.436   1.405   3.732  0.1458  0.1863  1.1346
  812MOL0     H 9615   1.522   1.250   3.715  0.0111 -0.1686  1.0997
  812MOL0     H 9616   1.424   1.279   3.919  0.3866  0.1233 -0.1588
  812MOL0     H 9617   1.338   1.141   3.843 -0.8892  0.0775 -3.8601
  812MOL0     H 9618   1.027   1.430   3.846 -0.5028  0.9284 -1.6683
  812MOL0     H 9619   1.767   1.101   3.501 -0.6050 -1.6853 -1.9929
  812MOL0     H 9620   1.972   1.108   3.369 -2.0201 -1.1079  1.6575
  813MOL0     O 9621   3.480   4.080   4.441  0.2111 -0.1719 -0.0338
  813MOL0     C 9622   3.525   3.993   4.518 -0.2838 -0.7303 -0.1558
  813MOL0     O 9623   3.455   3.888   4.576 -0.5609  0.3669  0.0573
  813MOL0     C 9624   3.325   3.863   4.540 -0.0584 -0.2753  0.1706
  813MOL0     C 9625   3.295   3.807   4.412 -0.0311  0.1033 -0.5148
  813MOL0     C 9626   3.158   3.778   4.380  0.2009  0.4697 -0.5636
  813MOL0     C 9627   3.056   3.781   4.480 -0.4328  0.9685  0.0803
  813MOL0     O 9628   2.931   3.738   4.441  0.1652 -0.4654  0.5162
  813MOL0     C 9629   2.834   3.722   4.548  0.1030  0.7290 -0.0130
  813MOL0     C 9630   2.712   3.640   4.514  0.5091 -0.1768  0.0452
  813MOL0     C 9631   2.740   3.495   4.453 -0.4245 -0.5529 -0.6749
  813MOL0     C 9632   2.615   3.417   4.414 -0.7718 -0.5884 -0.1426
  813MOL0     C 9633   2.567   3.321   4.519  0.0912 -0.0134 -0.0864
  813MOL0     C 9634   2.439   3.239   4.497 -0.1290  0.3425  0.1927
  813MOL0     C 9635   2.322   3.320   4.453  0.1747 -0.1361 -0.1919
  813MOL0     C 9636   2.282   3.422   4.560  0.6785 -0.0448 -0.1815
  813MOL0     N 9637   2.156   3.482   4.521 -0.0410  1.0888  0.3749
  813MOL0     C 9638   2.032   3.427   4.544  0.0438  0.2986 -0.5228
  813MOL0     C 9639   1.941   3.502   4.476  0.5991 -0.6173 -0.7305
  813MOL0     C 9640   1.797   3.484   4.463 -0.7246  1.0019 -0.6566
  813MOL0     C 9641   1.720   3.427   4.571 -0.4596  0.1847 -0.3083
  813MOL0     C 9642   1.742   3.510   4.697  0.0687  1.2133 -0.4473
  813MOL0     C 9643   1.624   3.513   4.799  1.0125 -0.3442  0.3002
  813MOL0     O 9644   1.520   3.581   4.732 -0.2365  0.4028 -0.1059
  813MOL0     C 9645   1.394   3.540   4.755  0.3443 -0.7375  0.9824
  813MOL0     C 9646   1.325   3.473   4.659  0.3801 -0.5868 -0.5323
  813MOL0     C 9647   1.199   3.426   4.683  0.4911  0.2809  0.2652
  813MOL0     C 9648   1.125   3.373   4.569 -0.3758  0.0496 -0.4046
  813MOL0     C 9649   1.143   3.438   4.813 -0.0662 -0.8701 -0.4190
  813MOL0     C 9650   1.007   3.384   4.853  0.0965  0.5164  1.0595
  813MOL0     O 9651   0.962   3.407   4.986  0.0724  0.6686 -0.1628
  813MOL0     C 9652   0.825   3.398   5.023  1.4500  0.5539  0.1835
  813MOL0     C 9653   0.713   3.443   4.943 -0.9388 -0.2074 -0.9322
  813MOL0     C 9654   0.578   3.435   4.987  0.6410  0.9629  0.6164
  813MOL0     C 9655   0.549   3.370   5.110 -0.1136 -0.1489 -0.3037
  813MOL0     O 9656   0.415   3.358   5.145 -0.1014 -0.7640  0.3516
  813MOL0     C 9657   0.392   3.274   5.253 -0.1401 -0.6800  0.4518
  813MOL0     C 9658   0.243   3.280   5.289 -0.2696 -0.2948  0.5064
  813MOL0     C 9659   0.144   3.230   5.176 -0.1617  0.5032  0.3687
  813MOL0     C 9660   0.196   3.120   5.082  0.4361 -0.2776  0.6944
  813MOL0     C 9661   0.082   3.046   4.993 -0.0536 -0.5928  0.6680
  813MOL0     C 9662  -0.002   2.953   5.079  0.3160 -0.2007 -0.4617
  813MOL0     C 9663   0.075   2.833   5.134 -0.7396  0.0149 -0.4369
  813MOL0     C 9664  -0.004   2.695   5.111  1.0755 -0.5324 -0.4346
  813MOL0    Cl 9665   0.105   2.571   5.174  0.4256  0.1663 -0.3386
  813MOL0     C 9666   0.662   3.332   5.184  0.1021  0.7701 -0.8627
  813MOL0     C 9667   0.794   3.344   5.145  0.3339 -0.0625 -0.0091
  813MOL0     O 9668   0.935   3.338   4.765  0.4479 -0.6451 -0.2035
  813MOL0     C 9669   1.231   3.494   4.914 -0.5254 -0.2542 -0.1373
  813MOL0     C 9670   1.346   3.549   4.883  0.1299 -0.0292 -0.5342
  813MOL0     N 9671   2.018   3.598   4.415 -0.5812  0.1402  0.4386
  813MOL0     N 9672   2.144   3.589   4.445 -0.3823  0.1408 -0.4031
  813MOL0     C 9673   3.094   3.815   4.612 -0.1251  0.4359  0.0719
  813MOL0     C 9674   3.222   3.862   4.631 -0.2397 -0.3798 -0.6573
  813MOL0     C 9675   3.667   4.009   4.562  0.4379 -0.8711  0.4128
  813MOL0     C 9676   3.729   4.140   4.548 -0.0809  0.4500  0.2251
  813MOL0     C 9677   3.865   4.153   4.584  1.1380  0.5701 -0.1495
  813MOL0     C 9678   3.931   4.050   4.647 -0.3125 -0.6454 -0.6926
  813MOL0     O 9679   4.061   4.061   4.684  0.1972  0.3957 -0.0389
  813MOL0     C 9680   4.121   4.185   4.733 -0.8970 -1.1079  0.3380
  813MOL0     C 9681   4.185   4.161   4.873 -0.0063  0.0582 -0.5246
  813MOL0     C 9682   4.088   4.083   4.971 -0.0104  0.4144 -0.0829
  813MOL0     C 9683   4.170   4.049   5.098  0.5709  0.4304 -1.0161
  813MOL0     C 9684   4.070   4.005   5.206 -0.7395  0.9389 -0.3264
  813MOL0     C 9685   3.987   3.971   5.290 -1.0503  0.4966 -0.0072
  813MOL0     C 9686   3.866   3.929   4.674 -0.1458 -1.0872  0.7488
  813MOL0     C 9687   3.736   3.911   4.640  0.3687 -0.0067 -0.2754
  813MOL0     H 9688   3.367   3.792   4.333  0.4280  2.9514 -0.7470
  813MOL0     H 9689   3.128   3.734   4.286  3.5573 -0.6742 -1.2572
  813MOL0     H 9690   2.873   3.662   4.630 -0.5723  1.0018  0.5209
  813MOL0     H 9691   2.802   3.820   4.585 -0.9182  0.5052 -0.2519
  813MOL0     H 9692   2.651   3.625   4.604  1.1659 -1.7900  0.2542
  813MOL0     H 9693   2.658   3.695   4.436  1.1192  0.6232  0.1780
  813MOL0     H 9694   2.801   3.515   4.365 -2.1076  2.1154 -1.3674
  813MOL0     H 9695   2.794   3.432   4.525  0.0522 -2.4088 -2.5711
  813MOL0     H 9696   2.533   3.481   4.379  1.2631  1.4500 -1.4110
  813MOL0     H 9697   2.639   3.345   4.336  0.6611  0.1024 -0.3643
  813MOL0     H 9698   2.638   3.241   4.544  2.0272  1.3214 -1.0360
  813MOL0     H 9699   2.545   3.383   4.606  1.3280 -0.2018  0.3834
  813MOL0     H 9700   2.451   3.170   4.413 -3.3196 -0.9235  0.6227
  813MOL0     H 9701   2.422   3.182   4.589 -1.1406  0.8502  0.3217
  813MOL0     H 9702   2.352   3.368   4.359 -2.0530 -0.8331 -1.3488
  813MOL0     H 9703   2.239   3.250   4.442  0.5809 -0.7699  0.6815
  813MOL0     H 9704   2.355   3.501   4.580  0.0848  0.6839 -0.8728
  813MOL0     H 9705   2.266   3.364   4.652 -2.8237 -0.3373 -0.8451
  813MOL0     H 9706   2.001   3.346   4.608 -0.6600  0.4587 -0.6500
  813MOL0     H 9707   1.744   3.572   4.426 -3.6084  0.1192  1.0769
  813MOL0     H 9708   1.804   3.412   4.381  2.3839 -1.5831  1.5935
  813MOL0     H 9709   1.744   3.321   4.573 -1.2928 -0.0699 -1.9766
  813MOL0     H 9710   1.614   3.429   4.544 -0.0279 -1.5979 -2.3834
  813MOL0     H 9711   1.763   3.614   4.669 -1.1997  1.4457 -0.5881
  813MOL0     H 9712   1.819   3.454   4.751 -0.6499  0.9298  0.2939
  813MOL0     H 9713   1.661   3.562   4.889  3.1743  0.3992 -0.9314
  813MOL0     H 9714   1.595   3.414   4.836  2.2073  0.1859  2.9409
  813MOL0     H 9715   1.379   3.455   4.567  0.8153 -0.6903 -0.2558
  813MOL0     H 9716   1.037   3.433   4.543 -0.4365 -0.2626 -0.9499
  813MOL0     H 9717   1.187   3.365   4.479 -1.4634  1.3138 -1.3090
  813MOL0     H 9718   1.088   3.271   4.584  2.2029 -0.9935 -0.6921
  813MOL0     H 9719   0.736   3.488   4.847  1.8848  0.7408  0.0974
  813MOL0     H 9720   0.504   3.476   4.920 -0.1442 -1.0065  0.1943
  813MOL0     H 9721   0.420   3.171   5.230 -1.4253 -0.8120 -0.6433
  813MOL0     H 9722   0.443   3.315   5.341  0.9931 -1.2768  0.0918
  813MOL0     H 9723   0.232   3.229   5.385  0.6587 -0.6725  0.4227
  813MOL0     H 9724   0.226   3.386   5.311 -0.8088  0.0834 -1.5759
  813MOL0     H 9725   0.117   3.318   5.116  1.3337  2.2193  2.0652
  813MOL0     H 9726   0.050   3.195   5.220 -0.5424  2.0121  0.8153
  813MOL0     H 9727   0.267   3.169   5.015  1.6282 -0.0650  2.0709
  813MOL0     H 9728   0.250   3.041   5.136  1.9018 -0.5924 -1.1327
  813MOL0     H 9729   0.123   3.002   4.902 -3.6058  1.0229 -1.9777
  813MOL0     H 9730   0.007   3.113   4.950 -1.3962 -2.8991 -0.8011
  813MOL0     H 9731  -0.044   3.004   5.166  1.0494 -0.9279  0.3489
  813MOL0     H 9732  -0.081   2.913   5.015  0.3394 -0.0488 -0.5825
  813MOL0     H 9733   0.097   2.854   5.239 -0.2301  1.3429 -0.7985
  813MOL0     H 9734   0.167   2.827   5.075  0.4258  3.9024  0.6933
  813MOL0     H 9735  -0.031   2.664   5.009 -1.0509 -1.1375  0.2651
  813MOL0     H 9736  -0.097   2.703   5.169  0.5506  1.2020 -1.4266
  813MOL0     H 9737   0.650   3.288   5.282  0.2010  1.4316 -0.5465
  813MOL0     H 9738   0.869   3.313   5.216 -0.9914  0.1466  1.5580
  813MOL0     H 9739   1.197   3.500   5.017 -1.1249  0.7784 -0.3728
  813MOL0     H 9740   1.410   3.582   4.964  0.9479 -1.3559 -0.6091
  813MOL0     H 9741   3.024   3.815   4.694 -0.0523  0.0135  0.1334
  813MOL0     H 9742   3.248   3.896   4.731  1.1057 -1.8056 -0.4858
  813MOL0     H 9743   3.685   4.227   4.499  0.0232  1.5266  1.9714
  813MOL0     H 9744   3.902   4.254   4.571  1.1414  0.7862  1.3645
  813MOL0     H 9745   4.206   4.209   4.669 -2.8320  1.3906 -1.4845
  813MOL0     H 9746   4.047   4.265   4.741 -0.4737 -0.8457  1.9316
  813MOL0     H 9747   4.198   4.261   4.916 -0.0892  0.1270 -0.6587
  813MOL0     H 9748   4.284   4.118   4.860 -0.8951 -2.0334 -0.8364
  813MOL0     H 9749   4.055   3.989   4.927  1.2665  1.2305 -3.1047
  813MOL0     H 9750   4.003   4.148   4.995  0.3850  1.5799 -1.6063
  813MOL0     H 9751   4.220   4.141   5.131 -1.2263  1.6557 -1.5918
  813MOL0     H 9752   4.247   3.972   5.089 -0.5037 -0.8746  0.5258
  813MOL0     H 9753   3.915   3.950   5.367 -1.0024 -2.2795 -0.6278
  813MOL0     H 9754   3.917   3.850   4.728  1.4832 -0.3412  0.3318
  813MOL0     H 9755   3.689   3.820   4.674  1.1546 -0.1192  0.5349
  814MOL0     O 9756   7.150   1.522   3.438 -0.3385 -0.0461 -0.6115
  814MOL0     C 9757   7.107   1.564   3.544  0.3080 -1.0210  0.1858
  814MOL0     O 9758   6.994   1.641   3.556  0.3770  0.0322 -0.3708
  814MOL0     C 9759   6.894   1.630   3.458 -0.0859  0.6212  0.0457
  814MOL0     C 9760   6.765   1.633   3.496 -0.5848 -0.5626 -0.4086
  814MOL0     C 9761   6.657   1.648   3.402  0.5452  1.0532 -0.2293
  814MOL0     C 9762   6.685   1.640   3.267  0.9026 -0.4068  0.2306
  814MOL0     O 9763   6.598   1.636   3.159 -0.2434  0.1568 -0.2584
  814MOL0     C 9764   6.457   1.641   3.192  0.3296 -0.5578  0.8425
  814MOL0     C 9765   6.380   1.689   3.067 -0.1310 -0.0085 -0.1146
  814MOL0     C 9766   6.238   1.739   3.091  0.1304  0.1063  0.1085
  814MOL0     C 9767   6.144   1.629   3.128 -0.0024 -0.8789  0.8610
  814MOL0     C 9768   6.000   1.671   3.148  0.1640 -0.4145 -0.3045
  814MOL0     C 9769   5.982   1.762   3.271  0.8127 -0.1428  0.2874
  814MOL0     C 9770   5.836   1.798   3.297 -0.0038 -0.5678  0.3842
  814MOL0     C 9771   5.821   1.882   3.427 -0.9313 -0.1084 -0.3037
  814MOL0     N 9772   5.683   1.901   3.475  0.2064 -1.0339 -0.2960
  814MOL0     C 9773   5.606   1.800   3.527 -0.0600 -0.0260  0.0857
  814MOL0     C 9774   5.495   1.854   3.580  0.3404 -0.3337 -0.3223
  814MOL0     C 9775   5.377   1.774   3.615 -0.3421  0.0169 -0.2785
  814MOL0     C 9776   5.243   1.802   3.534  0.4095  0.2607  1.4360
  814MOL0     C 9777   5.257   1.773   3.386 -0.9182 -1.1854 -1.0204
  814MOL0     C 9778   5.123   1.802   3.304 -0.9454 -0.1250  1.1186
  814MOL0     O 9779   5.143   1.742   3.173  0.0354 -0.0246 -0.0398
  814MOL0     C 9780   5.031   1.682   3.116 -0.0336  0.1826 -0.5306
  814MOL0     C 9781   5.059   1.570   3.021 -0.2183 -0.0687  0.7400
  814MOL0     C 9782   4.950   1.499   2.959 -0.3966 -0.0784  0.0816
  814MOL0     C 9783   4.986   1.401   2.847 -0.5334  0.1195  0.0714
  814MOL0     C 9784   4.819   1.533   3.004  0.0577 -0.7077  0.3713
  814MOL0     C 9785   4.698   1.478   2.934 -0.4497  0.5202  0.0624
  814MOL0     O 9786   4.584   1.540   2.971 -0.1225  0.2535 -0.1819
  814MOL0     C 9787   4.470   1.529   2.902 -0.2280  0.0778 -0.0474
  814MOL0     C 9788   4.445   1.626   2.810 -0.2158  0.0072  0.5287
  814MOL0     C 9789   4.325   1.629   2.742  0.3261  0.0850 -0.4799
  814MOL0     C 9790   4.216   1.541   2.765  0.2746 -0.6789  1.2547
  814MOL0     O 9791   4.099   1.532   2.693 -0.9673  0.7446 -0.3210
  814MOL0     C 9792   4.075   1.632   2.599  0.2649 -0.1006  0.0231
  814MOL0     C 9793   3.943   1.606   2.533  0.0872 -0.3418  0.1251
  814MOL0     C 9794   3.823   1.668   2.615 -0.1462 -0.9280  0.1687
  814MOL0     C 9795   3.692   1.679   2.526 -0.6235 -0.6411 -0.6091
  814MOL0     C 9796   3.575   1.766   2.585 -0.1505 -0.3072  0.1066
  814MOL0     C 9797   3.620   1.912   2.617  1.0665 -0.1666 -1.2886
  814MOL0     C 9798   3.694   1.981   2.503  0.7303  0.0651  0.1966
  814MOL0     C 9799   3.746   2.108   2.559  0.5290 -0.2616 -0.0654
  814MOL0    Cl 9800   3.617   2.211   2.638  0.5460  0.0784 -0.0515
  814MOL0     C 9801   4.238   1.446   2.861  0.4588 -0.5575 -0.3080
  814MOL0     C 9802   4.361   1.440   2.929 -0.0366 -0.0055  0.9449
  814MOL0     O 9803   4.704   1.395   2.845  0.4899 -0.3996  0.3416
  814MOL0     C 9804   4.802   1.634   3.094  0.7157 -0.8574  0.5145
  814MOL0     C 9805   4.897   1.710   3.147 -0.4486 -0.8432 -0.3092
  814MOL0     N 9806   5.520   1.994   3.578  0.3970 -0.3168 -0.8044
  814MOL0     N 9807   5.632   2.014   3.520  0.2003 -0.2903  0.1144
  814MOL0     C 9808   6.821   1.638   3.231  0.8242 -0.0936 -0.8276
  814MOL0     C 9809   6.926   1.647   3.322 -0.0578  0.2022 -0.1049
  814MOL0     C 9810   7.181   1.541   3.667 -0.0116 -0.2076  0.6450
  814MOL0     C 9811   7.312   1.495   3.666 -0.7253  0.7155  0.6838
  814MOL0     C 9812   7.383   1.462   3.782  0.3337 -0.2548 -0.7124
  814MOL0     C 9813   7.322   1.487   3.913 -1.3194 -0.4987 -0.0900
  814MOL0     O 9814   7.404   1.488   4.023  0.7629  0.2448 -0.2056
  814MOL0     C 9815   7.333   1.458   4.150  0.1385  0.2643 -0.7296
  814MOL0     C 9816   7.417   1.399   4.254  0.3186  0.1975  0.1062
  814MOL0     C 9817   7.524   1.308   4.191 -0.4659 -0.6566  0.0325
  814MOL0     C 9818   7.482   1.201   4.104 -0.3525  1.2318  0.1691
  814MOL0     C 9819   7.431   1.086   4.180  0.3874  0.0541 -0.5321
  814MOL0     C 9820   7.380   0.975   4.212 -0.4243  0.2625 -0.1074
  814MOL0     C 9821   7.190   1.550   3.910 -1.0247  0.4525 -0.2926
  814MOL0     C 9822   7.123   1.569   3.791 -0.4788  0.3718  0.5267
  814MOL0     H 9823   6.751   1.632   3.604  2.4855  0.6127  0.1094
  814MOL0     H 9824   6.559   1.674   3.439 -0.9152 -2.9288 -0.7891
  814MOL0     H 9825   6.413   1.547   3.229  2.2112 -0.7727  2.6976
  814MOL0     H 9826   6.433   1.718   3.266  1.8944  0.2808  0.5022
  814MOL0     H 9827   6.446   1.764   3.021  0.0040 -1.2539 -2.0691
  814MOL0     H 9828   6.391   1.604   2.999  1.5033  1.7465 -2.1876
  814MOL0     H 9829   6.236   1.814   3.171  1.6177  0.8328 -0.4941
  814MOL0     H 9830   6.198   1.790   3.004 -0.5635 -0.3387  0.1544
  814MOL0     H 9831   6.151   1.567   3.038 -0.0007 -0.8808  0.8626
  814MOL0     H 9832   6.184   1.584   3.219  1.9144 -0.6260  0.1855
  814MOL0     H 9833   5.959   1.730   3.065 -1.2377 -0.0290  0.6224
  814MOL0     H 9834   5.946   1.577   3.158 -0.0561 -0.1807  1.0424
  814MOL0     H 9835   6.042   1.727   3.356  1.5664 -0.4817 -0.3661
  814MOL0     H 9836   6.027   1.855   3.237 -0.9446  0.9948  0.9314
  814MOL0     H 9837   5.803   1.853   3.209  0.4385 -2.7280 -1.2093
  814MOL0     H 9838   5.777   1.706   3.305 -0.4567 -0.2771  0.4235
  814MOL0     H 9839   5.859   1.984   3.417  0.9562 -0.6141  1.0179
  814MOL0     H 9840   5.884   1.838   3.504  0.1967  0.9952 -0.5624
  814MOL0     H 9841   5.625   1.695   3.508 -0.0391  0.0138 -0.1257
  814MOL0     H 9842   5.391   1.667   3.597 -1.7651 -0.2187 -0.1132
  814MOL0     H 9843   5.339   1.782   3.718  0.9818  0.8033  0.1669
  814MOL0     H 9844   5.224   1.908   3.552 -1.6094  0.1893 -0.0471
  814MOL0     H 9845   5.163   1.738   3.571 -3.0819  3.7988  0.5884
  814MOL0     H 9846   5.275   1.665   3.378  1.5478 -0.9543  0.3534
  814MOL0     H 9847   5.342   1.827   3.343 -0.9675  0.0505  0.3628
  814MOL0     H 9848   5.100   1.909   3.304  2.2472  0.6457  1.3259
  814MOL0     H 9849   5.038   1.753   3.351 -1.0027 -0.0957  1.0475
  814MOL0     H 9850   5.160   1.558   2.983  0.1830 -0.3976  1.8724
  814MOL0     H 9851   4.929   1.311   2.868  0.8080 -0.9595 -0.7442
  814MOL0     H 9852   4.955   1.447   2.753 -0.7866 -1.5156 -0.6778
  814MOL0     H 9853   5.090   1.366   2.847 -1.1976 -2.1175 -2.1260
  814MOL0     H 9854   4.515   1.709   2.806 -1.1545  0.7953  0.1283
  814MOL0     H 9855   4.308   1.716   2.679 -1.2577 -1.6499 -2.5688
  814MOL0     H 9856   4.053   1.719   2.662 -1.9909 -0.3922 -0.2838
  814MOL0     H 9857   4.156   1.656   2.530  0.0241 -0.6446 -0.4583
  814MOL0     H 9858   3.942   1.648   2.432 -1.4336 -1.6860 -0.4512
  814MOL0     H 9859   3.920   1.500   2.521 -0.6882 -0.0295 -1.3563
  814MOL0     H 9860   3.855   1.768   2.645  0.6774 -1.0332 -0.3259
  814MOL0     H 9861   3.811   1.612   2.708  2.1980  0.0460  1.1208
  814MOL0     H 9862   3.722   1.722   2.430  0.8095 -2.6435 -1.1195
  814MOL0     H 9863   3.660   1.576   2.509  1.6851 -2.2399  3.3905
  814MOL0     H 9864   3.548   1.712   2.676 -3.4495  0.2284 -0.4549
  814MOL0     H 9865   3.488   1.764   2.518  0.6870  1.2741 -1.1001
  814MOL0     H 9866   3.533   1.962   2.661  1.5943  1.0034 -1.5268
  814MOL0     H 9867   3.696   1.901   2.694  1.0555 -0.6624 -1.3413
  814MOL0     H 9868   3.624   1.994   2.419  0.5064 -2.2993 -0.0530
  814MOL0     H 9869   3.781   1.922   2.472 -0.1244 -0.4486 -1.3584
  814MOL0     H 9870   3.803   2.166   2.486 -3.0358  0.6377 -2.3987
  814MOL0     H 9871   3.815   2.087   2.642  0.4659  1.7960  0.5660
  814MOL0     H 9872   4.166   1.365   2.872 -0.2558  0.0218 -0.6094
  814MOL0     H 9873   4.374   1.355   2.996  1.3336 -0.2135  0.4626
  814MOL0     H 9874   4.701   1.670   3.111  0.1621 -1.5396 -1.0959
  814MOL0     H 9875   4.881   1.804   3.198  0.1111 -0.7381 -0.3204
  814MOL0     H 9876   6.840   1.629   3.125 -4.4823  2.2859 -2.3134
  814MOL0     H 9877   7.028   1.651   3.287  0.2206 -1.6032  0.4006
  814MOL0     H 9878   7.362   1.479   3.571 -0.5926 -3.6176  1.3032
  814MOL0     H 9879   7.490   1.443   3.775  0.3534 -0.5524  0.2747
  814MOL0     H 9880   7.297   1.555   4.184 -0.8124 -0.5405  0.6668
  814MOL0     H 9881   7.245   1.394   4.137  0.8472 -1.0838  0.7696
  814MOL0     H 9882   7.357   1.337   4.322 -2.4538  3.2578  0.6733
  814MOL0     H 9883   7.468   1.477   4.311 -0.1065 -1.5429  3.1346
  814MOL0     H 9884   7.581   1.275   4.278 -2.4778 -1.0213  1.2591
  814MOL0     H 9885   7.585   1.369   4.124 -1.6383 -0.3459 -0.7756
  814MOL0     H 9886   7.570   1.172   4.047 -0.7862  0.5051 -0.1402
  814MOL0     H 9887   7.412   1.220   4.022  0.2925 -0.1683 -0.7363
  814MOL0     H 9888   7.348   0.874   4.226  1.3052  0.0969  3.7689
  814MOL0     H 9889   7.136   1.590   3.995 -3.1399 -1.2966 -0.7331
  814MOL0     H 9890   7.023   1.611   3.793  0.7682  4.2701 -3.3932
  815MOL0     O 9891   8.749   2.985   4.540 -0.3553  0.5704 -0.2979
  815MOL0     C 9892   8.766   2.878   4.476 -1.1355 -0.0577  0.0398
  815MOL0     O 9893   8.661   2.787   4.437 -0.5621 -0.7587 -0.2871
  815MOL0     C 9894   8.533   2.826   4.459  0.4703  0.5304  0.1515
  815MOL0     C 9895   8.487   2.948   4.411 -0.3172 -1.0741 -0.4039
  815MOL0     C 9896   8.357   2.996   4.427 -0.6462  0.6733  0.0058
  815MOL0     C 9897   8.266   2.920   4.489  0.5151  0.7201  0.3923
  815MOL0     O 9898   8.146   2.985   4.496 -0.4212 -0.4201 -0.9591
  815MOL0     C 9899   8.063   2.967   4.610  0.4534  0.1503  0.8437
  815MOL0     C 9900   7.956   3.075   4.598 -0.0750 -0.1721  0.0283
  815MOL0     C 9901   7.866   3.065   4.478 -1.0251 -1.4143  0.3138
  815MOL0     C 9902   7.775   3.188   4.453 -0.9940 -0.2401  0.2762
  815MOL0     C 9903   7.630   3.160   4.411  0.0012 -0.0026  0.6662
  815MOL0     C 9904   7.539   3.277   4.426  0.4068  0.4630  0.2570
  815MOL0     C 9905   7.418   3.262   4.337  0.5467 -0.3341 -0.3903
  815MOL0     C 9906   7.305   3.341   4.389  0.8353  0.5209 -0.1037
  815MOL0     N 9907   7.183   3.310   4.315 -0.2843  0.6733  0.6328
  815MOL0     C 9908   7.147   3.367   4.191 -0.0011  0.0643 -0.5001
  815MOL0     C 9909   7.038   3.290   4.159 -0.1996  0.0172 -0.5006
  815MOL0     C 9910   6.975   3.302   4.026  0.2602 -0.2853 -0.3704
  815MOL0     C 9911   6.828   3.358   4.015  0.0146  0.0247  0.5175
  815MOL0     C 9912   6.732   3.250   4.063 -0.3079 -0.6420  0.3023
  815MOL0     C 9913   6.587   3.314   4.050 -0.4315  0.1644 -0.0639
  815MOL0     O 9914   6.514   3.199   4.091  0.5622 -0.0622  0.7108
  815MOL0     C 9915   6.377   3.194   4.058 -0.4932  0.1838 -0.0799
  815MOL0     C 9916   6.299   3.082   4.091 -0.7041 -0.0946 -0.4058
  815MOL0     C 9917   6.164   3.061   4.057  0.6967 -0.2940  0.1067
  815MOL0     C 9918   6.102   2.928   4.074  0.4452  0.5098 -0.2157
  815MOL0     C 9919   6.103   3.172   3.996  0.0735 -0.1964 -0.4482
  815MOL0     C 9920   5.964   3.171   3.943  0.5307  0.4504 -0.2427
  815MOL0     O 9921   5.942   3.261   3.833 -0.5403  0.3419 -0.1304
  815MOL0     C 9922   5.816   3.247   3.775 -0.1658  0.1784  0.1930
  815MOL0     C 9923   5.806   3.184   3.651  0.5651 -0.2330  0.4512
  815MOL0     C 9924   5.678   3.152   3.597 -0.3367  0.3322  0.5457
  815MOL0     C 9925   5.564   3.189   3.669 -0.6343  0.1326  0.0428
  815MOL0     O 9926   5.438   3.179   3.622  0.5345  0.3359 -0.3090
  815MOL0     C 9927   5.410   3.076   3.520 -0.6580  0.1688  0.2085
  815MOL0     C 9928   5.265   3.026   3.524  0.2735  0.4626  0.5083
  815MOL0     C 9929   5.184   3.073   3.396 -0.5755  0.0477  0.6345
  815MOL0     C 9930   5.029   3.051   3.415  0.5170 -0.3300  0.3260
  815MOL0     C 9931   4.952   3.119   3.307 -0.0660  0.0840 -1.0764
  815MOL0     C 9932   4.802   3.089   3.332 -0.2283  0.4085  0.4420
  815MOL0     C 9933   4.714   3.147   3.223  0.9437  0.5065 -0.8060
  815MOL0     C 9934   4.562   3.127   3.253  0.4221  0.3073 -0.3818
  815MOL0    Cl 9935   4.534   2.956   3.266 -0.0455 -0.0197 -0.4758
  815MOL0     C 9936   5.583   3.268   3.788 -0.1695 -0.1122  0.6251
  815MOL0     C 9937   5.707   3.294   3.836  0.0833  0.4364  0.6029
  815MOL0     O 9938   5.872   3.118   4.014 -0.8748 -0.8997 -0.2225
  815MOL0     C 9939   6.171   3.293   3.975  0.1102  0.0285  0.0327
  815MOL0     C 9940   6.312   3.296   3.992 -0.3545  0.4513 -0.1396
  815MOL0     N 9941   7.019   3.188   4.245 -0.5808  1.3831 -0.3398
  815MOL0     N 9942   7.101   3.207   4.345 -0.0600  0.0425  0.4489
  815MOL0     C 9943   8.308   2.793   4.547 -0.1337 -0.0517  0.4111
  815MOL0     C 9944   8.443   2.746   4.524 -0.2138 -0.0725 -0.9963
  815MOL0     C 9945   8.911   2.847   4.420 -0.3078 -0.3451 -0.9221
  815MOL0     C 9946   8.942   2.735   4.337  0.8960 -0.3476  0.0468
  815MOL0     C 9947   9.064   2.708   4.304 -0.3203  0.2152 -0.2116
  815MOL0     C 9948   9.177   2.776   4.357  0.8048 -0.2952 -0.1878
  815MOL0     O 9949   9.308   2.746   4.323  0.0339  0.3936  0.5093
  815MOL0     C 9950   9.345   2.612   4.273  1.0008  0.5202 -0.4673
  815MOL0     C 9951   9.500   2.588   4.279  0.1268  0.0788  0.4387
  815MOL0     C 9952   9.532   2.468   4.187  0.0816 -0.4903  0.3700
  815MOL0     C 9953   9.478   2.343   4.239  0.3634  0.4837  0.3108
  815MOL0     C 9954   9.475   2.244   4.130 -0.1121  0.1191  0.4300
  815MOL0     C 9955   9.458   2.178   4.032  0.0573  0.8621 -0.2682
  815MOL0     C 9956   9.149   2.888   4.427  0.1477 -0.2537  0.3312
  815MOL0     C 9957   9.021   2.924   4.467  0.3586  0.2025 -0.1882
  815MOL0     H 9958   8.560   3.016   4.368 -1.9381  1.5913  0.7406
  815MOL0     H 9959   8.332   3.092   4.381 -1.9264  0.0646 -0.6264
  815MOL0     H 9960   8.019   2.867   4.604  1.0771 -0.1261  0.7293
  815MOL0     H 9961   8.116   2.978   4.705  1.4886  1.6246  0.1494
  815MOL0     H 9962   7.889   3.068   4.684  0.0433  0.0681  0.1394
  815MOL0     H 9963   8.002   3.174   4.601 -0.1075 -0.1556  2.2020
  815MOL0     H 9964   7.917   3.048   4.383 -2.1740  1.0108 -0.8066
  815MOL0     H 9965   7.801   2.978   4.492  0.8388 -2.5230  3.2398
  815MOL0     H 9966   7.777   3.244   4.548  3.5793  1.5029 -0.5664
  815MOL0     H 9967   7.819   3.241   4.368  1.5122 -1.8691  0.4590
  815MOL0     H 9968   7.628   3.124   4.307 -2.3505  0.7808  0.3824
  815MOL0     H 9969   7.584   3.088   4.479 -0.0357  1.5545  2.3396
  815MOL0     H 9970   7.515   3.300   4.530  1.3692  1.3023  0.3131
  815MOL0     H 9971   7.595   3.367   4.399  0.2132  0.3804 -0.4360
  815MOL0     H 9972   7.458   3.292   4.240  2.3183 -2.5068 -0.4285
  815MOL0     H 9973   7.393   3.155   4.338 -0.2016 -0.3273  4.0709
  815MOL0     H 9974   7.319   3.449   4.374  2.3656  0.5292  1.1010
  815MOL0     H 9975   7.292   3.318   4.495  0.3645  1.8967  0.1529
  815MOL0     H 9976   7.205   3.438   4.134 -1.7533  0.2329 -2.1639
  815MOL0     H 9977   7.046   3.361   3.967  1.6136 -0.7578  0.7442
  815MOL0     H 9978   6.982   3.201   3.984 -0.8305 -0.4627 -0.1503
  815MOL0     H 9979   6.797   3.374   3.911  2.0515 -3.1952 -0.7510
  815MOL0     H 9980   6.817   3.452   4.070  1.0799 -0.6296  1.8969
  815MOL0     H 9981   6.762   3.236   4.168 -1.7053 -0.8642  0.7008
  815MOL0     H 9982   6.758   3.167   3.997  2.1409  0.4915 -0.2679
  815MOL0     H 9983   6.566   3.352   3.950  0.4750 -0.8765 -0.6713
  815MOL0     H 9984   6.569   3.391   4.125 -1.6336 -0.7768  0.6583
  815MOL0     H 9985   6.361   3.011   4.144 -0.5580  1.8582  2.2281
  815MOL0     H 9986   6.064   2.891   3.979 -1.5003 -1.1176  1.1156
  815MOL0     H 9987   6.170   2.855   4.118 -0.8188 -0.1599  0.6870
  815MOL0     H 9988   6.019   2.938   4.145 -0.2011  0.1169 -0.9043
  815MOL0     H 9989   5.900   3.173   3.599  0.3681  0.8525 -0.1689
  815MOL0     H 9990   5.664   3.091   3.508 -2.1651  2.0407 -0.4133
  815MOL0     H 9991   5.429   3.106   3.416 -1.4786  1.3172  0.3805
  815MOL0     H 9992   5.478   2.990   3.531  0.8226  0.6892 -3.2784
  815MOL0     H 9993   5.264   2.918   3.510  1.0814  0.3828  1.0333
  815MOL0     H 9994   5.219   3.055   3.619  0.1251 -1.0792  0.9349
  815MOL0     H 9995   5.227   3.035   3.303  0.4884  0.1041  1.0950
  815MOL0     H 9996   5.198   3.181   3.394  0.5872 -0.0265  2.7183
  815MOL0     H 9997   5.019   2.942   3.407  0.5754 -0.3491  0.5220
  815MOL0     H 9998   4.999   3.104   3.506  1.2294  1.9284 -0.6874
  815MOL0     H 9999   4.995   3.103   3.208  1.4878  0.2851 -0.4556
  815MOL0     H10000   4.960   3.225   3.332 -2.1194  0.4645 -1.8555
  815MOL0     H10001   4.794   2.980   3.326 -0.8671  0.5340 -1.6806
  815MOL0     H10002   4.763   3.125   3.428  0.7607  0.8721  0.6852
  815MOL0     H10003   4.734   3.095   3.129  1.2019  0.0052 -0.4826
  815MOL0     H10004   4.729   3.254   3.208 -0.6382  1.2745  2.2568
  815MOL0     H10005   4.512   3.168   3.164 -0.8756 -1.0122 -0.2969
  815MOL0     H10006   4.524   3.185   3.338 -2.4018 -1.4855 -0.2666
  815MOL0     H10007   5.501   3.309   3.847 -0.8290 -2.1883  1.2479
  815MOL0     H10008   5.721   3.356   3.923  0.7621  1.6036 -0.3088
  815MOL0     H10009   6.113   3.382   3.951  0.2229  1.0368  3.0545
  815MOL0     H10010   6.348   3.396   3.968 -0.6709  0.5866 -0.0513
  815MOL0     H10011   8.253   2.724   4.610 -4.4184  0.5341 -2.2761
  815MOL0     H10012   8.482   2.650   4.555 -1.4312  0.0324  1.0209
  815MOL0     H10013   8.856   2.681   4.298 -0.1998  3.0054 -2.7223
  815MOL0     H10014   9.075   2.623   4.237 -3.1627  1.0343 -1.8863
  815MOL0     H10015   9.293   2.537   4.333  2.0107 -3.5085 -4.1111
  815MOL0     H10016   9.309   2.593   4.171  0.3736 -2.2529  0.1740
  815MOL0     H10017   9.528   2.572   4.384  0.6230 -1.7261  0.0742
  815MOL0     H10018   9.547   2.680   4.243 -1.1382  0.4137 -0.4060
  815MOL0     H10019   9.641   2.472   4.181 -0.0354  1.8960 -1.6695
  815MOL0     H10020   9.489   2.489   4.088  0.7614  0.6431  0.2999
  815MOL0     H10021   9.382   2.354   4.291  0.9209 -2.0102  2.0845
  815MOL0     H10022   9.542   2.299   4.316 -1.3096 -1.0522  0.8905
  815MOL0     H10023   9.437   2.136   3.936  0.6486  0.7179 -0.3357
  815MOL0     H10024   9.236   2.949   4.452  0.0280  0.5539 -1.0890
  815MOL0     H10025   9.004   3.010   4.531 -1.9878  1.7241 -2.6716
  816MOL0     O10026   0.424   5.988   3.251  0.0246  0.1170 -0.4526
  816MOL0     C10027   0.410   6.001   3.371  0.5524 -1.0111 -0.7023
  816MOL0     O10028   0.292   5.986   3.441  0.3393 -0.3880  0.5289
  816MOL0     C10029   0.182   5.942   3.376  0.0694  0.4478  0.1677
  816MOL0     C10030   0.107   6.025   3.297 -0.6328  0.7536 -0.5472
  816MOL0     C10031   0.011   5.965   3.216  0.1504  0.1287  0.1700
  816MOL0     C10032  -0.007   5.828   3.211 -0.2768  0.4338 -1.2849
  816MOL0     O10033  -0.105   5.781   3.126  0.0677  0.1812 -0.2884
  816MOL0     C10034  -0.141   5.643   3.111  0.0310 -0.6449 -0.3604
  816MOL0     C10035  -0.267   5.620   3.023  0.2481 -0.3011  0.9342
  816MOL0     C10036  -0.395   5.690   3.082  0.2890 -0.4239 -0.1509
  816MOL0     C10037  -0.429   5.607   3.205  0.0728  0.1900  0.0408
  816MOL0     C10038  -0.584   5.616   3.235  0.1201  0.7084  0.0598
  816MOL0     C10039  -0.629   5.763   3.277  0.0044 -0.3072  0.5921
  816MOL0     C10040  -0.781   5.768   3.296 -0.2833  0.5194 -0.5798
  816MOL0     C10041  -0.844   5.725   3.429 -0.0281  0.1129  0.0610
  816MOL0     N10042  -0.855   5.579   3.451 -0.0127  0.5930  0.7194
  816MOL0     C10043  -0.948   5.502   3.385 -0.1172 -1.2060  0.4717
  816MOL0     C10044  -0.971   5.394   3.465 -0.0795  0.3415  0.9790
  816MOL0     C10045  -1.042   5.271   3.424  0.6558  0.1089 -0.3662
  816MOL0     C10046  -1.188   5.257   3.470  0.4931  0.0238 -0.1017
  816MOL0     C10047  -1.278   5.369   3.420 -0.1516 -0.2821  0.3842
  816MOL0     C10048  -1.425   5.348   3.471 -0.6201  0.1167  0.1141
  816MOL0     O10049  -1.515   5.428   3.392 -0.4537 -0.2800  0.4779
  816MOL0     C10050  -1.640   5.453   3.441  0.4744  0.6603  0.0103
  816MOL0     C10051  -1.695   5.385   3.553  0.3579 -0.5018  0.5049
  816MOL0     C10052  -1.830   5.418   3.602 -0.1719 -0.4501  0.5384
  816MOL0     C10053  -1.877   5.336   3.724  0.5712 -0.9316  0.4022
  816MOL0     C10054  -1.898   5.515   3.537  1.0062 -0.2691 -0.4818
  816MOL0     C10055  -2.033   5.548   3.582  0.8806 -0.4016 -0.5805
  816MOL0     O10056  -2.124   5.581   3.485  0.7205 -0.7002 -0.0169
  816MOL0     C10057  -2.253   5.599   3.527 -0.3714  0.2788  0.6960
  816MOL0     C10058  -2.319   5.717   3.498 -0.1939 -0.2089 -0.8969
  816MOL0     C10059  -2.453   5.716   3.520  0.4829 -0.2546  0.0310
  816MOL0     C10060  -2.525   5.603   3.563  0.6675  0.0286 -0.2410
  816MOL0     O10061  -2.663   5.611   3.572  0.8126 -0.3289 -0.3415
  816MOL0     C10062  -2.702   5.669   3.697 -0.6386  0.0450 -1.0359
  816MOL0     C10063  -2.854   5.674   3.696 -0.7922  0.3316  0.0252
  816MOL0     C10064  -2.920   5.788   3.619  0.3285 -0.7784  0.0879
  816MOL0     C10065  -2.963   5.900   3.711  0.7716 -0.4862  0.1203
  816MOL0     C10066  -2.851   5.995   3.778  0.0361  0.4243  0.0954
  816MOL0     C10067  -2.903   6.134   3.817  0.2233 -0.2079  0.2443
  816MOL0     C10068  -2.800   6.229   3.875  0.6879 -0.5995 -0.6793
  816MOL0     C10069  -2.727   6.171   3.996  0.6993  0.4219 -0.1860
  816MOL0    Cl10070  -2.632   6.298   4.077 -0.1537  0.2151 -0.1010
  816MOL0     C10071  -2.464   5.488   3.598  0.1744 -0.6481  1.1391
  816MOL0     C10072  -2.329   5.479   3.568  0.3478 -0.5071 -0.1689
  816MOL0     O10073  -2.051   5.567   3.703 -0.7150  0.0110  0.1963
  816MOL0     C10074  -1.853   5.573   3.410 -0.1710  0.2710  0.1230
  816MOL0     C10075  -1.723   5.542   3.369 -0.6620  0.1781 -0.3477
  816MOL0     N10076  -0.886   5.408   3.565 -0.8875  0.8805 -0.3195
  816MOL0     N10077  -0.818   5.519   3.564  0.6626 -0.2642  0.1839
  816MOL0     C10078   0.070   5.747   3.288 -0.4346  0.6468  0.2894
  816MOL0     C10079   0.164   5.803   3.375 -0.5747  0.2396  0.9009
  816MOL0     C10080   0.526   6.068   3.437  0.1191 -0.8443  0.4931
  816MOL0     C10081   0.661   6.047   3.391 -0.2960  0.4314  0.0495
  816MOL0     C10082   0.765   6.097   3.461 -0.4263 -0.8190 -0.0093
  816MOL0     C10083   0.751   6.176   3.576 -1.0791 -0.8324  0.0058
  816MOL0     O10084   0.857   6.243   3.645  0.8444  0.0773  0.1520
  816MOL0     C10085   0.990   6.232   3.601  0.9391 -0.5712  0.1671
  816MOL0     C10086   1.077   6.308   3.704 -0.0115 -0.7440  1.2464
  816MOL0     C10087   1.224   6.263   3.693  0.3238 -0.0972 -0.2405
  816MOL0     C10088   1.329   6.337   3.775  0.7194 -0.2984 -1.2152
  816MOL0     C10089   1.318   6.325   3.920 -0.1945 -0.5979 -0.0856
  816MOL0     C10090   1.291   6.300   4.032  0.3416  0.1146  0.2558
  816MOL0     C10091   0.617   6.195   3.626 -0.3493 -0.2639  0.6365
  816MOL0     C10092   0.506   6.149   3.552 -0.2052 -0.3878 -0.2150
  816MOL0     H10093   0.123   6.132   3.301  0.1963  0.6028  1.9181
  816MOL0     H10094  -0.061   6.029   3.166  0.1157  0.5840  0.7990
  816MOL0     H10095  -0.059   5.583   3.071  0.5702  1.2691 -2.2514
  816MOL0     H10096  -0.156   5.592   3.207 -0.0334 -1.9414 -1.0278
  816MOL0     H10097  -0.238   5.667   2.928  1.0890  0.7245  1.6711
  816MOL0     H10098  -0.292   5.519   2.990 -2.8412  0.6893 -0.0783
  816MOL0     H10099  -0.365   5.786   3.127 -0.2373 -0.9441  1.3660
  816MOL0     H10100  -0.478   5.692   3.010  1.4075  1.6328 -1.4896
  816MOL0     H10101  -0.408   5.500   3.194 -0.1785  0.0650  0.7201
  816MOL0     H10102  -0.374   5.645   3.292  0.0710  0.5781 -0.1266
  816MOL0     H10103  -0.633   5.580   3.145  0.5780 -0.1389  0.1399
  816MOL0     H10104  -0.615   5.538   3.305  2.2044 -1.7390 -1.5557
  816MOL0     H10105  -0.573   5.811   3.358 -0.7652  0.1922  0.8458
  816MOL0     H10106  -0.595   5.811   3.185  1.6727 -3.9518 -0.9084
  816MOL0     H10107  -0.809   5.873   3.283  1.4286  0.8116 -2.4006
  816MOL0     H10108  -0.827   5.714   3.213 -1.5103  0.1342  0.3180
  816MOL0     H10109  -0.942   5.773   3.429  0.7383  1.7544  0.9041
  816MOL0     H10110  -0.787   5.761   3.514 -0.3140 -0.4212  0.4847
  816MOL0     H10111  -0.985   5.524   3.285  0.3771  3.9177  1.1226
  816MOL0     H10112  -1.044   5.266   3.315  0.4746  2.3021 -0.5033
  816MOL0     H10113  -0.985   5.179   3.444 -2.6689 -2.5846 -2.2236
  816MOL0     H10114  -1.193   5.254   3.579 -2.0807  1.3457 -0.1210
  816MOL0     H10115  -1.223   5.158   3.441  2.5727 -0.7722 -0.0650
  816MOL0     H10116  -1.270   5.369   3.311  2.6691 -0.2460  0.5053
  816MOL0     H10117  -1.236   5.463   3.457 -1.4778 -0.1375  1.6131
  816MOL0     H10118  -1.434   5.382   3.575  0.4773 -1.9058  0.9342
  816MOL0     H10119  -1.457   5.244   3.460 -3.3556  0.6477  1.9903
  816MOL0     H10120  -1.643   5.309   3.610 -1.0649 -0.4123  2.0199
  816MOL0     H10121  -1.986   5.333   3.723  0.0501  4.8219  2.2039
  816MOL0     H10122  -1.824   5.240   3.734 -0.9812 -1.7896  0.6498
  816MOL0     H10123  -1.858   5.392   3.816 -1.3725 -1.3459  1.1100
  816MOL0     H10124  -2.275   5.802   3.448  1.0131  0.3854  1.0350
  816MOL0     H10125  -2.520   5.793   3.485  0.1516 -0.0245  1.1376
  816MOL0     H10126  -2.661   5.606   3.777 -0.9699  1.4702  0.2887
  816MOL0     H10127  -2.654   5.767   3.706  1.2367 -0.9065 -0.0072
  816MOL0     H10128  -2.892   5.576   3.669 -0.0302  0.4265 -1.4891
  816MOL0     H10129  -2.882   5.701   3.799 -1.7029  1.9998 -0.6233
  816MOL0     H10130  -3.009   5.751   3.567 -0.9538 -0.9590  2.3064
  816MOL0     H10131  -2.852   5.823   3.541  0.1477 -0.8316 -0.0950
  816MOL0     H10132  -3.024   5.965   3.648  0.2217  1.0256  2.0980
  816MOL0     H10133  -3.034   5.864   3.786  0.7101 -0.7458 -0.0616
  816MOL0     H10134  -2.757   6.006   3.723 -0.9536  1.2645 -1.4893
  816MOL0     H10135  -2.816   5.942   3.867 -1.2986  0.1137  0.4594
  816MOL0     H10136  -2.952   6.166   3.724  3.4029  0.6073 -1.3187
  816MOL0     H10137  -2.986   6.134   3.887  0.0197  0.0057  0.0056
  816MOL0     H10138  -2.860   6.308   3.922 -0.7016 -2.2918  0.5270
  816MOL0     H10139  -2.730   6.271   3.803 -0.1534 -0.1482 -1.2635
  816MOL0     H10140  -2.672   6.082   3.964  1.1906 -0.7225  3.3979
  816MOL0     H10141  -2.789   6.130   4.076  0.3115  2.1170  0.4246
  816MOL0     H10142  -2.519   5.398   3.624 -3.6399  0.9388 -0.7100
  816MOL0     H10143  -2.276   5.389   3.595  0.8042 -0.4113 -0.7442
  816MOL0     H10144  -1.906   5.647   3.351  0.0069  0.2688 -0.0411
  816MOL0     H10145  -1.678   5.592   3.284 -1.6052  1.5574 -0.0682
  816MOL0     H10146   0.043   5.643   3.280 -1.1295  0.8458 -0.0272
  816MOL0     H10147   0.227   5.737   3.433 -1.9405 -1.4082  0.5833
  816MOL0     H10148   0.694   5.987   3.306 -0.7273 -0.0962  0.2474
  816MOL0     H10149   0.863   6.073   3.420 -1.2262 -0.0171 -2.6066
  816MOL0     H10150   1.003   6.125   3.587 -0.9624 -0.9204  0.7680
  816MOL0     H10151   1.006   6.291   3.510  0.2078  0.6937  0.8260
  816MOL0     H10152   1.051   6.297   3.810  1.6040  0.7299  1.8575
  816MOL0     H10153   1.062   6.415   3.685  2.0969 -0.8151 -1.2656
  816MOL0     H10154   1.253   6.271   3.588  1.4278  0.0349  0.0584
  816MOL0     H10155   1.235   6.155   3.703 -0.8866 -0.3631 -1.5475
  816MOL0     H10156   1.327   6.443   3.748  0.3213 -0.1233 -0.5167
  816MOL0     H10157   1.426   6.293   3.751  0.1544 -2.9795  1.0535
  816MOL0     H10158   1.260   6.268   4.129 -2.9918  1.5300 -0.1822
  816MOL0     H10159   0.604   6.251   3.718  0.3772  2.1791 -0.6457
  816MOL0     H10160   0.406   6.176   3.583  1.0289  2.8783  1.3919
  817MOL0     O10161   2.536   9.486   9.555 -0.8810 -0.3700  0.4141
  817MOL0     C10162   2.573   9.385   9.615 -0.1243  0.5030  0.4814
  817MOL0     O10163   2.505   9.302   9.702 -0.3445  0.1511 -0.0054
  817MOL0     C10164   2.371   9.329   9.711 -0.5428  0.1850 -1.1445
  817MOL0     C10165   2.294   9.230   9.643 -0.5214 -0.2723 -0.0304
  817MOL0     C10166   2.156   9.229   9.674 -0.3491  0.2645 -0.0386
  817MOL0     C10167   2.092   9.338   9.739  0.5044  0.4217 -0.5634
  817MOL0     O10168   1.956   9.361   9.750  0.1920 -0.3368 -0.5393
  817MOL0     C10169   1.866   9.282   9.668 -0.2057  0.3165 -0.0478
  817MOL0     C10170   1.737   9.364   9.661  0.5131 -0.5082 -0.5623
  817MOL0     C10171   1.621   9.277   9.603  0.1752 -0.0146  0.1083
  817MOL0     C10172   1.494   9.364   9.590  0.4130  0.3276 -0.3056
  817MOL0     C10173   1.365   9.284   9.562 -0.4325 -0.1025 -0.5110
  817MOL0     C10174   1.244   9.355   9.627 -0.6361  0.3701  0.4227
  817MOL0     C10175   1.122   9.294   9.573 -0.2077  0.7246  0.0725
  817MOL0     C10176   1.078   9.360   9.435  0.0428 -0.4033 -0.3897
  817MOL0     N10177   0.954   9.289   9.391 -0.5240  0.8343  0.1514
  817MOL0     C10178   0.830   9.296   9.457 -0.0214  0.2231 -0.5742
  817MOL0     C10179   0.758   9.208   9.390 -0.8114  0.1687 -0.8618
  817MOL0     C10180   0.618   9.183   9.421 -0.0847  0.2555  0.2518
  817MOL0     C10181   0.587   9.034   9.449  0.3704 -0.9306  1.3303
  817MOL0     C10182   0.439   9.020   9.475  0.2694 -0.3701  0.1465
  817MOL0     C10183   0.385   8.891   9.530  0.2061  0.8768  0.3674
  817MOL0     O10184   0.414   8.789   9.426  0.0023  0.6999 -0.7226
  817MOL0     C10185   0.315   8.736   9.346  0.2312  0.2420 -0.2211
  817MOL0     C10186   0.190   8.704   9.401  0.7271 -0.4161  0.5819
  817MOL0     C10187   0.082   8.658   9.325 -0.3202  0.3661  0.1694
  817MOL0     C10188  -0.056   8.656   9.385  0.3220  0.0291 -0.2783
  817MOL0     C10189   0.110   8.631   9.188  0.1054 -0.3795 -0.3797
  817MOL0     C10190   0.002   8.577   9.098  0.2826 -0.9123  0.5067
  817MOL0     O10191   0.030   8.607   8.976 -0.0432 -0.0524  0.5792
  817MOL0     C10192  -0.061   8.601   8.870 -0.0683  0.2481  0.4896
  817MOL0     C10193  -0.190   8.537   8.865  0.1245  0.9673  0.2880
  817MOL0     C10194  -0.265   8.535   8.751  0.5122  0.3539  0.0196
  817MOL0     C10195  -0.224   8.601   8.635  0.1824  0.3416  0.8956
  817MOL0     O10196  -0.300   8.631   8.526 -0.4404 -0.0688 -0.1846
  817MOL0     C10197  -0.436   8.645   8.540  0.5060  0.1865 -0.1852
  817MOL0     C10198  -0.485   8.711   8.420 -0.5878 -0.9967  0.7576
  817MOL0     C10199  -0.634   8.745   8.416  0.1650  0.1638  0.4360
  817MOL0     C10200  -0.716   8.613   8.445 -0.8215 -0.2564  0.1014
  817MOL0     C10201  -0.861   8.638   8.428 -0.0927 -0.5269  0.2044
  817MOL0     C10202  -0.923   8.745   8.515  0.3085 -0.2641 -0.3532
  817MOL0     C10203  -1.080   8.754   8.499  1.2158 -0.2136 -0.1624
  817MOL0     C10204  -1.145   8.888   8.515 -0.8559  0.5246 -0.1282
  817MOL0    Cl10205  -1.317   8.860   8.528 -0.0838  0.3457  0.0608
  817MOL0     C10206  -0.102   8.666   8.639 -0.6687 -0.0597  0.0624
  817MOL0     C10207  -0.025   8.668   8.753 -0.1688  0.2573 -0.1656
  817MOL0     O10208  -0.108   8.533   9.136 -0.0388  0.4748 -0.4712
  817MOL0     C10209   0.242   8.650   9.138  0.7581 -0.5270 -0.1505
  817MOL0     C10210   0.340   8.703   9.216  0.1482 -0.2850  0.2037
  817MOL0     N10211   0.830   9.144   9.294 -0.3597  0.0887 -0.1630
  817MOL0     N10212   0.950   9.188   9.301 -0.4445 -0.3851  0.7781
  817MOL0     C10213   2.170   9.432   9.802 -0.3041  0.4652  1.7860
  817MOL0     C10214   2.307   9.427   9.795  0.7171 -0.1468  0.4636
  817MOL0     C10215   2.714   9.353   9.590  0.3604  0.4245  0.4127
  817MOL0     C10216   2.799   9.441   9.522  0.4576  0.0579  0.0964
  817MOL0     C10217   2.935   9.401   9.498  0.6628  0.0743  0.1853
  817MOL0     C10218   2.973   9.269   9.518 -0.1020  0.5503  0.7111
  817MOL0     O10219   3.101   9.238   9.480 -0.0261 -0.1989  0.0855
  817MOL0     C10220   3.149   9.099   9.479  0.6937  0.0337  0.1708
  817MOL0     C10221   3.303   9.085   9.449 -0.2018 -0.4370 -0.1534
  817MOL0     C10222   3.391   9.096   9.571 -0.5197 -0.0334  0.6482
  817MOL0     C10223   3.538   9.096   9.525  0.9156 -0.6897  0.1323
  817MOL0     C10224   3.629   9.153   9.624 -0.2218  0.2527  0.1878
  817MOL0     C10225   3.710   9.196   9.697 -0.4690 -0.1593 -0.1588
  817MOL0     C10226   2.889   9.181   9.580  0.1031  0.0871 -0.9391
  817MOL0     C10227   2.761   9.218   9.620  0.4674 -0.2193 -0.0069
  817MOL0     H10228   2.338   9.150   9.584  1.9715  2.2499 -1.8287
  817MOL0     H10229   2.088   9.153   9.638 -0.0229 -1.0729  2.0634
  817MOL0     H10230   1.902   9.264   9.566  0.0440 -1.1495  0.2794
  817MOL0     H10231   1.849   9.184   9.713 -1.2103  0.5584  0.1203
  817MOL0     H10232   1.720   9.403   9.762 -0.8377  1.4882 -1.4814
  817MOL0     H10233   1.759   9.454   9.603 -0.0088  0.5902  0.8932
  817MOL0     H10234   1.642   9.246   9.500 -0.1417  1.0412 -0.2860
  817MOL0     H10235   1.593   9.194   9.669  2.4796 -2.3556 -1.6232
  817MOL0     H10236   1.479   9.414   9.686 -2.4773 -1.0955  0.0921
  817MOL0     H10237   1.519   9.442   9.518 -1.5237  0.5834 -0.7356
  817MOL0     H10238   1.347   9.260   9.457  0.3556 -1.7449 -0.3078
  817MOL0     H10239   1.373   9.187   9.612  3.3645 -1.0219 -2.5311
  817MOL0     H10240   1.239   9.345   9.736 -1.7230 -2.3402  0.2251
  817MOL0     H10241   1.251   9.462   9.610  0.9777 -0.1559 -3.1854
  817MOL0     H10242   1.142   9.191   9.541 -1.5096 -0.0870  1.7006
  817MOL0     H10243   1.039   9.294   9.644 -0.6638 -0.2496 -0.4388
  817MOL0     H10244   1.157   9.356   9.359 -0.9939  2.6708 -1.7832
  817MOL0     H10245   1.056   9.465   9.454 -0.1823  0.1858 -3.3383
  817MOL0     H10246   0.800   9.361   9.539 -0.3802 -0.6854  0.0256
  817MOL0     H10247   0.588   9.253   9.499  3.6115  0.4176  1.6884
  817MOL0     H10248   0.567   9.211   9.328 -1.4292 -0.5094  0.7309
  817MOL0     H10249   0.649   8.994   9.529  1.2205 -0.8745  0.7175
  817MOL0     H10250   0.611   8.986   9.354  2.0054  0.8149  0.7891
  817MOL0     H10251   0.385   9.054   9.386  1.0155  1.2157  0.2653
  817MOL0     H10252   0.420   9.098   9.550  0.9352 -0.1251  0.0667
  817MOL0     H10253   0.277   8.907   9.543  0.3923  1.2818  1.5918
  817MOL0     H10254   0.427   8.874   9.630  1.3198 -1.0334 -0.3700
  817MOL0     H10255   0.180   8.729   9.506  1.2598  1.0941  0.2950
  817MOL0     H10256  -0.089   8.552   9.390  1.7895 -0.4468 -0.1738
  817MOL0     H10257  -0.049   8.703   9.483 -1.4550  1.2052 -0.6519
  817MOL0     H10258  -0.129   8.713   9.327  0.6508  0.3512 -0.3827
  817MOL0     H10259  -0.230   8.477   8.945  1.0984 -0.4288 -0.2279
  817MOL0     H10260  -0.363   8.487   8.756  0.9356 -0.7774 -1.7937
  817MOL0     H10261  -0.495   8.556   8.560 -2.4197  2.0196 -0.1097
  817MOL0     H10262  -0.445   8.717   8.622 -1.3192  0.8680 -0.9206
  817MOL0     H10263  -0.426   8.803   8.407 -0.2721 -1.4215 -1.2366
  817MOL0     H10264  -0.455   8.636   8.346  0.5626 -0.5241  0.7158
  817MOL0     H10265  -0.653   8.795   8.321  0.7814 -0.3598  0.0227
  817MOL0     H10266  -0.647   8.812   8.501  0.7184  0.8139  0.0166
  817MOL0     H10267  -0.692   8.529   8.379  0.6966 -1.3100  1.9011
  817MOL0     H10268  -0.690   8.566   8.540 -1.4389 -1.4136 -0.2930
  817MOL0     H10269  -0.911   8.542   8.445 -0.1845 -1.0682 -2.6027
  817MOL0     H10270  -0.886   8.673   8.327  1.1727 -0.0767  0.0237
  817MOL0     H10271  -0.896   8.699   8.611 -0.6164 -0.7244 -0.3085
  817MOL0     H10272  -0.867   8.838   8.502 -0.7556  0.3765 -0.4414
  817MOL0     H10273  -1.108   8.688   8.581  3.0709 -0.6450  0.1804
  817MOL0     H10274  -1.106   8.705   8.404  2.5579 -1.1753 -0.0700
  817MOL0     H10275  -1.124   8.943   8.423 -1.2518 -0.0159 -0.5428
  817MOL0     H10276  -1.111   8.945   8.603 -1.9743  2.3462 -0.8180
  817MOL0     H10277  -0.059   8.711   8.550  0.8437 -0.8315  0.3651
  817MOL0     H10278   0.077   8.705   8.747  1.6276 -3.7918  1.4162
  817MOL0     H10279   0.266   8.625   9.035  0.0827 -0.7634 -0.2570
  817MOL0     H10280   0.443   8.716   9.183 -0.1696 -0.1449 -0.7575
  817MOL0     H10281   2.114   9.500   9.866  1.3794  2.5498  1.1315
  817MOL0     H10282   2.373   9.485   9.858 -0.0134  0.1972  0.9242
  817MOL0     H10283   2.762   9.537   9.487  1.9209 -0.1145 -2.1410
  817MOL0     H10284   2.993   9.457   9.426 -1.2832 -0.8602 -2.2635
  817MOL0     H10285   3.124   9.063   9.579 -0.0336  1.6587  0.6179
  817MOL0     H10286   3.092   9.038   9.408  1.1018 -0.9500  0.6686
  817MOL0     H10287   3.324   9.157   9.370  0.1372 -0.5574 -0.1708
  817MOL0     H10288   3.319   8.993   9.392  0.5944  0.4549 -1.4107
  817MOL0     H10289   3.372   9.005   9.629 -2.1501 -1.5364 -2.0249
  817MOL0     H10290   3.363   9.190   9.619 -1.8445  0.3965 -0.8832
  817MOL0     H10291   3.549   9.141   9.426  0.1268 -0.3742  0.1833
  817MOL0     H10292   3.561   8.989   9.510  1.6247 -0.9064  2.4243
  817MOL0     H10293   3.795   9.231   9.753 -1.5941 -0.5043  1.8580
  817MOL0     H10294   2.920   9.080   9.605  2.8341  0.9530 -0.4945
  817MOL0     H10295   2.699   9.143   9.668 -1.9580  1.9800  0.5246
  818MOL0     O10296   9.527   0.817   3.472  0.3036  0.2477 -0.4415
  818MOL0     C10297   9.588   0.809   3.363  0.2352  0.0087  0.8512
  818MOL0     O10298   9.558   0.890   3.258  0.4213  0.3871  0.3182
  818MOL0     C10299   9.450   0.981   3.256 -0.5708 -0.1760  1.3371
  818MOL0     C10300   9.453   1.074   3.146 -0.5114 -0.2922 -0.3008
  818MOL0     C10301   9.357   1.173   3.139  0.0512 -0.3957  0.3516
  818MOL0     C10302   9.240   1.165   3.224  0.9480 -0.3804 -0.1142
  818MOL0     O10303   9.128   1.242   3.207 -0.1276  0.4466 -0.5757
  818MOL0     C10304   9.121   1.331   3.096  0.0363  0.4916  1.0564
  818MOL0     C10305   8.973   1.385   3.095 -0.3949 -0.1401 -0.8204
  818MOL0     C10306   8.924   1.458   3.224  0.0870 -1.1212  0.1704
  818MOL0     C10307   8.785   1.508   3.206  0.8790  0.2798 -0.0714
  818MOL0     C10308   8.721   1.574   3.329  0.4236 -0.2448  0.1709
  818MOL0     C10309   8.567   1.610   3.324  0.2912 -0.3302 -0.2164
  818MOL0     C10310   8.493   1.493   3.258  0.3823  0.7524 -0.0851
  818MOL0     C10311   8.350   1.527   3.245  1.0209  0.2246  0.5158
  818MOL0     N10312   8.263   1.423   3.182  0.7687  0.6229 -0.0865
  818MOL0     C10313   8.220   1.308   3.237 -0.3270  0.2657  0.2459
  818MOL0     C10314   8.122   1.266   3.152  0.1165  0.2246  0.2106
  818MOL0     C10315   8.019   1.161   3.172 -0.2329  0.2720 -0.2769
  818MOL0     C10316   8.066   1.019   3.133  0.4880 -0.3301  0.7943
  818MOL0     C10317   7.951   0.916   3.139 -0.3863 -0.2128 -1.3309
  818MOL0     C10318   7.982   0.788   3.068  0.1486  0.1294 -0.0577
  818MOL0     O10319   7.892   0.697   3.122  0.2208  0.1935 -0.4955
  818MOL0     C10320   7.767   0.671   3.066 -0.9190 -0.2633 -0.6785
  818MOL0     C10321   7.690   0.738   2.975 -0.3202 -0.0228  0.0174
  818MOL0     C10322   7.562   0.704   2.944 -0.0225 -0.8330  0.9769
  818MOL0     C10323   7.493   0.772   2.827 -0.5044 -0.6350  0.0253
  818MOL0     C10324   7.514   0.579   2.996  0.1676 -0.0694  0.0106
  818MOL0     C10325   7.383   0.514   2.960  0.2526 -1.6076 -0.2027
  818MOL0     O10326   7.280   0.598   2.917  0.4586 -0.1928  0.2355
  818MOL0     C10327   7.181   0.521   2.855 -1.1224 -0.2275  0.4811
  818MOL0     C10328   7.196   0.449   2.732 -0.2123 -0.3126 -0.6656
  818MOL0     C10329   7.101   0.367   2.685 -0.0693  0.6990  0.5549
  818MOL0     C10330   6.977   0.355   2.757 -0.0408 -0.4902  0.7390
  818MOL0     O10331   6.886   0.264   2.709  0.0940  0.4484 -0.6439
  818MOL0     C10332   6.882   0.218   2.573 -0.3317 -0.1138  0.1614
  818MOL0     C10333   6.770   0.116   2.549  0.0351  1.2973 -0.1027
  818MOL0     C10334   6.639   0.179   2.583 -0.5074  0.3251  0.0951
  818MOL0     C10335   6.521   0.094   2.530  0.2110  0.0705 -0.6399
  818MOL0     C10336   6.393   0.198   2.542 -0.5720  0.1369  0.1991
  818MOL0     C10337   6.275   0.130   2.462  0.1913  0.2485 -0.4508
  818MOL0     C10338   6.221   0.011   2.544 -1.3100 -0.1607 -0.3861
  818MOL0     C10339   6.100   0.040   2.630 -0.3118  0.0603 -0.0265
  818MOL0    Cl10340   6.058  -0.106   2.734  0.0976  0.2265 -0.2574
  818MOL0     C10341   6.954   0.426   2.873 -0.0750 -0.2474  0.5693
  818MOL0     C10342   7.056   0.509   2.924 -1.4561 -0.2796 -0.2783
  818MOL0     O10343   7.373   0.394   2.982 -0.3198  0.0800  0.4480
  818MOL0     C10344   7.597   0.499   3.075 -0.1148 -0.1857  0.6311
  818MOL0     C10345   7.721   0.548   3.110  0.0608 -0.2561 -0.8063
  818MOL0     N10346   8.115   1.355   3.046 -0.3711  0.1972 -0.0940
  818MOL0     N10347   8.202   1.445   3.062 -0.4854  0.2814 -0.2307
  818MOL0     C10348   9.230   1.065   3.320 -0.0403 -0.6283  0.4501
  818MOL0     C10349   9.334   0.975   3.337  0.7077 -0.1493 -0.2524
  818MOL0     C10350   9.697   0.711   3.356  0.4788 -1.5231 -0.2578
  818MOL0     C10351   9.748   0.697   3.229 -0.1051  0.7680  0.3000
  818MOL0     C10352   9.857   0.601   3.217  0.9249  0.5132  0.5626
  818MOL0     C10353   9.914   0.538   3.321 -0.6121  0.7587  0.6012
  818MOL0     O10354  10.016   0.454   3.283  0.2259 -0.4999  0.6133
  818MOL0     C10355  10.087   0.378   3.384  0.4155  0.5964  0.5817
  818MOL0     C10356  10.209   0.450   3.436  0.7395 -0.1608  0.2499
  818MOL0     C10357  10.322   0.433   3.329 -0.3050 -0.7693  0.0323
  818MOL0     C10358  10.446   0.518   3.357  1.1467 -0.0055  0.4112
  818MOL0     C10359  10.533   0.507   3.231  0.2710 -0.0065  0.1151
  818MOL0     C10360  10.614   0.486   3.140  0.3228  0.5751  0.5512
  818MOL0     C10361   9.859   0.551   3.456  0.5815 -0.0077 -0.2801
  818MOL0     C10362   9.749   0.644   3.470  0.2535 -0.0530  0.5152
  818MOL0     H10363   9.539   1.069   3.081  1.5187  0.9423  2.1176
  818MOL0     H10364   9.367   1.237   3.052 -3.9295 -1.4148 -1.0835
  818MOL0     H10365   9.190   1.413   3.112 -0.5467  0.8977  1.5272
  818MOL0     H10366   9.148   1.271   3.008  0.7713 -0.9592  2.2403
  818MOL0     H10367   8.965   1.457   3.013  1.1081  1.5963  0.4886
  818MOL0     H10368   8.902   1.305   3.070 -0.9970  0.0930  0.0715
  818MOL0     H10369   8.922   1.390   3.310 -0.6762 -2.6592 -1.0330
  818MOL0     H10370   8.993   1.541   3.245  0.5037 -1.8686  1.9330
  818MOL0     H10371   8.776   1.573   3.119  0.3832  0.3117 -0.0031
  818MOL0     H10372   8.732   1.414   3.187  0.8072  0.1390  0.7884
  818MOL0     H10373   8.717   1.503   3.412  2.2138  0.1964  0.6816
  818MOL0     H10374   8.779   1.656   3.371 -2.1235  0.6462  2.1806
  818MOL0     H10375   8.530   1.630   3.425  1.6779 -0.5366  0.3551
  818MOL0     H10376   8.547   1.692   3.254  1.0889 -1.7093 -2.1581
  818MOL0     H10377   8.540   1.476   3.160  3.2999 -1.8473  1.5796
  818MOL0     H10378   8.488   1.398   3.311 -1.3279  0.6335 -0.3968
  818MOL0     H10379   8.334   1.620   3.189  1.2170 -1.1484 -1.9598
  818MOL0     H10380   8.315   1.547   3.346 -1.0184  0.6098 -0.2116
  818MOL0     H10381   8.248   1.265   3.333  2.6355  0.8489 -0.2537
  818MOL0     H10382   8.005   1.161   3.281 -1.0745 -0.6852 -0.3647
  818MOL0     H10383   7.925   1.189   3.124  0.3669  2.4515 -0.2998
  818MOL0     H10384   8.140   0.982   3.205 -0.2080  0.5180  1.9649
  818MOL0     H10385   8.113   1.014   3.034  1.9186 -0.9379  1.4739
  818MOL0     H10386   7.856   0.956   3.103 -1.3228  1.6364  2.6460
  818MOL0     H10387   7.947   0.890   3.246  2.7150 -4.7395 -2.0005
  818MOL0     H10388   8.083   0.754   3.091 -0.8062 -2.4867  0.5922
  818MOL0     H10389   7.972   0.798   2.959 -0.9285 -1.0699 -0.0910
  818MOL0     H10390   7.726   0.829   2.928 -1.6646  0.8743  0.6513
  818MOL0     H10391   7.431   0.708   2.762 -1.1454 -1.6114  1.5480
  818MOL0     H10392   7.442   0.861   2.866 -0.1598 -1.1806  1.8134
  818MOL0     H10393   7.569   0.815   2.761  0.0735 -0.7816  0.5941
  818MOL0     H10394   7.297   0.450   2.693  0.3497 -1.0199  0.7124
  818MOL0     H10395   7.117   0.315   2.590 -0.4669 -2.5387  2.1056
  818MOL0     H10396   6.864   0.304   2.507  1.0266 -0.2061 -0.3622
  818MOL0     H10397   6.980   0.177   2.546  0.1809  0.3954  1.1763
  818MOL0     H10398   6.773   0.090   2.443  2.5599 -0.1253  0.2242
  818MOL0     H10399   6.783   0.023   2.606  0.5521  1.4134 -0.0281
  818MOL0     H10400   6.642   0.279   2.539  2.3480  0.8271  1.2547
  818MOL0     H10401   6.630   0.187   2.691 -0.8065  0.8987  0.0308
  818MOL0     H10402   6.550   0.065   2.429 -0.7760  0.8159 -1.1546
  818MOL0     H10403   6.506   0.005   2.591  0.1426  1.8694  2.1796
  818MOL0     H10404   6.423   0.296   2.503  0.2161 -1.0972 -2.5034
  818MOL0     H10405   6.376   0.222   2.648  2.3569 -3.0085  1.5570
  818MOL0     H10406   6.193   0.201   2.444 -1.6572 -1.1863  1.7351
  818MOL0     H10407   6.315   0.095   2.367  1.2241  0.3590 -0.0635
  818MOL0     H10408   6.306  -0.037   2.594 -2.0349  0.2210  1.2829
  818MOL0     H10409   6.176  -0.061   2.474  0.2922  0.3692 -2.0422
  818MOL0     H10410   6.014   0.070   2.569 -1.3961 -0.8615  0.9913
  818MOL0     H10411   6.123   0.121   2.700  3.4052 -2.7752  2.4625
  818MOL0     H10412   6.862   0.423   2.930  0.8615  1.8168  2.2745
  818MOL0     H10413   7.055   0.561   3.019  0.0730 -1.0219  0.1768
  818MOL0     H10414   7.572   0.396   3.101 -1.6832 -0.8880 -3.0393
  818MOL0     H10415   7.788   0.494   3.175  0.5412 -0.4115 -1.4290
  818MOL0     H10416   9.146   1.050   3.386  0.0368 -1.5862  0.3355
  818MOL0     H10417   9.309   0.885   3.392 -0.3014  0.6101  0.5774
  818MOL0     H10418   9.721   0.744   3.135 -1.2604  1.0763  0.7731
  818MOL0     H10419   9.900   0.576   3.120 -1.2886  0.5642 -0.4985
  818MOL0     H10420  10.015   0.365   3.466  0.0075  1.3947  0.3679
  818MOL0     H10421  10.121   0.279   3.353  0.7217  0.1207  2.3316
  818MOL0     H10422  10.240   0.399   3.528 -2.5562 -3.0647 -0.0743
  818MOL0     H10423  10.177   0.553   3.457 -1.8208 -1.1161  1.2998
  818MOL0     H10424  10.280   0.467   3.233  0.5741 -0.7878 -0.3697
  818MOL0     H10425  10.346   0.327   3.325 -1.3201 -0.9822 -1.6251
  818MOL0     H10426  10.497   0.497   3.452 -0.8937 -2.4241  1.0840
  818MOL0     H10427  10.404   0.619   3.359 -0.4631 -0.6133 -0.5148
  818MOL0     H10428  10.690   0.464   3.068  0.5259 -2.3549  1.4917
  818MOL0     H10429   9.891   0.508   3.550  0.3455 -0.4297 -0.3931
  818MOL0     H10430   9.709   0.660   3.569  0.8531  2.2095  0.4375
  819MOL0     O10431   4.626   5.742  10.907  0.2104  0.0187 -0.3160
  819MOL0     C10432   4.581   5.855  10.939 -0.2680 -0.1480 -0.6992
  819MOL0     O10433   4.441   5.887  10.928 -0.3330 -0.0164 -0.1502
  819MOL0     C10434   4.356   5.805  10.859  0.0033 -0.2614  0.3332
  819MOL0     C10435   4.374   5.784  10.725  0.2893  0.3928  1.0652
  819MOL0     C10436   4.286   5.704  10.651  0.6470 -0.5319  0.2213
  819MOL0     C10437   4.177   5.646  10.716  0.1182 -0.3567 -0.4531
  819MOL0     O10438   4.092   5.571  10.641 -0.0130  0.5691 -0.2177
  819MOL0     C10439   3.956   5.572  10.677  1.2617 -0.4364  0.0426
  819MOL0     C10440   3.879   5.696  10.607 -0.1540 -0.2175 -0.2267
  819MOL0     C10441   3.736   5.707  10.661  0.1815 -0.2463 -0.3009
  819MOL0     C10442   3.668   5.836  10.609 -0.1745 -0.4665  0.4027
  819MOL0     C10443   3.542   5.868  10.687 -0.0017  0.6597 -0.7782
  819MOL0     C10444   3.435   5.766  10.673  0.4236  0.3230  0.8964
  819MOL0     C10445   3.303   5.814  10.739  0.5334 -0.7823  0.3957
  819MOL0     C10446   3.231   5.927  10.663 -0.4913 -0.0942  0.3109
  819MOL0     N10447   3.090   5.930  10.697  0.8043 -0.4647  0.2323
  819MOL0     C10448   2.986   5.861  10.646  0.0463  0.0530 -0.0828
  819MOL0     C10449   2.878   5.904  10.711 -0.0138  0.3024 -0.5512
  819MOL0     C10450   2.736   5.859  10.696 -0.3169 -0.1385  0.2226
  819MOL0     C10451   2.702   5.736  10.784  0.6809  0.7385 -0.5234
  819MOL0     C10452   2.732   5.748  10.937  0.7879  0.2424  0.6378
  819MOL0     C10453   2.617   5.813  11.006  0.5399  0.2166 -0.0593
  819MOL0     O10454   2.539   5.705  11.060 -0.2269 -0.2046  0.2685
  819MOL0     C10455   2.420   5.733  11.130 -0.3464  0.6903  0.9052
  819MOL0     C10456   2.342   5.627  11.184  0.0842  0.5979 -0.0051
  819MOL0     C10457   2.217   5.656  11.238  1.0041 -0.1132 -0.1558
  819MOL0     C10458   2.138   5.533  11.274  0.5302  0.3435 -0.3057
  819MOL0     C10459   2.163   5.788  11.235  0.0134  0.1858  0.1061
  819MOL0     C10460   2.023   5.818  11.272 -0.5518  0.1363  0.9311
  819MOL0     O10461   1.949   5.738  11.350  0.2081  0.6514  0.5393
  819MOL0     C10462   1.822   5.753  11.384  0.1972  0.2496 -0.1529
  819MOL0     C10463   1.750   5.872  11.396  0.1033 -0.4236  0.5606
  819MOL0     C10464   1.613   5.869  11.425  0.2512  0.1265  0.1613
  819MOL0     C10465   1.544   5.746  11.437  0.0140 -0.4304 -0.0405
  819MOL0     O10466   1.415   5.756  11.488 -0.2119 -0.2453 -0.2493
  819MOL0     C10467   1.343   5.633  11.471  0.1405 -0.2713 -0.1562
  819MOL0     C10468   1.193   5.661  11.490 -0.1419  0.3989 -0.3444
  819MOL0     C10469   1.157   5.739  11.618  0.1037 -0.1446 -0.2721
  819MOL0     C10470   1.156   5.898  11.630 -0.1413  0.5435  0.8288
  819MOL0     C10471   1.204   5.951  11.767 -0.2886 -0.2043  0.2220
  819MOL0     C10472   1.125   5.900  11.893 -0.1288 -0.1442  0.8930
  819MOL0     C10473   0.982   5.953  11.889  0.0398 -0.7993 -0.2113
  819MOL0     C10474   0.920   5.971  12.026 -0.1563  0.1713  0.0842
  819MOL0    Cl10475   0.748   6.016  11.987  0.1840  0.2833 -0.3113
  819MOL0     C10476   1.618   5.632  11.422  1.0040 -0.1480 -0.3660
  819MOL0     C10477   1.752   5.633  11.396 -0.4086 -0.0086  1.0154
  819MOL0     O10478   1.980   5.923  11.212  0.4340  1.1027  0.1840
  819MOL0     C10479   2.244   5.897  11.180 -0.4198 -0.0207  0.7995
  819MOL0     C10480   2.368   5.868  11.131 -0.0491  0.8220  1.2274
  819MOL0     N10481   2.919   5.995  10.806  0.1833 -0.5995 -0.2318
  819MOL0     N10482   3.046   6.026  10.787  0.4815  0.2961  0.0183
  819MOL0     C10483   4.153   5.667  10.853  0.2174 -0.5325  0.5851
  819MOL0     C10484   4.246   5.748  10.927  0.1912 -0.3557  0.3343
  819MOL0     C10485   4.670   5.962  10.999 -0.0124  0.1167 -0.1642
  819MOL0     C10486   4.638   6.100  11.000  0.0812  0.0628  0.4558
  819MOL0     C10487   4.724   6.198  11.040  0.1261  0.5053  0.2913
  819MOL0     C10488   4.848   6.161  11.091 -0.3073  0.0069  0.5269
  819MOL0     O10489   4.948   6.246  11.135 -0.8881  0.4283 -0.0519
  819MOL0     C10490   4.973   6.382  11.080  1.0376 -0.2424  0.4320
  819MOL0     C10491   5.005   6.479  11.190  0.1120 -1.0960 -0.2553
  819MOL0     C10492   5.076   6.610  11.163 -0.7852 -0.0314  0.2392
  819MOL0     C10493   4.970   6.717  11.135 -0.8905 -0.2696 -0.3086
  819MOL0     C10494   5.027   6.847  11.141  0.1094  0.2812 -0.0442
  819MOL0     C10495   5.073   6.959  11.129 -0.1887 -0.2202 -0.1267
  819MOL0     C10496   4.881   6.021  11.106  0.6570 -0.1950 -0.4690
  819MOL0     C10497   4.797   5.927  11.054  0.0883  0.4578 -0.3463
  819MOL0     H10498   4.469   5.824  10.689  0.9141 -0.1616  2.0515
  819MOL0     H10499   4.289   5.686  10.544  1.0636  0.0463  0.1278
  819MOL0     H10500   3.927   5.476  10.633  0.3620  0.5743 -1.7046
  819MOL0     H10501   3.928   5.573  10.782  0.3748  0.3816 -0.1858
  819MOL0     H10502   3.930   5.787  10.641 -2.2612  1.4581 -1.3453
  819MOL0     H10503   3.885   5.688  10.498 -1.0080  0.0283 -0.2997
  819MOL0     H10504   3.674   5.627  10.620  0.0462 -0.4237  0.2458
  819MOL0     H10505   3.732   5.695  10.770  0.6145 -0.6787 -0.3300
  819MOL0     H10506   3.736   5.921  10.627 -0.6569 -0.1286  0.6496
  819MOL0     H10507   3.644   5.817  10.504  0.8231 -1.9198  0.4075
  819MOL0     H10508   3.560   5.872  10.795  1.4914 -3.0778 -0.7379
  819MOL0     H10509   3.506   5.966  10.656 -1.4602  0.5521  0.4560
  819MOL0     H10510   3.419   5.747  10.566  1.7884  0.0448  0.7258
  819MOL0     H10511   3.471   5.676  10.723  0.5743 -0.1669 -0.0519
  819MOL0     H10512   3.235   5.728  10.750  0.3202 -0.6233  0.3253
  819MOL0     H10513   3.330   5.845  10.841 -1.1036 -1.1809  0.9849
  819MOL0     H10514   3.251   5.906  10.558  2.9694  0.2856  0.7640
  819MOL0     H10515   3.273   6.027  10.678  1.7049 -0.9067 -0.0727
  819MOL0     H10516   2.985   5.795  10.560  2.0833  0.8421 -0.7675
  819MOL0     H10517   2.665   5.936  10.729 -0.6084 -0.4980  0.4454
  819MOL0     H10518   2.720   5.824  10.593 -1.2571 -2.3267  1.0499
  819MOL0     H10519   2.760   5.651  10.748 -1.2638 -0.8410 -0.0939
  819MOL0     H10520   2.596   5.713  10.770  0.6926 -0.4822  1.1183
  819MOL0     H10521   2.820   5.806  10.965  1.8231 -0.9176 -0.0992
  819MOL0     H10522   2.749   5.653  10.986 -1.5851  0.1797  1.4731
  819MOL0     H10523   2.564   5.873  10.930  1.3947 -0.3758 -1.1566
  819MOL0     H10524   2.642   5.870  11.096  0.9318 -1.2520  0.7864
  819MOL0     H10525   2.379   5.525  11.191 -0.1127  0.6530  2.2835
  819MOL0     H10526   2.132   5.521  11.382  0.7147  2.3372 -0.0439
  819MOL0     H10527   2.037   5.545  11.234  1.3951  0.8285 -2.4814
  819MOL0     H10528   2.181   5.446  11.223  0.8420 -1.5437  2.9351
  819MOL0     H10529   1.800   5.968  11.382 -1.7106  0.4943  0.0505
  819MOL0     H10530   1.550   5.957  11.438 -0.3448 -0.5859  2.6412
  819MOL0     H10531   1.349   5.602  11.366 -1.4672 -2.7711  0.4082
  819MOL0     H10532   1.385   5.556  11.536  1.2033 -3.5118 -4.2366
  819MOL0     H10533   1.148   5.699  11.398  0.0903  1.1548 -0.1544
  819MOL0     H10534   1.149   5.561  11.483  1.5860 -0.4686  0.5379
  819MOL0     H10535   1.229   5.708  11.695 -0.8549  0.0401  0.7254
  819MOL0     H10536   1.063   5.707  11.663 -0.1783  1.2605  0.2026
  819MOL0     H10537   1.220   5.941  11.553  2.2035 -2.1991  1.0916
  819MOL0     H10538   1.055   5.934  11.605 -0.8196 -1.5517  0.3713
  819MOL0     H10539   1.219   6.059  11.764 -2.1722  0.0715 -1.7334
  819MOL0     H10540   1.301   5.901  11.779 -0.5001 -0.5015  0.7391
  819MOL0     H10541   1.129   5.791  11.905  3.9970 -0.9409 -3.9402
  819MOL0     H10542   1.173   5.945  11.981 -1.7218 -0.0674  1.7552
  819MOL0     H10543   0.929   5.885  11.821 -2.0453  2.4352 -2.0769
  819MOL0     H10544   0.977   6.049  11.837 -0.2900 -1.1775 -0.8931
  819MOL0     H10545   0.971   6.047  12.085 -0.5532 -0.4158  1.2073
  819MOL0     H10546   0.923   5.883  12.091 -0.5751 -0.2332 -0.4259
  819MOL0     H10547   1.575   5.534  11.438  1.4477  0.0733  2.9699
  819MOL0     H10548   1.806   5.539  11.384 -1.0517 -0.6357  2.7276
  819MOL0     H10549   2.207   5.999  11.172 -0.6815 -0.2613 -2.4485
  819MOL0     H10550   2.414   5.958  11.090 -1.5831  1.2012  0.2672
  819MOL0     H10551   4.074   5.614  10.905 -0.4104  0.6386  0.8698
  819MOL0     H10552   4.247   5.749  11.035 -1.4598  0.3456  0.3806
  819MOL0     H10553   4.536   6.127  10.975  0.5080 -0.1328 -1.6614
  819MOL0     H10554   4.694   6.301  11.030 -1.0148  0.7755  4.5060
  819MOL0     H10555   5.057   6.376  11.010  0.0736 -1.8244 -0.6455
  819MOL0     H10556   4.887   6.402  11.015  1.6410  1.1693  0.0248
  819MOL0     H10557   5.078   6.423  11.250  0.0743 -1.8719 -0.9193
  819MOL0     H10558   4.922   6.500  11.258  2.1678  2.2995  1.5244
  819MOL0     H10559   5.135   6.602  11.071  2.8796  0.0980  2.4148
  819MOL0     H10560   5.144   6.634  11.245 -1.2922  0.1874  0.6002
  819MOL0     H10561   4.884   6.707  11.202  0.8896 -0.8101  2.0115
  819MOL0     H10562   4.930   6.714  11.033 -1.1833 -0.0944 -0.1973
  819MOL0     H10563   5.114   7.058  11.119  0.9484 -0.5231  1.2343
  819MOL0     H10564   4.981   5.995  11.138  0.2496 -1.7993 -0.4335
  819MOL0     H10565   4.828   5.823  11.048  3.1058  1.1945  0.8942
  820MOL0     O10566   9.803  10.543   7.181  0.6217 -0.3852 -0.4500
  820MOL0     C10567   9.856  10.590   7.076 -0.2768 -0.7919  0.2579
  820MOL0     O10568   9.782  10.605   6.953 -0.6569 -0.7309  1.3325
  820MOL0     C10569   9.649  10.571   6.959  1.1714 -1.4185 -1.2369
  820MOL0     C10570   9.604  10.436   6.976 -0.5914 -0.1422 -1.0255
  820MOL0     C10571   9.471  10.405   6.982 -0.3852 -0.2508 -0.5450
  820MOL0     C10572   9.372  10.497   6.950  0.8142 -1.7040 -0.0950
  820MOL0     O10573   9.239  10.479   6.949 -0.0331 -0.0999  0.0181
  820MOL0     C10574   9.194  10.344   6.948  0.5206 -0.4079 -0.1330
  820MOL0     C10575   9.040  10.335   6.902  0.7296 -0.7731 -0.4582
  820MOL0     C10576   8.946  10.402   6.998 -0.3160  0.6028  0.9103
  820MOL0     C10577   8.842  10.489   6.930 -0.5359 -0.0072  1.6661
  820MOL0     C10578   8.730  10.550   7.020  0.5333  0.7896 -0.6637
  820MOL0     C10579   8.776  10.635   7.141 -0.0819 -0.6178  0.1187
  820MOL0     C10580   8.656  10.695   7.226 -0.2962  0.9345  0.1308
  820MOL0     C10581   8.711  10.731   7.365 -0.1629  0.1891  0.5674
  820MOL0     N10582   8.607  10.788   7.454  0.1931 -0.4866  0.8397
  820MOL0     C10583   8.476  10.818   7.422 -0.2897  1.1956 -0.3919
  820MOL0     C10584   8.438  10.907   7.519 -0.7850  0.2570 -0.2549
  820MOL0     C10585   8.319  10.998   7.541  0.1075 -0.0496 -0.0892
  820MOL0     C10586   8.184  10.943   7.491  0.1938 -0.2132  0.5099
  820MOL0     C10587   8.083  11.057   7.479  0.4735 -0.2576  0.1249
  820MOL0     C10588   7.948  11.002   7.462  0.1664  0.3096  0.1632
  820MOL0     O10589   7.860  11.115   7.445  0.8034 -0.3357  0.1071
  820MOL0     C10590   7.731  11.100   7.423 -0.2648 -0.3165  0.1528
  820MOL0     C10591   7.672  10.979   7.366  0.6797 -0.5232  0.0444
  820MOL0     C10592   7.533  10.959   7.351  0.1980  0.9955 -0.3492
  820MOL0     C10593   7.487  10.821   7.294 -0.5471 -0.7063  0.0768
  820MOL0     C10594   7.446  11.067   7.392  0.4077  0.0525 -0.4527
  820MOL0     C10595   7.293  11.061   7.386 -0.0045 -0.1430 -0.0110
  820MOL0     O10596   7.235  10.935   7.375  1.0246 -0.2090  0.1336
  820MOL0     C10597   7.107  10.930   7.346 -0.0480 -0.1665  0.0844
  820MOL0     C10598   7.059  10.933   7.219 -0.0145 -0.3097 -0.0959
  820MOL0     C10599   6.928  10.951   7.186 -0.3686 -0.4467 -1.0464
  820MOL0     C10600   6.835  10.939   7.287  0.0149 -0.2658  0.4063
  820MOL0     O10601   6.704  10.934   7.246  0.5377  0.5306 -0.3563
  820MOL0     C10602   6.603  10.928   7.341  1.3508 -0.7035  0.0047
  820MOL0     C10603   6.464  10.929   7.281 -0.2841  0.4384  0.1136
  820MOL0     C10604   6.436  10.842   7.163  0.2678  0.9072 -0.1899
  820MOL0     C10605   6.288  10.778   7.166 -0.0331  0.2704  0.4505
  820MOL0     C10606   6.170  10.886   7.166  0.8251  0.5449  0.0511
  820MOL0     C10607   6.028  10.819   7.153 -0.2868  0.5111  0.0420
  820MOL0     C10608   5.936  10.888   7.053 -0.4682 -0.7330  0.6816
  820MOL0     C10609   5.972  10.856   6.908  0.3463  0.5683 -0.6234
  820MOL0    Cl10610   5.935  10.683   6.862  0.1533 -0.6791 -0.1148
  820MOL0     C10611   6.880  10.948   7.420  0.9469  0.6928 -0.0979
  820MOL0     C10612   7.014  10.944   7.449  0.0252  0.6166 -0.4717
  820MOL0     O10613   7.233  11.169   7.384  0.2469 -0.2245 -0.1226
  820MOL0     C10614   7.507  11.188   7.433 -0.2152  0.2868 -0.4329
  820MOL0     C10615   7.641  11.199   7.458 -1.1517  0.0969  0.0005
  820MOL0     N10616   8.544  10.914   7.614  0.4271  0.0181 -0.1013
  820MOL0     N10617   8.649  10.849   7.575  0.2241 -0.1050  0.6729
  820MOL0     C10618   9.416  10.628   6.920  0.0892 -0.0304  0.9956
  820MOL0     C10619   9.551  10.668   6.930  0.3762  0.3951  0.4711
  820MOL0     C10620  10.004  10.622   7.083  1.3686  1.0767  0.0196
  820MOL0     C10621  10.073  10.655   6.973  0.4326  0.3074  0.0730
  820MOL0     C10622  10.205  10.685   6.977 -1.0931  0.8908  0.1673
  820MOL0     C10623  10.271  10.697   7.104 -0.1570  0.6712  0.5491
  820MOL0     O10624  10.406  10.723   7.109 -0.0072 -0.3030  0.1468
  820MOL0     C10625  10.456  10.852   7.073  1.1913  0.1604 -0.5786
  820MOL0     C10626  10.607  10.866   7.076  0.2557 -0.4474 -0.6507
  820MOL0     C10627  10.682  10.786   6.965  0.2237  0.7659 -0.4413
  820MOL0     C10628  10.819  10.834   6.952 -0.1069 -0.0194 -0.1379
  820MOL0     C10629  10.885  10.767   6.835  0.2135 -0.3936  0.1861
  820MOL0     C10630  10.920  10.730   6.728  0.2123  0.4014  0.2728
  820MOL0     C10631  10.199  10.663   7.218  0.7249  0.8712  0.1587
  820MOL0     C10632  10.064  10.620   7.203  0.1870 -0.4896  0.3315
  820MOL0     H10633   9.673  10.354   6.987 -0.7385 -0.0912  0.5334
  820MOL0     H10634   9.437  10.306   7.012  0.3499 -0.2263  0.4238
  820MOL0     H10635   9.256  10.283   6.880  2.4312 -0.4667  1.5636
  820MOL0     H10636   9.201  10.293   7.045  0.7602 -2.0676 -0.9727
  820MOL0     H10637   9.032  10.387   6.806  1.7416  1.1866  0.4435
  820MOL0     H10638   9.005  10.232   6.891 -1.1339 -0.2555  0.2768
  820MOL0     H10639   8.899  10.322   7.056  0.6373 -0.7342 -0.0996
  820MOL0     H10640   9.011  10.464   7.061 -1.0846  2.1467  0.2334
  820MOL0     H10641   8.886  10.566   6.866 -1.3828 -1.9366 -1.4449
  820MOL0     H10642   8.780  10.432   6.861  1.3274 -1.2184  0.9337
  820MOL0     H10643   8.680  10.617   6.950  1.1002 -0.8287 -2.7015
  820MOL0     H10644   8.658  10.472   7.047  2.5400 -0.8772  0.1773
  820MOL0     H10645   8.833  10.573   7.210 -2.3169 -2.2998  0.5719
  820MOL0     H10646   8.844  10.715   7.108 -0.9806  0.0215 -0.2251
  820MOL0     H10647   8.596  10.770   7.173  2.3357  1.6315 -2.0963
  820MOL0     H10648   8.597  10.603   7.235  0.7704  0.2048 -0.1655
  820MOL0     H10649   8.795  10.800   7.352 -1.0757  1.3740  0.6808
  820MOL0     H10650   8.749  10.639   7.410 -1.2544  0.0637  1.2947
  820MOL0     H10651   8.421  10.771   7.340  1.6110 -1.7977 -0.1076
  820MOL0     H10652   8.300  11.017   7.647 -1.8640  2.2387 -0.7689
  820MOL0     H10653   8.329  11.093   7.489 -0.5632 -0.3062 -0.7011
  820MOL0     H10654   8.155  10.855   7.549 -0.6901  0.3956  1.0198
  820MOL0     H10655   8.186  10.914   7.386 -1.3531 -0.7651  0.6123
  820MOL0     H10656   8.097  11.118   7.389 -3.6984 -0.9948 -1.2646
  820MOL0     H10657   8.080  11.117   7.570  0.3783 -0.0916  0.0141
  820MOL0     H10658   7.919  10.942   7.549 -1.0276  1.0670  0.3169
  820MOL0     H10659   7.949  10.930   7.380  1.8509  0.1969  0.2569
  820MOL0     H10660   7.739  10.904   7.324  1.5944  0.3881 -0.1706
  820MOL0     H10661   7.571  10.755   7.272  1.2044  0.2385  3.2692
  820MOL0     H10662   7.428  10.768   7.370 -1.1333 -1.4021 -0.8375
  820MOL0     H10663   7.429  10.841   7.203 -0.3458  2.9985  0.6181
  820MOL0     H10664   7.137  10.930   7.144  1.1059 -0.1618  1.0478
  820MOL0     H10665   6.890  10.954   7.085 -0.6591 -1.2028 -0.9657
  820MOL0     H10666   6.599  10.828   7.386 -2.5084 -0.9578 -0.5849
  820MOL0     H10667   6.612  11.007   7.417  2.7145 -1.7694  1.0009
  820MOL0     H10668   6.395  10.896   7.360  2.7096 -2.0822  1.8935
  820MOL0     H10669   6.433  11.032   7.259 -1.8864 -0.1712 -0.6906
  820MOL0     H10670   6.506  10.758   7.175 -1.0071  0.2061  4.7941
  820MOL0     H10671   6.455  10.887   7.066  2.1158 -2.9437 -1.8389
  820MOL0     H10672   6.254  10.721   7.078 -6.3329  2.8584  0.6861
  820MOL0     H10673   6.289  10.715   7.255  2.5634  0.0600  0.3329
  820MOL0     H10674   6.190  10.951   7.080 -1.2224 -0.9634 -1.6527
  820MOL0     H10675   6.179  10.948   7.256  1.4061  2.1903 -1.0937
  820MOL0     H10676   6.046  10.717   7.118  0.1965  0.5475  0.1807
  820MOL0     H10677   5.979  10.814   7.251  3.1388 -1.1600  1.8701
  820MOL0     H10678   5.921  10.994   7.078 -2.0502 -0.9152  0.6260
  820MOL0     H10679   5.838  10.848   7.081 -0.3898  0.0065  2.1163
  820MOL0     H10680   6.076  10.872   6.879  0.8314 -1.0396  0.0937
  820MOL0     H10681   5.910  10.915   6.841  0.3687 -0.9224 -1.9886
  820MOL0     H10682   6.810  10.949   7.503  1.2338  0.4629  0.1492
  820MOL0     H10683   7.046  10.958   7.551  0.5679 -2.4310 -0.1244
  820MOL0     H10684   7.445  11.273   7.456  1.3231  1.2220  0.4716
  820MOL0     H10685   7.702  11.280   7.498  0.2973 -0.2536 -1.3892
  820MOL0     H10686   9.343  10.696   6.877  1.2841  1.4545  1.2232
  820MOL0     H10687   9.574  10.773   6.913  0.6942  0.0320 -1.6166
  820MOL0     H10688  10.022  10.662   6.877 -0.6125  1.4385  0.6800
  820MOL0     H10689  10.258  10.696   6.883 -0.5135  1.4672  0.5530
  820MOL0     H10690  10.414  10.882   6.977 -1.2715 -4.1813 -1.0954
  820MOL0     H10691  10.420  10.924   7.148 -1.6245 -0.2380 -1.4549
  820MOL0     H10692  10.636  10.825   7.174 -0.8060  2.4437  0.9990
  820MOL0     H10693  10.642  10.969   7.079  0.5919 -0.5120 -1.8092
  820MOL0     H10694  10.624  10.781   6.872 -0.5850 -4.9698  0.0045
  820MOL0     H10695  10.687  10.680   6.990 -0.1458  1.0655  0.9573
  820MOL0     H10696  10.881  10.811   7.039 -0.2082 -1.1747 -0.3489
  820MOL0     H10697  10.821  10.942   6.935  1.2048  0.1861  1.1454
  820MOL0     H10698  10.961  10.701   6.633  3.2515 -4.3442  2.6562
  820MOL0     H10699  10.253  10.669   7.313 -0.0390  0.7014  0.6126
  820MOL0     H10700  10.019  10.590   7.298  3.5672  0.2365  2.3203
  821MOL0     O10701   7.667   7.702   9.990 -0.0651 -0.5764  0.1750
  821MOL0     C10702   7.746   7.795   9.983 -0.2368  0.1179 -0.4760
  821MOL0     O10703   7.719   7.919   9.931  0.2503 -0.3031  0.8041
  821MOL0     C10704   7.602   7.946   9.866  0.3274 -0.2648  0.5652
  821MOL0     C10705   7.525   8.050   9.926 -0.3125 -0.5990 -0.2672
  821MOL0     C10706   7.401   8.077   9.871  0.3346 -1.0631 -0.5636
  821MOL0     C10707   7.357   8.002   9.760  0.3424 -0.7240  0.3256
  821MOL0     O10708   7.241   8.034   9.703 -0.0682  0.7495 -0.0953
  821MOL0     C10709   7.123   7.983   9.777 -0.0012 -0.6482 -0.0343
  821MOL0     C10710   7.023   7.945   9.666 -0.5793 -0.4508  0.6267
  821MOL0     C10711   6.873   7.937   9.714 -0.1341 -0.0361  0.0994
  821MOL0     C10712   6.769   7.912   9.603 -0.6940  0.4283 -0.5080
  821MOL0     C10713   6.629   7.918   9.647  0.6976 -0.1183 -0.9855
  821MOL0     C10714   6.532   7.878   9.538  0.7664 -0.2858 -0.2903
  821MOL0     C10715   6.376   7.906   9.567 -0.0593  0.1911 -0.0428
  821MOL0     C10716   6.318   7.835   9.692 -0.1318 -0.5718  0.7125
  821MOL0     N10717   6.172   7.872   9.716  0.4388  0.2338 -0.4386
  821MOL0     C10718   6.070   7.827   9.638 -0.1252 -0.5507 -0.2201
  821MOL0     C10719   5.957   7.862   9.708 -0.1853 -0.2667  0.1277
  821MOL0     C10720   5.816   7.816   9.662  0.0029  0.0551  0.0362
  821MOL0     C10721   5.706   7.901   9.737 -0.3417 -0.1053  0.2273
  821MOL0     C10722   5.569   7.875   9.673 -0.6011 -0.3714 -0.2710
  821MOL0     C10723   5.458   7.930   9.766 -0.0329  0.2999  0.0105
  821MOL0     O10724   5.422   7.816   9.854 -0.8098  0.1947 -0.3013
  821MOL0     C10725   5.302   7.818   9.915 -0.7768 -0.1354  0.3930
  821MOL0     C10726   5.271   7.704   9.984  0.2472  0.3580 -1.1887
  821MOL0     C10727   5.156   7.696  10.057 -0.9933 -0.5476  0.5100
  821MOL0     C10728   5.139   7.567  10.138 -0.9353  0.3315  1.0614
  821MOL0     C10729   5.064   7.801  10.050  0.1100 -0.1432  0.2541
  821MOL0     C10730   4.932   7.787  10.113  0.0231  0.5771 -0.5284
  821MOL0     O10731   4.916   7.842  10.235  0.1462 -0.1153  0.4697
  821MOL0     C10732   4.788   7.830  10.276  1.1453  0.5156  0.6178
  821MOL0     C10733   4.697   7.938  10.263  0.7266  0.3566  0.1123
  821MOL0     C10734   4.560   7.928  10.293  0.3076 -0.9691  0.4058
  821MOL0     C10735   4.520   7.810  10.363  0.3821  0.0732  0.2738
  821MOL0     O10736   4.387   7.803  10.398  0.3381  0.2270 -0.1705
  821MOL0     C10737   4.360   7.754  10.528  0.1259  0.5830 -0.0620
  821MOL0     C10738   4.215   7.782  10.558  0.0038  0.0748 -1.1235
  821MOL0     C10739   4.128   7.674  10.501  0.1633 -0.4546  0.3434
  821MOL0     C10740   3.985   7.681  10.563  0.0179  0.0917  0.2004
  821MOL0     C10741   3.881   7.609  10.484 -0.1819 -0.4866  0.6872
  821MOL0     C10742   3.742   7.616  10.548  0.7110  0.4638  0.1449
  821MOL0     C10743   3.638   7.533  10.470 -0.2123 -0.0130  0.1650
  821MOL0     C10744   3.503   7.564  10.533 -0.1775  0.0284 -0.7857
  821MOL0    Cl10745   3.384   7.447  10.474  0.4912 -0.0736  0.2927
  821MOL0     C10746   4.609   7.709  10.383 -0.0888 -0.4928  0.0173
  821MOL0     C10747   4.736   7.710  10.335  0.1521  0.1455  0.2883
  821MOL0     O10748   4.848   7.715  10.049 -0.4469 -0.1123  0.0022
  821MOL0     C10749   5.093   7.919   9.981 -1.1712 -0.4139  0.9337
  821MOL0     C10750   5.219   7.929   9.919  0.1683  0.0105  0.1531
  821MOL0     N10751   5.992   7.923   9.827  0.7487 -0.4242  0.1584
  821MOL0     N10752   6.120   7.936   9.825 -0.6189 -0.9071  0.3202
  821MOL0     C10753   7.437   7.908   9.706  0.2198  0.8874 -0.4247
  821MOL0     C10754   7.561   7.880   9.749 -0.2083 -0.1184  0.4324
  821MOL0     C10755   7.885   7.759  10.047 -0.0236 -0.1555  0.4290
  821MOL0     C10756   7.993   7.850  10.047  0.1161 -0.7464 -0.6404
  821MOL0     C10757   8.116   7.817  10.115 -0.2270  0.2195 -0.8948
  821MOL0     C10758   8.137   7.684  10.168 -0.6208 -0.2734  0.0495
  821MOL0     O10759   8.246   7.641  10.238 -0.2480  0.4366  0.2025
  821MOL0     C10760   8.359   7.730  10.244  0.5857  0.6447  1.1980
  821MOL0     C10761   8.446   7.749  10.119 -0.1471  0.8886  0.6781
  821MOL0     C10762   8.550   7.849  10.154 -0.7114  0.0612  0.3707
  821MOL0     C10763   8.668   7.831  10.058  0.9503  0.2308 -1.8758
  821MOL0     C10764   8.777   7.930  10.085  0.3127 -1.3071 -0.6884
  821MOL0     C10765   8.868   8.011  10.107 -0.6245 -0.4808 -0.0824
  821MOL0     C10766   8.041   7.593  10.145  0.3122  0.1897  0.9782
  821MOL0     C10767   7.919   7.632  10.090 -0.9449  1.1500 -0.1530
  821MOL0     H10768   7.571   8.105  10.007  1.9033 -2.0600 -0.4453
  821MOL0     H10769   7.329   8.149   9.907 -1.0268 -0.9909 -3.1551
  821MOL0     H10770   7.147   7.891   9.832  0.0111 -0.7520 -0.2120
  821MOL0     H10771   7.069   8.048   9.847 -1.0984 -3.2828  1.7550
  821MOL0     H10772   7.025   8.031   9.598 -0.7726 -0.1367  1.0140
  821MOL0     H10773   7.048   7.854   9.610  0.0713  1.6733 -2.8069
  821MOL0     H10774   6.856   7.859   9.789  1.0156 -1.8477 -1.4191
  821MOL0     H10775   6.843   8.032   9.760 -1.5221  0.9537 -2.6333
  821MOL0     H10776   6.793   7.981   9.522  1.2451 -0.0121 -0.3507
  821MOL0     H10777   6.788   7.812   9.562 -1.2413 -0.1055  0.5020
  821MOL0     H10778   6.617   7.857   9.737 -1.9039  1.4319 -0.1840
  821MOL0     H10779   6.607   8.021   9.678 -3.8125 -0.9625 -0.7990
  821MOL0     H10780   6.554   7.938   9.449 -3.0350  0.3950 -0.9546
  821MOL0     H10781   6.550   7.772   9.517 -0.9141 -0.4329 -1.1632
  821MOL0     H10782   6.368   8.015   9.568 -1.2280  0.1136  0.3673
  821MOL0     H10783   6.322   7.869   9.479  0.3119  0.0819 -0.2252
  821MOL0     H10784   6.373   7.853   9.785 -1.8567 -0.8581  1.8342
  821MOL0     H10785   6.315   7.727   9.677  1.3422 -0.4653 -0.6256
  821MOL0     H10786   6.081   7.771   9.546  0.3388  0.1588 -0.6041
  821MOL0     H10787   5.809   7.835   9.555 -0.6621  1.0133  0.2423
  821MOL0     H10788   5.806   7.708   9.681  2.9616 -0.4948 -0.9526
  821MOL0     H10789   5.752   8.001   9.738  1.3486 -0.8402 -0.0619
  821MOL0     H10790   5.694   7.868   9.841  1.5585 -0.6098  0.3293
  821MOL0     H10791   5.557   7.767   9.661  2.4459 -1.0347  1.5819
  821MOL0     H10792   5.555   7.925   9.577  1.0424  1.2217  0.2578
  821MOL0     H10793   5.372   7.956   9.704 -0.7220  3.5997  2.1034
  821MOL0     H10794   5.494   8.016   9.823  0.3362 -1.2800  2.2998
  821MOL0     H10795   5.339   7.619   9.983 -0.6460 -0.3742 -0.6444
  821MOL0     H10796   5.034   7.547  10.162 -1.1705 -1.2426 -1.0065
  821MOL0     H10797   5.174   7.478  10.084 -0.3275  1.7141 -0.9273
  821MOL0     H10798   5.196   7.579  10.231  0.1279 -0.7841  0.5748
  821MOL0     H10799   4.744   8.028  10.226  2.5337 -0.4769  0.2716
  821MOL0     H10800   4.498   8.014  10.272 -0.7793 -2.0672 -1.0632
  821MOL0     H10801   4.388   7.650  10.550  0.3649  0.4551 -0.9265
  821MOL0     H10802   4.418   7.808  10.603  1.1549  0.4860 -0.7579
  821MOL0     H10803   4.205   7.794  10.666  2.0547  1.1430 -1.0072
  821MOL0     H10804   4.187   7.872  10.502  2.0752  0.3066 -1.8653
  821MOL0     H10805   4.159   7.572  10.525 -1.6079 -1.1351 -0.0431
  821MOL0     H10806   4.112   7.677  10.392 -1.4005 -3.5795  0.3837
  821MOL0     H10807   3.999   7.639  10.663  2.4892 -0.6830 -0.3939
  821MOL0     H10808   3.948   7.784  10.561 -2.0860 -0.6147 -2.2701
  821MOL0     H10809   3.912   7.507  10.460  2.2819  0.4620 -0.6821
  821MOL0     H10810   3.868   7.655  10.385 -1.5048  0.2253  1.1700
  821MOL0     H10811   3.748   7.578  10.650  0.6644  1.8292  0.6857
  821MOL0     H10812   3.711   7.721  10.552 -0.2546  0.5869 -4.3804
  821MOL0     H10813   3.662   7.427  10.485  1.2998  0.3560  0.4462
  821MOL0     H10814   3.633   7.549  10.362  0.9020  0.9948  0.2498
  821MOL0     H10815   3.479   7.667  10.506  0.2734  0.7129  1.1745
  821MOL0     H10816   3.508   7.563  10.643  2.2882 -0.8319 -0.8460
  821MOL0     H10817   4.563   7.621  10.428  0.3066  0.1454  1.7500
  821MOL0     H10818   4.793   7.618  10.332 -0.3358 -0.1464 -1.7333
  821MOL0     H10819   5.029   8.005   9.992 -2.5191 -1.4519  1.3981
  821MOL0     H10820   5.245   8.030   9.889 -0.3256  1.0184  2.8395
  821MOL0     H10821   7.397   7.847   9.626  3.6940 -3.1954  0.5886
  821MOL0     H10822   7.617   7.806   9.693 -1.8182 -0.0679 -1.3736
  821MOL0     H10823   7.980   7.944   9.995  1.5820 -0.0687  0.1683
  821MOL0     H10824   8.190   7.895  10.129  2.7609 -2.3729 -1.1632
  821MOL0     H10825   8.321   7.830  10.268 -0.1019  1.2255 -1.8949
  821MOL0     H10826   8.420   7.707  10.332 -0.0406  2.2710  2.1002
  821MOL0     H10827   8.387   7.778  10.032 -0.5004 -3.3065 -0.7332
  821MOL0     H10828   8.495   7.654  10.095 -1.6357  0.4584 -0.8056
  821MOL0     H10829   8.589   7.840  10.255 -0.2687  1.7656  0.3771
  821MOL0     H10830   8.492   7.940  10.136 -4.9363 -2.1001  1.7888
  821MOL0     H10831   8.644   7.848   9.953  0.0513 -0.2486 -1.7569
  821MOL0     H10832   8.711   7.730  10.060  0.4283  0.0057 -0.0033
  821MOL0     H10833   8.948   8.080  10.128  0.9095 -2.2280  0.1610
  821MOL0     H10834   8.055   7.492  10.183  0.1929 -0.0846  0.3145
  821MOL0     H10835   7.841   7.557  10.098 -0.6033  0.7165 -0.7520
  822MOL0     O10836   9.240   5.926   9.432  0.2465  0.1336 -0.4664
  822MOL0     C10837   9.271   5.840   9.350  0.6060 -0.3013  0.7440
  822MOL0     O10838   9.190   5.807   9.242 -0.7140 -0.3821  0.1747
  822MOL0     C10839   9.079   5.887   9.213  0.1184 -0.8275  0.6459
  822MOL0     C10840   8.957   5.818   9.186 -0.2003  0.0796 -0.4535
  822MOL0     C10841   8.842   5.883   9.155 -0.5229 -0.1407 -0.3698
  822MOL0     C10842   8.842   6.026   9.155  0.2556  0.2958 -0.1371
  822MOL0     O10843   8.721   6.098   9.138  0.1213  0.0952  0.8346
  822MOL0     C10844   8.606   6.025   9.085  1.1190  0.9960 -0.1566
  822MOL0     C10845   8.631   5.979   8.939  0.3046 -0.0728  0.7136
  822MOL0     C10846   8.510   6.005   8.836  0.1764 -0.5709  0.3230
  822MOL0     C10847   8.391   5.906   8.869 -0.0743 -0.1464 -0.3653
  822MOL0     C10848   8.282   5.937   8.765 -0.0337  0.6560 -0.3109
  822MOL0     C10849   8.188   5.813   8.756  0.1537 -0.1479 -0.0833
  822MOL0     C10850   8.077   5.835   8.644 -0.1231 -0.6778 -0.4054
  822MOL0     C10851   7.954   5.883   8.726  0.4643  0.2680 -0.4276
  822MOL0     N10852   7.826   5.897   8.654 -0.1533  0.2508  0.0175
  822MOL0     C10853   7.783   6.008   8.593  0.2132 -0.2963 -0.4861
  822MOL0     C10854   7.670   5.977   8.526  0.2115  0.3880  0.2568
  822MOL0     C10855   7.574   6.077   8.469 -0.2885  0.1870 -0.0904
  822MOL0     C10856   7.478   6.006   8.368 -0.9454  0.4925  0.3871
  822MOL0     C10857   7.345   6.076   8.334  0.1314  0.0717  0.4220
  822MOL0     C10858   7.357   6.225   8.326  0.2320 -0.5154  0.0965
  822MOL0     O10859   7.327   6.296   8.449  0.0840  0.1352 -0.2840
  822MOL0     C10860   7.193   6.318   8.486  0.1179  0.1531 -0.3239
  822MOL0     C10861   7.168   6.393   8.591  0.0441 -0.3603 -0.6903
  822MOL0     C10862   7.036   6.409   8.645  0.5241 -0.0667  0.2803
  822MOL0     C10863   7.023   6.493   8.772  0.6822 -0.3280  0.7254
  822MOL0     C10864   6.921   6.346   8.581 -0.2962  0.9460  0.0235
  822MOL0     C10865   6.778   6.354   8.619 -0.3111 -0.3830 -0.6209
  822MOL0     O10866   6.742   6.459   8.689  0.5696 -0.1619  0.4091
  822MOL0     C10867   6.600   6.466   8.694 -0.2409  0.5920 -0.6411
  822MOL0     C10868   6.530   6.425   8.814 -0.2052 -0.1406  0.0371
  822MOL0     C10869   6.392   6.435   8.817  0.0236 -1.4928 -0.0617
  822MOL0     C10870   6.316   6.478   8.699  0.8471  0.0254 -0.4270
  822MOL0     O10871   6.178   6.488   8.710 -0.2921  0.6444 -0.6871
  822MOL0     C10872   6.112   6.554   8.604 -0.3499  0.9474 -0.7889
  822MOL0     C10873   5.963   6.565   8.644 -0.4372 -0.3649 -0.8150
  822MOL0     C10874   5.950   6.622   8.797  0.4502  0.2958  0.0205
  822MOL0     C10875   5.811   6.647   8.831  0.5224  0.4343 -0.3803
  822MOL0     C10876   5.794   6.740   8.950  0.4085  0.5266 -1.3489
  822MOL0     C10877   5.643   6.759   8.990 -0.6162 -0.5586 -0.8614
  822MOL0     C10878   5.565   6.852   8.894 -0.5226 -0.1878 -0.4095
  822MOL0     C10879   5.426   6.875   8.954  0.4320 -0.1454 -0.0912
  822MOL0    Cl10880   5.430   6.959   9.115 -0.2985  0.3558  0.2333
  822MOL0     C10881   6.395   6.526   8.587  0.4610 -0.7129 -0.7624
  822MOL0     C10882   6.533   6.520   8.588  0.2135  0.0068  0.3985
  822MOL0     O10883   6.706   6.270   8.561  0.5927 -0.8958 -0.2038
  822MOL0     C10884   6.948   6.271   8.461  0.4969 -0.5536  0.7838
  822MOL0     C10885   7.083   6.263   8.418 -0.1990 -0.0052 -0.2248
  822MOL0     N10886   7.649   5.845   8.550  0.6563 -0.2032  0.0376
  822MOL0     N10887   7.731   5.798   8.633  0.0795  0.3610  0.0830
  822MOL0     C10888   8.963   6.096   9.180  0.2824  0.0879 -0.0679
  822MOL0     C10889   9.080   6.026   9.213  0.7639  0.3496 -0.1655
  822MOL0     C10890   9.397   5.785   9.366  0.0597  0.6894 -0.1528
  822MOL0     C10891   9.472   5.829   9.473 -0.3973  0.2421 -0.4739
  822MOL0     C10892   9.595   5.762   9.491 -0.3382  0.4177 -0.4509
  822MOL0     C10893   9.647   5.665   9.411 -0.0033  0.0532 -0.4982
  822MOL0     O10894   9.774   5.617   9.442  0.3799 -0.3601  0.0494
  822MOL0     C10895   9.842   5.534   9.348 -0.2111 -0.8401  0.4723
  822MOL0     C10896   9.989   5.518   9.381  0.0957  0.8118  0.5983
  822MOL0     C10897  10.018   5.462   9.526  0.4899 -0.8689 -0.0679
  822MOL0     C10898  10.167   5.459   9.569 -0.1190 -0.9035 -0.2705
  822MOL0     C10899  10.244   5.357   9.501  0.9962 -0.0818 -0.7559
  822MOL0     C10900  10.291   5.249   9.469  0.5441 -1.2372 -0.0593
  822MOL0     C10901   9.566   5.622   9.303 -0.5462  0.2817  0.5974
  822MOL0     C10902   9.439   5.677   9.278  0.3633  0.0111 -0.9732
  822MOL0     H10903   8.943   5.711   9.196  0.1413 -0.0467 -1.3074
  822MOL0     H10904   8.753   5.823   9.144 -0.6897 -0.1315  0.8214
  822MOL0     H10905   8.567   5.943   9.145  0.6184  0.4821 -1.1549
  822MOL0     H10906   8.526   6.099   9.068  2.3822  2.1582 -1.3941
  822MOL0     H10907   8.712   6.041   8.899 -2.0860  3.7341  1.2543
  822MOL0     H10908   8.662   5.875   8.928  1.3592  0.2748  0.2968
  822MOL0     H10909   8.476   6.109   8.842  0.9341 -0.3716  1.7362
  822MOL0     H10910   8.535   5.988   8.731 -0.1163  0.6407  0.0409
  822MOL0     H10911   8.436   5.807   8.856  0.7465  0.0014  1.1634
  822MOL0     H10912   8.357   5.928   8.970  2.9908 -0.0156  0.7348
  822MOL0     H10913   8.233   6.032   8.787 -0.2323  1.4228 -3.5771
  822MOL0     H10914   8.326   5.941   8.665  1.7506 -1.1593  0.3238
  822MOL0     H10915   8.245   5.721   8.737  0.5999  0.3353 -1.1344
  822MOL0     H10916   8.149   5.809   8.858  1.1943 -0.7938  0.3036
  822MOL0     H10917   8.102   5.914   8.573 -0.1927  0.6267  0.9585
  822MOL0     H10918   8.054   5.748   8.582  0.1582 -1.2242  0.2479
  822MOL0     H10919   7.982   5.983   8.760  1.5645  0.4835 -1.8195
  822MOL0     H10920   7.940   5.817   8.811 -1.2126 -2.9383 -2.9652
  822MOL0     H10921   7.823   6.107   8.613  2.2812 -1.3283  0.9224
  822MOL0     H10922   7.513   6.118   8.550 -0.1709  1.1185 -0.4521
  822MOL0     H10923   7.626   6.163   8.426 -0.0016 -0.7982 -1.7767
  822MOL0     H10924   7.442   5.909   8.406 -0.0402 -0.5647 -1.3097
  822MOL0     H10925   7.539   5.980   8.281 -0.7547 -0.5376  0.8110
  822MOL0     H10926   7.273   6.046   8.410  1.1179  1.7156  2.0876
  822MOL0     H10927   7.323   6.052   8.230  0.9071 -1.8356  0.6643
  822MOL0     H10928   7.291   6.264   8.248  1.1244  0.7530 -0.0656
  822MOL0     H10929   7.464   6.243   8.307 -0.0900  0.6316 -0.7301
  822MOL0     H10930   7.244   6.451   8.643 -1.3260  1.3097 -0.4823
  822MOL0     H10931   7.099   6.488   8.851  0.7558  3.2404  1.0834
  822MOL0     H10932   7.009   6.596   8.738 -2.3884  0.3986  3.6150
  822MOL0     H10933   6.934   6.464   8.829  0.0535 -4.1531 -1.9132
  822MOL0     H10934   6.584   6.407   8.907  2.6544 -1.0126 -1.6440
  822MOL0     H10935   6.334   6.413   8.906 -2.2515 -0.9442 -1.3353
  822MOL0     H10936   6.149   6.655   8.587 -3.3325  2.6577  1.8588
  822MOL0     H10937   6.111   6.493   8.513  0.0480 -1.4054  0.6938
  822MOL0     H10938   5.912   6.624   8.567  0.3457 -1.7846 -2.4933
  822MOL0     H10939   5.920   6.464   8.642 -2.5127  0.3417  1.7275
  822MOL0     H10940   5.996   6.721   8.801  0.4399  0.2929  3.8307
  822MOL0     H10941   5.994   6.550   8.867  2.4349  0.1784 -1.2602
  822MOL0     H10942   5.752   6.694   8.752 -1.3038  1.3833  1.4336
  822MOL0     H10943   5.769   6.551   8.863  2.7784 -0.6854 -0.6134
  822MOL0     H10944   5.835   6.840   8.934  1.0917  0.1842 -1.7543
  822MOL0     H10945   5.836   6.693   9.039 -1.2049  0.3117 -0.6496
  822MOL0     H10946   5.584   6.668   8.981 -2.6404  0.8861 -3.5881
  822MOL0     H10947   5.633   6.798   9.092 -0.0578 -0.8328 -0.6958
  822MOL0     H10948   5.559   6.814   8.791 -3.2238  2.8492 -1.5604
  822MOL0     H10949   5.616   6.948   8.883  1.3567 -1.3848 -3.2706
  822MOL0     H10950   5.380   6.778   8.973  1.1372 -0.9237 -2.1410
  822MOL0     H10951   5.353   6.927   8.891 -2.4040 -2.2185  1.2739
  822MOL0     H10952   6.345   6.565   8.499 -4.0852 -1.0773  1.3721
  822MOL0     H10953   6.587   6.538   8.496 -1.1085 -0.6730 -0.5525
  822MOL0     H10954   6.874   6.231   8.392 -0.1621 -1.3175  1.8914
  822MOL0     H10955   7.102   6.202   8.330 -1.9750 -0.4445 -0.3545
  822MOL0     H10956   8.963   6.204   9.175  0.6541  0.2203  1.9653
  822MOL0     H10957   9.172   6.077   9.243  2.3512 -0.6700 -2.9450
  822MOL0     H10958   9.444   5.904   9.546  0.0876  0.2599 -0.3022
  822MOL0     H10959   9.659   5.791   9.574  1.4688 -0.6823 -1.3742
  822MOL0     H10960   9.790   5.438   9.339  1.2834 -1.7755  1.4490
  822MOL0     H10961   9.840   5.591   9.255  0.3378  0.5277  1.2749
  822MOL0     H10962  10.047   5.610   9.369  0.5985  0.1652 -2.7454
  822MOL0     H10963  10.036   5.451   9.309  1.9495  1.9108  0.7179
  822MOL0     H10964   9.968   5.366   9.540 -1.3199 -0.1705 -1.4494
  822MOL0     H10965   9.973   5.543   9.584  5.7509  1.2965  1.6565
  822MOL0     H10966  10.165   5.441   9.677 -1.1302  2.0730  0.3087
  822MOL0     H10967  10.218   5.555   9.552 -0.6359 -0.2610  1.5909
  822MOL0     H10968  10.340   5.155   9.452  0.5798 -1.1921 -0.2123
  822MOL0     H10969   9.589   5.536   9.242  0.0587  0.6147  0.3462
  822MOL0     H10970   9.376   5.633   9.202 -0.3705  2.0450 -1.6261
  823MOL0     O10971   3.172   0.562   6.524 -0.0809  0.0450 -0.3696
  823MOL0     C10972   3.263   0.506   6.479 -0.0293 -0.9020 -0.4346
  823MOL0     O10973   3.265   0.416   6.375  0.1497 -0.2210  0.1854
  823MOL0     C10974   3.150   0.381   6.312 -0.1365 -0.6203  0.4271
  823MOL0     C10975   3.097   0.254   6.320 -0.4356 -0.1099 -0.3349
  823MOL0     C10976   2.975   0.224   6.263  0.0877  0.1134  0.4052
  823MOL0     C10977   2.908   0.311   6.183  0.0796  0.1837 -0.2237
  823MOL0     O10978   2.783   0.261   6.133  0.0314 -0.0969 -0.4921
  823MOL0     C10979   2.668   0.349   6.118 -0.0730  0.2846 -0.2063
  823MOL0     C10980   2.547   0.271   6.078 -0.8019  0.0168 -0.0034
  823MOL0     C10981   2.521   0.164   6.181  0.4732  1.3047  0.4206
  823MOL0     C10982   2.398   0.076   6.153  0.0538  0.3645 -0.0018
  823MOL0     C10983   2.271   0.166   6.126 -0.9243 -0.1984 -0.7412
  823MOL0     C10984   2.145   0.091   6.124  0.4326 -0.6183  1.3117
  823MOL0     C10985   2.019   0.173   6.096 -0.5402  0.2257  0.1818
  823MOL0     C10986   1.960   0.240   6.220 -0.2313 -0.6526 -0.1178
  823MOL0     N10987   1.837   0.317   6.190  0.4628 -0.2323 -0.7217
  823MOL0     C10988   1.721   0.271   6.151  0.5510  0.1153 -0.2959
  823MOL0     C10989   1.635   0.376   6.159 -0.1906 -1.3403 -0.4341
  823MOL0     C10990   1.486   0.373   6.123 -0.6340  0.0731  0.3588
  823MOL0     C10991   1.390   0.356   6.247 -0.0752  0.2797 -0.6882
  823MOL0     C10992   1.438   0.237   6.325 -0.0712 -0.3570 -0.0953
  823MOL0     C10993   1.319   0.175   6.411 -0.1556  0.0343 -0.8452
  823MOL0     O10994   1.263   0.269   6.501 -0.6328  0.4875 -0.0171
  823MOL0     C10995   1.157   0.236   6.581 -0.3876 -0.3669 -0.5186
  823MOL0     C10996   1.079   0.338   6.626  0.6905 -0.5540 -0.4809
  823MOL0     C10997   0.968   0.323   6.704  0.5293 -0.5575 -0.2929
  823MOL0     C10998   0.905   0.455   6.748 -0.2564 -0.0877  0.3264
  823MOL0     C10999   0.917   0.190   6.719 -0.1697 -0.4396  1.1290
  823MOL0     C11000   0.776   0.162   6.766 -0.0213  0.1271 -0.3228
  823MOL0     O11001   0.728   0.032   6.743 -0.3527  0.0315  0.3424
  823MOL0     C11002   0.596   0.001   6.766 -0.7250  0.0234  0.1991
  823MOL0     C11003   0.559  -0.084   6.872  0.0433 -0.5467  0.2097
  823MOL0     C11004   0.423  -0.111   6.887  0.3684  0.5786 -0.1161
  823MOL0     C11005   0.327  -0.046   6.821  0.7767 -0.4373  0.7427
  823MOL0     O11006   0.199  -0.069   6.853 -0.0537  0.1420 -1.2556
  823MOL0     C11007   0.103   0.040   6.843  0.0236 -0.0968  0.0124
  823MOL0     C11008  -0.035  -0.020   6.887 -0.5526 -0.6616 -0.2785
  823MOL0     C11009  -0.045  -0.027   7.041 -0.0624 -0.1561 -0.0125
  823MOL0     C11010  -0.181  -0.093   7.073 -0.3156  0.5245 -0.4378
  823MOL0     C11011  -0.204  -0.080   7.223 -0.6435  0.0418  0.5007
  823MOL0     C11012  -0.349  -0.112   7.255  0.7953  1.0182 -0.1528
  823MOL0     C11013  -0.368  -0.127   7.407 -0.3686  0.5501 -0.1704
  823MOL0     C11014  -0.507  -0.156   7.455 -0.2982 -0.1635  0.0729
  823MOL0    Cl11015  -0.506  -0.173   7.630  0.0387  0.4725 -0.0138
  823MOL0     C11016   0.360   0.017   6.698  0.6295 -0.1579  0.2686
  823MOL0     C11017   0.500   0.040   6.667  0.4515 -0.3226 -0.1434
  823MOL0     O11018   0.704   0.255   6.797 -0.1893  0.1217  0.3003
  823MOL0     C11019   0.993   0.079   6.666 -0.5389  1.1247 -0.5001
  823MOL0     C11020   1.123   0.102   6.612  0.7653  0.1222  0.0992
  823MOL0     N11021   1.704   0.490   6.205  0.5975  0.3712 -0.1862
  823MOL0     N11022   1.833   0.453   6.211 -0.2662 -0.5741 -0.1237
  823MOL0     C11023   2.960   0.441   6.167  0.0987  0.9449 -0.3877
  823MOL0     C11024   3.077   0.475   6.235  0.0302  0.2654  0.8323
  823MOL0     C11025   3.392   0.532   6.552  0.3644 -0.0846 -0.7510
  823MOL0     C11026   3.397   0.589   6.683  0.6391 -0.7798 -0.2985
  823MOL0     C11027   3.514   0.624   6.741 -0.9574 -0.5436  0.4988
  823MOL0     C11028   3.633   0.610   6.664  0.6674  0.2006  0.6336
  823MOL0     O11029   3.744   0.641   6.730 -0.3357 -0.0299  0.8485
  823MOL0     C11030   3.874   0.635   6.662  0.3541  0.1945 -1.3103
  823MOL0     C11031   3.904   0.765   6.592 -0.2982 -0.0666 -0.4648
  823MOL0     C11032   4.022   0.741   6.495  0.7527 -0.2645 -0.1648
  823MOL0     C11033   4.058   0.858   6.402  0.2803  0.3039 -0.0089
  823MOL0     C11034   3.945   0.901   6.328 -0.3844 -0.5285  0.4810
  823MOL0     C11035   3.855   0.961   6.270  0.3018 -0.3949 -0.5572
  823MOL0     C11036   3.627   0.536   6.542  0.7844 -0.5348  0.3507
  823MOL0     C11037   3.510   0.513   6.488 -0.6928  0.3494  0.4093
  823MOL0     H11038   3.165   0.187   6.371 -1.1319  1.7336  3.3097
  823MOL0     H11039   2.933   0.125   6.276 -0.8674  0.6683  1.8159
  823MOL0     H11040   2.663   0.403   6.213  3.4311 -0.2857  0.4257
  823MOL0     H11041   2.686   0.428   6.044  4.8053  1.7733  2.1346
  823MOL0     H11042   2.466   0.343   6.069  1.0466  2.1456 -0.3066
  823MOL0     H11043   2.575   0.231   5.980  0.1784  0.9729 -0.1214
  823MOL0     H11044   2.611   0.102   6.182 -1.6206 -1.9408  1.7939
  823MOL0     H11045   2.512   0.220   6.275 -0.6031  0.1502  1.0237
  823MOL0     H11046   2.405   0.005   6.071  0.4525  0.3355  0.0573
  823MOL0     H11047   2.379   0.015   6.242  0.4884  0.7274  0.3431
  823MOL0     H11048   2.260   0.247   6.199 -0.2009 -0.1403 -0.6825
  823MOL0     H11049   2.293   0.203   6.025 -0.8910 -0.3658 -0.7946
  823MOL0     H11050   2.154   0.021   6.040  0.2582  0.6394  0.2112
  823MOL0     H11051   2.128   0.035   6.216  0.4204 -0.3504  1.4712
  823MOL0     H11052   2.044   0.253   6.027 -0.0846  0.7202  0.9038
  823MOL0     H11053   1.949   0.110   6.041 -1.8947  1.0511  0.9020
  823MOL0     H11054   2.035   0.298   6.275  0.3917  0.3737 -1.9535
  823MOL0     H11055   1.928   0.164   6.291 -3.4827  0.1435 -0.5738
  823MOL0     H11056   1.701   0.176   6.102 -2.0251  0.2919  0.2615
  823MOL0     H11057   1.457   0.468   6.077  0.5653  0.1868 -0.2055
  823MOL0     H11058   1.475   0.290   6.052  0.0498  0.3039 -0.0328
  823MOL0     H11059   1.284   0.347   6.221  0.1609 -1.1983 -1.2153
  823MOL0     H11060   1.390   0.443   6.313 -0.7300 -0.0682 -0.2240
  823MOL0     H11061   1.516   0.278   6.390 -0.9706  1.8281 -0.3412
  823MOL0     H11062   1.487   0.173   6.251  2.7404  1.3137  0.1898
  823MOL0     H11063   1.350   0.083   6.461 -1.7618  1.5566  3.3565
  823MOL0     H11064   1.240   0.141   6.344 -1.0595 -2.1193  1.1817
  823MOL0     H11065   1.115   0.439   6.605 -0.3716 -0.4650 -2.0391
  823MOL0     H11066   0.814   0.466   6.687  0.4277  1.4746 -0.4661
  823MOL0     H11067   0.887   0.453   6.856 -0.0709 -2.7481  0.3829
  823MOL0     H11068   0.972   0.540   6.731  3.2883 -2.3915  1.6123
  823MOL0     H11069   0.634  -0.136   6.929  0.8203  3.3108  3.1680
  823MOL0     H11070   0.389  -0.179   6.964  2.5254 -2.5224 -1.6877
  823MOL0     H11071   0.134   0.127   6.902  1.4918  0.0029 -0.8873
  823MOL0     H11072   0.092   0.065   6.738  2.0607 -0.6270 -0.3701
  823MOL0     H11073  -0.117   0.032   6.836 -1.7760 -0.5518  1.6973
  823MOL0     H11074  -0.040  -0.124   6.855  0.3309 -0.7794 -0.0368
  823MOL0     H11075  -0.043   0.079   7.066  3.5700  0.2158 -1.2935
  823MOL0     H11076   0.043  -0.067   7.093  0.3010  0.5967 -0.0301
  823MOL0     H11077  -0.263  -0.037   7.026  0.6108  2.6823  0.3690
  823MOL0     H11078  -0.180  -0.198   7.044  2.8318  0.3311  0.0319
  823MOL0     H11079  -0.185   0.021   7.262 -0.9414  0.3370 -0.1046
  823MOL0     H11080  -0.142  -0.154   7.275 -0.2508 -0.4786 -0.6930
  823MOL0     H11081  -0.417  -0.037   7.213 -0.1008  1.8462  2.5307
  823MOL0     H11082  -0.363  -0.209   7.207  0.9936  0.7277  0.3730
  823MOL0     H11083  -0.314  -0.040   7.445  0.4229 -0.5356  1.3119
  823MOL0     H11084  -0.306  -0.214   7.432 -0.2315  0.7586  0.2153
  823MOL0     H11085  -0.546  -0.248   7.410 -2.5152  0.6034  0.3024
  823MOL0     H11086  -0.581  -0.082   7.423 -1.6451 -1.2804  0.5002
  823MOL0     H11087   0.284   0.036   6.624  2.4143 -2.0377 -2.2021
  823MOL0     H11088   0.509   0.092   6.573 -3.4426 -0.4509 -0.7446
  823MOL0     H11089   0.961  -0.025   6.673 -1.4765  1.4033 -0.5554
  823MOL0     H11090   1.181   0.017   6.577 -1.1500 -0.9008 -0.8123
  823MOL0     H11091   2.902   0.513   6.110 -1.3028  0.6712  0.6590
  823MOL0     H11092   3.105   0.580   6.244 -0.7989  0.3749  2.4074
  823MOL0     H11093   3.305   0.621   6.731  0.7547 -1.5007  0.4215
  823MOL0     H11094   3.530   0.672   6.837 -2.3895  1.0460 -0.0090
  823MOL0     H11095   3.946   0.611   6.741  0.7394  0.9095 -1.4345
  823MOL0     H11096   3.886   0.554   6.589  2.2160 -0.4490 -0.3593
  823MOL0     H11097   3.929   0.847   6.660 -0.1084  0.5599 -1.2828
  823MOL0     H11098   3.822   0.804   6.532  0.1856  1.3645 -0.2332
  823MOL0     H11099   4.011   0.652   6.432 -1.7634  1.3853 -2.2889
  823MOL0     H11100   4.111   0.725   6.557  0.6434 -0.3729 -0.0378
  823MOL0     H11101   4.141   0.827   6.338  2.4558 -1.3057  3.2753
  823MOL0     H11102   4.110   0.935   6.460  0.0192  0.1389  0.4496
  823MOL0     H11103   3.782   1.016   6.216  0.2089  1.4382  1.3105
  823MOL0     H11104   3.712   0.504   6.484  0.4951 -2.1123  0.7478
  823MOL0     H11105   3.515   0.456   6.396  0.9954  2.1445 -0.6976
  824MOL0     O11106   2.714   4.461   4.920  0.4627  0.5618  1.3687
  824MOL0     C11107   2.752   4.541   5.003  0.3903 -0.7005 -0.2372
  824MOL0     O11108   2.673   4.598   5.105 -0.5776 -0.6537 -0.1556
  824MOL0     C11109   2.549   4.557   5.110 -1.1489  0.1713  0.2325
  824MOL0     C11110   2.510   4.481   5.222 -0.2928 -0.3836  0.2586
  824MOL0     C11111   2.386   4.418   5.223 -0.3079 -0.1644 -0.0539
  824MOL0     C11112   2.294   4.440   5.120 -0.9136  0.9459 -0.0912
  824MOL0     O11113   2.169   4.390   5.138  0.2316  0.2666 -0.2738
  824MOL0     C11114   2.140   4.301   5.030 -0.0215 -0.2886  0.5159
  824MOL0     C11115   2.009   4.236   5.065 -0.1073  0.4981  0.5144
  824MOL0     C11116   1.887   4.327   5.065 -0.2207  0.4050 -0.2071
  824MOL0     C11117   1.757   4.256   5.038 -0.2025  0.0154 -0.0921
  824MOL0     C11118   1.645   4.362   5.023 -0.7832  0.1072  0.5084
  824MOL0     C11119   1.514   4.290   5.017 -0.0042  0.0210 -0.2122
  824MOL0     C11120   1.398   4.390   5.043  0.2382  0.7371 -0.0292
  824MOL0     C11121   1.263   4.321   5.002  0.2089 -0.1420 -0.0194
  824MOL0     N11122   1.146   4.396   5.044  0.6554  0.6863 -0.6197
  824MOL0     C11123   1.122   4.438   5.172  0.4653  0.3544 -0.0100
  824MOL0     C11124   0.986   4.451   5.181 -0.2573 -0.4120 -0.1074
  824MOL0     C11125   0.918   4.501   5.307  1.4420 -0.4803  0.3591
  824MOL0     C11126   0.888   4.391   5.403  0.6519  0.8325  0.0882
  824MOL0     C11127   0.822   4.268   5.337 -0.3420  0.1325  0.6878
  824MOL0     C11128   0.825   4.132   5.417 -0.1401 -0.5960 -0.8126
  824MOL0     O11129   0.779   4.153   5.551 -0.1035  0.1117  0.2260
  824MOL0     C11130   0.655   4.181   5.583  0.3835 -0.4516 -0.3634
  824MOL0     C11131   0.548   4.134   5.504  0.8808  0.2601  0.1404
  824MOL0     C11132   0.411   4.150   5.535  0.1484  0.3831  0.0215
  824MOL0     C11133   0.309   4.102   5.433  0.7158  0.1194 -0.2229
  824MOL0     C11134   0.379   4.228   5.648  0.2512  0.3141  0.5256
  824MOL0     C11135   0.238   4.270   5.680  0.0260  0.1996 -0.2157
  824MOL0     O11136   0.132   4.199   5.628 -0.3579 -0.4592 -0.1263
  824MOL0     C11137   0.003   4.226   5.664 -0.2061 -0.5590  0.2773
  824MOL0     C11138  -0.042   4.235   5.795  0.3696 -0.3652 -0.2876
  824MOL0     C11139  -0.174   4.258   5.818  0.7378 -0.5488  0.4907
  824MOL0     C11140  -0.267   4.265   5.710  0.6410  0.3850 -0.1418
  824MOL0     O11141  -0.408   4.271   5.720  0.1453  0.8351  0.0038
  824MOL0     C11142  -0.453   4.357   5.827 -0.3589 -0.1445 -0.0087
  824MOL0     C11143  -0.596   4.397   5.801 -0.0522  0.2462  0.0553
  824MOL0     C11144  -0.669   4.486   5.911 -1.0025  0.0067 -0.2823
  824MOL0     C11145  -0.823   4.472   5.878 -0.1755  0.7711 -0.1458
  824MOL0     C11146  -0.904   4.549   5.982  1.0194 -0.2911 -0.3240
  824MOL0     C11147  -1.051   4.551   5.939  0.3725 -0.1357  0.1811
  824MOL0     C11148  -1.141   4.606   6.054  0.0455 -0.7190 -0.6463
  824MOL0     C11149  -1.285   4.628   6.024 -0.2201  0.7050  0.1457
  824MOL0    Cl11150  -1.374   4.723   6.145  0.5082 -0.4586 -0.1886
  824MOL0     C11151  -0.220   4.235   5.579  1.0870 -0.3176  0.4045
  824MOL0     C11152  -0.087   4.212   5.560 -0.6755 -0.5315 -0.4402
  824MOL0     O11153   0.232   4.367   5.754  0.5298  1.1883  0.6980
  824MOL0     C11154   0.483   4.268   5.736 -0.6795 -0.1978 -0.2213
  824MOL0     C11155   0.620   4.251   5.697 -0.8654  0.9400 -0.7196
  824MOL0     N11156   0.927   4.412   5.062 -0.0343 -0.3181  0.4320
  824MOL0     N11157   1.028   4.374   4.985  0.3948 -0.3537 -0.9859
  824MOL0     C11158   2.331   4.517   5.018 -0.5617 -0.3657 -0.2016
  824MOL0     C11159   2.459   4.580   5.008  0.6596 -0.3951  0.5186
  824MOL0     C11160   2.891   4.598   4.993 -0.4215 -0.2231 -0.2238
  824MOL0     C11161   2.976   4.545   4.893  0.4421  0.1098 -0.4988
  824MOL0     C11162   3.113   4.592   4.888  0.2200  0.1560  0.7778
  824MOL0     C11163   3.166   4.681   4.982  0.0410 -0.5797 -0.2372
  824MOL0     O11164   3.299   4.706   4.977 -0.4695  0.2691  0.5223
  824MOL0     C11165   3.368   4.761   5.094 -0.2018 -0.1313  0.5980
  824MOL0     C11166   3.514   4.731   5.094 -0.9697 -0.5046 -1.2622
  824MOL0     C11167   3.583   4.816   5.198  0.3394 -0.1259  0.1614
  824MOL0     C11168   3.734   4.796   5.189 -0.1792 -0.0065  0.6848
  824MOL0     C11169   3.808   4.872   5.290  0.7213 -0.0752 -0.2208
  824MOL0     C11170   3.855   4.925   5.390  0.2086 -0.2248  0.0042
  824MOL0     C11171   3.079   4.728   5.082 -0.0956 -0.1105 -0.2198
  824MOL0     C11172   2.950   4.686   5.093  0.7835 -0.5855  0.5235
  824MOL0     H11173   2.589   4.478   5.296  0.6928  0.9891 -0.6783
  824MOL0     H11174   2.359   4.359   5.309 -0.1974  0.0121  0.1024
  824MOL0     H11175   2.124   4.353   4.935  2.1116  1.0517  0.8243
  824MOL0     H11176   2.221   4.233   5.002  2.3315  2.7020 -0.4556
  824MOL0     H11177   1.995   4.155   4.993 -2.6561  0.2661  1.1751
  824MOL0     H11178   2.022   4.190   5.163  1.3317 -4.1607 -1.5815
  824MOL0     H11179   1.894   4.373   5.164  0.3659  1.0406 -0.5323
  824MOL0     H11180   1.896   4.410   4.994  1.5387  2.9069  2.6696
  824MOL0     H11181   1.764   4.206   4.942  0.1524  0.3892 -0.2639
  824MOL0     H11182   1.735   4.178   5.112  2.9263  0.4405  1.4587
  824MOL0     H11183   1.656   4.427   5.110 -0.4605 -1.0766  1.3760
  824MOL0     H11184   1.654   4.421   4.931 -2.3316 -0.5224 -0.0739
  824MOL0     H11185   1.501   4.252   4.915 -0.0707 -0.9533  0.1423
  824MOL0     H11186   1.507   4.209   5.090 -3.6411  1.7029  1.5404
  824MOL0     H11187   1.382   4.429   5.144  0.1397 -0.9907  0.6480
  824MOL0     H11188   1.418   4.483   4.988 -1.5387  2.5475  2.1804
  824MOL0     H11189   1.261   4.223   5.050 -0.9209 -0.2406 -0.2449
  824MOL0     H11190   1.252   4.311   4.893 -2.3805 -1.5560  0.3093
  824MOL0     H11191   1.200   4.454   5.246  0.2179  1.5777  0.0111
  824MOL0     H11192   0.983   4.576   5.351  1.2228 -0.5677  0.8324
  824MOL0     H11193   0.828   4.549   5.269  1.7674 -0.3578 -0.2729
  824MOL0     H11194   0.828   4.440   5.479  2.2695  2.7322  0.2249
  824MOL0     H11195   0.986   4.360   5.440  1.0076  0.8374 -0.8015
  824MOL0     H11196   0.869   4.251   5.239  0.5149  2.8391  0.5624
  824MOL0     H11197   0.715   4.285   5.322 -1.2099 -3.5168  1.5547
  824MOL0     H11198   0.932   4.110   5.427  0.0558  1.1142  2.6789
  824MOL0     H11199   0.768   4.052   5.370 -2.0617 -1.5624  2.7565
  824MOL0     H11200   0.568   4.077   5.413 -0.0450 -0.0512  0.1114
  824MOL0     H11201   0.353   4.084   5.334 -2.8999 -0.4778 -1.8787
  824MOL0     H11202   0.254   4.017   5.475 -0.8446  0.7387 -0.9648
  824MOL0     H11203   0.241   4.183   5.408 -1.5006 -0.8636  2.1286
  824MOL0     H11204   0.027   4.237   5.879  1.1813 -2.4813 -0.8297
  824MOL0     H11205  -0.194   4.279   5.923  0.4891  0.0207  0.3376
  824MOL0     H11206  -0.451   4.306   5.924  2.4969 -2.8861 -1.3465
  824MOL0     H11207  -0.392   4.448   5.830  2.2865 -1.7027 -2.2741
  824MOL0     H11208  -0.609   4.438   5.701  1.7496 -0.3071 -0.4450
  824MOL0     H11209  -0.647   4.300   5.802 -1.2151  0.6916 -3.1655
  824MOL0     H11210  -0.639   4.591   5.904 -0.1422 -0.1742  0.6023
  824MOL0     H11211  -0.644   4.445   6.009  0.7473 -0.5352 -0.9272
  824MOL0     H11212  -0.837   4.509   5.776 -1.1029  0.9992  0.0599
  824MOL0     H11213  -0.850   4.366   5.877  0.2851  0.5778  2.3698
  824MOL0     H11214  -0.875   4.654   5.991 -2.3192  0.5898  2.6789
  824MOL0     H11215  -0.898   4.506   6.082 -2.6597 -0.7574 -0.1574
  824MOL0     H11216  -1.059   4.609   5.846  0.8615  0.7521  0.6768
  824MOL0     H11217  -1.089   4.454   5.904 -0.2582  0.0589  0.3055
  824MOL0     H11218  -1.100   4.699   6.095 -2.2619 -0.3676  1.1216
  824MOL0     H11219  -1.131   4.533   6.135 -0.2334  1.1540  1.1822
  824MOL0     H11220  -1.331   4.530   6.012  0.4377  0.6180 -2.2621
  824MOL0     H11221  -1.301   4.689   5.935  3.0839 -0.8412 -1.7152
  824MOL0     H11222  -0.289   4.255   5.498  1.6163 -3.6395 -1.0017
  824MOL0     H11223  -0.048   4.191   5.461  0.8267 -1.6707  0.3463
  824MOL0     H11224   0.471   4.320   5.830  0.6944  0.8889 -0.6095
  824MOL0     H11225   0.690   4.294   5.767 -1.2815 -0.8440  0.8877
  824MOL0     H11226   2.254   4.542   4.946  0.5605 -0.2369 -1.4124
  824MOL0     H11227   2.490   4.639   4.923 -0.4634 -1.3595 -0.5999
  824MOL0     H11228   2.938   4.476   4.819  0.5093  0.4998 -0.8996
  824MOL0     H11229   3.171   4.561   4.801 -0.5063  2.4953 -0.6321
  824MOL0     H11230   3.355   4.870   5.098  0.5467 -0.0441  0.8537
  824MOL0     H11231   3.328   4.717   5.185 -1.1747 -3.1559 -1.1471
  824MOL0     H11232   3.553   4.740   4.992  0.8525 -0.5896 -0.6023
  824MOL0     H11233   3.527   4.629   5.129  1.2982 -0.1549 -0.9439
  824MOL0     H11234   3.554   4.795   5.301 -2.5344  1.5367 -0.1886
  824MOL0     H11235   3.562   4.922   5.178 -0.0655 -0.2669 -0.1897
  824MOL0     H11236   3.778   4.826   5.094 -1.2488  3.0193  1.0401
  824MOL0     H11237   3.756   4.690   5.202 -0.3816 -0.1233  0.1166
  824MOL0     H11238   3.901   4.963   5.479  0.2835 -0.1597 -0.0624
  824MOL0     H11239   3.115   4.799   5.156  0.3144 -0.9506  0.3994
  824MOL0     H11240   2.884   4.739   5.160 -0.1441  0.4370 -1.1074
  825MOL0     O11241   6.684  10.971   3.277  0.1947 -1.2116  0.1067
  825MOL0     C11242   6.755  10.970   3.175  0.1559 -0.3357 -0.0207
  825MOL0     O11243   6.724  11.032   3.052  0.3843 -0.2348 -0.7946
  825MOL0     C11244   6.619  11.127   3.043  0.0262  0.1777 -0.7805
  825MOL0     C11245   6.652  11.261   3.012 -0.9884 -0.8607 -0.3487
  825MOL0     C11246   6.554  11.355   2.990  0.1043 -1.1954  0.1867
  825MOL0     C11247   6.418  11.328   3.016  0.4176  0.1114  0.3944
  825MOL0     O11248   6.329  11.425   3.008  0.9074 -0.3397 -0.2887
  825MOL0     C11249   6.184  11.411   3.051 -0.3140 -0.0547 -0.1926
  825MOL0     C11250   6.101  11.538   3.020 -0.3045  1.1702 -0.1643
  825MOL0     C11251   5.968  11.545   3.089  0.1211  0.1335  0.8078
  825MOL0     C11252   5.864  11.445   3.035 -0.2101 -0.9009 -0.2862
  825MOL0     C11253   5.735  11.464   3.114 -0.2013 -0.0988  0.5743
  825MOL0     C11254   5.745  11.386   3.248 -0.2533  0.8154 -0.5288
  825MOL0     C11255   5.612  11.371   3.317  0.0750  0.2553 -0.4671
  825MOL0     C11256   5.639  11.355   3.472  0.2757  0.1148  0.5689
  825MOL0     N11257   5.516  11.349   3.553 -0.2365  0.5078  0.1385
  825MOL0     C11258   5.404  11.273   3.530 -0.0273 -1.0087 -0.2737
  825MOL0     C11259   5.309  11.313   3.620 -0.4621 -0.6589  0.2479
  825MOL0     C11260   5.181  11.234   3.641 -0.0557 -0.4624 -0.2117
  825MOL0     C11261   5.062  11.331   3.687 -1.3414 -0.1087  0.0372
  825MOL0     C11262   5.077  11.347   3.841  0.5246 -0.1673  0.3813
  825MOL0     C11263   4.972  11.449   3.893  0.1308 -0.4329  0.0153
  825MOL0     O11264   4.837  11.395   3.867 -0.1939 -0.7071  0.0110
  825MOL0     C11265   4.758  11.478   3.790  0.2031  0.8158  0.2012
  825MOL0     C11266   4.744  11.612   3.805 -0.1729 -0.7611  0.7420
  825MOL0     C11267   4.650  11.700   3.735  0.7026 -0.8795  0.2599
  825MOL0     C11268   4.652  11.848   3.747  0.0724  0.7818 -0.2493
  825MOL0     C11269   4.565  11.630   3.645 -0.1935  0.0439  0.0830
  825MOL0     C11270   4.453  11.677   3.564  0.2607 -0.9367  0.7660
  825MOL0     O11271   4.422  11.601   3.461  0.4421  0.6007  0.0656
  825MOL0     C11272   4.305  11.625   3.392 -0.2954  0.2630  0.4453
  825MOL0     C11273   4.314  11.669   3.255  0.2638  0.1943  0.6046
  825MOL0     C11274   4.195  11.698   3.186  0.0538  1.6235  0.5528
  825MOL0     C11275   4.069  11.671   3.241 -0.4270  0.1102  0.1370
  825MOL0     O11276   3.959  11.698   3.163  0.3371 -0.3975 -0.0058
  825MOL0     C11277   3.848  11.616   3.188  0.2948  0.1067  0.2124
  825MOL0     C11278   3.736  11.649   3.092  0.1638  0.8529 -0.4605
  825MOL0     C11279   3.679  11.786   3.115  0.6241  0.1951 -0.4347
  825MOL0     C11280   3.551  11.814   3.042  0.2415 -0.3399 -0.4969
  825MOL0     C11281   3.499  11.961   3.048 -0.6389  0.8310  0.6123
  825MOL0     C11282   3.384  11.964   2.946  0.4125  0.7495  0.2458
  825MOL0     C11283   3.321  12.103   2.945 -0.4063 -0.3201  0.2529
  825MOL0     C11284   3.212  12.104   2.843  0.2599  0.0692  0.0212
  825MOL0    Cl11285   3.054  12.079   2.926 -0.6943  0.1104 -0.2240
  825MOL0     C11286   4.064  11.619   3.372  0.0706  0.4725 -0.5912
  825MOL0     C11287   4.182  11.600   3.453  0.2482 -0.1274 -0.3807
  825MOL0     O11288   4.391  11.781   3.600 -0.8152  0.1772  0.5135
  825MOL0     C11289   4.573  11.483   3.637 -0.7473  0.1940 -0.5674
  825MOL0     C11290   4.676  11.414   3.700  1.0372  0.1609 -0.9564
  825MOL0     N11291   5.359  11.424   3.684  0.1607  0.0241  0.3088
  825MOL0     N11292   5.478  11.440   3.651  0.4622  0.1447 -0.1099
  825MOL0     C11293   6.386  11.197   3.044 -0.0198  0.4796 -1.3495
  825MOL0     C11294   6.479  11.095   3.068  0.0747 -0.4861  0.6181
  825MOL0     C11295   6.873  10.873   3.176  0.0567 -0.1369 -0.2480
  825MOL0     C11296   6.933  10.815   3.293  0.5977  0.0110 -0.1529
  825MOL0     C11297   7.033  10.728   3.284 -0.3344 -0.5425 -0.2039
  825MOL0     C11298   7.090  10.691   3.160  0.5937 -0.2581  1.3067
  825MOL0     O11299   7.198  10.606   3.168 -0.0683  0.2155 -0.2230
  825MOL0     C11300   7.263  10.551   3.047  0.5048 -0.2919 -0.3639
  825MOL0     C11301   7.384  10.482   3.100  0.3044  0.1020 -0.7022
  825MOL0     C11302   7.383  10.331   3.114 -0.6473 -0.1469 -0.4378
  825MOL0     C11303   7.509  10.275   3.210  0.4413 -0.1774  0.2135
  825MOL0     C11304   7.634  10.287   3.143  0.8061  0.2424  0.5007
  825MOL0     C11305   7.737  10.310   3.086 -0.5284  0.0761 -0.1753
  825MOL0     C11306   7.025  10.742   3.044 -0.3739  0.8490 -0.5996
  825MOL0     C11307   6.920  10.826   3.047 -0.1027 -0.6200 -0.9086
  825MOL0     H11308   6.756  11.287   3.000 -1.5454  1.6853 -0.1947
  825MOL0     H11309   6.592  11.450   2.955  1.8584 -1.4739  1.2227
  825MOL0     H11310   6.123  11.329   3.012 -1.5263 -0.0717  1.5816
  825MOL0     H11311   6.187  11.400   3.160 -3.0579  0.2838 -0.0119
  825MOL0     H11312   6.159  11.630   3.034  0.1177  0.7363  1.0906
  825MOL0     H11313   6.081  11.531   2.913 -3.7282  2.7371  0.2235
  825MOL0     H11314   5.981  11.550   3.197 -1.7523  3.4939  1.0268
  825MOL0     H11315   5.916  11.641   3.077 -2.6326 -1.4173 -0.9458
  825MOL0     H11316   5.853  11.466   2.928  2.1115  1.0029 -0.2445
  825MOL0     H11317   5.894  11.340   3.032 -0.8147 -1.0653 -2.1013
  825MOL0     H11318   5.709  11.569   3.124  2.3838  0.5271  1.4142
  825MOL0     H11319   5.662  11.423   3.043  0.8939  0.8708 -1.1576
  825MOL0     H11320   5.776  11.282   3.229 -1.3390  0.1035  1.3564
  825MOL0     H11321   5.824  11.443   3.298 -1.5411  2.9171 -0.7751
  825MOL0     H11322   5.547  11.458   3.304  0.0622  0.0188 -2.1861
  825MOL0     H11323   5.564  11.282   3.275 -0.1511 -0.9436  2.1664
  825MOL0     H11324   5.704  11.435   3.511 -0.6908  1.6448 -0.8345
  825MOL0     H11325   5.702  11.268   3.494  2.8367  1.8772  0.6566
  825MOL0     H11326   5.384  11.185   3.469  1.1567 -0.2521 -1.8378
  825MOL0     H11327   5.148  11.201   3.542 -2.0275  3.0990 -0.9523
  825MOL0     H11328   5.201  11.152   3.709 -0.9871  1.3550  2.4164
  825MOL0     H11329   4.968  11.282   3.661 -1.3080  0.9340 -2.2467
  825MOL0     H11330   5.060  11.433   3.648 -2.9794  0.3991  1.3087
  825MOL0     H11331   5.177  11.382   3.870  1.1738 -1.5576 -0.0814
  825MOL0     H11332   5.068  11.255   3.899  0.9685 -0.3719  0.1392
  825MOL0     H11333   4.994  11.542   3.840  3.8983 -0.8496  0.6172
  825MOL0     H11334   4.977  11.457   4.002 -0.1980  1.9608 -0.0979
  825MOL0     H11335   4.795  11.671   3.881  0.9914  0.2232 -0.7435
  825MOL0     H11336   4.753  11.891   3.742 -0.8182  2.8058 -3.2462
  825MOL0     H11337   4.589  11.897   3.672 -2.7974 -0.4079  1.2181
  825MOL0     H11338   4.607  11.870   3.845  0.7598 -0.7769  0.4567
  825MOL0     H11339   4.408  11.679   3.201  0.2015 -3.6317 -0.5203
  825MOL0     H11340   4.182  11.727   3.082 -1.9051 -0.2402  0.2110
  825MOL0     H11341   3.874  11.515   3.155 -1.9803 -0.2738 -0.6226
  825MOL0     H11342   3.805  11.617   3.288  0.9750 -0.9062  0.5207
  825MOL0     H11343   3.779  11.642   2.991  1.3352 -2.3016  0.1416
  825MOL0     H11344   3.659  11.573   3.101 -0.3002  1.1371 -1.7330
  825MOL0     H11345   3.748  11.854   3.066 -0.2760 -0.0778 -2.1450
  825MOL0     H11346   3.672  11.808   3.222 -3.0217 -2.1788  0.0122
  825MOL0     H11347   3.581  11.789   2.940 -0.1466 -1.0647 -0.4386
  825MOL0     H11348   3.467  11.750   3.071  0.2191 -0.9344 -1.8142
  825MOL0     H11349   3.577  12.034   3.023 -0.3173  0.0106 -0.8998
  825MOL0     H11350   3.471  11.984   3.151  3.6995  1.1084  1.9601
  825MOL0     H11351   3.426  11.930   2.851  1.2745 -1.7830  1.4444
  825MOL0     H11352   3.303  11.900   2.980 -2.4382  3.5855 -0.6792
  825MOL0     H11353   3.404  12.164   2.909  3.2523 -3.5610  2.3717
  825MOL0     H11354   3.278  12.138   3.039  0.9182 -2.3080  1.6906
  825MOL0     H11355   3.224  12.023   2.771  1.2324  0.1866  0.0347
  825MOL0     H11356   3.203  12.204   2.799  1.3882  0.4974  0.6908
  825MOL0     H11357   3.971  11.593   3.421  1.2338  1.1731  2.1375
  825MOL0     H11358   4.166  11.565   3.554  1.2188  0.6068  0.0376
  825MOL0     H11359   4.506  11.419   3.580 -0.6183 -0.8108  0.3746
  825MOL0     H11360   4.683  11.306   3.686  0.6911  0.2902 -2.1708
  825MOL0     H11361   6.282  11.167   3.049  0.3945 -1.4171 -2.8353
  825MOL0     H11362   6.446  10.997   3.100 -1.6838 -0.0855  0.1183
  825MOL0     H11363   6.893  10.855   3.385 -2.4922  0.7076 -1.6419
  825MOL0     H11364   7.070  10.692   3.379  0.2721  1.2258  0.2631
  825MOL0     H11365   7.183  10.487   3.009  1.9357 -1.0785 -2.2128
  825MOL0     H11366   7.273  10.614   2.959 -2.0015 -1.0366 -1.2763
  825MOL0     H11367   7.417  10.532   3.192  2.3731 -1.1739 -0.6882
  825MOL0     H11368   7.464  10.504   3.029 -1.4050  0.7145 -2.5169
  825MOL0     H11369   7.389  10.291   3.012  0.4001  1.0535 -0.8690
  825MOL0     H11370   7.287  10.301   3.156 -0.6851 -2.4353 -1.9628
  825MOL0     H11371   7.489  10.172   3.239  2.6327 -0.1133  2.1867
  825MOL0     H11372   7.511  10.339   3.299 -1.7607 -1.1820  1.0724
  825MOL0     H11373   7.831  10.345   3.051  0.3983 -0.5989  1.5230
  825MOL0     H11374   7.066  10.721   2.945  2.5564 -1.8201  0.9845
  825MOL0     H11375   6.880  10.873   2.958 -1.7490 -0.8815 -0.3367
  826MOL0     O11376   2.010   1.624   9.055 -0.2067  0.2228  0.1149
  826MOL0     C11377   2.078   1.564   8.961  0.2591 -0.2430  0.7153
  826MOL0     O11378   2.031   1.490   8.857 -0.7520  0.4875 -0.3560
  826MOL0     C11379   1.889   1.466   8.849 -0.5071  0.6156  0.0751
  826MOL0     C11380   1.783   1.495   8.933  0.3314  0.3095  0.0718
  826MOL0     C11381   1.652   1.454   8.900 -0.9444 -0.2479 -0.0214
  826MOL0     C11382   1.623   1.376   8.795 -0.3970  0.4952 -0.8542
  826MOL0     O11383   1.496   1.338   8.769 -0.3623 -0.2512  0.3028
  826MOL0     C11384   1.394   1.349   8.870  0.0451  0.3735  0.0837
  826MOL0     C11385   1.259   1.275   8.835  0.1190 -0.2045 -1.1760
  826MOL0     C11386   1.196   1.338   8.708 -0.9813  0.5333 -0.5165
  826MOL0     C11387   1.048   1.298   8.697 -0.3749 -1.2548  0.8776
  826MOL0     C11388   0.981   1.342   8.569  0.2941 -0.2520  0.4612
  826MOL0     C11389   1.032   1.258   8.449  0.3295 -0.0893  0.7857
  826MOL0     C11390   0.971   1.299   8.315  0.1713  0.2290 -0.4592
  826MOL0     C11391   0.995   1.212   8.197 -0.6078 -0.6255 -0.4086
  826MOL0     N11392   0.899   1.103   8.171 -0.1628  0.1129  0.4250
  826MOL0     C11393   0.815   1.033   8.251 -0.3329 -0.0733 -0.2015
  826MOL0     C11394   0.730   0.969   8.167  0.2786 -0.3188 -0.6582
  826MOL0     C11395   0.621   0.873   8.198 -0.2849 -0.6587  0.3720
  826MOL0     C11396   0.513   0.944   8.287  0.2402 -0.5546 -0.2118
  826MOL0     C11397   0.395   0.847   8.305  0.4784 -0.6563 -0.6519
  826MOL0     C11398   0.288   0.860   8.192 -0.5981  0.0190  0.2044
  826MOL0     O11399   0.194   0.968   8.214 -0.5642  0.6505 -0.2852
  826MOL0     C11400   0.100   0.973   8.311  0.5777  0.1195 -0.6904
  826MOL0     C11401   0.060   1.101   8.354  0.5633  0.1013 -0.7959
  826MOL0     C11402  -0.034   1.128   8.459  0.6875  0.3147 -0.4292
  826MOL0     C11403  -0.065   1.273   8.501 -0.0765  0.3144 -0.1283
  826MOL0     C11404  -0.077   1.018   8.536 -0.5497  0.0127 -0.3793
  826MOL0     C11405  -0.185   1.018   8.637  0.2102 -0.4884  0.9108
  826MOL0     O11406  -0.210   0.894   8.696 -0.1945  0.0467 -0.0567
  826MOL0     C11407  -0.309   0.875   8.791 -0.4435 -0.1049  0.2096
  826MOL0     C11408  -0.426   0.799   8.760 -0.1135  0.2356  0.2980
  826MOL0     C11409  -0.507   0.750   8.868 -0.8899  0.3473  0.5039
  826MOL0     C11410  -0.468   0.770   9.000  0.2883 -0.4327 -0.9009
  826MOL0     O11411  -0.515   0.703   9.106 -0.4380  0.4569  0.4476
  826MOL0     C11412  -0.650   0.709   9.125  0.1105  0.6626 -0.1983
  826MOL0     C11413  -0.681   0.681   9.269 -0.3082  0.3604 -0.6373
  826MOL0     C11414  -0.830   0.710   9.304 -0.7193  0.3123  0.3663
  826MOL0     C11415  -0.924   0.587   9.310 -0.0996 -0.6421  0.1254
  826MOL0     C11416  -1.054   0.646   9.363  0.7182 -0.4099  0.3545
  826MOL0     C11417  -1.153   0.530   9.396  0.5766  0.1084 -0.0103
  826MOL0     C11418  -1.280   0.575   9.468  0.7377 -0.1492 -0.5145
  826MOL0     C11419  -1.375   0.670   9.393 -0.3389 -0.8612  0.6315
  826MOL0    Cl11420  -1.415   0.615   9.229  0.3573 -0.4648 -0.1680
  826MOL0     C11421  -0.354   0.842   9.029 -0.3002  0.4363 -0.0721
  826MOL0     C11422  -0.279   0.904   8.925 -0.2127  0.3781 -0.0067
  826MOL0     O11423  -0.235   1.125   8.669 -0.0672 -0.6271  0.3087
  826MOL0     C11424  -0.042   0.891   8.488  0.7410  0.9670  1.0620
  826MOL0     C11425   0.044   0.860   8.379 -0.6793 -0.4113 -0.6055
  826MOL0     N11426   0.781   0.983   8.042 -0.1487 -0.0442  0.2110
  826MOL0     N11427   0.883   1.068   8.040 -0.3038 -0.1157  0.4597
  826MOL0     C11428   1.727   1.331   8.719 -0.2285 -0.1910 -0.1862
  826MOL0     C11429   1.861   1.382   8.743 -0.0260  0.0598  0.1939
  826MOL0     C11430   2.226   1.584   8.970 -0.7656 -0.2311  0.6900
  826MOL0     C11431   2.323   1.509   8.899  0.6951 -0.0202  0.5535
  826MOL0     C11432   2.458   1.539   8.891 -0.3651 -0.6659  0.1925
  826MOL0     C11433   2.506   1.656   8.962 -0.2407 -0.1357  0.2618
  826MOL0     O11434   2.639   1.695   8.954 -0.3486 -0.7399  0.0108
  826MOL0     C11435   2.727   1.617   8.881 -0.8273  0.4720  0.9036
  826MOL0     C11436   2.857   1.699   8.856  1.0223  0.1481 -0.0732
  826MOL0     C11437   2.972   1.614   8.800  0.2028  0.3986 -0.0588
  826MOL0     C11438   2.938   1.565   8.668 -0.0614  0.2476 -0.0837
  826MOL0     C11439   2.918   1.675   8.575  0.4174  0.3247  0.1961
  826MOL0     C11440   2.910   1.766   8.492  0.1382  0.0502  0.0095
  826MOL0     C11441   2.408   1.730   9.035  0.8337  0.1501 -0.1480
  826MOL0     C11442   2.277   1.697   9.034  0.5251  0.8154 -0.4237
  826MOL0     H11443   1.797   1.569   9.011 -0.3655  0.1770  0.3316
  826MOL0     H11444   1.582   1.492   8.973  0.3321  1.1183  0.5379
  826MOL0     H11445   1.423   1.318   8.971 -1.4444 -1.4549  0.0171
  826MOL0     H11446   1.370   1.456   8.870  0.2629  0.4218  0.0555
  826MOL0     H11447   1.271   1.167   8.824  0.2038 -0.5074  1.4016
  826MOL0     H11448   1.200   1.285   8.926  0.5431 -3.4239 -0.4189
  826MOL0     H11449   1.206   1.447   8.709 -1.5347  0.5887 -0.7473
  826MOL0     H11450   1.245   1.293   8.621 -3.2903 -2.4415 -0.4358
  826MOL0     H11451   1.029   1.191   8.711 -2.9726 -1.0463 -0.4647
  826MOL0     H11452   0.989   1.332   8.782  0.4533 -1.3287  1.5050
  826MOL0     H11453   0.873   1.330   8.561 -0.3227  4.4866 -3.4117
  826MOL0     H11454   1.001   1.449   8.562  2.7305 -0.7286 -1.3889
  826MOL0     H11455   1.141   1.251   8.439  0.2807  0.6629 -0.5097
  826MOL0     H11456   0.986   1.161   8.468  0.3483 -0.3340 -0.3169
  826MOL0     H11457   0.862   1.312   8.320  0.2440  0.4552  1.4258
  826MOL0     H11458   1.006   1.399   8.288 -0.3652  0.4404 -0.3930
  826MOL0     H11459   1.096   1.171   8.210 -0.2899  0.8789  2.4625
  826MOL0     H11460   1.018   1.272   8.108  1.3313 -0.3938  0.2042
  826MOL0     H11461   0.816   1.031   8.359  0.1581 -0.4867 -0.2099
  826MOL0     H11462   0.575   0.828   8.109  1.1588  1.2335 -1.4537
  826MOL0     H11463   0.676   0.794   8.250  3.1071  1.2944  0.0518
  826MOL0     H11464   0.470   1.041   8.258  1.6038 -0.6118 -2.6283
  826MOL0     H11465   0.554   0.971   8.385 -1.2434 -0.4501  0.4056
  826MOL0     H11466   0.349   0.847   8.405 -0.8478  1.7246 -1.1846
  826MOL0     H11467   0.439   0.749   8.288  0.3368 -0.8504  0.0700
  826MOL0     H11468   0.230   0.768   8.190 -0.1287 -0.2732 -1.6436
  826MOL0     H11469   0.345   0.880   8.100  0.5129  0.1625  0.8971
  826MOL0     H11470   0.107   1.190   8.313 -0.7805  1.6933  0.9848
  826MOL0     H11471  -0.081   1.294   8.607  1.0634  4.9622 -0.6348
  826MOL0     H11472   0.022   1.335   8.476  0.0319  0.8520  1.4468
  826MOL0     H11473  -0.157   1.305   8.452  1.1818  0.0504 -2.8625
  826MOL0     H11474  -0.451   0.791   8.654 -1.6442  2.9399  0.3625
  826MOL0     H11475  -0.595   0.692   8.845  1.5127 -3.5720  0.3544
  826MOL0     H11476  -0.689   0.808   9.100  0.0795  1.3016  2.2064
  826MOL0     H11477  -0.698   0.631   9.064 -1.8821  0.2913  1.6885
  826MOL0     H11478  -0.656   0.580   9.300 -4.0482 -0.8339 -0.9508
  826MOL0     H11479  -0.621   0.752   9.326  0.8342 -0.3134 -0.9787
  826MOL0     H11480  -0.875   0.786   9.240  2.5654  1.8734 -0.2964
  826MOL0     H11481  -0.821   0.750   9.406  0.0257  1.0183  0.0328
  826MOL0     H11482  -0.944   0.548   9.210 -0.7216 -0.1938  0.0733
  826MOL0     H11483  -0.877   0.517   9.381 -1.8483 -0.7832  1.2203
  826MOL0     H11484  -1.097   0.702   9.279 -0.3754 -2.9248 -0.8488
  826MOL0     H11485  -1.045   0.712   9.450  1.3091  1.9667 -1.3816
  826MOL0     H11486  -1.185   0.480   9.304 -0.3428  0.9050 -0.1359
  826MOL0     H11487  -1.105   0.458   9.463 -1.4175 -0.0285  1.3536
  826MOL0     H11488  -1.266   0.612   9.570  0.3364  0.3906 -0.6549
  826MOL0     H11489  -1.341   0.488   9.494 -2.6711  2.6082  1.5974
  826MOL0     H11490  -1.324   0.766   9.381  2.5695 -2.4342 -0.6999
  826MOL0     H11491  -1.465   0.690   9.452 -0.7715 -0.4308 -0.1600
  826MOL0     H11492  -0.327   0.856   9.133  3.0595  0.4519 -0.8307
  826MOL0     H11493  -0.193   0.962   8.955  1.2090 -0.3936 -2.3343
  826MOL0     H11494  -0.088   0.803   8.534  4.3299 -0.1772  2.7904
  826MOL0     H11495   0.047   0.754   8.359 -0.5708 -0.7710  1.1976
  826MOL0     H11496   1.702   1.261   8.640 -3.1679 -1.1117  1.4064
  826MOL0     H11497   1.946   1.365   8.677  0.4718  4.1506 -0.4595
  826MOL0     H11498   2.289   1.418   8.850  1.6329 -0.3942  0.5730
  826MOL0     H11499   2.517   1.468   8.834  1.4415  1.5134 -0.8154
  826MOL0     H11500   2.749   1.527   8.938 -1.3758 -0.8921 -0.9451
  826MOL0     H11501   2.686   1.591   8.783 -0.1571  0.3610  0.6498
  826MOL0     H11502   2.882   1.740   8.954 -1.1819  1.4853 -0.0039
  826MOL0     H11503   2.823   1.779   8.790 -0.9123 -1.2281 -0.8550
  826MOL0     H11504   2.994   1.528   8.864 -0.6222  0.9228  0.9517
  826MOL0     H11505   3.064   1.671   8.791  0.4591 -0.1797 -1.3325
  826MOL0     H11506   2.848   1.504   8.660  0.3967 -0.5344  0.6513
  826MOL0     H11507   3.021   1.502   8.634  0.8658  0.1092  2.2913
  826MOL0     H11508   2.896   1.848   8.424  0.2109 -0.7796 -1.0456
  826MOL0     H11509   2.441   1.828   9.070  1.6543 -0.2351  0.1813
  826MOL0     H11510   2.212   1.753   9.100  0.3943  0.3957 -0.1899
  827MOL0     O11511   8.254   2.577  10.338  0.2072  0.3027  0.4431
  827MOL0     C11512   8.184   2.607  10.428  1.3158 -0.1517 -0.8909
  827MOL0     O11513   8.218   2.605  10.562  0.0383 -0.5144  0.4500
  827MOL0     C11514   8.348   2.570  10.603 -0.1974  0.3057 -0.1887
  827MOL0     C11515   8.466   2.549  10.533  0.3274 -0.3483  0.1440
  827MOL0     C11516   8.587   2.540  10.600 -0.1881  0.5015 -0.4817
  827MOL0     C11517   8.605   2.551  10.737 -0.9103  0.4074 -0.3391
  827MOL0     O11518   8.732   2.565  10.789 -0.5294 -0.0395 -0.1824
  827MOL0     C11519   8.751   2.563  10.933 -0.2982  0.1982  0.5065
  827MOL0     C11520   8.886   2.634  10.966 -0.2506 -0.0744 -0.1687
  827MOL0     C11521   9.006   2.563  10.902 -0.2437  0.1456 -0.8197
  827MOL0     C11522   9.120   2.663  10.927 -0.8070 -0.6796  0.6214
  827MOL0     C11523   9.262   2.602  10.908  0.0099  0.0273 -0.5017
  827MOL0     C11524   9.296   2.554  10.761 -0.2276  0.1390 -0.0254
  827MOL0     C11525   9.420   2.471  10.755 -0.2323  0.4406 -0.3997
  827MOL0     C11526   9.440   2.426  10.613 -0.5139  0.3401  0.2144
  827MOL0     N11527   9.575   2.384  10.590  0.8853 -0.5259  0.2774
  827MOL0     C11528   9.684   2.466  10.598 -0.3096  0.1226 -0.3108
  827MOL0     C11529   9.783   2.389  10.548 -0.9644 -0.0066  0.2384
  827MOL0     C11530   9.928   2.412  10.565 -0.5055 -0.7414  0.5404
  827MOL0     C11531   9.984   2.545  10.506 -0.5748  0.6694  0.2677
  827MOL0     C11532   9.955   2.558  10.358 -0.1659 -0.2798 -0.0592
  827MOL0     C11533   9.960   2.698  10.312 -0.7664 -0.6316 -0.2380
  827MOL0     O11534   9.887   2.797  10.391 -0.6652 -0.4197 -0.5056
  827MOL0     C11535   9.747   2.798  10.388  0.3985 -0.7113  0.7173
  827MOL0     C11536   9.673   2.849  10.496 -1.0001  0.0087  0.2553
  827MOL0     C11537   9.536   2.846  10.501 -0.0748 -0.0335 -0.3332
  827MOL0     C11538   9.473   2.921  10.620 -0.3463  0.3290 -0.6326
  827MOL0     C11539   9.462   2.790  10.391 -1.0033 -0.6738  0.5468
  827MOL0     C11540   9.319   2.799  10.377 -0.1956 -0.3095  0.3614
  827MOL0     O11541   9.247   2.806  10.494  0.2558  0.1447  0.5300
  827MOL0     C11542   9.115   2.845  10.489 -0.3674 -0.2481  0.3052
  827MOL0     C11543   9.028   2.779  10.574 -0.5715  0.3894  0.5659
  827MOL0     C11544   8.894   2.811  10.588  0.6105 -0.3815  0.2174
  827MOL0     C11545   8.842   2.922  10.528  0.0619 -0.1028 -0.5415
  827MOL0     O11546   8.713   2.963  10.538  1.0202 -0.2116 -0.8862
  827MOL0     C11547   8.627   2.929  10.647 -1.1784 -1.0048 -0.6468
  827MOL0     C11548   8.480   2.950  10.612  0.0449 -0.7103 -0.2118
  827MOL0     C11549   8.457   3.082  10.542 -0.2589  0.1990 -0.2294
  827MOL0     C11550   8.314   3.117  10.522 -0.1435 -0.0808  0.2117
  827MOL0     C11551   8.251   3.176  10.639 -0.3016 -0.4381 -0.0774
  827MOL0     C11552   8.099   3.227  10.614 -0.3887  0.8239  0.5635
  827MOL0     C11553   8.030   3.273  10.741  0.7345  0.5367 -0.2443
  827MOL0     C11554   7.879   3.300  10.728  1.3539  0.1270 -0.2117
  827MOL0    Cl11555   7.780   3.154  10.692 -0.1388 -0.1392 -0.2143
  827MOL0     C11556   8.933   3.011  10.453 -0.0210  0.1146 -0.7697
  827MOL0     C11557   9.069   2.969  10.434  0.2438 -0.2402  0.3810
  827MOL0     O11558   9.262   2.793  10.267 -0.0008  0.5709 -0.3261
  827MOL0     C11559   9.536   2.730  10.286 -0.5160 -0.5473 -0.0084
  827MOL0     C11560   9.675   2.726  10.288  0.0296  0.6790  0.0344
  827MOL0     N11561   9.734   2.268  10.511  0.8690 -0.2206  0.2607
  827MOL0     N11562   9.603   2.258  10.536  0.2503 -0.3966  0.4632
  827MOL0     C11563   8.479   2.550  10.807 -0.3617  0.1141  0.3141
  827MOL0     C11564   8.354   2.557  10.744  0.3743 -0.3572  0.2867
  827MOL0     C11565   8.035   2.636  10.404 -0.6873 -0.3587  0.0826
  827MOL0     C11566   7.939   2.652  10.514 -0.2099  0.0232  0.4604
  827MOL0     C11567   7.808   2.670  10.490 -0.0142 -0.2619  0.4506
  827MOL0     C11568   7.758   2.680  10.360  0.0800 -0.0079 -0.6702
  827MOL0     O11569   7.627   2.717  10.355 -0.1371 -0.0687  0.1068
  827MOL0     C11570   7.583   2.770  10.231 -0.1560 -0.0712  0.3253
  827MOL0     C11571   7.432   2.777  10.241  0.1499  0.0676  0.5216
  827MOL0     C11572   7.351   2.657  10.197  0.1073  0.1482 -0.2999
  827MOL0     C11573   7.205   2.686  10.185  1.0738 -0.0502 -0.1518
  827MOL0     C11574   7.122   2.576  10.130 -0.1093 -0.8671  0.9557
  827MOL0     C11575   7.056   2.496  10.067  0.4165 -0.2749  0.1832
  827MOL0     C11576   7.852   2.671  10.252 -0.1654  0.7216  0.1369
  827MOL0     C11577   7.989   2.650  10.278 -0.2682  0.6375  0.0495
  827MOL0     H11578   8.469   2.560  10.425 -3.1087 -0.9381 -0.1153
  827MOL0     H11579   8.670   2.539  10.530  0.9653 -3.9188  0.6660
  827MOL0     H11580   8.667   2.604  10.989  0.4893 -0.0535  1.9190
  827MOL0     H11581   8.754   2.458  10.964  1.6443  0.1938  0.4659
  827MOL0     H11582   8.869   2.734  10.924  0.9544 -0.4374 -1.5900
  827MOL0     H11583   8.900   2.634  11.074 -0.6360  1.4403 -0.0923
  827MOL0     H11584   9.021   2.466  10.950  0.1371  0.7649  0.3428
  827MOL0     H11585   8.990   2.547  10.795  0.3229  0.8247 -1.0127
  827MOL0     H11586   9.108   2.753  10.866  1.0992 -1.7547 -1.5361
  827MOL0     H11587   9.116   2.702  11.029 -2.7298  1.4703 -0.1866
  827MOL0     H11588   9.338   2.669  10.947  0.6087  0.1454 -1.8273
  827MOL0     H11589   9.264   2.513  10.971 -0.5017  0.0164 -0.4923
  827MOL0     H11590   9.210   2.501  10.718  1.6488 -0.6541 -3.1342
  827MOL0     H11591   9.319   2.631  10.687  0.7890 -1.6012 -1.6033
  827MOL0     H11592   9.505   2.527  10.793  1.3860 -1.4281 -1.0571
  827MOL0     H11593   9.413   2.392  10.830  1.0765  2.3720  1.8774
  827MOL0     H11594   9.416   2.511  10.548  0.6300  1.5169  1.2701
  827MOL0     H11595   9.373   2.345  10.581  2.0135 -2.1923  0.9109
  827MOL0     H11596   9.689   2.567  10.636 -2.9408  0.1958  0.0363
  827MOL0     H11597   9.945   2.424  10.673 -3.0861  2.0318  0.7619
  827MOL0     H11598   9.978   2.325  10.520  0.6321 -0.3282  0.9589
  827MOL0     H11599  10.093   2.551  10.517 -0.5198 -0.9726  0.8991
  827MOL0     H11600   9.942   2.633  10.556 -3.2802  0.7528 -1.9326
  827MOL0     H11601   9.854   2.526  10.329  0.1067  0.1046 -1.5383
  827MOL0     H11602  10.030   2.496  10.308  1.3116 -0.3432  2.1291
  827MOL0     H11603   9.921   2.711  10.210  2.2058 -0.9294 -1.5346
  827MOL0     H11604  10.066   2.726  10.301 -1.0720  2.5135  3.1222
  827MOL0     H11605   9.741   2.900  10.563  1.7992 -1.7868 -1.0378
  827MOL0     H11606   9.553   2.962  10.682  0.5341 -0.1897 -1.4010
  827MOL0     H11607   9.403   2.998  10.585 -0.5335 -0.0973 -1.2213
  827MOL0     H11608   9.417   2.851  10.683 -1.2270  1.2389 -0.3701
  827MOL0     H11609   9.068   2.702  10.639 -1.3688  0.4323  1.1197
  827MOL0     H11610   8.825   2.754  10.649  0.2108  0.5902  0.6873
  827MOL0     H11611   8.652   2.829  10.684  2.6713  0.6979  2.0613
  827MOL0     H11612   8.653   2.993  10.732 -0.5943  0.8439 -2.1653
  827MOL0     H11613   8.442   2.871  10.548  2.5691 -1.9730 -0.2692
  827MOL0     H11614   8.430   2.956  10.709  1.7640 -0.3604  0.6987
  827MOL0     H11615   8.499   3.073  10.442  2.5678  3.9123  0.3858
  827MOL0     H11616   8.510   3.160  10.597 -0.9380 -0.7705  1.9264
  827MOL0     H11617   8.306   3.186  10.438 -1.0318 -1.0680 -0.5434
  827MOL0     H11618   8.267   3.025  10.486 -2.9841  2.1759 -2.3147
  827MOL0     H11619   8.312   3.254  10.685 -2.0782  0.2721  1.1739
  827MOL0     H11620   8.251   3.093  10.710  0.2180 -2.3231 -2.1485
  827MOL0     H11621   8.109   3.316  10.552  0.2246  0.2576 -0.1662
  827MOL0     H11622   8.043   3.148  10.563  0.8323  0.5783 -0.4675
  827MOL0     H11623   8.071   3.364  10.784  1.4554  1.2839 -2.4194
  827MOL0     H11624   8.052   3.195  10.815  0.4993 -0.3116 -1.0487
  827MOL0     H11625   7.860   3.378  10.653  1.1549  2.2262  1.8732
  827MOL0     H11626   7.845   3.350  10.819  2.0971  0.6516 -0.2076
  827MOL0     H11627   8.897   3.105  10.412  1.2870  1.6823  1.4501
  827MOL0     H11628   9.135   3.035  10.379  0.5400 -0.2106  0.7669
  827MOL0     H11629   9.498   2.688  10.194  0.6844  1.6212 -1.5916
  827MOL0     H11630   9.726   2.674  10.208  1.2850  1.1545  0.4851
  827MOL0     H11631   8.468   2.553  10.915 -0.1739 -0.5347  0.3550
  827MOL0     H11632   8.264   2.561  10.803 -0.0079 -0.5628 -0.2789
  827MOL0     H11633   7.976   2.636  10.615  2.4312 -0.0628 -0.4404
  827MOL0     H11634   7.736   2.681  10.571  1.3568  1.7535  1.4819
  827MOL0     H11635   7.628   2.868  10.213  1.7113 -0.5444  2.0730
  827MOL0     H11636   7.608   2.700  10.151 -2.2418 -1.0046  0.4340
  827MOL0     H11637   7.394   2.852  10.171 -2.5795 -1.4363  0.2624
  827MOL0     H11638   7.406   2.804  10.344  1.8380 -0.4008  1.1125
  827MOL0     H11639   7.358   2.583  10.277  1.7020 -2.0509 -2.3216
  827MOL0     H11640   7.396   2.625  10.102 -0.5095  1.3430 -1.0273
  827MOL0     H11641   7.177   2.773  10.125  0.5618  0.6700  1.0930
  827MOL0     H11642   7.165   2.706  10.285  0.6205 -0.2696 -0.2851
  827MOL0     H11643   6.988   2.430  10.017  2.1818 -1.1740 -1.1269
  827MOL0     H11644   7.824   2.697  10.151  2.9733 -0.9616 -1.2963
  827MOL0     H11645   8.063   2.663  10.200  2.2463  2.7695  2.5482
  828MOL0     O11646   6.591   0.675   8.800 -0.4678 -0.2569 -0.4924
  828MOL0     C11647   6.599   0.747   8.896 -0.1335  0.6084 -0.4706
  828MOL0     O11648   6.496   0.827   8.933 -0.3945  0.2011  0.3053
  828MOL0     C11649   6.383   0.825   8.852  0.2529  0.1553  0.3682
  828MOL0     C11650   6.363   0.906   8.738  0.1940  0.0181 -0.6220
  828MOL0     C11651   6.242   0.903   8.666  0.5567 -0.9498 -0.3660
  828MOL0     C11652   6.130   0.828   8.715 -1.3325  0.2997  0.1473
  828MOL0     O11653   6.008   0.832   8.657  0.0460  0.3410 -0.1011
  828MOL0     C11654   5.977   0.927   8.551 -0.5727  0.4475  0.4694
  828MOL0     C11655   5.824   0.913   8.528 -0.1548 -0.3134 -0.0269
  828MOL0     C11656   5.775   0.987   8.398 -0.0601 -0.3687 -0.5108
  828MOL0     C11657   5.634   0.989   8.364  0.3388  0.6385  0.6606
  828MOL0     C11658   5.587   1.054   8.236 -0.8362  0.0934 -0.7330
  828MOL0     C11659   5.609   1.200   8.249 -0.3187  0.7296 -0.5565
  828MOL0     C11660   5.577   1.271   8.114  1.2149  0.3380 -0.8838
  828MOL0     C11661   5.421   1.263   8.083 -0.0585  0.0876 -0.2945
  828MOL0     N11662   5.406   1.355   7.972  0.3488  0.2572 -0.5218
  828MOL0     C11663   5.413   1.313   7.841 -0.0745 -0.4023 -0.7314
  828MOL0     C11664   5.445   1.424   7.776 -0.5180 -0.3537  0.1429
  828MOL0     C11665   5.491   1.432   7.628 -0.0728  0.0536  0.1901
  828MOL0     C11666   5.372   1.466   7.530 -0.2644 -0.6340  0.2697
  828MOL0     C11667   5.240   1.407   7.565  0.4207 -0.1839 -0.6292
  828MOL0     C11668   5.118   1.467   7.479 -0.7096 -0.6159  0.4432
  828MOL0     O11669   5.095   1.607   7.512 -0.2518 -0.1867 -0.5869
  828MOL0     C11670   4.992   1.687   7.458  0.0955  0.0487 -0.2297
  828MOL0     C11671   4.882   1.645   7.386 -0.1599  0.3844 -0.1203
  828MOL0     C11672   4.787   1.732   7.336 -0.2377 -0.2954 -0.2614
  828MOL0     C11673   4.662   1.666   7.271 -0.5186 -0.4168 -0.3349
  828MOL0     C11674   4.795   1.870   7.360  0.6119 -0.4551 -0.1110
  828MOL0     C11675   4.699   1.979   7.312  0.7492 -0.1799  0.2336
  828MOL0     O11676   4.746   2.105   7.338  0.2329  0.1587  0.5183
  828MOL0     C11677   4.667   2.217   7.308 -0.2925  0.7272  0.7999
  828MOL0     C11678   4.742   2.314   7.249 -0.1680 -0.1430  0.6520
  828MOL0     C11679   4.686   2.435   7.208 -0.3519 -0.0243 -0.8240
  828MOL0     C11680   4.551   2.455   7.231  1.1672  0.0079  0.7229
  828MOL0     O11681   4.478   2.562   7.185 -0.0650  0.3231 -0.1373
  828MOL0     C11682   4.547   2.672   7.137 -0.4783  0.3793 -0.0279
  828MOL0     C11683   4.473   2.802   7.119 -0.3180 -0.4486 -0.6818
  828MOL0     C11684   4.481   2.873   7.253  0.2760 -0.4480 -0.2331
  828MOL0     C11685   4.403   3.007   7.231 -0.5935 -0.6338 -0.1813
  828MOL0     C11686   4.379   3.093   7.360  0.0667 -0.2303 -0.3548
  828MOL0     C11687   4.292   3.212   7.341  0.6189  0.2090 -0.3301
  828MOL0     C11688   4.254   3.298   7.468 -0.5816  0.5690  0.6940
  828MOL0     C11689   4.170   3.421   7.443  0.2876 -0.5783  0.6623
  828MOL0    Cl11690   4.261   3.546   7.365  0.0872  0.6136 -0.0554
  828MOL0     C11691   4.474   2.350   7.295 -0.1248  0.4661 -0.1917
  828MOL0     C11692   4.536   2.232   7.335  0.6250 -0.8621  0.6280
  828MOL0     O11693   4.593   1.954   7.256  0.0098  0.6849 -0.1160
  828MOL0     C11694   4.914   1.913   7.435  0.2795  0.3790 -0.0425
  828MOL0     C11695   5.009   1.822   7.475  0.3295  0.2138  0.5941
  828MOL0     N11696   5.431   1.532   7.865 -1.1276 -0.5311  0.3279
  828MOL0     N11697   5.406   1.491   7.983 -0.2183 -0.3009  0.6962
  828MOL0     C11698   6.153   0.747   8.828 -0.2459 -0.1631 -0.9564
  828MOL0     C11699   6.272   0.743   8.894 -0.4231 -0.6174  0.2758
  828MOL0     C11700   6.727   0.749   8.971 -0.5186 -0.5246 -0.3700
  828MOL0     C11701   6.815   0.644   8.969 -1.1380  0.6465 -0.1653
  828MOL0     C11702   6.925   0.640   9.054 -0.5074  0.1554 -0.2023
  828MOL0     C11703   6.959   0.747   9.134  0.2525 -0.1811  1.4979
  828MOL0     O11704   7.056   0.720   9.229  0.2405 -0.1866 -0.4030
  828MOL0     C11705   7.061   0.815   9.341 -0.8684 -0.2787 -0.2293
  828MOL0     C11706   7.169   0.774   9.438 -0.7275  0.8963  0.0338
  828MOL0     C11707   7.317   0.785   9.377 -0.0331 -0.4301  0.0228
  828MOL0     C11708   7.407   0.894   9.439 -0.0399  0.6656  0.0722
  828MOL0     C11709   7.550   0.863   9.421 -0.4118 -0.1196 -0.3683
  828MOL0     C11710   7.669   0.842   9.411  0.8089 -1.1348 -0.5332
  828MOL0     C11711   6.875   0.863   9.129 -0.8452  0.1665 -0.0994
  828MOL0     C11712   6.759   0.859   9.052 -0.0062  0.2972  0.4867
  828MOL0     H11713   6.451   0.961   8.706 -0.2632  0.2646 -1.5013
  828MOL0     H11714   6.238   0.963   8.575 -1.7761 -0.6745 -0.1581
  828MOL0     H11715   6.006   1.029   8.579  1.4260 -0.2284  0.9983
  828MOL0     H11716   6.025   0.898   8.458 -0.5995  0.3142  0.4968
  828MOL0     H11717   5.792   0.808   8.524  2.4346 -1.1249 -1.7815
  828MOL0     H11718   5.785   0.949   8.624 -0.9827 -2.2102  0.3901
  828MOL0     H11719   5.813   1.089   8.404  3.1080 -1.1134 -3.9562
  828MOL0     H11720   5.827   0.947   8.310  0.4315  2.2450 -1.5269
  828MOL0     H11721   5.598   0.886   8.371  1.2767  0.3589  1.5929
  828MOL0     H11722   5.588   1.050   8.442 -3.2480 -0.8370 -0.1027
  828MOL0     H11723   5.646   1.020   8.150  0.8149 -2.1386  1.1586
  828MOL0     H11724   5.480   1.040   8.219 -0.8307  1.4578 -2.0729
  828MOL0     H11725   5.545   1.242   8.326 -0.3653  1.7685 -1.1498
  828MOL0     H11726   5.709   1.228   8.284 -0.3033 -0.2800  0.2730
  828MOL0     H11727   5.591   1.380   8.120 -0.5856  0.5826 -0.6839
  828MOL0     H11728   5.622   1.230   8.023 -0.8554 -0.7309 -1.4835
  828MOL0     H11729   5.365   1.297   8.171  0.1108 -1.0651  0.2826
  828MOL0     H11730   5.390   1.160   8.061  2.1015 -1.0092  1.4157
  828MOL0     H11731   5.404   1.210   7.808 -1.2463 -1.3065  2.1324
  828MOL0     H11732   5.568   1.507   7.608  1.4353 -1.3736  0.3841
  828MOL0     H11733   5.527   1.336   7.589 -0.4701 -0.7024  1.6290
  828MOL0     H11734   5.388   1.429   7.428 -1.6871  0.0035 -0.2054
  828MOL0     H11735   5.354   1.574   7.532  0.2069 -0.5037  3.8223
  828MOL0     H11736   5.214   1.433   7.668 -0.3983  0.6361 -1.0276
  828MOL0     H11737   5.239   1.300   7.547 -1.5786 -0.2643 -0.2890
  828MOL0     H11738   5.026   1.408   7.490 -2.3569  1.6526 -0.6458
  828MOL0     H11739   5.129   1.461   7.371  0.8595  1.0084  0.4728
  828MOL0     H11740   4.876   1.539   7.362 -1.4988  0.0567  1.4696
  828MOL0     H11741   4.685   1.560   7.256  1.0507 -0.3517  1.2876
  828MOL0     H11742   4.567   1.675   7.325  0.1377  1.3291  0.5781
  828MOL0     H11743   4.659   1.716   7.174 -0.3227  3.8808  1.6670
  828MOL0     H11744   4.849   2.300   7.241 -0.2121 -1.3673  1.8826
  828MOL0     H11745   4.756   2.507   7.168 -1.0911  0.7039 -0.8263
  828MOL0     H11746   4.639   2.686   7.193 -0.0743 -2.1358  0.0701
  828MOL0     H11747   4.568   2.648   7.032 -2.7147 -0.7394 -0.2891
  828MOL0     H11748   4.510   2.865   7.037  2.0503 -2.1927 -1.0316
  828MOL0     H11749   4.366   2.794   7.095 -0.9364 -1.1029  2.0164
  828MOL0     H11750   4.588   2.895   7.264  0.1816 -0.3189  0.4695
  828MOL0     H11751   4.447   2.823   7.345 -1.9981  0.9036 -0.2888
  828MOL0     H11752   4.463   3.071   7.166 -2.6320  3.6517  1.7803
  828MOL0     H11753   4.303   2.993   7.190 -0.8370  0.0655  0.1585
  828MOL0     H11754   4.465   3.141   7.409 -0.6995  2.1142 -1.1745
  828MOL0     H11755   4.323   3.023   7.422 -0.9778 -1.4450 -2.5776
  828MOL0     H11756   4.341   3.281   7.271  0.0869  0.8182 -0.1061
  828MOL0     H11757   4.201   3.168   7.299  0.1957 -0.2734  1.0480
  828MOL0     H11758   4.344   3.334   7.518 -1.7185  1.0792  2.4507
  828MOL0     H11759   4.199   3.228   7.531 -2.2044  0.0926 -1.1470
  828MOL0     H11760   4.123   3.438   7.540 -0.0385 -0.7911  0.5442
  828MOL0     H11761   4.087   3.393   7.377  0.4692 -0.8518  0.5501
  828MOL0     H11762   4.368   2.351   7.318  0.0409 -0.8071  0.7100
  828MOL0     H11763   4.492   2.153   7.395  0.8454  0.5798  2.7831
  828MOL0     H11764   4.947   2.016   7.431  1.5308  0.1253  2.2536
  828MOL0     H11765   5.109   1.858   7.500  0.3919  0.1744  0.4096
  828MOL0     H11766   6.067   0.693   8.866  0.1785  0.9511  1.8466
  828MOL0     H11767   6.289   0.671   8.974 -1.3477 -0.2274  0.8329
  828MOL0     H11768   6.793   0.560   8.905  2.3786 -0.8381  0.3141
  828MOL0     H11769   6.983   0.549   9.071 -0.7875  0.0349  0.1242
  828MOL0     H11770   7.093   0.912   9.304 -1.2328  0.4731  1.3166
  828MOL0     H11771   6.964   0.828   9.391 -0.2889 -0.3926  0.9641
  828MOL0     H11772   7.145   0.670   9.461 -1.4414  0.6145 -1.7669
  828MOL0     H11773   7.161   0.836   9.528  2.2776  1.4772  0.0047
  828MOL0     H11774   7.308   0.796   9.268 -0.6982 -1.8205 -0.0883
  828MOL0     H11775   7.367   0.689   9.392  1.3286  0.2048 -0.2721
  828MOL0     H11776   7.386   0.899   9.546 -0.0090  3.4806  0.0261
  828MOL0     H11777   7.378   0.988   9.391 -2.9542 -1.4305 -2.7012
  828MOL0     H11778   7.771   0.815   9.426  0.2740 -2.0306  2.0333
  828MOL0     H11779   6.886   0.950   9.193 -0.8333  1.0233 -1.2248
  828MOL0     H11780   6.685   0.938   9.063  0.0408  0.5633 -0.8813
  829MOL0     O11781   8.028  10.722  10.374 -1.0516 -0.0875 -0.3662
  829MOL0     C11782   8.088  10.809  10.440  1.0142 -0.0384 -0.1150
  829MOL0     O11783   8.038  10.933  10.469 -0.1122 -0.1948  0.3811
  829MOL0     C11784   7.905  10.977  10.446 -0.3038 -0.3806 -0.4522
  829MOL0     C11785   7.807  10.917  10.364  1.2299 -0.7119  0.4380
  829MOL0     C11786   7.680  10.982  10.345 -0.8992  0.0725  1.2468
  829MOL0     C11787   7.637  11.095  10.421 -0.7058 -0.5749  0.4494
  829MOL0     O11788   7.522  11.165  10.406 -0.1963  0.4664  0.6653
  829MOL0     C11789   7.443  11.146  10.292 -0.0501  0.2099 -0.5225
  829MOL0     C11790   7.318  11.235  10.299  0.5303  0.8680 -0.0641
  829MOL0     C11791   7.217  11.198  10.192  0.6561 -0.9997 -0.1898
  829MOL0     C11792   7.082  11.281  10.187 -0.0370 -0.6854  0.2926
  829MOL0     C11793   7.002  11.247  10.056  0.1611  0.4017  0.5762
  829MOL0     C11794   6.923  11.118  10.073 -0.9481  0.6427  0.1822
  829MOL0     C11795   6.792  11.104   9.997 -1.2598  0.3691  0.6758
  829MOL0     C11796   6.698  11.000  10.060 -0.2475  0.0429 -0.2127
  829MOL0     N11797   6.587  10.978   9.968  0.6846 -0.7191  0.4128
  829MOL0     C11798   6.453  10.975  10.000 -0.2205 -0.5567  0.3876
  829MOL0     C11799   6.387  10.961   9.888  0.3874  0.3448  0.4170
  829MOL0     C11800   6.231  10.967   9.883  0.3567 -0.9425  0.1296
  829MOL0     C11801   6.181  11.044   9.760 -0.5475 -0.2481  0.1134
  829MOL0     C11802   6.032  11.075   9.775 -0.3697  0.4982 -0.4646
  829MOL0     C11803   5.988  11.170   9.667  0.4789  0.5677 -0.7088
  829MOL0     O11804   6.023  11.127   9.537  0.0405 -0.9536  0.5760
  829MOL0     C11805   5.955  11.031   9.484 -0.2423  0.3387  0.1986
  829MOL0     C11806   5.831  10.971   9.521  0.3777 -0.6740  0.6778
  829MOL0     C11807   5.784  10.857   9.465  0.0521 -0.4363  0.0976
  829MOL0     C11808   5.655  10.794   9.519  0.4842  0.1268  0.6837
  829MOL0     C11809   5.855  10.797   9.360 -0.2860  0.0586  0.2227
  829MOL0     C11810   5.817  10.676   9.290 -0.3938 -0.6882 -0.3834
  829MOL0     O11811   5.916  10.584   9.258  0.1689  0.2709 -0.0213
  829MOL0     C11812   5.881  10.451   9.231  0.0204 -0.6815  0.3301
  829MOL0     C11813   5.944  10.389   9.119  0.3468 -0.8823 -0.2455
  829MOL0     C11814   5.911  10.256   9.074  1.7741 -0.1421 -0.3362
  829MOL0     C11815   5.809  10.193   9.136  1.1445 -0.1687 -0.3559
  829MOL0     O11816   5.764  10.068   9.095  0.4560  0.0025 -0.1608
  829MOL0     C11817   5.821  10.002   8.984  0.0385  0.6255 -0.4313
  829MOL0     C11818   5.713   9.902   8.936 -0.5058 -0.0893  0.6843
  829MOL0     C11819   5.595   9.982   8.869 -0.3998  0.6024 -0.5068
  829MOL0     C11820   5.520   9.869   8.785  0.7134  0.5838  0.2178
  829MOL0     C11821   5.415   9.934   8.687  0.3694 -0.3060  0.5707
  829MOL0     C11822   5.294   9.977   8.766  1.4382  0.5539  1.0471
  829MOL0     C11823   5.179  10.023   8.673  0.4805  0.2148 -0.6248
  829MOL0     C11824   5.056  10.066   8.749  0.1927 -0.8303 -0.8968
  829MOL0    Cl11825   4.923  10.094   8.630  0.0980 -0.0256 -0.0088
  829MOL0     C11826   5.742  10.254   9.245  0.2485  0.2589 -0.1349
  829MOL0     C11827   5.769  10.385   9.287 -0.8439  0.8432 -0.5729
  829MOL0     O11828   5.698  10.668   9.260 -0.0007 -0.1195  0.3657
  829MOL0     C11829   5.974  10.859   9.324  0.0888  0.2222 -0.0230
  829MOL0     C11830   6.021  10.976   9.377 -0.7676  0.0064 -0.1224
  829MOL0     N11831   6.478  10.938   9.790 -0.1389  0.1117 -0.2288
  829MOL0     N11832   6.603  10.949   9.837  0.6090  0.3020 -0.3748
  829MOL0     C11833   7.736  11.147  10.504  0.7631 -0.8825 -0.1917
  829MOL0     C11834   7.861  11.089  10.516 -0.4330 -0.3234  0.5560
  829MOL0     C11835   8.231  10.786  10.473  0.7546  0.1069 -0.4426
  829MOL0     C11836   8.310  10.890  10.515 -0.2039  0.2234  0.4433
  829MOL0     C11837   8.437  10.871  10.552  0.2424 -0.5407 -0.1422
  829MOL0     C11838   8.505  10.750  10.524 -0.0350 -0.6652 -0.0700
  829MOL0     O11839   8.644  10.723  10.530  0.0414 -0.5196  0.2346
  829MOL0     C11840   8.727  10.816  10.599  0.0294  0.2998 -0.8880
  829MOL0     C11841   8.850  10.840  10.517  0.2679 -0.7130  0.0879
  829MOL0     C11842   8.936  10.719  10.466  0.4859  0.2920  0.1154
  829MOL0     C11843   9.070  10.744  10.399 -1.0964 -0.7010  0.5621
  829MOL0     C11844   9.131  10.620  10.358  0.1588  0.3819 -0.1113
  829MOL0     C11845   9.184  10.515  10.319  0.8146 -1.1491 -0.2579
  829MOL0     C11846   8.427  10.648  10.473 -0.8160 -0.1005  0.2117
  829MOL0     C11847   8.286  10.662  10.453 -0.3366  1.2499  0.3217
  829MOL0     H11848   7.821  10.820  10.316 -0.1817 -1.2476  1.0563
  829MOL0     H11849   7.607  10.914  10.303  1.3258 -1.3381 -0.5396
  829MOL0     H11850   7.504  11.182  10.209 -0.0653 -1.1754 -1.1590
  829MOL0     H11851   7.416  11.040  10.289  2.0915 -0.3849 -0.1924
  829MOL0     H11852   7.279  11.207  10.397  2.1737  0.4928  0.5114
  829MOL0     H11853   7.334  11.343  10.297  2.0265  0.6671 -0.0997
  829MOL0     H11854   7.263  11.219  10.095 -1.1081 -0.5919 -0.9867
  829MOL0     H11855   7.180  11.094  10.191 -1.1689 -0.4011  0.0524
  829MOL0     H11856   7.027  11.255  10.279 -0.0933 -0.1997  0.3998
  829MOL0     H11857   7.111  11.387  10.192 -0.3326 -0.5573 -0.5768
  829MOL0     H11858   6.934  11.332  10.043 -0.0045  0.3723  1.2131
  829MOL0     H11859   7.067  11.260   9.969 -1.1711 -0.2997 -0.5826
  829MOL0     H11860   6.994  11.044  10.037 -0.1712 -0.3007  3.3085
  829MOL0     H11861   6.910  11.110  10.182  1.8170  2.0102  0.6943
  829MOL0     H11862   6.745  11.203  10.001 -2.8325 -0.3633  1.1834
  829MOL0     H11863   6.818  11.087   9.892  1.4692  1.4880  1.1017
  829MOL0     H11864   6.647  11.032  10.151 -0.1433 -2.9725  1.0492
  829MOL0     H11865   6.735  10.911  10.112  1.0195  1.3548  1.1994
  829MOL0     H11866   6.406  10.977  10.098 -1.1602 -0.4561 -0.0542
  829MOL0     H11867   6.197  10.863   9.884 -1.2966 -0.4418  1.3777
  829MOL0     H11868   6.197  11.011   9.978  1.3255  0.5587 -0.1885
  829MOL0     H11869   6.193  10.983   9.669 -2.2118 -0.3580 -0.0565
  829MOL0     H11870   6.238  11.137   9.750 -1.3231  0.3728  1.2265
  829MOL0     H11871   6.021  11.115   9.876  2.0984 -0.2194  0.1472
  829MOL0     H11872   5.982  10.978   9.769  1.5436 -0.4340 -2.7828
  829MOL0     H11873   6.052  11.259   9.679 -2.5164  2.8050 -0.1124
  829MOL0     H11874   5.881  11.191   9.669  0.3369  0.0523 -2.0830
  829MOL0     H11875   5.771  11.023   9.595 -0.6176  1.8637 -1.7417
  829MOL0     H11876   5.578  10.809   9.443  1.4936 -2.4665 -1.0085
  829MOL0     H11877   5.647  10.687   9.540  0.5688  0.1281  0.7235
  829MOL0     H11878   5.624  10.841   9.612 -4.0625 -0.9857 -0.0356
  829MOL0     H11879   6.017  10.442   9.058  0.1084  1.5020  1.4206
  829MOL0     H11880   5.959  10.203   8.993  1.6692 -2.0147  0.7711
  829MOL0     H11881   5.853  10.064   8.900 -0.1486 -0.7202 -1.5278
  829MOL0     H11882   5.905   9.943   9.021 -1.2040 -1.0740 -0.2188
  829MOL0     H11883   5.762   9.851   8.852  1.4093 -0.5239  1.9722
  829MOL0     H11884   5.675   9.831   9.011  0.9513 -2.3934 -0.6083
  829MOL0     H11885   5.617  10.063   8.799 -3.5598  0.6765 -1.5694
  829MOL0     H11886   5.530  10.036   8.938 -0.3327  2.9081 -2.1392
  829MOL0     H11887   5.592   9.812   8.727  2.0394  1.0449  1.3437
  829MOL0     H11888   5.467   9.801   8.853 -1.1532  3.2943  1.6796
  829MOL0     H11889   5.378   9.858   8.617  0.4793  0.2195 -0.0684
  829MOL0     H11890   5.450  10.025   8.637 -0.3068  0.1753  0.9517
  829MOL0     H11891   5.253   9.895   8.826 -0.5036  1.7824  1.5002
  829MOL0     H11892   5.324  10.057   8.835  0.9072  1.1571  0.5977
  829MOL0     H11893   5.155   9.940   8.606  0.9796  0.5558 -1.2387
  829MOL0     H11894   5.213  10.101   8.605  1.1022  2.1354  1.7577
  829MOL0     H11895   5.071  10.154   8.812 -0.1315 -1.8821  0.7246
  829MOL0     H11896   5.023   9.984   8.813 -2.5002 -0.9823 -2.3248
  829MOL0     H11897   5.665  10.196   9.295 -0.9756  1.8627 -0.0471
  829MOL0     H11898   5.729  10.436   9.374  1.4091  2.0155 -0.1226
  829MOL0     H11899   6.035  10.811   9.248 -1.7268 -0.4974 -1.0926
  829MOL0     H11900   6.115  11.013   9.337 -0.8528 -0.2312 -0.5449
  829MOL0     H11901   7.713  11.240  10.555 -0.4069 -0.7324 -0.9653
  829MOL0     H11902   7.933  11.145  10.575 -1.3412  2.6694 -1.0173
  829MOL0     H11903   8.265  10.989  10.514  0.2088  0.4136  0.0272
  829MOL0     H11904   8.494  10.958  10.585  1.5111 -1.8531  1.2666
  829MOL0     H11905   8.678  10.907  10.634  4.6296  2.4875  0.5720
  829MOL0     H11906   8.770  10.774  10.691 -0.2513 -0.6974 -1.1947
  829MOL0     H11907   8.920  10.890  10.585  0.8360  0.4343 -1.2902
  829MOL0     H11908   8.828  10.899  10.427 -2.7584 -0.5166  0.8415
  829MOL0     H11909   8.878  10.655  10.399 -1.7633  0.1947  2.0290
  829MOL0     H11910   8.952  10.667  10.560 -0.1846  1.1115  0.6986
  829MOL0     H11911   9.146  10.785  10.467  1.8281 -0.6173 -2.4646
  829MOL0     H11912   9.069  10.814  10.315  0.7054  1.2732  2.0667
  829MOL0     H11913   9.212  10.419  10.282 -0.7593 -3.0491  3.0457
  829MOL0     H11914   8.464  10.550  10.445 -1.6087 -0.5663  0.7507
  829MOL0     H11915   8.224  10.576  10.429 -2.7041  2.4194  1.8129
  830MOL0     O11916   1.247   1.057   7.652 -0.2670  0.6915 -0.4193
  830MOL0     C11917   1.296   1.168   7.661  0.1313  0.1990 -0.0142
  830MOL0     O11918   1.224   1.288   7.656  0.2696  0.7258  0.2019
  830MOL0     C11919   1.094   1.274   7.624  0.5347 -0.4289  0.4000
  830MOL0     C11920   1.000   1.260   7.727 -0.7036 -0.9389 -0.3558
  830MOL0     C11921   0.870   1.268   7.709  0.3351  0.4696 -0.3682
  830MOL0     C11922   0.815   1.268   7.577 -1.1024 -0.4049 -0.6100
  830MOL0     O11923   0.682   1.240   7.549 -0.3063 -0.3232  1.0423
  830MOL0     C11924   0.590   1.291   7.644  0.2233 -0.5632  0.4930
  830MOL0     C11925   0.452   1.279   7.576  0.6171 -0.8266 -0.2434
  830MOL0     C11926   0.399   1.412   7.519 -0.1958  0.3225  0.1016
  830MOL0     C11927   0.261   1.402   7.457 -0.2543  0.5931 -0.9962
  830MOL0     C11928   0.192   1.530   7.409 -0.6134 -0.0174  0.2557
  830MOL0     C11929   0.135   1.624   7.517  0.4366 -0.8016  0.0277
  830MOL0     C11930   0.006   1.576   7.578  0.1027 -0.2976 -0.3138
  830MOL0     C11931  -0.123   1.616   7.495 -0.1396 -0.3115  0.4351
  830MOL0     N11932  -0.248   1.601   7.570  0.3956  0.8894  0.2528
  830MOL0     C11933  -0.373   1.584   7.514 -0.1765  0.2889 -1.6722
  830MOL0     C11934  -0.450   1.624   7.621  0.1884 -1.0583 -0.3824
  830MOL0     C11935  -0.600   1.602   7.626  0.0849  0.0792  0.1751
  830MOL0     C11936  -0.659   1.661   7.752 -1.0385  0.6578  0.5086
  830MOL0     C11937  -0.817   1.674   7.759 -0.7254 -0.4581 -0.2473
  830MOL0     C11938  -0.888   1.535   7.741 -0.5871 -0.1020  0.2584
  830MOL0     O11939  -1.024   1.539   7.786  0.2677 -0.3758  0.4833
  830MOL0     C11940  -1.126   1.596   7.713  0.3450 -0.5261  0.1812
  830MOL0     C11941  -1.103   1.635   7.577  0.2616 -0.3667 -0.2665
  830MOL0     C11942  -1.203   1.682   7.499  1.2268  0.7161  0.6239
  830MOL0     C11943  -1.174   1.711   7.348  0.1491  0.5276  0.2367
  830MOL0     C11944  -1.331   1.708   7.556  0.1198  0.4960  0.3785
  830MOL0     C11945  -1.442   1.772   7.484  0.6574 -0.3028 -0.0303
  830MOL0     O11946  -1.563   1.769   7.549  0.4808 -0.1231 -0.3813
  830MOL0     C11947  -1.683   1.819   7.492  0.6185 -0.1070 -0.7779
  830MOL0     C11948  -1.728   1.793   7.366 -0.8319  0.6406 -0.4008
  830MOL0     C11949  -1.847   1.849   7.320 -0.5242 -1.5524  0.0627
  830MOL0     C11950  -1.934   1.929   7.399 -0.5417  0.0088  1.0961
  830MOL0     O11951  -2.053   1.982   7.355 -0.3681 -0.1872 -0.3920
  830MOL0     C11952  -2.041   2.058   7.232 -0.5257  0.6089 -0.4762
  830MOL0     C11953  -2.173   2.046   7.159  0.2062  0.3598 -0.0998
  830MOL0     C11954  -2.275   2.162   7.198 -0.3955  1.1006 -0.7094
  830MOL0     C11955  -2.356   2.128   7.319  0.0526 -0.3386 -0.7638
  830MOL0     C11956  -2.498   2.187   7.319 -0.3854  0.3844  0.1301
  830MOL0     C11957  -2.591   2.084   7.244  0.4140 -0.0623 -0.0284
  830MOL0     C11958  -2.743   2.111   7.254 -0.0249  0.1279 -0.3645
  830MOL0     C11959  -2.814   1.982   7.205  0.3952  0.0746  0.3701
  830MOL0    Cl11960  -2.981   2.040   7.144 -0.2352  0.0723  0.1771
  830MOL0     C11961  -1.895   1.943   7.528 -0.6527 -1.0701  0.8678
  830MOL0     C11962  -1.777   1.887   7.571 -0.1044  0.2555  0.2151
  830MOL0     O11963  -1.426   1.819   7.368  0.7184  0.3500 -0.3364
  830MOL0     C11964  -1.354   1.667   7.688  0.2141  0.9913 -0.5797
  830MOL0     C11965  -1.250   1.603   7.768  0.2893 -0.6207 -0.7026
  830MOL0     N11966  -0.371   1.659   7.733  0.3948 -0.2349  0.2816
  830MOL0     N11967  -0.250   1.644   7.698 -0.3582  0.2213  0.3619
  830MOL0     C11968   0.906   1.283   7.466  0.1599  0.7703  0.2418
  830MOL0     C11969   1.040   1.295   7.496 -0.2282  1.2030  0.8679
  830MOL0     C11970   1.439   1.186   7.693 -0.3248 -0.3770 -0.4599
  830MOL0     C11971   1.524   1.079   7.684  0.1836  0.1641 -0.3737
  830MOL0     C11972   1.657   1.087   7.723 -1.0015 -0.4547 -0.1387
  830MOL0     C11973   1.710   1.211   7.765 -0.3884 -0.3253 -0.0196
  830MOL0     O11974   1.837   1.243   7.806  0.1655  0.5787 -0.0622
  830MOL0     C11975   1.942   1.144   7.801  0.2684  0.5222 -0.2292
  830MOL0     C11976   2.080   1.197   7.804 -0.0604  0.9400 -0.7937
  830MOL0     C11977   2.091   1.314   7.709  0.0818 -0.0621  0.1690
  830MOL0     C11978   2.238   1.341   7.662  0.1210 -0.1327  0.1815
  830MOL0     C11979   2.316   1.403   7.769  0.0166  0.7971  0.1298
  830MOL0     C11980   2.386   1.457   7.852  0.2966  0.4400  0.0486
  830MOL0     C11981   1.628   1.323   7.769  0.0289  0.8296  0.8549
  830MOL0     C11982   1.493   1.309   7.740 -0.5208 -0.3419  0.2011
  830MOL0     H11983   1.046   1.262   7.825  2.5160  2.4709 -1.6807
  830MOL0     H11984   0.808   1.285   7.796 -2.9885 -0.2458 -2.4252
  830MOL0     H11985   0.602   1.223   7.729 -0.1183 -1.7362 -0.3649
  830MOL0     H11986   0.605   1.395   7.672 -2.0874  1.3952 -4.4039
  830MOL0     H11987   0.457   1.209   7.493 -0.1543 -1.0016 -0.1443
  830MOL0     H11988   0.380   1.242   7.650 -0.1790  0.5190 -0.3102
  830MOL0     H11989   0.381   1.493   7.590  2.6601  1.9138 -0.8127
  830MOL0     H11990   0.466   1.445   7.439 -2.4866 -0.6840 -2.3877
  830MOL0     H11991   0.280   1.342   7.367 -1.0627 -0.1752 -0.6637
  830MOL0     H11992   0.193   1.355   7.527  2.4432  0.8571  2.0137
  830MOL0     H11993   0.254   1.591   7.343 -1.3903  0.5247  0.0039
  830MOL0     H11994   0.109   1.509   7.340 -1.6315  1.9546  0.7965
  830MOL0     H11995   0.207   1.653   7.594  1.8662 -2.4821 -0.6029
  830MOL0     H11996   0.121   1.720   7.467  1.4315 -0.5023  0.3162
  830MOL0     H11997   0.006   1.467   7.588  0.9806 -0.1519  1.8945
  830MOL0     H11998  -0.003   1.629   7.673 -0.2390 -0.1461 -0.4286
  830MOL0     H11999  -0.114   1.553   7.407 -0.6870 -0.0971  0.2263
  830MOL0     H12000  -0.128   1.723   7.471  1.7338 -0.5016 -1.0667
  830MOL0     H12001  -0.394   1.551   7.413 -0.4113 -5.3103 -0.0917
  830MOL0     H12002  -0.653   1.649   7.543  0.7649 -1.0456 -0.9316
  830MOL0     H12003  -0.621   1.494   7.618  0.7338 -0.1561  1.4153
  830MOL0     H12004  -0.623   1.763   7.769 -0.4456  0.8325 -1.5257
  830MOL0     H12005  -0.617   1.602   7.834  0.1287  0.5535 -0.1359
  830MOL0     H12006  -0.836   1.738   7.672 -0.7838 -0.1681 -0.0244
  830MOL0     H12007  -0.845   1.735   7.846 -0.8535  1.9891 -1.9041
  830MOL0     H12008  -0.839   1.466   7.810 -0.5634  2.6264  3.2463
  830MOL0     H12009  -0.888   1.498   7.638 -2.4309  3.5805 -1.2619
  830MOL0     H12010  -1.011   1.608   7.527 -1.0974 -0.9981 -2.6154
  830MOL0     H12011  -1.185   1.820   7.347 -0.7488  0.4563  0.5335
  830MOL0     H12012  -1.076   1.691   7.305 -0.9508 -2.0423 -1.2936
  830MOL0     H12013  -1.253   1.670   7.285 -0.1049 -0.3147  1.0808
  830MOL0     H12014  -1.667   1.741   7.292  0.8394 -0.3855  1.5913
  830MOL0     H12015  -1.882   1.835   7.219  2.1322 -1.3449 -0.9632
  830MOL0     H12016  -2.001   2.159   7.244  2.1120 -0.5928  1.8293
  830MOL0     H12017  -1.969   2.009   7.166 -0.2617  0.4894 -0.0983
  830MOL0     H12018  -2.152   2.060   7.052  1.0500  0.7784  0.1106
  830MOL0     H12019  -2.220   1.948   7.174 -1.0032  0.8546 -0.5154
  830MOL0     H12020  -2.348   2.191   7.121 -0.2711  1.9835 -0.5129
  830MOL0     H12021  -2.219   2.251   7.227 -2.5820  2.4341 -0.3049
  830MOL0     H12022  -2.368   2.020   7.328 -1.9193  0.0592  4.9665
  830MOL0     H12023  -2.298   2.160   7.406  0.7915 -0.6778 -1.1244
  830MOL0     H12024  -2.510   2.288   7.278  1.0427  0.1158 -1.0182
  830MOL0     H12025  -2.531   2.203   7.422 -0.4816 -0.5543  0.2536
  830MOL0     H12026  -2.568   2.070   7.138  5.7751 -1.3638  1.0057
  830MOL0     H12027  -2.569   1.985   7.284 -1.7412 -0.9728 -0.9459
  830MOL0     H12028  -2.780   2.193   7.193 -2.3106 -0.6169 -0.0661
  830MOL0     H12029  -2.792   2.117   7.352 -4.7447  0.3564 -2.4615
  830MOL0     H12030  -2.819   1.903   7.280 -5.1545  0.6712  1.0995
  830MOL0     H12031  -2.761   1.951   7.115  1.6129 -0.1119  1.1321
  830MOL0     H12032  -1.973   1.997   7.581 -2.0165  1.2986 -3.1238
  830MOL0     H12033  -1.746   1.909   7.673 -0.4097  1.1559  0.1263
  830MOL0     H12034  -1.447   1.669   7.744 -0.7986  2.0109 -2.2437
  830MOL0     H12035  -1.274   1.566   7.867  0.0028 -1.6069 -1.1228
  830MOL0     H12036   0.868   1.284   7.364 -0.8077 -0.0355  0.5784
  830MOL0     H12037   1.107   1.301   7.410  2.7383 -0.4510  2.9064
  830MOL0     H12038   1.486   0.982   7.653  0.3981  0.2142 -0.8011
  830MOL0     H12039   1.718   0.998   7.729 -0.9755 -0.3532  1.7638
  830MOL0     H12040   1.941   1.077   7.887  0.1378  0.0653 -0.5837
  830MOL0     H12041   1.928   1.089   7.707 -1.6337  2.2819 -1.0495
  830MOL0     H12042   2.147   1.115   7.779 -0.7478 -0.4127  1.5381
  830MOL0     H12043   2.092   1.230   7.907 -0.3494  0.3444 -0.5622
  830MOL0     H12044   2.045   1.403   7.752 -0.9660 -1.8060  2.9791
  830MOL0     H12045   2.035   1.287   7.619  0.2135 -3.5890  1.0033
  830MOL0     H12046   2.243   1.418   7.584 -0.4735 -2.0410 -1.8476
  830MOL0     H12047   2.281   1.252   7.617 -1.5017 -0.0333 -1.7159
  830MOL0     H12048   2.436   1.513   7.929 -0.8622 -1.7262  2.5547
  830MOL0     H12049   1.666   1.421   7.798  0.0710  1.2904 -0.6687
  830MOL0     H12050   1.427   1.395   7.752  0.0806  0.4660 -1.8181
  831MOL0     O12051   9.843   6.661   9.742 -0.2284  0.7835 -0.5407
  831MOL0     C12052   9.874   6.668   9.863  0.8977  0.0172 -0.8846
  831MOL0     O12053   9.786   6.634   9.967 -0.2995 -0.0442  0.1282
  831MOL0     C12054   9.670   6.577   9.927 -0.0186  0.3108 -0.1197
  831MOL0     C12055   9.569   6.647   9.863  0.2844  0.0434  0.4586
  831MOL0     C12056   9.445   6.576   9.837  0.7199 -0.0796 -0.9474
  831MOL0     C12057   9.422   6.448   9.882 -0.4811  0.2312 -0.0618
  831MOL0     O12058   9.305   6.382   9.870 -0.3514 -0.5147  0.7586
  831MOL0     C12059   9.181   6.450   9.884  0.2610  0.7418  0.1485
  831MOL0     C12060   9.072   6.342   9.884  0.2286  0.7707  0.9074
  831MOL0     C12061   8.940   6.405   9.899  0.3504 -0.1346  0.6949
  831MOL0     C12062   8.816   6.314   9.911  0.5913  0.0631  0.0555
  831MOL0     C12063   8.688   6.394   9.897  0.3381  0.6820  0.3110
  831MOL0     C12064   8.569   6.301   9.872 -0.2743  0.0692 -0.1099
  831MOL0     C12065   8.460   6.374   9.789  0.1437 -0.8123  0.1313
  831MOL0     C12066   8.317   6.315   9.817  0.0506  0.1500 -0.5764
  831MOL0     N12067   8.214   6.380   9.730 -0.1590 -0.1379 -0.6258
  831MOL0     C12068   8.230   6.405   9.597  0.3498  0.3469  0.4188
  831MOL0     C12069   8.116   6.472   9.565  0.3176  0.0077 -0.3305
  831MOL0     C12070   8.098   6.526   9.425  0.4092  0.7864  0.5110
  831MOL0     C12071   8.023   6.660   9.420  0.6521 -0.2820 -0.1933
  831MOL0     C12072   8.005   6.714   9.286 -0.0120  0.3282 -0.1064
  831MOL0     C12073   7.876   6.671   9.223  0.1640 -0.5889 -0.1256
  831MOL0     O12074   7.763   6.740   9.273 -0.2771 -0.6307  0.3943
  831MOL0     C12075   7.648   6.736   9.205  0.2096  0.0420 -0.0783
  831MOL0     C12076   7.535   6.713   9.284 -0.8397 -0.3948 -0.4233
  831MOL0     C12077   7.407   6.703   9.230 -0.2306 -0.1837  0.8176
  831MOL0     C12078   7.305   6.638   9.320 -0.1829  0.9896 -0.0228
  831MOL0     C12079   7.384   6.734   9.092 -0.7848  0.0998 -0.1209
  831MOL0     C12080   7.255   6.712   9.018 -0.1679  0.3192  0.4606
  831MOL0     O12081   7.139   6.704   9.093 -0.8312  0.5340  0.3411
  831MOL0     C12082   7.022   6.756   9.041  0.0684 -0.5544  0.3203
  831MOL0     C12083   6.900   6.699   9.078  0.2966  0.4557 -0.3353
  831MOL0     C12084   6.778   6.748   9.031 -0.6825  0.6952  0.4650
  831MOL0     C12085   6.779   6.858   8.948  0.2591 -0.3622  0.7750
  831MOL0     O12086   6.663   6.917   8.905 -0.1001  0.3423  1.3200
  831MOL0     C12087   6.540   6.902   8.980 -0.8279 -0.0233  0.5340
  831MOL0     C12088   6.462   7.032   8.977  0.2699 -0.8159  0.0417
  831MOL0     C12089   6.329   7.019   9.061 -0.3216 -0.2420 -0.1977
  831MOL0     C12090   6.295   7.146   9.136  0.6684  0.3579 -0.3982
  831MOL0     C12091   6.195   7.138   9.260  0.2813 -0.6199 -0.1238
  831MOL0     C12092   6.066   7.070   9.227  0.1533 -0.3845 -0.3943
  831MOL0     C12093   5.976   7.165   9.156  1.0926  0.1205 -0.3505
  831MOL0     C12094   5.821   7.126   9.172  0.3248 -0.3343  0.1834
  831MOL0    Cl12095   5.708   7.261   9.153 -0.3041 -0.3993  0.0881
  831MOL0     C12096   6.902   6.919   8.910  0.8160 -0.1898  0.2395
  831MOL0     C12097   7.025   6.871   8.954 -0.3084  0.4098 -0.5226
  831MOL0     O12098   7.257   6.714   8.896  0.1505 -0.1951 -0.1349
  831MOL0     C12099   7.493   6.768   9.016 -0.9074  0.6260 -0.3788
  831MOL0     C12100   7.623   6.772   9.068  0.1037  0.2650  0.4490
  831MOL0     N12101   8.044   6.498   9.684 -0.6091  0.5285 -0.0858
  831MOL0     N12102   8.103   6.435   9.780  0.6611 -0.6336  0.3162
  831MOL0     C12103   9.531   6.386   9.948  0.7174 -0.2794 -0.1392
  831MOL0     C12104   9.652   6.444   9.968 -1.2031 -0.0430  0.0263
  831MOL0     C12105   9.992   6.735   9.898 -0.0869  0.1415 -0.6637
  831MOL0     C12106  10.028   6.751  10.035  0.7141 -0.9504 -0.0210
  831MOL0     C12107  10.146   6.812  10.064  0.5826  0.0492  0.0194
  831MOL0     C12108  10.235   6.863   9.966 -0.1406 -0.2604  0.7704
  831MOL0     O12109  10.359   6.912   9.994  0.0588 -0.7411  0.1792
  831MOL0     C12110  10.418   6.879  10.124 -0.5018 -0.1436  0.3150
  831MOL0     C12111  10.556   6.942  10.141 -0.2375  0.4032 -0.6739
  831MOL0     C12112  10.660   6.874  10.055 -0.2960 -0.2015  0.1959
  831MOL0     C12113  10.804   6.878  10.115  0.5603 -0.3790  0.6258
  831MOL0     C12114  10.856   7.007  10.150 -0.3787 -0.4373  0.0174
  831MOL0     C12115  10.913   7.116  10.166 -0.6487 -0.3768  0.2683
  831MOL0     C12116  10.189   6.860   9.830 -0.1931 -0.5417  0.6041
  831MOL0     C12117  10.065   6.794   9.794 -0.7740 -0.3764  0.2537
  831MOL0     H12118   9.570   6.755   9.854  1.2887  0.1726  1.8274
  831MOL0     H12119   9.368   6.634   9.788  0.5213  0.1612 -0.3669
  831MOL0     H12120   9.190   6.523   9.965  1.7216  0.6279  0.1138
  831MOL0     H12121   9.161   6.505   9.791  1.5402 -0.3207 -0.8055
  831MOL0     H12122   9.078   6.284   9.792 -0.3281 -2.3735  2.6907
  831MOL0     H12123   9.096   6.268   9.961 -0.6043 -2.2740 -1.5762
  831MOL0     H12124   8.927   6.478   9.980  2.1951  0.9237  0.1027
  831MOL0     H12125   8.928   6.465   9.808 -0.0204 -1.1579  0.0656
  831MOL0     H12126   8.810   6.240   9.831 -0.5857 -1.6771  1.6541
  831MOL0     H12127   8.810   6.264  10.009 -2.5292  2.5097  1.2929
  831MOL0     H12128   8.664   6.462   9.978 -0.1056  2.1831 -1.0272
  831MOL0     H12129   8.695   6.439   9.798  0.7466 -2.1211 -1.0556
  831MOL0     H12130   8.595   6.209   9.821  2.3502  1.2173 -1.0235
  831MOL0     H12131   8.534   6.271   9.971  1.7518 -3.5114 -0.3294
  831MOL0     H12132   8.465   6.479   9.819  0.3241 -0.5690 -0.7183
  831MOL0     H12133   8.472   6.356   9.682 -3.2695  1.7016 -0.8419
  831MOL0     H12134   8.291   6.338   9.920  2.1833 -0.5731  0.1803
  831MOL0     H12135   8.313   6.206   9.805 -0.4552 -0.1167  1.6862
  831MOL0     H12136   8.315   6.375   9.537  0.4337 -1.3642  1.3122
  831MOL0     H12137   8.195   6.538   9.376  0.1822 -0.4514 -0.2736
  831MOL0     H12138   8.040   6.458   9.363 -1.8737  3.2428 -0.2374
  831MOL0     H12139   8.093   6.720   9.478 -0.4950 -0.7992  1.8044
  831MOL0     H12140   7.932   6.655   9.479  2.4048  0.5636  2.7635
  831MOL0     H12141   8.089   6.677   9.226 -0.5596 -1.5236  0.1895
  831MOL0     H12142   8.014   6.823   9.286 -1.7787  0.5050  0.4770
  831MOL0     H12143   7.859   6.565   9.241  0.1583 -0.6093 -0.2490
  831MOL0     H12144   7.879   6.684   9.114  1.3251 -1.4991 -0.2194
  831MOL0     H12145   7.554   6.694   9.389 -0.5275  2.6095  0.1640
  831MOL0     H12146   7.241   6.711   9.370 -1.4614 -0.9438  1.2828
  831MOL0     H12147   7.245   6.566   9.264  0.0488  1.8887 -1.5177
  831MOL0     H12148   7.349   6.582   9.403 -1.2106  2.3788  1.5047
  831MOL0     H12149   6.920   6.615   9.142  1.9256  0.5599 -0.6691
  831MOL0     H12150   6.691   6.684   9.034 -0.8454  0.7982 -1.1889
  831MOL0     H12151   6.481   6.826   8.928 -0.4037 -0.6388  0.9559
  831MOL0     H12152   6.565   6.885   9.085  0.2615  3.1153  0.9049
  831MOL0     H12153   6.521   7.108   9.029 -0.4508 -0.3785  0.2410
  831MOL0     H12154   6.441   7.069   8.877 -2.9253 -1.2895  0.4199
  831MOL0     H12155   6.350   6.933   9.126  1.1149 -0.7702 -1.2974
  831MOL0     H12156   6.257   6.992   8.984  0.8628 -1.4378 -0.9312
  831MOL0     H12157   6.384   7.198   9.172  1.7569 -1.2102 -0.7431
  831MOL0     H12158   6.251   7.212   9.060  1.2982  1.9705  0.5768
  831MOL0     H12159   6.187   7.229   9.319  2.2788 -0.5951  0.1749
  831MOL0     H12160   6.250   7.075   9.330  0.0904  0.4199  0.9957
  831MOL0     H12161   6.089   6.983   9.164 -3.2726 -1.0840 -0.8799
  831MOL0     H12162   6.023   7.036   9.322 -0.1145  0.6423 -0.1334
  831MOL0     H12163   5.995   7.178   9.049 -2.5844  1.4256 -1.0046
  831MOL0     H12164   5.987   7.262   9.205 -1.4135 -0.0439  0.7229
  831MOL0     H12165   5.810   7.084   9.272 -0.3289  3.5101  1.8839
  831MOL0     H12166   5.786   7.053   9.097 -0.0141 -0.5079  0.5082
  831MOL0     H12167   6.905   7.011   8.853  3.6300  0.1557  0.8086
  831MOL0     H12168   7.119   6.920   8.929  1.0758 -2.8727 -2.3592
  831MOL0     H12169   7.482   6.797   8.912  1.2265 -0.8449 -1.0807
  831MOL0     H12170   7.700   6.807   8.999  0.7446 -1.6039  0.1409
  831MOL0     H12171   9.520   6.285   9.986  0.0886 -0.4429 -0.7208
  831MOL0     H12172   9.713   6.383  10.034 -1.3198 -0.1832  0.0077
  831MOL0     H12173   9.962   6.717  10.115  1.7648 -0.2889  1.1534
  831MOL0     H12174  10.167   6.806  10.170  3.4805  1.6460 -0.3711
  831MOL0     H12175  10.357   6.904  10.211  0.3025  0.2575  0.7690
  831MOL0     H12176  10.439   6.771  10.127  1.0602  0.1578  1.0390
  831MOL0     H12177  10.589   6.918  10.242  0.2425 -1.8379 -1.3012
  831MOL0     H12178  10.540   7.049  10.124  1.7510  1.0963  1.3626
  831MOL0     H12179  10.647   6.923   9.958 -3.1583 -0.8468  0.1715
  831MOL0     H12180  10.647   6.766  10.043 -0.7356  0.0737 -2.3715
  831MOL0     H12181  10.877   6.818  10.061  1.7458 -0.2644  2.0342
  831MOL0     H12182  10.797   6.833  10.215  0.6980 -0.9605  0.3755
  831MOL0     H12183  10.974   7.203  10.179  1.0777 -1.7103  1.5464
  831MOL0     H12184  10.250   6.905   9.752  0.4525 -0.8748  0.9127
  831MOL0     H12185  10.028   6.799   9.693 -0.7709 -1.7864  0.1622
  832MOL0     O12186   2.634   8.947   6.339  0.6681  0.2435 -0.1710
  832MOL0     C12187   2.701   8.864   6.396 -1.2217 -0.2050 -0.4168
  832MOL0     O12188   2.691   8.732   6.377  0.7832 -0.0897  0.3903
  832MOL0     C12189   2.576   8.687   6.311 -0.5634  0.1660  0.4578
  832MOL0     C12190   2.450   8.740   6.325  0.2411 -0.2295 -0.1730
  832MOL0     C12191   2.333   8.700   6.262 -0.0199 -0.4181 -0.5879
  832MOL0     C12192   2.344   8.583   6.183  0.3966  0.2526 -0.4394
  832MOL0     O12193   2.228   8.553   6.130  0.2116 -0.0419 -0.0245
  832MOL0     C12194   2.220   8.510   5.997  0.6379 -0.2686 -0.5690
  832MOL0     C12195   2.070   8.484   5.956  0.3401 -0.9495  0.1226
  832MOL0     C12196   2.041   8.334   5.949 -0.0331 -0.6940 -0.6864
  832MOL0     C12197   1.883   8.313   5.927  0.3121  0.8512  0.2450
  832MOL0     C12198   1.853   8.168   5.894  0.3963  0.2322  0.8367
  832MOL0     C12199   1.712   8.152   5.833 -1.6898  0.1568 -0.2368
  832MOL0     C12200   1.660   8.009   5.844  0.6391 -0.2234 -0.1914
  832MOL0     C12201   1.531   7.988   5.769  0.3295 -0.2405  0.6176
  832MOL0     N12202   1.421   8.072   5.826  0.2907 -0.5977 -0.1043
  832MOL0     C12203   1.328   8.138   5.753  0.5170 -0.9937 -0.2251
  832MOL0     C12204   1.250   8.209   5.843  0.9528  0.2387  0.6548
  832MOL0     C12205   1.138   8.305   5.808  0.1333 -0.3481  0.8304
  832MOL0     C12206   0.999   8.240   5.814 -0.4195  0.2589 -0.1318
  832MOL0     C12207   0.889   8.338   5.784 -0.7797  0.3301 -0.4529
  832MOL0     C12208   0.745   8.295   5.813  1.2728  0.5935  0.3445
  832MOL0     O12209   0.676   8.420   5.793  0.1976 -0.5698  0.0203
  832MOL0     C12210   0.543   8.405   5.807  0.4371 -0.2292 -0.5972
  832MOL0     C12211   0.466   8.287   5.839 -0.5654 -0.7812 -0.6567
  832MOL0     C12212   0.332   8.295   5.846  0.8160  0.5323  0.4275
  832MOL0     C12213   0.245   8.166   5.863  0.1695  0.1638  0.0094
  832MOL0     C12214   0.258   8.415   5.830  0.2501  0.8906  0.2938
  832MOL0     C12215   0.117   8.423   5.825  0.4268  0.7777 -0.1582
  832MOL0     O12216   0.048   8.422   5.942  0.3350  0.0305  0.0877
  832MOL0     C12217  -0.094   8.427   5.933  0.5030 -0.4492  0.3520
  832MOL0     C12218  -0.164   8.333   5.848  0.1811 -0.3598  0.2853
  832MOL0     C12219  -0.300   8.335   5.849 -0.2793  0.1828  0.7522
  832MOL0     C12220  -0.376   8.428   5.924 -0.1461 -0.7772 -0.2363
  832MOL0     O12221  -0.512   8.415   5.928 -0.3584  0.5961  0.8555
  832MOL0     C12222  -0.577   8.479   6.036  0.1816 -0.4908  0.2969
  832MOL0     C12223  -0.727   8.466   6.045 -0.5683  0.2076  0.9949
  832MOL0     C12224  -0.780   8.585   6.126  0.2397 -0.6683  0.0861
  832MOL0     C12225  -0.939   8.603   6.125 -0.1395  0.3490 -1.0631
  832MOL0     C12226  -1.018   8.472   6.160 -0.2258  0.0700 -0.4086
  832MOL0     C12227  -1.171   8.489   6.164 -0.7997  0.5783 -0.1888
  832MOL0     C12228  -1.246   8.354   6.144 -0.2110  0.0442  0.2422
  832MOL0     C12229  -1.393   8.375   6.126 -0.2500  0.2724  0.5693
  832MOL0    Cl12230  -1.426   8.485   5.994  0.2285  0.1378 -0.2968
  832MOL0     C12231  -0.302   8.518   6.006  0.5414 -0.4985 -1.2717
  832MOL0     C12232  -0.162   8.516   6.008  0.1668 -0.0270 -0.4190
  832MOL0     O12233   0.072   8.430   5.713  0.0471  0.4191 -0.2347
  832MOL0     C12234   0.340   8.533   5.809 -0.0564  0.3148 -0.1931
  832MOL0     C12235   0.479   8.528   5.801  0.0413 -0.2777 -0.3357
  832MOL0     N12236   1.301   8.196   5.963  0.3330 -0.4199  0.1316
  832MOL0     N12237   1.401   8.112   5.953 -0.7152  0.2395  0.0913
  832MOL0     C12238   2.466   8.524   6.163 -0.5211  0.1910 -0.6605
  832MOL0     C12239   2.582   8.574   6.228 -1.1039  0.7922  0.5633
  832MOL0     C12240   2.796   8.914   6.500  0.9696 -0.2988 -0.1608
  832MOL0     C12241   2.790   9.055   6.541  0.2882  0.0473 -0.0673
  832MOL0     C12242   2.879   9.101   6.639 -0.6362 -0.7824  0.4008
  832MOL0     C12243   2.975   9.029   6.696 -1.2302  0.2871 -0.1027
  832MOL0     O12244   3.061   9.074   6.799 -0.5594  0.2166  0.0926
  832MOL0     C12245   3.016   9.065   6.934 -0.1672  0.6860  0.2050
  832MOL0     C12246   2.973   9.199   6.978  0.5446  0.4120  0.6753
  832MOL0     C12247   3.093   9.295   6.987  0.8338 -0.3575 -0.2967
  832MOL0     C12248   3.053   9.433   7.052  0.4151 -0.4353  1.5056
  832MOL0     C12249   3.171   9.500   7.101  0.7346  0.1980  0.2338
  832MOL0     C12250   3.270   9.548   7.148  0.5389 -0.7342 -0.4744
  832MOL0     C12251   2.978   8.894   6.662  1.1668  0.0918 -0.0642
  832MOL0     C12252   2.894   8.833   6.566 -0.8521 -0.1677  0.3565
  832MOL0     H12253   2.428   8.831   6.380 -3.3362 -1.8944  1.4507
  832MOL0     H12254   2.235   8.745   6.276 -0.0729 -0.1699 -1.6385
  832MOL0     H12255   2.267   8.590   5.939  0.9188 -0.5011 -0.6619
  832MOL0     H12256   2.279   8.420   5.977  0.2922 -0.3913 -1.0471
  832MOL0     H12257   2.011   8.538   6.030  2.3505 -3.8537  4.2252
  832MOL0     H12258   2.046   8.526   5.858 -1.9785 -1.9923  0.1787
  832MOL0     H12259   2.090   8.287   5.863 -0.0709 -3.0066  0.4831
  832MOL0     H12260   2.077   8.285   6.040 -1.3557 -1.4177 -0.5177
  832MOL0     H12261   1.818   8.355   6.005  1.6799  1.7041  0.9752
  832MOL0     H12262   1.855   8.373   5.840  0.0598  1.7275  0.9151
  832MOL0     H12263   1.917   8.122   5.817  0.4748 -1.2116  1.7125
  832MOL0     H12264   1.874   8.097   5.975 -0.1344 -0.3262  0.4909
  832MOL0     H12265   1.638   8.214   5.885 -0.6799 -0.3071  1.8695
  832MOL0     H12266   1.726   8.187   5.730 -0.0998 -0.5078 -0.2719
  832MOL0     H12267   1.728   7.939   5.795  1.7639  1.7403 -1.5481
  832MOL0     H12268   1.644   7.974   5.946 -4.0301  1.2981 -0.1702
  832MOL0     H12269   1.499   7.885   5.789 -0.0718 -0.8987 -2.8560
  832MOL0     H12270   1.537   8.005   5.661 -1.3972 -2.2604  0.1230
  832MOL0     H12271   1.314   8.128   5.646  0.6829 -0.1489 -0.3373
  832MOL0     H12272   1.164   8.379   5.885 -3.9682  0.4822  1.6304
  832MOL0     H12273   1.159   8.342   5.708  1.0139 -2.1419  0.3083
  832MOL0     H12274   0.978   8.195   5.911 -0.6935  1.2615  0.2857
  832MOL0     H12275   0.995   8.161   5.738  2.3635  0.7728 -0.9546
  832MOL0     H12276   0.887   8.375   5.681  1.2286  1.3918 -0.1500
  832MOL0     H12277   0.905   8.426   5.848  2.3099  0.3646 -1.1382
  832MOL0     H12278   0.734   8.255   5.914  2.6388  0.2303  0.3633
  832MOL0     H12279   0.710   8.214   5.749 -0.2213  0.1973  1.5978
  832MOL0     H12280   0.518   8.192   5.844  0.8464 -0.0606 -1.1610
  832MOL0     H12281   0.311   8.079   5.859  0.3674  0.1843  1.8793
  832MOL0     H12282   0.204   8.163   5.964  0.6322  0.2605  0.2020
  832MOL0     H12283   0.169   8.145   5.787 -2.2083  0.9210  2.0507
  832MOL0     H12284  -0.111   8.253   5.797  0.0417 -0.6233  0.5526
  832MOL0     H12285  -0.353   8.255   5.799 -0.5319  1.4183 -1.0343
  832MOL0     H12286  -0.531   8.460   6.133 -2.1300 -0.4844  1.4610
  832MOL0     H12287  -0.559   8.585   6.018 -4.4553  0.9308  2.4048
  832MOL0     H12288  -0.765   8.469   5.943 -0.9317 -2.7824  0.9413
  832MOL0     H12289  -0.761   8.376   6.098 -2.1293  0.5688  0.6506
  832MOL0     H12290  -0.742   8.679   6.085  0.6714 -1.5388 -1.5791
  832MOL0     H12291  -0.734   8.580   6.225  0.2620  0.5911  0.1676
  832MOL0     H12292  -0.975   8.681   6.193 -0.0378  2.4739 -3.2618
  832MOL0     H12293  -0.977   8.636   6.027 -2.2641  2.2054  0.2987
  832MOL0     H12294  -0.985   8.430   6.256 -0.5400  2.4894  0.8264
  832MOL0     H12295  -1.002   8.400   6.079 -0.3481 -0.9176  0.4060
  832MOL0     H12296  -1.202   8.539   6.255 -0.3262  0.6920 -0.0865
  832MOL0     H12297  -1.196   8.551   6.077  2.4018  1.1572 -0.8283
  832MOL0     H12298  -1.218   8.292   6.229  3.2110  2.3140  0.9613
  832MOL0     H12299  -1.204   8.305   6.055  1.0189  2.2784 -0.5090
  832MOL0     H12300  -1.424   8.430   6.216  1.4075  0.2306  1.1862
  832MOL0     H12301  -1.452   8.284   6.110  0.8853 -0.6038  1.2731
  832MOL0     H12302  -0.345   8.599   6.062  1.3980 -0.6947 -0.2948
  832MOL0     H12303  -0.105   8.569   6.083 -0.9572 -1.0239  1.2002
  832MOL0     H12304   0.288   8.628   5.813 -0.4744  0.0488  2.2747
  832MOL0     H12305   0.546   8.613   5.791 -0.3226 -0.2791 -3.6475
  832MOL0     H12306   2.464   8.438   6.096 -2.8666 -0.8553  0.6674
  832MOL0     H12307   2.681   8.529   6.222 -0.7940  1.3013  1.5964
  832MOL0     H12308   2.726   9.116   6.477  1.5260  0.8024 -0.6281
  832MOL0     H12309   2.882   9.205   6.672 -1.2648 -1.3342  2.2881
  832MOL0     H12310   2.935   8.993   6.951  1.0632 -1.1985 -1.3582
  832MOL0     H12311   3.097   9.036   7.002  0.6543  0.9536 -0.6408
  832MOL0     H12312   2.919   9.184   7.072  3.0772 -6.6305  1.5997
  832MOL0     H12313   2.896   9.239   6.912  1.8205  0.2161 -1.0067
  832MOL0     H12314   3.126   9.325   6.887 -3.1850 -1.0562 -2.0292
  832MOL0     H12315   3.175   9.253   7.046  1.0735 -0.6325 -0.8162
  832MOL0     H12316   2.987   9.414   7.137 -2.8664  0.4390 -0.6623
  832MOL0     H12317   3.006   9.504   6.983  4.3857  1.0208  0.0012
  832MOL0     H12318   3.358   9.599   7.182  0.2978  0.5943 -1.7688
  832MOL0     H12319   3.051   8.830   6.711  0.7727 -1.2011 -1.1284
  832MOL0     H12320   2.907   8.728   6.543  4.7447  0.1423  0.7051
  833MOL0     O12321   6.967   7.133   1.891 -0.2471  0.6798  0.1915
  833MOL0     C12322   6.939   7.141   2.008  0.0977  0.1516  0.3429
  833MOL0     O12323   6.814   7.116   2.056  0.2116 -0.6480  0.2211
  833MOL0     C12324   6.703   7.097   1.979 -0.1539 -0.3742 -0.3200
  833MOL0     C12325   6.690   7.122   1.840 -0.4295  0.1699 -0.2469
  833MOL0     C12326   6.570   7.090   1.777 -0.4340 -0.9438  0.1942
  833MOL0     C12327   6.467   7.042   1.844  0.8207  0.9684 -0.6608
  833MOL0     O12328   6.353   7.007   1.784  0.1970 -0.5904 -0.3616
  833MOL0     C12329   6.242   7.086   1.819 -0.2797 -0.6226  0.1367
  833MOL0     C12330   6.124   7.050   1.739 -0.1332  0.0466  0.4335
  833MOL0     C12331   6.000   7.045   1.830 -0.4684 -0.5413  0.1530
  833MOL0     C12332   5.885   6.983   1.753  0.3002 -0.3251  0.2472
  833MOL0     C12333   5.756   6.984   1.838 -0.4668  0.6467 -0.4941
  833MOL0     C12334   5.688   7.111   1.856  0.7176  0.3638  0.3784
  833MOL0     C12335   5.579   7.089   1.963  0.8043 -0.4427  0.2721
  833MOL0     C12336   5.528   7.233   2.014 -0.6396  0.0700  0.5005
  833MOL0     N12337   5.418   7.214   2.108 -0.0200  0.8325  0.6670
  833MOL0     C12338   5.308   7.295   2.104  0.1592 -0.4791 -0.1106
  833MOL0     C12339   5.226   7.262   2.209 -0.6534  0.5507  0.0325
  833MOL0     C12340   5.085   7.316   2.243 -1.2045 -0.5134 -0.0237
  833MOL0     C12341   5.071   7.469   2.246 -0.3451 -0.4423 -0.1866
  833MOL0     C12342   4.956   7.516   2.336 -0.6008  0.4894  0.2483
  833MOL0     C12343   4.820   7.449   2.311 -0.8280  0.7989 -0.4658
  833MOL0     O12344   4.779   7.484   2.180  0.0643  0.8227 -0.5480
  833MOL0     C12345   4.649   7.436   2.140 -0.3630  0.0883  0.2706
  833MOL0     C12346   4.548   7.387   2.228  0.3639  0.2205 -0.1735
  833MOL0     C12347   4.427   7.335   2.177  0.2911  0.1747  0.0612
  833MOL0     C12348   4.352   7.248   2.270 -0.1341 -0.1170  0.2719
  833MOL0     C12349   4.379   7.353   2.045 -2.2902 -0.1434  0.4681
  833MOL0     C12350   4.246   7.326   2.003  0.7437 -0.4643  0.3888
  833MOL0     O12351   4.200   7.413   1.899  0.1704  0.8218 -0.2756
  833MOL0     C12352   4.074   7.396   1.842  0.5196 -0.0947 -0.5433
  833MOL0     C12353   3.960   7.366   1.923  0.3024 -0.8307  0.0591
  833MOL0     C12354   3.829   7.339   1.862  0.4829  0.4094  0.2063
  833MOL0     C12355   3.812   7.386   1.727  0.7737  0.2792  0.0634
  833MOL0     O12356   3.690   7.374   1.663 -0.1650  0.3594  0.4427
  833MOL0     C12357   3.639   7.503   1.630  0.2107  0.4443  0.2820
  833MOL0     C12358   3.503   7.510   1.560  0.3269 -0.6434 -0.7989
  833MOL0     C12359   3.399   7.419   1.636  0.0743  0.3166 -0.1831
  833MOL0     C12360   3.327   7.477   1.754 -0.2878  1.1107 -0.4822
  833MOL0     C12361   3.203   7.391   1.786 -0.3971  0.9516 -1.0631
  833MOL0     C12362   3.117   7.437   1.907 -0.3539  0.0831 -1.1166
  833MOL0     C12363   2.994   7.351   1.919 -0.5075 -0.2887  0.8426
  833MOL0     C12364   2.930   7.349   2.052 -0.2992  0.0948 -0.8012
  833MOL0    Cl12365   3.037   7.348   2.194  0.1512 -0.1155  0.1638
  833MOL0     C12366   3.921   7.435   1.655  0.6419 -0.7168 -0.3213
  833MOL0     C12367   4.049   7.435   1.711  0.3289  0.0255  0.3059
  833MOL0     O12368   4.188   7.220   2.035 -0.2842  0.0126 -1.0530
  833MOL0     C12369   4.481   7.419   1.965  0.7773 -0.0059  0.3199
  833MOL0     C12370   4.606   7.445   2.012  0.1242  0.1663 -0.0103
  833MOL0     N12371   5.295   7.168   2.275  0.4493 -0.4282 -0.6411
  833MOL0     N12372   5.413   7.140   2.224  0.7003 -0.1763 -0.1403
  833MOL0     C12373   6.475   7.022   1.981  0.5140  0.4939  0.1002
  833MOL0     C12374   6.594   7.049   2.046  0.3267  0.1328 -0.6737
  833MOL0     C12375   7.053   7.182   2.101 -0.0317 -0.2540 -0.1321
  833MOL0     C12376   7.164   7.257   2.060  0.1795 -0.2002  0.4539
  833MOL0     C12377   7.269   7.294   2.144  0.0805 -0.1518  0.0460
  833MOL0     C12378   7.261   7.257   2.283 -0.6955 -0.1794  0.1018
  833MOL0     O12379   7.360   7.317   2.356  1.4207 -0.3951 -0.8017
  833MOL0     C12380   7.408   7.255   2.471  0.7601  0.6211 -0.1717
  833MOL0     C12381   7.375   7.347   2.597  0.3567 -0.3287  0.3885
  833MOL0     C12382   7.232   7.408   2.601  0.0551  0.0083 -0.4450
  833MOL0     C12383   7.207   7.503   2.723  0.9012  0.0013  0.2160
  833MOL0     C12384   7.185   7.423   2.848  0.4319  0.1346 -0.7441
  833MOL0     C12385   7.146   7.352   2.942 -0.0558 -0.2309  0.0484
  833MOL0     C12386   7.144   7.190   2.329 -0.8558 -1.0606 -0.0984
  833MOL0     C12387   7.046   7.155   2.238  0.3943  0.2402  0.7504
  833MOL0     H12388   6.763   7.167   1.773  0.6990 -1.3490 -0.1090
  833MOL0     H12389   6.559   7.097   1.669 -1.8748 -4.2966 -0.0212
  833MOL0     H12390   6.216   7.074   1.925 -0.7116 -0.4042  0.0602
  833MOL0     H12391   6.285   7.185   1.802  3.5217 -2.3080 -1.0830
  833MOL0     H12392   6.114   7.129   1.665 -0.3746  0.2953  0.7305
  833MOL0     H12393   6.144   6.958   1.683  1.7922  0.0879  0.9533
  833MOL0     H12394   6.031   6.991   1.920  3.3025  1.4286  0.2501
  833MOL0     H12395   5.971   7.147   1.858  1.6503 -0.6734  3.3599
  833MOL0     H12396   5.856   7.039   1.664 -1.4714  0.6805  1.4168
  833MOL0     H12397   5.915   6.883   1.720  0.3334 -0.4486  0.6414
  833MOL0     H12398   5.691   6.920   1.778 -0.8157 -1.1239  1.6292
  833MOL0     H12399   5.783   6.945   1.937 -2.4189 -1.1794 -0.5935
  833MOL0     H12400   5.758   7.184   1.897  0.7357  1.0684 -0.8489
  833MOL0     H12401   5.643   7.148   1.763 -0.6793 -1.0290  0.4754
  833MOL0     H12402   5.490   7.039   1.922  0.9564 -0.8190  0.3941
  833MOL0     H12403   5.606   7.029   2.050 -1.6267  0.2280  1.5969
  833MOL0     H12404   5.498   7.290   1.925  0.1721 -2.1365 -1.2848
  833MOL0     H12405   5.602   7.292   2.068  0.6125 -1.9440  1.1068
  833MOL0     H12406   5.280   7.361   2.023 -1.8131 -1.3543 -0.2127
  833MOL0     H12407   5.019   7.274   2.167  1.7968 -0.7578 -2.7145
  833MOL0     H12408   5.052   7.281   2.341 -0.2035  2.5845  1.5434
  833MOL0     H12409   5.062   7.514   2.147  3.2321  2.9584  0.7529
  833MOL0     H12410   5.161   7.511   2.292  0.9236 -1.0029 -2.0293
  833MOL0     H12411   4.943   7.625   2.328 -0.0980  0.4596 -1.4508
  833MOL0     H12412   4.982   7.484   2.437 -0.9829  0.8502  0.4648
  833MOL0     H12413   4.752   7.494   2.383  0.1081  0.1213  0.9017
  833MOL0     H12414   4.830   7.341   2.326  1.0280  1.2563  2.2361
  833MOL0     H12415   4.571   7.369   2.332  0.0173 -4.4403 -0.7013
  833MOL0     H12416   4.246   7.268   2.254  0.6199  1.9573 -3.2763
  833MOL0     H12417   4.386   7.144   2.265 -1.7765 -0.6631 -0.0490
  833MOL0     H12418   4.380   7.275   2.372  1.0013  0.6771 -0.2229
  833MOL0     H12419   3.976   7.343   2.028  1.3285 -1.1460 -0.1526
  833MOL0     H12420   3.742   7.313   1.921  0.5728 -1.7206 -0.5415
  833MOL0     H12421   3.629   7.541   1.732  1.3446 -0.3154  0.6954
  833MOL0     H12422   3.705   7.561   1.565 -0.8834 -0.1313 -1.4247
  833MOL0     H12423   3.467   7.613   1.556  1.3521 -0.1058  1.9069
  833MOL0     H12424   3.518   7.486   1.454  1.4686  0.6664 -0.9537
  833MOL0     H12425   3.451   7.326   1.661 -0.4011 -0.0915 -0.6779
  833MOL0     H12426   3.324   7.392   1.562  0.2607  2.2533 -1.1316
  833MOL0     H12427   3.401   7.467   1.834 -1.5319 -1.7302  0.4871
  833MOL0     H12428   3.303   7.581   1.731  1.8446  1.0947 -3.3873
  833MOL0     H12429   3.240   7.292   1.813 -2.7985  0.9756  3.2314
  833MOL0     H12430   3.140   7.388   1.696 -1.3279  0.6249 -0.4218
  833MOL0     H12431   3.189   7.433   1.990 -0.7403 -0.0970 -0.7823
  833MOL0     H12432   3.084   7.541   1.899 -2.3153 -0.1571  2.0821
  833MOL0     H12433   3.033   7.251   1.898  0.5900  0.5176 -1.2390
  833MOL0     H12434   2.924   7.383   1.842  0.8542 -0.1678 -0.3997
  833MOL0     H12435   2.863   7.263   2.059  1.7439 -1.4401  2.3250
  833MOL0     H12436   2.868   7.439   2.047  1.8877  1.5941 -3.2727
  833MOL0     H12437   3.897   7.478   1.558 -2.4397 -0.0870  0.6330
  833MOL0     H12438   4.136   7.467   1.654 -0.2399  0.8109 -0.1369
  833MOL0     H12439   4.461   7.434   1.859  0.2819 -2.7628 -0.0612
  833MOL0     H12440   4.675   7.483   1.937  0.4036  3.0313  1.5355
  833MOL0     H12441   6.393   6.976   2.036  0.0918  1.1912  0.0613
  833MOL0     H12442   6.610   7.030   2.152  1.8049 -0.1363 -0.9286
  833MOL0     H12443   7.164   7.283   1.955  0.4666 -2.6952 -0.2406
  833MOL0     H12444   7.348   7.356   2.102 -0.0695 -0.3283 -0.5108
  833MOL0     H12445   7.374   7.154   2.494  0.9999  0.9838  2.0138
  833MOL0     H12446   7.517   7.239   2.464  0.4641 -0.9594 -4.2877
  833MOL0     H12447   7.437   7.437   2.594 -0.7644  0.6220  2.8443
  833MOL0     H12448   7.399   7.287   2.686  3.5918 -2.1504 -1.5027
  833MOL0     H12449   7.153   7.332   2.610  0.4982 -0.4944 -0.7621
  833MOL0     H12450   7.212   7.472   2.515  0.8870  2.1248  0.8599
  833MOL0     H12451   7.121   7.568   2.707  0.0530 -1.2188 -0.3601
  833MOL0     H12452   7.301   7.556   2.738 -1.7485  4.5238  3.0924
  833MOL0     H12453   7.128   7.288   3.026 -1.4722  0.1739  0.0854
  833MOL0     H12454   7.131   7.171   2.435 -0.1219 -2.1770 -0.1840
  833MOL0     H12455   6.957   7.100   2.269 -0.3916  2.0385  1.8203
  834MOL0     O12456   1.986   2.195   5.063 -0.1641 -0.2345 -0.2416
  834MOL0     C12457   2.096   2.196   5.118  0.7270  0.3631 -0.4605
  834MOL0     O12458   2.129   2.258   5.238  0.3019 -0.0099  0.2899
  834MOL0     C12459   2.044   2.320   5.323 -0.0647 -0.4903  0.1674
  834MOL0     C12460   1.914   2.286   5.334  0.3031  0.3665 -0.3541
  834MOL0     C12461   1.825   2.350   5.426 -0.5247 -0.2157  0.6846
  834MOL0     C12462   1.873   2.446   5.520  0.6941 -0.3615 -0.3278
  834MOL0     O12463   1.799   2.496   5.630 -0.2252 -0.0996 -0.1412
  834MOL0     C12464   1.660   2.449   5.642  0.1148  0.2155  0.1196
  834MOL0     C12465   1.589   2.551   5.736  0.1937 -0.5143 -0.0320
  834MOL0     C12466   1.570   2.685   5.673  0.1128 -0.3081 -0.6404
  834MOL0     C12467   1.499   2.792   5.769  0.7168  0.3234  0.0657
  834MOL0     C12468   1.347   2.780   5.747  0.9135 -0.1410  0.3711
  834MOL0     C12469   1.267   2.890   5.806  0.3934  0.2293  0.6611
  834MOL0     C12470   1.126   2.847   5.841 -0.3419  1.0172  0.8972
  834MOL0     C12471   1.034   2.830   5.722 -0.1640 -0.7069 -0.8075
  834MOL0     N12472   0.903   2.795   5.771 -0.3182  0.5867  0.6693
  834MOL0     C12473   0.818   2.875   5.840  0.7656 -0.6163  0.5086
  834MOL0     C12474   0.707   2.794   5.866  0.3223 -0.9737 -0.1454
  834MOL0     C12475   0.584   2.839   5.944 -0.5694  0.1057 -0.1588
  834MOL0     C12476   0.469   2.863   5.852  0.0194 -0.0511 -0.3029
  834MOL0     C12477   0.337   2.886   5.931 -0.2015  0.9247  0.4402
  834MOL0     C12478   0.219   2.929   5.845 -0.3996 -0.0118  0.2165
  834MOL0     O12479   0.135   2.991   5.934  0.4770  0.7035 -1.0035
  834MOL0     C12480   0.023   2.929   5.989  0.0945  0.9711  1.1304
  834MOL0     C12481  -0.032   2.799   5.951 -0.1208 -0.5911 -0.3036
  834MOL0     C12482  -0.147   2.750   6.015 -0.0356 -0.8349 -0.0112
  834MOL0     C12483  -0.215   2.622   5.962 -1.0138  0.1484 -0.1598
  834MOL0     C12484  -0.211   2.833   6.113  0.8660 -0.6279  0.1527
  834MOL0     C12485  -0.340   2.797   6.180 -0.0746  0.2551 -0.1557
  834MOL0     O12486  -0.416   2.904   6.219  0.1613  0.1367  0.1454
  834MOL0     C12487  -0.550   2.882   6.231 -0.2425  0.0393  0.2339
  834MOL0     C12488  -0.604   2.870   6.359 -0.0053  0.4506  0.2106
  834MOL0     C12489  -0.745   2.839   6.376  0.2158  0.5404  0.0223
  834MOL0     C12490  -0.827   2.826   6.261  0.4555 -0.0867 -0.1534
  834MOL0     O12491  -0.964   2.805   6.290  0.0870  0.7616  0.3850
  834MOL0     C12492  -1.056   2.810   6.172  0.1764  0.4135 -0.7247
  834MOL0     C12493  -1.193   2.740   6.212  0.7297 -0.6652  0.6380
  834MOL0     C12494  -1.279   2.693   6.084 -0.2069 -0.2325 -1.1285
  834MOL0     C12495  -1.399   2.612   6.136 -1.0549  0.2215 -0.1352
  834MOL0     C12496  -1.500   2.566   6.022 -0.9171 -0.0945 -0.4861
  834MOL0     C12497  -1.467   2.421   5.966 -0.0529  1.0085 -0.2845
  834MOL0     C12498  -1.564   2.387   5.856  1.0058 -0.2753 -0.1731
  834MOL0     C12499  -1.563   2.251   5.786 -0.1619  0.2840 -0.8319
  834MOL0    Cl12500  -1.606   2.111   5.888  0.0550 -0.3369  0.4235
  834MOL0     C12501  -0.767   2.845   6.132  0.1369 -0.0090 -0.0028
  834MOL0     C12502  -0.628   2.874   6.117 -0.2667 -0.6764 -0.5779
  834MOL0     O12503  -0.377   2.679   6.201  0.2470 -0.1975  0.0257
  834MOL0     C12504  -0.155   2.957   6.152 -0.1441 -0.0718  0.4355
  834MOL0     C12505  -0.035   3.010   6.092  0.2699 -0.3250 -0.7952
  834MOL0     N12506   0.734   2.667   5.818 -0.8373  0.2678 -0.6120
  834MOL0     N12507   0.851   2.674   5.756 -0.4225  0.6910 -0.4452
  834MOL0     C12508   2.008   2.479   5.512 -0.3824 -0.4429  0.6262
  834MOL0     C12509   2.094   2.422   5.412  0.4380 -0.5264  0.4105
  834MOL0     C12510   2.205   2.134   5.064 -0.2280  0.5624  0.0673
  834MOL0     C12511   2.208   2.111   4.922  0.5821 -0.0261  0.1394
  834MOL0     C12512   2.321   2.046   4.864 -0.3137 -0.1233  0.1577
  834MOL0     C12513   2.410   1.985   4.948  0.7583 -1.0017 -0.0773
  834MOL0     O12514   2.493   1.904   4.874 -0.1721 -0.0060 -0.0479
  834MOL0     C12515   2.596   1.823   4.928  0.1274 -0.5776  0.2305
  834MOL0     C12516   2.692   1.779   4.825  0.6016 -0.1177 -0.0281
  834MOL0     C12517   2.636   1.689   4.715  0.6381  0.0367 -0.9860
  834MOL0     C12518   2.731   1.662   4.598 -0.9885 -0.7347  0.2587
  834MOL0     C12519   2.863   1.616   4.649 -0.3857  0.2442  0.5074
  834MOL0     C12520   2.958   1.568   4.700 -0.2938 -0.4625  0.7963
  834MOL0     C12521   2.413   1.997   5.085  1.4022  0.1713 -0.5083
  834MOL0     C12522   2.313   2.079   5.138 -0.3040 -0.0667  0.2416
  834MOL0     H12523   1.869   2.200   5.284  4.4077 -2.3929  0.2267
  834MOL0     H12524   1.725   2.307   5.422 -1.0981  1.1513 -0.2892
  834MOL0     H12525   1.616   2.448   5.541  2.0383  0.0601 -0.7605
  834MOL0     H12526   1.646   2.345   5.675 -2.3727  0.6495  0.6707
  834MOL0     H12527   1.494   2.510   5.772 -0.2680  0.0692 -0.5764
  834MOL0     H12528   1.645   2.579   5.825  1.7042 -0.7231 -0.8814
  834MOL0     H12529   1.667   2.732   5.653 -0.1574  1.4830  1.9178
  834MOL0     H12530   1.514   2.675   5.579  0.2482 -0.3399 -0.7177
  834MOL0     H12531   1.527   2.787   5.875  0.9085  0.5207  0.0247
  834MOL0     H12532   1.532   2.891   5.737  1.5669  0.1955  0.5022
  834MOL0     H12533   1.319   2.765   5.642  0.4715 -1.3870  0.6477
  834MOL0     H12534   1.313   2.697   5.810  0.8323 -0.8063 -0.5288
  834MOL0     H12535   1.318   2.915   5.900  0.6577  2.6154 -0.0476
  834MOL0     H12536   1.264   2.978   5.741  3.3762  0.7739  1.1118
  834MOL0     H12537   1.115   2.753   5.896  0.2333  0.3710 -0.0555
  834MOL0     H12538   1.088   2.923   5.910 -2.2200  1.4505 -0.5167
  834MOL0     H12539   1.066   2.762   5.643 -0.6836 -2.7742  0.6684
  834MOL0     H12540   1.012   2.926   5.675 -2.9578  1.5684  4.2447
  834MOL0     H12541   0.832   2.980   5.864  0.3888 -1.0093  2.7121
  834MOL0     H12542   0.549   2.760   6.010  1.0409 -2.2344 -1.9274
  834MOL0     H12543   0.611   2.928   6.002  2.3223 -3.1500  4.0588
  834MOL0     H12544   0.458   2.782   5.779 -1.3669 -1.9283  1.8442
  834MOL0     H12545   0.502   2.955   5.803 -0.2139  0.7086  0.9338
  834MOL0     H12546   0.358   2.976   5.990  0.3874  0.4789  0.9235
  834MOL0     H12547   0.308   2.812   6.006 -2.3010  3.6332  2.5452
  834MOL0     H12548   0.171   2.838   5.808 -0.7257  0.0912  0.3814
  834MOL0     H12549   0.242   3.002   5.766 -1.5610  0.3713  0.2102
  834MOL0     H12550   0.007   2.741   5.869  1.8129 -0.0448  0.1735
  834MOL0     H12551  -0.214   2.537   6.031 -0.7111 -0.9962 -1.5103
  834MOL0     H12552  -0.320   2.644   5.940 -1.6136 -1.0526  1.2740
  834MOL0     H12553  -0.159   2.602   5.870 -0.7695  0.4873 -0.0848
  834MOL0     H12554  -0.541   2.882   6.447 -0.4381 -1.7288  0.8789
  834MOL0     H12555  -0.796   2.830   6.471 -1.5013 -1.0845 -1.0043
  834MOL0     H12556  -1.078   2.915   6.147 -1.4487 -0.0599 -1.3961
  834MOL0     H12557  -1.011   2.758   6.087  0.3399 -1.2749  0.3400
  834MOL0     H12558  -1.169   2.655   6.276  1.8598  0.2648  1.4788
  834MOL0     H12559  -1.251   2.813   6.268  2.7691  1.0016  0.7202
  834MOL0     H12560  -1.210   2.633   6.024  3.4484 -0.7712  3.0526
  834MOL0     H12561  -1.326   2.782   6.042  0.2757  0.6637  0.1523
  834MOL0     H12562  -1.357   2.521   6.180 -0.9862 -1.0028 -2.5860
  834MOL0     H12563  -1.459   2.662   6.212 -1.3149 -1.3793  0.7744
  834MOL0     H12564  -1.490   2.636   5.939 -2.1616 -1.0717 -1.4901
  834MOL0     H12565  -1.602   2.581   6.059 -2.1513 -0.1852 -3.5562
  834MOL0     H12566  -1.364   2.427   5.931  1.2090 -2.4498  2.2680
  834MOL0     H12567  -1.464   2.342   6.041  1.4092  0.0675 -1.2966
  834MOL0     H12568  -1.549   2.459   5.775  0.8162 -1.2173 -1.0650
  834MOL0     H12569  -1.665   2.399   5.897  1.7748 -1.6973  2.3561
  834MOL0     H12570  -1.465   2.235   5.740  0.3453 -2.8782  1.0507
  834MOL0     H12571  -1.635   2.256   5.703 -0.3312 -1.5705 -0.8338
  834MOL0     H12572  -0.825   2.844   6.040  2.6575  1.2270 -1.7242
  834MOL0     H12573  -0.579   2.878   6.020 -0.9225  3.0538 -0.8987
  834MOL0     H12574  -0.208   3.015   6.227 -0.8226 -0.0876 -0.0206
  834MOL0     H12575   0.009   3.107   6.110 -1.1756  0.5337 -1.6742
  834MOL0     H12576   2.051   2.550   5.582  0.3234 -1.8735  1.6944
  834MOL0     H12577   2.201   2.439   5.416  0.7411 -0.8422 -3.1591
  834MOL0     H12578   2.132   2.148   4.854  1.3675  2.3735  0.4824
  834MOL0     H12579   2.319   2.028   4.757  0.8821  0.0062  0.1052
  834MOL0     H12580   2.645   1.881   5.007 -2.2841 -0.1616  1.4881
  834MOL0     H12581   2.545   1.737   4.972  1.9030 -0.6871  2.2582
  834MOL0     H12582   2.765   1.722   4.881  0.3483  0.1600  0.5943
  834MOL0     H12583   2.738   1.869   4.782 -2.1205  1.3928 -0.0435
  834MOL0     H12584   2.545   1.738   4.678  0.1373  0.7555  1.0505
  834MOL0     H12585   2.606   1.593   4.758  0.1497  0.8145  0.4690
  834MOL0     H12586   2.745   1.757   4.547 -0.4352  0.0545  1.8280
  834MOL0     H12587   2.692   1.597   4.519 -0.2506 -1.5025  0.5038
  834MOL0     H12588   3.047   1.524   4.741 -0.4305 -2.2493 -0.6903
  834MOL0     H12589   2.497   1.957   5.141 -0.4148 -1.4655  1.2030
  834MOL0     H12590   2.318   2.076   5.246  1.2159  1.7446  0.2808
  835MOL0     O12591   2.985   3.137   8.118 -0.0155 -0.4009  0.2620
  835MOL0     C12592   2.949   3.126   8.002 -0.4443 -0.0761 -0.2932
  835MOL0     O12593   2.822   3.120   7.965  0.4245  0.2148  0.3011
  835MOL0     C12594   2.733   3.069   8.057  0.3518  0.4544 -0.2777
  835MOL0     C12595   2.699   2.936   8.054  0.5545  0.7401  0.1390
  835MOL0     C12596   2.593   2.880   8.121 -0.6309 -0.0573 -0.5181
  835MOL0     C12597   2.529   2.960   8.226  0.2681 -0.5064  0.4752
  835MOL0     O12598   2.424   2.909   8.298  0.1545 -0.3631  0.5437
  835MOL0     C12599   2.377   2.774   8.283 -0.2942  0.3136 -0.3004
  835MOL0     C12600   2.278   2.748   8.395  0.8860 -0.3363 -0.0599
  835MOL0     C12601   2.342   2.733   8.533 -0.0356  0.1920  0.3959
  835MOL0     C12602   2.271   2.810   8.640  0.5121 -0.1510 -0.2158
  835MOL0     C12603   2.121   2.782   8.648  0.6782  0.3595  0.2131
  835MOL0     C12604   2.053   2.842   8.778  0.4354  0.2870 -0.0397
  835MOL0     C12605   1.910   2.799   8.792  0.0529 -0.0488  0.5800
  835MOL0     C12606   1.848   2.848   8.931  0.0343  0.2320 -0.2142
  835MOL0     N12607   1.706   2.795   8.933 -0.7476 -0.4965 -0.1735
  835MOL0     C12608   1.664   2.666   8.896 -0.4752  0.0174  0.0593
  835MOL0     C12609   1.526   2.680   8.907  0.5215  0.2034 -0.3157
  835MOL0     C12610   1.423   2.569   8.886 -0.0837  1.2684 -0.1995
  835MOL0     C12611   1.463   2.436   8.962  0.8157 -0.0528 -0.1306
  835MOL0     C12612   1.357   2.383   9.062  0.0749 -0.4619 -0.1591
  835MOL0     C12613   1.337   2.463   9.186 -0.9975 -0.3093 -1.0621
  835MOL0     O12614   1.222   2.414   9.257  0.2546 -0.0857  0.2443
  835MOL0     C12615   1.097   2.424   9.196 -0.5437  0.1477  0.1157
  835MOL0     C12616   1.072   2.508   9.087 -0.0991  0.6173 -0.3954
  835MOL0     C12617   0.956   2.503   9.011  0.0231 -0.6201 -0.2615
  835MOL0     C12618   0.943   2.596   8.893 -0.3977 -0.1168 -0.4867
  835MOL0     C12619   0.851   2.413   9.051 -0.5042  0.4105  0.5250
  835MOL0     C12620   0.716   2.406   8.984 -0.7566  0.4417 -0.0015
  835MOL0     O12621   0.620   2.330   9.051 -1.0975 -0.1060  0.5917
  835MOL0     C12622   0.493   2.348   9.006  0.0517  0.1340 -0.1469
  835MOL0     C12623   0.409   2.422   9.085 -0.4467  0.8202 -0.4439
  835MOL0     C12624   0.281   2.444   9.032  0.8492  0.2462  0.2502
  835MOL0     C12625   0.227   2.383   8.922  0.0260  0.4315  0.4181
  835MOL0     O12626   0.104   2.403   8.875 -0.6056  0.4297  0.3381
  835MOL0     C12627   0.006   2.452   8.963 -0.5002 -0.2951  0.0885
  835MOL0     C12628  -0.130   2.456   8.897 -0.7852 -0.1498 -0.0156
  835MOL0     C12629  -0.173   2.326   8.838 -0.0169  0.1045  0.0083
  835MOL0     C12630  -0.322   2.334   8.806 -0.2500 -0.3677  0.5471
  835MOL0     C12631  -0.379   2.207   8.754  0.0164 -0.4154 -0.0330
  835MOL0     C12632  -0.406   2.092   8.853 -0.1816  0.5144 -0.2928
  835MOL0     C12633  -0.467   1.960   8.796 -0.3084  0.2486 -0.6613
  835MOL0     C12634  -0.490   1.835   8.884  0.3655  0.1201  0.5685
  835MOL0    Cl12635  -0.613   1.880   8.998 -0.2612 -0.2960  0.2760
  835MOL0     C12636   0.305   2.295   8.857  0.3110 -0.4005 -0.1338
  835MOL0     C12637   0.443   2.275   8.894  0.0780  0.3852 -0.5755
  835MOL0     O12638   0.701   2.453   8.870 -0.0625  0.3818  0.2692
  835MOL0     C12639   0.877   2.336   9.164  0.3983 -0.2110 -0.5422
  835MOL0     C12640   0.996   2.342   9.232 -0.0649  0.0406 -0.0336
  835MOL0     N12641   1.501   2.802   8.980 -0.1237  0.6327 -0.0965
  835MOL0     N12642   1.610   2.869   8.986  0.4667  0.1456 -0.4006
  835MOL0     C12643   2.576   3.097   8.241 -0.9149  1.1381 -0.0199
  835MOL0     C12644   2.671   3.147   8.153  0.2542 -0.0960  0.2750
  835MOL0     C12645   3.050   3.128   7.895 -0.6059 -0.3296  0.6408
  835MOL0     C12646   3.188   3.143   7.941  0.3188  0.4184 -0.2595
  835MOL0     C12647   3.283   3.176   7.836  0.3111  0.3266 -0.5779
  835MOL0     C12648   3.253   3.173   7.704 -0.2886 -0.9581  0.7241
  835MOL0     O12649   3.359   3.198   7.623 -0.2545  0.2035 -0.1734
  835MOL0     C12650   3.383   3.107   7.507 -0.1651 -0.3771 -0.1254
  835MOL0     C12651   3.463   2.982   7.556 -0.4653  0.5263 -0.5242
  835MOL0     C12652   3.526   2.910   7.443  0.5671 -0.1855 -0.5226
  835MOL0     C12653   3.594   2.774   7.469  0.2732  0.7905 -0.3827
  835MOL0     C12654   3.630   2.713   7.340 -0.7120  0.5469 -0.3835
  835MOL0     C12655   3.681   2.665   7.239 -0.2606 -0.1048  0.1692
  835MOL0     C12656   3.131   3.154   7.661  1.5314  0.8912  0.5791
  835MOL0     C12657   3.031   3.136   7.753  0.4567  1.2882 -0.7164
  835MOL0     H12658   2.744   2.871   7.979  2.6809  0.4583  1.5851
  835MOL0     H12659   2.563   2.780   8.089  0.6832 -0.3367 -0.9116
  835MOL0     H12660   2.316   2.778   8.192 -1.2318 -1.2494  0.2134
  835MOL0     H12661   2.453   2.696   8.276 -0.5648  0.1331 -1.3186
  835MOL0     H12662   2.204   2.828   8.401 -2.6870 -3.4264  2.5974
  835MOL0     H12663   2.220   2.661   8.363 -2.0369  2.2240 -2.2084
  835MOL0     H12664   2.334   2.626   8.559  1.5642  0.6976  3.4883
  835MOL0     H12665   2.447   2.762   8.527  0.2389 -1.0512 -2.2218
  835MOL0     H12666   2.318   2.801   8.738  1.5445  3.6779 -0.2176
  835MOL0     H12667   2.280   2.917   8.622  1.0404 -0.2207 -0.3736
  835MOL0     H12668   2.061   2.809   8.560 -2.2748  2.1773  2.5856
  835MOL0     H12669   2.105   2.674   8.652 -2.9672  0.8097  1.2529
  835MOL0     H12670   2.110   2.809   8.865 -1.9508  0.5403  1.7228
  835MOL0     H12671   2.057   2.951   8.766 -1.1852  0.2531 -1.4012
  835MOL0     H12672   1.854   2.836   8.705 -0.6065 -1.5267  0.3521
  835MOL0     H12673   1.901   2.690   8.794 -0.5870 -0.1099 -2.2790
  835MOL0     H12674   1.853   2.956   8.947 -0.5695  0.3738 -0.9403
  835MOL0     H12675   1.909   2.802   9.009  3.6087  1.7925 -1.8098
  835MOL0     H12676   1.711   2.577   8.856 -1.5297 -0.2239 -0.6981
  835MOL0     H12677   1.329   2.603   8.930  0.5731  1.3965  1.1649
  835MOL0     H12678   1.411   2.555   8.778  1.7284 -1.9450 -0.1105
  835MOL0     H12679   1.555   2.455   9.017  0.7258  1.3235 -0.4188
  835MOL0     H12680   1.477   2.359   8.885  0.5459  0.1662 -0.4011
  835MOL0     H12681   1.394   2.285   9.092 -0.5917 -0.4827  0.6356
  835MOL0     H12682   1.261   2.370   9.011 -1.2018 -0.4011  2.0884
  835MOL0     H12683   1.333   2.569   9.163  1.2085 -0.4414 -2.2824
  835MOL0     H12684   1.413   2.454   9.264  0.0149 -0.7477 -2.0783
  835MOL0     H12685   1.145   2.582   9.056  2.1246 -1.7617 -1.2220
  835MOL0     H12686   0.870   2.675   8.912  0.9151  1.2522 -0.9627
  835MOL0     H12687   1.036   2.653   8.880  1.9018 -4.0913 -4.1979
  835MOL0     H12688   0.917   2.545   8.799  0.4774  1.0501 -1.3998
  835MOL0     H12689   0.444   2.475   9.174  0.5094  1.1708 -1.0109
  835MOL0     H12690   0.230   2.526   9.082  0.3683 -0.3697  0.7843
  835MOL0     H12691  -0.014   2.384   9.047  1.1476  1.0485  1.6651
  835MOL0     H12692   0.021   2.549   9.011 -2.0956  0.3598 -0.6683
  835MOL0     H12693  -0.203   2.486   8.973 -4.0560  0.0990 -2.9778
  835MOL0     H12694  -0.136   2.529   8.816  3.1637 -0.6496 -0.9433
  835MOL0     H12695  -0.151   2.242   8.905  0.9247 -1.6881 -2.3920
  835MOL0     H12696  -0.116   2.294   8.750 -3.0503 -0.4660 -1.9272
  835MOL0     H12697  -0.381   2.380   8.887  1.5255  2.0952  0.5745
  835MOL0     H12698  -0.330   2.397   8.717 -0.2935 -1.2174 -0.0611
  835MOL0     H12699  -0.316   2.159   8.679  0.9579 -0.6392  0.8695
  835MOL0     H12700  -0.474   2.224   8.704 -0.5954 -0.7861  0.9683
  835MOL0     H12701  -0.313   2.081   8.910  1.7465  2.7567 -2.7265
  835MOL0     H12702  -0.482   2.133   8.920 -0.4851 -2.5869  1.4525
  835MOL0     H12703  -0.401   1.917   8.720  0.6001 -5.3437  2.7165
  835MOL0     H12704  -0.557   1.994   8.744  1.3087  1.2626 -2.9938
  835MOL0     H12705  -0.406   1.786   8.935 -0.3934 -1.4232  0.3812
  835MOL0     H12706  -0.531   1.755   8.822  1.7845  0.8917 -1.4653
  835MOL0     H12707   0.261   2.253   8.767  0.9885 -1.4156 -0.0094
  835MOL0     H12708   0.514   2.215   8.838  0.9514  0.7537  0.1172
  835MOL0     H12709   0.816   2.257   9.206  0.6058 -0.5628 -0.8949
  835MOL0     H12710   1.017   2.269   9.310 -1.3084  2.1213  2.4000
  835MOL0     H12711   2.541   3.147   8.330  0.5158  0.3475  1.0435
  835MOL0     H12712   2.704   3.250   8.163  1.5808 -0.5497  0.8444
  835MOL0     H12713   3.215   3.135   8.046  0.2058  0.2892 -0.2405
  835MOL0     H12714   3.385   3.187   7.870 -0.2172  2.1145  0.5487
  835MOL0     H12715   3.287   3.078   7.463 -0.3998  0.1111  0.0598
  835MOL0     H12716   3.446   3.151   7.430 -1.2407 -0.8904 -1.3377
  835MOL0     H12717   3.387   2.921   7.605 -1.3902  1.4593 -0.7711
  835MOL0     H12718   3.534   3.012   7.633 -2.1535 -1.4788  1.9523
  835MOL0     H12719   3.601   2.984   7.412 -0.9726  1.7135  0.1164
  835MOL0     H12720   3.453   2.886   7.365 -0.6742  0.8729  0.2962
  835MOL0     H12721   3.535   2.698   7.521  2.3010  0.0638  0.9500
  835MOL0     H12722   3.690   2.793   7.519  1.2859  1.0764 -2.3539
  835MOL0     H12723   3.742   2.613   7.169  1.7542  1.0141  1.0245
  835MOL0     H12724   3.117   3.150   7.554  1.8918  0.1944  0.5504
  835MOL0     H12725   2.929   3.115   7.723  0.5734 -3.3496  1.3413
  836MOL0     O12726   0.350   8.458   0.854 -0.8296  0.4350 -0.2556
  836MOL0     C12727   0.451   8.514   0.812 -0.6127 -0.4304 -0.2871
  836MOL0     O12728   0.448   8.627   0.729  0.9304 -0.7768 -0.7434
  836MOL0     C12729   0.327   8.683   0.706 -0.1192  0.3088 -0.0354
  836MOL0     C12730   0.310   8.820   0.728 -0.4661 -0.3053 -0.7795
  836MOL0     C12731   0.181   8.877   0.704  0.4106  0.1355 -0.2444
  836MOL0     C12732   0.074   8.797   0.655 -0.8228 -0.8192  0.4832
  836MOL0     O12733  -0.054   8.854   0.641 -0.6529  0.2121 -0.0628
  836MOL0     C12734  -0.146   8.774   0.575 -0.2967 -0.6628  0.1324
  836MOL0     C12735  -0.263   8.865   0.562 -0.5365  1.0330 -0.2699
  836MOL0     C12736  -0.384   8.784   0.500  0.6198  0.2191 -0.4816
  836MOL0     C12737  -0.491   8.863   0.427 -0.1204 -0.3050 -0.6441
  836MOL0     C12738  -0.580   8.935   0.530  0.1211  0.4630  0.1264
  836MOL0     C12739  -0.704   9.000   0.468 -0.2516  0.5675  0.4477
  836MOL0     C12740  -0.797   9.054   0.580 -0.3131  0.4847  0.4598
  836MOL0     C12741  -0.883   9.176   0.538 -0.5478  0.6635  0.2318
  836MOL0     N12742  -0.967   9.218   0.649  0.3863 -0.6935 -0.4850
  836MOL0     C12743  -1.102   9.179   0.678 -0.8012 -0.6357  0.9516
  836MOL0     C12744  -1.134   9.262   0.779  0.0024  0.2503  0.4893
  836MOL0     C12745  -1.258   9.238   0.861 -0.0053  0.9241 -0.2741
  836MOL0     C12746  -1.346   9.364   0.840  0.6159 -0.0222  0.6413
  836MOL0     C12747  -1.446   9.375   0.949 -0.5839 -0.6657 -0.1377
  836MOL0     C12748  -1.546   9.489   0.918  0.4360  0.0011  0.0289
  836MOL0     O12749  -1.630   9.519   1.031 -0.4430 -0.7165 -0.4372
  836MOL0     C12750  -1.766   9.523   1.018 -0.1076 -0.5017  0.1379
  836MOL0     C12751  -1.842   9.428   0.945  0.3849 -0.0910  0.7304
  836MOL0     C12752  -1.989   9.440   0.941  0.0114 -0.4245  0.4989
  836MOL0     C12753  -2.070   9.348   0.858  0.4912  0.7700  0.5167
  836MOL0     C12754  -2.041   9.551   1.012 -0.0727  0.2742  0.3873
  836MOL0     C12755  -2.189   9.569   1.017  0.0885 -0.7681 -1.2619
  836MOL0     O12756  -2.266   9.457   1.053  0.6303 -0.2300  1.0599
  836MOL0     C12757  -2.401   9.460   1.046  0.2431  0.6128  0.2814
  836MOL0     C12758  -2.478   9.514   1.146 -0.4830  0.0055  0.2502
  836MOL0     C12759  -2.613   9.490   1.153  0.6884  0.3343 -1.1396
  836MOL0     C12760  -2.678   9.430   1.047 -0.4309 -0.7128  0.4628
  836MOL0     O12761  -2.812   9.417   1.032  0.1583  1.2914 -0.3179
  836MOL0     C12762  -2.896   9.430   1.147 -0.5554  0.7988 -0.6943
  836MOL0     C12763  -3.046   9.411   1.110  0.5842 -0.1677 -0.4902
  836MOL0     C12764  -3.128   9.493   1.212 -0.5372  0.1138 -0.1665
  836MOL0     C12765  -3.275   9.452   1.221 -0.6132 -0.8616 -0.5316
  836MOL0     C12766  -3.363   9.560   1.283  0.7055 -0.3552  0.2070
  836MOL0     C12767  -3.506   9.517   1.247 -0.1412  0.8168 -0.1423
  836MOL0     C12768  -3.622   9.587   1.315 -0.0859  0.9129  0.5319
  836MOL0     C12769  -3.758   9.548   1.252 -0.2480 -0.1507 -0.3382
  836MOL0    Cl12770  -3.880   9.644   1.318 -0.7189  0.0932 -0.0610
  836MOL0     C12771  -2.607   9.381   0.938 -0.4635  0.1091  0.1079
  836MOL0     C12772  -2.468   9.401   0.936 -0.2599 -0.0975 -0.7476
  836MOL0     O12773  -2.236   9.682   1.005 -0.1590  0.3175 -0.1272
  836MOL0     C12774  -1.963   9.633   1.090 -0.2339  0.1654  0.1000
  836MOL0     C12775  -1.826   9.628   1.085 -0.0118 -0.4278  1.0950
  836MOL0     N12776  -1.028   9.354   0.799  0.0461  0.1012  0.1317
  836MOL0     N12777  -0.928   9.328   0.726  0.3159 -0.2768  0.2207
  836MOL0     C12778   0.102   8.665   0.618  0.0120  0.4074 -0.0567
  836MOL0     C12779   0.227   8.607   0.647  0.4096  0.0561 -0.8810
  836MOL0     C12780   0.580   8.476   0.863 -0.0857  0.3330 -0.1903
  836MOL0     C12781   0.600   8.378   0.955  0.8006  0.9269  0.4580
  836MOL0     C12782   0.729   8.343   0.995 -0.0310  0.7124 -0.2370
  836MOL0     C12783   0.837   8.419   0.964  0.5280 -0.4840 -0.6053
  836MOL0     O12784   0.961   8.380   0.999 -0.1370  0.2169  0.3986
  836MOL0     C12785   0.982   8.279   1.099 -0.1982 -0.5589  0.1854
  836MOL0     C12786   1.133   8.267   1.123  0.1915  0.1505 -0.0368
  836MOL0     C12787   1.193   8.405   1.156  0.6421  0.3274  0.1407
  836MOL0     C12788   1.342   8.385   1.187  0.3946 -0.4712 -0.2232
  836MOL0     C12789   1.412   8.335   1.074 -0.3089 -0.3302  0.1384
  836MOL0     C12790   1.489   8.298   0.983  0.5668  0.0770 -0.2953
  836MOL0     C12791   0.818   8.539   0.882  0.8042  0.3424 -0.1318
  836MOL0     C12792   0.687   8.561   0.834 -0.3546  0.9550  0.1681
  836MOL0     H12793   0.398   8.872   0.766 -1.1972  2.1851 -2.2179
  836MOL0     H12794   0.155   8.981   0.716 -2.5166 -0.3778 -1.1959
  836MOL0     H12795  -0.112   8.743   0.476 -2.7107  0.1939 -1.0495
  836MOL0     H12796  -0.181   8.690   0.637 -0.4907 -0.5592  0.1659
  836MOL0     H12797  -0.280   8.894   0.667 -2.1992  0.1873 -0.2657
  836MOL0     H12798  -0.242   8.945   0.492 -0.8150  1.4405  0.1070
  836MOL0     H12799  -0.339   8.711   0.432  2.6567 -0.1369  1.1268
  836MOL0     H12800  -0.435   8.721   0.574  0.9611  0.0201 -0.4091
  836MOL0     H12801  -0.441   8.929   0.355 -0.3343 -0.0018 -0.5188
  836MOL0     H12802  -0.536   8.796   0.353  2.3165 -2.0691 -0.6629
  836MOL0     H12803  -0.614   8.852   0.593  2.6773 -1.3689 -0.7284
  836MOL0     H12804  -0.526   9.012   0.587 -1.2599  1.3202  0.3106
  836MOL0     H12805  -0.674   9.068   0.387  0.3033 -0.2873 -0.0903
  836MOL0     H12806  -0.769   8.927   0.418  0.2203  0.0530  0.5798
  836MOL0     H12807  -0.864   8.975   0.614  1.0902 -1.9963 -2.1754
  836MOL0     H12808  -0.738   9.073   0.670 -0.5184  1.2838  0.4379
  836MOL0     H12809  -0.938   9.157   0.446  0.0973  2.6278 -0.6327
  836MOL0     H12810  -0.804   9.250   0.518  2.3563 -1.8467  1.6089
  836MOL0     H12811  -1.158   9.103   0.624  0.1396 -1.1043  0.5959
  836MOL0     H12812  -1.315   9.146   0.843 -0.0410  1.0048 -0.5737
  836MOL0     H12813  -1.226   9.234   0.965 -1.3184  1.5023  0.1785
  836MOL0     H12814  -1.396   9.358   0.743  1.5500  2.1997 -0.0486
  836MOL0     H12815  -1.278   9.448   0.821 -0.9915  0.9934 -0.9143
  836MOL0     H12816  -1.393   9.393   1.043  0.1460 -1.9133 -0.2918
  836MOL0     H12817  -1.508   9.286   0.962  0.1454 -0.9379  1.8265
  836MOL0     H12818  -1.596   9.485   0.821 -0.4355  2.2506  0.3191
  836MOL0     H12819  -1.485   9.580   0.909 -0.8018  0.7761 -0.7230
  836MOL0     H12820  -1.790   9.357   0.883 -3.8165  0.1584 -3.7156
  836MOL0     H12821  -2.129   9.273   0.911  0.8030  0.1753  0.0329
  836MOL0     H12822  -2.134   9.411   0.796 -0.2035  3.5329  3.7033
  836MOL0     H12823  -2.013   9.286   0.788 -1.7526  1.3038 -1.9518
  836MOL0     H12824  -2.429   9.564   1.229 -1.5538 -1.3416  1.7868
  836MOL0     H12825  -2.669   9.516   1.241 -1.7503 -3.0666 -1.5130
  836MOL0     H12826  -2.871   9.360   1.227  1.4445  1.0420 -1.0614
  836MOL0     H12827  -2.888   9.532   1.186 -0.2355  1.2137 -1.8167
  836MOL0     H12828  -3.053   9.445   1.006  2.3543  1.6529 -0.0837
  836MOL0     H12829  -3.072   9.305   1.108  0.5162 -0.1568 -2.3839
  836MOL0     H12830  -3.108   9.598   1.188  5.0444 -0.5793  0.1024
  836MOL0     H12831  -3.091   9.481   1.314 -1.8332 -0.8191  0.2199
  836MOL0     H12832  -3.309   9.440   1.118 -0.7734  3.4611 -1.1605
  836MOL0     H12833  -3.285   9.360   1.279  0.2510 -0.8933 -0.4131
  836MOL0     H12834  -3.343   9.665   1.261  0.0876 -0.3550 -0.3737
  836MOL0     H12835  -3.353   9.558   1.392  1.4696 -1.7412  0.1380
  836MOL0     H12836  -3.517   9.529   1.139  1.1089 -3.5353 -0.9568
  836MOL0     H12837  -3.504   9.409   1.266  0.9958  1.1524  1.8954
  836MOL0     H12838  -3.605   9.694   1.301  0.3709  0.7109 -0.6081
  836MOL0     H12839  -3.619   9.571   1.423  0.1355  1.7501  0.6591
  836MOL0     H12840  -3.767   9.440   1.262  0.5846 -0.3933 -1.8283
  836MOL0     H12841  -3.749   9.567   1.144 -0.1886  0.9653 -0.1472
  836MOL0     H12842  -2.671   9.339   0.861 -0.6470 -2.7043  1.6701
  836MOL0     H12843  -2.407   9.344   0.866 -0.6287 -1.5809  0.0905
  836MOL0     H12844  -2.012   9.710   1.149  0.3284  0.0244  0.7794
  836MOL0     H12845  -1.774   9.713   1.127 -1.1171  0.3431  0.9401
  836MOL0     H12846   0.028   8.603   0.568 -2.2517  1.9556  1.2109
  836MOL0     H12847   0.239   8.501   0.626  0.3603 -0.9079  3.1313
  836MOL0     H12848   0.519   8.313   0.986 -0.0740  1.5186 -0.5179
  836MOL0     H12849   0.746   8.261   1.063  0.6583  0.0143 -1.2264
  836MOL0     H12850   0.934   8.313   1.192 -2.6437 -3.3939  0.1383
  836MOL0     H12851   0.937   8.187   1.060 -0.3142  0.3498 -1.9212
  836MOL0     H12852   1.179   8.237   1.028  1.8836 -0.2763  0.8812
  836MOL0     H12853   1.161   8.195   1.200  1.0635  1.6795  1.1151
  836MOL0     H12854   1.146   8.423   1.254 -0.9051 -0.1870 -0.4825
  836MOL0     H12855   1.173   8.483   1.082  0.6762  0.6357  0.4504
  836MOL0     H12856   1.356   8.305   1.261  2.0319 -0.8295 -0.8945
  836MOL0     H12857   1.390   8.476   1.224  0.1513 -1.1095  1.8001
  836MOL0     H12858   1.560   8.271   0.907  0.9354 -0.3371  0.1917
  836MOL0     H12859   0.909   8.595   0.867  0.6901  1.5394  3.0363
  836MOL0     H12860   0.681   8.653   0.777 -1.2074  0.5731 -0.3868
  837MOL0     O12861   3.410  10.225   3.394  0.1475 -0.0649 -0.0819
  837MOL0     C12862   3.335  10.287   3.479 -0.4171  0.6464  0.4769
  837MOL0     O12863   3.379  10.392   3.560 -0.7803 -0.1067 -0.6445
  837MOL0     C12864   3.515  10.409   3.573  0.0365 -0.1818 -0.6046
  837MOL0     C12865   3.571  10.508   3.488  0.0757 -0.0291  0.1792
  837MOL0     C12866   3.705  10.539   3.494 -0.2444  0.1872  0.4468
  837MOL0     C12867   3.786  10.465   3.568  0.3546 -0.1749 -0.4631
  837MOL0     O12868   3.921  10.468   3.554  0.4733  0.2803 -0.0337
  837MOL0     C12869   4.003  10.583   3.515  0.3332  0.1816  0.1800
  837MOL0     C12870   4.037  10.690   3.625 -0.1515 -0.0806  0.4517
  837MOL0     C12871   3.913  10.771   3.668 -0.1421  0.8724 -0.2786
  837MOL0     C12872   3.946  10.860   3.792  0.2378  0.2526  1.4221
  837MOL0     C12873   3.832  10.953   3.841  0.0765  0.6676 -0.2511
  837MOL0     C12874   3.743  10.894   3.944 -0.3192 -0.1355 -0.9946
  837MOL0     C12875   3.652  11.002   3.998 -0.2292  0.6081  0.4238
  837MOL0     C12876   3.539  10.949   4.087  0.2154 -0.3131 -0.0712
  837MOL0     N12877   3.421  11.035   4.093 -0.2931 -0.2920 -0.2833
  837MOL0     C12878   3.424  11.171   4.110  0.0204 -0.3936 -0.3765
  837MOL0     C12879   3.290  11.186   4.118  0.1678  0.2122 -0.3755
  837MOL0     C12880   3.225  11.324   4.156 -0.2004  0.3557  0.1135
  837MOL0     C12881   3.069  11.322   4.153 -0.0872 -0.5204  0.4686
  837MOL0     C12882   3.027  11.315   4.004  0.6098 -0.2065  0.0947
  837MOL0     C12883   2.876  11.304   3.970  0.5797 -0.0133  0.0801
  837MOL0     O12884   2.790  11.408   4.021 -0.1216 -0.7455  0.2312
  837MOL0     C12885   2.660  11.398   3.998  0.4959  0.5036 -0.0418
  837MOL0     C12886   2.593  11.277   3.966  0.0180 -0.5307 -1.1295
  837MOL0     C12887   2.449  11.282   3.966  0.3633  0.4681 -0.4176
  837MOL0     C12888   2.382  11.147   3.957 -0.2457  0.2535 -0.4588
  837MOL0     C12889   2.382  11.403   3.993 -0.8326 -0.1639  0.2583
  837MOL0     C12890   2.236  11.427   3.997 -0.0410 -0.5532  1.1459
  837MOL0     O12891   2.196  11.559   4.003 -0.2765 -0.8771 -0.3978
  837MOL0     C12892   2.062  11.605   4.009 -0.6740  0.0739  0.1529
  837MOL0     C12893   1.951  11.537   3.959  0.0949 -0.0938  0.0929
  837MOL0     C12894   1.822  11.596   3.965  0.4138  0.0800  0.1738
  837MOL0     C12895   1.815  11.732   4.005 -0.3448  0.0555 -0.3346
  837MOL0     O12896   1.689  11.781   4.000  0.1112 -0.2975 -0.4494
  837MOL0     C12897   1.661  11.906   4.074 -0.3209  0.2452 -0.3607
  837MOL0     C12898   1.508  11.922   4.100 -0.2416  0.3895  0.1225
  837MOL0     C12899   1.411  11.864   3.999  0.3442  0.7111 -0.1763
  837MOL0     C12900   1.267  11.875   4.059  0.4886 -0.1477 -0.1572
  837MOL0     C12901   1.173  11.826   3.951 -0.2321  0.1186  0.2284
  837MOL0     C12902   1.031  11.809   4.006 -0.1763  0.0302 -0.5309
  837MOL0     C12903   0.923  11.853   3.906  1.0616  0.2319  0.2039
  837MOL0     C12904   0.782  11.852   3.974  0.4554  0.3991 -0.5784
  837MOL0    Cl12905   0.708  11.682   3.978 -0.0409  0.2259  0.0444
  837MOL0     C12906   1.928  11.801   4.052 -0.1021  0.1173  0.3712
  837MOL0     C12907   2.053  11.738   4.066 -0.1592 -0.2147  0.3609
  837MOL0     O12908   2.159  11.330   3.985  0.1194  0.0821 -0.1790
  837MOL0     C12909   2.458  11.523   4.010 -0.5005  0.7422  0.6103
  837MOL0     C12910   2.594  11.523   4.022 -0.8971 -0.8821 -0.0691
  837MOL0     N12911   3.212  11.074   4.113  0.0197 -0.6302  0.8609
  837MOL0     N12912   3.296  10.985   4.087 -0.1384  0.6821  0.3444
  837MOL0     C12913   3.738  10.366   3.651 -0.5318  0.2194  0.2298
  837MOL0     C12914   3.602  10.340   3.658 -0.8588  0.3073  0.4565
  837MOL0     C12915   3.190  10.260   3.478 -0.2728 -0.0576  0.2688
  837MOL0     C12916   3.120  10.209   3.362  0.2069 -0.5973 -0.3364
  837MOL0     C12917   2.983  10.181   3.377  0.1647 -0.8411 -0.1948
  837MOL0     C12918   2.919  10.215   3.496  0.6193 -0.0238 -0.0618
  837MOL0     O12919   2.778  10.206   3.518 -0.0934  0.3008  0.1851
  837MOL0     C12920   2.697  10.296   3.607 -0.3434  0.3952  0.8440
  837MOL0     C12921   2.547  10.264   3.613  0.7575  0.2738 -0.9547
  837MOL0     C12922   2.484  10.235   3.482  0.1042  0.8011 -0.4584
  837MOL0     C12923   2.505  10.353   3.380 -0.4079  0.2771 -0.5949
  837MOL0     C12924   2.398  10.392   3.284  0.2377 -0.5824 -1.0566
  837MOL0     C12925   2.324  10.415   3.190  0.2842 -0.0837 -0.1112
  837MOL0     C12926   2.986  10.258   3.612 -0.7209 -0.1615  1.0928
  837MOL0     C12927   3.122  10.283   3.601  0.1611 -0.1221  0.7225
  837MOL0     H12928   3.513  10.555   3.410  0.8778  0.7906  0.0644
  837MOL0     H12929   3.739  10.611   3.420 -0.1285 -1.2195 -0.9209
  837MOL0     H12930   4.092  10.531   3.478 -0.2516 -0.9143  0.2561
  837MOL0     H12931   3.960  10.642   3.433  0.3625 -1.2093 -0.8844
  837MOL0     H12932   4.088  10.644   3.710  1.8123 -1.2948 -1.2821
  837MOL0     H12933   4.101  10.764   3.578  2.2166 -0.2417  3.1412
  837MOL0     H12934   3.871  10.826   3.583  0.9226  2.2267  0.0293
  837MOL0     H12935   3.835  10.701   3.699  0.8946  0.4929  1.6050
  837MOL0     H12936   3.991  10.799   3.870  0.6012 -2.9152 -1.0789
  837MOL0     H12937   4.023  10.927   3.753 -0.3348 -2.0236 -4.6368
  837MOL0     H12938   3.883  11.038   3.886  1.3294 -2.2095  4.4818
  837MOL0     H12939   3.766  10.982   3.759  2.1530  2.3432 -1.4260
  837MOL0     H12940   3.686  10.807   3.911 -1.7160  0.4674 -0.2556
  837MOL0     H12941   3.814  10.862   4.022  1.9704 -1.0121 -3.2823
  837MOL0     H12942   3.717  11.075   4.047  2.1326 -1.6037  0.8138
  837MOL0     H12943   3.611  11.058   3.914  2.5596  0.7497 -0.9670
  837MOL0     H12944   3.582  10.948   4.187  2.1924 -1.2655 -0.8711
  837MOL0     H12945   3.505  10.850   4.054 -2.8821  0.7510 -0.4470
  837MOL0     H12946   3.515  11.229   4.123  1.1778 -1.1717 -3.8276
  837MOL0     H12947   3.254  11.361   4.255  1.2433  1.5425 -0.7193
  837MOL0     H12948   3.262  11.398   4.085 -1.8471  0.3255 -0.8266
  837MOL0     H12949   3.023  11.409   4.200 -1.3484 -0.5402 -0.6471
  837MOL0     H12950   3.035  11.233   4.208 -2.1965 -0.2810 -0.3478
  837MOL0     H12951   3.079  11.234   3.952 -2.1004  0.1191 -3.5234
  837MOL0     H12952   3.062  11.402   3.948 -0.0281  0.0123  0.0271
  837MOL0     H12953   2.850  11.210   4.019  3.7671 -1.7447 -1.2766
  837MOL0     H12954   2.871  11.282   3.863  0.6422  0.3505  0.0009
  837MOL0     H12955   2.646  11.185   3.945  0.5369 -0.1425 -1.5576
  837MOL0     H12956   2.307  11.128   4.034  1.2331 -0.8892  0.7679
  837MOL0     H12957   2.338  11.147   3.857 -0.3337 -2.1635 -0.4841
  837MOL0     H12958   2.442  11.056   3.951 -1.5880 -0.7712  0.8703
  837MOL0     H12959   1.959  11.442   3.907 -0.3328  1.4211 -2.9923
  837MOL0     H12960   1.736  11.537   3.935 -0.2377  0.6017  0.9837
  837MOL0     H12961   1.702  11.909   4.175  0.1992 -2.1278 -0.4400
  837MOL0     H12962   1.700  11.994   4.022 -0.9645  1.2665  0.8372
  837MOL0     H12963   1.487  11.877   4.198 -4.3741  1.1139 -0.2880
  837MOL0     H12964   1.489  12.029   4.108 -1.4587  0.1404  0.7683
  837MOL0     H12965   1.431  11.759   3.981  0.7020  0.7670 -0.1167
  837MOL0     H12966   1.415  11.917   3.903 -0.0326 -1.2855 -1.3312
  837MOL0     H12967   1.254  11.797   4.135  2.3974 -1.4795 -1.1040
  837MOL0     H12968   1.242  11.976   4.091 -2.2428 -0.9381  0.4880
  837MOL0     H12969   1.207  11.728   3.918 -0.5017 -0.2137  0.9232
  837MOL0     H12970   1.169  11.898   3.869 -0.7763  1.1274  1.1159
  837MOL0     H12971   1.007  11.705   4.032  0.5418  0.0795  0.3829
  837MOL0     H12972   1.029  11.875   4.093  0.5578  0.6775 -1.0031
  837MOL0     H12973   0.911  11.784   3.822 -2.5575  0.4520  0.4118
  837MOL0     H12974   0.956  11.951   3.870 -1.6903  1.1840  0.0664
  837MOL0     H12975   0.724  11.907   3.900  0.4375 -0.7974 -1.4854
  837MOL0     H12976   0.774  11.901   4.072  1.2801  0.5092 -0.5641
  837MOL0     H12977   1.918  11.906   4.080 -0.5575  0.6901 -1.7029
  837MOL0     H12978   2.148  11.786   4.086  1.5098 -1.2931 -3.8791
  837MOL0     H12979   2.406  11.618   3.999 -1.1201  0.2571 -0.9288
  837MOL0     H12980   2.658  11.607   4.045  1.3843 -2.6003  0.2436
  837MOL0     H12981   3.806  10.300   3.702 -0.1568  0.6814  0.3347
  837MOL0     H12982   3.570  10.256   3.718 -0.8870 -0.7514 -0.9866
  837MOL0     H12983   3.170  10.193   3.267  0.6492 -0.9512 -0.0498
  837MOL0     H12984   2.929  10.140   3.292  1.6115  1.4265 -2.3408
  837MOL0     H12985   2.730  10.273   3.709 -1.1934  1.9950  1.5100
  837MOL0     H12986   2.710  10.401   3.581 -0.6190  0.4104  0.7728
  837MOL0     H12987   2.493  10.337   3.673  0.7740 -1.7853  1.7537
  837MOL0     H12988   2.539  10.182   3.685 -1.4041  1.4692  0.2805
  837MOL0     H12989   2.377  10.214   3.491  0.5475 -2.1070 -0.8693
  837MOL0     H12990   2.530  10.143   3.445  1.3370  1.0997  0.2868
  837MOL0     H12991   2.583  10.318   3.311  1.3116 -0.9231  1.8069
  837MOL0     H12992   2.525  10.437   3.446 -1.0222 -0.8213  1.0567
  837MOL0     H12993   2.262  10.433   3.104 -0.9280  4.1601  1.4202
  837MOL0     H12994   2.950  10.266   3.714  1.2435  0.4890  1.7871
  837MOL0     H12995   3.187  10.318   3.680  1.5472  2.4837 -1.4427
  838MOL0     O12996   9.564  10.199  11.215  0.6879  1.0513 -0.0728
  838MOL0     C12997   9.644  10.229  11.303 -0.0546  0.9151  0.1749
  838MOL0     O12998   9.619  10.296  11.422 -0.8307  0.2972 -0.1057
  838MOL0     C12999   9.503  10.360  11.443 -0.4200 -0.3866  0.7348
  838MOL0     C13000   9.422  10.430  11.345 -0.0974 -0.2806 -0.0369
  838MOL0     C13001   9.328  10.530  11.387 -0.0441  0.0303 -0.2544
  838MOL0     C13002   9.311  10.554  11.520 -0.2291  0.2541  0.5610
  838MOL0     O13003   9.221  10.653  11.551 -0.6994  0.2676 -0.0436
  838MOL0     C13004   9.115  10.613  11.646 -0.2327  0.3083  0.5994
  838MOL0     C13005   9.008  10.732  11.639  0.2305 -0.6854 -0.0823
  838MOL0     C13006   8.862  10.679  11.690 -0.1691 -0.3753 -0.4477
  838MOL0     C13007   8.754  10.785  11.677 -0.0358  0.1708  0.8028
  838MOL0     C13008   8.635  10.744  11.768 -0.3723  0.3240 -0.2492
  838MOL0     C13009   8.535  10.642  11.714 -0.3230  0.4532 -0.9546
  838MOL0     C13010   8.429  10.586  11.819 -0.4621 -1.0222  0.2268
  838MOL0     C13011   8.366  10.708  11.881 -0.2964  0.2145 -0.8865
  838MOL0     N13012   8.251  10.689  11.973  0.0720  0.4338  0.6219
  838MOL0     C13013   8.172  10.574  11.981 -0.0939 -0.1494 -0.1967
  838MOL0     C13014   8.096  10.598  12.094 -0.7386  0.6339 -0.8043
  838MOL0     C13015   7.986  10.509  12.152  0.3846  0.2119 -0.0902
  838MOL0     C13016   7.845  10.542  12.093 -0.0002 -0.0286  0.1522
  838MOL0     C13017   7.734  10.433  12.114  0.3866 -0.9729 -0.7997
  838MOL0     C13018   7.707  10.414  12.262 -1.0271  0.0683  0.6472
  838MOL0     O13019   7.619  10.515  12.313 -0.1010  0.0937  0.2403
  838MOL0     C13020   7.494  10.521  12.269 -0.1300  0.9702 -0.0923
  838MOL0     C13021   7.400  10.418  12.280  0.5742 -0.4167 -0.1946
  838MOL0     C13022   7.270  10.440  12.233  0.1337 -0.6892 -0.9260
  838MOL0     C13023   7.162  10.342  12.245  0.3324 -0.3943 -0.2726
  838MOL0     C13024   7.233  10.568  12.180  0.0155  0.8808 -0.1941
  838MOL0     C13025   7.101  10.598  12.130 -0.0338 -0.2736 -0.4147
  838MOL0     O13026   7.063  10.508  12.029  0.4240 -0.7095  0.0393
  838MOL0     C13027   6.943  10.513  11.961  0.0618  1.1962 -0.6532
  838MOL0     C13028   6.868  10.631  11.930 -0.1200  0.4501 -0.5769
  838MOL0     C13029   6.749  10.632  11.860 -0.0545 -0.9821 -0.6750
  838MOL0     C13030   6.699  10.509  11.821 -0.5537 -0.3445  0.9235
  838MOL0     O13031   6.567  10.493  11.781  0.0275 -0.0383  0.2547
  838MOL0     C13032   6.488  10.613  11.748 -0.6339 -0.2055 -0.4358
  838MOL0     C13033   6.341  10.573  11.716  0.0043  0.0440 -0.1254
  838MOL0     C13034   6.277  10.487  11.824  0.3983 -0.2062 -0.0619
  838MOL0     C13035   6.138  10.453  11.784  0.2540 -0.0965 -0.2438
  838MOL0     C13036   6.070  10.327  11.842 -0.1155 -0.1891 -0.3262
  838MOL0     C13037   6.088  10.326  11.992  0.3498 -0.9795  0.8786
  838MOL0     C13038   5.974  10.252  12.068 -0.4957 -0.3749  0.6674
  838MOL0     C13039   5.860  10.344  12.099  0.0704 -0.0825  0.4389
  838MOL0    Cl13040   5.715  10.246  12.149  0.1273  0.3168 -0.2653
  838MOL0     C13041   6.770  10.391  11.836 -0.0326  0.2605  0.3568
  838MOL0     C13042   6.893  10.397  11.898  0.2458  0.2212 -1.2262
  838MOL0     O13043   7.046  10.703  12.165 -0.2361 -0.1925  0.3018
  838MOL0     C13044   7.335  10.667  12.162 -0.9321  0.1389  0.1724
  838MOL0     C13045   7.459  10.646  12.210  0.0560  0.0465  0.6404
  838MOL0     N13046   8.138  10.719  12.148  0.2249 -0.2750  0.0736
  838MOL0     N13047   8.227  10.770  12.082  0.0472 -0.6167 -0.4047
  838MOL0     C13048   9.390  10.496  11.619  0.1428  0.2690  0.2502
  838MOL0     C13049   9.486  10.407  11.577 -0.0432  0.1964 -0.3123
  838MOL0     C13050   9.784  10.188  11.282 -0.9160  1.0523 -0.4464
  838MOL0     C13051   9.881  10.208  11.384 -0.3888 -0.5233  0.0924
  838MOL0     C13052  10.014  10.179  11.360  0.4923 -0.4231  0.1579
  838MOL0     C13053  10.051  10.115  11.246  0.0875 -0.7177 -0.3291
  838MOL0     O13054  10.181  10.070  11.238  0.4921 -0.5567 -0.2125
  838MOL0     C13055  10.207   9.941  11.177 -0.4322 -0.5321 -1.4162
  838MOL0     C13056  10.344   9.892  11.194 -0.0622 -0.7099 -0.5429
  838MOL0     C13057  10.453   9.992  11.149  0.4012  0.2681  0.1082
  838MOL0     C13058  10.581   9.914  11.107 -0.1056 -0.1471 -0.8977
  838MOL0     C13059  10.683  10.008  11.049  0.0219 -0.4556  0.0147
  838MOL0     C13060  10.755  10.081  10.990  0.5270 -0.5607 -0.4520
  838MOL0     C13061   9.957  10.101  11.140  0.0006  0.2342  0.1641
  838MOL0     C13062   9.825  10.125  11.161 -0.3793 -0.0278 -0.1581
  838MOL0     H13063   9.436  10.418  11.238 -1.3201 -0.0839 -0.2349
  838MOL0     H13064   9.259  10.578  11.317  2.6913  4.1463 -0.4836
  838MOL0     H13065   9.075  10.515  11.618  1.6527 -0.0894 -0.9138
  838MOL0     H13066   9.151  10.605  11.749  0.2125 -1.7077  0.3263
  838MOL0     H13067   9.043  10.812  11.705  0.1147  1.6028 -2.6056
  838MOL0     H13068   9.014  10.774  11.539 -1.2680 -0.1746  0.0047
  838MOL0     H13069   8.845  10.588  11.633 -0.0989 -0.1517 -0.8318
  838MOL0     H13070   8.877  10.643  11.792 -0.6539  0.1447 -0.1835
  838MOL0     H13071   8.794  10.878  11.718  0.1195 -0.7210  2.7962
  838MOL0     H13072   8.722  10.807  11.575 -0.7357 -0.4759  0.8752
  838MOL0     H13073   8.674  10.697  11.859 -0.9161  2.7789  1.3612
  838MOL0     H13074   8.587  10.836  11.803  1.6070  0.4812  2.3006
  838MOL0     H13075   8.489  10.699  11.634 -0.7320  2.7610  0.8316
  838MOL0     H13076   8.585  10.553  11.673  1.8508  0.8431  0.6432
  838MOL0     H13077   8.353  10.529  11.766 -1.8611 -1.4548  2.5380
  838MOL0     H13078   8.475  10.525  11.897 -0.1486 -1.7970 -0.5547
  838MOL0     H13079   8.334  10.774  11.799 -0.4399  1.0198 -0.1998
  838MOL0     H13080   8.441  10.765  11.937 -2.4890  0.3311  2.1412
  838MOL0     H13081   8.161  10.488  11.916  1.7194 -2.1372  1.9785
  838MOL0     H13082   8.025  10.410  12.125  1.1852  0.9926 -1.9446
  838MOL0     H13083   7.989  10.522  12.261 -0.9107  0.8569 -0.1181
  838MOL0     H13084   7.860  10.564  11.987  2.4079 -0.0755  0.4416
  838MOL0     H13085   7.810  10.634  12.143  1.3160 -0.6518  2.3546
  838MOL0     H13086   7.782  10.338  12.088  3.7524 -0.2934  2.1639
  838MOL0     H13087   7.644  10.453  12.055  0.2778  1.2991  0.0371
  838MOL0     H13088   7.802  10.418  12.315 -2.3216  3.1143  3.0694
  838MOL0     H13089   7.666  10.314  12.282  0.2752 -1.6739 -4.0553
  838MOL0     H13090   7.425  10.322  12.324 -0.6676 -0.5670  0.2306
  838MOL0     H13091   7.069  10.385  12.283  0.0519  0.0123 -1.3891
  838MOL0     H13092   7.133  10.302  12.148 -0.5206  2.4925 -1.3081
  838MOL0     H13093   7.196  10.260  12.310  1.7075  0.8475  0.6280
  838MOL0     H13094   6.901  10.724  11.975  0.9577  0.1760 -0.7798
  838MOL0     H13095   6.700  10.726  11.835 -1.0377 -1.5493 -0.9354
  838MOL0     H13096   6.490  10.688  11.828  1.4630 -2.3055  1.6897
  838MOL0     H13097   6.538  10.668  11.668  0.6929 -0.6035  0.0907
  838MOL0     H13098   6.283  10.665  11.705 -0.9455 -0.2631  2.0133
  838MOL0     H13099   6.347  10.519  11.620 -0.5310  2.5652 -1.6708
  838MOL0     H13100   6.274  10.545  11.917 -2.0193  0.4278 -0.4548
  838MOL0     H13101   6.339  10.398  11.834  0.7142 -0.1085 -1.0332
  838MOL0     H13102   6.083  10.545  11.806  1.8773 -0.0859  5.0808
  838MOL0     H13103   6.138  10.435  11.676 -4.4851  1.4895 -0.7082
  838MOL0     H13104   6.117  10.239  11.797  0.0192  0.9215 -2.5036
  838MOL0     H13105   5.966  10.317  11.808 -0.1580  1.7158 -0.8363
  838MOL0     H13106   6.185  10.276  11.998 -0.1856 -2.2992 -0.6300
  838MOL0     H13107   6.096  10.432  12.016 -1.4041 -0.5190 -0.3294
  838MOL0     H13108   6.015  10.219  12.164 -0.9435  1.0635  1.3784
  838MOL0     H13109   5.940  10.166  12.011 -1.1466 -1.0653  2.0384
  838MOL0     H13110   5.832  10.405  12.012 -0.9296  0.2673  0.9935
  838MOL0     H13111   5.894  10.415  12.175  0.8945  0.8065 -0.7147
  838MOL0     H13112   6.729  10.296  11.804 -2.2363  1.0055  0.7701
  838MOL0     H13113   6.947  10.304  11.908  2.5658  1.6993  1.5629
  838MOL0     H13114   7.321  10.771  12.134 -0.3103  1.1612  3.2148
  838MOL0     H13115   7.537  10.719  12.195 -0.1506  0.2236  0.4349
  838MOL0     H13116   9.370  10.530  11.721 -1.8000  0.2632 -0.0772
  838MOL0     H13117   9.558  10.362  11.644 -0.7751 -1.0166 -0.3114
  838MOL0     H13118   9.852  10.251  11.479 -1.2225  0.4277 -0.5868
  838MOL0     H13119  10.082  10.207  11.440 -0.6885 -0.3857  1.1748
  838MOL0     H13120  10.137   9.866  11.214  2.8003 -1.3641  4.1518
  838MOL0     H13121  10.202   9.946  11.068  0.1689 -1.3105 -1.4924
  838MOL0     H13122  10.357   9.797  11.141  1.4510 -1.6812  1.4667
  838MOL0     H13123  10.360   9.868  11.299 -7.0567  0.3555  1.2667
  838MOL0     H13124  10.476  10.066  11.227 -0.2068 -0.4588  0.9901
  838MOL0     H13125  10.419  10.054  11.066 -0.1394  1.1910  0.9856
  838MOL0     H13126  10.552   9.830  11.043 -1.5284 -0.9976  0.7854
  838MOL0     H13127  10.629   9.870  11.195  0.6243  1.6082 -0.3760
  838MOL0     H13128  10.829  10.135  10.934 -0.0039  0.9251  0.2183
  838MOL0     H13129   9.980  10.060  11.042 -1.0091 -0.6628  0.2884
  838MOL0     H13130   9.747  10.115  11.087 -2.6985  0.3067  2.1202
  839MOL0     O13131   8.879   5.852   0.862 -0.3402  0.0114  0.8981
  839MOL0     C13132   8.895   5.728   0.867  0.8678 -0.3638  0.0380
  839MOL0     O13133   8.814   5.626   0.811 -0.0933 -0.1618  0.0800
  839MOL0     C13134   8.709   5.664   0.728  0.3615 -0.0680 -0.3185
  839MOL0     C13135   8.587   5.682   0.795 -0.0877  0.3597  0.1452
  839MOL0     C13136   8.473   5.728   0.729  0.3532  0.2932  0.5991
  839MOL0     C13137   8.473   5.744   0.588  0.5452 -0.5436 -0.0024
  839MOL0     O13138   8.358   5.790   0.528 -0.0877  0.1204  0.1137
  839MOL0     C13139   8.242   5.706   0.539 -0.2421  0.1529 -0.2147
  839MOL0     C13140   8.120   5.789   0.578 -0.6698 -0.2406  0.1202
  839MOL0     C13141   7.985   5.729   0.536  1.0262  0.3629  0.3101
  839MOL0     C13142   7.866   5.824   0.580 -0.1602 -0.0067 -0.1524
  839MOL0     C13143   7.863   5.967   0.518  0.1400  0.1892 -0.1254
  839MOL0     C13144   7.798   6.071   0.615 -0.1909 -0.7732  0.6516
  839MOL0     C13145   7.826   6.219   0.565 -0.2698  0.2841 -0.6279
  839MOL0     C13146   7.754   6.260   0.439 -0.6131 -0.4408  0.6236
  839MOL0     N13147   7.611   6.260   0.455  0.4208 -1.2185  0.2124
  839MOL0     C13148   7.541   6.378   0.498  0.1022  0.0054  0.9374
  839MOL0     C13149   7.411   6.359   0.475 -0.1686 -0.5978 -0.4225
  839MOL0     C13150   7.299   6.459   0.508  0.0718 -0.6462 -0.0386
  839MOL0     C13151   7.173   6.416   0.427  0.4591  0.3071 -0.6663
  839MOL0     C13152   7.056   6.506   0.455  0.2941 -0.6291  0.2803
  839MOL0     C13153   6.943   6.489   0.351 -0.4620 -0.2455  0.2864
  839MOL0     O13154   6.876   6.377   0.382 -0.2126 -0.2720 -0.0949
  839MOL0     C13155   6.751   6.359   0.329  0.4627 -0.1140  0.0035
  839MOL0     C13156   6.694   6.434   0.224  0.6423  0.2932  0.1486
  839MOL0     C13157   6.572   6.406   0.161  0.5399  0.0583 -0.7951
  839MOL0     C13158   6.528   6.505   0.053  0.4996  0.2690  0.2106
  839MOL0     C13159   6.497   6.293   0.206 -0.0634 -0.1828 -0.3819
  839MOL0     C13160   6.370   6.243   0.138 -0.4267  0.0008  0.1930
  839MOL0     O13161   6.315   6.130   0.184 -0.1720  0.2026 -0.4487
  839MOL0     C13162   6.174   6.117   0.167  0.2553 -0.3611  0.7440
  839MOL0     C13163   6.112   6.042   0.071 -0.0323  0.7554  0.0470
  839MOL0     C13164   5.973   6.037   0.059 -0.6882 -0.4587  0.1400
  839MOL0     C13165   5.893   6.111   0.155  0.9614 -0.1092  0.0786
  839MOL0     O13166   5.755   6.113   0.144  0.6771  0.0677 -0.0628
  839MOL0     C13167   5.684   6.023   0.064  0.0459 -0.2662  0.3466
  839MOL0     C13168   5.559   5.966   0.129 -0.1167 -0.3018 -0.4509
  839MOL0     C13169   5.427   6.059   0.114  0.7243  0.0527  0.0791
  839MOL0     C13170   5.437   6.196   0.170  0.8982  0.5195  0.2121
  839MOL0     C13171   5.297   6.262   0.153 -0.0275 -0.2460 -0.1879
  839MOL0     C13172   5.293   6.376   0.258 -0.4557 -0.4667  0.1274
  839MOL0     C13173   5.158   6.454   0.246 -0.4379  0.1775  0.4983
  839MOL0     C13174   5.115   6.542   0.367  0.1713  0.0146  0.0470
  839MOL0    Cl13175   4.990   6.658   0.310  0.1354 -0.0265 -0.1744
  839MOL0     C13176   5.952   6.185   0.251  0.6571 -0.2413  0.4633
  839MOL0     C13177   6.089   6.185   0.257  0.4138  0.3181 -0.0838
  839MOL0     O13178   6.324   6.303   0.042  0.3259 -0.2704 -0.4206
  839MOL0     C13179   6.548   6.214   0.310  0.1154  0.1802 -0.7626
  839MOL0     C13180   6.679   6.244   0.373  0.1275 -0.0061  0.1108
  839MOL0     N13181   7.399   6.234   0.413  1.2106  0.4105 -0.2267
  839MOL0     N13182   7.515   6.172   0.408 -0.2976 -0.1023 -0.1444
  839MOL0     C13183   8.599   5.728   0.520  0.5199  0.0002 -0.6455
  839MOL0     C13184   8.714   5.690   0.594 -0.1660 -0.1872  0.4094
  839MOL0     C13185   9.015   5.680   0.939 -0.1932 -0.0822  0.5349
  839MOL0     C13186   9.023   5.545   0.985 -0.3263 -0.2566  0.2487
  839MOL0     C13187   9.142   5.490   1.034 -0.5095 -0.5700 -0.2492
  839MOL0     C13188   9.249   5.572   1.067  0.0264  0.5170  0.3143
  839MOL0     O13189   9.368   5.539   1.124  0.2182  0.0722  0.2095
  839MOL0     C13190   9.388   5.396   1.152  1.1782  0.1278  0.4848
  839MOL0     C13191   9.512   5.377   1.247  0.3120  1.4288 -0.1122
  839MOL0     C13192   9.644   5.383   1.157  0.9662 -0.3027  0.3542
  839MOL0     C13193   9.763   5.350   1.247 -0.4960 -0.1491  0.4292
  839MOL0     C13194   9.890   5.395   1.190  0.3654  0.4256  0.5469
  839MOL0     C13195   9.996   5.439   1.142  0.1725  0.3980 -0.2718
  839MOL0     C13196   9.240   5.707   1.014 -1.3859  0.2934 -0.8696
  839MOL0     C13197   9.128   5.761   0.957 -0.0912  0.1995 -0.5486
  839MOL0     H13198   8.575   5.654   0.899  1.0037 -2.6844 -0.4404
  839MOL0     H13199   8.375   5.744   0.774  0.5698  2.2807  0.4678
  839MOL0     H13200   8.227   5.650   0.446 -2.1732  1.0997 -0.5091
  839MOL0     H13201   8.264   5.640   0.623  1.4205  1.9782  0.8662
  839MOL0     H13202   8.117   5.803   0.686 -0.7328  2.7269 -0.1749
  839MOL0     H13203   8.131   5.887   0.531 -0.6241 -0.6073 -0.6465
  839MOL0     H13204   7.990   5.719   0.428  1.9083 -1.5260  0.4871
  839MOL0     H13205   7.964   5.633   0.583 -0.3525  0.9896  1.0461
  839MOL0     H13206   7.765   5.789   0.554 -0.9571  2.0462 -0.0762
  839MOL0     H13207   7.879   5.828   0.688 -1.1449 -0.3116 -0.0121
  839MOL0     H13208   7.964   6.004   0.499  0.0016 -0.4612 -2.3391
  839MOL0     H13209   7.808   5.952   0.425 -2.5414 -1.7269  1.6250
  839MOL0     H13210   7.691   6.055   0.634 -0.7795  1.8375 -0.0082
  839MOL0     H13211   7.848   6.050   0.709 -0.1037 -1.6280  0.4194
  839MOL0     H13212   7.794   6.283   0.648  0.0053 -0.2972 -0.0605
  839MOL0     H13213   7.935   6.227   0.558  0.1354 -1.3088  2.1835
  839MOL0     H13214   7.780   6.192   0.357 -3.6388 -2.5389  1.2238
  839MOL0     H13215   7.783   6.359   0.403 -3.5478  0.2111 -0.2794
  839MOL0     H13216   7.580   6.464   0.551  2.2472 -1.7231  2.3715
  839MOL0     H13217   7.285   6.459   0.616  1.4366  0.7908  0.1621
  839MOL0     H13218   7.325   6.558   0.469  0.1221 -1.3257 -1.8554
  839MOL0     H13219   7.150   6.312   0.452  0.8398  0.1898 -0.7945
  839MOL0     H13220   7.205   6.419   0.323  2.7775  0.7610 -0.0046
  839MOL0     H13221   7.086   6.611   0.458 -2.7430  0.5748 -3.0238
  839MOL0     H13222   7.019   6.483   0.555 -0.1002 -1.9205 -0.1393
  839MOL0     H13223   6.992   6.485   0.253  2.2336  0.6644  1.4871
  839MOL0     H13224   6.876   6.575   0.352 -1.8392 -1.0195 -4.1063
  839MOL0     H13225   6.751   6.518   0.187  1.2856  0.6087  1.7761
  839MOL0     H13226   6.610   6.574   0.030  2.2770 -2.2459 -1.5870
  839MOL0     H13227   6.515   6.454  -0.043  1.1838  1.9452 -0.8251
  839MOL0     H13228   6.438   6.564   0.073  2.9714  4.1089  1.2264
  839MOL0     H13229   6.163   5.981  -0.003 -1.7967  0.2844 -0.8311
  839MOL0     H13230   5.925   5.987  -0.024 -3.8791  1.7418  0.4558
  839MOL0     H13231   5.661   6.064  -0.035 -2.0827 -0.3624  0.7670
  839MOL0     H13232   5.744   5.936   0.036  0.5760  0.0737  0.3968
  839MOL0     H13233   5.525   5.870   0.089 -0.6981 -0.2117 -0.1781
  839MOL0     H13234   5.580   5.936   0.232  3.9762 -2.1495 -1.5813
  839MOL0     H13235   5.343   6.005   0.158  1.0867 -0.2661  0.3981
  839MOL0     H13236   5.405   6.061   0.007 -0.1880  0.1957  0.2623
  839MOL0     H13237   5.457   6.185   0.277 -0.3970 -0.9896  0.3426
  839MOL0     H13238   5.515   6.258   0.126  2.7681 -1.1260  1.0557
  839MOL0     H13239   5.221   6.184   0.161  2.2809 -2.8637 -1.9024
  839MOL0     H13240   5.279   6.302   0.053 -0.9719  1.3046  0.5510
  839MOL0     H13241   5.319   6.331   0.355 -1.7815 -2.1425 -0.2418
  839MOL0     H13242   5.369   6.444   0.219 -0.5563 -1.4961 -1.9950
  839MOL0     H13243   5.086   6.375   0.225 -1.9056  1.4963  0.3983
  839MOL0     H13244   5.164   6.513   0.154  1.6716 -0.5548  0.1049
  839MOL0     H13245   5.206   6.591   0.402  1.1333 -0.9772 -0.9892
  839MOL0     H13246   5.075   6.473   0.441 -1.8861  0.2844 -0.7440
  839MOL0     H13247   5.886   6.237   0.320 -0.7103  1.3056 -1.8850
  839MOL0     H13248   6.141   6.233   0.340 -0.1918  0.2188  0.3584
  839MOL0     H13249   6.500   6.125   0.349  3.3053 -0.8123  1.1916
  839MOL0     H13250   6.727   6.173   0.439 -0.5362 -2.2524 -1.6869
  839MOL0     H13251   8.607   5.730   0.412  0.0547 -2.1924 -0.7700
  839MOL0     H13252   8.809   5.681   0.543  0.4612  2.2288  1.0027
  839MOL0     H13253   8.937   5.481   0.964  0.7659 -1.3473 -1.0566
  839MOL0     H13254   9.147   5.386   1.065 -0.3694 -1.0228 -1.7377
  839MOL0     H13255   9.307   5.351   1.208  0.3728  2.4109  1.2750
  839MOL0     H13256   9.384   5.339   1.059 -1.4973  0.3564  0.3812
  839MOL0     H13257   9.509   5.272   1.275  1.3751  0.8919 -1.8780
  839MOL0     H13258   9.510   5.450   1.329  1.3604 -0.5765  1.7803
  839MOL0     H13259   9.658   5.486   1.122  0.2430 -0.0314  0.8406
  839MOL0     H13260   9.648   5.311   1.074  3.9344  0.5121 -0.3174
  839MOL0     H13261   9.762   5.243   1.272  0.1524 -0.3379 -0.3410
  839MOL0     H13262   9.745   5.408   1.338  1.6142  1.7626 -0.2954
  839MOL0     H13263  10.088   5.485   1.113  0.6307 -0.5811 -0.4090
  839MOL0     H13264   9.328   5.768   1.035 -0.2358 -0.8176 -2.2438
  839MOL0     H13265   9.122   5.865   0.926  1.5477  0.5852  0.2995
  840MOL0     O13266   1.688   7.311   2.368 -0.0994 -0.7036 -0.5601
  840MOL0     C13267   1.712   7.391   2.454  0.3099 -0.5084 -0.6695
  840MOL0     O13268   1.628   7.437   2.550 -0.5565  0.5491 -0.0421
  840MOL0     C13269   1.504   7.379   2.557 -0.0689 -0.4431  0.3288
  840MOL0     C13270   1.470   7.307   2.668  0.5548 -0.5294  0.3961
  840MOL0     C13271   1.350   7.228   2.671  0.3792 -0.0332 -0.9290
  840MOL0     C13272   1.250   7.243   2.577 -0.4528  0.4673  0.1579
  840MOL0     O13273   1.135   7.170   2.596 -0.3059 -0.7502  0.4955
  840MOL0     C13274   1.027   7.195   2.508  0.9045  0.0141  0.5853
  840MOL0     C13275   0.908   7.112   2.553  0.2139  0.4873 -0.2435
  840MOL0     C13276   0.914   6.964   2.512 -0.4461  0.4405  0.3463
  840MOL0     C13277   0.777   6.910   2.481  0.6621  0.3639 -0.4740
  840MOL0     C13278   0.780   6.789   2.390  0.2391  0.0780  0.1333
  840MOL0     C13279   0.647   6.722   2.368 -0.2116 -0.3348 -0.7527
  840MOL0     C13280   0.649   6.579   2.308  0.2730 -0.2735 -0.2906
  840MOL0     C13281   0.745   6.478   2.380 -0.1463 -0.1868  0.4293
  840MOL0     N13282   0.877   6.474   2.318  1.1077  0.1180  0.3663
  840MOL0     C13283   0.993   6.509   2.383  0.0336  0.0735  0.6475
  840MOL0     C13284   1.094   6.472   2.295 -0.0529 -0.3720 -0.0813
  840MOL0     C13285   1.242   6.484   2.320 -0.2211  0.0656  0.1817
  840MOL0     C13286   1.294   6.431   2.462  0.2134 -0.0007 -0.5747
  840MOL0     C13287   1.244   6.294   2.473 -0.4957  0.0998 -0.6976
  840MOL0     C13288   1.282   6.222   2.602 -0.1569 -0.0804  0.4990
  840MOL0     O13289   1.229   6.287   2.713 -0.5251  0.1116  0.3222
  840MOL0     C13290   1.313   6.375   2.781  0.3453  0.7758 -0.0994
  840MOL0     C13291   1.273   6.507   2.805 -0.5822 -0.0510  0.4521
  840MOL0     C13292   1.347   6.599   2.878  0.0407  0.0033  0.8234
  840MOL0     C13293   1.278   6.738   2.890  0.3056  0.0160  0.7353
  840MOL0     C13294   1.474   6.556   2.931  0.5651  0.3990  0.5825
  840MOL0     C13295   1.559   6.648   3.013 -0.8648 -0.1277 -0.1909
  840MOL0     O13296   1.686   6.602   3.033 -0.3130 -0.1979  0.0934
  840MOL0     C13297   1.781   6.685   3.094 -0.7371 -1.1251  0.1091
  840MOL0     C13298   1.818   6.671   3.228 -0.5793 -0.3757 -0.2110
  840MOL0     C13299   1.919   6.745   3.288 -0.5374  0.1169 -0.9127
  840MOL0     C13300   1.990   6.842   3.213 -0.7517 -0.4713  0.3125
  840MOL0     O13301   2.077   6.929   3.265  0.2783 -0.2197 -0.0003
  840MOL0     C13302   2.129   6.930   3.405 -0.0170 -0.4297  0.3506
  840MOL0     C13303   2.247   7.026   3.403 -0.3862 -0.0771 -0.7408
  840MOL0     C13304   2.305   7.049   3.546  0.9029  0.1554 -0.0155
  840MOL0     C13305   2.418   6.957   3.582 -0.5445  0.3395  0.6701
  840MOL0     C13306   2.499   7.027   3.694 -0.4783 -0.0205  0.4475
  840MOL0     C13307   2.600   6.921   3.745  1.0575 -0.4828  0.1518
  840MOL0     C13308   2.689   6.980   3.854 -0.3723 -0.2653  0.1955
  840MOL0     C13309   2.814   6.899   3.879  0.4098 -0.1371 -0.8779
  840MOL0    Cl13310   2.770   6.739   3.939 -0.0325  0.0883 -0.0357
  840MOL0     C13311   1.946   6.867   3.078 -0.3908  0.1185 -0.4787
  840MOL0     C13312   1.849   6.779   3.023  0.1112  0.1862 -0.5175
  840MOL0     O13313   1.516   6.751   3.060 -0.6692 -0.3871 -0.3767
  840MOL0     C13314   1.512   6.426   2.908  0.0036 -0.0343 -0.7127
  840MOL0     C13315   1.434   6.345   2.834 -0.2760  0.5039  0.4542
  840MOL0     N13316   1.040   6.412   2.184 -0.1591  0.0460 -0.4170
  840MOL0     N13317   0.911   6.421   2.195  0.3180  0.4024  0.5974
  840MOL0     C13318   1.278   7.329   2.468 -0.0573  0.2825  0.2730
  840MOL0     C13319   1.414   7.377   2.452  0.5594  0.0017 -0.5125
  840MOL0     C13320   1.842   7.462   2.440  0.0258 -0.1799  0.6100
  840MOL0     C13321   1.936   7.423   2.350 -0.4905 -0.8415 -0.2373
  840MOL0     C13322   2.065   7.477   2.347  0.1066  0.1080 -0.8166
  840MOL0     C13323   2.111   7.574   2.436 -0.8901 -0.2336 -0.3743
  840MOL0     O13324   2.245   7.606   2.425 -0.0385 -0.2200  0.1909
  840MOL0     C13325   2.300   7.723   2.497  0.2285 -0.8132  0.5962
  840MOL0     C13326   2.270   7.861   2.426 -0.6546 -0.1589  0.2774
  840MOL0     C13327   2.338   7.872   2.289  0.3058  0.3346  0.0515
  840MOL0     C13328   2.275   7.983   2.201  1.3515 -0.2602  0.3969
  840MOL0     C13329   2.130   7.962   2.176  0.5002  0.2562 -0.1780
  840MOL0     C13330   2.008   7.949   2.167  0.1332  0.5927 -0.1141
  840MOL0     C13331   2.020   7.619   2.534 -0.9237 -0.7746  0.7439
  840MOL0     C13332   1.886   7.566   2.535 -0.1596  0.1968 -0.3496
  840MOL0     H13333   1.538   7.294   2.751 -0.1788 -1.3748  0.8833
  840MOL0     H13334   1.334   7.149   2.743  0.8467 -0.6496 -1.4839
  840MOL0     H13335   0.991   7.297   2.493  0.6415 -0.0717  0.6169
  840MOL0     H13336   1.066   7.161   2.412 -0.6733  0.8255 -0.3876
  840MOL0     H13337   0.898   7.110   2.662 -1.0264  0.4620 -0.3487
  840MOL0     H13338   0.821   7.167   2.518  1.6071  0.7308 -3.6270
  840MOL0     H13339   0.976   6.959   2.423 -0.4285  0.5639  0.3508
  840MOL0     H13340   0.962   6.907   2.593  0.8313  2.5623  1.1683
  840MOL0     H13341   0.726   6.880   2.573 -1.2878  0.0584 -1.6065
  840MOL0     H13342   0.715   6.984   2.430 -1.3739 -1.8186 -1.3675
  840MOL0     H13343   0.822   6.815   2.293  3.6622  1.3860  1.8279
  840MOL0     H13344   0.837   6.713   2.443  0.8243  1.5807  1.7709
  840MOL0     H13345   0.595   6.699   2.461  2.1613 -2.2802  0.2186
  840MOL0     H13346   0.588   6.789   2.304  0.7412 -0.1699 -1.4966
  840MOL0     H13347   0.548   6.544   2.329 -0.6551  3.3862  2.1540
  840MOL0     H13348   0.677   6.579   2.202  1.2067 -0.2415 -0.0570
  840MOL0     H13349   0.698   6.380   2.381  0.9767 -0.7372  0.1411
  840MOL0     H13350   0.758   6.501   2.487 -1.9250 -1.4888  0.9672
  840MOL0     H13351   0.998   6.545   2.485  0.5819 -0.4259  0.8094
  840MOL0     H13352   1.301   6.437   2.241 -0.9967  2.6559 -2.0858
  840MOL0     H13353   1.276   6.588   2.328  0.5462 -0.3029  3.7494
  840MOL0     H13354   1.255   6.500   2.537 -0.7186  0.6047 -1.5913
  840MOL0     H13355   1.403   6.436   2.459  0.1544  1.0412 -2.0138
  840MOL0     H13356   1.283   6.238   2.387  1.4260 -0.6095  0.5559
  840MOL0     H13357   1.135   6.304   2.474 -0.4025  1.8858  2.5161
  840MOL0     H13358   1.391   6.213   2.605  0.0080 -0.7327 -2.9708
  840MOL0     H13359   1.234   6.124   2.602 -1.4487  0.5169 -0.6425
  840MOL0     H13360   1.176   6.533   2.764 -0.0998  1.4051  0.2017
  840MOL0     H13361   1.339   6.823   2.921 -0.0708  2.0297 -3.3115
  840MOL0     H13362   1.265   6.773   2.787  0.3216  0.5925  0.9231
  840MOL0     H13363   1.179   6.734   2.936 -0.2071  2.2485 -0.0205
  840MOL0     H13364   1.764   6.602   3.292 -2.8809  3.0175  1.8815
  840MOL0     H13365   1.945   6.730   3.392 -0.5677  0.0462 -0.9159
  840MOL0     H13366   2.047   6.965   3.470  0.6114  1.2147  0.3182
  840MOL0     H13367   2.161   6.831   3.438  0.5280 -0.1512  0.6714
  840MOL0     H13368   2.314   6.976   3.333 -5.0482 -4.0668 -2.9785
  840MOL0     H13369   2.234   7.126   3.361  0.2846 -0.0044 -0.7847
  840MOL0     H13370   2.224   7.028   3.617  1.7243 -0.2612  0.8169
  840MOL0     H13371   2.322   7.157   3.551  1.2759  0.0609  0.9792
  840MOL0     H13372   2.387   6.859   3.618 -0.0865 -0.5263 -1.1936
  840MOL0     H13373   2.486   6.947   3.497  1.1794  3.5404  1.4830
  840MOL0     H13374   2.432   7.062   3.773 -2.3189 -0.2676 -0.9333
  840MOL0     H13375   2.553   7.115   3.658 -1.8199  0.1381 -1.3387
  840MOL0     H13376   2.562   6.831   3.793  2.8178 -1.9318 -1.0313
  840MOL0     H13377   2.667   6.902   3.661  0.3973  0.1752 -0.5455
  840MOL0     H13378   2.632   6.988   3.946  1.0311  0.3666  1.0412
  840MOL0     H13379   2.722   7.080   3.823 -2.7879  0.4578 -0.3157
  840MOL0     H13380   2.869   6.958   3.953  0.3359  1.2793 -1.9275
  840MOL0     H13381   2.877   6.890   3.790 -0.3267 -1.4249 -1.2964
  840MOL0     H13382   1.997   6.940   3.016  1.3340 -1.4732 -1.0497
  840MOL0     H13383   1.833   6.788   2.916 -0.6640  2.2860 -0.2750
  840MOL0     H13384   1.604   6.389   2.951  3.2171  5.3277 -1.8994
  840MOL0     H13385   1.465   6.245   2.804  0.7026  1.4738 -1.9872
  840MOL0     H13386   1.208   7.342   2.386 -0.5847 -3.0652  0.0511
  840MOL0     H13387   1.446   7.436   2.366  2.3956  0.7112  0.6104
  840MOL0     H13388   1.913   7.342   2.282 -1.2866  0.2231 -1.2729
  840MOL0     H13389   2.130   7.442   2.267 -0.3691 -0.9135 -0.7788
  840MOL0     H13390   2.277   7.723   2.604  1.5083  1.2838  0.9157
  840MOL0     H13391   2.408   7.705   2.503  0.8247  2.3994  1.1514
  840MOL0     H13392   2.292   7.943   2.495 -2.5071  1.1556 -0.6167
  840MOL0     H13393   2.161   7.866   2.419 -0.8022 -0.3981  2.0299
  840MOL0     H13394   2.339   7.774   2.241  0.0215 -0.8078  2.2601
  840MOL0     H13395   2.443   7.893   2.311  0.6876 -1.1400 -0.3040
  840MOL0     H13396   2.321   7.978   2.102 -1.1325 -2.5037 -0.7691
  840MOL0     H13397   2.289   8.084   2.240 -1.1996  0.5628 -0.5959
  840MOL0     H13398   1.902   7.936   2.164  0.1339 -0.1825  1.7440
  840MOL0     H13399   2.052   7.686   2.613  0.9321 -1.2282  0.4258
  840MOL0     H13400   1.821   7.592   2.618  2.7190  2.4345  1.4207
  841MOL0     O13401   4.865   0.349   9.861  0.4977 -0.6330  0.3245
  841MOL0     C13402   4.875   0.263   9.947 -0.3779  0.0328  0.2536
  841MOL0     O13403   4.824   0.139   9.929 -0.7040 -0.2427  0.0427
  841MOL0     C13404   4.733   0.101   9.834  0.8209  0.5752  0.5163
  841MOL0     C13405   4.751  -0.027   9.771 -0.4225 -0.5388 -0.7305
  841MOL0     C13406   4.647  -0.090   9.687 -0.4891 -0.0322 -1.4434
  841MOL0     C13407   4.530  -0.038   9.666  0.4136 -1.0288 -0.6239
  841MOL0     O13408   4.444  -0.111   9.584  0.3190 -0.9224  0.7596
  841MOL0     C13409   4.334  -0.039   9.518 -0.2040  0.1698 -1.4299
  841MOL0     C13410   4.377   0.015   9.383  0.0849 -1.1146  0.9243
  841MOL0     C13411   4.263   0.068   9.300 -0.3836  0.6821  0.1310
  841MOL0     C13412   4.180   0.169   9.376  0.2791  0.5542  0.2288
  841MOL0     C13413   4.094   0.257   9.277  0.2278 -0.4796  0.1124
  841MOL0     C13414   4.007   0.170   9.195 -0.1818 -0.0676 -0.2120
  841MOL0     C13415   3.921   0.255   9.095  0.0055  1.4364  0.3835
  841MOL0     C13416   3.820   0.359   9.136 -0.3537 -1.0782 -0.5562
  841MOL0     N13417   3.712   0.373   9.033 -0.2393 -0.3883  0.3197
  841MOL0     C13418   3.724   0.437   8.916  0.0977 -0.0078  0.0714
  841MOL0     C13419   3.597   0.433   8.866  0.2844 -1.0926  0.6199
  841MOL0     C13420   3.575   0.508   8.726 -0.1309  0.3864 -0.1259
  841MOL0     C13421   3.423   0.508   8.696  0.2981  0.3261 -0.1762
  841MOL0     C13422   3.342   0.604   8.788  0.7830 -0.0197  0.2528
  841MOL0     C13423   3.188   0.600   8.752  0.0215  0.2009 -0.2636
  841MOL0     O13424   3.119   0.485   8.816  0.2415 -0.2262  0.0910
  841MOL0     C13425   2.979   0.496   8.823  0.2464  0.3545 -0.1342
  841MOL0     C13426   2.896   0.544   8.720 -0.6776 -0.3427  0.1221
  841MOL0     C13427   2.758   0.538   8.728  0.9452 -0.1851 -0.0312
  841MOL0     C13428   2.672   0.611   8.621 -0.5370  0.7363 -0.0412
  841MOL0     C13429   2.694   0.464   8.831  0.1997  0.8412  0.1978
  841MOL0     C13430   2.548   0.452   8.851  0.4470  0.6506  0.5165
  841MOL0     O13431   2.469   0.557   8.801  0.0251 -0.3479  0.6889
  841MOL0     C13432   2.334   0.550   8.811  0.0105  0.2352 -0.0434
  841MOL0     C13433   2.255   0.628   8.903  0.3772  0.2954 -0.4849
  841MOL0     C13434   2.117   0.607   8.908 -0.3123  0.2210  0.6667
  841MOL0     C13435   2.059   0.514   8.816 -0.5889  0.1247  0.7610
  841MOL0     O13436   1.927   0.492   8.796 -0.5320  0.1613  0.1527
  841MOL0     C13437   1.824   0.568   8.873  0.5298 -0.8070 -0.4823
  841MOL0     C13438   1.673   0.520   8.844  0.3991  0.3308 -0.2058
  841MOL0     C13439   1.659   0.365   8.861  0.3119  0.4827 -0.3381
  841MOL0     C13440   1.675   0.327   9.011  0.0270  0.4484  0.7367
  841MOL0     C13441   1.656   0.183   9.041  0.3245 -0.0015 -0.7572
  841MOL0     C13442   1.754   0.087   8.965 -0.2742 -0.1717 -0.1099
  841MOL0     C13443   1.904   0.119   8.989 -0.9595 -0.3334 -0.8375
  841MOL0     C13444   1.980  -0.013   8.981  0.5864  0.4183  0.3191
  841MOL0    Cl13445   2.162   0.021   8.987 -0.3183 -0.0013  0.7462
  841MOL0     C13446   2.141   0.436   8.729 -0.0821 -0.1797  0.1591
  841MOL0     C13447   2.272   0.468   8.722  0.1628  0.4327  0.7803
  841MOL0     O13448   2.505   0.352   8.907  0.0778  0.1053 -0.0501
  841MOL0     C13449   2.775   0.404   8.926 -0.8249  0.0147 -0.3860
  841MOL0     C13450   2.912   0.432   8.928  0.1239  0.0010  0.0295
  841MOL0     N13451   3.514   0.369   8.952  1.1110 -0.2521 -0.2988
  841MOL0     N13452   3.586   0.323   9.049  0.1327 -0.5561 -0.0776
  841MOL0     C13453   4.511   0.091   9.727  0.2871  0.1922 -0.1552
  841MOL0     C13454   4.605   0.162   9.808 -0.0665  0.5836 -0.5341
  841MOL0     C13455   4.929   0.305  10.074  0.4883  0.5064 -1.1630
  841MOL0     C13456   4.925   0.211  10.180 -0.3125  0.3264 -0.2661
  841MOL0     C13457   4.975   0.243  10.312  0.5715 -0.6824 -0.6404
  841MOL0     C13458   5.039   0.368  10.332 -0.3794 -0.5192 -0.6493
  841MOL0     O13459   5.070   0.421  10.449  0.0402  0.3305 -0.5464
  841MOL0     C13460   5.047   0.351  10.571  0.7499  0.1407  0.8027
  841MOL0     C13461   5.160   0.243  10.583 -0.1649 -0.2732 -0.2657
  841MOL0     C13462   5.304   0.303  10.556 -0.4199 -0.2659  0.0931
  841MOL0     C13463   5.406   0.209  10.616  0.1523 -0.2707  0.1240
  841MOL0     C13464   5.550   0.229  10.573 -0.2901 -0.8905 -0.5153
  841MOL0     C13465   5.669   0.242  10.538 -0.3863 -0.2217  0.0487
  841MOL0     C13466   5.045   0.459  10.222 -0.2916  0.1572  0.0884
  841MOL0     C13467   4.986   0.427  10.102  0.4989 -0.2695  0.7640
  841MOL0     H13468   4.842  -0.081   9.795 -1.2511 -1.1463  1.3501
  841MOL0     H13469   4.690  -0.181   9.646  2.4699 -0.0126  1.2350
  841MOL0     H13470   4.255  -0.110   9.490 -0.4343  0.4283 -1.4327
  841MOL0     H13471   4.299   0.045   9.578  3.7196  0.4960  0.8059
  841MOL0     H13472   4.453   0.094   9.389  0.6912 -1.7328  1.7815
  841MOL0     H13473   4.433  -0.064   9.332  1.8696  0.0657  0.9746
  841MOL0     H13474   4.301   0.117   9.210 -2.9367  2.3691 -0.1238
  841MOL0     H13475   4.205  -0.017   9.263  0.0776  1.0711 -1.5516
  841MOL0     H13476   4.122   0.103   9.441 -0.2248 -1.9575 -2.5548
  841MOL0     H13477   4.243   0.240   9.430  1.1928  0.3196 -0.4923
  841MOL0     H13478   4.030   0.331   9.327  1.7759 -0.5541  2.3631
  841MOL0     H13479   4.161   0.319   9.216 -2.5901  0.7750 -1.9194
  841MOL0     H13480   4.070   0.101   9.137  0.7962  1.8136 -1.4780
  841MOL0     H13481   3.952   0.101   9.259  1.1044 -0.7532  0.2010
  841MOL0     H13482   3.990   0.297   9.021 -0.0235  0.1336 -0.4206
  841MOL0     H13483   3.857   0.178   9.049 -0.3657  0.8584  1.8252
  841MOL0     H13484   3.889   0.444   9.135  1.5365 -2.5266 -0.6919
  841MOL0     H13485   3.770   0.352   9.233 -2.8558 -0.8134 -1.7497
  841MOL0     H13486   3.798   0.500   8.868 -0.5156 -1.8425 -3.7193
  841MOL0     H13487   3.609   0.612   8.735  0.8812 -0.1159  3.6388
  841MOL0     H13488   3.636   0.458   8.650 -0.5142  1.6871 -1.3436
  841MOL0     H13489   3.384   0.406   8.705 -0.5987  0.6084 -0.7560
  841MOL0     H13490   3.415   0.553   8.596  0.3916  0.7421  0.0022
  841MOL0     H13491   3.370   0.707   8.763 -1.2650  0.0765 -2.1494
  841MOL0     H13492   3.369   0.586   8.892  0.7641  1.9543  0.6419
  841MOL0     H13493   3.176   0.594   8.644  1.7432  1.0972 -0.5287
  841MOL0     H13494   3.142   0.694   8.783 -3.4006 -1.0950 -0.9218
  841MOL0     H13495   2.942   0.601   8.640  0.2450  1.3088  1.7695
  841MOL0     H13496   2.728   0.611   8.527  1.3905 -0.5640  1.0293
  841MOL0     H13497   2.576   0.563   8.602 -1.0926  0.4337  2.9144
  841MOL0     H13498   2.665   0.715   8.652 -2.5270  0.6440 -0.0457
  841MOL0     H13499   2.300   0.690   8.980 -0.1478 -1.4962  1.3593
  841MOL0     H13500   2.056   0.663   8.979 -1.1827  0.4571 -0.2424
  841MOL0     H13501   1.837   0.556   8.981  0.3544 -0.2563 -0.4004
  841MOL0     H13502   1.838   0.674   8.850  2.8565 -0.3719  2.3661
  841MOL0     H13503   1.609   0.566   8.920  0.6641  0.6483 -0.1739
  841MOL0     H13504   1.641   0.555   8.745  2.1074  3.2076  0.1431
  841MOL0     H13505   1.742   0.321   8.806  1.8414  2.7798  0.0099
  841MOL0     H13506   1.559   0.343   8.823  0.2217  1.6994 -0.8425
  841MOL0     H13507   1.776   0.343   9.050  0.6368 -1.3656 -0.0184
  841MOL0     H13508   1.606   0.392   9.066  1.2834  0.4921  2.3549
  841MOL0     H13509   1.557   0.148   9.009 -0.5348  1.2905  0.3570
  841MOL0     H13510   1.670   0.182   9.150  1.5022  2.3457 -0.8290
  841MOL0     H13511   1.726  -0.010   9.006 -1.9153  1.6624  3.5140
  841MOL0     H13512   1.731   0.088   8.858 -0.1612  1.7979 -0.1570
  841MOL0     H13513   1.925   0.168   9.085  0.4038  1.2345 -1.8753
  841MOL0     H13514   1.936   0.183   8.906 -3.3013  1.0794 -0.7528
  841MOL0     H13515   1.958  -0.061   8.885 -1.0921 -1.3172  1.5116
  841MOL0     H13516   1.954  -0.082   9.061  2.1311  0.4490  0.8913
  841MOL0     H13517   2.095   0.362   8.664 -0.6180  0.9557 -0.7789
  841MOL0     H13518   2.333   0.413   8.650  1.8518  1.0481  1.6921
  841MOL0     H13519   2.745   0.336   9.005  1.1950 -0.5939 -0.1033
  841MOL0     H13520   2.975   0.381   9.001 -0.2504 -0.1404  0.2557
  841MOL0     H13521   4.411   0.133   9.729  0.4623  0.5849  0.4261
  841MOL0     H13522   4.584   0.261   9.848 -1.5089  1.1314 -2.4793
  841MOL0     H13523   4.882   0.113  10.166  1.3552 -0.1656 -2.5372
  841MOL0     H13524   4.962   0.170  10.391  0.2312  0.3879  0.3278
  841MOL0     H13525   5.056   0.425  10.651 -2.3734  2.3625 -0.6868
  841MOL0     H13526   4.944   0.315  10.570 -0.0972  2.3891 -0.5214
  841MOL0     H13527   5.141   0.158  10.516 -0.4671 -0.7185  0.3669
  841MOL0     H13528   5.153   0.196  10.682  0.1704 -0.1692 -0.1926
  841MOL0     H13529   5.315   0.399  10.608  0.0548  0.5966 -1.5269
  841MOL0     H13530   5.322   0.321  10.450 -3.0927  2.5635 -0.0160
  841MOL0     H13531   5.376   0.108  10.587 -3.5314  0.2793  1.5044
  841MOL0     H13532   5.396   0.209  10.725 -2.6662 -0.3956 -0.0526
  841MOL0     H13533   5.765   0.251  10.491 -0.3932  0.6276  0.1859
  841MOL0     H13534   5.091   0.557  10.222  1.1452 -0.4827 -0.8987
  841MOL0     H13535   4.978   0.511  10.034  0.1887 -0.3281  0.7251
  842MOL0     O13536   2.842   9.198   7.316  0.1826 -0.4205  0.1534
  842MOL0     C13537   2.814   9.180   7.433 -0.1609 -0.6784 -0.1778
  842MOL0     O13538   2.695   9.156   7.487  0.1003 -0.0453 -0.0354
  842MOL0     C13539   2.575   9.166   7.416  0.6634  0.6337  0.1283
  842MOL0     C13540   2.560   9.193   7.275 -0.4477  0.6506 -0.0395
  842MOL0     C13541   2.429   9.216   7.230 -0.3008 -0.3415  0.4520
  842MOL0     C13542   2.313   9.220   7.312 -0.5086  0.4799  0.5179
  842MOL0     O13543   2.190   9.255   7.277  0.7654  0.3605  0.1157
  842MOL0     C13544   2.161   9.256   7.138  0.4667  0.1218  0.6617
  842MOL0     C13545   2.005   9.233   7.126  0.3678 -0.2336  0.7100
  842MOL0     C13546   1.918   9.358   7.173  0.1098  0.6217 -0.2144
  842MOL0     C13547   1.953   9.477   7.078  0.1707 -0.1479  0.0485
  842MOL0     C13548   1.862   9.595   7.107 -0.4770 -0.6240 -0.1130
  842MOL0     C13549   1.848   9.680   6.982 -0.6943  0.8509 -0.7190
  842MOL0     C13550   1.977   9.764   6.955 -0.2870  0.8223  0.5226
  842MOL0     C13551   1.939   9.882   6.865  0.2891 -0.0658  0.5174
  842MOL0     N13552   1.871   9.836   6.739  0.0381  0.8596  0.1882
  842MOL0     C13553   1.731   9.837   6.711 -0.1146  0.1429  0.4377
  842MOL0     C13554   1.719   9.794   6.585  0.5315 -0.0855  0.6763
  842MOL0     C13555   1.591   9.783   6.518  0.3161 -0.1568  0.5006
  842MOL0     C13556   1.584   9.865   6.385  0.4147  0.7863  0.1144
  842MOL0     C13557   1.495   9.800   6.278  0.4436 -0.6547  0.1789
  842MOL0     C13558   1.339   9.812   6.311 -1.4647  0.3717  0.5484
  842MOL0     O13559   1.305   9.721   6.415 -0.7125 -0.4295 -0.3925
  842MOL0     C13560   1.171   9.701   6.446 -0.1033  0.5304 -0.3876
  842MOL0     C13561   1.058   9.741   6.372  0.0783  0.1217 -0.0276
  842MOL0     C13562   0.929   9.699   6.419  0.2163 -0.4189 -0.5098
  842MOL0     C13563   0.812   9.726   6.329 -0.1873 -0.5945  0.2966
  842MOL0     C13564   0.921   9.642   6.551 -0.5541 -0.4246  0.0046
  842MOL0     C13565   0.791   9.608   6.618  0.1510 -0.2513  0.0565
  842MOL0     O13566   0.688   9.586   6.527 -0.3225 -0.3294 -0.2285
  842MOL0     C13567   0.556   9.573   6.563 -0.8626 -0.4687 -0.2482
  842MOL0     C13568   0.470   9.578   6.451  0.1831 -0.0352 -0.0926
  842MOL0     C13569   0.337   9.541   6.457  0.1030 -0.6086 -0.0109
  842MOL0     C13570   0.282   9.496   6.576  0.1253  0.4129  0.5232
  842MOL0     O13571   0.148   9.468   6.573 -0.9755  0.5295 -0.3722
  842MOL0     C13572   0.073   9.523   6.682 -0.3221  0.5970 -0.2445
  842MOL0     C13573  -0.070   9.487   6.669 -0.4658 -0.1401 -0.0369
  842MOL0     C13574  -0.080   9.329   6.696  1.1939  0.0656  0.3485
  842MOL0     C13575  -0.229   9.283   6.681 -0.3340 -0.6156  0.5582
  842MOL0     C13576  -0.309   9.278   6.810 -0.5138 -0.0271  0.9071
  842MOL0     C13577  -0.441   9.199   6.794  0.4135  0.4667 -0.3822
  842MOL0     C13578  -0.555   9.270   6.726 -0.3802  0.0144  0.1180
  842MOL0     C13579  -0.667   9.174   6.708 -0.7290 -0.0471  0.5456
  842MOL0    Cl13580  -0.801   9.241   6.613  0.1321 -0.0578  0.5402
  842MOL0     C13581   0.371   9.504   6.691 -0.1398  0.6178  0.5584
  842MOL0     C13582   0.504   9.535   6.684 -0.5026 -0.5871 -0.8764
  842MOL0     O13583   0.777   9.600   6.739 -0.9660 -0.7441  0.3705
  842MOL0     C13584   1.036   9.615   6.617 -0.1966 -0.4315 -0.6932
  842MOL0     C13585   1.161   9.641   6.570 -0.1757  0.0053  0.3634
  842MOL0     N13586   1.842   9.756   6.537 -1.8861  0.6853 -1.3158
  842MOL0     N13587   1.930   9.775   6.637 -0.0501  0.6500  0.2508
  842MOL0     C13588   2.337   9.189   7.446  0.8747 -0.7447 -0.8112
  842MOL0     C13589   2.461   9.163   7.493  0.0974 -0.3218 -0.2808
  842MOL0     C13590   2.930   9.177   7.522 -0.1332  0.8321 -0.5403
  842MOL0     C13591   2.915   9.141   7.657  0.8737 -0.2643  0.8273
  842MOL0     C13592   3.022   9.156   7.743  0.7366  0.6718  0.0628
  842MOL0     C13593   3.147   9.208   7.703  0.1293  0.4723  0.1273
  842MOL0     O13594   3.244   9.226   7.800  0.3537  0.4700 -0.0157
  842MOL0     C13595   3.381   9.242   7.765 -0.3283  0.1151  0.0273
  842MOL0     C13596   3.450   9.120   7.708 -0.1733 -0.1162 -0.9234
  842MOL0     C13597   3.482   9.005   7.803  0.0636 -0.3822 -0.3262
  842MOL0     C13598   3.571   8.892   7.759 -0.2055 -0.4494  0.1549
  842MOL0     C13599   3.502   8.794   7.674  0.5315  0.1417  0.4224
  842MOL0     C13600   3.446   8.722   7.596 -0.0591  0.3153  0.5147
  842MOL0     C13601   3.159   9.242   7.566 -0.2475  0.1162  0.5102
  842MOL0     C13602   3.058   9.223   7.476  0.6667 -0.0009 -0.4976
  842MOL0     H13603   2.637   9.179   7.199 -0.7362 -1.7987  0.0286
  842MOL0     H13604   2.423   9.238   7.124  2.1618  1.1530  0.5278
  842MOL0     H13605   2.197   9.348   7.092  1.0506  0.7181  2.2762
  842MOL0     H13606   2.217   9.183   7.079 -0.7408  1.3571 -2.2091
  842MOL0     H13607   1.977   9.218   7.021  1.6033 -1.8547  0.5627
  842MOL0     H13608   1.984   9.146   7.189 -0.6883 -0.1140  0.5415
  842MOL0     H13609   1.815   9.321   7.170  0.1898 -0.0982  2.6123
  842MOL0     H13610   1.920   9.381   7.280 -0.3772 -1.5391  0.3194
  842MOL0     H13611   2.057   9.510   7.082 -0.5546  2.3709 -0.3773
  842MOL0     H13612   1.935   9.434   6.979  2.6346  0.5535 -0.7595
  842MOL0     H13613   1.763   9.562   7.142 -0.4515 -1.5192 -0.8406
  842MOL0     H13614   1.894   9.657   7.191  0.2252 -0.8161 -0.2350
  842MOL0     H13615   1.834   9.623   6.889  2.6014 -0.3146 -0.6632
  842MOL0     H13616   1.761   9.742   7.001 -1.0943  0.1299 -0.1206
  842MOL0     H13617   2.020   9.804   7.048  2.1199 -0.6876  0.1338
  842MOL0     H13618   2.058   9.717   6.900 -0.1457  2.6673 -0.9685
  842MOL0     H13619   2.026   9.941   6.836 -0.3184  0.8419  0.5081
  842MOL0     H13620   1.881   9.951   6.927 -0.1740 -0.0617  0.0883
  842MOL0     H13621   1.650   9.867   6.776  1.1238 -0.9411  2.6193
  842MOL0     H13622   1.576   9.676   6.498  1.3911  0.0627 -1.8274
  842MOL0     H13623   1.510   9.821   6.580 -1.2446  1.0546 -2.0948
  842MOL0     H13624   1.688   9.876   6.354  0.7636  1.2074  1.3523
  842MOL0     H13625   1.544   9.965   6.405  1.5094  1.2138  0.2317
  842MOL0     H13626   1.508   9.693   6.262 -2.8031 -1.2143  0.4846
  842MOL0     H13627   1.497   9.858   6.185 -0.0477  0.3953  0.8025
  842MOL0     H13628   1.288   9.794   6.216  1.1910 -0.2768 -0.8736
  842MOL0     H13629   1.312   9.916   6.331  0.0960  0.9877 -0.3029
  842MOL0     H13630   1.070   9.801   6.282  0.8881  0.4055  0.2641
  842MOL0     H13631   0.778   9.630   6.290  0.1919 -1.4120  1.9043
  842MOL0     H13632   0.736   9.770   6.395  1.8900  2.3004  0.9632
  842MOL0     H13633   0.832   9.791   6.243  3.1975 -1.1571  0.5237
  842MOL0     H13634   0.514   9.594   6.353 -1.4768 -0.6230 -0.9903
  842MOL0     H13635   0.270   9.556   6.372  0.1734  0.0345  0.0427
  842MOL0     H13636   0.114   9.474   6.771  2.2292  0.4539 -1.3954
  842MOL0     H13637   0.093   9.630   6.686 -0.3967  0.5901  0.5142
  842MOL0     H13638  -0.135   9.542   6.739 -1.3931  0.8456 -1.6064
  842MOL0     H13639  -0.108   9.510   6.569  2.9350 -0.0889 -1.4274
  842MOL0     H13640  -0.044   9.306   6.797 -0.5236  1.3436  1.3042
  842MOL0     H13641  -0.023   9.266   6.627  0.3338 -2.1863  1.5644
  842MOL0     H13642  -0.274   9.338   6.598  1.5962 -1.6873 -1.2874
  842MOL0     H13643  -0.211   9.182   6.645  0.4980  0.1898 -1.4374
  842MOL0     H13644  -0.337   9.382   6.829 -0.7679 -0.1715  1.3473
  842MOL0     H13645  -0.247   9.244   6.894 -1.1875 -2.6713  0.4320
  842MOL0     H13646  -0.424   9.100   6.749 -0.4591  0.8454 -1.5734
  842MOL0     H13647  -0.472   9.181   6.898 -0.1596  1.4009 -0.3855
  842MOL0     H13648  -0.519   9.297   6.626 -0.7574  3.2050  0.7236
  842MOL0     H13649  -0.595   9.361   6.771 -1.4129  0.7543 -2.1590
  842MOL0     H13650  -0.714   9.140   6.801 -1.1992 -0.4288  0.1787
  842MOL0     H13651  -0.627   9.082   6.663 -0.3924  0.2726  0.1874
  842MOL0     H13652   0.332   9.463   6.784 -0.3819 -4.0586 -1.3250
  842MOL0     H13653   0.570   9.513   6.768  0.6817 -3.7317 -2.4462
  842MOL0     H13654   1.033   9.573   6.717  0.1611  1.2882  0.0928
  842MOL0     H13655   1.246   9.609   6.630  1.3906  3.2843  0.0958
  842MOL0     H13656   2.250   9.193   7.512 -0.6414 -2.9090 -2.5365
  842MOL0     H13657   2.479   9.149   7.599  2.3624 -2.2835 -0.8386
  842MOL0     H13658   2.824   9.103   7.702  1.0803 -1.5553  0.1947
  842MOL0     H13659   3.005   9.127   7.846  2.6155 -0.2717  0.1594
  842MOL0     H13660   3.390   9.329   7.700 -0.2393  1.6901  2.0315
  842MOL0     H13661   3.438   9.272   7.854 -1.0245  0.3454  0.4060
  842MOL0     H13662   3.553   9.156   7.694  0.6484 -1.3145  1.4452
  842MOL0     H13663   3.410   9.084   7.613 -2.0549 -0.6714  0.0398
  842MOL0     H13664   3.384   8.962   7.826 -0.8338 -0.4291 -3.6299
  842MOL0     H13665   3.524   9.054   7.891  0.0010  1.8935 -1.4756
  842MOL0     H13666   3.607   8.835   7.845 -1.7977 -1.3250  0.2871
  842MOL0     H13667   3.655   8.936   7.704  0.1289 -1.9590 -0.6228
  842MOL0     H13668   3.400   8.657   7.524 -1.5062 -0.1052  1.7585
  842MOL0     H13669   3.243   9.292   7.520 -2.2256  0.9190 -2.5089
  842MOL0     H13670   3.075   9.247   7.372 -0.1614 -1.1809 -0.9388
  843MOL0     O13671   0.230   6.484   6.406 -0.2855  0.1976  0.1373
  843MOL0     C13672   0.327   6.553   6.375  1.1481  0.4175 -0.0826
  843MOL0     O13673   0.317   6.654   6.307  0.3502 -0.9077  0.4954
  843MOL0     C13674   0.200   6.733   6.303 -0.1262 -0.2179 -0.3482
  843MOL0     C13675   0.188   6.810   6.193 -0.1181  0.6566  0.3604
  843MOL0     C13676   0.083   6.899   6.184  0.0434 -0.2322 -0.0620
  843MOL0     C13677  -0.005   6.912   6.290 -0.6686 -0.2863 -0.2223
  843MOL0     O13678  -0.101   7.009   6.273 -0.3925 -0.9126 -0.0406
  843MOL0     C13679  -0.231   6.981   6.327 -0.1443 -0.5037  0.2954
  843MOL0     C13680  -0.336   7.037   6.229  0.0809  0.3067 -0.0860
  843MOL0     C13681  -0.346   7.189   6.260  0.4924 -0.0188 -0.8697
  843MOL0     C13682  -0.401   7.269   6.139 -0.5165 -0.1280 -0.0628
  843MOL0     C13683  -0.454   7.405   6.190  0.8191  0.1143 -0.2592
  843MOL0     C13684  -0.349   7.497   6.240 -0.1210 -0.4167 -0.3608
  843MOL0     C13685  -0.400   7.645   6.250 -0.3474 -0.3877  0.0961
  843MOL0     C13686  -0.532   7.666   6.332  0.5774 -0.1189  0.2843
  843MOL0     N13687  -0.552   7.809   6.379 -0.7549  0.7737  0.5366
  843MOL0     C13688  -0.661   7.887   6.359  0.3387  0.0402 -1.0121
  843MOL0     C13689  -0.638   8.010   6.419 -0.0500 -0.0770  0.3834
  843MOL0     C13690  -0.721   8.133   6.412 -0.6361 -0.3041 -0.6232
  843MOL0     C13691  -0.802   8.159   6.537 -0.7973 -0.1578  0.0335
  843MOL0     C13692  -0.903   8.048   6.556 -0.0710  0.2193  0.2907
  843MOL0     C13693  -0.994   8.088   6.676  0.3894 -0.1544 -0.3240
  843MOL0     O13694  -1.045   8.224   6.667 -0.1265  0.1777  0.2859
  843MOL0     C13695  -1.171   8.223   6.631 -0.6113 -0.3438 -0.5778
  843MOL0     C13696  -1.264   8.189   6.724  0.4375 -0.0821  0.5600
  843MOL0     C13697  -1.401   8.195   6.696  0.1286 -0.0112 -0.0565
  843MOL0     C13698  -1.491   8.168   6.815  0.1742 -0.2746  0.0210
  843MOL0     C13699  -1.444   8.237   6.567 -0.1300  0.3970  0.2947
  843MOL0     C13700  -1.583   8.250   6.516 -0.3952 -0.0525 -0.1352
  843MOL0     O13701  -1.597   8.257   6.382  0.2506 -0.0171  0.2450
  843MOL0     C13702  -1.727   8.248   6.324 -0.2926  0.3498  0.0317
  843MOL0     C13703  -1.825   8.149   6.355  0.4823 -0.1121 -0.9475
  843MOL0     C13704  -1.951   8.141   6.293  0.7712 -0.5775 -0.4661
  843MOL0     C13705  -1.979   8.234   6.197 -0.2463  0.0193 -0.2690
  843MOL0     O13706  -2.097   8.241   6.131  0.1312 -0.4277  0.8540
  843MOL0     C13707  -2.197   8.140   6.155  0.8170  0.5910  0.0400
  843MOL0     C13708  -2.308   8.158   6.045  0.4045 -1.0950 -0.7012
  843MOL0     C13709  -2.275   8.119   5.906 -0.0289  0.8042  0.5526
  843MOL0     C13710  -2.361   8.179   5.794  0.1777 -0.0549  0.4048
  843MOL0     C13711  -2.341   8.086   5.667  0.2209  0.1643  0.4429
  843MOL0     C13712  -2.413   8.143   5.549  0.5130 -0.0308 -0.3339
  843MOL0     C13713  -2.561   8.195   5.564  0.6566 -0.2603  0.1603
  843MOL0     C13714  -2.623   8.249   5.436 -0.2516  0.5480 -1.1398
  843MOL0    Cl13715  -2.704   8.119   5.335  0.3960 -0.3570 -0.1696
  843MOL0     C13716  -1.890   8.340   6.167 -0.3809 -0.0234  0.3325
  843MOL0     C13717  -1.761   8.341   6.220 -1.0688  0.1718 -0.4275
  843MOL0     O13718  -1.670   8.225   6.597  0.4223 -0.2746 -0.3465
  843MOL0     C13719  -1.343   8.269   6.481  0.0521 -1.1766  0.6381
  843MOL0     C13720  -1.207   8.251   6.506  0.3120 -0.2802  0.1410
  843MOL0     N13721  -0.519   7.998   6.488  0.0228  0.4748  0.3807
  843MOL0     N13722  -0.474   7.875   6.464 -0.1106 -0.2382  0.4658
  843MOL0     C13723   0.011   6.830   6.408 -0.0589  0.5777  0.3126
  843MOL0     C13724   0.115   6.746   6.417  0.6610 -0.4511  0.1812
  843MOL0     C13725   0.459   6.491   6.410  0.5091  0.0723  0.1430
  843MOL0     C13726   0.566   6.578   6.414 -0.4411 -0.0117 -1.4952
  843MOL0     C13727   0.693   6.525   6.447 -0.2857  0.0547 -0.0909
  843MOL0     C13728   0.714   6.394   6.480 -0.2356  0.1920 -0.4705
  843MOL0     O13729   0.838   6.349   6.538  0.2802  0.1053  0.6958
  843MOL0     C13730   0.941   6.447   6.561  0.6474 -0.3451  0.0461
  843MOL0     C13731   1.066   6.366   6.612 -0.2115  0.2190 -0.2998
  843MOL0     C13732   1.197   6.458   6.625  0.0543  0.0806 -0.7795
  843MOL0     C13733   1.311   6.382   6.685  0.1019 -0.0523 -0.2783
  843MOL0     C13734   1.291   6.325   6.824 -1.3818  0.0486  0.8908
  843MOL0     C13735   1.260   6.276   6.933  0.4351  0.0490 -0.0556
  843MOL0     C13736   0.603   6.308   6.479  0.2279  0.3110  0.3253
  843MOL0     C13737   0.475   6.357   6.441  0.2455 -0.3469 -0.4716
  843MOL0     H13738   0.252   6.798   6.107 -0.6249  2.0400 -0.2373
  843MOL0     H13739   0.075   6.967   6.099 -0.1221 -0.7359 -0.4521
  843MOL0     H13740  -0.243   6.872   6.333  0.0314 -0.4439  2.9208
  843MOL0     H13741  -0.246   7.015   6.430 -1.5276  1.1378 -0.4052
  843MOL0     H13742  -0.309   7.023   6.124 -1.9347 -2.2128 -0.3567
  843MOL0     H13743  -0.437   6.999   6.244  0.9705 -1.6328  1.2943
  843MOL0     H13744  -0.420   7.193   6.341 -1.4414  0.9053 -2.6115
  843MOL0     H13745  -0.249   7.223   6.299  0.5729 -1.4209  0.2519
  843MOL0     H13746  -0.317   7.283   6.069 -0.0688  1.4017  0.7310
  843MOL0     H13747  -0.483   7.218   6.087 -2.1505 -0.0014  2.2561
  843MOL0     H13748  -0.516   7.439   6.106 -0.5775  1.7289  1.3509
  843MOL0     H13749  -0.517   7.384   6.277  1.9963  1.2925  0.9433
  843MOL0     H13750  -0.296   7.468   6.331  2.2813 -0.0795 -1.5943
  843MOL0     H13751  -0.278   7.502   6.157 -1.3198 -1.1647 -1.4723
  843MOL0     H13752  -0.317   7.703   6.291  0.0658  0.4136 -1.7686
  843MOL0     H13753  -0.423   7.684   6.151 -0.9799 -1.9700 -0.4036
  843MOL0     H13754  -0.538   7.582   6.402  0.0392 -1.3471 -1.1641
  843MOL0     H13755  -0.620   7.649   6.270  1.3374  0.4952 -0.9956
  843MOL0     H13756  -0.743   7.879   6.289  0.7784  0.1460 -1.5472
  843MOL0     H13757  -0.643   8.209   6.405 -0.7851 -0.2026 -1.2956
  843MOL0     H13758  -0.774   8.139   6.316  0.5338 -3.7035 -1.6203
  843MOL0     H13759  -0.855   8.254   6.535 -0.0217  0.3965  2.2863
  843MOL0     H13760  -0.736   8.174   6.623  0.6407  2.7007 -1.4342
  843MOL0     H13761  -0.860   7.949   6.573 -1.9870 -0.7518 -0.2470
  843MOL0     H13762  -0.965   8.048   6.465  0.0366  0.3885  0.2168
  843MOL0     H13763  -0.927   8.082   6.762  1.5357 -1.0223 -1.2422
  843MOL0     H13764  -1.080   8.022   6.694  0.5586 -0.1303  0.6375
  843MOL0     H13765  -1.240   8.162   6.827  0.9536 -0.1639  0.4210
  843MOL0     H13766  -1.534   8.263   6.848 -0.4730  0.2052 -2.0760
  843MOL0     H13767  -1.579   8.106   6.795  0.7498 -0.8813 -0.7270
  843MOL0     H13768  -1.433   8.123   6.896  1.3757 -0.2363 -0.7803
  843MOL0     H13769  -1.800   8.081   6.437 -2.6325  1.4964  1.5506
  843MOL0     H13770  -2.025   8.065   6.318 -1.1997  0.8509 -1.6614
  843MOL0     H13771  -2.162   8.037   6.164  3.4026  1.3646 -0.4274
  843MOL0     H13772  -2.239   8.179   6.249  0.6388 -0.6710  0.4982
  843MOL0     H13773  -2.403   8.114   6.075 -0.4765  1.6290  0.8621
  843MOL0     H13774  -2.333   8.265   6.044  0.5035 -1.0650 -0.2940
  843MOL0     H13775  -2.302   8.013   5.907 -0.9176  0.9139 -2.1565
  843MOL0     H13776  -2.167   8.125   5.896  0.2234 -1.4576  1.5014
  843MOL0     H13777  -2.467   8.174   5.820 -0.2478  0.1755 -1.1781
  843MOL0     H13778  -2.335   8.284   5.774  0.5429  0.1847  1.9924
  843MOL0     H13779  -2.375   7.984   5.687  0.9607 -0.2240 -0.2192
  843MOL0     H13780  -2.236   8.074   5.639  0.1481  2.1171 -0.8456
  843MOL0     H13781  -2.357   8.231   5.516 -1.3506  0.7803 -1.4789
  843MOL0     H13782  -2.413   8.071   5.467 -3.0372 -0.0699 -0.4258
  843MOL0     H13783  -2.564   8.274   5.640  2.6470 -1.3707  1.4963
  843MOL0     H13784  -2.621   8.106   5.584  0.0901 -0.1907 -1.1181
  843MOL0     H13785  -2.544   8.302   5.382  0.5961 -0.5848 -1.0534
  843MOL0     H13786  -2.700   8.312   5.480 -1.2741 -1.3706 -0.0218
  843MOL0     H13787  -1.920   8.419   6.099 -0.6746 -0.4498 -0.0436
  843MOL0     H13788  -1.690   8.418   6.191  0.4899 -0.8222  0.5537
  843MOL0     H13789  -1.368   8.322   6.389 -0.7401 -0.1827  1.4090
  843MOL0     H13790  -1.140   8.294   6.432  0.2542 -2.0495 -1.0041
  843MOL0     H13791  -0.064   6.827   6.487  0.7598 -1.4721  1.0682
  843MOL0     H13792   0.123   6.678   6.501 -2.7070  0.0948  1.0844
  843MOL0     H13793   0.545   6.682   6.388 -0.6569  0.5333  0.6856
  843MOL0     H13794   0.782   6.588   6.446  2.0043 -2.9514 -0.2474
  843MOL0     H13795   0.954   6.498   6.465 -0.3021  2.0465  1.0988
  843MOL0     H13796   0.911   6.509   6.647  0.4212 -2.2457  1.3975
  843MOL0     H13797   1.094   6.285   6.544  0.5014  0.4043 -0.2358
  843MOL0     H13798   1.029   6.312   6.699 -0.7313 -1.5311 -1.5672
  843MOL0     H13799   1.176   6.546   6.686  1.3533  0.6640 -1.1624
  843MOL0     H13800   1.227   6.477   6.522  2.5195 -0.0228 -0.1389
  843MOL0     H13801   1.392   6.451   6.708  0.5084  0.2505 -2.4104
  843MOL0     H13802   1.345   6.309   6.610 -1.5719  1.1903 -2.3794
  843MOL0     H13803   1.233   6.236   7.029 -1.0734  3.4756  1.0946
  843MOL0     H13804   0.607   6.205   6.515  3.5888  0.5251  0.8689
  843MOL0     H13805   0.388   6.297   6.420 -1.0128  1.5778 -1.0172
  844MOL0     O13806   1.981   3.436   7.143 -0.4842 -0.0100  0.1542
  844MOL0     C13807   2.032   3.545   7.136  0.2021  0.0818  0.1028
  844MOL0     O13808   2.012   3.650   7.223  0.1312 -0.1318 -0.2497
  844MOL0     C13809   1.909   3.661   7.316  0.1027 -0.1467 -0.0682
  844MOL0     C13810   1.781   3.613   7.283  0.5454  0.2990  0.0172
  844MOL0     C13811   1.671   3.621   7.380  0.3126 -0.5559 -0.5382
  844MOL0     C13812   1.688   3.693   7.500 -0.1117 -0.1609  0.2186
  844MOL0     O13813   1.601   3.695   7.601  0.5621  0.2392 -0.0314
  844MOL0     C13814   1.467   3.693   7.560  1.1030 -0.0163  0.2920
  844MOL0     C13815   1.391   3.707   7.692  0.1394 -0.6468 -0.3552
  844MOL0     C13816   1.243   3.700   7.676 -0.9072  0.1455  0.3218
  844MOL0     C13817   1.161   3.709   7.810 -0.4487  0.5258  0.1605
  844MOL0     C13818   1.012   3.718   7.796 -0.0669 -0.3695 -0.7864
  844MOL0     C13819   0.931   3.629   7.893  0.3048 -0.5369  0.0559
  844MOL0     C13820   0.779   3.637   7.876 -0.4808  0.3688  0.1212
  844MOL0     C13821   0.721   3.770   7.935  0.4534  0.5143 -0.2516
  844MOL0     N13822   0.575   3.770   7.935  0.8121 -0.0170 -0.9849
  844MOL0     C13823   0.486   3.766   7.824  0.0067 -0.7014 -0.6720
  844MOL0     C13824   0.360   3.787   7.880  0.4115  0.6549 -0.1559
  844MOL0     C13825   0.237   3.785   7.805 -0.0283 -0.1147  0.0435
  844MOL0     C13826   0.101   3.776   7.885  0.2564 -0.5462  0.3222
  844MOL0     C13827   0.064   3.909   7.953  0.8800  0.4485  0.3207
  844MOL0     C13828  -0.081   3.898   8.010  0.0810  0.3716 -0.6849
  844MOL0     O13829  -0.127   4.017   8.080  0.3382 -0.0320  0.3144
  844MOL0     C13830  -0.258   4.044   8.086  0.1344  0.4262 -0.0646
  844MOL0     C13831  -0.287   4.172   8.045  0.5592 -0.2918 -0.1696
  844MOL0     C13832  -0.420   4.217   8.029 -0.9093  0.0760  0.4808
  844MOL0     C13833  -0.437   4.359   7.990 -0.3759 -0.6151 -0.2009
  844MOL0     C13834  -0.526   4.126   8.059  0.1176 -0.0342  0.4315
  844MOL0     C13835  -0.668   4.156   8.035  0.3710 -0.4021  0.6752
  844MOL0     O13836  -0.708   4.261   7.943 -0.5273  0.2397  0.7245
  844MOL0     C13837  -0.837   4.270   7.892  0.1289  0.5857  0.5454
  844MOL0     C13838  -0.905   4.162   7.834  0.2353 -0.1468 -0.3426
  844MOL0     C13839  -1.030   4.177   7.771 -0.4514 -0.1876  0.2481
  844MOL0     C13840  -1.093   4.303   7.771 -0.3614  0.5063  0.6780
  844MOL0     O13841  -1.226   4.318   7.730 -1.0962 -0.2065  0.2552
  844MOL0     C13842  -1.317   4.210   7.745 -0.7661 -0.0038  0.3773
  844MOL0     C13843  -1.459   4.260   7.721 -0.3188 -0.1770 -0.6150
  844MOL0     C13844  -1.509   4.371   7.818 -0.2811 -0.6851 -0.2889
  844MOL0     C13845  -1.649   4.414   7.789  0.0569 -0.2695  0.9039
  844MOL0     C13846  -1.687   4.510   7.896 -0.8517 -0.2636  0.6649
  844MOL0     C13847  -1.808   4.588   7.857  1.2205  0.0137 -1.1718
  844MOL0     C13848  -1.818   4.724   7.920  0.1044  0.5507 -0.2843
  844MOL0     C13849  -1.954   4.787   7.909 -0.0046 -0.6971  0.0420
  844MOL0    Cl13850  -1.925   4.960   7.947 -0.0481  0.3064  0.4494
  844MOL0     C13851  -1.033   4.412   7.833 -0.4902 -0.7097 -0.1120
  844MOL0     C13852  -0.900   4.396   7.889  0.6010  0.5235  0.1219
  844MOL0     O13853  -0.758   4.088   8.093  0.2274 -0.4336  0.3852
  844MOL0     C13854  -0.494   3.994   8.097  0.1923  0.0692  0.2617
  844MOL0     C13855  -0.358   3.956   8.113  0.0285 -0.0857  0.3629
  844MOL0     N13856   0.373   3.786   8.025 -0.0673 -0.8633  0.0418
  844MOL0     N13857   0.495   3.778   8.056 -0.9286  0.1840  0.3429
  844MOL0     C13858   1.815   3.752   7.523 -0.3544  0.0653 -0.0314
  844MOL0     C13859   1.928   3.743   7.434 -0.2363 -0.1365 -0.3350
  844MOL0     C13860   2.113   3.564   7.016  0.3578  0.0083 -0.0489
  844MOL0     C13861   2.138   3.464   6.916 -0.1467  0.6259 -1.3420
  844MOL0     C13862   2.212   3.496   6.810  0.5925 -0.1564  0.6178
  844MOL0     C13863   2.262   3.619   6.785  0.4107 -0.4109 -0.1085
  844MOL0     O13864   2.323   3.657   6.668  0.0929 -0.4987 -0.2129
  844MOL0     C13865   2.352   3.550   6.568 -0.3015 -0.3991 -0.2131
  844MOL0     C13866   2.444   3.598   6.462  0.0003  0.2201  0.1713
  844MOL0     C13867   2.575   3.658   6.521  0.4960 -0.3784 -0.2179
  844MOL0     C13868   2.570   3.810   6.527 -0.1062  0.5080 -0.5776
  844MOL0     C13869   2.590   3.865   6.396  0.0148  0.7067 -0.0563
  844MOL0     C13870   2.610   3.911   6.284  0.1116 -0.4408 -0.4372
  844MOL0     C13871   2.251   3.714   6.878  0.1605 -0.6906 -0.6741
  844MOL0     C13872   2.181   3.688   6.996  0.3052 -0.0935  0.0930
  844MOL0     H13873   1.762   3.560   7.191 -0.9967 -0.6050  0.8017
  844MOL0     H13874   1.576   3.579   7.350 -1.7930  2.5454  1.2562
  844MOL0     H13875   1.427   3.778   7.504 -2.9323 -2.3532 -0.7785
  844MOL0     H13876   1.439   3.602   7.506  1.2839  0.6505 -0.9715
  844MOL0     H13877   1.423   3.633   7.766  0.9265  0.4154  0.3986
  844MOL0     H13878   1.428   3.792   7.751  0.2770 -1.5136  0.8235
  844MOL0     H13879   1.219   3.791   7.620  2.0378  0.7199 -0.1628
  844MOL0     H13880   1.210   3.612   7.619 -4.5478  1.0115  0.8317
  844MOL0     H13881   1.178   3.615   7.864 -0.4328  0.9926  0.9838
  844MOL0     H13882   1.199   3.783   7.880  0.8088 -1.0003  1.1846
  844MOL0     H13883   0.992   3.826   7.802 -1.0082 -0.4375 -2.2026
  844MOL0     H13884   0.998   3.691   7.691 -0.1211  0.8883 -1.1186
  844MOL0     H13885   0.969   3.527   7.886  2.2138 -0.1470  2.9392
  844MOL0     H13886   0.961   3.659   7.995 -0.5682 -2.5285  0.9464
  844MOL0     H13887   0.746   3.628   7.772 -1.4388  3.1719  0.1045
  844MOL0     H13888   0.732   3.555   7.930  0.1437 -0.7158 -0.9171
  844MOL0     H13889   0.751   3.860   7.879  0.5318  0.2979 -0.5592
  844MOL0     H13890   0.753   3.787   8.038 -1.0832  0.0232  0.3391
  844MOL0     H13891   0.518   3.744   7.723  0.0795 -4.4073  0.0428
  844MOL0     H13892   0.245   3.866   7.732  2.8796  0.0991  0.4708
  844MOL0     H13893   0.230   3.693   7.745  1.2518 -0.1820 -0.0397
  844MOL0     H13894   0.107   3.693   7.956 -0.8379 -1.3913 -0.5334
  844MOL0     H13895   0.021   3.751   7.814  2.1787 -0.4484 -2.0254
  844MOL0     H13896   0.072   3.998   7.889 -1.9635 -0.2638 -1.2052
  844MOL0     H13897   0.137   3.918   8.034  0.6833 -0.9179  0.6725
  844MOL0     H13898  -0.105   3.808   8.067  2.8578  0.6037  1.0658
  844MOL0     H13899  -0.144   3.891   7.921  0.0559  0.6284 -0.6896
  844MOL0     H13900  -0.206   4.237   8.015  1.0539 -0.8165  0.0165
  844MOL0     H13901  -0.359   4.429   8.021 -1.0387  0.0227  0.0641
  844MOL0     H13902  -0.438   4.361   7.881  1.3074 -1.1597 -0.2576
  844MOL0     H13903  -0.532   4.400   8.026  0.4228  1.7219 -0.5524
  844MOL0     H13904  -0.852   4.068   7.845 -0.0746 -0.4475 -1.2882
  844MOL0     H13905  -1.060   4.089   7.716  1.6121 -0.9201  0.2047
  844MOL0     H13906  -1.287   4.133   7.674 -0.8605  0.5949 -0.3197
  844MOL0     H13907  -1.314   4.170   7.847 -0.5629  0.2481  0.4727
  844MOL0     H13908  -1.459   4.306   7.622  0.8064 -1.7062 -1.3681
  844MOL0     H13909  -1.522   4.171   7.722  1.0138 -1.2047 -2.0976
  844MOL0     H13910  -1.440   4.455   7.809  1.3493 -1.6320  2.2765
  844MOL0     H13911  -1.507   4.341   7.923 -0.4041 -0.7142 -0.2949
  844MOL0     H13912  -1.658   4.455   7.688 -0.6794 -0.4331  0.8955
  844MOL0     H13913  -1.702   4.319   7.797 -0.3729 -0.0473  0.7554
  844MOL0     H13914  -1.607   4.585   7.893  1.0068 -2.1384 -2.9517
  844MOL0     H13915  -1.689   4.461   7.994  1.6301 -2.0695 -0.0877
  844MOL0     H13916  -1.824   4.602   7.750  2.2508 -1.4151 -1.5397
  844MOL0     H13917  -1.900   4.535   7.886  0.6973  1.3088 -0.3759
  844MOL0     H13918  -1.745   4.790   7.872 -1.3623  2.4190 -0.0494
  844MOL0     H13919  -1.789   4.708   8.025  0.6950 -0.6440 -0.6109
  844MOL0     H13920  -2.026   4.734   7.973  1.2157 -2.0489  0.3521
  844MOL0     H13921  -1.997   4.783   7.809  0.8344  2.9371 -0.5933
  844MOL0     H13922  -1.087   4.506   7.834  1.5185  0.5468  2.6100
  844MOL0     H13923  -0.855   4.473   7.951  2.7848 -0.9116  0.4627
  844MOL0     H13924  -0.570   3.924   8.131 -0.3089  1.3936  2.0073
  844MOL0     H13925  -0.333   3.856   8.148 -0.0076  0.1711  1.1538
  844MOL0     H13926   1.828   3.813   7.612 -0.7972  0.7757 -0.4476
  844MOL0     H13927   2.015   3.802   7.461 -0.0708  0.2358 -1.6420
  844MOL0     H13928   2.093   3.366   6.911  0.7715 -0.0027  1.1435
  844MOL0     H13929   2.214   3.425   6.728  2.2048  0.3768  0.1637
  844MOL0     H13930   2.393   3.458   6.610  1.3524  0.1526 -0.5031
  844MOL0     H13931   2.255   3.519   6.528 -1.3719  1.6612  0.6673
  844MOL0     H13932   2.388   3.665   6.395  2.0291  0.2414 -1.6113
  844MOL0     H13933   2.474   3.514   6.400 -1.2189  1.3727 -2.1320
  844MOL0     H13934   2.663   3.628   6.464 -0.2569  0.5767 -1.9809
  844MOL0     H13935   2.588   3.632   6.626  0.8715  0.2646 -0.0980
  844MOL0     H13936   2.640   3.850   6.601 -0.5956 -0.7087  0.5660
  844MOL0     H13937   2.475   3.853   6.559 -1.6046 -1.4454 -2.1405
  844MOL0     H13938   2.629   3.950   6.186  0.5588 -1.7777 -0.9022
  844MOL0     H13939   2.298   3.811   6.864 -1.0454 -0.1408 -1.0371
  844MOL0     H13940   2.169   3.763   7.073 -1.6675 -2.0653  1.8437
  845MOL0     O13941   8.337   4.748   6.988  0.5274 -0.6575  0.2910
  845MOL0     C13942   8.390   4.649   7.050  0.2780  0.2990  0.2550
  845MOL0     O13943   8.330   4.526   7.071  0.5240  0.4508  0.1998
  845MOL0     C13944   8.211   4.505   7.010  0.9329  0.1726  0.2050
  845MOL0     C13945   8.206   4.475   6.881  0.0365  0.8042 -0.2382
  845MOL0     C13946   8.085   4.441   6.821  0.4844  0.2532  0.5835
  845MOL0     C13947   7.968   4.447   6.895  0.0105  0.3090  0.3158
  845MOL0     O13948   7.851   4.416   6.819 -0.2421 -0.9584 -0.3023
  845MOL0     C13949   7.738   4.492   6.844 -0.3030  0.0431 -0.6424
  845MOL0     C13950   7.619   4.427   6.772  0.6845 -0.0622 -0.3915
  845MOL0     C13951   7.514   4.536   6.747  0.6218  0.0426  0.0635
  845MOL0     C13952   7.383   4.472   6.705 -0.1064 -0.6847 -0.0834
  845MOL0     C13953   7.275   4.571   6.688 -0.0098 -0.5733  0.1741
  845MOL0     C13954   7.137   4.510   6.691  0.2950 -0.2894 -0.0545
  845MOL0     C13955   7.022   4.611   6.677 -0.0780 -0.2064 -0.4866
  845MOL0     C13956   6.885   4.553   6.709 -0.7374 -0.1839 -0.7917
  845MOL0     N13957   6.841   4.476   6.596  0.0163  0.0688 -0.1289
  845MOL0     C13958   6.854   4.343   6.579  0.2266 -0.0451 -1.2121
  845MOL0     C13959   6.770   4.302   6.480  0.1106 -0.5756  0.0131
  845MOL0     C13960   6.745   4.166   6.414 -0.0199 -0.2685  0.0869
  845MOL0     C13961   6.697   4.182   6.271  0.2206 -0.2311 -0.6510
  845MOL0     C13962   6.692   4.050   6.198  0.6572 -0.6453  0.0928
  845MOL0     C13963   6.586   3.953   6.260  0.0232 -0.0029  0.0457
  845MOL0     O13964   6.547   3.851   6.165  0.4646  0.4255  0.8282
  845MOL0     C13965   6.412   3.823   6.158 -0.5855  1.1139 -0.9485
  845MOL0     C13966   6.341   3.769   6.262 -0.3317 -0.3197 -0.9661
  845MOL0     C13967   6.201   3.740   6.265  0.7419 -0.1067  0.2325
  845MOL0     C13968   6.153   3.686   6.399 -0.1595  0.7333 -0.5916
  845MOL0     C13969   6.134   3.773   6.152  0.3710 -0.0686  0.1703
  845MOL0     C13970   5.992   3.723   6.128 -0.5062 -0.0497 -0.9650
  845MOL0     O13971   5.949   3.701   6.002  0.1818  0.1191  0.3464
  845MOL0     C13972   5.809   3.698   5.987  0.0440  0.5031  0.3739
  845MOL0     C13973   5.731   3.802   5.944 -0.0999  0.0861 -0.2583
  845MOL0     C13974   5.591   3.794   5.933 -0.5436 -0.3203 -0.6257
  845MOL0     C13975   5.532   3.674   5.953  0.9877  0.2777  0.6670
  845MOL0     O13976   5.403   3.635   5.945 -0.0188 -0.9295 -0.5954
  845MOL0     C13977   5.312   3.726   5.879 -0.6878  0.1623 -0.2586
  845MOL0     C13978   5.180   3.664   5.883  0.5069 -0.0406 -1.2188
  845MOL0     C13979   5.116   3.669   6.022 -0.2834  0.2878  0.4514
  845MOL0     C13980   4.999   3.563   6.014  0.3435 -0.1987 -0.3711
  845MOL0     C13981   4.903   3.564   6.144 -0.1831  0.9956 -0.7986
  845MOL0     C13982   4.779   3.481   6.131 -0.5366  0.2685  0.3937
  845MOL0     C13983   4.806   3.334   6.097  0.0032  0.2416  0.6411
  845MOL0     C13984   4.677   3.247   6.117  1.3647  0.2383  0.0622
  845MOL0    Cl13985   4.694   3.086   6.193 -0.0343  0.3137  0.6724
  845MOL0     C13986   5.603   3.567   6.004  0.1724 -0.0986 -0.0156
  845MOL0     C13987   5.740   3.579   6.028 -0.4064 -0.0449 -0.6949
  845MOL0     O13988   5.927   3.716   6.227  0.3245  0.1025 -0.0199
  845MOL0     C13989   6.201   3.828   6.036  0.0940  0.0592 -0.6547
  845MOL0     C13990   6.336   3.852   6.049 -1.0947 -0.4635  0.1063
  845MOL0     N13991   6.696   4.413   6.446  0.6287 -0.9899 -0.7351
  845MOL0     N13992   6.739   4.512   6.514 -0.6199 -0.2510  0.3400
  845MOL0     C13993   7.970   4.460   7.032  0.9434  0.8410 -0.1301
  845MOL0     C13994   8.094   4.497   7.088  0.5556 -0.0917 -0.2665
  845MOL0     C13995   8.515   4.686   7.129  0.2769  0.3595  0.2268
  845MOL0     C13996   8.571   4.600   7.230  0.4365 -0.6727 -0.2187
  845MOL0     C13997   8.691   4.631   7.287 -0.6047 -0.4315  0.3669
  845MOL0     C13998   8.761   4.744   7.268 -0.4771  0.6351  0.0750
  845MOL0     O13999   8.874   4.774   7.328 -0.0198 -0.3624 -0.5433
  845MOL0     C14000   8.958   4.663   7.376 -0.3235  0.2721 -0.7284
  845MOL0     C14001   9.103   4.709   7.414  0.4738 -1.3091  0.1067
  845MOL0     C14002   9.105   4.777   7.552  0.5231 -0.2546  0.1785
  845MOL0     C14003   9.076   4.920   7.562 -0.2330 -0.9546  0.2180
  845MOL0     C14004   9.058   4.955   7.706 -0.6580  0.2705  0.6020
  845MOL0     C14005   9.052   4.961   7.827  0.2702 -1.1487  0.1273
  845MOL0     C14006   8.703   4.833   7.179  0.1411  0.9194  0.3532
  845MOL0     C14007   8.586   4.803   7.101  0.3744  0.6957  0.2928
  845MOL0     H14008   8.300   4.462   6.829  0.5788  0.2573  0.8549
  845MOL0     H14009   8.081   4.412   6.717  0.6681 -0.7514  0.8433
  845MOL0     H14010   7.710   4.494   6.949  2.4542 -0.6144  0.1783
  845MOL0     H14011   7.754   4.592   6.804 -2.2053  0.0506 -1.5300
  845MOL0     H14012   7.648   4.392   6.673 -0.0241 -2.0962  0.0668
  845MOL0     H14013   7.565   4.354   6.833 -2.1779  2.1639 -0.0407
  845MOL0     H14014   7.511   4.596   6.839 -0.1226  0.8330 -0.4544
  845MOL0     H14015   7.555   4.609   6.676  1.6396  0.0942  0.6835
  845MOL0     H14016   7.383   4.419   6.610 -1.6050 -2.8985  1.0363
  845MOL0     H14017   7.350   4.404   6.785 -0.7700  0.3026  0.5125
  845MOL0     H14018   7.274   4.645   6.769 -0.5835 -1.3709  0.9042
  845MOL0     H14019   7.301   4.626   6.597  1.2800 -1.6588 -0.1444
  845MOL0     H14020   7.133   4.436   6.612 -0.4965  0.8556 -1.1223
  845MOL0     H14021   7.115   4.453   6.782  1.4545 -1.1198 -0.2667
  845MOL0     H14022   7.048   4.694   6.744  0.0918 -0.9999  0.4442
  845MOL0     H14023   7.019   4.638   6.571 -0.2589 -0.3424 -0.5165
  845MOL0     H14024   6.816   4.636   6.728  1.5692  1.1255  3.0832
  845MOL0     H14025   6.896   4.499   6.803 -1.6772  0.2665 -0.4159
  845MOL0     H14026   6.923   4.279   6.634 -1.7464 -0.2017  1.2408
  845MOL0     H14027   6.833   4.102   6.403  0.0619  0.2883 -5.2051
  845MOL0     H14028   6.669   4.110   6.470 -0.4731  0.2958  0.0435
  845MOL0     H14029   6.774   4.243   6.222 -0.6391  0.6226 -0.9794
  845MOL0     H14030   6.603   4.238   6.272  0.4865  0.2387 -1.3193
  845MOL0     H14031   6.791   4.003   6.200  1.4123  0.9091  1.3398
  845MOL0     H14032   6.669   4.064   6.092  2.1484  1.6996 -0.0090
  845MOL0     H14033   6.494   4.004   6.286 -0.1556 -0.9234  1.3123
  845MOL0     H14034   6.631   3.905   6.348  1.6604 -2.4075 -1.9275
  845MOL0     H14035   6.401   3.749   6.350 -0.3716 -0.1635 -0.9037
  845MOL0     H14036   6.087   3.599   6.383 -0.1726  0.6311 -0.0250
  845MOL0     H14037   6.233   3.670   6.471  0.3437  2.8285 -0.6306
  845MOL0     H14038   6.097   3.767   6.448 -1.8175 -0.9723  0.5023
  845MOL0     H14039   5.781   3.897   5.929 -2.0436  0.8712 -2.3389
  845MOL0     H14040   5.529   3.882   5.915 -1.9697 -1.3503 -0.9909
  845MOL0     H14041   5.310   3.820   5.935  2.0682  0.5508 -0.6809
  845MOL0     H14042   5.344   3.746   5.776 -0.6706  2.0268  0.0662
  845MOL0     H14043   5.115   3.722   5.817  1.7860 -0.8257 -3.2650
  845MOL0     H14044   5.184   3.563   5.840  1.0846 -0.3534 -0.4590
  845MOL0     H14045   5.087   3.762   6.071  0.6273 -0.1596  1.9031
  845MOL0     H14046   5.182   3.626   6.098 -0.7031  0.0801  0.7056
  845MOL0     H14047   4.937   3.579   5.925  1.5355 -1.2035 -1.4078
  845MOL0     H14048   5.045   3.466   5.995  1.5543  0.5007 -1.1645
  845MOL0     H14049   4.873   3.664   6.176 -0.9606  0.1333  1.3014
  845MOL0     H14050   4.970   3.529   6.224  2.0572  3.0001 -1.6640
  845MOL0     H14051   4.717   3.487   6.222 -1.5843  0.7382 -0.3291
  845MOL0     H14052   4.720   3.528   6.052 -1.7132 -1.1331  0.3936
  845MOL0     H14053   4.881   3.294   6.165  1.1817 -3.1594 -2.3611
  845MOL0     H14054   4.843   3.324   5.995  1.4872 -0.3953  1.2231
  845MOL0     H14055   4.642   3.226   6.015 -2.1142 -4.6845  1.8809
  845MOL0     H14056   4.606   3.307   6.174 -0.1642  1.5312 -2.9844
  845MOL0     H14057   5.551   3.473   6.018  1.5631 -1.2814 -2.2442
  845MOL0     H14058   5.803   3.499   6.066  0.8052  1.6344  1.0196
  845MOL0     H14059   6.152   3.846   5.941 -1.0515 -0.8874 -0.2769
  845MOL0     H14060   6.390   3.909   5.975 -2.0124  0.3061  0.0100
  845MOL0     H14061   7.883   4.458   7.097  2.4020 -0.6157  1.9210
  845MOL0     H14062   8.094   4.514   7.195 -1.1896 -1.5692  0.0210
  845MOL0     H14063   8.522   4.510   7.264 -1.3030 -0.2536 -1.4651
  845MOL0     H14064   8.711   4.548   7.355 -1.2322 -0.8428  0.0597
  845MOL0     H14065   8.915   4.626   7.469  0.6482 -0.3663 -0.5120
  845MOL0     H14066   8.964   4.575   7.311 -2.0922 -2.1644  2.1446
  845MOL0     H14067   9.132   4.767   7.326  1.3069 -3.7054 -1.3068
  845MOL0     H14068   9.174   4.625   7.413  3.4568  1.0522 -0.0724
  845MOL0     H14069   9.197   4.759   7.610  1.0706 -2.4693 -1.2446
  845MOL0     H14070   9.026   4.732   7.614  2.2277 -0.0970  2.6199
  845MOL0     H14071   8.982   4.940   7.511 -0.0607  3.7633  1.2238
  845MOL0     H14072   9.149   4.984   7.511  0.4094 -0.5773  1.5674
  845MOL0     H14073   9.055   4.965   7.934 -0.1926  0.0903  0.1128
  845MOL0     H14074   8.748   4.931   7.164 -1.7332  2.1234  2.1860
  845MOL0     H14075   8.548   4.872   7.026 -0.8879 -0.3705 -0.0789
  846MOL0     O14076   8.193   2.447   2.412 -0.0676 -0.6045  0.2175
  846MOL0     C14077   8.237   2.495   2.306 -0.8146  0.1533 -0.1283
  846MOL0     O14078   8.171   2.497   2.187  0.6571  0.4215  0.0849
  846MOL0     C14079   8.037   2.470   2.184 -0.2494 -0.9578 -0.5063
  846MOL0     C14080   7.962   2.583   2.132  0.2488  0.6854  0.6188
  846MOL0     C14081   7.826   2.572   2.121 -0.2448  0.8388 -0.1182
  846MOL0     C14082   7.755   2.453   2.153  0.6213 -0.0419  0.8766
  846MOL0     O14083   7.618   2.444   2.118  0.2365  0.0246 -0.0171
  846MOL0     C14084   7.561   2.319   2.119  0.2542 -0.1709  1.4272
  846MOL0     C14085   7.410   2.335   2.142 -0.0889  0.1331  0.5393
  846MOL0     C14086   7.342   2.446   2.062 -0.0146  0.6589 -0.4609
  846MOL0     C14087   7.195   2.436   2.083  0.0337  0.9449 -0.1179
  846MOL0     C14088   7.128   2.341   1.978  0.7887  0.5141 -0.0680
  846MOL0     C14089   6.977   2.356   1.983 -0.9619 -0.3618  0.0130
  846MOL0     C14090   6.916   2.240   1.903 -0.3682  0.0280  0.2257
  846MOL0     C14091   6.766   2.206   1.928  0.8722 -0.0949  0.3549
  846MOL0     N14092   6.682   2.330   1.935  0.0330  0.4005  0.3977
  846MOL0     C14093   6.668   2.414   1.831 -0.4174  0.3937  0.7057
  846MOL0     C14094   6.589   2.510   1.865  0.6046  0.2299 -0.1583
  846MOL0     C14095   6.544   2.630   1.786 -0.6861  0.3189  0.5084
  846MOL0     C14096   6.392   2.663   1.791 -0.7455  0.6866  0.7417
  846MOL0     C14097   6.298   2.575   1.708  0.2085 -0.2918  1.0512
  846MOL0     C14098   6.155   2.620   1.738 -0.1782 -0.4887  0.6012
  846MOL0     O14099   6.081   2.537   1.645 -0.8492 -1.0193  0.2969
  846MOL0     C14100   5.948   2.560   1.623 -0.3040 -0.5729  0.2130
  846MOL0     C14101   5.882   2.500   1.511 -0.3867  0.3926 -0.7086
  846MOL0     C14102   5.741   2.501   1.496  0.1320  0.3558  0.3920
  846MOL0     C14103   5.685   2.434   1.371 -0.4401 -1.2136 -0.0641
  846MOL0     C14104   5.662   2.558   1.592  0.1761  0.4437 -0.2389
  846MOL0     C14105   5.518   2.549   1.603  0.4299 -0.4902 -0.4645
  846MOL0     O14106   5.472   2.423   1.627  0.4958  0.2649  0.1088
  846MOL0     C14107   5.344   2.414   1.676 -1.4547  0.3119  0.2879
  846MOL0     C14108   5.311   2.464   1.801 -0.2652 -0.9993  0.6459
  846MOL0     C14109   5.175   2.457   1.833 -0.6662 -0.3438  0.2957
  846MOL0     C14110   5.074   2.402   1.756  0.1022  0.7366 -0.0103
  846MOL0     O14111   4.942   2.402   1.798  0.8423  0.1424  0.3331
  846MOL0     C14112   4.838   2.325   1.734  0.4929  0.2286  0.1304
  846MOL0     C14113   4.725   2.308   1.831  0.3489 -0.6139 -0.1095
  846MOL0     C14114   4.603   2.254   1.761 -0.2985  0.6871  0.5173
  846MOL0     C14115   4.478   2.263   1.838  0.2435  0.5318  0.6427
  846MOL0     C14116   4.381   2.168   1.770 -0.3996  0.1335  0.5180
  846MOL0     C14117   4.246   2.163   1.839  0.4616  0.9522 -0.4066
  846MOL0     C14118   4.156   2.051   1.779 -0.6125 -0.6017 -0.6144
  846MOL0     C14119   4.019   2.031   1.851  0.6875  0.2384  0.1738
  846MOL0    Cl14120   3.947   1.877   1.792  0.5918 -0.3314 -0.0439
  846MOL0     C14121   5.119   2.339   1.635 -0.9474 -0.4174  0.4856
  846MOL0     C14122   5.253   2.350   1.594  0.8410  1.1614  1.1357
  846MOL0     O14123   5.444   2.650   1.615 -0.7884  0.3733 -0.2580
  846MOL0     C14124   5.725   2.630   1.700  0.7859 -0.0385  0.6819
  846MOL0     C14125   5.863   2.634   1.719  0.0811 -0.1555  0.2258
  846MOL0     N14126   6.548   2.482   1.998 -0.3455 -0.7007 -0.0899
  846MOL0     N14127   6.611   2.380   2.038  0.0905  0.3548  0.6878
  846MOL0     C14128   7.831   2.343   2.204  0.5277 -0.1260 -0.1660
  846MOL0     C14129   7.971   2.343   2.217  0.2132 -0.0125 -0.8355
  846MOL0     C14130   8.376   2.539   2.309 -1.2948 -0.7906 -0.4121
  846MOL0     C14131   8.424   2.632   2.225 -0.2549  0.0067  0.0299
  846MOL0     C14132   8.550   2.684   2.240 -0.2655 -0.4846  0.4084
  846MOL0     C14133   8.641   2.637   2.339  0.2798  1.3034  0.6298
  846MOL0     O14134   8.777   2.659   2.355  0.3032  0.4505 -0.1743
  846MOL0     C14135   8.840   2.740   2.259  0.1832 -0.8974  0.0152
  846MOL0     C14136   8.832   2.890   2.285 -0.8160 -0.0442 -0.4840
  846MOL0     C14137   8.873   2.982   2.173 -0.2354 -1.4231  0.5533
  846MOL0     C14138   8.906   3.125   2.213  0.0873 -0.3111  0.3993
  846MOL0     C14139   8.782   3.193   2.263  0.0867  0.0214  0.3490
  846MOL0     C14140   8.669   3.238   2.278 -0.6384 -0.2456  0.1408
  846MOL0     C14141   8.588   2.546   2.431  0.1958 -0.6495 -0.0563
  846MOL0     C14142   8.456   2.498   2.413 -0.8523 -0.4234  0.1325
  846MOL0     H14143   8.019   2.675   2.125  4.0704 -1.3215  2.4275
  846MOL0     H14144   7.773   2.660   2.086  0.8399  1.9849  1.0301
  846MOL0     H14145   7.586   2.266   2.026 -1.8728 -0.4994  1.0016
  846MOL0     H14146   7.595   2.255   2.201 -0.4632 -1.8113  0.5121
  846MOL0     H14147   7.373   2.238   2.107 -2.2096  1.0995 -0.0773
  846MOL0     H14148   7.395   2.347   2.250  0.6452 -1.8240  0.9014
  846MOL0     H14149   7.373   2.545   2.094 -2.1949  1.2653 -0.0751
  846MOL0     H14150   7.365   2.427   1.956 -0.5140 -2.9477 -0.0596
  846MOL0     H14151   7.170   2.399   2.183  1.7047 -0.9748 -0.3298
  846MOL0     H14152   7.154   2.537   2.082  1.4373  1.5280  0.1245
  846MOL0     H14153   7.162   2.357   1.876  1.2781  1.7281  0.2673
  846MOL0     H14154   7.143   2.240   2.018 -3.7846 -1.0535 -1.6029
  846MOL0     H14155   6.929   2.345   2.080 -1.9428  1.5215 -0.2175
  846MOL0     H14156   6.952   2.457   1.950  4.2526  1.0528 -0.4229
  846MOL0     H14157   6.930   2.271   1.800 -1.2546  1.4752  0.5114
  846MOL0     H14158   6.980   2.151   1.907 -0.7554 -0.6787 -4.2267
  846MOL0     H14159   6.748   2.157   2.024  1.0790 -0.3528  0.2659
  846MOL0     H14160   6.732   2.145   1.844 -1.6774  2.6869 -0.8021
  846MOL0     H14161   6.709   2.406   1.731 -0.2947 -3.5236  0.8938
  846MOL0     H14162   6.605   2.719   1.805  1.0833  0.5503 -4.6812
  846MOL0     H14163   6.572   2.612   1.681  1.7494  1.6990  0.8305
  846MOL0     H14164   6.398   2.766   1.754  2.1112 -0.1858 -1.6562
  846MOL0     H14165   6.359   2.649   1.894 -2.9664  1.0443  0.1401
  846MOL0     H14166   6.298   2.476   1.756 -2.4402 -2.1700 -2.3351
  846MOL0     H14167   6.321   2.575   1.601  3.5447  0.8253  1.6648
  846MOL0     H14168   6.152   2.728   1.727 -1.1508 -0.5649 -0.0622
  846MOL0     H14169   6.135   2.590   1.841 -0.5460  0.1512  0.7164
  846MOL0     H14170   5.942   2.440   1.444 -1.6529 -4.4536  2.0437
  846MOL0     H14171   5.592   2.381   1.396 -1.8913  0.0906 -2.3263
  846MOL0     H14172   5.651   2.508   1.298 -1.9340 -0.9323  0.8623
  846MOL0     H14173   5.751   2.353   1.338 -0.7036 -0.3091 -3.0596
  846MOL0     H14174   5.387   2.505   1.867  0.8357 -1.1276 -0.4974
  846MOL0     H14175   5.143   2.486   1.932 -0.0151 -1.9571  1.0152
  846MOL0     H14176   4.797   2.375   1.646 -1.5817 -0.0813  0.8532
  846MOL0     H14177   4.871   2.224   1.709 -0.8924 -0.0404 -0.7102
  846MOL0     H14178   4.756   2.244   1.914 -1.2585  1.1339  1.9832
  846MOL0     H14179   4.703   2.403   1.881  0.3894 -1.0350  0.7282
  846MOL0     H14180   4.615   2.150   1.728 -2.6927  0.9293 -1.4098
  846MOL0     H14181   4.595   2.301   1.663  0.2733 -1.2200 -0.5120
  846MOL0     H14182   4.488   2.241   1.945 -1.2478  0.5046  0.7979
  846MOL0     H14183   4.433   2.362   1.837 -0.9127  0.0311  0.9003
  846MOL0     H14184   4.429   2.070   1.779  2.6373  1.3305 -1.3965
  846MOL0     H14185   4.371   2.192   1.664 -1.7341 -2.2275  0.0379
  846MOL0     H14186   4.255   2.138   1.945 -2.9155  1.8539  0.2274
  846MOL0     H14187   4.187   2.255   1.831 -1.5459 -0.3650 -1.7267
  846MOL0     H14188   4.212   1.959   1.799 -0.0948 -0.6240 -2.0744
  846MOL0     H14189   4.147   2.064   1.671  1.6037  1.6354 -0.6248
  846MOL0     H14190   3.946   2.110   1.833 -1.6613 -0.8748  3.8183
  846MOL0     H14191   4.019   2.023   1.960  0.9874 -0.5517  0.1259
  846MOL0     H14192   5.055   2.295   1.559  1.3328  0.4837 -2.0810
  846MOL0     H14193   5.287   2.318   1.496  0.4820  2.9327  0.4001
  846MOL0     H14194   5.661   2.689   1.765 -0.6938  1.9084 -2.3364
  846MOL0     H14195   5.902   2.688   1.804 -2.5609  0.5022  1.1175
  846MOL0     H14196   7.781   2.250   2.229 -3.1605  1.7299  0.0606
  846MOL0     H14197   8.028   2.262   2.260  2.4406  2.8773  2.1578
  846MOL0     H14198   8.363   2.671   2.144  1.9645 -1.0954 -2.2961
  846MOL0     H14199   8.581   2.764   2.173 -3.5873  0.5113 -0.1138
  846MOL0     H14200   8.946   2.713   2.246  0.3662  1.0793 -4.5609
  846MOL0     H14201   8.799   2.719   2.160  0.9236  1.2412 -0.7895
  846MOL0     H14202   8.899   2.921   2.366 -1.3262  1.6585 -0.6747
  846MOL0     H14203   8.730   2.916   2.316 -1.1961  0.9328 -2.4048
  846MOL0     H14204   8.796   2.984   2.095 -1.7479  1.7231  1.9325
  846MOL0     H14205   8.958   2.937   2.121 -0.4987  0.0240 -1.2385
  846MOL0     H14206   8.943   3.175   2.123  1.6767 -3.8705 -1.1036
  846MOL0     H14207   8.989   3.134   2.285  1.1984  3.7970 -1.0980
  846MOL0     H14208   8.576   3.270   2.320  0.5396  1.7969  1.3781
  846MOL0     H14209   8.641   2.501   2.514  2.0510  0.7309 -0.4313
  846MOL0     H14210   8.411   2.439   2.493 -0.1113  0.4845  1.2581
  847MOL0     O14211   5.868  10.446   1.196  0.6054 -0.9325  0.0414
  847MOL0     C14212   5.930  10.340   1.219 -0.0500 -0.2996  0.6624
  847MOL0     O14213   5.880  10.235   1.296 -1.2554  0.4676 -0.3807
  847MOL0     C14214   5.762  10.247   1.361  0.2284  0.5197  0.6561
  847MOL0     C14215   5.646  10.256   1.283 -0.9206  0.3385 -0.2265
  847MOL0     C14216   5.520  10.263   1.338  0.4426 -0.1974  0.2793
  847MOL0     C14217   5.503  10.277   1.479 -0.2902 -0.8744 -0.2303
  847MOL0     O14218   5.376  10.305   1.532  1.0287  0.5713 -0.3654
  847MOL0     C14219   5.266  10.219   1.499 -0.5309 -0.8216 -0.5356
  847MOL0     C14220   5.183  10.188   1.624 -0.1652 -0.3941  0.1471
  847MOL0     C14221   5.250  10.104   1.731 -0.1727 -0.3428  0.1100
  847MOL0     C14222   5.165  10.069   1.851  0.3317 -0.3414  0.6396
  847MOL0     C14223   5.243  10.007   1.963 -0.2398  0.3449 -0.0068
  847MOL0     C14224   5.154  10.011   2.085  0.5656 -0.1122 -0.0090
  847MOL0     C14225   5.168  10.140   2.175 -0.0565  0.8744  0.6629
  847MOL0     C14226   5.062  10.146   2.275 -0.1083  0.4262  1.0364
  847MOL0     N14227   5.087  10.242   2.381  0.0757  0.3316  0.1479
  847MOL0     C14228   5.066  10.380   2.372  0.7196  0.5593  0.0500
  847MOL0     C14229   5.109  10.425   2.493 -0.3630  0.1779  0.3723
  847MOL0     C14230   5.118  10.568   2.542  0.1156  0.5664 -0.1223
  847MOL0     C14231   5.197  10.657   2.454 -0.2003  0.9359 -0.4655
  847MOL0     C14232   5.327  10.598   2.403  0.8042 -0.2432  0.1893
  847MOL0     C14233   5.418  10.552   2.523 -0.3888  0.2034 -0.0559
  847MOL0     O14234   5.549  10.512   2.483 -0.4217  0.2332 -0.0201
  847MOL0     C14235   5.570  10.390   2.427  0.5490 -0.3116  0.4077
  847MOL0     C14236   5.705  10.359   2.383  0.5087  0.3352  0.2917
  847MOL0     C14237   5.735  10.236   2.326 -0.3116  1.0721 -0.1928
  847MOL0     C14238   5.878  10.221   2.276  1.2264 -0.3363  0.2947
  847MOL0     C14239   5.630  10.146   2.306 -0.5015  1.1299 -0.5886
  847MOL0     C14240   5.659  10.006   2.262 -0.3621 -1.0552 -0.0382
  847MOL0     O14241   5.782   9.947   2.281  0.0218 -0.7116 -0.2066
  847MOL0     C14242   5.800   9.820   2.228 -0.3736 -0.4265  0.4569
  847MOL0     C14243   5.770   9.708   2.304 -0.3449 -0.5566 -0.2925
  847MOL0     C14244   5.798   9.580   2.256 -0.3747  0.1538  0.4721
  847MOL0     C14245   5.852   9.561   2.125 -0.2773  0.5406  0.3000
  847MOL0     O14246   5.874   9.447   2.055 -0.0410 -1.0677  0.2412
  847MOL0     C14247   5.849   9.329   2.135 -0.4161 -0.0389 -0.7068
  847MOL0     C14248   5.903   9.206   2.068 -0.3637 -0.7102  0.8378
  847MOL0     C14249   5.871   9.191   1.921 -0.4902 -0.7648 -0.3212
  847MOL0     C14250   5.913   9.054   1.877  0.2775 -1.3623 -0.2250
  847MOL0     C14251   5.857   9.022   1.735 -0.4685  0.7747 -0.7138
  847MOL0     C14252   5.906   8.893   1.666 -0.0489  0.4629  0.1408
  847MOL0     C14253   5.874   8.765   1.748 -0.0341 -0.0573 -0.1318
  847MOL0     C14254   5.918   8.637   1.672 -0.5830  0.1888  0.6076
  847MOL0    Cl14255   5.837   8.499   1.766 -0.3106  0.2517 -0.0306
  847MOL0     C14256   5.878   9.678   2.051 -0.0240 -0.2490  0.6419
  847MOL0     C14257   5.850   9.804   2.100 -0.4272 -0.0540  0.9653
  847MOL0     O14258   5.563   9.948   2.208 -0.2445 -0.0099 -0.1196
  847MOL0     C14259   5.501  10.172   2.359 -0.7123 -0.6866  0.3090
  847MOL0     C14260   5.471  10.295   2.414 -0.4133 -0.2209  0.6110
  847MOL0     N14261   5.153  10.321   2.573  0.4666  0.0649  0.4450
  847MOL0     N14262   5.141  10.213   2.502  0.0812  0.1772 -0.4730
  847MOL0     C14263   5.626  10.284   1.557 -0.2474 -0.1359 -0.0854
  847MOL0     C14264   5.750  10.272   1.495  0.0860  0.4517 -0.1599
  847MOL0     C14265   6.059  10.317   1.144 -0.3405 -1.0212 -0.2452
  847MOL0     C14266   6.127  10.195   1.150  0.4730 -0.1233  0.3141
  847MOL0     C14267   6.246  10.189   1.081 -0.6549 -0.3973  0.4317
  847MOL0     C14268   6.312  10.297   1.018  0.5129  0.5397  0.4091
  847MOL0     O14269   6.434  10.279   0.969  0.2649  1.1151 -0.5694
  847MOL0     C14270   6.481  10.354   0.852  0.5592 -0.4230 -0.6458
  847MOL0     C14271   6.616  10.425   0.883 -0.2347  0.6430  0.9409
  847MOL0     C14272   6.598  10.531   0.994 -0.2467 -0.6077  0.4860
  847MOL0     C14273   6.722  10.625   0.999 -0.9370  0.3343  1.0082
  847MOL0     C14274   6.706  10.727   1.104 -0.1645 -0.0042 -0.0761
  847MOL0     C14275   6.713  10.815   1.194  0.3112  0.5595  0.9326
  847MOL0     C14276   6.240  10.418   1.007  1.1968 -0.1549 -0.0280
  847MOL0     C14277   6.114  10.421   1.069 -0.2868  0.4342 -0.1501
  847MOL0     H14278   5.663  10.239   1.177  2.6021  2.0577 -0.0642
  847MOL0     H14279   5.426  10.273   1.284  0.9383  2.8180 -0.2300
  847MOL0     H14280   5.201  10.277   1.433 -0.2412  1.0885  0.7556
  847MOL0     H14281   5.297  10.127   1.450  1.4171 -0.2236 -0.5121
  847MOL0     H14282   5.146  10.285   1.659 -1.7688 -0.1158 -2.1089
  847MOL0     H14283   5.097  10.128   1.597  1.6146 -3.2291  0.3618
  847MOL0     H14284   5.286  10.010   1.687  0.8904  0.0961 -0.0018
  847MOL0     H14285   5.342  10.154   1.763 -0.9405 -1.0831  3.9980
  847MOL0     H14286   5.117  10.158   1.893 -2.4617 -1.2940 -0.3078
  847MOL0     H14287   5.087  10.001   1.817  1.7102 -1.7280  0.1064
  847MOL0     H14288   5.274   9.904   1.941  1.6776  1.0642 -0.9158
  847MOL0     H14289   5.332  10.068   1.982 -0.2643  0.2204  0.5285
  847MOL0     H14290   5.052  10.000   2.047 -1.0032  0.0660  3.7717
  847MOL0     H14291   5.168   9.922   2.146 -1.0429 -1.4459 -1.4843
  847MOL0     H14292   5.265  10.141   2.226  0.6676 -2.0204 -0.4644
  847MOL0     H14293   5.175  10.223   2.104  0.5114 -0.9145 -1.4867
  847MOL0     H14294   5.042  10.050   2.326  2.2432  0.0414  1.3409
  847MOL0     H14295   4.967  10.165   2.224  1.1483  2.0144 -0.8217
  847MOL0     H14296   5.021  10.445   2.297 -0.1567  3.2097  2.6689
  847MOL0     H14297   5.013  10.598   2.556 -0.6843 -2.5586  1.5424
  847MOL0     H14298   5.159  10.564   2.643 -2.5648 -1.1302  1.0204
  847MOL0     H14299   5.228  10.746   2.509  0.2126  1.3822 -1.4082
  847MOL0     H14300   5.131  10.689   2.373 -0.5627  0.6649 -0.2834
  847MOL0     H14301   5.381  10.684   2.360 -0.0300  1.3559  2.1695
  847MOL0     H14302   5.311  10.517   2.332 -1.8248  1.6919 -1.5939
  847MOL0     H14303   5.378  10.467   2.581  1.9722 -0.9251  0.0334
  847MOL0     H14304   5.421  10.634   2.595  3.6685 -1.5802  2.1170
  847MOL0     H14305   5.773  10.443   2.394  0.3300  0.6570 -0.9393
  847MOL0     H14306   5.932  10.315   2.282  1.6317 -0.5273 -0.1976
  847MOL0     H14307   5.937  10.152   2.337  2.3167  1.1331  0.9348
  847MOL0     H14308   5.876  10.181   2.174 -0.2065  1.0011 -0.2328
  847MOL0     H14309   5.723   9.723   2.401  1.0552 -0.6625  0.4284
  847MOL0     H14310   5.760   9.499   2.318 -1.3095  1.0299  1.0810
  847MOL0     H14311   5.889   9.333   2.237 -1.9965  2.8582 -0.1062
  847MOL0     H14312   5.743   9.307   2.147  0.0034 -1.8986 -0.0718
  847MOL0     H14313   6.009   9.234   2.064 -1.0106  1.8893 -1.5620
  847MOL0     H14314   5.895   9.111   2.122 -0.8505  0.8526  3.7666
  847MOL0     H14315   5.923   9.263   1.857 -1.4034 -0.6419 -0.9563
  847MOL0     H14316   5.762   9.202   1.909 -0.7130 -0.7057  1.4467
  847MOL0     H14317   6.022   9.052   1.874  0.7551  4.6922  0.9648
  847MOL0     H14318   5.880   8.976   1.946 -1.0018 -2.2646 -1.7762
  847MOL0     H14319   5.869   9.101   1.660  0.7232  0.1298 -1.2377
  847MOL0     H14320   5.749   9.015   1.749 -0.2095 -5.0920  1.1105
  847MOL0     H14321   5.846   8.883   1.574  2.1867 -0.2022 -1.3195
  847MOL0     H14322   6.013   8.893   1.646 -0.1700  1.4094 -0.6157
  847MOL0     H14323   5.770   8.748   1.774  0.5040 -2.9342  0.3831
  847MOL0     H14324   5.927   8.771   1.843 -0.5487  2.5321  0.0786
  847MOL0     H14325   6.027   8.633   1.667 -0.3589  4.1135 -0.9381
  847MOL0     H14326   5.874   8.638   1.572  0.4655  0.5473  0.1365
  847MOL0     H14327   5.909   9.665   1.948 -2.6351  1.4156 -0.4622
  847MOL0     H14328   5.871   9.894   2.043  1.2113  0.6453  2.5838
  847MOL0     H14329   5.419  10.101   2.355 -0.9356 -0.3842 -0.5404
  847MOL0     H14330   5.367  10.317   2.437  0.2640  0.3269  3.5822
  847MOL0     H14331   5.628  10.287   1.665 -0.1957  1.1616 -0.1145
  847MOL0     H14332   5.848  10.262   1.541 -0.4988 -1.5419  0.7670
  847MOL0     H14333   6.081  10.113   1.205 -1.4817  1.1124  0.6195
  847MOL0     H14334   6.288  10.089   1.077 -0.7940 -0.4593  0.4874
  847MOL0     H14335   6.501  10.286   0.769  0.4770  0.1674 -1.1567
  847MOL0     H14336   6.404  10.424   0.820 -1.5682 -2.1337  0.5046
  847MOL0     H14337   6.651  10.469   0.790  2.7837 -1.1708  1.0584
  847MOL0     H14338   6.696  10.353   0.905  0.2601  0.0576 -2.2553
  847MOL0     H14339   6.585  10.476   1.088 -1.0764  1.2112  1.4941
  847MOL0     H14340   6.504  10.586   0.979 -1.3982 -2.9608 -1.8532
  847MOL0     H14341   6.723  10.670   0.899 -3.0635  0.0413  0.8053
  847MOL0     H14342   6.810  10.559   1.007  0.0021  1.3362 -0.5035
  847MOL0     H14343   6.714  10.882   1.278  3.0713 -2.0697  3.2527
  847MOL0     H14344   6.274  10.510   0.961 -2.7176  1.1905 -0.6542
  847MOL0     H14345   6.053  10.509   1.051  1.6745  1.5702 -1.6955
  848MOL0     O14346   3.872   4.969   0.406  0.1141 -0.0108 -0.1762
  848MOL0     C14347   3.909   4.862   0.353  0.2295 -0.1204 -0.8680
  848MOL0     O14348   3.817   4.753   0.317 -0.0440  0.1905 -1.1770
  848MOL0     C14349   3.682   4.769   0.343 -0.4623  0.0012 -0.1588
  848MOL0     C14350   3.594   4.809   0.245  0.0788 -0.2562 -0.1201
  848MOL0     C14351   3.454   4.826   0.272 -0.0813 -0.2050  0.4666
  848MOL0     C14352   3.402   4.810   0.399 -0.3145 -0.2551  0.3398
  848MOL0     O14353   3.273   4.852   0.426 -0.1601 -0.3625  0.1530
  848MOL0     C14354   3.219   4.886   0.558 -0.6008  0.0623 -0.1630
  848MOL0     C14355   3.070   4.885   0.562  0.0234 -0.0683 -0.2430
  848MOL0     C14356   2.992   4.973   0.466  0.1437 -0.5450  0.1757
  848MOL0     C14357   2.843   4.986   0.511 -0.3698  0.7900  0.0126
  848MOL0     C14358   2.751   5.040   0.408  0.5572 -0.1422 -0.0532
  848MOL0     C14359   2.609   5.029   0.451 -0.7907 -0.5646 -0.2027
  848MOL0     C14360   2.520   5.111   0.358 -0.1608  0.6067  0.1768
  848MOL0     C14361   2.379   5.114   0.411  0.0281 -0.3704 -0.2043
  848MOL0     N14362   2.286   5.179   0.320 -0.9099  0.1809  0.4330
  848MOL0     C14363   2.160   5.141   0.307 -0.1706  0.4277 -0.7977
  848MOL0     C14364   2.113   5.188   0.199 -0.4618 -0.5270  0.4694
  848MOL0     C14365   1.979   5.158   0.137 -0.3095  0.2874  0.2661
  848MOL0     C14366   1.866   5.240   0.197  0.2233 -0.4413 -0.1050
  848MOL0     C14367   1.815   5.179   0.333 -0.4926  0.6545 -0.7319
  848MOL0     C14368   1.706   5.250   0.406  0.2418  0.3894  0.2810
  848MOL0     O14369   1.581   5.202   0.347  0.1081  0.0614 -0.5074
  848MOL0     C14370   1.474   5.263   0.387  0.8159  0.1359  0.5679
  848MOL0     C14371   1.370   5.236   0.299  0.0727 -0.4769 -0.4713
  848MOL0     C14372   1.241   5.265   0.319 -0.0063 -0.0284 -0.2631
  848MOL0     C14373   1.150   5.237   0.208 -0.1368 -0.2878 -0.0989
  848MOL0     C14374   1.206   5.346   0.432 -0.4867 -0.4470 -0.1818
  848MOL0     C14375   1.070   5.401   0.455 -0.3166 -0.2735  0.2713
  848MOL0     O14376   1.064   5.454   0.578  0.2154 -0.4815 -0.6063
  848MOL0     C14377   0.949   5.519   0.621  0.9362 -0.0382 -0.6423
  848MOL0     C14378   0.939   5.518   0.756 -0.0583  0.8891  0.2184
  848MOL0     C14379   0.830   5.570   0.828 -0.2142  0.1912  0.2078
  848MOL0     C14380   0.727   5.632   0.756 -0.3063 -0.2961  0.0566
  848MOL0     O14381   0.614   5.680   0.823  0.1471 -0.2711  0.1394
  848MOL0     C14382   0.496   5.716   0.750 -0.2495  0.5094 -0.4834
  848MOL0     C14383   0.387   5.791   0.838 -0.5696  0.0678  0.1539
  848MOL0     C14384   0.441   5.927   0.891  0.1050 -0.3698 -0.1403
  848MOL0     C14385   0.362   5.995   1.010 -0.0030  0.2806 -0.3796
  848MOL0     C14386   0.454   6.093   1.080 -0.2861 -0.5866 -0.5006
  848MOL0     C14387   0.399   6.133   1.223 -0.4186 -0.0824  0.0736
  848MOL0     C14388   0.295   6.253   1.215  0.1326 -0.0393  0.3519
  848MOL0     C14389   0.233   6.285   1.349  0.5841 -0.4651 -0.2060
  848MOL0    Cl14390   0.115   6.417   1.324 -0.4782  0.2319 -0.2859
  848MOL0     C14391   0.741   5.645   0.616 -0.3909  0.5596  0.3365
  848MOL0     C14392   0.850   5.589   0.551  0.0975  0.9317  0.3390
  848MOL0     O14393   0.983   5.398   0.370 -0.1602  0.6085  0.0768
  848MOL0     C14394   1.316   5.379   0.521 -0.3143  0.2122  0.0430
  848MOL0     C14395   1.445   5.334   0.498 -0.1002  0.0748 -0.3110
  848MOL0     N14396   2.210   5.267   0.144  0.4175 -0.3265 -0.1796
  848MOL0     N14397   2.321   5.255   0.212  0.1827  0.4041  0.1803
  848MOL0     C14398   3.494   4.776   0.505  1.0183  0.0979  0.5095
  848MOL0     C14399   3.629   4.754   0.476  0.0190  0.3638  0.4357
  848MOL0     C14400   4.054   4.846   0.321 -0.7031  1.0070  0.8093
  848MOL0     C14401   4.095   4.743   0.225  0.2448 -0.1820 -0.2594
  848MOL0     C14402   4.233   4.714   0.193 -0.0043 -0.0416  0.6262
  848MOL0     C14403   4.328   4.786   0.265 -0.2049  0.2381  0.7402
  848MOL0     O14404   4.469   4.761   0.254  0.1382  0.3560 -0.5434
  848MOL0     C14405   4.520   4.666   0.151  0.5915  0.5217 -0.0566
  848MOL0     C14406   4.523   4.717   0.007  0.7170 -0.5566 -0.2972
  848MOL0     C14407   4.616   4.831  -0.024 -0.5592 -0.4138 -0.6464
  848MOL0     C14408   4.576   4.969   0.031  0.3571  0.0094 -0.5819
  848MOL0     C14409   4.445   5.015  -0.031  0.1091  0.0693  0.5459
  848MOL0     C14410   4.347   5.067  -0.086 -0.6779 -0.1976 -0.5668
  848MOL0     C14411   4.285   4.890   0.355  0.1213 -0.4570  0.7170
  848MOL0     C14412   4.148   4.926   0.374 -0.2668  0.0643  0.7128
  848MOL0     H14413   3.636   4.829   0.147  0.2237  2.4389  0.4069
  848MOL0     H14414   3.379   4.846   0.196 -0.6136  0.6426  1.2061
  848MOL0     H14415   3.247   4.801   0.622 -0.3799 -0.6383 -1.1656
  848MOL0     H14416   3.274   4.974   0.592 -1.3734  0.6289 -0.3594
  848MOL0     H14417   3.037   4.781   0.551  1.3988 -0.2976 -2.8422
  848MOL0     H14418   3.049   4.906   0.668  2.9036 -0.5891  0.5278
  848MOL0     H14419   3.036   5.073   0.472  0.5866 -0.6960 -0.4583
  848MOL0     H14420   2.993   4.937   0.363  1.1842 -2.2970  0.7680
  848MOL0     H14421   2.806   4.884   0.527 -0.0323 -0.2083 -4.3577
  848MOL0     H14422   2.829   5.040   0.605 -0.5555  0.2817  0.2819
  848MOL0     H14423   2.767   5.146   0.387  1.2931  0.0370  1.3011
  848MOL0     H14424   2.764   4.987   0.313 -1.7545  0.8315 -0.9783
  848MOL0     H14425   2.572   4.926   0.445 -2.9552  0.2018 -0.9006
  848MOL0     H14426   2.597   5.070   0.552 -1.2128 -2.4548  0.5583
  848MOL0     H14427   2.559   5.212   0.341 -1.7709  0.9415 -1.9825
  848MOL0     H14428   2.525   5.068   0.257 -2.1530 -1.6286  0.9421
  848MOL0     H14429   2.372   5.182   0.496 -0.0789 -0.6586  0.0189
  848MOL0     H14430   2.354   5.012   0.444  1.0033 -1.2932 -2.1417
  848MOL0     H14431   2.115   5.061   0.366  2.5963  0.5578  1.7720
  848MOL0     H14432   1.997   5.183   0.032  2.7438 -0.0092  0.6199
  848MOL0     H14433   1.975   5.049   0.145  2.2306 -0.2970 -3.3695
  848MOL0     H14434   1.786   5.228   0.124 -1.2310 -1.9180  1.6211
  848MOL0     H14435   1.886   5.347   0.209 -0.8890 -0.1357 -0.8969
  848MOL0     H14436   1.903   5.190   0.398 -0.7072  0.3803 -0.3935
  848MOL0     H14437   1.784   5.076   0.317 -0.8908  0.8451 -1.2192
  848MOL0     H14438   1.716   5.358   0.388  0.2381  0.4117  0.4119
  848MOL0     H14439   1.716   5.233   0.513  1.0447 -1.1307 -0.0033
  848MOL0     H14440   1.398   5.186   0.207 -0.6775 -1.5232 -0.1477
  848MOL0     H14441   1.178   5.158   0.138  1.0099 -2.7594  2.9394
  848MOL0     H14442   1.062   5.191   0.253  0.4944 -1.5718 -0.1343
  848MOL0     H14443   1.129   5.325   0.145  2.1996 -1.4148 -2.6829
  848MOL0     H14444   1.013   5.467   0.817 -1.6668 -0.0228  1.4907
  848MOL0     H14445   0.812   5.562   0.934 -0.2061 -0.5264  0.1601
  848MOL0     H14446   0.516   5.778   0.662  1.2334  0.3174 -0.3118
  848MOL0     H14447   0.453   5.618   0.729  3.0158 -1.0579 -0.4620
  848MOL0     H14448   0.296   5.805   0.778  0.0389 -0.9934 -1.0407
  848MOL0     H14449   0.358   5.731   0.925  4.1344 -0.1849  1.8211
  848MOL0     H14450   0.428   5.995   0.806  0.4341 -0.3333 -0.1607
  848MOL0     H14451   0.546   5.915   0.917 -0.1331 -3.9320 -0.3699
  848MOL0     H14452   0.266   6.037   0.980  0.7493  1.5309 -1.1173
  848MOL0     H14453   0.348   5.909   1.077 -0.8905  0.7088 -0.0061
  848MOL0     H14454   0.467   6.174   1.008  0.0657  0.8169  1.0665
  848MOL0     H14455   0.552   6.047   1.100 -0.9440 -2.9149 -2.2612
  848MOL0     H14456   0.352   6.045   1.266  1.7022 -1.5245 -0.3641
  848MOL0     H14457   0.474   6.176   1.290 -1.2875  0.5546  0.6446
  848MOL0     H14458   0.221   6.231   1.138  0.6640 -2.0415  0.3421
  848MOL0     H14459   0.338   6.347   1.179 -4.3248  2.1273  0.0523
  848MOL0     H14460   0.317   6.314   1.412  0.0997 -0.5386  0.4803
  848MOL0     H14461   0.178   6.200   1.391 -1.0096  1.0163  0.8356
  848MOL0     H14462   0.666   5.684   0.547  1.6265  3.2364 -0.5604
  848MOL0     H14463   0.857   5.605   0.444 -2.2101  1.6522  0.2400
  848MOL0     H14464   1.279   5.440   0.603 -3.1210  0.3253 -1.1670
  848MOL0     H14465   1.523   5.377   0.561 -2.2962  1.6645  1.5246
  848MOL0     H14466   3.458   4.770   0.607 -2.5952  1.8108 -0.4961
  848MOL0     H14467   3.700   4.726   0.553 -0.0782 -2.9472 -0.5080
  848MOL0     H14468   4.021   4.675   0.183 -1.3094  0.5340  1.2019
  848MOL0     H14469   4.253   4.637   0.120  0.5938  1.3432 -0.7137
  848MOL0     H14470   4.621   4.640   0.182  0.9471  0.9207 -0.8379
  848MOL0     H14471   4.474   4.567   0.157 -1.0020  1.1371 -1.3434
  848MOL0     H14472   4.423   4.737  -0.033  0.4459  0.8462  0.9800
  848MOL0     H14473   4.550   4.623  -0.041  1.6302 -0.5915  0.2555
  848MOL0     H14474   4.617   4.842  -0.133 -1.1047  0.4417 -0.5735
  848MOL0     H14475   4.713   4.810   0.021 -0.1712  0.1235 -1.2094
  848MOL0     H14476   4.654   5.036  -0.006 -0.0462 -0.6043 -2.6693
  848MOL0     H14477   4.561   4.983   0.139 -2.8742  1.2929 -1.0569
  848MOL0     H14478   4.252   5.096  -0.125 -0.7365  1.6346  0.7592
  848MOL0     H14479   4.365   4.951   0.395 -0.5353  0.3057  0.8789
  848MOL0     H14480   4.129   5.012   0.437  0.4356 -0.4723  1.6781
  849MOL0     O14481   5.528   4.651   9.660  0.2295  0.0642  0.6360
  849MOL0     C14482   5.559   4.724   9.749 -0.5173  0.6570 -0.2117
  849MOL0     O14483   5.485   4.831   9.797  0.0109  0.2456 -0.4120
  849MOL0     C14484   5.361   4.847   9.751  0.7045 -0.1356  0.0956
  849MOL0     C14485   5.329   4.962   9.680 -0.3046  0.6456 -0.6374
  849MOL0     C14486   5.195   4.977   9.630 -0.9468  0.5297 -0.4895
  849MOL0     C14487   5.094   4.880   9.658 -0.4200  0.3664  0.2447
  849MOL0     O14488   4.970   4.899   9.598  0.8686  0.0391  0.0525
  849MOL0     C14489   4.933   4.782   9.524  0.7526  0.0563 -0.6121
  849MOL0     C14490   4.858   4.826   9.401 -0.7168 -0.1297 -0.1981
  849MOL0     C14491   4.822   4.723   9.288  0.1038 -0.1344 -1.2678
  849MOL0     C14492   4.715   4.632   9.323  0.0375 -1.0154 -0.0833
  849MOL0     C14493   4.658   4.555   9.206 -0.1982 -0.1604  0.1376
  849MOL0     C14494   4.552   4.444   9.233 -0.0079 -0.1957 -0.1016
  849MOL0     C14495   4.531   4.373   9.092 -0.0766 -0.6634 -0.7014
  849MOL0     C14496   4.469   4.229   9.112  0.5862 -0.3285 -0.9142
  849MOL0     N14497   4.353   4.232   9.203 -0.7857 -0.2595  0.2167
  849MOL0     C14498   4.234   4.292   9.174 -0.0913 -0.4304 -0.0239
  849MOL0     C14499   4.166   4.278   9.286  0.0661  0.7238 -1.1488
  849MOL0     C14500   4.024   4.312   9.313 -0.7798 -0.6964  0.1805
  849MOL0     C14501   3.967   4.279   9.456 -0.8742  0.0693  0.6940
  849MOL0     C14502   3.821   4.284   9.454 -0.1059 -0.2191  0.6843
  849MOL0     C14503   3.758   4.251   9.591 -1.0115  0.2406  0.1920
  849MOL0     O14504   3.629   4.201   9.578  0.7131 -0.1022  1.1143
  849MOL0     C14505   3.558   4.189   9.689 -0.1959  0.4307 -0.4416
  849MOL0     C14506   3.606   4.175   9.821  0.0966  0.2462 -0.1411
  849MOL0     C14507   3.519   4.170   9.927  0.2673 -0.4884 -0.2834
  849MOL0     C14508   3.580   4.172  10.067  0.0867  0.0339 -0.3973
  849MOL0     C14509   3.382   4.159   9.907  0.5934  0.5721 -0.8214
  849MOL0     C14510   3.275   4.157  10.010 -0.3699 -0.0239 -0.2087
  849MOL0     O14511   3.149   4.136   9.965 -0.0178  0.0066  0.5662
  849MOL0     C14512   3.050   4.111  10.053 -0.0434 -0.1015 -0.8303
  849MOL0     C14513   2.936   4.186  10.038 -0.1290 -0.3280  0.5700
  849MOL0     C14514   2.827   4.160  10.119 -0.1400 -0.3370 -0.6478
  849MOL0     C14515   2.822   4.067  10.224  0.5236  0.1081  0.5293
  849MOL0     O14516   2.706   4.062  10.298  0.2106 -0.1823  0.0691
  849MOL0     C14517   2.702   3.984  10.417  0.1881  0.4496 -0.2901
  849MOL0     C14518   2.677   3.835  10.386  0.6169 -0.3450  0.2008
  849MOL0     C14519   2.535   3.813  10.325  0.8373  0.1172 -0.4005
  849MOL0     C14520   2.486   3.669  10.299 -0.4368 -1.0503 -0.5257
  849MOL0     C14521   2.331   3.666  10.283 -0.2472 -0.7748 -0.7103
  849MOL0     C14522   2.277   3.529  10.249  0.5122  0.1932 -0.1410
  849MOL0     C14523   2.126   3.512  10.272  1.1125  0.4787  0.2304
  849MOL0     C14524   2.052   3.617  10.186  0.5797  0.5038 -0.2137
  849MOL0    Cl14525   1.870   3.581  10.177 -0.1853 -0.2621 -0.1507
  849MOL0     C14526   2.945   3.991  10.236 -0.6465  0.1243 -0.3109
  849MOL0     C14527   3.057   4.008  10.153 -0.9062  0.5741 -0.8895
  849MOL0     O14528   3.306   4.171  10.128  0.2835 -0.1946  0.7568
  849MOL0     C14529   3.344   4.152   9.777 -0.4342 -0.1685  0.3871
  849MOL0     C14530   3.425   4.167   9.672  0.2076  0.5278  1.2410
  849MOL0     N14531   4.247   4.226   9.382 -0.0200  0.8559 -0.2148
  849MOL0     N14532   4.359   4.196   9.333 -0.5815 -0.2964 -0.8021
  849MOL0     C14533   5.128   4.772   9.740  0.2434 -0.1703  0.4643
  849MOL0     C14534   5.260   4.755   9.785  0.2873  0.3332  0.6269
  849MOL0     C14535   5.682   4.695   9.815 -0.7040 -0.4957 -0.3089
  849MOL0     C14536   5.786   4.615   9.759  0.5657  0.0632  0.0532
  849MOL0     C14537   5.915   4.613   9.818  0.9284  0.0461  0.4946
  849MOL0     C14538   5.947   4.679   9.936  0.0635 -0.0071  1.1615
  849MOL0     O14539   6.069   4.653   9.994 -0.1014  0.4152 -0.4940
  849MOL0     C14540   6.117   4.735  10.096  0.5534  0.4149  0.0446
  849MOL0     C14541   6.253   4.686  10.151  0.2791 -0.5394 -1.1593
  849MOL0     C14542   6.358   4.673  10.039 -0.4442 -0.1352 -0.6850
  849MOL0     C14543   6.481   4.758  10.062 -0.1503 -0.3714  0.7818
  849MOL0     C14544   6.528   4.750  10.200  0.3003  0.0479  0.4018
  849MOL0     C14545   6.568   4.731  10.311  0.5569 -0.4196 -0.5649
  849MOL0     C14546   5.846   4.761   9.991 -0.1284 -0.4168 -0.4467
  849MOL0     C14547   5.722   4.768   9.937 -0.1656 -0.0121  0.0117
  849MOL0     H14548   5.397   5.046   9.677 -0.6058  0.9033 -0.3693
  849MOL0     H14549   5.167   5.060   9.565 -1.3151 -0.3163 -1.4488
  849MOL0     H14550   5.018   4.726   9.485  0.8493  0.4686 -0.9922
  849MOL0     H14551   4.874   4.718   9.590  2.6576 -0.5058  0.6441
  849MOL0     H14552   4.767   4.879   9.428 -1.3747 -2.1651  1.9728
  849MOL0     H14553   4.933   4.898   9.366 -0.1057  1.1913  3.3912
  849MOL0     H14554   4.803   4.786   9.202  2.5942 -1.0894 -2.6224
  849MOL0     H14555   4.913   4.666   9.266 -1.1870 -1.9014 -2.2971
  849MOL0     H14556   4.743   4.565   9.405  2.5142 -1.2885 -1.0690
  849MOL0     H14557   4.637   4.702   9.355 -0.9951 -1.7157 -0.9644
  849MOL0     H14558   4.629   4.626   9.128 -0.2745 -0.1727  0.1540
  849MOL0     H14559   4.739   4.501   9.156 -0.4101  1.3656 -1.9929
  849MOL0     H14560   4.578   4.385   9.321 -2.3683  1.4766  1.8717
  849MOL0     H14561   4.457   4.488   9.264 -1.2269 -1.8930 -1.2017
  849MOL0     H14562   4.460   4.430   9.032  1.3963  0.6319 -1.2964
  849MOL0     H14563   4.628   4.368   9.042  1.7967 -1.3501  2.6831
  849MOL0     H14564   4.536   4.156   9.159 -1.5317 -0.9927  1.2575
  849MOL0     H14565   4.437   4.184   9.018  1.4863 -0.4486 -1.1677
  849MOL0     H14566   4.203   4.346   9.086  0.1768  0.7739  0.5944
  849MOL0     H14567   4.005   4.417   9.292  0.1560 -0.8138 -1.4881
  849MOL0     H14568   3.975   4.248   9.239 -2.1179  0.5586 -0.0346
  849MOL0     H14569   4.022   4.346   9.523  2.8032  0.0893 -1.9999
  849MOL0     H14570   4.008   4.180   9.480  0.9141  0.8967  1.2274
  849MOL0     H14571   3.767   4.233   9.374 -3.9086  3.5009  0.4873
  849MOL0     H14572   3.804   4.391   9.438  1.9402  0.2312  1.1797
  849MOL0     H14573   3.758   4.336   9.660  0.4665  0.2410  0.2095
  849MOL0     H14574   3.816   4.170   9.635  0.4374  2.2101  2.1767
  849MOL0     H14575   3.712   4.167   9.842  0.3918  2.0810 -0.7011
  849MOL0     H14576   3.685   4.142  10.076 -0.3794 -1.2440  1.2580
  849MOL0     H14577   3.556   4.266  10.117 -4.3596 -1.8215  1.5207
  849MOL0     H14578   3.525   4.096  10.123 -2.4143  1.6225 -0.5211
  849MOL0     H14579   2.930   4.268   9.967  0.8297  0.9325  1.8714
  849MOL0     H14580   2.734   4.213  10.102 -0.0656  0.1462  0.4139
  849MOL0     H14581   2.793   4.002  10.476  2.0297 -1.3798 -2.3687
  849MOL0     H14582   2.617   4.017  10.477  0.7138  2.3933 -0.5541
  849MOL0     H14583   2.743   3.780  10.318 -0.9215 -3.1028  0.7524
  849MOL0     H14584   2.692   3.775  10.477  1.3472  1.9112  1.6331
  849MOL0     H14585   2.529   3.878  10.237 -0.3189  0.3854 -0.1479
  849MOL0     H14586   2.462   3.863  10.390  1.7398 -0.8061  1.4022
  849MOL0     H14587   2.526   3.617  10.212  1.2878  1.2790 -1.2391
  849MOL0     H14588   2.521   3.611  10.385  1.6817 -0.8601 -1.1998
  849MOL0     H14589   2.292   3.745  10.218  1.3699  1.5159  0.9464
  849MOL0     H14590   2.287   3.685  10.381 -0.5304  0.6614 -1.0832
  849MOL0     H14591   2.299   3.507  10.144 -1.6940 -0.3935 -0.5267
  849MOL0     H14592   2.318   3.458  10.322 -1.4568 -0.9031 -0.0507
  849MOL0     H14593   2.093   3.513  10.377 -5.5886  0.9018 -1.4467
  849MOL0     H14594   2.102   3.412  10.236 -2.2756  1.1881  0.2050
  849MOL0     H14595   2.101   3.613  10.088  2.2249 -3.0404  0.5924
  849MOL0     H14596   2.064   3.717  10.230 -0.3138  0.3602  0.3722
  849MOL0     H14597   2.937   3.916  10.313 -0.1617 -0.1064 -0.4823
  849MOL0     H14598   3.146   3.950  10.178 -1.1501  0.4040 -0.4062
  849MOL0     H14599   3.242   4.132   9.743 -0.6045  2.1545 -0.6403
  849MOL0     H14600   3.399   4.165   9.566 -1.9507  1.6245  1.6956
  849MOL0     H14601   5.052   4.698   9.767  1.5234 -1.0246  1.8953
  849MOL0     H14602   5.268   4.666   9.847 -0.1650  1.3766  2.2593
  849MOL0     H14603   5.773   4.555   9.670  0.8102  0.9663 -0.6083
  849MOL0     H14604   5.990   4.547   9.777 -1.1554 -1.5010 -1.0314
  849MOL0     H14605   6.129   4.836  10.058  0.5918 -0.5357 -2.7156
  849MOL0     H14606   6.049   4.731  10.182  0.3568 -2.4760 -0.1287
  849MOL0     H14607   6.237   4.588  10.195 -2.2009  0.7770  1.1563
  849MOL0     H14608   6.271   4.752  10.236 -1.0876  1.8246 -2.6018
  849MOL0     H14609   6.311   4.690   9.941 -0.6361 -1.2924 -0.8140
  849MOL0     H14610   6.393   4.569  10.041 -0.4591 -0.1470 -0.9876
  849MOL0     H14611   6.460   4.861  10.032  0.2943 -0.8398 -1.2878
  849MOL0     H14612   6.552   4.719   9.988 -1.6608 -0.4300 -0.6809
  849MOL0     H14613   6.598   4.695  10.407 -1.7209 -1.5457 -0.2084
  849MOL0     H14614   5.859   4.813  10.086 -0.1714 -0.6064 -0.3359
  849MOL0     H14615   5.651   4.835   9.983  0.7945  0.2584  1.1510
  850MOL0     O14616   7.323   2.747   7.081  0.2634 -1.1272  0.0083
  850MOL0     C14617   7.356   2.712   7.194 -0.3318 -0.0255 -0.4987
  850MOL0     O14618   7.267   2.656   7.278  0.6102  0.5315 -0.0322
  850MOL0     C14619   7.143   2.631   7.219  0.3823  0.6234 -0.6159
  850MOL0     C14620   7.119   2.499   7.160 -0.5843 -0.2662  1.1029
  850MOL0     C14621   6.994   2.471   7.108 -0.0482  0.4507  0.3168
  850MOL0     C14622   6.891   2.563   7.126  0.3574 -0.3116 -0.3831
  850MOL0     O14623   6.771   2.541   7.065  0.0682  0.3896  0.1151
  850MOL0     C14624   6.759   2.596   6.935 -0.4738 -0.5607  0.1851
  850MOL0     C14625   6.645   2.516   6.869 -0.1823  0.3362  0.5006
  850MOL0     C14626   6.683   2.378   6.822 -0.3576 -0.0071  0.4436
  850MOL0     C14627   6.560   2.294   6.793 -0.3014  0.3258  0.2030
  850MOL0     C14628   6.477   2.352   6.681  0.1513  0.6736  0.5429
  850MOL0     C14629   6.389   2.235   6.621  0.4153  0.3938 -0.6566
  850MOL0     C14630   6.276   2.291   6.536  0.0243 -0.4116  0.9072
  850MOL0     C14631   6.324   2.307   6.390  0.4004 -0.1467  0.1034
  850MOL0     N14632   6.207   2.351   6.312 -0.2135  0.8020  0.3697
  850MOL0     C14633   6.108   2.276   6.249 -0.8829 -0.1113  0.9960
  850MOL0     C14634   6.026   2.357   6.175  0.0299 -0.4027  0.7146
  850MOL0     C14635   5.911   2.318   6.083 -1.2377  0.0997  0.6394
  850MOL0     C14636   5.783   2.336   6.150  0.0244  0.3058 -0.1074
  850MOL0     C14637   5.731   2.477   6.122  1.0316  0.2028 -0.5307
  850MOL0     C14638   5.587   2.502   6.173  0.1497 -0.4823 -0.0850
  850MOL0     O14639   5.541   2.635   6.206  0.0893 -0.1048  0.2112
  850MOL0     C14640   5.543   2.731   6.101  0.4285  0.7031  0.2339
  850MOL0     C14641   5.441   2.731   5.995 -0.2090  0.4204  0.1549
  850MOL0     C14642   5.442   2.825   5.887 -0.3814  1.2242  0.8505
  850MOL0     C14643   5.316   2.819   5.803  0.0919 -0.5006  0.8547
  850MOL0     C14644   5.542   2.919   5.884 -0.4053 -0.0698 -0.4953
  850MOL0     C14645   5.546   3.035   5.788  0.6510 -0.5833 -0.2059
  850MOL0     O14646   5.590   3.151   5.837  0.0351  0.1414 -0.1457
  850MOL0     C14647   5.592   3.248   5.745 -0.6120 -0.2325  0.7729
  850MOL0     C14648   5.717   3.316   5.733  0.2031  0.6457  0.2300
  850MOL0     C14649   5.736   3.425   5.646 -0.2242  0.9791  0.2588
  850MOL0     C14650   5.630   3.469   5.571 -0.9152  0.0722 -0.2426
  850MOL0     O14651   5.656   3.578   5.486 -0.0563 -0.3269 -0.7431
  850MOL0     C14652   5.569   3.694   5.516 -0.0541  0.4599  0.3332
  850MOL0     C14653   5.646   3.821   5.489  0.0289 -0.5202 -0.4665
  850MOL0     C14654   5.779   3.827   5.566 -0.0975  0.2950 -0.0399
  850MOL0     C14655   5.867   3.950   5.547  0.4032  0.7090  0.3698
  850MOL0     C14656   5.991   3.949   5.638 -0.2417  0.3961  0.0519
  850MOL0     C14657   6.091   4.060   5.633 -0.0914 -0.3151 -0.1461
  850MOL0     C14658   6.195   4.044   5.739  0.2322  0.3668 -0.0741
  850MOL0     C14659   6.329   4.114   5.703  0.8100 -0.0271 -0.4835
  850MOL0    Cl14660   6.304   4.295   5.670 -0.0346 -0.3124  0.1919
  850MOL0     C14661   5.510   3.393   5.570 -0.0445 -0.1475  0.2298
  850MOL0     C14662   5.490   3.288   5.659 -0.9900  0.3950  0.1986
  850MOL0     O14663   5.529   3.000   5.674  0.0154 -0.4225 -0.3514
  850MOL0     C14664   5.646   2.913   5.981  0.1974 -0.7827 -0.4638
  850MOL0     C14665   5.650   2.814   6.077 -0.9343 -0.2732 -0.8575
  850MOL0     N14666   6.079   2.487   6.194 -0.1249  0.4011  0.2761
  850MOL0     N14667   6.185   2.476   6.260 -0.2348 -0.3307  0.1518
  850MOL0     C14668   6.916   2.685   7.181 -0.1623  0.1711 -0.2233
  850MOL0     C14669   7.038   2.720   7.230 -0.2364 -0.4120  0.0724
  850MOL0     C14670   7.498   2.712   7.231 -0.3492 -0.0723  0.2317
  850MOL0     C14671   7.550   2.690   7.362 -0.1861 -0.2086  0.0017
  850MOL0     C14672   7.687   2.695   7.393 -0.1340  0.3976 -0.1035
  850MOL0     C14673   7.783   2.703   7.293 -0.4712 -0.0235  0.2303
  850MOL0     O14674   7.916   2.699   7.331 -0.5484 -0.4673 -0.1062
  850MOL0     C14675   8.015   2.746   7.237  0.0894  0.1185  0.5793
  850MOL0     C14676   8.157   2.718   7.281 -0.1135  0.4687  0.3506
  850MOL0     C14677   8.271   2.786   7.196 -0.3568  0.4991  0.6178
  850MOL0     C14678   8.405   2.718   7.236  0.1248 -0.3118 -0.5102
  850MOL0     C14679   8.403   2.575   7.218  0.2054  0.0233  0.1578
  850MOL0     C14680   8.372   2.458   7.203  0.6295  0.8308  0.0193
  850MOL0     C14681   7.735   2.716   7.161 -0.5009 -0.3276 -0.1140
  850MOL0     C14682   7.598   2.719   7.135 -0.3577  0.0725 -0.1253
  850MOL0     H14683   7.199   2.427   7.155  0.3220  0.7715  0.1279
  850MOL0     H14684   6.973   2.374   7.065 -0.6281  0.6930  0.0330
  850MOL0     H14685   6.714   2.695   6.941  0.4469 -0.2170  2.2899
  850MOL0     H14686   6.847   2.590   6.870 -1.9023 -2.9154 -1.7275
  850MOL0     H14687   6.564   2.509   6.943  0.2865 -2.1685  0.8626
  850MOL0     H14688   6.618   2.575   6.781  2.6025  0.6239 -0.2272
  850MOL0     H14689   6.754   2.395   6.741  0.4023 -0.1199  1.0794
  850MOL0     H14690   6.742   2.339   6.905  0.2049 -0.3022 -0.0849
  850MOL0     H14691   6.586   2.192   6.764 -1.6063 -0.2855  1.0618
  850MOL0     H14692   6.490   2.287   6.878  1.8183  0.3877  2.0501
  850MOL0     H14693   6.415   2.433   6.722  0.3314  1.6009 -0.9434
  850MOL0     H14694   6.533   2.401   6.601  0.1303  2.0606  1.3279
  850MOL0     H14695   6.466   2.170   6.577  1.4512 -0.3280  2.0319
  850MOL0     H14696   6.347   2.182   6.707  2.4690  2.0266  1.4992
  850MOL0     H14697   6.182   2.236   6.536 -0.2253 -0.2284 -2.6022
  850MOL0     H14698   6.252   2.387   6.584  2.8764  0.9048 -0.0659
  850MOL0     H14699   6.357   2.216   6.337 -1.3129  1.4163 -4.0620
  850MOL0     H14700   6.398   2.387   6.383 -0.2564  0.3609 -1.8732
  850MOL0     H14701   6.094   2.169   6.258 -2.1445 -0.0161  0.4052
  850MOL0     H14702   5.928   2.386   5.999 -3.0647  0.7494  0.7526
  850MOL0     H14703   5.924   2.216   6.046 -2.0133 -0.2877  1.4174
  850MOL0     H14704   5.788   2.311   6.257 -2.5063  0.7428  0.1758
  850MOL0     H14705   5.719   2.257   6.112  2.8826 -3.1680  1.6679
  850MOL0     H14706   5.723   2.498   6.015  2.1285 -0.0229 -0.6655
  850MOL0     H14707   5.787   2.549   6.182 -2.9830  2.4572  0.9499
  850MOL0     H14708   5.577   2.444   6.265 -0.0739  1.6783  1.3091
  850MOL0     H14709   5.515   2.456   6.104 -0.9855  1.2788 -0.1199
  850MOL0     H14710   5.348   2.677   6.011  0.5605 -2.4352 -3.5377
  850MOL0     H14711   5.327   2.751   5.718  0.2386 -1.0647  1.3186
  850MOL0     H14712   5.232   2.783   5.863  0.1918 -0.0408  1.2770
  850MOL0     H14713   5.291   2.920   5.767  0.3909 -0.2690  1.2862
  850MOL0     H14714   5.799   3.294   5.801  1.3854  3.1700 -0.2699
  850MOL0     H14715   5.825   3.489   5.649  0.3048  0.3972 -1.6001
  850MOL0     H14716   5.489   3.674   5.444 -0.7832 -2.6072  1.8127
  850MOL0     H14717   5.534   3.682   5.619  1.7745  1.0522  1.0607
  850MOL0     H14718   5.653   3.834   5.381 -0.8348  1.1445 -0.3521
  850MOL0     H14719   5.570   3.897   5.509 -1.9041 -2.3168 -0.6711
  850MOL0     H14720   5.832   3.736   5.538 -2.7798 -1.4847  0.2469
  850MOL0     H14721   5.752   3.826   5.672 -0.4610 -0.1970 -0.1338
  850MOL0     H14722   5.903   3.956   5.443 -0.5896 -0.7105 -0.0874
  850MOL0     H14723   5.801   4.031   5.579 -0.1153  0.2903  0.3770
  850MOL0     H14724   6.050   3.858   5.620  1.7804  1.5491  0.4686
  850MOL0     H14725   5.950   3.940   5.739  2.9038 -2.2768  1.2806
  850MOL0     H14726   6.142   4.062   5.536  1.6303  3.3017  0.6554
  850MOL0     H14727   6.027   4.148   5.643 -0.7908 -0.9501  1.1024
  850MOL0     H14728   6.213   3.938   5.758 -0.8957  0.2549  0.4552
  850MOL0     H14729   6.143   4.084   5.827 -0.8580 -0.9972 -0.0666
  850MOL0     H14730   6.373   4.075   5.611  0.7354 -3.3864  0.7795
  850MOL0     H14731   6.404   4.097   5.781  1.2703  3.7745  0.1042
  850MOL0     H14732   5.437   3.427   5.497 -1.3519 -1.0692  1.0562
  850MOL0     H14733   5.398   3.231   5.649 -0.1036 -0.8848 -0.8837
  850MOL0     H14734   5.727   2.985   5.988  1.6880 -2.5774  1.9119
  850MOL0     H14735   5.729   2.806   6.151 -1.0630 -1.1040 -0.7909
  850MOL0     H14736   6.843   2.760   7.210 -0.0227  0.1060  0.3114
  850MOL0     H14737   7.042   2.808   7.294 -0.0344 -1.1420  1.0898
  850MOL0     H14738   7.474   2.688   7.439  1.7772  0.9044  2.1068
  850MOL0     H14739   7.729   2.681   7.493  3.2241 -0.9092 -1.5409
  850MOL0     H14740   8.003   2.695   7.140 -1.3191  0.7403  0.4078
  850MOL0     H14741   7.996   2.851   7.214 -1.9458 -0.0449  1.3649
  850MOL0     H14742   8.174   2.611   7.271  2.1260  0.6067  2.0001
  850MOL0     H14743   8.173   2.759   7.381 -2.3940  2.9902 -0.1981
  850MOL0     H14744   8.277   2.893   7.215 -1.1229  0.2411  2.5127
  850MOL0     H14745   8.255   2.772   7.089  1.9117 -0.9420  0.3998
  850MOL0     H14746   8.428   2.746   7.339 -0.0751 -0.8107 -0.3227
  850MOL0     H14747   8.485   2.762   7.177  0.0114 -0.5944 -0.8758
  850MOL0     H14748   8.355   2.353   7.194 -1.1649  0.9578  1.3233
  850MOL0     H14749   7.805   2.721   7.077 -0.0171 -1.1939  0.2243
  850MOL0     H14750   7.576   2.733   7.030 -0.2429 -1.1363 -0.3216
  851MOL0     O14751   7.365   3.438  11.162 -0.3026 -0.0117  0.1856
  851MOL0     C14752   7.372   3.533  11.243  0.1334 -0.1723  1.0843
  851MOL0     O14753   7.275   3.624  11.275  0.5973 -0.2853 -0.7118
  851MOL0     C14754   7.156   3.606  11.221  1.1496 -0.0521 -0.2723
  851MOL0     C14755   7.066   3.496  11.266 -0.0086 -0.2646 -0.1826
  851MOL0     C14756   6.943   3.473  11.205  0.3501 -0.7475 -0.4409
  851MOL0     C14757   6.907   3.556  11.103  0.7013  0.4660  0.2057
  851MOL0     O14758   6.789   3.523  11.033 -0.6823  0.3766  0.8522
  851MOL0     C14759   6.768   3.577  10.897 -0.1125 -0.9236 -0.4879
  851MOL0     C14760   6.626   3.563  10.860 -0.1288 -0.2878  1.6757
  851MOL0     C14761   6.583   3.605  10.719  0.8848 -0.3643 -0.5843
  851MOL0     C14762   6.427   3.616  10.711 -0.6022 -0.2490 -0.6411
  851MOL0     C14763   6.359   3.479  10.714  0.3384 -0.5262 -0.3300
  851MOL0     C14764   6.202   3.482  10.708 -0.2056  0.3741  0.0792
  851MOL0     C14765   6.132   3.350  10.704  0.1849  0.8385 -0.8819
  851MOL0     C14766   5.986   3.369  10.709  0.6412  0.1202  0.0378
  851MOL0     N14767   5.901   3.248  10.732  0.3671 -0.0936  0.1468
  851MOL0     C14768   5.910   3.163  10.841 -0.8642 -0.2515 -0.4152
  851MOL0     C14769   5.811   3.072  10.819 -0.1581  0.2163  0.3731
  851MOL0     C14770   5.771   2.966  10.919  0.8778 -0.1084 -0.3845
  851MOL0     C14771   5.619   2.946  10.910 -0.4678 -0.3412  0.9361
  851MOL0     C14772   5.570   2.881  11.038 -0.4269  0.1903  0.1626
  851MOL0     C14773   5.423   2.838  11.028  0.6007  0.1752 -0.7898
  851MOL0     O14774   5.328   2.941  11.050 -0.0670  0.1866  0.6235
  851MOL0     C14775   5.200   2.892  11.048 -0.5588  0.8266  0.7499
  851MOL0     C14776   5.130   2.867  10.929 -0.3032  0.5046  0.0853
  851MOL0     C14777   5.006   2.803  10.925  0.2614 -0.6122 -0.2622
  851MOL0     C14778   4.942   2.779  10.796  0.2813 -0.2236  0.2880
  851MOL0     C14779   4.948   2.773  11.054  0.5788  0.4231 -0.3767
  851MOL0     C14780   4.817   2.711  11.068 -0.1606  0.9382 -0.0236
  851MOL0     O14781   4.718   2.744  10.974  0.0711 -0.4983 -0.3404
  851MOL0     C14782   4.601   2.665  10.953 -0.0989  0.7761  0.5454
  851MOL0     C14783   4.492   2.728  10.902 -0.4727  0.2371  0.2267
  851MOL0     C14784   4.376   2.656  10.870 -0.0753 -0.3993  0.7222
  851MOL0     C14785   4.359   2.520  10.899 -0.1640 -0.7489 -0.8267
  851MOL0     O14786   4.242   2.453  10.876  0.1487 -0.4499 -0.2818
  851MOL0     C14787   4.169   2.479  10.756  0.1776 -0.2909 -0.5513
  851MOL0     C14788   4.161   2.356  10.671 -0.6856  0.4866 -0.0965
  851MOL0     C14789   4.306   2.297  10.639 -0.2012  0.1059 -0.3117
  851MOL0     C14790   4.399   2.395  10.566  0.2920  0.5874  0.0535
  851MOL0     C14791   4.535   2.335  10.536  0.6930  0.2885  0.6449
  851MOL0     C14792   4.614   2.332  10.666 -0.5508  0.6351 -0.1746
  851MOL0     C14793   4.757   2.293  10.642  0.0113 -0.3636  0.0731
  851MOL0     C14794   4.826   2.399  10.550  0.3294  0.4535 -0.5880
  851MOL0    Cl14795   5.000   2.372  10.563  0.1998  0.0086  0.4832
  851MOL0     C14796   4.471   2.455  10.949  0.6252 -0.5236 -0.2415
  851MOL0     C14797   4.587   2.521  10.971 -0.2797  0.2909 -0.3666
  851MOL0     O14798   4.799   2.630  11.159 -0.8289  0.5526  0.9163
  851MOL0     C14799   5.015   2.802  11.170 -0.5254  0.1533 -1.3616
  851MOL0     C14800   5.142   2.864  11.166  0.2413  0.3520  0.0138
  851MOL0     N14801   5.750   3.105  10.696 -0.0289 -0.9584 -0.5953
  851MOL0     N14802   5.811   3.213  10.647  0.3390 -0.4762  0.3804
  851MOL0     C14803   6.991   3.664  11.057  0.3786  0.1149  0.0965
  851MOL0     C14804   7.115   3.696  11.114  0.6091  0.4134 -0.4089
  851MOL0     C14805   7.506   3.550  11.301  0.1503 -0.3801  0.3362
  851MOL0     C14806   7.527   3.658  11.388  0.5830 -1.3506 -0.1732
  851MOL0     C14807   7.652   3.677  11.438 -0.2943 -0.5440  0.4294
  851MOL0     C14808   7.759   3.596  11.405 -0.1801 -0.2535  0.7496
  851MOL0     O14809   7.878   3.642  11.465  1.3867 -0.1939 -0.3409
  851MOL0     C14810   7.984   3.549  11.479  0.1122 -0.3625  0.4622
  851MOL0     C14811   8.078   3.601  11.579  0.3504 -0.0449  0.3446
  851MOL0     C14812   8.219   3.568  11.522 -0.2446  0.6465 -0.4465
  851MOL0     C14813   8.326   3.602  11.633 -0.1725  0.0993 -0.7952
  851MOL0     C14814   8.464   3.577  11.600  0.0332 -0.1986  0.3793
  851MOL0     C14815   8.584   3.559  11.566  0.7331  0.0474 -0.5275
  851MOL0     C14816   7.736   3.480  11.319 -0.6655  0.0504 -0.4195
  851MOL0     C14817   7.611   3.460  11.266 -0.0115  0.4534 -0.0527
  851MOL0     H14818   7.106   3.435  11.347  0.7321  1.2422  0.6293
  851MOL0     H14819   6.879   3.392  11.240 -1.4300  0.7566 -0.0554
  851MOL0     H14820   6.801   3.681  10.891  0.7046 -1.1566 -0.2644
  851MOL0     H14821   6.829   3.524  10.822  3.3949  0.2739  1.2817
  851MOL0     H14822   6.597   3.458  10.868  1.8127 -1.1125 -0.7895
  851MOL0     H14823   6.560   3.613  10.932 -5.6683 -3.2524 -0.8057
  851MOL0     H14824   6.635   3.697  10.690 -0.1016  0.4585  0.2422
  851MOL0     H14825   6.601   3.519  10.654 -1.7246 -1.0241 -0.5297
  851MOL0     H14826   6.380   3.672  10.792 -1.6808 -1.5502 -0.3408
  851MOL0     H14827   6.399   3.678  10.625 -2.1164 -0.0609 -0.0480
  851MOL0     H14828   6.404   3.408  10.645  3.1351 -1.8348  2.5844
  851MOL0     H14829   6.391   3.433  10.807  1.3175 -1.1155 -0.9490
  851MOL0     H14830   6.183   3.545  10.795  1.4308  0.4618  0.4114
  851MOL0     H14831   6.170   3.544  10.623  0.2094  0.4699 -0.0103
  851MOL0     H14832   6.161   3.290  10.617 -1.0352  0.9083 -1.3525
  851MOL0     H14833   6.161   3.300  10.798  0.8640  0.2959 -1.3703
  851MOL0     H14834   5.960   3.400  10.607  0.0436 -0.6811 -0.0631
  851MOL0     H14835   5.951   3.444  10.780 -0.5290 -1.2990  1.0379
  851MOL0     H14836   5.975   3.171  10.928 -0.1362  1.4258 -1.0800
  851MOL0     H14837   5.826   2.874  10.896 -1.0869 -1.3186 -0.4224
  851MOL0     H14838   5.797   3.003  11.018 -1.2312  1.4957 -0.3718
  851MOL0     H14839   5.604   2.871  10.832  1.1749 -2.9803  2.9866
  851MOL0     H14840   5.568   3.041  10.891 -2.0084 -1.5482 -1.4655
  851MOL0     H14841   5.589   2.940  11.128  0.3036  3.6719 -2.0822
  851MOL0     H14842   5.626   2.787  11.044  0.7294  0.7842 -0.8443
  851MOL0     H14843   5.412   2.756  11.100  1.9029 -0.7296 -1.5677
  851MOL0     H14844   5.403   2.803  10.926  0.9180 -1.4959 -0.3114
  851MOL0     H14845   5.178   2.890  10.835  0.6491 -2.7722 -0.3366
  851MOL0     H14846   4.912   2.674  10.787 -0.4720  0.1647 -2.7691
  851MOL0     H14847   4.856   2.847  10.788  2.8872  3.5726  1.5568
  851MOL0     H14848   5.017   2.806  10.721 -1.6069  1.9051 -0.9871
  851MOL0     H14849   4.497   2.833  10.876  1.6269  0.1306 -0.0108
  851MOL0     H14850   4.290   2.705  10.823 -0.1009  0.0428  1.2264
  851MOL0     H14851   4.065   2.507  10.778  0.1952  1.3106 -2.1939
  851MOL0     H14852   4.212   2.561  10.697  0.5833 -0.0909  0.0095
  851MOL0     H14853   4.108   2.277  10.724 -0.5887  1.0910  0.9306
  851MOL0     H14854   4.111   2.384  10.579  0.0186  1.0279 -0.3253
  851MOL0     H14855   4.299   2.208  10.576 -1.7804 -0.9075  1.2014
  851MOL0     H14856   4.358   2.270  10.732  0.1886 -0.6013 -0.7285
  851MOL0     H14857   4.347   2.436  10.479  2.1678  1.7768 -0.5757
  851MOL0     H14858   4.411   2.480  10.633 -1.4976 -2.0245  4.0268
  851MOL0     H14859   4.582   2.399  10.461 -1.7268 -0.1943 -1.4399
  851MOL0     H14860   4.515   2.237  10.492  0.6303  0.4302  0.3551
  851MOL0     H14861   4.615   2.431  10.715  1.8150  0.4760  0.1756
  851MOL0     H14862   4.577   2.255  10.735  2.4162 -3.4610 -2.7374
  851MOL0     H14863   4.776   2.200  10.588 -3.3885 -1.3869  0.4386
  851MOL0     H14864   4.809   2.294  10.738  0.4464  0.2290 -0.1566
  851MOL0     H14865   4.793   2.497  10.586  0.2677  0.5387 -0.8704
  851MOL0     H14866   4.801   2.405  10.444  1.2589  0.6590 -0.8043
  851MOL0     H14867   4.475   2.347  10.961  0.2029 -0.4454  0.7279
  851MOL0     H14868   4.671   2.470  11.018 -2.3968 -0.1817  3.3006
  851MOL0     H14869   4.973   2.779  11.268  3.2341  0.4755  0.5291
  851MOL0     H14870   5.200   2.882  11.256 -0.3253  1.3730  0.1989
  851MOL0     H14871   6.967   3.726  10.970 -2.0600  0.0571  0.6418
  851MOL0     H14872   7.173   3.775  11.068 -1.0209  1.2989 -1.0392
  851MOL0     H14873   7.451   3.728  11.421  3.1245  0.8392  1.3776
  851MOL0     H14874   7.661   3.752  11.516 -1.1318 -0.6705  0.6601
  851MOL0     H14875   7.948   3.453  11.517  2.0410 -1.3664 -0.1243
  851MOL0     H14876   8.040   3.544  11.385  3.3765  0.7402  2.1918
  851MOL0     H14877   8.082   3.553  11.677 -0.1124  0.6434  0.7076
  851MOL0     H14878   8.059   3.707  11.595  0.2358  0.0264 -0.2156
  851MOL0     H14879   8.250   3.626  11.434  1.8358  0.7651  0.3113
  851MOL0     H14880   8.244   3.463  11.510  0.8844  0.6202  1.6619
  851MOL0     H14881   8.311   3.533  11.717 -3.0864 -1.4171 -2.4197
  851MOL0     H14882   8.315   3.708  11.658 -0.3981  0.1867 -1.2603
  851MOL0     H14883   8.689   3.534  11.563  0.9815  0.2312  2.7553
  851MOL0     H14884   7.819   3.419  11.287 -1.4045 -0.4615 -1.4183
  851MOL0     H14885   7.604   3.375  11.199  1.3818  0.4621 -0.2337
  852MOL0     O14886   8.767   2.539   8.502  0.1394 -0.0116  0.0439
  852MOL0     C14887   8.779   2.631   8.581  0.0224 -0.2309 -0.2919
  852MOL0     O14888   8.691   2.735   8.610 -0.9053  0.4630  0.0379
  852MOL0     C14889   8.567   2.745   8.551  0.4045 -0.3775  1.2265
  852MOL0     C14890   8.532   2.877   8.534  0.6779 -1.1382 -0.3013
  852MOL0     C14891   8.406   2.910   8.475  0.4280  0.5979  0.8875
  852MOL0     C14892   8.319   2.799   8.433 -0.6234  0.0677 -0.0511
  852MOL0     O14893   8.196   2.821   8.374  0.2713  0.0781  0.5837
  852MOL0     C14894   8.107   2.719   8.321  0.4023  0.0902 -0.3988
  852MOL0     C14895   7.968   2.785   8.337  0.4713  0.0579 -0.6423
  852MOL0     C14896   7.842   2.710   8.278  0.2069 -0.7635 -0.5466
  852MOL0     C14897   7.721   2.793   8.297  0.3729  0.1377  0.3084
  852MOL0     C14898   7.592   2.703   8.297  0.2289  0.5611  0.5538
  852MOL0     C14899   7.549   2.679   8.152 -0.1946  0.4890  0.5395
  852MOL0     C14900   7.438   2.765   8.103  0.3419 -0.3822  0.2309
  852MOL0     C14901   7.307   2.698   8.060 -0.2577 -1.1099  0.0745
  852MOL0     N14902   7.246   2.602   8.152 -0.8561  0.1607  0.2869
  852MOL0     C14903   7.230   2.604   8.288  0.2772  0.3762 -0.2422
  852MOL0     C14904   7.178   2.480   8.320  0.0052 -0.0779 -0.3916
  852MOL0     C14905   7.147   2.428   8.458  0.8283 -0.0380 -1.1007
  852MOL0     C14906   7.024   2.494   8.527 -0.0773 -0.3808  0.3161
  852MOL0     C14907   6.893   2.489   8.454 -0.5215 -0.1797  0.4231
  852MOL0     C14908   6.788   2.599   8.493 -0.7807  0.5513  0.3327
  852MOL0     O14909   6.660   2.552   8.446  0.2933  0.8256 -0.1361
  852MOL0     C14910   6.574   2.640   8.385  0.4815  0.2167  0.3808
  852MOL0     C14911   6.463   2.689   8.447  0.2470  0.3965 -0.3095
  852MOL0     C14912   6.373   2.778   8.382 -0.7501 -0.2363  0.2843
  852MOL0     C14913   6.253   2.816   8.459 -0.8510  0.3274 -0.8845
  852MOL0     C14914   6.393   2.816   8.250  0.1567  0.3054 -0.0839
  852MOL0     C14915   6.305   2.906   8.170  0.7293 -0.4961  0.8085
  852MOL0     O14916   6.355   2.948   8.047 -0.1593 -0.1747  0.1248
  852MOL0     C14917   6.308   3.065   8.003 -0.7821  0.7573  0.0298
  852MOL0     C14918   6.346   3.184   8.070 -0.5295  0.2004 -0.1679
  852MOL0     C14919   6.321   3.306   8.004  0.4943  0.8210 -0.3593
  852MOL0     C14920   6.259   3.312   7.876  0.4810 -0.8208 -0.2266
  852MOL0     O14921   6.259   3.442   7.823  0.5778  0.2613 -0.0356
  852MOL0     C14922   6.214   3.465   7.686  0.1030  0.1482  0.3347
  852MOL0     C14923   6.074   3.514   7.694 -0.1523  0.3722 -0.4256
  852MOL0     C14924   6.004   3.490   7.566  0.5744 -0.1084  0.2111
  852MOL0     C14925   6.068   3.574   7.460  0.2057 -0.5790  0.0410
  852MOL0     C14926   5.964   3.598   7.355  0.6206  0.3845  0.2385
  852MOL0     C14927   5.949   3.465   7.270  0.6535 -0.5361  0.0482
  852MOL0     C14928   5.835   3.482   7.173  0.4397  1.2679 -0.0289
  852MOL0     C14929   5.822   3.356   7.094  0.5113  1.3013  0.4235
  852MOL0    Cl14930   5.726   3.237   7.196 -0.2606 -0.0516 -0.5221
  852MOL0     C14931   6.206   3.198   7.821 -0.4667 -0.9113 -0.9678
  852MOL0     C14932   6.246   3.072   7.881 -0.4536 -0.2226 -0.3240
  852MOL0     O14933   6.201   2.938   8.214  0.6698  0.1983  0.6637
  852MOL0     C14934   6.511   2.768   8.186 -0.8672  0.0115  0.2179
  852MOL0     C14935   6.599   2.678   8.254 -0.3618 -0.1992  0.0153
  852MOL0     N14936   7.141   2.414   8.201  0.1788 -0.3741  0.3979
  852MOL0     N14937   7.183   2.488   8.103  0.5821  0.3399 -0.4612
  852MOL0     C14938   8.360   2.665   8.457 -0.2831 -0.1075  0.7637
  852MOL0     C14939   8.478   2.639   8.520 -1.0145  1.2383  0.7558
  852MOL0     C14940   8.902   2.644   8.664  0.7075 -0.0626  0.6882
  852MOL0     C14941   8.918   2.749   8.753 -0.6101 -0.5498 -0.1116
  852MOL0     C14942   9.039   2.770   8.827  0.0370  0.0329  0.5386
  852MOL0     C14943   9.136   2.677   8.810  0.2126 -0.0559 -0.7708
  852MOL0     O14944   9.256   2.683   8.881  0.7362  0.0565  0.3033
  852MOL0     C14945   9.313   2.814   8.915  0.1263  0.4068 -0.0702
  852MOL0     C14946   9.464   2.807   8.889  1.3194 -0.1648 -0.2242
  852MOL0     C14947   9.519   2.701   8.993  0.1600 -0.8049  0.3848
  852MOL0     C14948   9.668   2.681   8.958  0.8294 -0.3905 -0.0844
  852MOL0     C14949   9.746   2.798   8.991  0.3064 -0.7140 -0.3513
  852MOL0     C14950   9.813   2.893   9.015  0.2033  0.3252  0.7095
  852MOL0     C14951   9.113   2.565   8.733 -0.3991 -0.0570 -0.2476
  852MOL0     C14952   8.999   2.545   8.662  0.0736  0.3304 -0.5615
  852MOL0     H14953   8.615   2.945   8.549 -0.4305 -0.0504  1.1789
  852MOL0     H14954   8.377   3.012   8.450  0.6104  1.0918  2.5697
  852MOL0     H14955   8.130   2.686   8.219  2.7804 -1.4738  0.5552
  852MOL0     H14956   8.100   2.625   8.376 -2.1713 -0.4630 -1.5089
  852MOL0     H14957   7.952   2.808   8.443  0.3831 -3.5639  0.2657
  852MOL0     H14958   7.981   2.874   8.274 -0.6811 -0.5250 -1.7470
  852MOL0     H14959   7.860   2.688   8.173  1.2263  0.8125 -0.7377
  852MOL0     H14960   7.838   2.618   8.337 -0.4967 -1.1279 -1.1394
  852MOL0     H14961   7.740   2.843   8.392  0.9248 -0.0565  0.3021
  852MOL0     H14962   7.717   2.869   8.218 -2.3657  0.9228  1.0982
  852MOL0     H14963   7.622   2.606   8.337  1.2833  1.0491  0.9798
  852MOL0     H14964   7.511   2.734   8.363  0.4365 -3.1508  2.8526
  852MOL0     H14965   7.634   2.693   8.085  0.6809  0.7157  1.6547
  852MOL0     H14966   7.520   2.573   8.147  2.1046 -0.1769  0.3372
  852MOL0     H14967   7.404   2.834   8.181  0.0826  0.6003 -0.7162
  852MOL0     H14968   7.469   2.819   8.013 -2.2320  1.8889  0.5646
  852MOL0     H14969   7.323   2.643   7.967  2.1575  3.8269 -2.8571
  852MOL0     H14970   7.239   2.782   8.044  1.8514  1.9488  4.8889
  852MOL0     H14971   7.267   2.685   8.351 -0.3769  1.8376 -1.6580
  852MOL0     H14972   7.116   2.324   8.450 -3.6107  1.0383 -0.4180
  852MOL0     H14973   7.237   2.440   8.519 -1.0249  0.8848  1.6695
  852MOL0     H14974   7.055   2.595   8.552  1.2431 -0.9357  1.0066
  852MOL0     H14975   7.008   2.442   8.622  0.5819 -0.5923  0.3152
  852MOL0     H14976   6.841   2.396   8.479 -3.1214  1.1670  0.4111
  852MOL0     H14977   6.911   2.504   8.347 -0.4438  0.1063  0.4748
  852MOL0     H14978   6.814   2.695   8.448 -1.1894  0.9058  0.8425
  852MOL0     H14979   6.789   2.611   8.601 -1.8460  2.3553  0.1849
  852MOL0     H14980   6.446   2.653   8.548  4.3928  1.4389  0.9769
  852MOL0     H14981   6.166   2.755   8.432 -0.1756 -1.1606  0.1357
  852MOL0     H14982   6.274   2.802   8.566  0.7111 -0.8654 -1.3159
  852MOL0     H14983   6.228   2.922   8.452 -1.0783  0.2423 -1.3797
  852MOL0     H14984   6.402   3.196   8.162 -0.8275  0.4735 -0.0210
  852MOL0     H14985   6.327   3.399   8.059 -1.1837  1.0536 -0.5446
  852MOL0     H14986   6.281   3.539   7.642 -0.3043 -0.0702 -0.6863
  852MOL0     H14987   6.215   3.371   7.630  0.0727 -2.0385  3.6968
  852MOL0     H14988   6.037   3.447   7.772  2.0246 -1.0929 -0.5658
  852MOL0     H14989   6.073   3.618   7.728  1.4990  1.2184 -2.7124
  852MOL0     H14990   5.901   3.522   7.585  0.3543  0.1152 -1.2433
  852MOL0     H14991   6.006   3.383   7.544  1.5301 -0.0722  0.0739
  852MOL0     H14992   6.108   3.667   7.502  1.2588 -1.3826  0.8780
  852MOL0     H14993   6.160   3.532   7.417  0.5146  1.0401 -0.9922
  852MOL0     H14994   6.003   3.680   7.293  0.5210  1.2887  1.3453
  852MOL0     H14995   5.868   3.628   7.399  0.4736 -2.0082  1.7020
  852MOL0     H14996   6.049   3.441   7.232  1.8194  0.4962  2.2626
  852MOL0     H14997   5.920   3.378   7.330  0.6461 -1.3659 -1.1271
  852MOL0     H14998   5.867   3.564   7.107 -2.2780  1.2069 -1.5847
  852MOL0     H14999   5.744   3.513   7.226 -0.5051 -1.5222  0.1163
  852MOL0     H15000   5.923   3.318   7.076 -0.7944 -1.8163 -1.0090
  852MOL0     H15001   5.776   3.376   6.997  0.4442 -0.6181  0.0156
  852MOL0     H15002   6.141   3.196   7.734 -2.9921  2.1982  0.6424
  852MOL0     H15003   6.230   2.979   7.828  0.5254 -2.3783  2.8934
  852MOL0     H15004   6.535   2.802   8.085 -0.6633  3.5688  1.3240
  852MOL0     H15005   6.685   2.632   8.206 -0.7295 -0.5607 -0.3091
  852MOL0     H15006   8.300   2.587   8.412 -0.3866  0.9549 -1.0604
  852MOL0     H15007   8.507   2.536   8.537  1.9910  1.6702 -1.0133
  852MOL0     H15008   8.835   2.816   8.770 -2.0919 -2.1113 -0.9285
  852MOL0     H15009   9.027   2.848   8.901 -3.7000  1.6855 -1.5385
  852MOL0     H15010   9.263   2.890   8.854 -1.2346 -2.1588 -2.4053
  852MOL0     H15011   9.275   2.842   9.014  1.2251  3.6172 -0.4399
  852MOL0     H15012   9.496   2.910   8.910  0.0135  0.1400  0.4086
  852MOL0     H15013   9.492   2.775   8.789 -1.6763 -0.6087 -1.0347
  852MOL0     H15014   9.471   2.603   8.982  1.0895 -1.0966 -1.5126
  852MOL0     H15015   9.503   2.728   9.098 -2.7911  1.5763 -0.5140
  852MOL0     H15016   9.680   2.662   8.851 -4.5126  1.3084 -1.3330
  852MOL0     H15017   9.709   2.595   9.012  2.9543  1.3166  1.1608
  852MOL0     H15018   9.865   2.986   9.030  4.3935 -1.3101 -2.0664
  852MOL0     H15019   9.187   2.486   8.735 -0.1925  0.1085 -0.9052
  852MOL0     H15020   8.985   2.451   8.609 -1.9043 -0.0992  0.6127
  853MOL0     O15021   9.966  10.443   0.446 -0.0014 -0.1633  0.5762
  853MOL0     C15022  10.035  10.386   0.531  0.7564 -0.3545 -1.0664
  853MOL0     O15023   9.984  10.336   0.642  0.0031  0.0696 -0.3123
  853MOL0     C15024   9.857  10.352   0.684 -0.0427 -0.5649  0.5011
  853MOL0     C15025   9.749  10.302   0.612  0.6127 -1.1328 -0.1221
  853MOL0     C15026   9.616  10.321   0.654 -0.3668 -0.3266 -0.1230
  853MOL0     C15027   9.593  10.384   0.777 -0.5697 -0.7992 -0.1198
  853MOL0     O15028   9.456  10.390   0.815  0.2087  0.3677 -0.1107
  853MOL0     C15029   9.423  10.459   0.939 -0.0310  0.2463  0.8666
  853MOL0     C15030   9.274  10.496   0.937 -0.1340  0.2167 -0.0315
  853MOL0     C15031   9.225  10.562   1.072 -0.6069  0.5759  0.2402
  853MOL0     C15032   9.070  10.574   1.083  0.1160  0.3445 -0.1591
  853MOL0     C15033   9.029  10.646   1.211  0.4323 -1.2011 -0.1351
  853MOL0     C15034   8.879  10.663   1.220 -0.0684  0.1767  0.0928
  853MOL0     C15035   8.814  10.711   1.350  1.0060  1.0875 -0.0248
  853MOL0     C15036   8.825  10.619   1.469 -0.1814 -0.0540 -1.0796
  853MOL0     N15037   8.732  10.509   1.463  0.2761  0.6517 -0.3155
  853MOL0     C15038   8.754  10.378   1.464  0.4273 -0.0478  0.4678
  853MOL0     C15039   8.630  10.320   1.463 -0.2599  0.0979  0.6641
  853MOL0     C15040   8.610  10.171   1.479  0.6752 -0.1153  0.0550
  853MOL0     C15041   8.565  10.123   1.624  0.0354 -0.0934  0.7759
  853MOL0     C15042   8.444  10.192   1.685 -0.3857 -0.2097  0.6954
  853MOL0     C15043   8.319  10.212   1.604  0.2524 -0.1829 -0.0299
  853MOL0     O15044   8.217  10.269   1.695  0.1279 -0.1358 -0.8884
  853MOL0     C15045   8.096  10.304   1.647  0.5424  1.1165 -0.5709
  853MOL0     C15046   8.038  10.273   1.530  0.9042 -0.7938  0.1200
  853MOL0     C15047   7.906  10.309   1.491 -0.0611  0.1660  0.2465
  853MOL0     C15048   7.850  10.267   1.361  1.5606  0.6935  0.5991
  853MOL0     C15049   7.835  10.389   1.577  0.2062  0.0858 -0.1088
  853MOL0     C15050   7.695  10.427   1.554 -0.1269  0.0356 -0.0897
  853MOL0     O15051   7.598  10.327   1.571  0.6674  0.6267  0.2620
  853MOL0     C15052   7.469  10.355   1.540  0.5651  0.7141  0.1398
  853MOL0     C15053   7.429  10.391   1.408 -0.5149  0.6167 -0.1230
  853MOL0     C15054   7.295  10.405   1.380  0.6651 -0.7645  1.0751
  853MOL0     C15055   7.189  10.394   1.472 -0.2896  0.2199  0.1799
  853MOL0     O15056   7.053  10.410   1.438 -0.1063  1.7513 -0.3507
  853MOL0     C15057   6.997  10.381   1.303 -0.7521 -0.0697 -0.8001
  853MOL0     C15058   6.851  10.406   1.290  0.2602 -0.7406  0.0949
  853MOL0     C15059   6.763  10.315   1.379  0.1934 -0.2280  0.3270
  853MOL0     C15060   6.616  10.340   1.354  0.3464  1.3280  0.2106
  853MOL0     C15061   6.525  10.255   1.455  0.1575 -0.3221 -0.6581
  853MOL0     C15062   6.534  10.109   1.433  0.2259  0.3014 -0.5119
  853MOL0     C15063   6.548  10.020   1.555 -0.3206  0.1446  0.4445
  853MOL0     C15064   6.684  10.033   1.618 -0.4587 -0.1391 -0.0610
  853MOL0    Cl15065   6.705   9.898   1.741  0.0009 -0.7877 -0.1342
  853MOL0     C15066   7.229  10.365   1.602  0.7284 -0.4734  0.2214
  853MOL0     C15067   7.367  10.342   1.640 -0.2846  0.0524  0.8373
  853MOL0     O15068   7.675  10.538   1.506  0.1494  0.1122  0.7448
  853MOL0     C15069   7.895  10.423   1.697 -0.4663  0.4092  0.2509
  853MOL0     C15070   8.023  10.388   1.733  0.4416  0.2589 -0.4748
  853MOL0     N15071   8.535  10.419   1.463  0.0424 -0.6851 -0.0548
  853MOL0     N15072   8.601  10.532   1.465 -0.0322  0.1156  0.1041
  853MOL0     C15073   9.704  10.436   0.849  0.0822 -0.0515  0.6723
  853MOL0     C15074   9.834  10.410   0.810 -0.0174  0.1942 -0.9822
  853MOL0     C15075  10.180  10.369   0.517 -0.5941 -0.4365  0.0857
  853MOL0     C15076  10.244  10.415   0.398  0.2252 -0.4331  0.5715
  853MOL0     C15077  10.382  10.423   0.388 -0.2166  0.3539 -0.5631
  853MOL0     C15078  10.464  10.384   0.497 -0.0090  0.7336 -0.2665
  853MOL0     O15079  10.593  10.392   0.517  0.0985  0.3685 -0.3267
  853MOL0     C15080  10.664  10.469   0.418  0.2998 -0.2218 -0.4071
  853MOL0     C15081  10.814  10.468   0.453  0.2264 -0.2093  0.1839
  853MOL0     C15082  10.887  10.527   0.332  0.1653  0.2190  0.1148
  853MOL0     C15083  11.041  10.537   0.347  0.3965 -0.1573  0.3565
  853MOL0     C15084  11.097  10.637   0.251 -0.4532 -0.1865  0.4516
  853MOL0     C15085  11.128  10.721   0.168  0.0525  0.3635  0.0993
  853MOL0     C15086  10.400  10.327   0.611  0.4230 -0.6633 -0.4153
  853MOL0     C15087  10.259  10.328   0.622 -0.6033  0.0198 -0.2204
  853MOL0     H15088   9.761  10.259   0.513 -0.5307 -3.1041  0.5358
  853MOL0     H15089   9.531  10.296   0.592 -1.3652  0.0835  1.0350
  853MOL0     H15090   9.453  10.399   1.025 -1.7091 -0.1758  1.1805
  853MOL0     H15091   9.475  10.555   0.949 -0.6665  0.4724  2.1575
  853MOL0     H15092   9.255  10.563   0.852  1.1625  0.6615  0.0046
  853MOL0     H15093   9.221  10.405   0.910 -1.9688  1.7528 -2.0086
  853MOL0     H15094   9.261  10.494   1.150 -3.9331 -1.7270 -0.0243
  853MOL0     H15095   9.276  10.658   1.083  0.9496  0.4414 -3.9939
  853MOL0     H15096   9.028  10.625   0.995  0.8247 -0.5037 -1.0120
  853MOL0     H15097   9.026  10.475   1.070  0.3921  0.4651 -2.4112
  853MOL0     H15098   9.058  10.584   1.296  0.8050 -3.1113 -1.5911
  853MOL0     H15099   9.086  10.736   1.232 -0.4502 -1.1724  2.6337
  853MOL0     H15100   8.841  10.728   1.140 -0.2284 -0.9251 -0.7630
  853MOL0     H15101   8.834  10.567   1.191 -0.4974  0.9521 -2.0588
  853MOL0     H15102   8.872  10.796   1.386  3.4045 -0.4165 -0.1247
  853MOL0     H15103   8.711  10.729   1.317  0.5001  0.8109  1.3614
  853MOL0     H15104   8.815  10.674   1.563  3.1586 -2.6825  1.0328
  853MOL0     H15105   8.929  10.586   1.469 -0.7116 -2.0208  1.5578
  853MOL0     H15106   8.849  10.326   1.460 -0.0984 -0.9447 -1.3618
  853MOL0     H15107   8.533  10.142   1.408 -1.2429  1.4916  1.3490
  853MOL0     H15108   8.704  10.120   1.456  0.2009 -0.8033 -0.3632
  853MOL0     H15109   8.652  10.143   1.688  1.4339  0.1452 -1.1131
  853MOL0     H15110   8.531  10.019   1.618 -4.1180  1.1422 -0.6303
  853MOL0     H15111   8.481  10.288   1.722  2.0565 -1.2520  1.2150
  853MOL0     H15112   8.435  10.139   1.781  1.0362  0.6529  1.3446
  853MOL0     H15113   8.294  10.117   1.556 -0.6405  0.4794 -0.9029
  853MOL0     H15114   8.354  10.272   1.520  0.5302  1.0864  0.9565
  853MOL0     H15115   8.092  10.206   1.464  0.4731 -0.7743 -0.2646
  853MOL0     H15116   7.860  10.353   1.294 -2.8730 -0.7187 -2.2807
  853MOL0     H15117   7.900  10.181   1.316  0.9909 -1.4026  3.6977
  853MOL0     H15118   7.742  10.252   1.369  1.5011  1.3479  1.2118
  853MOL0     H15119   7.490  10.374   1.320 -2.8833 -3.4423 -1.2753
  853MOL0     H15120   7.263  10.425   1.278  1.6283  0.0792  0.9264
  853MOL0     H15121   7.059  10.435   1.231 -1.0124  0.3644 -0.7056
  853MOL0     H15122   7.020  10.274   1.293 -2.0345 -0.6596  1.7555
  853MOL0     H15123   6.823  10.510   1.314  2.5635 -0.2323  0.8020
  853MOL0     H15124   6.813  10.377   1.192 -2.2907 -0.2722  0.8537
  853MOL0     H15125   6.779  10.341   1.484 -1.5667 -0.3392  0.6553
  853MOL0     H15126   6.783  10.208   1.361 -0.2052 -0.4087  0.9422
  853MOL0     H15127   6.582  10.444   1.350 -2.1364  0.6420  1.6112
  853MOL0     H15128   6.586  10.312   1.253 -0.8439  0.5524  0.7619
  853MOL0     H15129   6.423  10.295   1.444  0.4427  1.2488  1.7534
  853MOL0     H15130   6.557  10.274   1.557 -0.2573 -3.8298  0.2309
  853MOL0     H15131   6.441  10.083   1.381  0.1764  2.6365 -1.6979
  853MOL0     H15132   6.614  10.087   1.361 -2.4236 -3.0478 -2.7408
  853MOL0     H15133   6.531   9.915   1.529 -0.6137  0.0887  0.8503
  853MOL0     H15134   6.482  10.053   1.636  2.1045 -0.3917  2.7446
  853MOL0     H15135   6.689  10.131   1.668 -2.1510  0.5289 -1.1029
  853MOL0     H15136   6.759  10.033   1.538 -1.8196  4.5926 -1.6575
  853MOL0     H15137   7.148  10.360   1.675  0.8124 -0.5942  0.3055
  853MOL0     H15138   7.400  10.316   1.741 -1.2280  1.0589  1.4254
  853MOL0     H15139   7.845  10.498   1.758 -2.9135 -1.4580  0.7176
  853MOL0     H15140   8.076  10.438   1.814  0.5539  1.6871 -1.3927
  853MOL0     H15141   9.690  10.500   0.935  2.0517  6.1527 -2.9965
  853MOL0     H15142   9.917  10.435   0.876 -0.9146 -1.2474  0.7850
  853MOL0     H15143  10.187  10.444   0.310  0.2069  0.7781  0.9665
  853MOL0     H15144  10.431  10.466   0.301  0.4876 -1.3577 -1.0573
  853MOL0     H15145  10.640  10.427   0.320 -2.4430  0.1333  0.0497
  853MOL0     H15146  10.626  10.571   0.425  0.9087  0.0388 -0.7720
  853MOL0     H15147  10.847  10.364   0.459  0.4513 -0.0978  0.8987
  853MOL0     H15148  10.836  10.528   0.541  1.2013  1.7800 -1.3270
  853MOL0     H15149  10.837  10.622   0.310 -1.2219 -0.7278 -1.0710
  853MOL0     H15150  10.867  10.459   0.249 -2.3155 -1.1693  1.7256
  853MOL0     H15151  11.077  10.435   0.332  1.7913 -0.2253  3.5026
  853MOL0     H15152  11.063  10.562   0.451 -2.2046  0.3617  0.8624
  853MOL0     H15153  11.166  10.790   0.096  0.0162  1.1831  0.8428
  853MOL0     H15154  10.459  10.302   0.699  0.9457  1.1913 -0.2082
  853MOL0     H15155  10.216  10.305   0.719  0.2656 -0.0929  0.1407
  854MOL0     O15156  11.052   2.772   8.976  0.2909 -0.2351  0.6183
  854MOL0     C15157  11.098   2.832   8.881  0.3029  0.4232  0.8504
  854MOL0     O15158  11.036   2.853   8.762 -0.3786  0.3803 -0.7960
  854MOL0     C15159  10.902   2.817   8.757  0.2559 -0.7066  0.1205
  854MOL0     C15160  10.808   2.917   8.749  0.0333  0.0654  0.9627
  854MOL0     C15161  10.668   2.888   8.733  0.1603 -0.3929 -0.0883
  854MOL0     C15162  10.630   2.754   8.724  0.1157 -0.1511  0.0872
  854MOL0     O15163  10.502   2.707   8.724 -0.0144  0.5345 -0.2052
  854MOL0     C15164  10.390   2.785   8.767  0.7341  0.0789 -0.8506
  854MOL0     C15165  10.265   2.700   8.790 -0.5591 -1.4507  0.4243
  854MOL0     C15166  10.217   2.648   8.659  0.8069  0.2506 -0.8497
  854MOL0     C15167  10.085   2.577   8.681 -0.3840  0.5420 -0.5461
  854MOL0     C15168   9.984   2.622   8.566 -0.1251  0.3395 -0.2586
  854MOL0     C15169  10.015   2.548   8.422  0.4220 -0.3649  0.0923
  854MOL0     C15170   9.978   2.393   8.413 -0.6686  0.2917  0.8341
  854MOL0     C15171   9.828   2.376   8.381  0.1311 -0.2425 -1.0602
  854MOL0     N15172   9.754   2.387   8.513  0.5848  0.1554 -0.4802
  854MOL0     C15173   9.750   2.305   8.625 -0.3490 -0.1188 -0.5749
  854MOL0     C15174   9.666   2.365   8.711  0.9167 -0.4878 -0.3651
  854MOL0     C15175   9.608   2.307   8.835 -0.0635  0.2035  0.4279
  854MOL0     C15176   9.500   2.206   8.813  0.3388 -0.1953 -0.4837
  854MOL0     C15177   9.472   2.146   8.951  0.1798 -0.1555  0.1630
  854MOL0     C15178   9.383   2.229   9.046 -0.0350 -0.7420  0.7291
  854MOL0     O15179   9.248   2.223   8.994  0.5656  0.6554 -0.5701
  854MOL0     C15180   9.147   2.312   9.029  0.3417  0.6992  0.5359
  854MOL0     C15181   9.165   2.430   9.093  0.4357  0.1307 -0.1728
  854MOL0     C15182   9.056   2.515   9.123  1.1052  0.4653 -0.6557
  854MOL0     C15183   9.079   2.650   9.186 -0.1188  0.5547  0.2927
  854MOL0     C15184   8.918   2.475   9.098 -0.3057  0.1810  0.1180
  854MOL0     C15185   8.797   2.554   9.127  0.2914 -0.1135 -0.1125
  854MOL0     O15186   8.687   2.527   9.043  0.0523 -0.4091  0.0267
  854MOL0     C15187   8.589   2.611   9.030 -0.0411  0.0780 -0.7187
  854MOL0     C15188   8.580   2.679   8.904 -0.1517  0.3094 -0.4489
  854MOL0     C15189   8.466   2.745   8.870 -0.4905  0.7240  0.0956
  854MOL0     C15190   8.357   2.753   8.967 -0.7797 -0.3203  0.1793
  854MOL0     O15191   8.230   2.806   8.948 -0.0543  0.4509 -0.5420
  854MOL0     C15192   8.201   2.872   8.821  0.2480  0.5289  0.7929
  854MOL0     C15193   8.054   2.906   8.822  0.1627  0.3790 -0.5367
  854MOL0     C15194   7.969   2.788   8.837 -0.4675  0.3284  0.0533
  854MOL0     C15195   7.822   2.820   8.800 -0.4285  1.1628  0.2298
  854MOL0     C15196   7.724   2.728   8.864 -0.3905  0.7503 -0.1658
  854MOL0     C15197   7.578   2.753   8.837 -0.0516 -0.5374  0.0838
  854MOL0     C15198   7.472   2.691   8.926  0.4122 -0.0783 -0.1261
  854MOL0     C15199   7.328   2.730   8.875 -0.7855 -0.1526  1.0319
  854MOL0    Cl15200   7.305   2.702   8.705  0.0635  0.3971 -0.4120
  854MOL0     C15201   8.380   2.700   9.097 -0.4300  0.5771 -0.3876
  854MOL0     C15202   8.489   2.623   9.127 -0.1672  0.4776  0.6272
  854MOL0     O15203   8.797   2.630   9.222 -0.0243  0.8278  0.1796
  854MOL0     C15204   8.905   2.353   9.023 -0.5395  0.3167  0.5158
  854MOL0     C15205   9.013   2.275   8.995 -0.4959  1.1384 -0.8419
  854MOL0     N15206   9.616   2.480   8.653 -0.1275  0.4990  0.3383
  854MOL0     N15207   9.658   2.483   8.534  0.1680  1.0532 -0.0288
  854MOL0     C15208  10.732   2.655   8.714 -0.4822  0.1944  0.0665
  854MOL0     C15209  10.862   2.688   8.737  0.1514  0.3053 -0.2913
  854MOL0     C15210  11.230   2.893   8.897  0.2240 -0.8128 -0.4344
  854MOL0     C15211  11.311   2.857   9.009 -0.1816  0.2696  0.8484
  854MOL0     C15212  11.431   2.926   9.029  0.6866  0.6052  0.5369
  854MOL0     C15213  11.472   3.027   8.946  0.6974  0.3470  1.1926
  854MOL0     O15214  11.587   3.095   8.955 -0.2712  0.0004 -0.6177
  854MOL0     C15215  11.681   3.077   9.058 -0.3572 -0.3809 -0.6275
  854MOL0     C15216  11.634   3.133   9.188  0.2166 -0.4422 -0.2603
  854MOL0     C15217  11.722   3.089   9.312 -0.3684 -1.0819 -0.6145
  854MOL0     C15218  11.870   3.135   9.296 -0.1993  1.0240 -0.8723
  854MOL0     C15219  11.874   3.275   9.305 -0.9261 -0.1976 -0.2317
  854MOL0     C15220  11.885   3.390   9.320  0.4928  0.1664  0.9659
  854MOL0     C15221  11.395   3.066   8.836 -0.5799  0.4683 -0.0183
  854MOL0     C15222  11.275   2.995   8.811  0.2353  0.5298  0.0581
  854MOL0     H15223  10.847   3.019   8.747 -2.0084  0.9876 -2.8788
  854MOL0     H15224  10.593   2.965   8.728  0.5362 -0.0704 -4.0214
  854MOL0     H15225  10.423   2.826   8.864  0.5686  1.2413 -1.2630
  854MOL0     H15226  10.372   2.866   8.696 -2.2033  1.1106  0.8911
  854MOL0     H15227  10.287   2.618   8.858  0.8822 -0.0074  1.7711
  854MOL0     H15228  10.190   2.764   8.837 -1.6569 -1.8717 -0.6820
  854MOL0     H15229  10.207   2.729   8.587  1.6900 -1.6702 -3.2650
  854MOL0     H15230  10.289   2.582   8.609 -0.6020 -1.6046 -0.5520
  854MOL0     H15231  10.099   2.468   8.680 -0.4954  0.5290 -0.7871
  854MOL0     H15232  10.047   2.611   8.778 -1.5101  5.3306 -2.3789
  854MOL0     H15233   9.884   2.593   8.599 -0.3138 -0.1221 -1.2228
  854MOL0     H15234   9.989   2.731   8.559  3.5794  0.3559  0.4292
  854MOL0     H15235   9.970   2.594   8.333  3.9858 -1.6745 -2.6401
  854MOL0     H15236  10.121   2.561   8.400  0.5696  0.5961  1.3338
  854MOL0     H15237  10.028   2.351   8.326 -0.7734  0.6341  0.6038
  854MOL0     H15238  10.027   2.345   8.498  1.3281 -0.2362 -0.5541
  854MOL0     H15239   9.805   2.274   8.348 -1.5131 -0.8692  1.6349
  854MOL0     H15240   9.798   2.444   8.301  2.6996 -1.1048 -2.8448
  854MOL0     H15241   9.805   2.212   8.631  0.8741  0.6083  0.1601
  854MOL0     H15242   9.699   2.275   8.888  0.2782  1.7966  0.8682
  854MOL0     H15243   9.560   2.390   8.888 -1.7861  0.8411 -1.9659
  854MOL0     H15244   9.532   2.138   8.734  1.3229  3.5872 -3.6766
  854MOL0     H15245   9.412   2.259   8.777 -0.4979 -0.6616  0.8183
  854MOL0     H15246   9.570   2.112   8.985 -0.0353 -0.2952  0.6529
  854MOL0     H15247   9.416   2.055   8.931  0.5108 -0.3129 -0.0615
  854MOL0     H15248   9.417   2.333   9.045 -1.9827 -0.0019  3.0632
  854MOL0     H15249   9.386   2.177   9.142 -0.8817 -0.8782  0.6863
  854MOL0     H15250   9.265   2.465   9.115 -0.3373  0.7156  2.7472
  854MOL0     H15251   9.185   2.680   9.184 -0.1047  0.4686 -0.6225
  854MOL0     H15252   9.025   2.725   9.127  0.0582  1.6743  1.4984
  854MOL0     H15253   9.050   2.641   9.291  0.1084  0.2676  0.3301
  854MOL0     H15254   8.654   2.653   8.829  0.7060  1.2910  0.0333
  854MOL0     H15255   8.445   2.781   8.770 -2.6730 -4.3743 -1.6000
  854MOL0     H15256   8.254   2.968   8.816  1.1772  0.0568  1.2376
  854MOL0     H15257   8.221   2.812   8.731 -1.1308  1.9646 -0.5511
  854MOL0     H15258   8.028   2.972   8.905 -2.0331 -1.7812  0.6179
  854MOL0     H15259   8.041   2.956   8.725 -0.8544  2.4565  0.6063
  854MOL0     H15260   7.983   2.742   8.935  1.0505 -0.1882 -0.3796
  854MOL0     H15261   7.995   2.715   8.759 -2.5624  0.1117 -0.5158
  854MOL0     H15262   7.802   2.921   8.837  2.5263  2.0949 -0.5085
  854MOL0     H15263   7.812   2.822   8.691 -0.5145  5.4865  0.1263
  854MOL0     H15264   7.752   2.719   8.970  0.1747  1.3639 -0.2568
  854MOL0     H15265   7.751   2.633   8.818  0.2115  0.6343  0.4123
  854MOL0     H15266   7.558   2.861   8.835 -1.0672 -0.6198  2.3328
  854MOL0     H15267   7.565   2.733   8.731 -0.4159  2.3011 -0.4919
  854MOL0     H15268   7.484   2.714   9.032 -2.7007  1.4870  0.0187
  854MOL0     H15269   7.488   2.584   8.912 -2.3322 -0.7798  1.2420
  854MOL0     H15270   7.312   2.836   8.895  1.5274  0.1268  1.6465
  854MOL0     H15271   7.259   2.673   8.938 -1.0329 -1.4919 -0.3714
  854MOL0     H15272   8.296   2.722   9.161 -0.8833  0.6731 -1.0054
  854MOL0     H15273   8.488   2.585   9.228 -4.5050  3.8430  2.1596
  854MOL0     H15274   8.811   2.314   8.985  1.4684 -3.4016 -1.1649
  854MOL0     H15275   9.006   2.186   8.933 -2.1340 -0.1478  1.0777
  854MOL0     H15276  10.712   2.549   8.701  3.4790 -1.0141  2.0255
  854MOL0     H15277  10.927   2.603   8.751 -1.6218 -1.1915 -0.8461
  854MOL0     H15278  11.273   2.775   9.069  0.6831 -0.8782 -0.1214
  854MOL0     H15279  11.478   2.909   9.126 -0.9294 -0.4348  1.1747
  854MOL0     H15280  11.698   2.969   9.066 -1.1906 -0.4138  1.4621
  854MOL0     H15281  11.765   3.140   9.029 -0.5512  0.9763  1.4949
  854MOL0     H15282  11.529   3.108   9.208  0.0608 -0.1232 -0.6594
  854MOL0     H15283  11.644   3.242   9.189  2.4944 -0.5862  1.7433
  854MOL0     H15284  11.716   2.980   9.314  0.4803 -1.1904 -2.2531
  854MOL0     H15285  11.690   3.122   9.412  2.6724  1.3821 -0.3196
  854MOL0     H15286  11.911   3.103   9.199 -0.2138  0.2443 -0.6258
  854MOL0     H15287  11.929   3.089   9.376 -2.1735  1.3376  0.8402
  854MOL0     H15288  11.896   3.496   9.330  0.6104  0.3785 -1.0998
  854MOL0     H15289  11.431   3.145   8.770 -0.2792  1.3433  1.1521
  854MOL0     H15290  11.215   3.009   8.722 -2.6173 -0.6383  1.6539
  855MOL0     O15291   6.433   1.378   3.481  0.0269 -0.7985  0.2454
  855MOL0     C15292   6.406   1.396   3.601 -0.3833  0.2383  0.2192
  855MOL0     O15293   6.285   1.441   3.643  0.3764 -0.2554  0.0464
  855MOL0     C15294   6.164   1.444   3.572  0.4832  0.0999 -0.0600
  855MOL0     C15295   6.138   1.400   3.443  0.2243  0.3306  0.9388
  855MOL0     C15296   6.011   1.422   3.382 -0.3723  0.1133  0.6481
  855MOL0     C15297   5.913   1.483   3.459  0.1748 -0.6333  0.4852
  855MOL0     O15298   5.785   1.494   3.414 -0.4601 -0.6807 -0.2597
  855MOL0     C15299   5.704   1.376   3.450  0.1786 -0.0310 -0.1555
  855MOL0     C15300   5.571   1.395   3.382 -0.1642  0.1233 -0.6957
  855MOL0     C15301   5.449   1.366   3.477 -0.4010 -0.1847  0.4699
  855MOL0     C15302   5.319   1.348   3.401 -0.5817  0.3871 -0.0703
  855MOL0     C15303   5.206   1.341   3.500  0.0462  0.7642 -0.4742
  855MOL0     C15304   5.070   1.296   3.431  0.2616  1.0971 -0.7899
  855MOL0     C15305   5.010   1.416   3.362  0.8500 -0.2861 -0.1255
  855MOL0     C15306   4.909   1.475   3.467  0.4877 -0.3882 -1.0268
  855MOL0     N15307   4.768   1.423   3.458 -0.5275  0.1395  0.2049
  855MOL0     C15308   4.650   1.482   3.418 -0.5616  0.3226  0.4737
  855MOL0     C15309   4.570   1.371   3.397  0.5426 -0.3017  0.8966
  855MOL0     C15310   4.441   1.377   3.312  0.0013 -0.5128 -0.1799
  855MOL0     C15311   4.310   1.388   3.404  0.0237 -0.6317  0.0869
  855MOL0     C15312   4.302   1.255   3.485 -0.3921  0.0348  0.8338
  855MOL0     C15313   4.167   1.244   3.566 -0.0343  0.4314  0.3364
  855MOL0     O15314   4.150   1.343   3.658  0.2721  0.1330 -0.5966
  855MOL0     C15315   4.028   1.358   3.710  0.0500  0.3596  0.2889
  855MOL0     C15316   3.991   1.483   3.742  0.3168  1.0845  0.1583
  855MOL0     C15317   3.862   1.511   3.790  0.2021 -0.2479 -0.2657
  855MOL0     C15318   3.842   1.652   3.838  0.4673  0.3471  0.2153
  855MOL0     C15319   3.768   1.399   3.801 -0.1034 -0.8122  1.1599
  855MOL0     C15320   3.627   1.412   3.852  0.6634 -0.3142  0.2178
  855MOL0     O15321   3.540   1.312   3.828 -0.8639  0.3098  0.6916
  855MOL0     C15322   3.427   1.304   3.889  0.9400  0.3482  0.4905
  855MOL0     C15323   3.405   1.334   4.025 -0.5987  1.4711 -1.2816
  855MOL0     C15324   3.280   1.311   4.092  0.0514  0.2222  1.2932
  855MOL0     C15325   3.181   1.243   4.018  0.9969  0.2129 -0.2599
  855MOL0     O15326   3.066   1.208   4.089  0.0243  0.9605  0.2760
  855MOL0     C15327   2.988   1.111   4.036  0.2980  1.0516 -0.3972
  855MOL0     C15328   2.859   1.095   4.117  0.9143  0.6156 -0.5162
  855MOL0     C15329   2.773   0.989   4.055 -0.0759 -0.1922  0.3304
  855MOL0     C15330   2.661   0.934   4.147 -0.2988  0.4993 -0.4237
  855MOL0     C15331   2.604   0.801   4.091 -0.3956 -0.0958  0.3106
  855MOL0     C15332   2.468   0.775   4.148 -0.4564  0.2988  0.6344
  855MOL0     C15333   2.358   0.854   4.078 -0.0123 -0.0852 -0.3701
  855MOL0     C15334   2.219   0.833   4.148  0.2126 -0.2375  0.4938
  855MOL0    Cl15335   2.093   0.915   4.046  0.2118 -0.0012 -0.0892
  855MOL0     C15336   3.200   1.210   3.884  0.2277  0.2402 -0.0876
  855MOL0     C15337   3.319   1.243   3.821 -0.7503  0.7099  0.0448
  855MOL0     O15338   3.584   1.517   3.891 -0.1399 -0.6672 -0.0851
  855MOL0     C15339   3.812   1.267   3.766  0.1184 -0.9380  0.0109
  855MOL0     C15340   3.942   1.246   3.733  0.8651  1.0873 -0.0634
  855MOL0     N15341   4.631   1.254   3.429 -0.1719  0.0548 -0.4074
  855MOL0     N15342   4.745   1.285   3.485 -0.5746  0.0986  0.3552
  855MOL0     C15343   5.936   1.526   3.585 -0.7413 -0.3913 -0.1644
  855MOL0     C15344   6.059   1.502   3.641  0.2719 -0.2538  0.0280
  855MOL0     C15345   6.515   1.382   3.698 -0.3018 -0.5785 -0.1437
  855MOL0     C15346   6.499   1.410   3.834 -0.7378 -0.4528 -0.8455
  855MOL0     C15347   6.612   1.410   3.920  0.2826 -0.5946 -0.1004
  855MOL0     C15348   6.740   1.375   3.872 -0.6724  0.1930  0.1193
  855MOL0     O15349   6.844   1.374   3.960  0.0566 -0.1597 -0.0249
  855MOL0     C15350   6.899   1.246   3.992 -0.5284  0.8791 -0.3778
  855MOL0     C15351   6.982   1.269   4.124  0.6787 -1.1602 -0.5168
  855MOL0     C15352   7.084   1.168   4.148 -0.5833 -0.7059  0.4344
  855MOL0     C15353   7.022   1.031   4.193 -0.1594 -0.1908  0.3119
  855MOL0     C15354   7.019   1.045   4.338  0.1562 -0.2295 -0.8256
  855MOL0     C15355   7.015   1.042   4.462  0.2972  0.6236  0.9640
  855MOL0     C15356   6.761   1.353   3.735 -0.3385  0.6704 -0.4537
  855MOL0     C15357   6.650   1.357   3.649  0.5011  0.5728 -0.1308
  855MOL0     H15358   6.224   1.354   3.396  0.5190  3.1015 -1.5404
  855MOL0     H15359   5.991   1.397   3.278  1.1007 -2.1087  0.8234
  855MOL0     H15360   5.763   1.291   3.415  0.4555 -0.0651  0.3852
  855MOL0     H15361   5.693   1.368   3.559 -0.0856  1.0433 -0.0924
  855MOL0     H15362   5.563   1.499   3.348 -0.2685  0.7658  1.2002
  855MOL0     H15363   5.564   1.330   3.294  3.1732 -1.4440  0.0465
  855MOL0     H15364   5.476   1.274   3.530 -2.2368 -0.6638  0.6406
  855MOL0     H15365   5.444   1.452   3.544 -0.7745 -1.3259  1.9513
  855MOL0     H15366   5.305   1.428   3.327  0.3203  1.3888  0.8011
  855MOL0     H15367   5.323   1.251   3.351 -1.8278  0.1548  0.2500
  855MOL0     H15368   5.231   1.260   3.569 -0.2389  1.3951  0.3976
  855MOL0     H15369   5.184   1.424   3.568 -0.1086 -0.1839  0.6690
  855MOL0     H15370   5.084   1.214   3.361  0.7468 -1.9404  2.5949
  855MOL0     H15371   5.008   1.250   3.508  1.6884  0.5379  0.0728
  855MOL0     H15372   5.091   1.485   3.337  2.2756 -0.8392  2.5751
  855MOL0     H15373   4.955   1.388   3.272  0.5457 -0.6809  0.1758
  855MOL0     H15374   4.901   1.584   3.459 -3.9024 -0.1853  2.1936
  855MOL0     H15375   4.931   1.444   3.570  0.9536  1.3114 -0.5713
  855MOL0     H15376   4.631   1.585   3.389  0.6726  0.3667 -0.2308
  855MOL0     H15377   4.441   1.460   3.240  0.2814 -1.5849 -1.4514
  855MOL0     H15378   4.443   1.284   3.255  1.8756 -2.2052  2.4232
  855MOL0     H15379   4.219   1.408   3.347  2.1625  1.7712 -2.8372
  855MOL0     H15380   4.297   1.469   3.476  1.4463 -1.7639  1.6951
  855MOL0     H15381   4.386   1.239   3.553  0.6310 -0.7812 -0.5923
  855MOL0     H15382   4.305   1.166   3.421  0.3224 -1.3968  2.7559
  855MOL0     H15383   4.160   1.155   3.629  0.3756  0.7656  0.8564
  855MOL0     H15384   4.076   1.250   3.505 -0.2779 -2.4873  0.2781
  855MOL0     H15385   4.070   1.557   3.738  1.5968 -0.2706 -1.0503
  855MOL0     H15386   3.866   1.667   3.944  3.7671  1.2707 -0.5490
  855MOL0     H15387   3.903   1.724   3.782  1.2117  0.2895  0.9285
  855MOL0     H15388   3.738   1.678   3.816  0.0629  1.5936  3.1685
  855MOL0     H15389   3.496   1.373   4.069 -1.2336  0.7871  0.7085
  855MOL0     H15390   3.271   1.330   4.199  0.2855 -0.2398  1.3934
  855MOL0     H15391   2.942   1.122   3.937 -3.8812 -0.7578  1.0812
  855MOL0     H15392   3.037   1.015   4.054  0.7721  1.7271  2.4784
  855MOL0     H15393   2.881   1.066   4.220  1.1554  3.0085  0.1831
  855MOL0     H15394   2.806   1.191   4.116 -1.1447 -0.4496 -0.4793
  855MOL0     H15395   2.830   0.904   4.017 -0.6610  0.0915 -1.2630
  855MOL0     H15396   2.726   1.026   3.963 -1.4803 -0.8182  0.7767
  855MOL0     H15397   2.694   0.931   4.251  0.8950  2.6132 -0.6851
  855MOL0     H15398   2.584   1.012   4.153 -1.6839 -0.6915 -1.6051
  855MOL0     H15399   2.679   0.727   4.120 -0.1467 -1.1224 -2.6496
  855MOL0     H15400   2.609   0.807   3.982  0.1285 -0.6176  0.3020
  855MOL0     H15401   2.447   0.668   4.141 -0.9291  0.4862 -1.5091
  855MOL0     H15402   2.468   0.799   4.255  0.0690  0.2983  0.6350
  855MOL0     H15403   2.342   0.817   3.976 -0.4279 -4.4599  1.0807
  855MOL0     H15404   2.383   0.960   4.088 -0.0944 -0.0856 -0.1531
  855MOL0     H15405   2.218   0.861   4.254 -0.2623  1.8289 -0.0205
  855MOL0     H15406   2.189   0.728   4.138 -4.0031  0.9849 -1.9480
  855MOL0     H15407   3.132   1.148   3.827 -0.0769  2.2611 -2.0461
  855MOL0     H15408   3.323   1.208   3.718  0.3323 -0.8469  0.5721
  855MOL0     H15409   3.742   1.189   3.791  0.8939 -0.7839  3.0026
  855MOL0     H15410   3.975   1.144   3.723  1.1876  1.4395 -3.9149
  855MOL0     H15411   5.857   1.571   3.644 -0.0577  1.9510 -0.9535
  855MOL0     H15412   6.073   1.529   3.746  2.6183  2.1166 -0.8008
  855MOL0     H15413   6.409   1.437   3.887  0.3482  0.0270  0.8213
  855MOL0     H15414   6.590   1.440   4.022  0.1317  0.3106 -0.3932
  855MOL0     H15415   6.824   1.166   3.997  0.0820  0.2202 -1.4032
  855MOL0     H15416   6.959   1.206   3.910 -0.7757  0.0746 -0.1839
  855MOL0     H15417   6.914   1.271   4.210 -2.6056 -0.8907 -2.9668
  855MOL0     H15418   7.027   1.368   4.123 -3.8018  1.1030 -0.9426
  855MOL0     H15419   7.165   1.192   4.218 -0.6147  1.3530 -0.1680
  855MOL0     H15420   7.133   1.145   4.053 -1.6086  0.2809 -0.3501
  855MOL0     H15421   7.077   0.945   4.154  0.0305 -1.1844  2.6277
  855MOL0     H15422   6.918   1.024   4.160 -0.3036  0.9302  0.4843
  855MOL0     H15423   7.012   1.040   4.569  2.0606  0.1236  1.0397
  855MOL0     H15424   6.864   1.361   3.702  0.0177  3.9559  1.1028
  855MOL0     H15425   6.664   1.354   3.542  0.8822  1.4362 -0.1130
  856MOL0     O15426   3.724   7.612   5.315  0.6445 -0.7774  0.2823
  856MOL0     C15427   3.744   7.728   5.274 -0.5880  0.0888  0.0121
  856MOL0     O15428   3.689   7.843   5.306  0.4221  1.1455 -0.4530
  856MOL0     C15429   3.611   7.852   5.421  0.5503  0.4403 -0.2405
  856MOL0     C15430   3.481   7.900   5.406  0.3540  0.1406 -0.2823
  856MOL0     C15431   3.383   7.882   5.503  0.8267  0.1687  0.2510
  856MOL0     C15432   3.417   7.840   5.623 -0.3212  0.6226 -0.1452
  856MOL0     O15433   3.316   7.830   5.711  0.2208  0.3131 -0.5678
  856MOL0     C15434   3.330   7.875   5.853  0.3965  0.1561 -0.0165
  856MOL0     C15435   3.191   7.919   5.898 -0.0945  0.3833  0.6009
  856MOL0     C15436   3.092   7.803   5.924  0.1341  0.4110 -0.9490
  856MOL0     C15437   2.955   7.859   5.990 -0.4756  0.3307  0.3159
  856MOL0     C15438   2.884   7.744   6.058  0.2907  0.4811 -0.0966
  856MOL0     C15439   2.735   7.782   6.077  0.7459 -0.7660  0.3130
  856MOL0     C15440   2.660   7.668   6.164  0.8323 -0.1477  1.0595
  856MOL0     C15441   2.511   7.688   6.168  0.7496  0.4556  0.0006
  856MOL0     N15442   2.465   7.609   6.281  0.6355 -0.3254  0.3572
  856MOL0     C15443   2.518   7.581   6.402  0.0069 -0.0721 -0.4979
  856MOL0     C15444   2.450   7.484   6.464 -0.2292  0.1942 -0.6428
  856MOL0     C15445   2.481   7.435   6.605 -0.1836 -0.5798 -0.6315
  856MOL0     C15446   2.548   7.294   6.601 -0.2116 -0.9364  0.1647
  856MOL0     C15447   2.449   7.182   6.568 -0.6829 -0.1642  0.1265
  856MOL0     C15448   2.510   7.043   6.596  0.7798  0.2851  0.6993
  856MOL0     O15449   2.466   6.929   6.517  0.1818  0.3137 -0.0648
  856MOL0     C15450   2.344   6.868   6.520 -0.0551 -0.8293 -0.3937
  856MOL0     C15451   2.336   6.763   6.436  0.0012 -0.1978  0.4105
  856MOL0     C15452   2.224   6.677   6.429  0.2022 -0.5027 -0.0814
  856MOL0     C15453   2.229   6.560   6.343  0.3095 -0.8809 -1.1865
  856MOL0     C15454   2.110   6.714   6.507 -0.3309 -0.6784  0.8762
  856MOL0     C15455   1.983   6.640   6.512 -0.0575  0.2171 -0.2787
  856MOL0     O15456   1.930   6.594   6.392  0.1672  0.8039 -0.5158
  856MOL0     C15457   1.815   6.520   6.392 -0.1451 -0.5158  0.3444
  856MOL0     C15458   1.693   6.565   6.439  0.6659  0.0648 -0.0146
  856MOL0     C15459   1.573   6.494   6.417  0.3283  0.6934  0.1298
  856MOL0     C15460   1.568   6.375   6.342 -0.2582  0.1778  0.3171
  856MOL0     O15461   1.452   6.309   6.324 -0.1852  0.0821  0.8728
  856MOL0     C15462   1.452   6.197   6.234 -0.3435  0.9402 -0.3772
  856MOL0     C15463   1.321   6.122   6.201  0.3324  0.3578  0.2496
  856MOL0     C15464   1.207   6.198   6.132  0.0819 -0.2259  0.3180
  856MOL0     C15465   1.151   6.318   6.213  0.7344  0.2177 -0.2179
  856MOL0     C15466   1.007   6.336   6.164 -0.2347 -1.0469 -0.1057
  856MOL0     C15467   0.980   6.487   6.127  0.2478  0.5986 -0.4486
  856MOL0     C15468   0.851   6.500   6.056  0.0382  0.2413  0.1004
  856MOL0     C15469   0.837   6.644   6.003 -0.0886  0.8180  0.0399
  856MOL0    Cl15470   0.959   6.713   5.890 -0.2660  0.0965 -0.0070
  856MOL0     C15471   1.692   6.328   6.299 -0.6991  0.6241 -0.4851
  856MOL0     C15472   1.815   6.395   6.319 -0.3544  0.0630  0.7051
  856MOL0     O15473   1.930   6.634   6.626  0.3737  0.3121 -0.0072
  856MOL0     C15474   2.121   6.828   6.587  0.6244  0.8982 -0.7379
  856MOL0     C15475   2.236   6.905   6.599  0.5980  0.7350 -0.6924
  856MOL0     N15476   2.339   7.455   6.372 -0.2147  0.0389 -0.0118
  856MOL0     N15477   2.357   7.530   6.275 -1.0723 -0.3784 -0.3777
  856MOL0     C15478   3.550   7.796   5.648  0.1247 -0.3507 -0.4334
  856MOL0     C15479   3.649   7.798   5.549 -0.7911 -0.1295  0.1981
  856MOL0     C15480   3.850   7.742   5.172 -0.0962  0.8958  0.1368
  856MOL0     C15481   3.907   7.860   5.132  0.3530  0.8866 -0.2997
  856MOL0     C15482   4.016   7.868   5.036 -0.0246  0.7229 -0.3813
  856MOL0     C15483   4.073   7.752   4.991  0.5537  0.3214 -0.1028
  856MOL0     O15484   4.183   7.741   4.903  0.5470  0.0868 -0.3290
  856MOL0     C15485   4.298   7.820   4.945 -0.1890 -0.3961  0.1264
  856MOL0     C15486   4.401   7.787   4.836 -0.9865 -0.1213  0.1387
  856MOL0     C15487   4.545   7.838   4.877  0.2489 -0.0813  0.5913
  856MOL0     C15488   4.645   7.811   4.763 -0.3912  0.5409 -0.0194
  856MOL0     C15489   4.782   7.827   4.804  0.1095  0.3277 -0.5235
  856MOL0     C15490   4.896   7.819   4.846 -0.6812 -0.5621  0.4839
  856MOL0     C15491   4.020   7.636   5.038  1.4533  1.1637 -0.0450
  856MOL0     C15492   3.918   7.629   5.125  0.4937 -0.5369 -0.0369
  856MOL0     H15493   3.456   7.933   5.305  1.0220 -1.9381 -1.1733
  856MOL0     H15494   3.284   7.915   5.473  1.0761  0.9895  0.3100
  856MOL0     H15495   3.365   7.797   5.921 -2.0320 -0.5345  0.5179
  856MOL0     H15496   3.399   7.959   5.864 -0.6806  0.9566  0.8608
  856MOL0     H15497   3.196   7.973   5.994  1.6323 -0.9860  1.3458
  856MOL0     H15498   3.139   7.981   5.825 -1.0812 -2.5656 -1.3822
  856MOL0     H15499   3.065   7.742   5.838  0.5895 -1.4854  0.1969
  856MOL0     H15500   3.141   7.738   5.997 -2.5156 -0.1973  0.4023
  856MOL0     H15501   2.969   7.948   6.051 -1.8450  2.2971 -2.0414
  856MOL0     H15502   2.883   7.896   5.916 -2.2646  0.7074  2.1727
  856MOL0     H15503   2.893   7.654   5.997 -2.7207  0.1668 -0.2704
  856MOL0     H15504   2.930   7.734   6.156  1.6800  0.8369 -0.6978
  856MOL0     H15505   2.736   7.880   6.126  1.5453  0.3933 -1.8877
  856MOL0     H15506   2.689   7.788   5.978  0.1973 -0.7959  0.5615
  856MOL0     H15507   2.683   7.571   6.119  3.5194  0.8562  0.0440
  856MOL0     H15508   2.710   7.675   6.261  0.1552 -0.4908  1.4409
  856MOL0     H15509   2.474   7.657   6.070  3.2716 -1.3901 -0.4787
  856MOL0     H15510   2.481   7.791   6.189 -0.2188 -0.1882  2.0581
  856MOL0     H15511   2.610   7.621   6.445 -0.6309  1.2667 -0.3095
  856MOL0     H15512   2.550   7.509   6.645  1.6167 -2.6864  0.3735
  856MOL0     H15513   2.396   7.444   6.674 -1.0335  0.5223 -1.7885
  856MOL0     H15514   2.608   7.269   6.689  0.1789  0.0695  0.2054
  856MOL0     H15515   2.626   7.297   6.524 -0.0457 -1.5974  0.3060
  856MOL0     H15516   2.439   7.193   6.459  3.6208  0.7688 -0.3504
  856MOL0     H15517   2.351   7.203   6.613 -0.5845  0.9805 -0.1772
  856MOL0     H15518   2.489   7.030   6.703  1.7834  2.2839  1.1818
  856MOL0     H15519   2.618   7.043   6.577  0.4813  2.3712 -1.3663
  856MOL0     H15520   2.420   6.746   6.370 -1.6041 -4.0208 -0.9820
  856MOL0     H15521   2.327   6.517   6.323  0.5949 -0.2267 -1.2357
  856MOL0     H15522   2.170   6.482   6.391  2.8133  0.2226  4.6179
  856MOL0     H15523   2.184   6.598   6.251 -0.1147  1.0725 -0.2336
  856MOL0     H15524   1.692   6.657   6.496 -3.3157 -0.8357  1.7181
  856MOL0     H15525   1.481   6.514   6.472  0.4671 -0.0389  0.6436
  856MOL0     H15526   1.495   6.223   6.136 -0.0190 -1.1030 -0.8211
  856MOL0     H15527   1.525   6.126   6.275  2.1554  2.5934 -1.6627
  856MOL0     H15528   1.345   6.032   6.145  0.4007  0.4569  0.1164
  856MOL0     H15529   1.281   6.099   6.300 -0.8566 -2.6192 -0.8043
  856MOL0     H15530   1.125   6.126   6.120 -2.1301  2.5438 -3.8610
  856MOL0     H15531   1.244   6.213   6.030 -0.6681 -2.2484 -0.3076
  856MOL0     H15532   1.147   6.297   6.321 -0.5974  0.9894 -0.0985
  856MOL0     H15533   1.212   6.407   6.197  0.2723  0.3632 -1.1985
  856MOL0     H15534   0.928   6.310   6.236 -0.5964  0.9354  0.2814
  856MOL0     H15535   0.996   6.283   6.069  3.8923 -0.7713 -0.9054
  856MOL0     H15536   0.975   6.550   6.216 -0.1525  1.1898 -0.8774
  856MOL0     H15537   1.063   6.518   6.063  0.3965 -0.4731 -0.8067
  856MOL0     H15538   0.770   6.464   6.120  1.1702 -0.6966  1.0668
  856MOL0     H15539   0.859   6.436   5.967  2.0436  2.1344 -1.1813
  856MOL0     H15540   0.825   6.713   6.088  0.5377 -1.0082  1.6780
  856MOL0     H15541   0.746   6.643   5.942  0.5865 -0.8920 -0.9923
  856MOL0     H15542   1.704   6.236   6.244 -1.2469  1.0437 -1.3170
  856MOL0     H15543   1.908   6.360   6.274 -0.3040 -0.4632  1.2090
  856MOL0     H15544   2.034   6.860   6.645  0.1904 -1.3008 -0.0840
  856MOL0     H15545   2.231   6.984   6.672  2.4012 -0.6492  1.0277
  856MOL0     H15546   3.563   7.766   5.752 -0.6748  0.7765  0.0124
  856MOL0     H15547   3.751   7.766   5.562 -0.5327 -0.2735 -1.7647
  856MOL0     H15548   3.856   7.951   5.164  0.3197  0.7276  0.1031
  856MOL0     H15549   4.046   7.966   4.999  0.2152  0.6619 -0.3477
  856MOL0     H15550   4.276   7.927   4.953  1.0474  0.0507 -1.6421
  856MOL0     H15551   4.338   7.788   5.042 -0.5356  2.0394  1.1385
  856MOL0     H15552   4.377   7.836   4.742 -0.5070 -0.0111  0.0719
  856MOL0     H15553   4.409   7.680   4.816 -0.7613  0.0156 -0.5319
  856MOL0     H15554   4.586   7.775   4.956  1.0539 -1.9756 -1.2431
  856MOL0     H15555   4.532   7.944   4.902 -0.7351  0.2828 -1.2959
  856MOL0     H15556   4.635   7.875   4.675  1.2599  0.4546 -0.3035
  856MOL0     H15557   4.628   7.709   4.727  0.6520 -0.8699  3.1106
  856MOL0     H15558   4.996   7.820   4.884 -1.5253 -1.9219  2.9644
  856MOL0     H15559   4.063   7.538   5.019  0.5572  0.5522  0.9502
  856MOL0     H15560   3.911   7.528   5.163  1.3205 -2.4257 -4.2616
  857MOL0     O15561   9.174   2.627   3.422  0.4723  0.1026  0.4978
  857MOL0     C15562   9.278   2.628   3.490  0.3597  0.3047 -0.0439
  857MOL0     O15563   9.288   2.630   3.628  0.2712  0.2017  0.7162
  857MOL0     C15564   9.195   2.614   3.711  0.0893  0.3244 -0.3723
  857MOL0     C15565   9.061   2.654   3.692  0.0693  0.8687  0.0269
  857MOL0     C15566   8.965   2.633   3.792  0.1341  0.7954 -0.4025
  857MOL0     C15567   9.003   2.579   3.918 -0.0772  0.1919  0.7547
  857MOL0     O15568   8.921   2.539   4.021 -0.0935 -0.0927 -0.4663
  857MOL0     C15569   8.788   2.503   3.995  0.4134  0.2815  0.3466
  857MOL0     C15570   8.690   2.615   4.021  0.3138  0.3108 -0.0519
  857MOL0     C15571   8.547   2.557   4.020  0.0812  0.4040  0.1519
  857MOL0     C15572   8.452   2.672   4.058 -0.0858  0.7095  0.2358
  857MOL0     C15573   8.315   2.617   4.110 -0.1087  0.0146  0.2418
  857MOL0     C15574   8.236   2.735   4.161  0.8147 -0.2341 -0.2291
  857MOL0     C15575   8.103   2.681   4.227  0.1226 -0.0721 -0.5188
  857MOL0     C15576   7.994   2.787   4.250 -0.0810  0.1777 -0.1517
  857MOL0     N15577   7.874   2.739   4.320  0.4066  0.5281 -0.1293
  857MOL0     C15578   7.746   2.756   4.286  0.4642  0.1274  0.1254
  857MOL0     C15579   7.686   2.714   4.403  0.4965 -0.1005 -0.6026
  857MOL0     C15580   7.535   2.699   4.419  0.6625  0.2080  0.8227
  857MOL0     C15581   7.450   2.799   4.337  0.2822 -0.0645  0.4436
  857MOL0     C15582   7.306   2.788   4.385 -0.1560  0.0341 -0.4131
  857MOL0     C15583   7.195   2.841   4.298 -0.8563 -0.2476 -0.1814
  857MOL0     O15584   7.126   2.737   4.226 -0.6354  0.1408 -0.3979
  857MOL0     C15585   7.000   2.770   4.175 -0.5792  0.2267 -0.5237
  857MOL0     C15586   6.900   2.853   4.230  0.3121 -0.0934  0.1946
  857MOL0     C15587   6.766   2.849   4.188 -0.2477 -0.1521 -0.1671
  857MOL0     C15588   6.659   2.931   4.268 -0.6712  0.9683 -0.2094
  857MOL0     C15589   6.735   2.787   4.074 -0.0317 -0.6389 -0.4635
  857MOL0     C15590   6.597   2.776   4.030  0.1423  0.1703  0.2982
  857MOL0     O15591   6.586   2.770   3.894 -0.3708  0.1654  0.1304
  857MOL0     C15592   6.458   2.755   3.844  0.4016  0.3604 -0.7594
  857MOL0     C15593   6.405   2.634   3.817  0.1058  0.1153 -0.2329
  857MOL0     C15594   6.270   2.629   3.775  0.1140 -0.5739  0.4330
  857MOL0     C15595   6.195   2.745   3.757 -0.1978  0.2911 -0.3214
  857MOL0     O15596   6.068   2.727   3.711  0.2868  0.2004 -0.7945
  857MOL0     C15597   5.985   2.835   3.682 -0.9944 -0.6457 -0.1666
  857MOL0     C15598   5.834   2.799   3.678 -0.4244 -0.3133  0.3833
  857MOL0     C15599   5.773   2.808   3.813 -0.5066  0.3120 -0.4264
  857MOL0     C15600   5.623   2.775   3.815  0.6478 -0.0881  0.1256
  857MOL0     C15601   5.566   2.869   3.921 -0.2922 -0.1734  0.6192
  857MOL0     C15602   5.420   2.827   3.952  0.4669  0.0341 -0.2936
  857MOL0     C15603   5.328   2.865   3.833  0.2801  0.4114  0.0160
  857MOL0     C15604   5.177   2.822   3.858 -0.7222 -0.4102  0.4994
  857MOL0    Cl15605   5.093   2.813   3.697 -0.2605 -0.6801  0.0837
  857MOL0     C15606   6.254   2.865   3.768 -0.1007  0.3697  0.0966
  857MOL0     C15607   6.383   2.877   3.826  0.1462 -0.4391 -0.1592
  857MOL0     O15608   6.503   2.742   4.108 -0.0926  0.1835  0.2098
  857MOL0     C15609   6.841   2.712   4.011 -0.7969  0.2895  0.3924
  857MOL0     C15610   6.970   2.698   4.064  0.2914 -0.4172 -0.2212
  857MOL0     N15611   7.780   2.678   4.504  0.5018  0.4222  0.7860
  857MOL0     N15612   7.892   2.688   4.450 -0.1373  0.1416  1.4863
  857MOL0     C15613   9.137   2.552   3.938 -0.4487  0.0292 -0.7421
  857MOL0     C15614   9.230   2.567   3.836 -0.1463  0.1240  1.6102
  857MOL0     C15615   9.406   2.630   3.422  0.5060 -0.9454  0.2686
  857MOL0     C15616   9.423   2.629   3.282  0.2664 -0.5524  0.4583
  857MOL0     C15617   9.556   2.608   3.225  0.2623 -0.6481 -0.3547
  857MOL0     C15618   9.671   2.612   3.304 -0.4922  0.2886 -0.5198
  857MOL0     O15619   9.779   2.591   3.225  0.0615  0.1349 -0.3569
  857MOL0     C15620   9.917   2.610   3.274 -0.0877  0.4873 -0.0906
  857MOL0     C15621  10.012   2.617   3.165  0.8843 -0.3510 -0.1123
  857MOL0     C15622  10.051   2.469   3.118 -0.6337 -0.1544 -0.2577
  857MOL0     C15623  10.144   2.468   2.999  0.1607 -0.1707 -0.3411
  857MOL0     C15624  10.264   2.541   3.026 -0.1481  0.8372 -0.5523
  857MOL0     C15625  10.362   2.612   3.045  0.5238 -0.2475 -0.1008
  857MOL0     C15626   9.658   2.621   3.444  0.3503  0.1783 -0.1494
  857MOL0     C15627   9.522   2.632   3.499 -1.0926 -0.0020  0.3596
  857MOL0     H15628   9.030   2.698   3.598 -0.1920  1.9922  0.6207
  857MOL0     H15629   8.860   2.641   3.767 -0.5021 -2.1976  0.8767
  857MOL0     H15630   8.768   2.458   3.897 -0.6474  0.8240  0.2984
  857MOL0     H15631   8.768   2.424   4.069  1.7933 -1.2660 -0.8572
  857MOL0     H15632   8.704   2.660   4.120  0.1367  1.6842 -0.6301
  857MOL0     H15633   8.697   2.703   3.956  1.9353  0.5516  0.4192
  857MOL0     H15634   8.536   2.514   3.920  3.2361  0.4045 -0.2791
  857MOL0     H15635   8.550   2.471   4.088  0.1115  0.2765 -0.0082
  857MOL0     H15636   8.489   2.734   4.140 -0.4227 -0.7608  1.5607
  857MOL0     H15637   8.446   2.743   3.975  1.5228 -0.5081 -1.0120
  857MOL0     H15638   8.261   2.561   4.033 -2.7031 -0.1622  2.0803
  857MOL0     H15639   8.338   2.542   4.187  1.2182 -0.9237 -1.0104
  857MOL0     H15640   8.300   2.794   4.227  2.6588  0.8932 -2.8739
  857MOL0     H15641   8.204   2.805   4.083  0.2008  1.6008  1.5974
  857MOL0     H15642   8.063   2.601   4.164 -2.2898  0.2155  0.5411
  857MOL0     H15643   8.126   2.641   4.326 -0.2734  0.0521 -0.3786
  857MOL0     H15644   7.974   2.823   4.149  2.6435  1.3864 -0.3382
  857MOL0     H15645   8.033   2.870   4.309 -0.8064 -0.9444  2.0046
  857MOL0     H15646   7.708   2.772   4.186  3.8379 -4.6030 -2.2999
  857MOL0     H15647   7.506   2.599   4.386 -0.8452  0.4242  1.4179
  857MOL0     H15648   7.511   2.710   4.526 -1.2341  0.1476  0.4301
  857MOL0     H15649   7.457   2.776   4.230  0.2688  0.8838  0.2303
  857MOL0     H15650   7.491   2.900   4.347  2.1648 -0.5365 -1.7034
  857MOL0     H15651   7.310   2.849   4.476  2.8486  0.4061 -0.6673
  857MOL0     H15652   7.277   2.684   4.403 -1.2225  0.0758 -1.7433
  857MOL0     H15653   7.242   2.915   4.232 -0.7413  1.9817  2.2460
  857MOL0     H15654   7.125   2.897   4.361  0.5117 -0.1783  1.3527
  857MOL0     H15655   6.924   2.903   4.324 -0.5300  0.7374 -0.0134
  857MOL0     H15656   6.707   3.017   4.316 -1.5194  1.1468  0.3371
  857MOL0     H15657   6.586   2.976   4.198 -2.0985  2.2175  1.9539
  857MOL0     H15658   6.617   2.870   4.348  1.7781  1.0544  1.2275
  857MOL0     H15659   6.471   2.552   3.843  1.5168  0.5735 -2.1012
  857MOL0     H15660   6.235   2.528   3.761  0.3325 -0.8064  1.5008
  857MOL0     H15661   5.992   2.912   3.759 -1.7447 -2.3628  1.6789
  857MOL0     H15662   6.018   2.876   3.586  0.0301  0.9223  0.8034
  857MOL0     H15663   5.778   2.864   3.610 -1.3194 -0.5388  0.8932
  857MOL0     H15664   5.818   2.694   3.651 -1.6226 -1.0989  3.6453
  857MOL0     H15665   5.787   2.910   3.852  0.9182  0.5401 -1.4448
  857MOL0     H15666   5.830   2.741   3.877  0.5441 -1.7043 -3.2745
  857MOL0     H15667   5.586   2.788   3.713 -0.8025  1.2620  0.7855
  857MOL0     H15668   5.610   2.669   3.838 -1.4774 -0.2978 -1.7379
  857MOL0     H15669   5.571   2.973   3.888  3.3415 -1.0386 -2.1492
  857MOL0     H15670   5.636   2.856   4.004  0.5100 -0.7744 -0.1319
  857MOL0     H15671   5.418   2.718   3.965  0.2533  0.2927  2.1737
  857MOL0     H15672   5.395   2.881   4.043  0.0119  1.8514 -1.4409
  857MOL0     H15673   5.352   2.816   3.738 -1.3180  0.6679 -0.5576
  857MOL0     H15674   5.340   2.972   3.814  1.7372  0.1588 -0.6561
  857MOL0     H15675   5.120   2.887   3.925  1.2588  3.1099 -0.9654
  857MOL0     H15676   5.184   2.722   3.901 -0.4608 -0.1914  0.9678
  857MOL0     H15677   6.202   2.959   3.751 -1.6697 -0.7162 -1.5183
  857MOL0     H15678   6.434   2.962   3.872 -0.9655 -0.8583  1.9875
  857MOL0     H15679   6.823   2.653   3.922 -0.2127  0.7376 -0.0187
  857MOL0     H15680   7.044   2.640   4.009  1.4969  0.1942  0.6990
  857MOL0     H15681   9.165   2.534   4.041 -2.5973  2.8508  0.4752
  857MOL0     H15682   9.336   2.560   3.859 -0.6395 -1.3067  3.7123
  857MOL0     H15683   9.345   2.611   3.208  0.3851 -2.0774  0.6744
  857MOL0     H15684   9.568   2.587   3.119 -0.3719  0.8091 -0.7333
  857MOL0     H15685   9.915   2.693   3.345 -1.2564 -1.1333  1.8865
  857MOL0     H15686   9.943   2.521   3.332  0.6383 -0.1104 -1.2995
  857MOL0     H15687  10.102   2.655   3.213 -1.2542  3.7112  1.1863
  857MOL0     H15688   9.974   2.688   3.091 -0.8054  0.0175  1.0308
  857MOL0     H15689   9.959   2.411   3.099 -0.4093 -0.8868  0.7738
  857MOL0     H15690  10.098   2.412   3.199 -1.6884 -1.7338 -0.6907
  857MOL0     H15691  10.097   2.509   2.910 -0.8625 -1.3608 -0.3741
  857MOL0     H15692  10.173   2.366   2.969  0.1294 -0.7446  1.4468
  857MOL0     H15693  10.441   2.684   3.055 -0.2573  0.5199  0.6460
  857MOL0     H15694   9.737   2.612   3.517 -1.0253  0.3239  1.4033
  857MOL0     H15695   9.521   2.653   3.605  1.0401  2.3964 -0.0009
  858MOL0     O15696   9.833   0.861   4.332 -0.2467  0.0291  0.0727
  858MOL0     C15697   9.823   0.739   4.301 -0.2920  0.8326 -0.1554
  858MOL0     O15698   9.708   0.677   4.281  0.5278 -0.4105 -0.0288
  858MOL0     C15699   9.592   0.757   4.294  0.4022  0.0893  0.9009
  858MOL0     C15700   9.477   0.693   4.352 -0.8089  0.6916  0.0838
  858MOL0     C15701   9.362   0.759   4.373 -0.4541 -0.1086 -0.0096
  858MOL0     C15702   9.338   0.886   4.312 -0.1168  0.2021  0.3776
  858MOL0     O15703   9.209   0.935   4.324  0.2207 -0.3088  0.1687
  858MOL0     C15704   9.180   1.066   4.264  0.0348 -0.0151  0.2418
  858MOL0     C15705   9.067   1.130   4.349  0.4771 -0.1625 -0.2768
  858MOL0     C15706   8.937   1.045   4.353 -0.7383  0.5228 -0.7430
  858MOL0     C15707   8.821   1.129   4.411  0.2013 -0.0675 -0.0142
  858MOL0     C15708   8.687   1.049   4.400 -0.0393  0.1062 -0.1032
  858MOL0     C15709   8.583   1.148   4.452  0.7686  0.6409  0.1182
  858MOL0     C15710   8.454   1.079   4.477  0.1055 -0.3578  0.3202
  858MOL0     C15711   8.386   1.065   4.342 -0.5636  0.3813  0.3449
  858MOL0     N15712   8.248   1.019   4.330 -0.1111 -0.5879 -0.4501
  858MOL0     C15713   8.206   0.905   4.384 -0.6289  0.3162 -0.3280
  858MOL0     C15714   8.069   0.911   4.365  0.1130  0.1137 -0.8871
  858MOL0     C15715   7.983   0.799   4.408 -0.2355  0.4551  0.5931
  858MOL0     C15716   7.842   0.827   4.367  0.3805 -0.4218  0.9330
  858MOL0     C15717   7.773   0.694   4.340  0.4915  0.0452 -0.4060
  858MOL0     C15718   7.621   0.716   4.326 -0.1785  0.1515  0.7230
  858MOL0     O15719   7.555   0.595   4.285  0.0476 -0.4013 -0.0449
  858MOL0     C15720   7.420   0.594   4.293 -0.5427  0.1375 -0.5072
  858MOL0     C15721   7.359   0.488   4.227 -1.0371  0.2303 -0.0055
  858MOL0     C15722   7.215   0.477   4.228  0.1702 -0.6896 -0.1152
  858MOL0     C15723   7.158   0.357   4.162 -0.6744 -0.2552  1.1250
  858MOL0     C15724   7.136   0.571   4.293  0.5098 -0.5369 -0.3476
  858MOL0     C15725   6.986   0.570   4.287 -0.0316 -0.2459  0.2670
  858MOL0     O15726   6.930   0.634   4.390 -0.3598  0.3298  0.2510
  858MOL0     C15727   6.794   0.608   4.404 -0.3094 -0.8852  0.7245
  858MOL0     C15728   6.712   0.718   4.413  0.9476 -0.4682 -0.4127
  858MOL0     C15729   6.580   0.708   4.447 -0.6589 -0.2802 -0.9561
  858MOL0     C15730   6.524   0.583   4.481 -0.1767  0.3884 -0.1582
  858MOL0     O15731   6.395   0.580   4.541 -0.5520 -0.1371 -0.2792
  858MOL0     C15732   6.351   0.468   4.618  0.2725 -0.6126  0.8724
  858MOL0     C15733   6.238   0.492   4.719 -0.4991 -0.2528  0.7887
  858MOL0     C15734   6.094   0.472   4.674 -1.1163  0.5756 -0.4792
  858MOL0     C15735   6.006   0.498   4.788 -0.1363  0.1064  0.9811
  858MOL0     C15736   5.863   0.486   4.748  0.4112 -0.0032 -0.4353
  858MOL0     C15737   5.774   0.526   4.872 -0.1934  0.1729  0.3538
  858MOL0     C15738   5.629   0.469   4.847  1.0274 -0.5673 -0.1314
  858MOL0     C15739   5.534   0.501   4.964 -0.3731  0.3840  0.3678
  858MOL0    Cl15740   5.368   0.436   4.928  0.1313  0.0816  0.0387
  858MOL0     C15741   6.605   0.462   4.471 -0.4233 -0.4189  0.7271
  858MOL0     C15742   6.745   0.482   4.438  1.0940 -0.7370  0.9089
  858MOL0     O15743   6.926   0.500   4.208  0.2066  0.5686  0.8188
  858MOL0     C15744   7.197   0.677   4.363 -0.7128 -0.5028 -0.7092
  858MOL0     C15745   7.338   0.677   4.374 -0.1832 -0.0584  0.0883
  858MOL0     N15746   8.030   1.024   4.299 -0.1594  0.0956  0.0664
  858MOL0     N15747   8.139   1.091   4.276 -0.5756 -0.6954 -0.5513
  858MOL0     C15748   9.444   0.941   4.248 -0.2969  0.0607  0.5679
  858MOL0     C15749   9.568   0.880   4.233 -0.5786  0.4759 -0.0344
  858MOL0     C15750   9.949   0.652   4.272 -0.7874  0.5029 -0.6899
  858MOL0     C15751  10.080   0.706   4.285  0.3422  0.3194 -0.4426
  858MOL0     C15752  10.196   0.643   4.251  0.0811  0.7905 -0.2352
  858MOL0     C15753  10.189   0.515   4.189 -0.0985  0.2580 -0.4435
  858MOL0     O15754  10.297   0.442   4.146  0.2672 -0.4129  0.0374
  858MOL0     C15755  10.431   0.484   4.175 -0.1403 -0.3032 -0.5673
  858MOL0     C15756  10.515   0.369   4.227 -0.6001 -0.1070 -0.1383
  858MOL0     C15757  10.641   0.423   4.270  0.7526 -0.9719 -0.2485
  858MOL0     C15758  10.749   0.422   4.162 -0.4635  0.6443 -0.2848
  858MOL0     C15759  10.766   0.546   4.093  0.2627  1.1191  0.5598
  858MOL0     C15760  10.775   0.645   4.027 -0.3236 -0.8798 -0.2130
  858MOL0     C15761  10.056   0.465   4.167  0.4594  0.0953 -0.4819
  858MOL0     C15762   9.943   0.530   4.205 -0.5675 -0.0100  0.9902
  858MOL0     H15763   9.506   0.600   4.399 -1.8843  0.4968  0.3873
  858MOL0     H15764   9.275   0.715   4.421 -2.0892  1.9990 -0.8718
  858MOL0     H15765   9.261   1.139   4.277 -0.2322  0.1595  1.0162
  858MOL0     H15766   9.152   1.068   4.158  1.6247  0.5646 -0.1902
  858MOL0     H15767   9.102   1.139   4.452  0.8047 -2.1541 -0.1667
  858MOL0     H15768   9.045   1.222   4.295 -1.1889 -0.2826  0.1330
  858MOL0     H15769   8.918   1.015   4.249 -0.3511 -0.1193 -0.6309
  858MOL0     H15770   8.948   0.960   4.421 -1.7092 -2.3513 -3.8535
  858MOL0     H15771   8.839   1.152   4.516  0.2625  0.6351 -0.1719
  858MOL0     H15772   8.815   1.217   4.347 -0.3598 -0.6584 -0.8058
  858MOL0     H15773   8.678   1.014   4.297  0.4924  3.0956 -1.2735
  858MOL0     H15774   8.692   0.962   4.466  0.0311 -0.6740 -1.1133
  858MOL0     H15775   8.614   1.197   4.544  0.6017  0.4692  0.2695
  858MOL0     H15776   8.581   1.232   4.382  2.1743  1.3244  0.8673
  858MOL0     H15777   8.465   0.978   4.518 -0.3106  0.3222  2.2313
  858MOL0     H15778   8.393   1.142   4.542  1.1807  2.6693 -1.4210
  858MOL0     H15779   8.438   0.980   4.297  0.9957  0.6539  1.5774
  858MOL0     H15780   8.398   1.154   4.280 -2.3924  0.5959  0.2374
  858MOL0     H15781   8.268   0.835   4.438  0.2114  1.0087 -0.3643
  858MOL0     H15782   8.029   0.713   4.359 -0.0201 -0.0608  1.6653
  858MOL0     H15783   7.988   0.785   4.517 -2.7673  1.3070  0.8902
  858MOL0     H15784   7.838   0.887   4.275  1.5303 -2.1666 -0.3305
  858MOL0     H15785   7.786   0.881   4.443 -0.9170  0.4713 -0.5816
  858MOL0     H15786   7.779   0.620   4.421  0.7963 -2.0709 -2.2614
  858MOL0     H15787   7.826   0.648   4.256  1.4829 -0.6928  0.6064
  858MOL0     H15788   7.605   0.796   4.253  0.9745 -1.8915 -1.9339
  858MOL0     H15789   7.592   0.752   4.425  2.4148 -0.4994  1.8124
  858MOL0     H15790   7.410   0.412   4.169  0.4788  0.7624  0.5804
  858MOL0     H15791   7.100   0.300   4.235 -0.4010 -1.6677  0.2683
  858MOL0     H15792   7.107   0.396   4.074  2.6247 -1.2859 -1.4781
  858MOL0     H15793   7.240   0.295   4.125 -1.0551  0.5130 -1.1142
  858MOL0     H15794   6.746   0.820   4.396  0.2415  0.4618  2.9889
  858MOL0     H15795   6.512   0.793   4.448  4.0230  3.9199 -1.0644
  858MOL0     H15796   6.330   0.385   4.550 -0.3990  1.1618 -1.2405
  858MOL0     H15797   6.434   0.430   4.678  0.7133 -1.1434 -0.0452
  858MOL0     H15798   6.267   0.433   4.806  2.5469  2.1299  1.5402
  858MOL0     H15799   6.250   0.597   4.747  1.7670 -0.1448 -0.3600
  858MOL0     H15800   6.087   0.371   4.632  2.0642  0.5807 -1.2766
  858MOL0     H15801   6.058   0.537   4.594  1.5255  1.6660 -0.8852
  858MOL0     H15802   6.031   0.435   4.874  1.0466 -0.7478  0.0578
  858MOL0     H15803   6.037   0.598   4.820  1.7347  0.3322 -1.2430
  858MOL0     H15804   5.839   0.382   4.727  1.1810 -1.3657  4.2861
  858MOL0     H15805   5.836   0.555   4.668  1.7351  1.0839 -0.0088
  858MOL0     H15806   5.820   0.484   4.961 -1.0869 -0.3694  0.5766
  858MOL0     H15807   5.769   0.634   4.888  0.9068  0.8076 -2.8182
  858MOL0     H15808   5.633   0.360   4.845  1.5151 -0.6091  1.6594
  858MOL0     H15809   5.595   0.495   4.746 -0.3232  3.2882  1.1375
  858MOL0     H15810   5.554   0.604   4.992 -1.3147  0.7255 -0.1564
  858MOL0     H15811   5.573   0.438   5.044 -0.8508  2.6621  2.4767
  858MOL0     H15812   6.577   0.360   4.495 -0.7321  0.1346  2.9550
  858MOL0     H15813   6.814   0.399   4.450 -0.1149 -1.5588  2.5937
  858MOL0     H15814   7.138   0.754   4.411 -1.4148 -1.5168  0.1043
  858MOL0     H15815   7.374   0.750   4.447 -2.4539 -1.8417  3.2461
  858MOL0     H15816   9.429   1.037   4.200  0.5589 -0.4616 -0.8042
  858MOL0     H15817   9.641   0.925   4.167 -1.4539  1.6057 -0.2640
  858MOL0     H15818  10.098   0.806   4.323  2.0739  1.2657 -3.3986
  858MOL0     H15819  10.297   0.680   4.271  1.6778 -2.9321 -0.6023
  858MOL0     H15820  10.480   0.522   4.085 -0.2778  2.6753  0.5289
  858MOL0     H15821  10.434   0.567   4.245  0.2507 -1.8089  1.2809
  858MOL0     H15822  10.520   0.291   4.151  2.2314 -1.5138  1.3518
  858MOL0     H15823  10.468   0.323   4.314  0.9732 -0.9300  0.3032
  858MOL0     H15824  10.679   0.351   4.344  0.0180  0.7797  1.9646
  858MOL0     H15825  10.631   0.513   4.331  1.0613 -1.2802  0.2680
  858MOL0     H15826  10.741   0.339   4.092  2.3718 -0.2397  0.3150
  858MOL0     H15827  10.849   0.409   4.205 -0.6639  0.3060  0.0778
  858MOL0     H15828  10.803   0.740   3.987 -1.1438 -0.0938  0.9855
  858MOL0     H15829  10.056   0.368   4.118  0.6862  0.0996 -0.4929
  858MOL0     H15830   9.854   0.477   4.172  0.1793 -1.5229  1.2933
  859MOL0     O15831   7.391   7.031  10.648  0.3301 -0.2276 -0.3711
  859MOL0     C15832   7.406   7.129  10.578 -0.0790  0.1794  0.5387
  859MOL0     O15833   7.300   7.213  10.541  0.3243  0.1031  0.3113
  859MOL0     C15834   7.172   7.173  10.551  0.8590 -0.2290 -0.5111
  859MOL0     C15835   7.112   7.116  10.670 -0.4991 -1.0433  0.5594
  859MOL0     C15836   6.976   7.089  10.680  0.0741  0.3316  0.7366
  859MOL0     C15837   6.889   7.109  10.569 -0.0085  0.4907  0.3007
  859MOL0     O15838   6.757   7.058  10.572  0.6193 -0.1534 -0.3999
  859MOL0     C15839   6.699   6.995  10.456  0.3621  0.5358  0.1599
  859MOL0     C15840   6.581   6.905  10.505 -0.0889  0.1747  0.5851
  859MOL0     C15841   6.538   6.825  10.386 -0.1003  0.4558  0.1420
  859MOL0     C15842   6.436   6.724  10.419  0.4166  0.1556 -0.2288
  859MOL0     C15843   6.402   6.649  10.292  0.4770  0.0281  0.2355
  859MOL0     C15844   6.286   6.561  10.327  0.5720 -1.1729  0.0601
  859MOL0     C15845   6.215   6.506  10.207 -0.0208  0.6864 -0.3667
  859MOL0     C15846   6.096   6.408  10.246 -0.4480  0.9729  0.4051
  859MOL0     N15847   5.990   6.419  10.146  0.0179 -0.2642 -0.2686
  859MOL0     C15848   5.966   6.318  10.052  0.1365 -0.6039  0.2091
  859MOL0     C15849   5.829   6.329  10.025  0.1163 -0.5099 -0.3372
  859MOL0     C15850   5.748   6.242   9.927 -0.0957  0.9465  0.1790
  859MOL0     C15851   5.778   6.298   9.790 -1.1318  0.0029 -0.5607
  859MOL0     C15852   5.718   6.436   9.766  0.2265 -0.5653  0.9770
  859MOL0     C15853   5.566   6.444   9.732  0.5603  1.0739 -0.9682
  859MOL0     O15854   5.554   6.413   9.593 -0.0192  0.6145 -0.2891
  859MOL0     C15855   5.431   6.381   9.546 -0.2424 -0.4261 -0.2587
  859MOL0     C15856   5.313   6.365   9.625 -0.6251 -1.0222  0.1125
  859MOL0     C15857   5.195   6.343   9.558 -0.3253 -1.0454 -0.9913
  859MOL0     C15858   5.074   6.322   9.647 -0.1773 -0.1994  1.2274
  859MOL0     C15859   5.187   6.325   9.420  1.3718  0.6889  0.3814
  859MOL0     C15860   5.065   6.276   9.349  0.2048 -0.3073 -0.0996
  859MOL0     O15861   5.004   6.165   9.404 -0.1580 -0.0147 -0.0740
  859MOL0     C15862   4.894   6.128   9.347 -0.1131 -0.5156  0.3640
  859MOL0     C15863   4.897   6.016   9.254 -0.3771 -0.5560 -0.1410
  859MOL0     C15864   4.781   5.981   9.182  0.2137 -0.0150 -0.5541
  859MOL0     C15865   4.661   6.044   9.216 -0.0816 -0.1069  0.0229
  859MOL0     O15866   4.542   6.027   9.149 -1.3710 -0.4393  0.1990
  859MOL0     C15867   4.497   5.890   9.139 -0.4769  0.0050 -0.6138
  859MOL0     C15868   4.346   5.889   9.124 -0.0124  0.3992 -0.8851
  859MOL0     C15869   4.276   5.918   9.258 -0.0547  0.0545  0.1917
  859MOL0     C15870   4.152   6.011   9.244 -0.3068 -0.0258  0.0882
  859MOL0     C15871   4.048   5.957   9.143  0.6234  0.4946  0.5394
  859MOL0     C15872   4.003   5.819   9.195  0.0874 -0.4265  0.0912
  859MOL0     C15873   3.883   5.761   9.119  0.2183  0.2859 -0.0291
  859MOL0     C15874   3.754   5.846   9.121 -0.4952  0.1991  0.0650
  859MOL0    Cl15875   3.694   5.865   9.288 -0.3725  0.1463 -0.2752
  859MOL0     C15876   4.653   6.136   9.315  0.4333  0.8283 -0.0256
  859MOL0     C15877   4.767   6.187   9.377  0.6144  0.3310 -0.3023
  859MOL0     O15878   5.046   6.322   9.233  0.5231  0.3659 -0.0896
  859MOL0     C15879   5.300   6.338   9.345  0.1772  0.5010 -0.3301
  859MOL0     C15880   5.424   6.373   9.407  0.3238  0.0091  0.4645
  859MOL0     N15881   5.771   6.438  10.090 -0.4579 -0.0282  0.4841
  859MOL0     N15882   5.877   6.496  10.158  0.4895 -0.1287  1.1271
  859MOL0     C15883   6.947   7.157  10.446 -0.6810 -1.0373 -0.0134
  859MOL0     C15884   7.092   7.187  10.443 -0.7487  0.2986  0.1646
  859MOL0     C15885   7.551   7.158  10.539 -0.4597 -0.7316 -0.1788
  859MOL0     C15886   7.659   7.091  10.602 -0.0174 -0.4960  0.2100
  859MOL0     C15887   7.797   7.126  10.568 -0.6570  0.6530  0.5465
  859MOL0     C15888   7.822   7.232  10.476 -0.1972 -0.1224  0.8449
  859MOL0     O15889   7.945   7.290  10.454 -0.2132 -0.7128 -0.6575
  859MOL0     C15890   8.058   7.219  10.509  0.1563  0.1734 -0.9932
  859MOL0     C15891   8.189   7.271  10.446  0.6655  0.4422  0.0970
  859MOL0     C15892   8.236   7.405  10.501  0.0467 -0.7283  0.1685
  859MOL0     C15893   8.253   7.404  10.657  0.3860  0.2033  0.5735
  859MOL0     C15894   8.350   7.319  10.723  0.0769  0.1852  0.8412
  859MOL0     C15895   8.445   7.253  10.766 -0.5741  1.0640 -0.6072
  859MOL0     C15896   7.714   7.299  10.425 -0.3998 -0.3322 -0.2375
  859MOL0     C15897   7.580   7.261  10.444  0.2091  0.2838 -0.0528
  859MOL0     H15898   7.182   7.108  10.753  0.0326 -4.9379 -0.0872
  859MOL0     H15899   6.933   7.050  10.772  2.9393  0.8744  2.4185
  859MOL0     H15900   6.655   7.060  10.380 -1.1853 -0.0573  0.4959
  859MOL0     H15901   6.778   6.950  10.395 -0.3721 -0.2338 -0.2413
  859MOL0     H15902   6.614   6.832  10.580  0.0453 -0.8058 -0.4012
  859MOL0     H15903   6.496   6.964  10.540 -3.1303 -2.7514 -1.3190
  859MOL0     H15904   6.501   6.884  10.302  2.0146  1.7613  0.0419
  859MOL0     H15905   6.628   6.769  10.360  0.8060  0.6291  2.6244
  859MOL0     H15906   6.484   6.651  10.485 -1.3715 -0.5500  0.3772
  859MOL0     H15907   6.345   6.761  10.467  0.3404  1.4362 -1.3170
  859MOL0     H15908   6.366   6.715  10.213  0.3699  3.6729  3.0595
  859MOL0     H15909   6.489   6.594  10.254  2.1610  0.5010  3.1283
  859MOL0     H15910   6.327   6.484  10.392  1.4912 -0.3569  0.4660
  859MOL0     H15911   6.215   6.614  10.391  1.1039 -1.5282  0.9571
  859MOL0     H15912   6.176   6.590  10.149 -1.2640  0.2627 -0.1880
  859MOL0     H15913   6.285   6.452  10.144 -1.5571 -1.8844 -0.0359
  859MOL0     H15914   6.050   6.426  10.344  0.4277 -1.0650  1.2402
  859MOL0     H15915   6.135   6.306  10.245 -2.4785  0.1586 -1.4804
  859MOL0     H15916   6.043   6.255  10.008  0.6161  0.4176 -0.4587
  859MOL0     H15917   5.777   6.137   9.934 -0.3375  0.8609 -0.0403
  859MOL0     H15918   5.643   6.253   9.957 -0.0723 -0.3984  0.8379
  859MOL0     H15919   5.754   6.236   9.702  0.5925  0.4029 -1.3492
  859MOL0     H15920   5.886   6.312   9.782 -1.1093  2.1194  2.2255
  859MOL0     H15921   5.771   6.486   9.685  2.1152 -1.2361  1.7295
  859MOL0     H15922   5.742   6.501   9.851 -0.8534 -0.7571  1.4394
  859MOL0     H15923   5.520   6.543   9.746 -3.6116 -0.7141 -0.5368
  859MOL0     H15924   5.511   6.373   9.795 -0.4879  2.0607 -0.7381
  859MOL0     H15925   5.321   6.388   9.731  2.8878 -1.9705  0.1980
  859MOL0     H15926   5.049   6.216   9.639  1.4345 -0.4772 -1.9151
  859MOL0     H15927   5.090   6.358   9.749  1.5253 -1.2480  1.3589
  859MOL0     H15928   4.988   6.374   9.603  1.4600  0.5702 -1.3332
  859MOL0     H15929   4.980   5.952   9.227 -2.0422 -3.1215  0.4575
  859MOL0     H15930   4.790   5.912   9.099  2.3649 -0.2820 -0.1513
  859MOL0     H15931   4.543   5.848   9.049  0.2130 -1.3280  0.3195
  859MOL0     H15932   4.519   5.822   9.223 -0.0290 -1.1398 -1.6340
  859MOL0     H15933   4.315   5.968   9.055 -1.0436  2.1081  1.3872
  859MOL0     H15934   4.311   5.791   9.092 -3.2452  0.4555  1.9501
  859MOL0     H15935   4.353   5.959   9.324  0.3523  0.9135 -0.7966
  859MOL0     H15936   4.244   5.826   9.309  0.9478 -0.0716  0.6236
  859MOL0     H15937   4.094   6.027   9.335  1.2969 -1.4430  1.4135
  859MOL0     H15938   4.173   6.109   9.200 -1.5042  0.4607  0.5524
  859MOL0     H15939   4.079   5.955   9.038 -1.2693 -0.0960 -0.0418
  859MOL0     H15940   3.959   6.020   9.150 -1.2087 -1.3493 -3.4112
  859MOL0     H15941   4.082   5.745   9.177 -0.3126 -1.4337  2.1838
  859MOL0     H15942   3.977   5.831   9.300 -1.1239 -0.5338 -0.1748
  859MOL0     H15943   3.864   5.661   9.160  0.5373  0.4698  0.5777
  859MOL0     H15944   3.917   5.747   9.016  4.4446  2.6655  0.8080
  859MOL0     H15945   3.674   5.788   9.073  1.3377 -4.2819  1.8351
  859MOL0     H15946   3.762   5.943   9.072 -0.0131 -0.4084 -1.0951
  859MOL0     H15947   4.566   6.195   9.340 -0.1429 -0.2000  0.4155
  859MOL0     H15948   4.748   6.271   9.443 -1.0439 -1.7321  2.0452
  859MOL0     H15949   5.299   6.313   9.239 -4.0256 -0.0346 -0.3307
  859MOL0     H15950   5.511   6.373   9.342 -1.2406 -0.8831 -1.7634
  859MOL0     H15951   6.881   7.160  10.360  0.4907  1.2513 -0.9258
  859MOL0     H15952   7.151   7.213  10.356  1.9624 -1.2657  1.4024
  859MOL0     H15953   7.641   7.014  10.676  2.0378  0.2249  1.5541
  859MOL0     H15954   7.880   7.081  10.622 -2.0415  1.1275  3.2645
  859MOL0     H15955   8.076   7.227  10.616  0.8392  0.5124 -1.1266
  859MOL0     H15956   8.036   7.116  10.479  0.6803 -0.1131 -0.4219
  859MOL0     H15957   8.173   7.277  10.338  2.5366 -0.0321 -0.2427
  859MOL0     H15958   8.267   7.195  10.456  0.8620  0.8056  1.7969
  859MOL0     H15959   8.165   7.483  10.473 -0.2192 -1.7218 -2.0859
  859MOL0     H15960   8.336   7.434  10.467 -0.6340  2.3270  0.4278
  859MOL0     H15961   8.155   7.397  10.705 -0.1518 -0.4667 -0.5819
  859MOL0     H15962   8.287   7.504  10.683 -2.2165  1.0966  0.8496
  859MOL0     H15963   8.528   7.197  10.804 -2.5261 -1.2947  0.4665
  859MOL0     H15964   7.746   7.384  10.365 -0.6589  1.1588  1.6629
  859MOL0     H15965   7.505   7.325  10.399  1.9463  0.5711 -2.7415
  860MOL0     O15966   0.084   0.305   2.811 -0.3099 -0.0622 -0.0413
  860MOL0     C15967   0.172   0.234   2.859  0.2151  0.1025 -0.2178
  860MOL0     O15968   0.155   0.113   2.927 -0.2749  0.8611  0.4569
  860MOL0     C15969   0.026   0.059   2.937 -0.6161 -0.3807  0.5873
  860MOL0     C15970  -0.018   0.012   3.059 -0.0210  0.5344  0.2287
  860MOL0     C15971  -0.153  -0.015   3.084 -0.3705 -0.3443  0.1415
  860MOL0     C15972  -0.244  -0.006   2.978  0.6953 -0.3379  0.2657
  860MOL0     O15973  -0.378  -0.048   3.002 -0.0756 -0.1875  0.2356
  860MOL0     C15974  -0.479  -0.025   2.897 -0.1043  0.5525 -0.6383
  860MOL0     C15975  -0.617  -0.066   2.949  0.0668 -0.3330 -0.4646
  860MOL0     C15976  -0.656  -0.004   3.076 -0.4589 -0.4111  0.2296
  860MOL0     C15977  -0.788  -0.048   3.117  0.3922 -0.5097 -0.4769
  860MOL0     C15978  -0.844   0.035   3.237  0.5658  0.1210  0.5985
  860MOL0     C15979  -0.972  -0.026   3.294  0.2438  0.4197 -0.2563
  860MOL0     C15980  -1.094   0.016   3.215 -0.7672 -0.1372  0.9843
  860MOL0     C15981  -1.224  -0.064   3.238  0.2515  0.7695  0.5590
  860MOL0     N15982  -1.331   0.025   3.299 -0.4645  0.5535  0.3310
  860MOL0     C15983  -1.395   0.115   3.219 -0.6154  0.5754 -0.1793
  860MOL0     C15984  -1.521   0.124   3.268 -0.2301 -1.1983 -0.0532
  860MOL0     C15985  -1.641   0.190   3.213 -0.3969  0.2824 -0.3206
  860MOL0     C15986  -1.670   0.318   3.289  0.1014 -0.2792  0.6235
  860MOL0     C15987  -1.779   0.404   3.227  0.1404 -0.7923  0.0680
  860MOL0     C15988  -1.925   0.342   3.218  0.0420  0.2388  0.5136
  860MOL0     O15989  -2.001   0.329   3.341  0.1940  0.2437 -0.4032
  860MOL0     C15990  -2.060   0.451   3.382 -0.1949  1.0475 -0.0733
  860MOL0     C15991  -2.193   0.484   3.347  0.3025  0.0204 -0.5614
  860MOL0     C15992  -2.248   0.599   3.384 -0.3108  0.4819  0.6094
  860MOL0     C15993  -2.393   0.607   3.345  0.5808 -0.2386 -1.0302
  860MOL0     C15994  -2.177   0.686   3.469  0.3998 -0.0094 -0.6582
  860MOL0     C15995  -2.239   0.813   3.513  0.4868 -0.0993 -0.7207
  860MOL0     O15996  -2.328   0.861   3.427 -0.3174 -0.2257  0.0436
  860MOL0     C15997  -2.412   0.971   3.461  0.4589  0.0001 -0.2900
  860MOL0     C15998  -2.469   1.056   3.363  0.2385 -0.2790 -0.5121
  860MOL0     C15999  -2.553   1.160   3.392  1.2318  0.3755 -0.9566
  860MOL0     C16000  -2.582   1.179   3.526  0.6078  0.2105  0.2139
  860MOL0     O16001  -2.658   1.292   3.544 -0.0444 -0.2077 -0.0778
  860MOL0     C16002  -2.737   1.307   3.661  0.0310 -0.5558  0.2819
  860MOL0     C16003  -2.827   1.429   3.632  0.8431  0.4819  1.0074
  860MOL0     C16004  -2.927   1.464   3.743 -0.6462 -0.4804 -0.0465
  860MOL0     C16005  -3.020   1.352   3.788  0.4370  0.3093 -0.5309
  860MOL0     C16006  -3.137   1.402   3.872 -0.1877 -0.5540 -0.2988
  860MOL0     C16007  -3.222   1.286   3.906  0.7138  0.5196 -0.6134
  860MOL0     C16008  -3.310   1.329   4.023 -0.0225  0.1221  1.0061
  860MOL0     C16009  -3.441   1.244   4.021  0.3675  0.0534  0.3054
  860MOL0    Cl16010  -3.547   1.306   3.894  0.5730  0.4578  0.3551
  860MOL0     C16011  -2.534   1.098   3.630  0.1398 -0.1522 -0.3218
  860MOL0     C16012  -2.448   0.995   3.597  0.2775  0.5424 -0.4231
  860MOL0     O16013  -2.192   0.876   3.607 -0.2447 -0.0966  0.0894
  860MOL0     C16014  -2.046   0.657   3.506 -0.1231  1.5263  0.7286
  860MOL0     C16015  -1.994   0.537   3.461  0.0311  0.0765  0.1542
  860MOL0     N16016  -1.525   0.061   3.391 -0.1538  0.9311 -0.9653
  860MOL0     N16017  -1.416  -0.007   3.406 -0.3541 -0.2648  0.8867
  860MOL0     C16018  -0.198   0.035   2.853  0.7039 -0.1495  0.8143
  860MOL0     C16019  -0.064   0.069   2.837  0.0062  0.8306  0.1175
  860MOL0     C16020   0.309   0.276   2.836 -0.1613  0.0515 -0.7848
  860MOL0     C16021   0.340   0.363   2.729  0.2784 -0.8864  0.2439
  860MOL0     C16022   0.476   0.385   2.702  0.0651  0.4993  0.4422
  860MOL0     C16023   0.586   0.330   2.771  0.4245 -0.0430  0.1007
  860MOL0     O16024   0.708   0.363   2.720 -0.9987 -0.5019 -0.3489
  860MOL0     C16025   0.829   0.339   2.789 -0.2957  0.0430 -0.3089
  860MOL0     C16026   0.924   0.460   2.775  0.4248  0.3160 -0.1012
  860MOL0     C16027   0.994   0.464   2.637  0.5662 -0.5701  0.7248
  860MOL0     C16028   1.083   0.588   2.608 -0.7359 -0.3709  0.3309
  860MOL0     C16029   1.001   0.710   2.611 -0.1627 -0.9375 -0.6246
  860MOL0     C16030   0.951   0.819   2.597  0.4716 -0.0543  0.4093
  860MOL0     C16031   0.555   0.243   2.877  0.6077  0.1713  0.3117
  860MOL0     C16032   0.421   0.216   2.908 -0.6632 -0.2336  0.5279
  860MOL0     H16033   0.056   0.012   3.138 -0.8770 -0.3832  1.0577
  860MOL0     H16034  -0.180  -0.032   3.188 -1.5570  0.7386  0.0355
  860MOL0     H16035  -0.479   0.082   2.874  0.8540  0.6181 -0.4031
  860MOL0     H16036  -0.448  -0.092   2.816  1.0364  0.8640 -0.4743
  860MOL0     H16037  -0.689  -0.040   2.871  0.4521 -0.4011 -0.8533
  860MOL0     H16038  -0.626  -0.174   2.961 -2.4231  0.0584  2.2994
  860MOL0     H16039  -0.594  -0.039   3.159 -1.5439  0.1811  1.3316
  860MOL0     H16040  -0.661   0.104   3.059  1.0285 -0.5423 -1.2282
  860MOL0     H16041  -0.857  -0.028   3.034 -1.5618  1.0416  1.3887
  860MOL0     H16042  -0.776  -0.156   3.132 -1.2008 -0.4991  1.1741
  860MOL0     H16043  -0.769   0.044   3.317  1.3241  1.6969 -0.2456
  860MOL0     H16044  -0.864   0.135   3.198  2.8557  0.2406 -0.4421
  860MOL0     H16045  -0.959  -0.135   3.297 -0.7610  0.2568 -1.1491
  860MOL0     H16046  -0.983   0.008   3.397 -1.2287 -0.4787 -0.0897
  860MOL0     H16047  -1.115   0.122   3.230  2.3718  0.7009  0.2935
  860MOL0     H16048  -1.065  -0.007   3.112  1.1109  3.1581  0.6466
  860MOL0     H16049  -1.207  -0.151   3.301 -2.8083 -0.8642 -0.6668
  860MOL0     H16050  -1.269  -0.095   3.144 -2.0865 -0.4086  1.9815
  860MOL0     H16051  -1.352   0.152   3.126  1.3986  2.8540  1.5102
  860MOL0     H16052  -1.632   0.212   3.106  2.8556  1.3709  0.0590
  860MOL0     H16053  -1.721   0.120   3.240  0.1427  0.5067  2.0748
  860MOL0     H16054  -1.576   0.373   3.284  0.0454 -0.0632  1.6824
  860MOL0     H16055  -1.707   0.296   3.390 -1.0011  0.2344  0.3484
  860MOL0     H16056  -1.756   0.440   3.126 -2.7720  0.1420 -0.3550
  860MOL0     H16057  -1.792   0.490   3.294 -3.2192 -1.5492  0.5498
  860MOL0     H16058  -1.915   0.240   3.180  3.8122  0.3888  0.7446
  860MOL0     H16059  -1.982   0.396   3.142  0.0198 -1.1854 -0.5259
  860MOL0     H16060  -2.245   0.402   3.298 -1.1430  0.0423  0.8536
  860MOL0     H16061  -2.449   0.649   3.430 -0.0209 -1.3746 -0.8348
  860MOL0     H16062  -2.401   0.678   3.263 -0.8083 -1.1063 -1.6975
  860MOL0     H16063  -2.440   0.513   3.313 -0.2617  0.4148 -1.7527
  860MOL0     H16064  -2.445   1.031   3.260  5.3966 -0.7034  0.5319
  860MOL0     H16065  -2.603   1.229   3.325 -2.3505 -1.0128  0.0906
  860MOL0     H16066  -2.797   1.218   3.686  0.4308 -1.5242 -1.9802
  860MOL0     H16067  -2.686   1.338   3.753  1.3346  1.6819 -1.1314
  860MOL0     H16068  -2.774   1.522   3.612 -0.6188  1.3532  1.0252
  860MOL0     H16069  -2.883   1.410   3.540  2.9614 -0.9567 -0.0690
  860MOL0     H16070  -2.986   1.548   3.707 -1.7713 -1.3951 -0.3697
  860MOL0     H16071  -2.880   1.508   3.832 -1.0658 -0.6526  0.2651
  860MOL0     H16072  -3.061   1.295   3.703 -2.0253 -2.2048  2.1151
  860MOL0     H16073  -2.965   1.274   3.841 -0.0459 -1.7251 -2.8189
  860MOL0     H16074  -3.188   1.479   3.813  0.6974 -0.1863 -0.6037
  860MOL0     H16075  -3.102   1.453   3.962 -0.9193 -0.7195  0.0787
  860MOL0     H16076  -3.288   1.256   3.825  0.2370  0.3855 -0.1795
  860MOL0     H16077  -3.154   1.206   3.938  1.8309  1.9706  0.8324
  860MOL0     H16078  -3.333   1.436   4.021 -0.7413 -0.0274 -0.5094
  860MOL0     H16079  -3.263   1.306   4.119 -0.0083  1.6449  1.4048
  860MOL0     H16080  -3.499   1.246   4.114 -2.4800  0.7191 -1.3779
  860MOL0     H16081  -3.410   1.143   3.993  2.1340  0.7704 -0.4485
  860MOL0     H16082  -2.564   1.114   3.733  1.4413 -0.5338  0.1269
  860MOL0     H16083  -2.406   0.926   3.670  2.4484  1.5221 -0.6920
  860MOL0     H16084  -1.996   0.733   3.565 -0.4202  2.9924 -0.8293
  860MOL0     H16085  -1.894   0.523   3.500  0.1253  0.6568  0.1327
  860MOL0     H16086  -0.264   0.045   2.768  2.4129 -0.1429 -0.5780
  860MOL0     H16087  -0.042   0.105   2.737 -0.8746  2.2043  0.3971
  860MOL0     H16088   0.260   0.412   2.674  0.6149 -1.0971 -0.4457
  860MOL0     H16089   0.508   0.444   2.616  0.5246  0.4964  0.6096
  860MOL0     H16090   0.814   0.329   2.897 -2.0178 -1.3736 -0.6373
  860MOL0     H16091   0.871   0.240   2.765 -0.0772 -0.0320  0.3355
  860MOL0     H16092   1.006   0.451   2.846  1.1725 -2.7100 -1.1902
  860MOL0     H16093   0.868   0.551   2.801  0.7086  0.7093 -0.8311
  860MOL0     H16094   0.914   0.454   2.563  0.3782 -0.0323  0.8537
  860MOL0     H16095   1.060   0.377   2.633  2.3517  0.7509  0.5873
  860MOL0     H16096   1.116   0.561   2.508  0.6808 -2.5984  1.3125
  860MOL0     H16097   1.161   0.590   2.684 -2.0475 -0.4197  1.7464
  860MOL0     H16098   0.915   0.918   2.585  1.3926  0.7332  3.2701
  860MOL0     H16099   0.637   0.188   2.922  1.8568  0.8114 -1.0958
  860MOL0     H16100   0.411   0.137   2.982 -1.7603  1.1968  1.9776
  861MOL0     O16101   4.354   9.374   3.573  0.2146  0.3647  0.7480
  861MOL0     C16102   4.328   9.291   3.662  0.2073 -0.5239 -0.3319
  861MOL0     O16103   4.217   9.287   3.738 -0.1536 -0.2429  1.1070
  861MOL0     C16104   4.100   9.337   3.686 -0.5822 -0.5876  0.1018
  861MOL0     C16105   4.069   9.331   3.547 -0.4956  1.3330  0.7128
  861MOL0     C16106   3.953   9.391   3.498  0.2461 -0.0548 -0.0923
  861MOL0     C16107   3.866   9.450   3.595  0.4492 -0.6037  0.3156
  861MOL0     O16108   3.745   9.503   3.559  1.0365 -0.0252  0.4451
  861MOL0     C16109   3.669   9.428   3.457  0.7736  0.3210 -0.3348
  861MOL0     C16110   3.528   9.390   3.517  0.2309  0.0329 -0.1327
  861MOL0     C16111   3.438   9.515   3.520 -0.7277  0.8985 -1.0006
  861MOL0     C16112   3.294   9.481   3.521  0.4949 -0.7949 -1.2044
  861MOL0     C16113   3.201   9.599   3.490  0.3251 -0.4139 -1.1376
  861MOL0     C16114   3.214   9.723   3.586  0.8022 -0.8296 -0.0375
  861MOL0     C16115   3.201   9.688   3.737  0.1694  0.3718 -0.3354
  861MOL0     C16116   3.078   9.616   3.771 -0.1061 -0.4014 -0.0018
  861MOL0     N16117   2.951   9.669   3.723  0.2270 -0.3923  0.1684
  861MOL0     C16118   2.915   9.794   3.748 -0.2418 -0.9837 -0.5812
  861MOL0     C16119   2.788   9.797   3.707  0.4416  0.0463 -0.0651
  861MOL0     C16120   2.705   9.926   3.725 -0.2119  0.2296 -0.3239
  861MOL0     C16121   2.561   9.895   3.766 -0.6774  0.4074 -0.3966
  861MOL0     C16122   2.468   9.856   3.652 -0.9500  0.8621 -0.1069
  861MOL0     C16123   2.322   9.846   3.689 -0.5313  0.2048  0.5524
  861MOL0     O16124   2.297   9.748   3.788  0.2889  0.7331  0.5060
  861MOL0     C16125   2.174   9.738   3.851 -0.1720  0.2277 -1.1913
  861MOL0     C16126   2.148   9.647   3.958  0.1444  0.6109  0.4123
  861MOL0     C16127   2.028   9.630   4.026 -0.1694 -0.9445 -0.1955
  861MOL0     C16128   2.011   9.506   4.107  0.2511  0.5755  0.1161
  861MOL0     C16129   1.926   9.723   4.005 -0.6381 -0.5563  0.7614
  861MOL0     C16130   1.789   9.725   4.070 -0.3743  0.0105 -0.4814
  861MOL0     O16131   1.717   9.836   4.033  0.0637 -0.0356 -0.8835
  861MOL0     C16132   1.592   9.841   4.099 -1.1311 -0.7781 -0.2967
  861MOL0     C16133   1.568   9.936   4.198  0.4900 -0.6480  0.0177
  861MOL0     C16134   1.446   9.923   4.272  0.2238 -0.2295 -0.5295
  861MOL0     C16135   1.341   9.834   4.249  0.2816  0.0573  0.5564
  861MOL0     O16136   1.228   9.839   4.334  0.8043  0.7544  0.2175
  861MOL0     C16137   1.100   9.790   4.289  0.1098  0.3982  0.1212
  861MOL0     C16138   1.021   9.726   4.397 -0.2607  0.4186  0.2189
  861MOL0     C16139   0.878   9.702   4.369 -0.1590  0.2009 -0.7160
  861MOL0     C16140   0.851   9.616   4.250  0.7068  0.6154  0.2609
  861MOL0     C16141   0.710   9.611   4.196  0.4536  0.7719 -0.3709
  861MOL0     C16142   0.612   9.540   4.287 -0.5572  0.0345 -0.9608
  861MOL0     C16143   0.480   9.514   4.214  0.4367 -0.9045  0.1231
  861MOL0     C16144   0.480   9.379   4.141 -0.1046 -0.9017 -0.8815
  861MOL0    Cl16145   0.316   9.339   4.061  0.1992 -0.1608  0.4818
  861MOL0     C16146   1.368   9.744   4.147  0.1269  0.8508 -0.5014
  861MOL0     C16147   1.486   9.752   4.067 -0.1450 -0.8614  0.6552
  861MOL0     O16148   1.760   9.637   4.151  0.4057 -0.2579 -0.5727
  861MOL0     C16149   1.951   9.824   3.907 -0.0100  0.0534 -0.4222
  861MOL0     C16150   2.065   9.834   3.829 -0.2120 -0.3562 -0.2573
  861MOL0     N16151   2.752   9.679   3.645  1.2667  1.0504 -0.4157
  861MOL0     N16152   2.852   9.598   3.665 -0.0114 -0.2777 -0.2592
  861MOL0     C16153   3.900   9.447   3.726  0.0730 -0.2329 -0.6963
  861MOL0     C16154   4.014   9.387   3.774 -0.1545 -0.1263  0.6318
  861MOL0     C16155   4.417   9.170   3.666 -0.5381  0.6324 -0.7603
  861MOL0     C16156   4.375   9.061   3.745 -0.5725 -0.8498 -0.4377
  861MOL0     C16157   4.461   8.954   3.752  0.4132  0.1475 -0.3348
  861MOL0     C16158   4.581   8.944   3.684 -0.9852  0.1455 -0.2440
  861MOL0     O16159   4.646   8.823   3.683  0.0707  0.5175 -1.0737
  861MOL0     C16160   4.791   8.825   3.663 -0.4108 -0.0363 -0.4311
  861MOL0     C16161   4.850   8.692   3.697  0.3309 -0.3556  0.2558
  861MOL0     C16162   4.805   8.575   3.603  0.8854 -0.5732 -0.1991
  861MOL0     C16163   4.799   8.443   3.675 -0.5959 -0.0475 -1.1007
  861MOL0     C16164   4.925   8.392   3.724  0.5771  0.2006 -0.0311
  861MOL0     C16165   5.041   8.360   3.744 -0.9775 -0.3160 -0.5070
  861MOL0     C16166   4.621   9.050   3.607 -0.0700  1.4071 -0.3304
  861MOL0     C16167   4.540   9.162   3.596  0.7146  0.2592 -0.5696
  861MOL0     H16168   4.143   9.293   3.477 -2.3358 -1.4659  0.1232
  861MOL0     H16169   3.945   9.389   3.390 -0.2039 -0.7967 -0.0473
  861MOL0     H16170   3.649   9.488   3.368 -3.5984  0.9208  0.8167
  861MOL0     H16171   3.714   9.335   3.422 -0.7001 -0.1109 -1.1945
  861MOL0     H16172   3.480   9.313   3.455 -0.3921 -0.2658  0.7097
  861MOL0     H16173   3.529   9.356   3.620 -0.5331  2.1390  0.6314
  861MOL0     H16174   3.468   9.567   3.611  3.7795 -0.5635 -1.4016
  861MOL0     H16175   3.469   9.576   3.434  0.1561  0.2896 -1.1321
  861MOL0     H16176   3.273   9.399   3.452  3.0386 -2.3572 -0.2587
  861MOL0     H16177   3.255   9.442   3.615 -1.3659  2.5999 -0.4078
  861MOL0     H16178   3.222   9.636   3.389  0.2629  1.4238 -0.5311
  861MOL0     H16179   3.096   9.570   3.500  0.5510 -0.5348  1.9312
  861MOL0     H16180   3.300   9.786   3.563  2.0409 -1.4782  2.4505
  861MOL0     H16181   3.126   9.786   3.568  0.9941 -0.7968 -0.8899
  861MOL0     H16182   3.284   9.622   3.765 -0.1586  0.3770  0.7028
  861MOL0     H16183   3.204   9.774   3.805  0.3880 -2.0939  3.0138
  861MOL0     H16184   3.078   9.612   3.880  0.4532 -0.9983 -0.0137
  861MOL0     H16185   3.083   9.512   3.738  1.4925 -1.0629  2.0732
  861MOL0     H16186   2.972   9.868   3.803  2.4053 -2.4156 -1.2661
  861MOL0     H16187   2.742   9.981   3.812 -1.6015 -1.4159  1.3851
  861MOL0     H16188   2.692  10.000   3.646 -0.7930  0.4575 -0.0237
  861MOL0     H16189   2.518   9.977   3.824 -2.8739 -1.1147  0.2750
  861MOL0     H16190   2.568   9.809   3.834 -0.0301  0.8407  0.1044
  861MOL0     H16191   2.507   9.763   3.610  1.5086  2.3312 -1.2848
  861MOL0     H16192   2.483   9.922   3.566  3.2095  0.5303  0.1558
  861MOL0     H16193   2.260   9.820   3.603 -0.6416  1.8940  0.0943
  861MOL0     H16194   2.288   9.944   3.722 -1.5824  0.3680 -0.8838
  861MOL0     H16195   2.233   9.583   3.978  0.6231  1.8118  2.4260
  861MOL0     H16196   1.937   9.439   4.063 -0.9127  0.8153  1.6381
  861MOL0     H16197   2.107   9.454   4.121  1.0809  1.4764 -1.7621
  861MOL0     H16198   1.979   9.531   4.208  0.3424 -1.3046  0.6454
  861MOL0     H16199   1.645  10.002   4.238 -0.0368 -0.8110  1.3498
  861MOL0     H16200   1.423  10.002   4.343 -0.1865  2.7893 -3.7644
  861MOL0     H16201   1.051   9.866   4.227  0.1085 -1.7955 -2.7529
  861MOL0     H16202   1.123   9.708   4.221  0.1503  4.3537 -5.2071
  861MOL0     H16203   1.068   9.629   4.416 -0.2961  0.5238  0.8846
  861MOL0     H16204   1.022   9.782   4.491 -1.3263 -1.1101  1.1849
  861MOL0     H16205   0.837   9.803   4.355  0.4680  0.5403 -0.1209
  861MOL0     H16206   0.824   9.666   4.456  1.3272 -2.1770 -0.7065
  861MOL0     H16207   0.927   9.636   4.173 -1.4364 -2.2877 -2.8717
  861MOL0     H16208   0.871   9.513   4.280  0.6007  0.8858  1.3036
  861MOL0     H16209   0.709   9.550   4.105  1.0889  1.2432 -0.7102
  861MOL0     H16210   0.679   9.712   4.165 -0.4701  0.9168  0.9578
  861MOL0     H16211   0.648   9.443   4.321 -1.5665 -0.7263 -1.9668
  861MOL0     H16212   0.603   9.599   4.379 -0.3493  1.0294 -1.5591
  861MOL0     H16213   0.454   9.594   4.144  0.1454 -0.2874  0.9163
  861MOL0     H16214   0.398   9.517   4.286  1.0815 -0.7420  0.8621
  861MOL0     H16215   0.501   9.311   4.223  3.8738 -0.3999 -1.3019
  861MOL0     H16216   0.567   9.376   4.075  2.1573  1.1471  1.7888
  861MOL0     H16217   1.290   9.677   4.112  0.0998  0.3213  0.5376
  861MOL0     H16218   1.499   9.692   3.978  1.3601  1.3388 -0.7074
  861MOL0     H16219   1.867   9.888   3.880  0.2126 -0.3389 -2.1211
  861MOL0     H16220   2.078   9.918   3.762 -1.2988 -1.1285 -1.4968
  861MOL0     H16221   3.818   9.470   3.794  0.1702  0.3457 -0.7726
  861MOL0     H16222   4.021   9.351   3.876 -2.4756  2.0654  1.6707
  861MOL0     H16223   4.288   9.070   3.809 -0.0964  0.4338  0.0561
  861MOL0     H16224   4.450   8.870   3.819 -0.0130 -1.0913 -1.8911
  861MOL0     H16225   4.832   8.846   3.563  1.0742  0.7098  0.3019
  861MOL0     H16226   4.830   8.897   3.735  1.3383 -0.6422 -0.7218
  861MOL0     H16227   4.838   8.672   3.804  1.2013 -1.1853  0.2132
  861MOL0     H16228   4.959   8.700   3.688  0.5670 -3.1784 -0.4191
  861MOL0     H16229   4.878   8.563   3.522  0.1002  1.4964 -1.2994
  861MOL0     H16230   4.704   8.587   3.564  0.0949 -2.6349  1.0609
  861MOL0     H16231   4.758   8.369   3.606 -1.3068  3.1420 -4.4167
  861MOL0     H16232   4.738   8.461   3.764  1.5686  1.5445  0.1652
  861MOL0     H16233   5.146   8.344   3.740 -0.8224  0.5990 -5.0912
  861MOL0     H16234   4.712   9.027   3.551  0.8025 -1.9164  2.1643
  861MOL0     H16235   4.575   9.237   3.526  1.7958  0.6837  0.3808
  862MOL0     O16236   9.371   5.105   7.434 -0.3291 -0.1190  0.9878
  862MOL0     C16237   9.476   5.059   7.393  0.5364  0.1377  0.2747
  862MOL0     O16238   9.495   5.002   7.265 -0.2636  0.2389 -0.5817
  862MOL0     C16239   9.409   5.030   7.165 -0.4114  0.0617 -0.3475
  862MOL0     C16240   9.372   4.917   7.093  0.4449  0.3408 -0.2325
  862MOL0     C16241   9.296   4.940   6.978  0.8638 -0.2160 -0.9708
  862MOL0     C16242   9.254   5.070   6.934  0.0047  0.0749 -0.4837
  862MOL0     O16243   9.174   5.069   6.822  0.5011  0.3540 -0.9170
  862MOL0     C16244   9.136   5.195   6.774  0.2536  0.2210  0.1315
  862MOL0     C16245   9.000   5.179   6.701 -0.9987 -1.2299  0.0410
  862MOL0     C16246   8.890   5.167   6.795  0.3093  0.1334 -0.8444
  862MOL0     C16247   8.764   5.166   6.713 -0.3958  0.9457  0.0442
  862MOL0     C16248   8.721   5.025   6.672 -0.3226  0.8033 -0.2648
  862MOL0     C16249   8.590   5.017   6.594 -0.0923  0.1150 -1.0121
  862MOL0     C16250   8.553   4.873   6.571 -0.4109 -0.1911  0.9047
  862MOL0     C16251   8.433   4.853   6.480 -0.6984 -0.5207 -0.5406
  862MOL0     N16252   8.311   4.892   6.558 -0.1306  0.0708 -0.1146
  862MOL0     C16253   8.249   4.814   6.649  0.5296 -0.3128  0.0676
  862MOL0     C16254   8.141   4.888   6.688 -0.1677 -0.2587  0.2409
  862MOL0     C16255   8.042   4.851   6.795 -0.1547 -0.1596 -0.0779
  862MOL0     C16256   7.916   4.946   6.806 -0.7856 -0.1177 -0.2959
  862MOL0     C16257   7.817   4.904   6.697  0.3240  0.3513  0.1423
  862MOL0     C16258   7.673   4.950   6.728  0.9894  0.2487  0.6659
  862MOL0     O16259   7.589   4.916   6.607  0.5781 -0.1488 -0.2623
  862MOL0     C16260   7.456   4.929   6.610  0.9932  0.0923 -0.8178
  862MOL0     C16261   7.382   4.946   6.726  0.6389 -0.7076 -0.4298
  862MOL0     C16262   7.240   4.952   6.723  0.0511 -0.3110  0.0406
  862MOL0     C16263   7.169   4.986   6.846  0.2238  1.5382 -0.4298
  862MOL0     C16264   7.177   4.948   6.593  0.6029 -0.0119  0.1897
  862MOL0     C16265   7.027   4.964   6.574  0.2256  0.2470 -0.0099
  862MOL0     O16266   6.989   4.997   6.450  0.2141  0.2313 -0.2282
  862MOL0     C16267   6.858   4.977   6.415 -1.2007  0.6212 -0.1789
  862MOL0     C16268   6.814   4.848   6.419  0.1881 -0.2678 -0.2726
  862MOL0     C16269   6.683   4.817   6.378 -0.5125 -0.1305  0.0274
  862MOL0     C16270   6.607   4.916   6.321  0.5612  0.4755  0.6203
  862MOL0     O16271   6.492   4.864   6.270 -0.1879 -0.1241  0.1141
  862MOL0     C16272   6.368   4.934   6.292  0.7294 -0.4010  0.2147
  862MOL0     C16273   6.245   4.865   6.227  0.0905 -0.1254  0.3302
  862MOL0     C16274   6.202   4.737   6.296 -0.8424 -0.0616 -0.3504
  862MOL0     C16275   6.152   4.764   6.444 -0.0135  0.4487  0.0199
  862MOL0     C16276   6.172   4.629   6.520  0.6988 -0.5147 -0.1010
  862MOL0     C16277   6.314   4.646   6.595 -0.1355  0.3406  0.2579
  862MOL0     C16278   6.326   4.543   6.706  0.1730  0.8806  0.7736
  862MOL0     C16279   6.465   4.545   6.756  0.2016  0.5827 -0.3236
  862MOL0    Cl16280   6.504   4.700   6.839  0.1124  0.0958 -0.2830
  862MOL0     C16281   6.655   5.048   6.306  0.1358  0.1987 -0.8584
  862MOL0     C16282   6.781   5.075   6.357 -0.2059 -0.7156  0.4943
  862MOL0     O16283   6.954   4.932   6.668 -0.3063  0.1790  0.1763
  862MOL0     C16284   7.251   4.938   6.476 -0.5192  0.2428  0.1886
  862MOL0     C16285   7.388   4.921   6.487  0.1436  0.5938 -0.3855
  862MOL0     N16286   8.129   4.990   6.596 -0.7232 -0.4912  0.5970
  862MOL0     N16287   8.236   4.994   6.528 -0.5050 -0.0686  0.7638
  862MOL0     C16288   9.289   5.173   7.020 -0.1076 -0.7632  0.6417
  862MOL0     C16289   9.367   5.155   7.133 -0.0652 -0.4977  0.2378
  862MOL0     C16290   9.586   5.039   7.491  0.3434  0.4153  0.6763
  862MOL0     C16291   9.580   5.090   7.616  0.0371 -0.2254 -0.8432
  862MOL0     C16292   9.689   5.062   7.705  0.4980 -0.1408  0.3164
  862MOL0     C16293   9.806   4.999   7.658 -0.2591 -0.2962 -0.4090
  862MOL0     O16294   9.911   4.996   7.747 -0.4429 -0.1522 -0.2084
  862MOL0     C16295   9.927   4.867   7.815  0.0618 -0.4209 -0.1089
  862MOL0     C16296   9.992   4.888   7.944 -0.4340  0.4708  0.0830
  862MOL0     C16297  10.141   4.925   7.943  0.2458  0.7163  0.2002
  862MOL0     C16298  10.222   4.796   7.922  0.4286  0.3020  0.3449
  862MOL0     C16299  10.369   4.829   7.961  0.2990  0.5360 -0.1224
  862MOL0     C16300  10.471   4.879   8.009 -0.1217  0.1649 -0.1924
  862MOL0     C16301   9.815   4.956   7.528 -0.5871  0.4717 -0.7465
  862MOL0     C16302   9.706   4.979   7.443  0.1040 -0.0271 -0.8654
  862MOL0     H16303   9.405   4.820   7.129  2.3693  1.2767  0.7060
  862MOL0     H16304   9.267   4.849   6.926 -1.0038  1.0394 -2.2565
  862MOL0     H16305   9.124   5.272   6.852  1.3831  1.5092 -0.9182
  862MOL0     H16306   9.210   5.233   6.703 -0.6445 -0.9738 -1.5181
  862MOL0     H16307   8.990   5.269   6.641 -0.1756 -0.9419  0.3237
  862MOL0     H16308   9.005   5.099   6.626  2.6667 -0.9712 -0.1986
  862MOL0     H16309   8.908   5.078   6.856 -0.7231  1.8147  2.1454
  862MOL0     H16310   8.888   5.254   6.862 -0.5621 -0.6772  0.2256
  862MOL0     H16311   8.681   5.206   6.770 -1.3088  0.5591 -0.9814
  862MOL0     H16312   8.772   5.223   6.620 -0.7818  3.3680  1.4196
  862MOL0     H16313   8.795   4.977   6.607 -1.3485 -0.1164 -0.7919
  862MOL0     H16314   8.700   4.977   6.768 -0.3043  0.3924 -0.4629
  862MOL0     H16315   8.511   5.075   6.643  0.9533  2.0851 -1.5547
  862MOL0     H16316   8.612   5.075   6.504  0.7846 -0.5977 -1.2697
  862MOL0     H16317   8.639   4.829   6.519  0.8405  2.8208  0.1665
  862MOL0     H16318   8.549   4.825   6.670 -0.3322  1.7420  1.8923
  862MOL0     H16319   8.431   4.754   6.432 -1.3419 -1.7096  1.8174
  862MOL0     H16320   8.455   4.926   6.401  2.3244 -0.7797 -0.0339
  862MOL0     H16321   8.277   4.718   6.691 -0.3120 -0.5589  0.0793
  862MOL0     H16322   8.020   4.744   6.789  0.2974 -0.2605 -0.0373
  862MOL0     H16323   8.101   4.859   6.887 -0.3510  3.9115 -0.1313
  862MOL0     H16324   7.935   5.052   6.790 -0.1382 -0.4852 -2.2348
  862MOL0     H16325   7.882   4.916   6.906 -1.7924 -2.0317 -1.1519
  862MOL0     H16326   7.822   4.797   6.678  0.4635  0.7619 -2.5291
  862MOL0     H16327   7.850   4.957   6.607 -1.6380 -1.2154 -1.6221
  862MOL0     H16328   7.673   5.056   6.756  1.7031  0.5052 -0.2621
  862MOL0     H16329   7.645   4.897   6.819  0.1268 -0.8891 -0.2155
  862MOL0     H16330   7.417   4.952   6.829 -0.5166 -1.2258  0.0134
  862MOL0     H16331   7.237   5.000   6.931  0.0061 -0.1001  0.0477
  862MOL0     H16332   7.100   5.071   6.836 -1.0186  0.7837  1.2231
  862MOL0     H16333   7.103   4.901   6.865 -2.0165  2.7825 -2.0577
  862MOL0     H16334   6.875   4.768   6.457  2.1091  2.7232  3.6240
  862MOL0     H16335   6.634   4.720   6.380 -1.3868  0.2796  2.9412
  862MOL0     H16336   6.358   4.955   6.399 -0.3344  2.3511 -0.3273
  862MOL0     H16337   6.387   5.032   6.245  0.7602  0.6409  2.2859
  862MOL0     H16338   6.163   4.936   6.222  1.3049  1.3192  0.1892
  862MOL0     H16339   6.277   4.842   6.125 -1.2563 -0.2572 -0.0804
  862MOL0     H16340   6.284   4.665   6.290 -1.2449 -0.4749 -0.9507
  862MOL0     H16341   6.113   4.683   6.263 -0.9275 -0.2310  0.1474
  862MOL0     H16342   6.206   4.845   6.494 -0.4535  1.3435 -0.9148
  862MOL0     H16343   6.047   4.793   6.447 -0.6188 -1.1460 -2.4857
  862MOL0     H16344   6.175   4.540   6.457  2.2726  0.9857 -2.3035
  862MOL0     H16345   6.096   4.619   6.597  1.9819 -0.8623  1.1582
  862MOL0     H16346   6.398   4.639   6.526 -1.7605  0.3612 -1.8447
  862MOL0     H16347   6.324   4.747   6.637  1.2452  0.0220  0.7354
  862MOL0     H16348   6.304   4.443   6.666 -0.0047  2.0092 -2.1570
  862MOL0     H16349   6.257   4.558   6.790  2.5003 -0.4357  3.0523
  862MOL0     H16350   6.545   4.516   6.689  2.8032 -0.4888  2.9635
  862MOL0     H16351   6.478   4.467   6.833  0.3876 -0.6551 -1.5711
  862MOL0     H16352   6.595   5.125   6.259  1.4042  1.4983 -0.3929
  862MOL0     H16353   6.801   5.182   6.360 -3.0034  0.0819 -3.0629
  862MOL0     H16354   7.207   4.949   6.378 -0.1837  2.3282  0.2130
  862MOL0     H16355   7.447   4.895   6.400 -2.4104 -4.2142 -1.0323
  862MOL0     H16356   9.260   5.277   7.008 -0.7095 -1.1043 -1.3682
  862MOL0     H16357   9.400   5.232   7.202 -0.2363  0.6501 -0.9283
  862MOL0     H16358   9.486   5.138   7.642  0.4144 -0.3397  0.8118
  862MOL0     H16359   9.691   5.095   7.809  2.4282 -2.1125  0.9851
  862MOL0     H16360   9.825   4.831   7.832 -0.8396  1.0461 -1.9173
  862MOL0     H16361   9.982   4.804   7.745  0.6671 -0.5473  0.4698
  862MOL0     H16362   9.977   4.796   8.000  0.7129 -0.8507 -1.7077
  862MOL0     H16363   9.949   4.977   7.992  4.2465  2.2662  1.4909
  862MOL0     H16364  10.175   4.976   8.033  3.8151  1.8726 -1.6143
  862MOL0     H16365  10.164   4.990   7.858 -0.9167  1.2377  0.2650
  862MOL0     H16366  10.222   4.769   7.816 -0.2904  2.0916 -0.1349
  862MOL0     H16367  10.186   4.710   7.979  1.3485 -0.8146 -0.6626
  862MOL0     H16368  10.555   4.921   8.061 -2.3494  4.1085  0.6293
  862MOL0     H16369   9.905   4.900   7.506 -0.9781 -0.7557  0.6163
  862MOL0     H16370   9.714   4.943   7.341 -0.3579 -2.8050 -0.0315
  863MOL0     O16371  10.854   9.836   7.060 -0.3728 -0.7135 -0.0300
  863MOL0     C16372  10.867   9.948   7.110 -0.4528 -0.4487 -0.1592
  863MOL0     O16373  10.779  10.005   7.194  0.1904  0.0834  0.4048
  863MOL0     C16374  10.659   9.950   7.230  0.6287  0.4749 -0.5492
  863MOL0     C16375  10.620   9.973   7.358 -0.8394 -0.4845  0.1513
  863MOL0     C16376  10.514   9.900   7.415  0.6806  0.5690 -0.9081
  863MOL0     C16377  10.440   9.819   7.336  0.1501  0.9432 -0.0010
  863MOL0     O16378  10.331   9.762   7.397  0.0240  0.7700  0.9999
  863MOL0     C16379  10.214   9.749   7.314 -1.3042 -0.9102 -0.3421
  863MOL0     C16380  10.096   9.704   7.402 -0.2443 -0.6551 -0.0948
  863MOL0     C16381   9.984   9.680   7.299  1.3600  0.6080  0.1329
  863MOL0     C16382   9.848   9.712   7.364 -0.1073  0.0925  1.0964
  863MOL0     C16383   9.735   9.657   7.272  0.3086  0.2201 -0.4427
  863MOL0     C16384   9.713   9.499   7.281  0.4679  0.6373  0.0161
  863MOL0     C16385   9.792   9.424   7.170  0.1486  0.2398 -0.5898
  863MOL0     C16386   9.697   9.341   7.088  0.2025 -0.9365 -0.0357
  863MOL0     N16387   9.680   9.199   7.141  0.5605  0.0665 -0.5777
  863MOL0     C16388   9.612   9.161   7.253 -0.6082 -0.4083 -0.1147
  863MOL0     C16389   9.579   9.032   7.240  0.6444  0.0304  0.0749
  863MOL0     C16390   9.507   8.940   7.335  0.4517  1.1974 -0.9122
  863MOL0     C16391   9.382   9.000   7.398 -0.6600  0.4238  1.2555
  863MOL0     C16392   9.311   8.909   7.494 -0.1526  0.0173 -0.5331
  863MOL0     C16393   9.197   8.965   7.567 -0.2836 -0.8330 -0.0531
  863MOL0     O16394   9.096   8.870   7.601  0.1298  0.8609 -0.6654
  863MOL0     C16395   9.003   8.904   7.693 -0.7749 -0.1433 -0.3312
  863MOL0     C16396   8.932   8.804   7.758  0.0752  0.5461  0.2866
  863MOL0     C16397   8.836   8.826   7.856  0.1009  0.8534 -0.0683
  863MOL0     C16398   8.792   8.701   7.918  0.3706 -0.6141 -0.3125
  863MOL0     C16399   8.798   8.958   7.894 -0.1409 -0.2458  0.0489
  863MOL0     C16400   8.683   8.991   7.986  0.2247 -1.1123 -0.0013
  863MOL0     O16401   8.668   9.126   7.990  0.3108 -0.3560 -0.5725
  863MOL0     C16402   8.550   9.179   8.052  0.1910 -0.0174  0.0013
  863MOL0     C16403   8.422   9.116   8.058 -0.6748 -0.3238  0.7878
  863MOL0     C16404   8.320   9.154   8.139 -0.5157 -0.4123  0.1218
  863MOL0     C16405   8.333   9.278   8.217  0.0339  0.8086 -0.8262
  863MOL0     O16406   8.241   9.331   8.302 -0.0037  0.0529  0.3051
  863MOL0     C16407   8.116   9.266   8.317 -0.3758  0.4105 -0.2664
  863MOL0     C16408   8.008   9.308   8.218 -0.1493 -0.4674 -0.0608
  863MOL0     C16409   7.883   9.211   8.191 -0.0470 -0.4826 -0.4781
  863MOL0     C16410   7.854   9.182   8.044  0.3087 -0.1139 -0.0860
  863MOL0     C16411   7.725   9.088   8.024 -0.3530  0.9987 -0.7037
  863MOL0     C16412   7.676   9.110   7.885  0.5839  0.5126 -1.1057
  863MOL0     C16413   7.572   9.003   7.848  0.2036 -0.3755 -0.2144
  863MOL0     C16414   7.543   9.020   7.694  0.0227 -0.6548 -0.0178
  863MOL0    Cl16415   7.674   8.954   7.594  0.1821  0.0896 -0.7250
  863MOL0     C16416   8.457   9.345   8.201  0.8934  0.2438  0.4620
  863MOL0     C16417   8.559   9.298   8.122 -0.0580  1.0944 -0.5597
  863MOL0     O16418   8.620   8.907   8.037  0.1255 -0.4603  0.2080
  863MOL0     C16419   8.856   9.058   7.812 -0.6059 -0.3855 -0.0686
  863MOL0     C16420   8.964   9.033   7.722  0.4366 -0.1317 -0.1902
  863MOL0     N16421   9.632   8.990   7.122  0.1182 -0.7596  0.1153
  863MOL0     N16422   9.700   9.082   7.072 -0.0035 -0.8756 -0.0622
  863MOL0     C16423  10.476   9.788   7.205 -1.1678  0.5999  0.1141
  863MOL0     C16424  10.586   9.854   7.150  0.3203 -0.5834  0.4368
  863MOL0     C16425  11.002  10.010   7.108  0.4369 -0.6498  0.8128
  863MOL0     C16426  11.012  10.130   7.175 -0.5039 -0.4627 -0.3501
  863MOL0     C16427  11.138  10.194   7.191  0.8019 -0.2130 -0.6817
  863MOL0     C16428  11.251  10.145   7.122  0.1654 -0.7718 -0.1668
  863MOL0     O16429  11.369  10.209   7.154 -0.3370 -0.1246  0.1989
  863MOL0     C16430  11.486  10.172   7.079 -0.4623 -0.3191 -0.3227
  863MOL0     C16431  11.607  10.245   7.135 -0.2486  0.8589 -0.8216
  863MOL0     C16432  11.659  10.349   7.036  0.4056 -0.1307  0.1397
  863MOL0     C16433  11.729  10.286   6.909  0.2567  0.1591 -0.1765
  863MOL0     C16434  11.861  10.240   6.949 -0.6567  0.0804  0.0830
  863MOL0     C16435  11.980  10.216   6.970  0.1878  0.1115 -0.2882
  863MOL0     C16436  11.236  10.036   7.038 -0.3058 -0.2281  0.1908
  863MOL0     C16437  11.113   9.967   7.031 -0.9771 -0.3638  0.5287
  863MOL0     H16438  10.687  10.047   7.401  0.2452  0.2547 -2.6218
  863MOL0     H16439  10.483   9.920   7.517  1.1018  2.3824 -1.1167
  863MOL0     H16440  10.200   9.842   7.259  2.2434 -0.6682 -1.0943
  863MOL0     H16441  10.235   9.673   7.238  2.6672 -1.8753  1.4623
  863MOL0     H16442  10.116   9.617   7.466 -1.2861  1.6041  3.5696
  863MOL0     H16443  10.082   9.787   7.471  0.6266  0.3040 -1.0380
  863MOL0     H16444   9.987   9.729   7.201  0.3213  0.5527  0.0657
  863MOL0     H16445   9.987   9.575   7.269  1.9800  1.1091 -1.6933
  863MOL0     H16446   9.849   9.665   7.463  0.2084 -1.6129  0.3174
  863MOL0     H16447   9.843   9.820   7.373 -0.1043  0.1284  0.6980
  863MOL0     H16448   9.645   9.707   7.307 -1.5311 -1.6598 -2.2008
  863MOL0     H16449   9.761   9.678   7.168  0.9063  1.1903 -0.1113
  863MOL0     H16450   9.754   9.456   7.373  1.4634  1.4714 -0.0219
  863MOL0     H16451   9.605   9.481   7.279  0.8908 -2.9170  1.2088
  863MOL0     H16452   9.830   9.495   7.096  1.5642  1.1860  0.9920
  863MOL0     H16453   9.867   9.358   7.215  0.8273  2.0194  0.9880
  863MOL0     H16454   9.741   9.340   6.987 -1.1509 -0.4681 -0.6562
  863MOL0     H16455   9.603   9.392   7.067  1.6090  1.0281 -2.0290
  863MOL0     H16456   9.578   9.218   7.339  0.1000 -0.6616  0.3383
  863MOL0     H16457   9.482   8.845   7.287  0.8637 -1.3820  3.4538
  863MOL0     H16458   9.563   8.923   7.428 -0.8852  0.8622 -0.1383
  863MOL0     H16459   9.311   9.017   7.317  0.0863  0.2183  0.5400
  863MOL0     H16460   9.400   9.098   7.443 -3.2989  0.5028  2.3385
  863MOL0     H16461   9.389   8.880   7.565  1.0554 -0.6521 -2.0896
  863MOL0     H16462   9.271   8.820   7.444 -1.4680  2.1840 -3.5825
  863MOL0     H16463   9.151   9.040   7.501 -1.0051 -0.5442  0.7541
  863MOL0     H16464   9.243   8.998   7.660  0.8656 -2.2726 -0.0826
  863MOL0     H16465   8.951   8.704   7.720  0.2594  1.0433 -0.9734
  863MOL0     H16466   8.743   8.711   8.016 -2.9917  1.3816 -1.9838
  863MOL0     H16467   8.713   8.658   7.855 -1.5195  2.1736 -0.0433
  863MOL0     H16468   8.865   8.623   7.939  0.4447 -0.6935 -0.8549
  863MOL0     H16469   8.414   9.022   8.004 -2.6201 -0.1916  0.7849
  863MOL0     H16470   8.235   9.087   8.152 -0.6161 -0.3873 -0.4142
  863MOL0     H16471   8.132   9.160   8.295 -0.2136 -0.0739  1.9385
  863MOL0     H16472   8.071   9.272   8.416  1.4466  0.3132  0.6172
  863MOL0     H16473   7.968   9.404   8.251  3.8373  0.9407  1.2875
  863MOL0     H16474   8.057   9.325   8.121  0.8147 -1.9317  0.1297
  863MOL0     H16475   7.802   9.273   8.230  1.7345  1.3129  0.5946
  863MOL0     H16476   7.894   9.119   8.249 -2.1824  0.2940  1.2673
  863MOL0     H16477   7.837   9.271   7.983  0.1738 -1.9263 -2.8447
  863MOL0     H16478   7.942   9.134   8.000  0.3600 -2.2890  2.1596
  863MOL0     H16479   7.643   9.103   8.094 -1.5124  0.3940 -1.8710
  863MOL0     H16480   7.756   8.984   8.036  0.4368  1.4192  1.1586
  863MOL0     H16481   7.620   9.204   7.874 -0.7216 -0.2795 -1.4844
  863MOL0     H16482   7.764   9.110   7.821  1.6989  1.3685  0.3759
  863MOL0     H16483   7.479   9.013   7.905  0.8703  0.2773  0.7942
  863MOL0     H16484   7.612   8.903   7.864 -0.5281 -0.5945  0.3177
  863MOL0     H16485   7.527   9.126   7.671 -0.5644 -0.6908  0.2113
  863MOL0     H16486   7.448   8.975   7.663 -1.2383  0.7757  1.5022
  863MOL0     H16487   8.470   9.450   8.228  2.7476  0.7676 -2.0578
  863MOL0     H16488   8.651   9.354   8.110  1.4766 -1.1986  0.0058
  863MOL0     H16489   8.840   9.166   7.812  4.3055  0.6180  1.3513
  863MOL0     H16490   9.011   9.115   7.667 -0.6419  2.6468  2.7463
  863MOL0     H16491  10.412   9.726   7.144  1.0836 -3.1664  1.2444
  863MOL0     H16492  10.615   9.843   7.046  2.2103 -0.9037  0.9603
  863MOL0     H16493  10.933  10.169   7.239  1.2395  2.7417  0.0953
  863MOL0     H16494  11.138  10.268   7.271  0.2407 -0.6159 -0.2960
  863MOL0     H16495  11.488  10.066   7.105 -2.0284  0.4373  3.7309
  863MOL0     H16496  11.465  10.195   6.975 -2.7108  1.6471  0.4720
  863MOL0     H16497  11.691  10.178   7.155 -0.2415  0.3938 -2.2239
  863MOL0     H16498  11.582  10.298   7.227 -1.9921  1.3028 -1.5028
  863MOL0     H16499  11.726  10.406   7.102 -1.6392 -0.4723  2.6497
  863MOL0     H16500  11.590  10.423   6.996  2.4063  1.6674 -0.1864
  863MOL0     H16501  11.724  10.365   6.833  1.0903  0.4786  0.0858
  863MOL0     H16502  11.671  10.202   6.870  1.2578 -1.8551  2.3899
  863MOL0     H16503  12.086  10.204   6.982  0.0670 -0.4256  0.3281
  863MOL0     H16504  11.317  10.013   6.971  0.4048  0.4467  0.8009
  863MOL0     H16505  11.094   9.881   6.968  1.4375 -0.0393 -0.7705
  864MOL0     O16506   3.460   1.941   3.774  0.0705  0.0967 -0.0135
  864MOL0     C16507   3.537   1.956   3.867 -0.2827 -0.1196  0.9080
  864MOL0     O16508   3.517   1.917   4.001 -0.4483 -0.3498 -0.3180
  864MOL0     C16509   3.406   1.853   4.045  0.5201  0.0653 -0.3261
  864MOL0     C16510   3.355   1.897   4.162  0.6855  0.5658 -0.8343
  864MOL0     C16511   3.240   1.843   4.212  0.1130 -0.1005 -0.1425
  864MOL0     C16512   3.167   1.748   4.137 -1.0552 -0.4970  0.0806
  864MOL0     O16513   3.057   1.684   4.171  1.3135 -0.1206  0.0122
  864MOL0     C16514   2.965   1.745   4.268  0.0667  0.2180  1.6603
  864MOL0     C16515   2.827   1.678   4.266 -0.2856  0.4944  1.1995
  864MOL0     C16516   2.755   1.679   4.129 -0.0132  0.7895 -0.0540
  864MOL0     C16517   2.598   1.694   4.134 -0.3205  0.0328  0.0111
  864MOL0     C16518   2.522   1.580   4.203 -0.4470  0.6580 -0.3617
  864MOL0     C16519   2.538   1.441   4.137 -0.0415 -0.4923  0.0284
  864MOL0     C16520   2.505   1.431   3.987  0.1736  0.3047 -0.4959
  864MOL0     C16521   2.366   1.383   3.963 -0.2465 -0.3561  0.5993
  864MOL0     N16522   2.255   1.476   4.003 -0.5585  0.0587 -0.7269
  864MOL0     C16523   2.213   1.594   3.938 -0.8460 -0.5140  0.1380
  864MOL0     C16524   2.105   1.638   4.002  0.1613  0.2130 -0.6343
  864MOL0     C16525   2.021   1.753   3.953 -0.5063  0.8703  0.6019
  864MOL0     C16526   1.897   1.805   4.032 -0.3738 -0.1625  0.4442
  864MOL0     C16527   1.784   1.712   4.049 -0.1597  0.8859 -0.0285
  864MOL0     C16528   1.656   1.787   4.101  0.2582  0.0852  0.3989
  864MOL0     O16529   1.547   1.697   4.090  0.9075  0.7779  0.0872
  864MOL0     C16530   1.420   1.751   4.096  0.3216 -0.3724  0.2693
  864MOL0     C16531   1.383   1.879   4.144  0.1913 -0.0402  0.3188
  864MOL0     C16532   1.248   1.920   4.156  0.0440  0.1615  0.3507
  864MOL0     C16533   1.225   2.061   4.198 -0.4443 -0.6429  0.3151
  864MOL0     C16534   1.146   1.827   4.121 -0.0356  0.0600 -0.0494
  864MOL0     C16535   0.996   1.844   4.155 -0.0326 -0.9980 -0.9524
  864MOL0     O16536   0.917   1.739   4.131  0.2072 -0.0103 -0.8283
  864MOL0     C16537   0.782   1.747   4.131  1.0093 -0.3046 -1.0889
  864MOL0     C16538   0.712   1.629   4.159 -0.3406  0.2866  0.4732
  864MOL0     C16539   0.576   1.616   4.121 -0.1383  0.4151  0.2390
  864MOL0     C16540   0.496   1.720   4.079  0.3577 -0.4357 -0.4605
  864MOL0     O16541   0.369   1.705   4.029  0.4456  0.1327 -0.3091
  864MOL0     C16542   0.272   1.686   4.134 -0.1069  0.5625  0.2626
  864MOL0     C16543   0.259   1.814   4.218  0.4154  0.4219 -0.5529
  864MOL0     C16544   0.222   1.938   4.138  0.4936 -0.3890 -0.7410
  864MOL0     C16545   0.069   1.965   4.151  0.5030  0.5231 -0.9336
  864MOL0     C16546   0.032   2.120   4.112 -0.1675 -0.4424 -0.2203
  864MOL0     C16547  -0.124   2.138   4.117 -0.5260  0.3620  0.6382
  864MOL0     C16548  -0.170   2.282   4.116  0.1591  0.4162 -0.4185
  864MOL0     C16549  -0.312   2.307   4.167 -0.0459 -0.2376  0.7746
  864MOL0    Cl16550  -0.425   2.200   4.079  0.5257  0.2657 -0.4025
  864MOL0     C16551   0.556   1.841   4.083  1.1523  0.3028  0.1857
  864MOL0     C16552   0.694   1.853   4.100 -0.1424 -0.0264  0.3678
  864MOL0     O16553   0.959   1.958   4.192 -0.8631  0.7043 -0.6569
  864MOL0     C16554   1.179   1.696   4.078  0.3440 -0.6273 -0.3871
  864MOL0     C16555   1.317   1.660   4.063 -0.2980 -0.3792 -0.1748
  864MOL0     N16556   2.088   1.565   4.119  0.0179  1.0498 -0.4614
  864MOL0     N16557   2.182   1.476   4.123 -0.5675  0.5838 -0.3295
  864MOL0     C16558   3.235   1.686   4.028  0.8858 -0.3486  0.2750
  864MOL0     C16559   3.352   1.736   3.979  0.0756 -0.8375  0.1171
  864MOL0     C16560   3.670   2.012   3.826  0.5901 -0.3527 -0.6825
  864MOL0     C16561   3.774   1.989   3.915 -0.4348  0.5551  0.4572
  864MOL0     C16562   3.898   2.033   3.866 -0.7857 -0.1427 -0.4290
  864MOL0     C16563   3.922   2.082   3.733 -0.3009 -0.4103 -0.7032
  864MOL0     O16564   4.051   2.108   3.712 -0.0675 -0.5434 -0.5014
  864MOL0     C16565   4.084   2.179   3.591 -0.2999 -0.1592 -0.2214
  864MOL0     C16566   4.202   2.271   3.617  0.7781 -0.3902 -0.4056
  864MOL0     C16567   4.318   2.190   3.663 -0.0026 -0.4795 -0.3068
  864MOL0     C16568   4.452   2.269   3.659 -0.5860  0.1230  0.4855
  864MOL0     C16569   4.554   2.234   3.753 -0.4896 -0.6713 -0.1093
  864MOL0     C16570   4.640   2.198   3.830  0.0857  0.4608 -0.4482
  864MOL0     C16571   3.814   2.100   3.649 -0.4439 -0.7646  0.6161
  864MOL0     C16572   3.687   2.065   3.699 -0.8045  0.3867  0.7438
  864MOL0     H16573   3.410   1.974   4.215  1.9833 -2.4844  2.6966
  864MOL0     H16574   3.202   1.883   4.305  3.0710  1.9253  0.3259
  864MOL0     H16575   3.009   1.746   4.368 -0.2569 -2.3284  1.8884
  864MOL0     H16576   2.940   1.848   4.242 -0.4134  1.0075  4.8389
  864MOL0     H16577   2.850   1.574   4.291 -1.5670  0.1384  0.9801
  864MOL0     H16578   2.761   1.720   4.343 -1.5678 -1.4964  1.2483
  864MOL0     H16579   2.794   1.760   4.066  0.8991 -0.5933 -1.3258
  864MOL0     H16580   2.774   1.588   4.071  2.3400 -0.0724  1.9203
  864MOL0     H16581   2.571   1.792   4.175  0.2011 -0.3144  1.2111
  864MOL0     H16582   2.563   1.697   4.030 -0.3061  2.3147  0.0116
  864MOL0     H16583   2.558   1.576   4.307  0.4711  1.7861 -0.5996
  864MOL0     H16584   2.415   1.598   4.218 -0.1415  1.2134  1.5166
  864MOL0     H16585   2.644   1.412   4.135 -0.2154 -1.1034 -1.4871
  864MOL0     H16586   2.476   1.367   4.189 -0.6799 -0.3609 -0.5381
  864MOL0     H16587   2.518   1.531   3.944 -1.4427  1.2198  0.9903
  864MOL0     H16588   2.587   1.379   3.938  0.8816  3.0631 -2.4911
  864MOL0     H16589   2.361   1.281   4.001  0.5990 -1.4682 -2.0168
  864MOL0     H16590   2.350   1.375   3.855 -1.6218 -0.3755  0.7835
  864MOL0     H16591   2.253   1.636   3.845 -1.9349 -2.5223 -1.2994
  864MOL0     H16592   2.091   1.835   3.939  1.3739 -0.3990  2.0426
  864MOL0     H16593   1.983   1.721   3.855  0.6737 -2.0486  0.9844
  864MOL0     H16594   1.847   1.888   3.982  0.6429  1.2755  1.7186
  864MOL0     H16595   1.928   1.845   4.129  1.3577  3.7999 -1.4831
  864MOL0     H16596   1.813   1.636   4.121  1.8040  1.2224 -0.4247
  864MOL0     H16597   1.758   1.669   3.952  1.3119  0.2301 -0.1542
  864MOL0     H16598   1.637   1.876   4.041 -1.1141  0.5007  1.3803
  864MOL0     H16599   1.673   1.818   4.205 -0.7646  0.9689  0.3224
  864MOL0     H16600   1.459   1.954   4.161 -0.2051  0.5830 -0.5560
  864MOL0     H16601   1.159   2.121   4.136 -0.4791 -0.0474  0.9172
  864MOL0     H16602   1.186   2.056   4.300  0.7880 -1.6013  0.7624
  864MOL0     H16603   1.321   2.113   4.196 -0.2188 -1.0086  1.1030
  864MOL0     H16604   0.773   1.555   4.210  1.0046  2.8785  2.8989
  864MOL0     H16605   0.531   1.519   4.142  3.1079 -1.0535  1.0571
  864MOL0     H16606   0.174   1.659   4.093 -0.2872  0.2107  0.9162
  864MOL0     H16607   0.304   1.604   4.199 -1.5974  0.3419  0.7553
  864MOL0     H16608   0.198   1.790   4.306  1.6712 -0.6743  0.0434
  864MOL0     H16609   0.354   1.826   4.270  0.7236 -3.9334  0.2621
  864MOL0     H16610   0.262   1.951   4.037  0.8399  0.3611 -0.5172
  864MOL0     H16611   0.275   2.021   4.187 -1.4787  1.4194 -1.5271
  864MOL0     H16612   0.010   1.899   4.087  0.6626 -1.5366  0.9362
  864MOL0     H16613   0.030   1.940   4.250 -0.1322 -1.0427 -1.5415
  864MOL0     H16614   0.068   2.150   4.014  0.9321  1.0270  0.5873
  864MOL0     H16615   0.085   2.186   4.182  0.1586 -2.1822  1.2556
  864MOL0     H16616  -0.164   2.087   4.029 -0.5000  0.2546  0.6886
  864MOL0     H16617  -0.157   2.076   4.201 -0.1371 -0.2494  0.3478
  864MOL0     H16618  -0.181   2.317   4.013  1.3976  0.4229 -0.5724
  864MOL0     H16619  -0.100   2.343   4.174 -0.4382  0.4636  0.2700
  864MOL0     H16620  -0.337   2.412   4.152  3.9263  0.9098  0.9864
  864MOL0     H16621  -0.316   2.275   4.272 -0.9067 -6.1782 -0.6897
  864MOL0     H16622   0.503   1.933   4.062  0.3025  0.0727  1.2804
  864MOL0     H16623   0.734   1.952   4.081 -0.3918 -0.1083 -0.6316
  864MOL0     H16624   1.103   1.623   4.052 -0.5451  0.2917 -0.4014
  864MOL0     H16625   1.331   1.557   4.032 -0.6835  0.0453 -1.8696
  864MOL0     H16626   3.191   1.597   3.984 -1.8644  0.7913  0.5202
  864MOL0     H16627   3.403   1.693   3.893  0.0206 -0.1082 -0.2890
  864MOL0     H16628   3.760   1.961   4.019  1.4363  0.8659  0.8421
  864MOL0     H16629   3.981   2.022   3.935 -0.2449  3.0166 -0.4161
  864MOL0     H16630   4.115   2.107   3.514 -2.0540 -1.4632  0.2366
  864MOL0     H16631   4.004   2.235   3.543  1.6254  0.6685 -2.7105
  864MOL0     H16632   4.180   2.349   3.690  4.9943  2.4052 -1.7922
  864MOL0     H16633   4.236   2.313   3.522 -2.7656  0.7472 -1.3551
  864MOL0     H16634   4.317   2.096   3.607 -2.6518 -0.8794  0.3016
  864MOL0     H16635   4.300   2.167   3.768 -1.4657 -1.3594 -0.7195
  864MOL0     H16636   4.436   2.377   3.674  1.6845  0.5501  0.1826
  864MOL0     H16637   4.503   2.261   3.563  2.9474 -0.0483  2.2063
  864MOL0     H16638   4.721   2.169   3.894  0.1025  0.7611 -0.3317
  864MOL0     H16639   3.817   2.144   3.550  0.6259 -0.2703  0.8563
  864MOL0     H16640   3.605   2.076   3.629 -0.7064 -2.2551  0.1204
  865MOL0     O16641   1.619   4.369   4.059  0.3712 -0.1278  0.1738
  865MOL0     C16642   1.621   4.327   3.944 -0.1968 -0.6207 -0.1349
  865MOL0     O16643   1.515   4.273   3.882 -0.2638  0.0940  0.2953
  865MOL0     C16644   1.396   4.240   3.944  0.2468 -0.9886  0.7290
  865MOL0     C16645   1.351   4.262   4.080  0.6503  0.1068  0.2179
  865MOL0     C16646   1.227   4.204   4.111  0.9324 -0.0363 -0.0570
  865MOL0     C16647   1.139   4.145   4.020  0.0699  0.5506  0.1431
  865MOL0     O16648   1.019   4.112   4.062  0.8484  0.6055 -0.6624
  865MOL0     C16649   0.911   4.095   3.966 -0.2149  0.9073  0.3631
  865MOL0     C16650   0.796   4.029   4.047 -0.1258  0.2389  0.3355
  865MOL0     C16651   0.737   4.128   4.155 -0.7833  0.3593  0.1666
  865MOL0     C16652   0.618   4.079   4.238  0.0043  0.1693  1.3160
  865MOL0     C16653   0.496   4.163   4.206 -0.7973 -0.8409 -0.3426
  865MOL0     C16654   0.368   4.129   4.294  0.3796 -0.0635 -0.1420
  865MOL0     C16655   0.394   4.146   4.441 -0.2788 -0.4326 -0.5868
  865MOL0     C16656   0.270   4.137   4.533 -0.0168  0.1702  0.0932
  865MOL0     N16657   0.198   4.271   4.540 -0.9886  0.3367  0.3365
  865MOL0     C16658   0.219   4.365   4.641 -0.0359 -0.4284 -0.7181
  865MOL0     C16659   0.134   4.466   4.620 -0.2123  0.7497  0.0710
  865MOL0     C16660   0.120   4.595   4.696 -1.4140  0.2006 -0.2398
  865MOL0     C16661  -0.016   4.611   4.752 -0.2339 -0.4580  0.0237
  865MOL0     C16662  -0.121   4.672   4.662  0.4595 -0.0909 -0.3581
  865MOL0     C16663  -0.257   4.720   4.721 -0.9222 -0.2618  0.6111
  865MOL0     O16664  -0.343   4.620   4.763  0.0098  0.2489 -0.1915
  865MOL0     C16665  -0.475   4.650   4.781  0.1168  0.4485  0.1337
  865MOL0     C16666  -0.536   4.777   4.760 -0.7734 -0.3073  0.2366
  865MOL0     C16667  -0.677   4.794   4.786 -0.3001  0.2754  0.5808
  865MOL0     C16668  -0.736   4.934   4.755 -0.1988  1.4312 -0.3930
  865MOL0     C16669  -0.762   4.683   4.831 -0.4935 -0.2912  0.0886
  865MOL0     C16670  -0.895   4.698   4.871 -0.0568 -1.0900  0.1389
  865MOL0     O16671  -0.987   4.625   4.812 -0.4305  0.2446  0.0498
  865MOL0     C16672  -1.119   4.632   4.844  0.2672 -0.6253 -0.4179
  865MOL0     C16673  -1.182   4.760   4.856 -0.1592  0.2878 -0.7317
  865MOL0     C16674  -1.312   4.775   4.881 -0.2465  0.2161 -0.0201
  865MOL0     C16675  -1.395   4.666   4.905  0.9783 -1.1403  1.5781
  865MOL0     O16676  -1.519   4.697   4.932 -0.4365 -0.4271  0.2391
  865MOL0     C16677  -1.612   4.594   4.965 -0.6217 -1.2093 -0.2625
  865MOL0     C16678  -1.728   4.667   5.032 -0.3031  1.1995  0.5910
  865MOL0     C16679  -1.830   4.564   5.070  0.2347  1.3379 -0.6023
  865MOL0     C16680  -1.947   4.616   5.160  0.6196 -0.5572 -0.0970
  865MOL0     C16681  -2.071   4.532   5.156 -0.1310  0.0673  0.2495
  865MOL0     C16682  -2.182   4.599   5.234 -0.1449  0.3977 -0.2281
  865MOL0     C16683  -2.307   4.506   5.208 -0.4987  0.0726  0.0831
  865MOL0     C16684  -2.427   4.565   5.261 -0.0341 -0.0187  0.8512
  865MOL0    Cl16685  -2.572   4.495   5.170  0.6927  0.7604  0.2547
  865MOL0     C16686  -1.332   4.535   4.896 -0.3798 -0.6284  0.3308
  865MOL0     C16687  -1.199   4.516   4.862 -0.6553 -0.3416  0.2236
  865MOL0     O16688  -0.905   4.765   4.980  0.5151 -0.4011  0.2687
  865MOL0     C16689  -0.689   4.563   4.852 -0.2125 -0.4561 -0.0214
  865MOL0     C16690  -0.555   4.545   4.831 -0.6864  0.1332  1.1102
  865MOL0     N16691   0.042   4.419   4.533 -0.5503 -0.0197  0.3330
  865MOL0     N16692   0.080   4.304   4.484  0.2826  0.3677  0.0507
  865MOL0     C16693   1.169   4.156   3.885  0.0597  0.1303  0.0501
  865MOL0     C16694   1.298   4.188   3.852 -0.7547 -0.4348 -0.4892
  865MOL0     C16695   1.736   4.348   3.861  0.7919 -0.9539 -0.4479
  865MOL0     C16696   1.728   4.330   3.726  0.0474  0.0401  0.5938
  865MOL0     C16697   1.838   4.373   3.644  0.0205 -0.1168  1.6520
  865MOL0     C16698   1.950   4.440   3.684  0.1118  0.4012 -0.0378
  865MOL0     O16699   2.044   4.467   3.583 -0.2000  0.1317  0.4646
  865MOL0     C16700   2.176   4.502   3.630 -0.4957  0.1375 -0.5440
  865MOL0     C16701   2.260   4.521   3.516  0.2114 -0.0493  0.0456
  865MOL0     C16702   2.413   4.536   3.554 -0.0403  0.0448 -0.0344
  865MOL0     C16703   2.496   4.581   3.432 -0.3882  0.2470 -0.3263
  865MOL0     C16704   2.642   4.560   3.458  0.9079 -0.3002  0.3977
  865MOL0     C16705   2.756   4.536   3.473  0.7590  0.0087 -0.0046
  865MOL0     C16706   1.959   4.457   3.826 -0.2157 -0.2447  0.5045
  865MOL0     C16707   1.850   4.413   3.912  0.5349  0.0526 -0.2300
  865MOL0     H16708   1.404   4.316   4.158  0.5549  0.8453 -0.2153
  865MOL0     H16709   1.179   4.221   4.207  0.0078 -4.3375  0.4039
  865MOL0     H16710   0.868   4.187   3.925 -1.3715  0.2653  0.0963
  865MOL0     H16711   0.925   4.028   3.881 -0.5308  0.5565  0.5800
  865MOL0     H16712   0.712   4.004   3.981 -1.4305  1.9729  1.2680
  865MOL0     H16713   0.827   3.940   4.104 -2.3832 -0.0396  1.2301
  865MOL0     H16714   0.820   4.142   4.225  1.4832 -0.0283 -2.2877
  865MOL0     H16715   0.718   4.227   4.111  0.1974  1.4701  2.0763
  865MOL0     H16716   0.586   3.975   4.226 -0.3294  0.3382  0.6950
  865MOL0     H16717   0.640   4.091   4.345  4.7697 -1.1241  0.6963
  865MOL0     H16718   0.525   4.263   4.240  0.4332 -2.2664  3.3724
  865MOL0     H16719   0.477   4.164   4.099 -1.8494  2.7001 -0.2492
  865MOL0     H16720   0.284   4.195   4.270  0.3007  1.3787  3.5007
  865MOL0     H16721   0.327   4.030   4.271 -1.4319  0.0025  2.3403
  865MOL0     H16722   0.464   4.066   4.470  0.7878  1.1014  1.2829
  865MOL0     H16723   0.449   4.239   4.453 -3.3289  1.6223 -1.5576
  865MOL0     H16724   0.299   4.100   4.632 -0.1424 -1.9870 -0.6405
  865MOL0     H16725   0.204   4.064   4.487  2.7970 -2.0958 -0.6445
  865MOL0     H16726   0.303   4.373   4.710 -1.9482  1.8655  1.5775
  865MOL0     H16727   0.184   4.603   4.784 -4.2288 -0.0281  1.9499
  865MOL0     H16728   0.140   4.674   4.623 -1.8327  1.9506  1.4486
  865MOL0     H16729  -0.010   4.675   4.841 -2.4287 -0.3117  0.1208
  865MOL0     H16730  -0.055   4.516   4.790 -0.3394 -1.0028 -1.3957
  865MOL0     H16731  -0.136   4.600   4.581  4.4648 -0.9096 -0.6072
  865MOL0     H16732  -0.072   4.763   4.628 -2.1296  0.5925 -2.5513
  865MOL0     H16733  -0.308   4.775   4.642 -0.2625  0.6397  0.7950
  865MOL0     H16734  -0.233   4.794   4.798  0.7424  0.9268 -0.9794
  865MOL0     H16735  -0.479   4.864   4.730  0.3182  0.2337  3.4469
  865MOL0     H16736  -0.734   4.993   4.847 -1.3329  1.0280 -0.0955
  865MOL0     H16737  -0.673   4.985   4.681  1.0691 -1.8006 -1.7470
  865MOL0     H16738  -0.830   4.923   4.700  0.6445 -3.4839 -1.3596
  865MOL0     H16739  -1.127   4.854   4.852 -1.1451  1.0607  1.7298
  865MOL0     H16740  -1.354   4.876   4.881  0.5939  0.5866  0.7911
  865MOL0     H16741  -1.635   4.545   4.870  1.3900 -0.0087 -1.4563
  865MOL0     H16742  -1.571   4.522   5.037 -1.5696  0.1571  1.7514
  865MOL0     H16743  -1.693   4.712   5.125 -0.1086  1.1426  0.5448
  865MOL0     H16744  -1.764   4.747   4.966 -1.1582  2.9766  3.0549
  865MOL0     H16745  -1.786   4.480   5.124  1.6699  2.2244 -0.3509
  865MOL0     H16746  -1.872   4.523   4.978  0.8437 -1.1464  0.1524
  865MOL0     H16747  -1.908   4.615   5.262  1.2659  1.8504 -0.2652
  865MOL0     H16748  -1.972   4.721   5.143  2.6531 -0.2678 -1.7061
  865MOL0     H16749  -2.056   4.430   5.193 -1.2209  0.0276  0.6221
  865MOL0     H16750  -2.105   4.526   5.052 -2.6745 -1.0356  1.0710
  865MOL0     H16751  -2.150   4.601   5.338  0.3317 -0.8019 -0.3453
  865MOL0     H16752  -2.208   4.698   5.196 -0.8631  0.1732 -0.3478
  865MOL0     H16753  -2.291   4.407   5.252 -0.2078  0.4258  0.7887
  865MOL0     H16754  -2.320   4.498   5.100  1.5651 -0.1789 -0.1832
  865MOL0     H16755  -2.433   4.671   5.233 -0.8186  0.1041  1.4578
  865MOL0     H16756  -2.438   4.570   5.370  0.0251  0.9886  0.8239
  865MOL0     H16757  -1.402   4.452   4.888  1.6206 -2.1901 -3.2872
  865MOL0     H16758  -1.163   4.414   4.848 -2.4377 -0.8628 -0.7945
  865MOL0     H16759  -0.742   4.475   4.886  0.0509 -0.8840 -0.7097
  865MOL0     H16760  -0.511   4.452   4.864  0.8127 -0.1521 -1.4100
  865MOL0     H16761   1.109   4.137   3.797 -0.7710  1.4081  0.3192
  865MOL0     H16762   1.330   4.198   3.749  2.9053  1.6191  0.6826
  865MOL0     H16763   1.647   4.278   3.676  1.3579 -0.0305 -1.5774
  865MOL0     H16764   1.842   4.357   3.537  2.0128  1.2846  1.4674
  865MOL0     H16765   2.180   4.589   3.696  3.1907  1.5226 -2.3219
  865MOL0     H16766   2.222   4.416   3.680 -0.7402  0.5374  0.3694
  865MOL0     H16767   2.238   4.614   3.462  0.2393  0.3477  0.7086
  865MOL0     H16768   2.247   4.442   3.441  0.7478  1.2629 -1.5007
  865MOL0     H16769   2.442   4.439   3.596 -2.0835  0.1868  1.9201
  865MOL0     H16770   2.444   4.606   3.632  1.7900 -0.3900 -0.3111
  865MOL0     H16771   2.479   4.688   3.420 -0.3030  0.3203  0.1857
  865MOL0     H16772   2.474   4.530   3.337  1.0375 -1.4341  0.1861
  865MOL0     H16773   2.860   4.518   3.493  0.0262 -1.0296  3.7999
  865MOL0     H16774   2.051   4.494   3.870 -0.6178  3.4418 -1.3636
  865MOL0     H16775   1.865   4.424   4.019  2.4004 -1.1531 -0.3128
  866MOL0     O16776   0.203   2.698  10.663 -0.1048  0.1860  0.1145
  866MOL0     C16777   0.249   2.813  10.646  0.1168 -0.7657 -0.1382
  866MOL0     O16778   0.176   2.925  10.596 -0.1295  0.0132 -0.0775
  866MOL0     C16779   0.035   2.902  10.599  0.1903  0.0744  0.7870
  866MOL0     C16780  -0.042   2.981  10.693  0.7286  0.1516  0.0997
  866MOL0     C16781  -0.187   2.980  10.685 -0.8446  0.0862  0.6109
  866MOL0     C16782  -0.253   2.904  10.585 -0.6476 -0.5224  0.3182
  866MOL0     O16783  -0.392   2.893  10.582  0.5761  0.3950  1.1641
  866MOL0     C16784  -0.455   2.878  10.713  0.0435 -0.2094 -0.4026
  866MOL0     C16785  -0.601   2.894  10.701 -0.5288 -0.1116  0.3523
  866MOL0     C16786  -0.665   2.785  10.612  0.0460 -0.8219  0.9652
  866MOL0     C16787  -0.793   2.738  10.672 -0.4846  0.2740  0.3520
  866MOL0     C16788  -0.909   2.828  10.634 -0.5569 -0.1137 -0.1075
  866MOL0     C16789  -1.042   2.781  10.693 -0.6899 -0.1309 -0.0315
  866MOL0     C16790  -1.149   2.886  10.672 -1.5155 -0.0901  0.1269
  866MOL0     C16791  -1.277   2.856  10.749  0.3889  0.3509  0.0175
  866MOL0     N16792  -1.247   2.897  10.890 -0.0544  0.6804 -0.3812
  866MOL0     C16793  -1.240   3.029  10.932  0.1538 -0.6231  0.1412
  866MOL0     C16794  -1.198   3.018  11.058  0.9170  0.1421 -0.6393
  866MOL0     C16795  -1.163   3.119  11.161 -0.2913  0.0079  0.5871
  866MOL0     C16796  -1.017   3.172  11.137 -0.1509  0.0158  0.4546
  866MOL0     C16797  -0.915   3.057  11.145 -0.3122  1.2070 -0.5507
  866MOL0     C16798  -0.768   3.095  11.149  0.6845 -0.0389  0.2209
  866MOL0     O16799  -0.733   3.167  11.030 -0.5681  0.4369 -0.3839
  866MOL0     C16800  -0.602   3.216  11.022  0.8084  0.7562 -0.4044
  866MOL0     C16801  -0.558   3.267  10.901 -0.2224  0.0548 -0.4690
  866MOL0     C16802  -0.430   3.315  10.876  0.7431 -0.8161  0.6152
  866MOL0     C16803  -0.395   3.364  10.737 -0.0742 -0.7178  0.5967
  866MOL0     C16804  -0.329   3.302  10.976  0.5422 -1.0474 -0.1719
  866MOL0     C16805  -0.184   3.344  10.957  0.0776 -0.4290 -0.0734
  866MOL0     O16806  -0.151   3.428  10.850  0.2938 -0.2718 -0.2764
  866MOL0     C16807  -0.026   3.483  10.825 -0.3977 -0.8299  1.0228
  866MOL0     C16808  -0.023   3.595  10.744  0.4271 -0.4550  0.6917
  866MOL0     C16809   0.100   3.651  10.708 -0.5961 -0.2100  0.3101
  866MOL0     C16810   0.223   3.604  10.761  0.0881  0.4620 -0.0017
  866MOL0     O16811   0.340   3.661  10.729 -0.6728 -0.1977 -0.4632
  866MOL0     C16812   0.332   3.802  10.747  0.0565  0.5387 -0.4779
  866MOL0     C16813   0.448   3.849  10.843  0.4294 -0.2556  0.1540
  866MOL0     C16814   0.582   3.800  10.824  0.4428 -0.2034  0.6883
  866MOL0     C16815   0.637   3.832  10.684 -0.0749 -0.0234 -1.0128
  866MOL0     C16816   0.789   3.806  10.704  0.0131 -0.3257  0.6835
  866MOL0     C16817   0.850   3.807  10.570 -0.5591  0.0853  0.3672
  866MOL0     C16818   0.996   3.742  10.577 -0.6844 -0.0534 -0.6365
  866MOL0     C16819   1.100   3.786  10.478  0.0481  0.0217 -0.1021
  866MOL0    Cl16820   1.248   3.696  10.533 -0.1948  0.1054  0.3610
  866MOL0     C16821   0.221   3.486  10.821  0.4326  0.2711 -0.6667
  866MOL0     C16822   0.100   3.427  10.858 -0.3133 -0.0329 -0.0513
  866MOL0     O16823  -0.106   3.303  11.035 -0.8549  0.1160 -0.3786
  866MOL0     C16824  -0.366   3.246  11.096  0.0352  0.6148 -0.1270
  866MOL0     C16825  -0.502   3.210  11.119  0.0966  0.0772 -0.0398
  866MOL0     N16826  -1.191   2.882  11.095 -0.0033  0.0315  0.3848
  866MOL0     N16827  -1.218   2.805  10.989 -0.0636  0.4987  0.0176
  866MOL0     C16828  -0.170   2.841  10.494  0.1114 -0.2685 -0.1053
  866MOL0     C16829  -0.030   2.837  10.499 -0.0028  0.2803  0.5668
  866MOL0     C16830   0.393   2.825  10.656  0.8024 -0.5789  0.5219
  866MOL0     C16831   0.454   2.948  10.623  1.5468  0.0710  0.2805
  866MOL0     C16832   0.594   2.966  10.621 -0.3600 -0.1884  0.5838
  866MOL0     C16833   0.677   2.864  10.650  0.9601  0.1335  0.4770
  866MOL0     O16834   0.815   2.876  10.638  0.0426 -0.2860  0.0730
  866MOL0     C16835   0.896   2.773  10.700  1.7300 -0.8590 -0.0763
  866MOL0     C16836   1.049   2.796  10.673  0.1507 -0.2352 -0.5231
  866MOL0     C16837   1.154   2.694  10.728  0.4244 -0.2403  0.0250
  866MOL0     C16838   1.297   2.727  10.687  0.4682  0.7241  0.1275
  866MOL0     C16839   1.299   2.749  10.541 -0.4358 -0.1668  0.9460
  866MOL0     C16840   1.295   2.774  10.421  0.3547  0.4694 -0.1888
  866MOL0     C16841   0.614   2.743  10.700 -0.2344  0.8261  0.2775
  866MOL0     C16842   0.473   2.723  10.698 -0.0705  0.1107 -0.7475
  866MOL0     H16843   0.010   3.035  10.770 -0.0464  1.8499 -0.5302
  866MOL0     H16844  -0.246   3.039  10.754 -0.8603 -0.6761  1.2639
  866MOL0     H16845  -0.417   2.783  10.751 -0.5241  0.0279  0.8009
  866MOL0     H16846  -0.421   2.957  10.780 -0.6173  1.4206 -1.9011
  866MOL0     H16847  -0.651   2.895  10.798  2.2116 -1.3982  1.9008
  866MOL0     H16848  -0.613   2.993  10.655  1.2175 -0.6880 -1.4884
  866MOL0     H16849  -0.685   2.834  10.517 -1.3914 -0.7116  1.2906
  866MOL0     H16850  -0.587   2.709  10.608  1.0473  0.2403 -1.3426
  866MOL0     H16851  -0.817   2.646  10.618  2.0292  0.3883 -1.1064
  866MOL0     H16852  -0.782   2.717  10.779  1.9838 -2.2719 -0.2857
  866MOL0     H16853  -0.882   2.927  10.672  0.9731 -0.5994  0.1148
  866MOL0     H16854  -0.920   2.834  10.525 -1.1619 -1.4036 -0.1377
  866MOL0     H16855  -1.085   2.688  10.656  1.5012 -0.8118 -1.0710
  866MOL0     H16856  -1.031   2.770  10.801 -0.9307  0.5633  0.0671
  866MOL0     H16857  -1.113   2.983  10.709  1.9304 -1.7394  1.5428
  866MOL0     H16858  -1.166   2.891  10.564 -0.3048 -0.3209 -0.0952
  866MOL0     H16859  -1.308   2.751  10.741  0.9035  0.2233 -0.4016
  866MOL0     H16860  -1.359   2.915  10.708 -0.0755  1.0050  1.7964
  866MOL0     H16861  -1.251   3.119  10.874 -0.7411  1.0089  2.6835
  866MOL0     H16862  -1.243   3.193  11.152  0.2963  0.5580 -0.2261
  866MOL0     H16863  -1.180   3.078  11.261  0.8542  0.3606  0.9428
  866MOL0     H16864  -0.996   3.246  11.214  1.9601 -0.8980  0.8221
  866MOL0     H16865  -1.006   3.224  11.042  2.5581 -0.1247  0.6289
  866MOL0     H16866  -0.935   2.989  11.062 -0.9315 -2.2073  2.1541
  866MOL0     H16867  -0.947   2.999  11.232  0.6113  0.0143 -0.9776
  866MOL0     H16868  -0.718   2.997  11.153  0.3124 -0.2088  0.8163
  866MOL0     H16869  -0.759   3.150  11.243 -0.4281  1.0084 -0.2654
  866MOL0     H16870  -0.642   3.263  10.832 -1.8876  0.0978  1.4603
  866MOL0     H16871  -0.482   3.368  10.671 -0.3073 -0.4171  0.9231
  866MOL0     H16872  -0.342   3.459  10.737 -1.5100  0.1586  2.7508
  866MOL0     H16873  -0.328   3.292  10.689 -1.1356 -2.5589  1.7071
  866MOL0     H16874  -0.107   3.653  10.707  2.3089  1.8581 -0.2666
  866MOL0     H16875   0.114   3.732  10.637  1.2364 -1.8330 -1.3058
  866MOL0     H16876   0.343   3.849  10.650 -1.2518  0.6861 -0.5812
  866MOL0     H16877   0.241   3.840  10.796  0.1756 -0.8163  0.8748
  866MOL0     H16878   0.455   3.956  10.861  0.5226 -0.4376  1.3088
  866MOL0     H16879   0.422   3.819  10.945 -1.2522  0.9401  0.1198
  866MOL0     H16880   0.583   3.691  10.836 -4.6106 -0.5923 -0.0143
  866MOL0     H16881   0.635   3.850  10.906 -0.3756  0.7195  0.6721
  866MOL0     H16882   0.594   3.765  10.610 -0.2956  0.0088 -0.9127
  866MOL0     H16883   0.628   3.936  10.652 -2.2089 -0.2991 -1.4317
  866MOL0     H16884   0.808   3.712  10.757 -2.1411 -0.5075  1.2344
  866MOL0     H16885   0.834   3.889  10.759  0.6712 -0.2295  0.0052
  866MOL0     H16886   0.794   3.744  10.500 -1.2950  1.7820 -0.6298
  866MOL0     H16887   0.864   3.904  10.523 -1.2548  1.2921  2.5279
  866MOL0     H16888   0.983   3.634  10.569 -4.7991  0.0877  1.6515
  866MOL0     H16889   1.032   3.761  10.679  0.4052  2.3615 -1.3694
  866MOL0     H16890   1.115   3.894  10.477 -1.6733  0.2832 -0.8788
  866MOL0     H16891   1.070   3.752  10.378 -1.1719  0.4161  0.1117
  866MOL0     H16892   0.322   3.449  10.833  1.2516  2.2912 -0.9461
  866MOL0     H16893   0.114   3.338  10.919  1.9623  0.6361  0.5026
  866MOL0     H16894  -0.306   3.222  11.184 -0.2516 -1.9294 -0.5333
  866MOL0     H16895  -0.519   3.185  11.223  2.5660  1.0818  0.6693
  866MOL0     H16896  -0.215   2.784  10.414  0.4892 -1.1262  0.2853
  866MOL0     H16897   0.018   2.802  10.408 -1.9350  2.2338 -1.3435
  866MOL0     H16898   0.403   3.037  10.586  3.4198  1.1460  0.1828
  866MOL0     H16899   0.648   3.056  10.594  1.7787 -1.2603  1.1301
  866MOL0     H16900   0.874   2.777  10.808 -0.8877  1.3970 -0.5942
  866MOL0     H16901   0.883   2.672  10.661  3.5419 -1.9170  1.7874
  866MOL0     H16902   1.070   2.889  10.727  1.7430 -2.2609  2.6653
  866MOL0     H16903   1.061   2.816  10.567 -1.2422  1.3390 -0.4237
  866MOL0     H16904   1.134   2.592  10.693  2.1118 -0.5858 -0.0096
  866MOL0     H16905   1.155   2.689  10.837 -1.8658 -0.3985  0.0862
  866MOL0     H16906   1.364   2.645  10.715  3.1606  2.2898 -1.2769
  866MOL0     H16907   1.336   2.812  10.743 -1.6923 -0.3394  3.5228
  866MOL0     H16908   1.285   2.784  10.315  1.1349 -1.2352 -0.4445
  866MOL0     H16909   0.678   2.658  10.724  0.6309  1.6297  0.8754
  866MOL0     H16910   0.428   2.627  10.721  0.4292  0.3198  1.2136
  867MOL0     O16911   7.254   0.434   8.156 -0.4323  0.0185 -0.0704
  867MOL0     C16912   7.279   0.315   8.158 -0.0594 -0.2582 -0.4555
  867MOL0     O16913   7.189   0.217   8.117  0.0679 -0.9939  0.0511
  867MOL0     C16914   7.068   0.258   8.060 -0.3480  0.3104  0.3509
  867MOL0     C16915   6.966   0.162   8.074 -0.1815  0.0804  1.0344
  867MOL0     C16916   6.844   0.192   8.018  0.1432 -0.7182  0.1506
  867MOL0     C16917   6.820   0.304   7.933  0.2194  0.0226  0.1765
  867MOL0     O16918   6.703   0.324   7.863  0.0721  0.2499 -0.3557
  867MOL0     C16919   6.590   0.343   7.955 -0.7529  0.3531 -0.9797
  867MOL0     C16920   6.475   0.402   7.871 -0.3309 -0.2816 -0.7609
  867MOL0     C16921   6.420   0.309   7.759 -0.3289  0.2236 -0.0814
  867MOL0     C16922   6.261   0.315   7.737 -0.6450 -0.4248  0.2148
  867MOL0     C16923   6.217   0.443   7.668  0.0767 -0.5453 -1.0236
  867MOL0     C16924   6.278   0.459   7.528  0.0630  0.0006  0.3775
  867MOL0     C16925   6.188   0.552   7.428 -0.2916 -0.0040 -0.9079
  867MOL0     C16926   6.049   0.513   7.390  0.2061  0.0286  0.1391
  867MOL0     N16927   6.036   0.383   7.318  0.5240  0.1030  0.3067
  867MOL0     C16928   6.025   0.263   7.389  0.6905 -0.1010 -0.9006
  867MOL0     C16929   6.055   0.160   7.300  0.2873 -0.5294 -0.2253
  867MOL0     C16930   6.044   0.006   7.317 -0.8239 -1.2678 -0.0947
  867MOL0     C16931   5.926  -0.032   7.408  0.5111  0.1879  1.1585
  867MOL0     C16932   5.882  -0.175   7.406  0.0804  0.1462 -0.0557
  867MOL0     C16933   5.978  -0.264   7.470  0.0970 -0.0826 -0.2003
  867MOL0     O16934   5.965  -0.234   7.610  0.2733 -0.9420 -0.1332
  867MOL0     C16935   6.079  -0.220   7.696 -0.2956  0.5780  0.4518
  867MOL0     C16936   6.211  -0.246   7.663  0.4412  0.2234 -0.6710
  867MOL0     C16937   6.323  -0.223   7.754  0.3531  0.3695 -0.6494
  867MOL0     C16938   6.456  -0.260   7.719 -0.0401 -0.0940  0.3409
  867MOL0     C16939   6.283  -0.172   7.883 -0.0450  0.2496  0.8256
  867MOL0     C16940   6.386  -0.145   7.990 -0.5076  0.9361  0.4751
  867MOL0     O16941   6.506  -0.210   7.986  0.1440  0.1351  0.2713
  867MOL0     C16942   6.604  -0.183   8.082  0.1174 -0.0223 -0.2974
  867MOL0     C16943   6.580  -0.152   8.219 -0.9494 -0.0474 -0.2060
  867MOL0     C16944   6.696  -0.136   8.306 -0.4150 -1.0885  0.3896
  867MOL0     C16945   6.830  -0.153   8.252  0.5137 -1.0730 -0.2038
  867MOL0     O16946   6.947  -0.120   8.321  0.1608 -0.2894  0.3369
  867MOL0     C16947   6.949  -0.149   8.461  0.2517 -0.4056  0.3747
  867MOL0     C16948   7.091  -0.161   8.507 -0.1626  0.4649 -0.4474
  867MOL0     C16949   7.182  -0.033   8.496  0.5004 -0.0670  0.3311
  867MOL0     C16950   7.118   0.098   8.539 -0.1850  0.2247  0.3144
  867MOL0     C16951   7.206   0.221   8.541  0.3421  0.5020 -0.2921
  867MOL0     C16952   7.314   0.228   8.644 -0.9709  0.3943  0.0422
  867MOL0     C16953   7.405   0.349   8.634 -0.2071  0.2306  0.2407
  867MOL0     C16954   7.549   0.298   8.622 -0.5611  0.9528  0.1462
  867MOL0    Cl16955   7.614   0.213   8.765  0.3579 -0.1282  0.0928
  867MOL0     C16956   6.852  -0.179   8.116  0.3700  0.2768 -0.6699
  867MOL0     C16957   6.739  -0.199   8.031  0.0579  0.5613  0.1539
  867MOL0     O16958   6.353  -0.065   8.074 -0.0871 -0.6532 -0.0686
  867MOL0     C16959   6.154  -0.152   7.915  0.3430 -0.9683  0.2206
  867MOL0     C16960   6.052  -0.172   7.825  0.0323  0.4648  0.0030
  867MOL0     N16961   6.092   0.230   7.185 -0.9353  0.7181 -0.4728
  867MOL0     N16962   6.073   0.356   7.192 -0.2767  0.2106 -0.6843
  867MOL0     C16963   6.926   0.390   7.904  0.0317  0.3975 -0.1636
  867MOL0     C16964   7.050   0.362   7.967  0.7407  0.2239  0.2851
  867MOL0     C16965   7.410   0.269   8.218  0.3982  0.0641  0.1985
  867MOL0     C16966   7.517   0.359   8.236  0.5989  0.1898  0.6276
  867MOL0     C16967   7.645   0.318   8.276 -0.2734 -0.6449 -0.1719
  867MOL0     C16968   7.673   0.189   8.308  0.1761  0.3944 -1.5191
  867MOL0     O16969   7.800   0.164   8.340 -0.2513  0.1935  0.0889
  867MOL0     C16970   7.832   0.048   8.423  0.5431 -0.2643  0.7715
  867MOL0     C16971   7.973   0.048   8.483 -0.1603 -0.3895 -0.0826
  867MOL0     C16972   7.980   0.181   8.578  0.1774  0.6281 -0.0148
  867MOL0     C16973   8.075   0.159   8.699 -1.1896 -0.5105  0.1583
  867MOL0     C16974   8.217   0.130   8.660  0.4072 -0.6055 -0.5703
  867MOL0     C16975   8.332   0.099   8.636  0.2276  0.3359 -0.3687
  867MOL0     C16976   7.569   0.094   8.294 -0.6025  0.5252  0.1964
  867MOL0     C16977   7.443   0.130   8.246  1.0109 -0.5909  0.3595
  867MOL0     H16978   6.986   0.070   8.129  1.8301 -1.0254 -1.2909
  867MOL0     H16979   6.774   0.113   8.042  0.4600 -1.2969 -0.8001
  867MOL0     H16980   6.570   0.249   8.008  1.4473 -0.2838 -1.1948
  867MOL0     H16981   6.614   0.420   8.028 -2.9635  0.0085  0.1816
  867MOL0     H16982   6.386   0.419   7.932 -0.8857 -3.9757 -0.2889
  867MOL0     H16983   6.511   0.497   7.830  4.0262 -1.5207 -0.3095
  867MOL0     H16984   6.468   0.348   7.669 -2.5755  0.7872 -1.1156
  867MOL0     H16985   6.447   0.205   7.780 -0.0743  0.3343  0.1317
  867MOL0     H16986   6.248   0.235   7.663  1.3535 -1.6387  1.0679
  867MOL0     H16987   6.203   0.289   7.826  1.6769 -2.3403  1.3047
  867MOL0     H16988   6.109   0.433   7.661 -0.2013  1.0946  0.3486
  867MOL0     H16989   6.256   0.529   7.724  2.2464 -1.1263 -1.5142
  867MOL0     H16990   6.385   0.482   7.523  0.7790 -2.9411  0.8087
  867MOL0     H16991   6.274   0.362   7.478  2.2934  0.3125 -0.5143
  867MOL0     H16992   6.191   0.652   7.472  1.1743 -0.5028  0.2173
  867MOL0     H16993   6.251   0.546   7.339  0.5656  1.5847 -0.4376
  867MOL0     H16994   6.016   0.589   7.319  3.7792 -0.7341 -2.6463
  867MOL0     H16995   5.987   0.521   7.479  3.1658  1.2703  2.2642
  867MOL0     H16996   5.989   0.243   7.489  0.2221 -0.4315 -1.1313
  867MOL0     H16997   6.035  -0.038   7.217 -2.0016 -0.1251 -0.5316
  867MOL0     H16998   6.132  -0.031   7.369  0.8228  0.6778 -1.3396
  867MOL0     H16999   5.831   0.014   7.380  1.0264  0.4907 -0.2190
  867MOL0     H17000   5.947  -0.004   7.511  0.0158 -0.6169  1.4868
  867MOL0     H17001   5.847  -0.203   7.306 -0.9002 -0.7109  0.5119
  867MOL0     H17002   5.788  -0.166   7.461 -1.0808  0.2962 -1.9728
  867MOL0     H17003   6.079  -0.266   7.428  0.9323 -2.0536  1.7186
  867MOL0     H17004   5.933  -0.362   7.460  0.0236 -0.0196 -0.4803
  867MOL0     H17005   6.231  -0.282   7.563  0.0606  1.4190 -1.1957
  867MOL0     H17006   6.498  -0.340   7.781  0.2460 -1.6388 -1.7181
  867MOL0     H17007   6.465  -0.294   7.615  1.7812  1.2505  0.0113
  867MOL0     H17008   6.525  -0.176   7.721  3.4201 -2.7387  1.4398
  867MOL0     H17009   6.482  -0.150   8.266 -1.1509 -3.8640 -0.1537
  867MOL0     H17010   6.679  -0.110   8.410 -2.4600  0.9973 -0.3821
  867MOL0     H17011   6.905  -0.069   8.523 -0.2076  0.0428 -0.5191
  867MOL0     H17012   6.896  -0.242   8.481  0.6241 -0.7857 -0.4013
  867MOL0     H17013   7.088  -0.188   8.613 -0.9261  1.0390 -0.3084
  867MOL0     H17014   7.129  -0.249   8.456 -1.3968 -0.5205  0.2842
  867MOL0     H17015   7.218  -0.022   8.393  1.9428  0.3400  0.8565
  867MOL0     H17016   7.270  -0.059   8.555 -0.2839 -1.9641  0.7313
  867MOL0     H17017   7.049   0.118   8.456 -0.0026  0.2589  0.1694
  867MOL0     H17018   7.061   0.075   8.629  1.5857  0.1665  1.4799
  867MOL0     H17019   7.136   0.301   8.567  0.4889  0.2786  0.8113
  867MOL0     H17020   7.247   0.224   8.440  1.7135 -0.1983  0.2240
  867MOL0     H17021   7.266   0.230   8.743 -0.5836 -3.4038  0.4640
  867MOL0     H17022   7.363   0.131   8.651 -3.4104 -0.9505 -0.3500
  867MOL0     H17023   7.392   0.402   8.728  0.5391  1.7927 -0.4837
  867MOL0     H17024   7.389   0.421   8.553  0.4245 -0.9696 -1.0009
  867MOL0     H17025   7.617   0.382   8.607  0.1789  0.4335  0.5311
  867MOL0     H17026   7.561   0.223   8.543 -0.0294 -0.4747  1.5290
  867MOL0     H17027   6.950  -0.195   8.073  0.6303  3.2417 -1.4027
  867MOL0     H17028   6.749  -0.240   7.931  1.2870 -0.5945  0.7341
  867MOL0     H17029   6.120  -0.114   8.011 -0.1536  0.7023 -0.5757
  867MOL0     H17030   5.951  -0.141   7.852 -0.5333 -0.2307 -1.2396
  867MOL0     H17031   6.910   0.467   7.830  0.9463  2.7305  1.9280
  867MOL0     H17032   7.140   0.416   7.937 -0.0469 -0.5260 -4.1033
  867MOL0     H17033   7.507   0.461   8.203  0.9831 -0.4039 -1.4669
  867MOL0     H17034   7.722   0.394   8.286 -0.9091 -0.2513  2.3868
  867MOL0     H17035   7.756   0.048   8.502 -0.9829 -0.4331 -0.6347
  867MOL0     H17036   7.817  -0.039   8.358  0.3007 -0.2564  0.8158
  867MOL0     H17037   8.049   0.068   8.407 -0.4953  0.7722 -0.1194
  867MOL0     H17038   7.988  -0.051   8.528  0.1683 -0.6076 -0.6544
  867MOL0     H17039   7.885   0.212   8.622 -0.0157  0.8243 -0.5562
  867MOL0     H17040   7.998   0.263   8.509 -2.0401  0.4723 -0.8739
  867MOL0     H17041   8.043   0.079   8.766  0.2254 -0.0073  1.4942
  867MOL0     H17042   8.074   0.252   8.756  1.8767  0.3177 -0.9499
  867MOL0     H17043   8.434   0.081   8.607  0.7802  2.1202  0.3286
  867MOL0     H17044   7.583  -0.008   8.330 -1.3303 -1.4634 -4.4599
  867MOL0     H17045   7.362   0.059   8.238 -0.3714  0.9363  0.1711
  868MOL0     O17046   8.418   8.078   4.874 -0.1059 -0.2877  0.1061
  868MOL0     C17047   8.472   7.976   4.914  0.1289 -0.3119 -0.2495
  868MOL0     O17048   8.416   7.879   4.997 -0.3000  0.3055  0.3025
  868MOL0     C17049   8.305   7.923   5.058  0.5423  0.4310 -0.0955
  868MOL0     C17050   8.306   7.916   5.199  0.0514 -0.0609  0.7621
  868MOL0     C17051   8.196   7.963   5.272  0.1155 -0.1594  0.2094
  868MOL0     C17052   8.071   7.996   5.207  0.9172 -1.0374 -0.2068
  868MOL0     O17053   7.957   8.007   5.291  0.1281 -0.7609  0.2408
  868MOL0     C17054   7.828   8.037   5.235 -0.0153 -0.1737 -0.0615
  868MOL0     C17055   7.735   8.102   5.333  0.2116  0.1012  0.0141
  868MOL0     C17056   7.734   8.049   5.474 -0.1012  0.4516  0.2553
  868MOL0     C17057   7.722   7.895   5.485  0.0974 -0.3696  0.2439
  868MOL0     C17058   7.724   7.846   5.628  0.1848 -0.4061 -0.4723
  868MOL0     C17059   7.584   7.868   5.704 -0.4592  0.3257 -0.4756
  868MOL0     C17060   7.602   7.803   5.848  0.4803 -0.0288  0.4612
  868MOL0     C17061   7.711   7.850   5.933 -0.6693  0.7193 -0.6745
  868MOL0     N17062   7.684   7.799   6.071 -0.1153  0.2773  0.4730
  868MOL0     C17063   7.622   7.679   6.095  0.1001 -0.3571 -0.8364
  868MOL0     C17064   7.613   7.686   6.231  0.1589  0.4246 -0.6208
  868MOL0     C17065   7.554   7.566   6.299  0.1095  0.9087  0.0362
  868MOL0     C17066   7.401   7.567   6.304 -0.6154  0.3701 -0.1124
  868MOL0     C17067   7.367   7.666   6.413  0.3908 -0.5553 -0.4482
  868MOL0     C17068   7.227   7.707   6.396  1.0803  0.6787 -1.1005
  868MOL0     O17069   7.146   7.602   6.451 -0.1904 -0.0510  0.4044
  868MOL0     C17070   7.014   7.624   6.463  1.2890 -0.4761 -0.8447
  868MOL0     C17071   6.934   7.691   6.366 -0.0975  0.2011 -0.4584
  868MOL0     C17072   6.792   7.702   6.380  1.3406  0.6453  0.0293
  868MOL0     C17073   6.706   7.759   6.274 -0.7402  0.4913  0.1523
  868MOL0     C17074   6.732   7.662   6.509  0.5532  0.0660 -0.0490
  868MOL0     C17075   6.590   7.670   6.558  0.0191 -0.7713  0.1875
  868MOL0     O17076   6.562   7.642   6.690 -0.2548  0.6845 -0.3375
  868MOL0     C17077   6.432   7.627   6.722 -0.5018  0.2501  0.0544
  868MOL0     C17078   6.389   7.499   6.754 -0.2668 -0.2588  0.1066
  868MOL0     C17079   6.249   7.474   6.765  0.6151 -0.4048 -0.5314
  868MOL0     C17080   6.155   7.579   6.751 -0.3184  0.1805 -0.2711
  868MOL0     O17081   6.017   7.565   6.758  0.3219 -0.4638  0.6361
  868MOL0     C17082   5.971   7.431   6.771 -0.0993  0.6150 -0.7485
  868MOL0     C17083   5.815   7.421   6.762  0.3135 -0.1995 -1.0176
  868MOL0     C17084   5.748   7.488   6.887 -0.8403  0.1957 -0.0457
  868MOL0     C17085   5.601   7.462   6.903  0.7489 -0.4532 -0.3983
  868MOL0     C17086   5.564   7.539   7.037  0.0460 -1.0907  0.5381
  868MOL0     C17087   5.628   7.480   7.159  0.4958  0.1929 -0.0896
  868MOL0     C17088   5.551   7.501   7.298 -0.6542  0.5010 -0.4385
  868MOL0     C17089   5.595   7.426   7.419 -0.1618  0.8150 -0.7131
  868MOL0    Cl17090   5.468   7.447   7.542  0.7491 -0.2060  0.7095
  868MOL0     C17091   6.198   7.706   6.743 -0.6169 -0.2899 -0.0358
  868MOL0     C17092   6.332   7.734   6.722 -0.2008  0.2597 -0.1604
  868MOL0     O17093   6.503   7.698   6.472 -0.4729  0.6796  0.5164
  868MOL0     C17094   6.823   7.612   6.606 -0.2684  0.0592 -0.3973
  868MOL0     C17095   6.958   7.604   6.589 -0.9961  0.6764  0.2187
  868MOL0     N17096   7.670   7.792   6.286  0.2355  0.3407 -0.5632
  868MOL0     N17097   7.714   7.872   6.183  0.4917 -0.1148 -0.4009
  868MOL0     C17098   8.074   7.999   5.060 -0.2734  0.3071  0.2827
  868MOL0     C17099   8.185   7.955   4.990  0.3465 -0.0882  0.7641
  868MOL0     C17100   8.606   7.950   4.858  0.0392 -0.7106 -0.2579
  868MOL0     C17101   8.652   7.817   4.851  0.6166 -0.1214  0.5412
  868MOL0     C17102   8.770   7.781   4.791 -0.3012 -0.0782  0.2255
  868MOL0     C17103   8.842   7.885   4.726 -0.4068  0.0712  0.4173
  868MOL0     O17104   8.963   7.862   4.665  0.2835 -0.8640  0.0112
  868MOL0     C17105   9.020   7.734   4.660 -0.5862  0.0145  0.5132
  868MOL0     C17106   9.141   7.744   4.565 -0.1414  0.8247 -0.6856
  868MOL0     C17107   9.240   7.833   4.641 -0.1114 -0.6250 -0.2261
  868MOL0     C17108   9.373   7.824   4.570 -0.2551 -0.0174 -0.2657
  868MOL0     C17109   9.488   7.845   4.653  0.2197  0.8325 -1.0308
  868MOL0     C17110   9.581   7.887   4.717  0.2795 -0.0015 -0.1774
  868MOL0     C17111   8.797   8.012   4.732  0.5990  0.2293  0.6626
  868MOL0     C17112   8.688   8.050   4.799 -0.2183  0.2022 -0.4552
  868MOL0     H17113   8.397   7.880   5.246  0.6367  0.7966  0.3092
  868MOL0     H17114   8.191   7.972   5.380 -1.0671 -1.6476  0.3142
  868MOL0     H17115   7.842   8.097   5.145  2.0751  0.1526  0.4267
  868MOL0     H17116   7.791   7.941   5.198  1.5141 -0.6835 -0.3505
  868MOL0     H17117   7.757   8.208   5.350 -3.8126  1.0722  0.0868
  868MOL0     H17118   7.633   8.098   5.295  0.0475 -3.1843  0.5095
  868MOL0     H17119   7.829   8.077   5.521  0.5881 -4.2635  2.2860
  868MOL0     H17120   7.650   8.089   5.532 -0.1506  0.5144  0.1407
  868MOL0     H17121   7.626   7.859   5.448 -1.0785  2.2010  0.5622
  868MOL0     H17122   7.798   7.838   5.431  1.0870  1.3503 -0.2632
  868MOL0     H17123   7.748   7.739   5.630  0.6950 -0.3157  2.0227
  868MOL0     H17124   7.808   7.886   5.685  0.6581 -1.7488 -0.1894
  868MOL0     H17125   7.577   7.976   5.718 -1.0587  0.0755  1.6029
  868MOL0     H17126   7.493   7.827   5.659 -0.8406 -0.6744  1.1247
  868MOL0     H17127   7.508   7.821   5.901 -0.3032  1.0444 -1.2325
  868MOL0     H17128   7.612   7.695   5.833  0.3230  0.0160  0.0256
  868MOL0     H17129   7.709   7.960   5.936  0.2077  0.7363 -0.4438
  868MOL0     H17130   7.807   7.812   5.897  0.0501  1.4870  0.3624
  868MOL0     H17131   7.593   7.598   6.029 -0.2889 -1.4884  0.6412
  868MOL0     H17132   7.584   7.475   6.246  4.9811  1.5667  1.1469
  868MOL0     H17133   7.602   7.552   6.396  0.6418 -0.4713 -0.4036
  868MOL0     H17134   7.370   7.464   6.321  1.3984 -0.6863 -2.3292
  868MOL0     H17135   7.363   7.598   6.207  0.3997 -0.6016 -0.8447
  868MOL0     H17136   7.438   7.749   6.410  0.5196 -0.5735  1.2979
  868MOL0     H17137   7.385   7.615   6.508  3.9656  1.8146  0.3483
  868MOL0     H17138   7.198   7.730   6.294 -0.5698 -2.2818 -1.3869
  868MOL0     H17139   7.209   7.799   6.453  0.7005 -1.1736  2.0159
  868MOL0     H17140   6.978   7.721   6.271  2.7365 -0.4547  0.5482
  868MOL0     H17141   6.631   7.683   6.251 -0.7845  1.1872 -2.2008
  868MOL0     H17142   6.672   7.860   6.302  1.6087  1.9341 -1.8032
  868MOL0     H17143   6.772   7.771   6.188  0.3750 -1.1068  0.7426
  868MOL0     H17144   6.456   7.414   6.740 -2.4883 -1.8289 -1.6863
  868MOL0     H17145   6.217   7.376   6.797 -0.7781  0.4506  0.8255
  868MOL0     H17146   6.001   7.364   6.690 -2.0519 -0.6454 -0.4912
  868MOL0     H17147   6.011   7.405   6.870  3.5552  4.5249 -0.9093
  868MOL0     H17148   5.778   7.463   6.667 -0.5972 -0.3727 -0.7502
  868MOL0     H17149   5.789   7.315   6.762  1.8828 -0.6340  0.9424
  868MOL0     H17150   5.753   7.597   6.878 -2.9050  0.3425  0.2062
  868MOL0     H17151   5.808   7.446   6.969  1.9329  0.6603 -1.6827
  868MOL0     H17152   5.552   7.500   6.813  1.1060 -1.0932 -0.8747
  868MOL0     H17153   5.578   7.356   6.915 -0.5327 -0.3297 -1.5349
  868MOL0     H17154   5.458   7.564   7.045  0.3181  0.1766  0.2703
  868MOL0     H17155   5.608   7.638   7.021 -0.2820 -0.9736  0.3563
  868MOL0     H17156   5.640   7.374   7.138  0.2677 -0.1635  1.4780
  868MOL0     H17157   5.723   7.534   7.166  0.5824 -0.1138  1.5686
  868MOL0     H17158   5.446   7.481   7.273 -0.2381 -3.1636  0.1237
  868MOL0     H17159   5.546   7.607   7.325 -0.5358  0.3488  0.1986
  868MOL0     H17160   5.694   7.456   7.455  1.4358 -3.4841 -1.0025
  868MOL0     H17161   5.599   7.321   7.388 -0.3254  0.6201 -0.0869
  868MOL0     H17162   6.128   7.786   6.761 -0.5412 -0.6377  2.0577
  868MOL0     H17163   6.364   7.837   6.712 -0.4400  0.2614 -0.9506
  868MOL0     H17164   6.783   7.575   6.700  1.9868 -1.4288  0.0472
  868MOL0     H17165   7.026   7.573   6.667  0.1516  1.5598 -0.3972
  868MOL0     H17166   7.983   8.007   5.001 -0.3630 -1.3800  0.1571
  868MOL0     H17167   8.197   7.952   4.882  1.7317  1.1628  0.8502
  868MOL0     H17168   8.587   7.736   4.882  0.2827 -0.7773 -1.7094
  868MOL0     H17169   8.808   7.680   4.790 -1.9478 -0.7348 -1.6907
  868MOL0     H17170   9.036   7.684   4.756 -0.0569 -2.0610 -0.5915
  868MOL0     H17171   8.944   7.667   4.619  1.3999 -1.1460 -1.5094
  868MOL0     H17172   9.114   7.778   4.464 -0.3901  0.6296 -0.6864
  868MOL0     H17173   9.179   7.642   4.555 -1.6747 -0.0799  1.7716
  868MOL0     H17174   9.261   7.797   4.743  1.3620  1.7812  0.3919
  868MOL0     H17175   9.197   7.933   4.653  0.5294 -0.2951 -0.6207
  868MOL0     H17176   9.368   7.902   4.493  0.9270  1.0259  0.6545
  868MOL0     H17177   9.380   7.725   4.525  0.5202 -0.1363  0.0938
  868MOL0     H17178   9.668   7.927   4.766  0.2553  0.1593 -0.2673
  868MOL0     H17179   8.856   8.076   4.667 -1.5028 -0.4612 -2.0933
  868MOL0     H17180   8.659   8.155   4.800 -0.4524  0.1443 -0.9650
  869MOL0     O17181   2.874   2.297   8.204 -0.2609  0.7066  0.4639
  869MOL0     C17182   2.871   2.361   8.100 -0.1879  1.0476  0.2894
  869MOL0     O17183   2.758   2.387   8.027  0.0869 -0.4420 -0.4547
  869MOL0     C17184   2.645   2.352   8.089  0.0811  0.0131 -0.3852
  869MOL0     C17185   2.565   2.450   8.152 -0.0284 -0.6627 -0.7750
  869MOL0     C17186   2.435   2.413   8.199  0.4418  0.2573 -0.1144
  869MOL0     C17187   2.387   2.281   8.186 -0.0720  0.0662 -0.8304
  869MOL0     O17188   2.254   2.261   8.215  0.9354 -0.0835 -0.3729
  869MOL0     C17189   2.227   2.152   8.306 -0.6563  0.8629 -0.8856
  869MOL0     C17190   2.127   2.200   8.416 -0.6339 -0.2509  0.3314
  869MOL0     C17191   2.171   2.343   8.478  0.9890  0.3744 -0.4685
  869MOL0     C17192   2.050   2.395   8.553  0.7205  0.0224  1.0021
  869MOL0     C17193   1.963   2.474   8.459 -0.7330 -0.1468  0.3588
  869MOL0     C17194   1.834   2.541   8.525  0.4636 -0.6279  0.0255
  869MOL0     C17195   1.747   2.441   8.592 -0.7760  0.0394  0.0750
  869MOL0     C17196   1.667   2.346   8.495 -0.2068 -0.6885  0.1307
  869MOL0     N17197   1.549   2.275   8.545  0.0247 -0.2343 -0.4204
  869MOL0     C17198   1.433   2.333   8.587 -0.0682  0.4246  0.3477
  869MOL0     C17199   1.371   2.238   8.652  1.0879  0.3597  0.6102
  869MOL0     C17200   1.235   2.261   8.705 -0.0478  0.4864 -0.1579
  869MOL0     C17201   1.187   2.138   8.793  1.4207 -0.3110 -0.2570
  869MOL0     C17202   1.059   2.174   8.876 -0.4886 -0.4296  0.1403
  869MOL0     C17203   0.930   2.191   8.796  0.6342 -0.5418  0.0929
  869MOL0     O17204   0.919   2.091   8.695  0.0134 -0.2036 -0.3805
  869MOL0     C17205   0.809   2.090   8.614  0.2560  0.5390 -0.7280
  869MOL0     C17206   0.709   2.186   8.595  0.3194 -0.1926  0.7631
  869MOL0     C17207   0.592   2.159   8.523  0.2044  0.1611 -0.0516
  869MOL0     C17208   0.500   2.273   8.502  0.3203 -0.1003  0.4205
  869MOL0     C17209   0.575   2.033   8.477 -0.0078 -1.1275  0.3891
  869MOL0     C17210   0.454   1.987   8.411 -0.0468  0.2052 -0.5648
  869MOL0     O17211   0.424   1.855   8.420 -0.3078  0.6502  0.4458
  869MOL0     C17212   0.322   1.793   8.356  0.3791 -0.4623  0.4818
  869MOL0     C17213   0.344   1.660   8.320  0.0700 -0.0263  0.7034
  869MOL0     C17214   0.243   1.579   8.267  0.4042 -0.2319  0.7395
  869MOL0     C17215   0.115   1.634   8.244  0.1222  0.0905 -0.3668
  869MOL0     O17216   0.029   1.542   8.184  0.1791 -0.5123 -0.6933
  869MOL0     C17217  -0.071   1.591   8.087 -0.7180  0.4538  0.1121
  869MOL0     C17218  -0.127   1.474   8.003  0.2868  0.6634  0.2203
  869MOL0     C17219  -0.164   1.335   8.072 -0.0150 -0.8949 -0.0332
  869MOL0     C17220  -0.301   1.330   8.137  0.4211  0.1164  0.1122
  869MOL0     C17221  -0.327   1.192   8.199  0.3913 -0.4036  0.2703
  869MOL0     C17222  -0.459   1.203   8.274 -0.3373  0.0381 -0.2506
  869MOL0     C17223  -0.495   1.083   8.360 -0.7975 -0.1521  0.2737
  869MOL0     C17224  -0.640   1.080   8.410 -0.4694  0.4784 -0.6020
  869MOL0    Cl17225  -0.646   0.926   8.509 -0.2786 -0.0883  0.4325
  869MOL0     C17226   0.085   1.763   8.286  0.0581 -0.0047  0.3883
  869MOL0     C17227   0.189   1.853   8.337 -0.6651 -0.1371 -0.5925
  869MOL0     O17228   0.387   2.067   8.348 -0.3444  0.5471  0.0014
  869MOL0     C17229   0.677   1.935   8.500  0.1221 -0.1926  0.2271
  869MOL0     C17230   0.798   1.960   8.555 -0.5984 -0.1869  0.4906
  869MOL0     N17231   1.442   2.116   8.646 -0.0977 -0.2963 -0.3510
  869MOL0     N17232   1.552   2.146   8.592  0.7579  0.3430 -0.1229
  869MOL0     C17233   2.473   2.182   8.130  0.6244  0.4606 -0.4603
  869MOL0     C17234   2.598   2.216   8.079  0.4000  0.1871 -0.2196
  869MOL0     C17235   2.993   2.430   8.046  0.0103  0.5385 -0.1709
  869MOL0     C17236   2.990   2.513   7.938 -0.4609  0.1369  0.1195
  869MOL0     C17237   3.100   2.593   7.900 -0.0516  0.0464 -0.2564
  869MOL0     C17238   3.223   2.587   7.963 -0.5708 -0.5790  0.5777
  869MOL0     O17239   3.325   2.666   7.907  0.6441 -1.7111  0.0414
  869MOL0     C17240   3.457   2.663   7.964  0.0014  0.4885  0.1270
  869MOL0     C17241   3.536   2.773   7.896 -0.1179  0.2160 -0.1966
  869MOL0     C17242   3.682   2.795   7.959 -0.1303  0.2220 -0.0001
  869MOL0     C17243   3.750   2.918   7.891  0.5825 -0.3909  0.0875
  869MOL0     C17244   3.890   2.919   7.904 -0.6005 -0.0101 -0.4389
  869MOL0     C17245   4.009   2.917   7.901 -0.6617  0.3822 -0.7197
  869MOL0     C17246   3.231   2.489   8.064  1.0117  0.4378 -0.5737
  869MOL0     C17247   3.117   2.424   8.114  0.6796 -0.1274  0.5055
  869MOL0     H17248   2.603   2.549   8.176  0.7981 -0.9384 -0.9351
  869MOL0     H17249   2.365   2.490   8.230 -0.9367 -1.5294  1.5000
  869MOL0     H17250   2.180   2.065   8.258 -0.1580 -0.7257  1.3595
  869MOL0     H17251   2.319   2.109   8.346 -0.8018 -0.8191 -2.2392
  869MOL0     H17252   2.026   2.208   8.376 -0.3148  2.3898 -0.1083
  869MOL0     H17253   2.123   2.125   8.495  1.9284 -0.2033  0.5948
  869MOL0     H17254   2.255   2.344   8.549 -0.2327  1.0278  1.0272
  869MOL0     H17255   2.200   2.419   8.406 -0.9276  1.0789 -0.5468
  869MOL0     H17256   1.993   2.311   8.595 -2.7400  1.1075 -1.0479
  869MOL0     H17257   2.080   2.467   8.629 -2.3461  0.6769  1.7357
  869MOL0     H17258   2.017   2.560   8.419 -3.9338  1.4269 -0.9364
  869MOL0     H17259   1.936   2.415   8.371 -1.1571  0.1418  0.2900
  869MOL0     H17260   1.867   2.612   8.601  0.7988  0.7523 -1.3542
  869MOL0     H17261   1.774   2.598   8.453  0.8032 -0.5073 -0.1671
  869MOL0     H17262   1.807   2.372   8.653 -0.3449 -0.5608 -0.9991
  869MOL0     H17263   1.683   2.495   8.662  0.6077 -1.4870  2.6721
  869MOL0     H17264   1.740   2.269   8.466  1.9550  0.6006  1.8147
  869MOL0     H17265   1.640   2.406   8.408  1.2249 -0.2821 -0.0674
  869MOL0     H17266   1.401   2.434   8.564 -1.3930 -0.6577 -3.2518
  869MOL0     H17267   1.218   2.356   8.755  0.2472 -0.0687  1.0253
  869MOL0     H17268   1.167   2.254   8.619 -0.2565  0.8821 -0.0260
  869MOL0     H17269   1.268   2.108   8.860  1.4026 -0.1788 -0.1762
  869MOL0     H17270   1.173   2.042   8.742  3.6983 -2.0328  2.1080
  869MOL0     H17271   1.064   2.270   8.927  3.0617  0.3022 -1.3016
  869MOL0     H17272   1.056   2.105   8.961 -0.8554 -1.1848 -0.4680
  869MOL0     H17273   0.921   2.291   8.753 -0.2115 -0.3777  0.6144
  869MOL0     H17274   0.850   2.187   8.871  1.2907 -2.2929  0.7506
  869MOL0     H17275   0.727   2.283   8.639 -3.5000  1.0041  0.0203
  869MOL0     H17276   0.406   2.245   8.551 -1.0566  1.0509 -1.4146
  869MOL0     H17277   0.532   2.366   8.550  0.9640 -0.5447  0.8676
  869MOL0     H17278   0.488   2.296   8.395  1.8254  1.7869  0.6088
  869MOL0     H17279   0.447   1.628   8.332  0.0495  0.5697  2.8071
  869MOL0     H17280   0.280   1.482   8.234  0.4618 -0.2787  0.9408
  869MOL0     H17281  -0.146   1.633   8.154 -0.2199 -1.6101  2.1084
  869MOL0     H17282  -0.038   1.670   8.019  0.8726  0.3692  0.7394
  869MOL0     H17283  -0.222   1.506   7.959 -2.0719 -1.2413  3.4818
  869MOL0     H17284  -0.053   1.450   7.926  0.9598  0.1025  1.0340
  869MOL0     H17285  -0.085   1.308   8.142  2.0837 -1.0654 -2.3512
  869MOL0     H17286  -0.160   1.260   7.993  0.6311  1.4218 -2.3244
  869MOL0     H17287  -0.309   1.403   8.218  1.6629 -0.5452  0.8621
  869MOL0     H17288  -0.382   1.345   8.065 -0.2842  0.7266  0.9966
  869MOL0     H17289  -0.241   1.171   8.265  0.5257 -0.0430  0.2089
  869MOL0     H17290  -0.336   1.115   8.122 -2.7232 -0.4442  0.5482
  869MOL0     H17291  -0.457   1.290   8.341  0.3201  0.6356 -1.0196
  869MOL0     H17292  -0.539   1.214   8.199 -2.3929  0.0840  1.8317
  869MOL0     H17293  -0.432   1.091   8.449  0.3027  0.3216 -0.5269
  869MOL0     H17294  -0.463   0.992   8.309  0.0147 -0.2003  0.8400
  869MOL0     H17295  -0.714   1.069   8.331 -2.2579 -0.0870  1.0695
  869MOL0     H17296  -0.657   1.172   8.467  2.0701  0.7993 -0.2590
  869MOL0     H17297  -0.017   1.800   8.275  0.1907  0.6375  1.1737
  869MOL0     H17298   0.164   1.950   8.378  1.7090  0.9477 -1.5074
  869MOL0     H17299   0.664   1.835   8.460  2.6969 -0.1839 -0.8591
  869MOL0     H17300   0.870   1.879   8.560 -2.0653 -1.6657 -0.9387
  869MOL0     H17301   2.436   2.080   8.122 -0.7948  0.7216  1.7216
  869MOL0     H17302   2.668   2.142   8.042 -0.1616 -1.7722  2.2874
  869MOL0     H17303   2.902   2.516   7.874  1.3210  1.1370 -2.4657
  869MOL0     H17304   3.102   2.659   7.813 -0.8729  2.3564  1.3863
  869MOL0     H17305   3.444   2.665   8.073 -0.1895  0.6623  0.1027
  869MOL0     H17306   3.511   2.573   7.934 -1.4288 -1.3090  2.5443
  869MOL0     H17307   3.478   2.864   7.914  1.1225  1.0962 -0.5436
  869MOL0     H17308   3.541   2.759   7.787  2.2550  0.4115 -0.1690
  869MOL0     H17309   3.741   2.703   7.955  1.4946  1.1264  1.7806
  869MOL0     H17310   3.678   2.828   8.063  2.3007  1.0911 -0.1113
  869MOL0     H17311   3.708   3.014   7.920 -0.1078 -0.1196 -1.6615
  869MOL0     H17312   3.720   2.917   7.785 -1.0684 -0.8094  0.5327
  869MOL0     H17313   4.115   2.921   7.919 -1.0236  0.7538  1.6139
  869MOL0     H17314   3.326   2.472   8.114  0.7598 -3.6128 -1.1296
  869MOL0     H17315   3.129   2.361   8.202  0.3660 -2.0768 -0.7881
  870MOL0     O17316   3.634   5.878   2.509 -0.2664  0.1909 -0.9253
  870MOL0     C17317   3.632   5.785   2.427 -0.2791 -1.0156 -0.3894
  870MOL0     O17318   3.521   5.741   2.374 -0.3158  0.0885  0.0546
  870MOL0     C17319   3.395   5.751   2.425  0.6563  0.6991 -0.0293
  870MOL0     C17320   3.283   5.737   2.340  0.2789  0.2939  0.0932
  870MOL0     C17321   3.154   5.727   2.390  0.3481 -0.0973 -0.4364
  870MOL0     C17322   3.134   5.750   2.534  1.1418  0.0812  0.7508
  870MOL0     O17323   3.015   5.735   2.603  0.5082 -0.2982  0.7059
  870MOL0     C17324   2.886   5.695   2.544  0.2294  0.2652  0.2306
  870MOL0     C17325   2.833   5.808   2.456  0.4420 -0.8041  0.3737
  870MOL0     C17326   2.784   5.916   2.550  0.5444  0.8972  0.5884
  870MOL0     C17327   2.773   6.056   2.484 -0.0740  0.0792 -0.9212
  870MOL0     C17328   2.649   6.061   2.394  0.4399 -0.0078 -0.3287
  870MOL0     C17329   2.643   6.204   2.340 -0.5857  0.6715  0.6975
  870MOL0     C17330   2.552   6.224   2.217  0.7049 -0.3023  0.2449
  870MOL0     C17331   2.569   6.121   2.098 -0.3718  0.6514  0.0432
  870MOL0     N17332   2.464   6.146   1.998  0.2657 -0.2491  0.1656
  870MOL0     C17333   2.478   6.233   1.902  0.3007 -1.0076 -0.1032
  870MOL0     C17334   2.353   6.246   1.840  0.7520 -1.2581  0.0954
  870MOL0     C17335   2.323   6.352   1.734 -0.6364 -0.2555 -0.0211
  870MOL0     C17336   2.369   6.325   1.588 -0.6511 -0.5850  0.1224
  870MOL0     C17337   2.307   6.203   1.524  0.1043  0.5544  0.1588
  870MOL0     C17338   2.151   6.188   1.561  0.0337  0.1356 -0.5742
  870MOL0     O17339   2.096   6.077   1.479 -0.5340 -0.4776 -0.7850
  870MOL0     C17340   1.973   6.084   1.431 -0.4221  0.8669 -0.8453
  870MOL0     C17341   1.955   6.044   1.299 -0.0189 -0.5418 -0.1127
  870MOL0     C17342   1.828   6.050   1.248 -0.7007  1.1910 -0.2220
  870MOL0     C17343   1.810   5.997   1.104 -0.5672 -0.3999 -0.3711
  870MOL0     C17344   1.717   6.087   1.328  0.3311 -0.2553 -0.0698
  870MOL0     C17345   1.566   6.090   1.293  1.0397  0.7557 -0.3530
  870MOL0     O17346   1.472   6.110   1.391  0.5955  0.0238  0.2739
  870MOL0     C17347   1.339   6.143   1.370 -0.0160 -0.7074  0.1025
  870MOL0     C17348   1.283   6.203   1.258 -0.1480  0.2131 -0.5514
  870MOL0     C17349   1.140   6.229   1.251  0.0962  0.6525  0.4294
  870MOL0     C17350   1.054   6.203   1.363  0.3406 -0.0917  0.3182
  870MOL0     O17351   0.922   6.223   1.364  0.4842  1.0639  0.1614
  870MOL0     C17352   0.864   6.303   1.259 -0.4384 -0.1474  0.1128
  870MOL0     C17353   0.730   6.353   1.326 -0.0884 -0.6617 -0.1917
  870MOL0     C17354   0.767   6.435   1.451 -0.4309 -0.7237 -0.5520
  870MOL0     C17355   0.660   6.530   1.484  0.9563 -0.6732  0.0838
  870MOL0     C17356   0.671   6.585   1.632  0.4195  0.4288  0.4705
  870MOL0     C17357   0.757   6.508   1.738 -0.2212 -0.0130 -0.6691
  870MOL0     C17358   0.742   6.542   1.892 -0.3077 -0.4866  0.4146
  870MOL0     C17359   0.865   6.619   1.941 -0.8994 -0.4237 -0.0167
  870MOL0    Cl17360   0.855   6.782   1.883  0.1663 -0.3340 -0.2132
  870MOL0     C17361   1.117   6.154   1.479  0.9961  0.3598 -0.0468
  870MOL0     C17362   1.258   6.123   1.483 -0.0668  0.8129  0.9869
  870MOL0     O17363   1.542   6.070   1.173  0.0167 -0.2240  0.2149
  870MOL0     C17364   1.742   6.116   1.469  0.1025 -0.6385  0.7361
  870MOL0     C17365   1.869   6.124   1.513  1.0300 -0.4154  0.6500
  870MOL0     N17366   2.268   6.165   1.914 -0.7641 -0.3982 -0.5314
  870MOL0     N17367   2.338   6.109   2.010  1.0493 -0.6796  0.6088
  870MOL0     C17368   3.238   5.768   2.610 -0.2078  0.8026  0.0654
  870MOL0     C17369   3.368   5.763   2.558  0.6710 -0.3063 -0.7590
  870MOL0     C17370   3.763   5.751   2.368 -0.7385  0.4492 -0.5742
  870MOL0     C17371   3.769   5.676   2.250 -0.7556 -0.0436  0.3887
  870MOL0     C17372   3.886   5.622   2.199 -0.0675 -0.3281 -1.1932
  870MOL0     C17373   4.005   5.653   2.261  0.0795  0.3453 -0.7222
  870MOL0     O17374   4.127   5.592   2.216  0.6290  0.0130 -0.3628
  870MOL0     C17375   4.257   5.641   2.252 -0.5777  0.0323 -0.2674
  870MOL0     C17376   4.343   5.623   2.128  0.4149  0.4183  0.3627
  870MOL0     C17377   4.333   5.477   2.083 -0.0240  0.8386  0.6420
  870MOL0     C17378   4.395   5.463   1.945 -0.0090 -0.1727 -0.0875
  870MOL0     C17379   4.302   5.527   1.847  0.2342  0.0036 -0.8136
  870MOL0     C17380   4.220   5.581   1.782 -0.1845 -0.2081 -0.2982
  870MOL0     C17381   4.001   5.741   2.371  0.4001 -0.0068 -0.2643
  870MOL0     C17382   3.877   5.790   2.427  1.0286 -0.1068 -0.2753
  870MOL0     H17383   3.303   5.718   2.235  3.1047  2.6316  0.0860
  870MOL0     H17384   3.077   5.716   2.316  0.2986 -0.0405 -0.3933
  870MOL0     H17385   2.897   5.599   2.491 -0.1463  0.7084 -0.6700
  870MOL0     H17386   2.820   5.681   2.630  1.8361 -1.8901  1.2040
  870MOL0     H17387   2.918   5.840   2.395 -1.0770 -0.2936 -1.5843
  870MOL0     H17388   2.756   5.772   2.387 -0.2067  0.1650  0.5840
  870MOL0     H17389   2.693   5.878   2.596 -0.5056 -0.2938 -2.2346
  870MOL0     H17390   2.856   5.927   2.632  0.2778 -1.2686  1.1863
  870MOL0     H17391   2.762   6.126   2.567  0.0522 -0.1764 -0.6825
  870MOL0     H17392   2.859   6.075   2.419  0.7490  0.8998  0.3598
  870MOL0     H17393   2.650   5.977   2.323  2.1573 -2.0947  1.9953
  870MOL0     H17394   2.558   6.051   2.454  0.2005  1.0591 -0.4979
  870MOL0     H17395   2.617   6.268   2.424 -2.2036  2.0311 -0.7770
  870MOL0     H17396   2.747   6.217   2.308  0.1799 -0.9729  2.3321
  870MOL0     H17397   2.451   6.224   2.258  1.5009  0.3267  2.2981
  870MOL0     H17398   2.558   6.325   2.178 -3.6360  0.8119  1.8765
  870MOL0     H17399   2.560   6.020   2.139 -4.0343 -0.7756 -3.6132
  870MOL0     H17400   2.665   6.139   2.049 -0.3311  2.4820  0.6934
  870MOL0     H17401   2.565   6.290   1.871 -1.6174  1.6723 -1.0311
  870MOL0     H17402   2.214   6.364   1.731 -0.5295  1.3579  1.1598
  870MOL0     H17403   2.363   6.446   1.773 -2.1122 -0.4008  1.9906
  870MOL0     H17404   2.478   6.319   1.578 -0.3552  2.8603  0.1639
  870MOL0     H17405   2.342   6.411   1.526 -0.8671 -0.3175  0.5866
  870MOL0     H17406   2.360   6.113   1.556 -0.6275  0.0929  0.0942
  870MOL0     H17407   2.320   6.215   1.416  3.6238  0.1743  0.4450
  870MOL0     H17408   2.103   6.283   1.537  0.9786  0.2802 -2.0360
  870MOL0     H17409   2.136   6.165   1.667 -0.2898 -0.2251 -0.6959
  870MOL0     H17410   2.038   6.010   1.239  0.3574 -1.1023  0.6990
  870MOL0     H17411   1.907   5.958   1.071 -1.3579 -1.8169 -1.0852
  870MOL0     H17412   1.737   5.916   1.112  0.3511 -1.0653  2.1523
  870MOL0     H17413   1.765   6.077   1.044 -1.3072 -1.6929 -1.6059
  870MOL0     H17414   1.354   6.221   1.177 -1.0243 -1.4924 -1.7735
  870MOL0     H17415   1.094   6.267   1.160  1.6019 -0.0414 -0.6456
  870MOL0     H17416   0.925   6.392   1.239 -0.3000  0.3074  2.2685
  870MOL0     H17417   0.839   6.246   1.169 -0.5375 -1.0302  0.6905
  870MOL0     H17418   0.676   6.420   1.259  2.1351  4.2807  2.4721
  870MOL0     H17419   0.674   6.261   1.348 -1.5130  0.2014 -0.0842
  870MOL0     H17420   0.855   6.493   1.422 -0.3932 -0.9499 -0.8901
  870MOL0     H17421   0.806   6.380   1.538  0.2563  2.4778  1.3177
  870MOL0     H17422   0.661   6.615   1.414  0.2063  1.6578  2.7147
  870MOL0     H17423   0.559   6.489   1.471  0.3582  0.9953 -0.9400
  870MOL0     H17424   0.574   6.604   1.678  0.0468  1.4533 -0.6775
  870MOL0     H17425   0.698   6.691   1.632 -1.1201  0.8370  0.6130
  870MOL0     H17426   0.710   6.409   1.730 -0.2429 -0.0022 -0.6711
  870MOL0     H17427   0.864   6.506   1.715  1.4025 -1.1373  5.2146
  870MOL0     H17428   0.735   6.459   1.962 -1.3425 -0.2807  0.5614
  870MOL0     H17429   0.654   6.603   1.912  0.3285  0.9224 -0.8901
  870MOL0     H17430   0.960   6.569   1.922 -1.2935 -0.6185 -1.7027
  870MOL0     H17431   0.860   6.618   2.050 -2.5145 -0.0703 -0.0538
  870MOL0     H17432   1.056   6.143   1.569  1.0691 -1.3983 -0.1758
  870MOL0     H17433   1.298   6.069   1.568  1.4445 -2.2897 -1.4735
  870MOL0     H17434   1.656   6.146   1.527  0.4024  2.3803 -0.2008
  870MOL0     H17435   1.891   6.154   1.615  3.3607 -2.0402  0.6883
  870MOL0     H17436   3.229   5.770   2.719 -3.3476 -2.3637  0.0458
  870MOL0     H17437   3.451   5.773   2.627 -1.5472  0.4997  2.0086
  870MOL0     H17438   3.685   5.640   2.191  0.1667  1.8202 -2.2313
  870MOL0     H17439   3.878   5.547   2.121 -1.7598 -0.3639 -1.0273
  870MOL0     H17440   4.257   5.745   2.287 -1.3171 -0.1529  0.2947
  870MOL0     H17441   4.309   5.577   2.324 -2.1901 -0.3797  0.5531
  870MOL0     H17442   4.449   5.633   2.152  0.6839 -0.4080 -0.4337
  870MOL0     H17443   4.323   5.693   2.047 -1.4650  0.4680  0.8315
  870MOL0     H17444   4.232   5.436   2.072  0.3047  0.2341 -0.1670
  870MOL0     H17445   4.392   5.423   2.158  3.6841 -2.6335 -4.1274
  870MOL0     H17446   4.411   5.359   1.918 -2.4128 -0.5354 -0.2808
  870MOL0     H17447   4.486   5.524   1.941 -1.5182  2.1473 -1.5358
  870MOL0     H17448   4.152   5.638   1.723 -1.2219 -0.5652  0.5244
  870MOL0     H17449   4.097   5.764   2.418  0.1866  1.8353 -0.6477
  870MOL0     H17450   3.877   5.852   2.516  0.9232  0.1382 -0.4460
  871MOL0     O17451   1.529   5.363   1.922  0.3924  0.3547  0.6274
  871MOL0     C17452   1.597   5.423   1.838 -0.3077  0.8293 -0.3599
  871MOL0     O17453   1.581   5.542   1.793  0.4278 -0.5747 -0.1088
  871MOL0     C17454   1.485   5.624   1.852  0.3049 -0.9104 -0.1154
  871MOL0     C17455   1.353   5.588   1.877  0.0531 -0.2074 -0.4412
  871MOL0     C17456   1.268   5.666   1.958 -0.3355  0.3282 -0.0235
  871MOL0     C17457   1.311   5.784   2.010 -0.0810  0.6866 -0.3937
  871MOL0     O17458   1.227   5.869   2.075 -0.2079 -0.1959 -0.5577
  871MOL0     C17459   1.290   5.941   2.184  0.4417 -0.2255  0.2430
  871MOL0     C17460   1.193   5.953   2.299 -0.3327  0.1404  0.2567
  871MOL0     C17461   1.058   6.020   2.268 -0.6397  0.4043  0.9028
  871MOL0     C17462   0.960   6.033   2.380  0.6380  0.0323 -0.6759
  871MOL0     C17463   0.837   6.110   2.340  0.1787 -0.3665 -0.3014
  871MOL0     C17464   0.723   6.095   2.446 -0.1818 -0.6955  0.9178
  871MOL0     C17465   0.755   6.145   2.584  1.2769 -0.6163  0.0731
  871MOL0     C17466   0.638   6.163   2.678 -0.2004 -0.1478 -0.0542
  871MOL0     N17467   0.524   6.236   2.622 -0.3285 -0.1577 -0.2030
  871MOL0     C17468   0.524   6.373   2.610  0.2940  0.0456  0.7920
  871MOL0     C17469   0.396   6.411   2.575 -0.5038  0.1737  0.8017
  871MOL0     C17470   0.353   6.556   2.575  0.2016  0.0141 -0.1152
  871MOL0     C17471   0.254   6.597   2.459  0.7557 -0.2197 -1.2309
  871MOL0     C17472   0.185   6.742   2.492 -0.5548  0.2235  0.6990
  871MOL0     C17473   0.280   6.844   2.419  0.2931 -0.1089 -0.7469
  871MOL0     O17474   0.266   6.844   2.273  0.0233 -1.0461 -0.3573
  871MOL0     C17475   0.164   6.916   2.214  0.0430 -0.0950  0.1056
  871MOL0     C17476   0.172   6.946   2.078 -0.0031 -0.0278  0.8090
  871MOL0     C17477   0.082   7.016   2.007  0.3967  0.6252 -0.2620
  871MOL0     C17478   0.114   7.037   1.861 -0.2918  0.3531  0.1507
  871MOL0     C17479  -0.050   7.049   2.063  0.3276 -0.6719  0.8443
  871MOL0     C17480  -0.162   7.114   1.991 -0.6277  0.6937  0.2874
  871MOL0     O17481  -0.278   7.132   2.059  0.0390  0.3627 -0.6211
  871MOL0     C17482  -0.386   7.185   1.993  0.6155  0.5928 -0.7383
  871MOL0     C17483  -0.447   7.298   2.047  0.9915 -0.9237  0.5746
  871MOL0     C17484  -0.564   7.354   1.989 -0.5562 -0.6471 -0.5873
  871MOL0     C17485  -0.610   7.293   1.866  0.2392  0.3921 -0.9153
  871MOL0     O17486  -0.722   7.342   1.800 -0.5509  0.1615  0.6400
  871MOL0     C17487  -0.831   7.254   1.824 -0.7595  0.0765  0.0940
  871MOL0     C17488  -0.902   7.230   1.691 -0.3081 -0.5337  0.6345
  871MOL0     C17489  -1.038   7.295   1.683 -0.3559 -0.6990 -0.0004
  871MOL0     C17490  -1.104   7.264   1.550 -0.0475 -0.2598 -0.2013
  871MOL0     C17491  -1.250   7.320   1.556  0.5230  0.7200 -0.8155
  871MOL0     C17492  -1.344   7.245   1.653  0.6296 -0.5052 -0.2394
  871MOL0     C17493  -1.479   7.304   1.659  0.5634  0.2553 -0.1233
  871MOL0     C17494  -1.580   7.233   1.753 -0.9735  0.6344  0.5184
  871MOL0    Cl17495  -1.635   7.081   1.675 -0.1308 -0.2521  0.2028
  871MOL0     C17496  -0.550   7.174   1.819  0.0871 -0.4780 -0.7906
  871MOL0     C17497  -0.439   7.127   1.885  1.0183  0.5145 -0.1658
  871MOL0     O17498  -0.144   7.153   1.876 -0.4626  0.3854 -0.3601
  871MOL0     C17499  -0.063   7.023   2.205  0.0326  0.8207  0.4050
  871MOL0     C17500   0.046   6.961   2.274  0.2673  1.1797 -0.8142
  871MOL0     N17501   0.323   6.293   2.561  0.3104 -0.1165 -0.1994
  871MOL0     N17502   0.396   6.191   2.595  0.0674  0.0017 -0.2159
  871MOL0     C17503   1.442   5.833   1.976 -0.5796  0.3971  0.2769
  871MOL0     C17504   1.530   5.746   1.899  1.0026  0.5457  0.0725
  871MOL0     C17505   1.711   5.336   1.795  0.9077 -0.6001  1.0836
  871MOL0     C17506   1.780   5.252   1.875  0.0816  0.4123 -0.1553
  871MOL0     C17507   1.903   5.185   1.840 -0.0796 -0.4661  1.5550
  871MOL0     C17508   1.960   5.212   1.713  0.0197  0.3916  0.1697
  871MOL0     O17509   2.079   5.157   1.681  0.3344 -0.6026  0.0882
  871MOL0     C17510   2.170   5.261   1.658  0.4203 -0.1513 -0.1563
  871MOL0     C17511   2.298   5.217   1.719 -0.5110  0.4067 -0.4146
  871MOL0     C17512   2.350   5.069   1.690 -0.1025 -0.1702  0.4129
  871MOL0     C17513   2.428   5.065   1.555  1.0914  0.1092 -0.5097
  871MOL0     C17514   2.495   4.938   1.543  0.3718  0.6463  0.3333
  871MOL0     C17515   2.552   4.833   1.535  0.2948  0.4308 -0.3172
  871MOL0     C17516   1.893   5.307   1.630  1.2079 -0.2176  0.6387
  871MOL0     C17517   1.763   5.357   1.665 -1.8683 -1.0096  0.0011
  871MOL0     H17518   1.314   5.493   1.843 -1.9595  0.3970  0.0297
  871MOL0     H17519   1.164   5.645   1.980 -0.2945  0.6909  0.5254
  871MOL0     H17520   1.378   5.891   2.226  0.2044 -1.7209 -0.9913
  871MOL0     H17521   1.330   6.038   2.152  2.3057 -1.5361 -1.6448
  871MOL0     H17522   1.175   5.848   2.322  2.4967 -0.2315  1.1578
  871MOL0     H17523   1.232   6.000   2.390 -1.5087  1.3387  0.1794
  871MOL0     H17524   1.091   6.114   2.223 -0.6560  0.1420  0.3365
  871MOL0     H17525   1.007   5.960   2.192 -2.9447 -0.3559  2.9135
  871MOL0     H17526   0.920   5.941   2.424 -1.5051  0.9914 -0.5258
  871MOL0     H17527   1.011   6.085   2.462 -0.9183 -0.9298  0.9766
  871MOL0     H17528   0.859   6.216   2.327 -1.0471 -0.4234 -3.6444
  871MOL0     H17529   0.788   6.070   2.251 -1.7239  1.1001  0.0297
  871MOL0     H17530   0.640   6.150   2.401  2.3054  1.3258 -1.5441
  871MOL0     H17531   0.695   5.991   2.464  2.1274 -1.7133 -0.8830
  871MOL0     H17532   0.827   6.081   2.636  0.5939 -0.4497  1.2368
  871MOL0     H17533   0.802   6.243   2.570 -1.2387  0.4173 -2.2825
  871MOL0     H17534   0.680   6.217   2.763  1.3286  0.1486 -0.9656
  871MOL0     H17535   0.614   6.064   2.720  1.5789  0.5700  2.9376
  871MOL0     H17536   0.608   6.436   2.636  0.9852 -0.8538  0.7981
  871MOL0     H17537   0.295   6.573   2.667 -2.7888  1.1549 -2.0639
  871MOL0     H17538   0.437   6.623   2.596 -1.2517  1.6125  0.8724
  871MOL0     H17539   0.176   6.523   2.442 -0.0345 -0.0690  1.2430
  871MOL0     H17540   0.315   6.605   2.369  3.1166 -0.1879  0.2495
  871MOL0     H17541   0.175   6.751   2.600 -1.1665 -3.6424  1.1050
  871MOL0     H17542   0.086   6.734   2.446 -0.3819 -2.8210  0.6878
  871MOL0     H17543   0.383   6.832   2.452 -0.7916  2.2591  4.6884
  871MOL0     H17544   0.242   6.944   2.445 -1.8273 -0.0254 -3.6566
  871MOL0     H17545   0.262   6.914   2.025  0.8317  1.4945  1.2460
  871MOL0     H17546   0.073   7.128   1.815 -1.1733 -0.2373 -0.2655
  871MOL0     H17547   0.223   7.047   1.861  0.0446 -2.1551 -1.9823
  871MOL0     H17548   0.081   6.949   1.804 -0.1773  0.1779  0.3549
  871MOL0     H17549  -0.392   7.359   2.118  0.4272 -0.3570  0.5343
  871MOL0     H17550  -0.609   7.435   2.045  0.5440 -1.9969  2.4424
  871MOL0     H17551  -0.796   7.158   1.862 -0.3917  0.3529  0.4554
  871MOL0     H17552  -0.898   7.307   1.892  0.1675  1.1498  0.2030
  871MOL0     H17553  -0.843   7.267   1.606 -1.4064  1.3314  0.6310
  871MOL0     H17554  -0.916   7.125   1.664  3.2344 -0.6164 -1.5108
  871MOL0     H17555  -1.026   7.399   1.713 -1.4863 -1.1525  2.2208
  871MOL0     H17556  -1.093   7.258   1.770 -0.7727  2.6371  1.2851
  871MOL0     H17557  -1.048   7.310   1.468  2.1284 -3.2999 -0.6371
  871MOL0     H17558  -1.109   7.157   1.525  0.1561  0.0582 -1.6589
  871MOL0     H17559  -1.302   7.312   1.460 -1.6970 -0.7277  0.4038
  871MOL0     H17560  -1.242   7.424   1.590 -1.2128  0.6275 -0.0152
  871MOL0     H17561  -1.340   7.138   1.633 -1.5680 -1.1384  2.1680
  871MOL0     H17562  -1.309   7.240   1.757 -0.1947 -0.1998  0.0600
  871MOL0     H17563  -1.522   7.310   1.559  0.3208 -0.8489 -0.0949
  871MOL0     H17564  -1.456   7.402   1.702  1.1281  0.0695  0.0063
  871MOL0     H17565  -1.672   7.290   1.765 -1.6177 -0.5386  1.3550
  871MOL0     H17566  -1.527   7.215   1.847  1.1650  1.3017 -0.4896
  871MOL0     H17567  -0.587   7.113   1.737 -0.6432  0.5162 -1.2281
  871MOL0     H17568  -0.404   7.030   1.852 -1.9761 -1.4514  1.9560
  871MOL0     H17569  -0.151   7.048   2.263  0.1318 -0.3102  1.0683
  871MOL0     H17570   0.032   6.932   2.378  3.3729  0.3416 -0.5117
  871MOL0     H17571   1.490   5.924   2.009  0.3601 -0.1145  0.3545
  871MOL0     H17572   1.638   5.758   1.897  1.3298 -1.6654  1.2482
  871MOL0     H17573   1.743   5.224   1.974  0.0622 -2.1195 -0.8270
  871MOL0     H17574   1.951   5.108   1.900  2.1339 -0.2714  0.1427
  871MOL0     H17575   2.177   5.280   1.550  1.3712 -0.9633 -0.2476
  871MOL0     H17576   2.139   5.358   1.696  2.7188  1.3328 -1.8124
  871MOL0     H17577   2.288   5.217   1.828  0.1497 -2.1040 -0.2789
  871MOL0     H17578   2.379   5.285   1.691 -0.6925  0.3013 -1.2348
  871MOL0     H17579   2.265   5.001   1.694  0.2026 -0.4908  2.3908
  871MOL0     H17580   2.413   5.032   1.771  1.2674 -0.0197 -0.5420
  871MOL0     H17581   2.512   5.134   1.571 -0.2053  1.1757  2.2151
  871MOL0     H17582   2.355   5.087   1.477 -1.0769 -1.0226  1.0947
  871MOL0     H17583   2.616   4.748   1.528  0.4141  0.5000 -0.0941
  871MOL0     H17584   1.939   5.321   1.532  0.8782 -1.1362  0.3348
  871MOL0     H17585   1.707   5.418   1.594 -1.9957 -0.1643  0.8041
  872MOL0     O17586   6.740  10.265   3.294  0.0489  0.0447  0.3816
  872MOL0     C17587   6.813  10.261   3.199 -0.2797  0.2730  0.3691
  872MOL0     O17588   6.781  10.317   3.080 -0.8814  0.3070  0.0581
  872MOL0     C17589   6.678  10.409   3.065 -0.0302  0.4634  0.2320
  872MOL0     C17590   6.705  10.537   3.035 -0.4610  0.4488  0.8379
  872MOL0     C17591   6.604  10.634   3.008 -0.2186 -1.0430  0.1958
  872MOL0     C17592   6.472  10.588   3.011  0.0530 -1.0399  0.3026
  872MOL0     O17593   6.376  10.681   2.977 -0.0877 -0.2582 -0.5374
  872MOL0     C17594   6.237  10.637   2.998  0.2161 -0.4586  0.2374
  872MOL0     C17595   6.148  10.753   2.952 -0.0077  0.3903  0.9676
  872MOL0     C17596   6.001  10.707   2.947 -0.9798 -0.5879 -0.2536
  872MOL0     C17597   5.943  10.712   2.808 -0.1534 -0.8395  0.5246
  872MOL0     C17598   5.803  10.674   2.804 -1.2156  0.5350  0.7278
  872MOL0     C17599   5.707  10.794   2.831  0.0878  0.3625 -0.4167
  872MOL0     C17600   5.563  10.772   2.804  0.3435 -0.1984  0.0253
  872MOL0     C17601   5.497  10.734   2.941  0.3964 -0.0666 -0.4071
  872MOL0     N17602   5.366  10.666   2.905 -0.2526  0.3854  0.1448
  872MOL0     C17603   5.356  10.528   2.899  0.2809  0.1239  0.1473
  872MOL0     C17604   5.228  10.507   2.911 -0.3398  0.2778 -0.6582
  872MOL0     C17605   5.166  10.379   2.963  0.2723 -0.2067 -0.1467
  872MOL0     C17606   5.014  10.391   2.961 -0.3837  0.1756  1.9539
  872MOL0     C17607   4.939  10.270   2.983 -0.1383  0.8393 -0.1128
  872MOL0     C17608   4.789  10.289   2.953 -0.4627 -0.6645  0.1058
  872MOL0     O17609   4.743  10.165   2.993  0.0650  0.7564 -0.2637
  872MOL0     C17610   4.611  10.147   2.974 -0.2474 -0.1603 -0.4206
  872MOL0     C17611   4.562  10.024   3.023  0.7642  0.2735 -1.2948
  872MOL0     C17612   4.435   9.976   3.000  0.0569  0.2615  0.4616
  872MOL0     C17613   4.412   9.837   3.047  0.2388 -0.2126 -0.1615
  872MOL0     C17614   4.343  10.064   2.930 -0.1245  0.5530 -0.2707
  872MOL0     C17615   4.199  10.029   2.901 -0.0351 -0.6929 -0.7146
  872MOL0     O17616   4.113  10.138   2.880 -0.1278  0.1714  0.1988
  872MOL0     C17617   3.976  10.116   2.881  0.4686  0.8705  0.1962
  872MOL0     C17618   3.912  10.039   2.975 -0.0729 -0.3560 -0.2013
  872MOL0     C17619   3.775  10.008   2.956 -0.0969 -0.8861 -0.1748
  872MOL0     C17620   3.707  10.059   2.844  0.6809  1.0162 -0.4473
  872MOL0     O17621   3.573  10.041   2.837 -0.2957 -1.0733 -0.1012
  872MOL0     C17622   3.514  10.074   2.711  1.2125  0.3999 -0.1880
  872MOL0     C17623   3.366  10.022   2.703 -0.2304 -0.0769 -0.4710
  872MOL0     C17624   3.269  10.119   2.778  0.3493  0.9230 -0.4863
  872MOL0     C17625   3.142  10.046   2.828 -0.2523 -0.6740  0.1822
  872MOL0     C17626   3.038  10.167   2.834 -0.0445  0.5010 -0.5929
  872MOL0     C17627   2.917  10.107   2.915 -1.7331  0.1323  1.2120
  872MOL0     C17628   2.791  10.196   2.911 -0.2811 -0.0068 -0.2761
  872MOL0     C17629   2.773  10.262   3.045 -1.1480 -0.3387 -0.0667
  872MOL0    Cl17630   2.911  10.365   3.065 -0.3095  0.0511  0.4537
  872MOL0     C17631   3.772  10.146   2.755  0.5224 -0.4681 -0.3329
  872MOL0     C17632   3.912  10.174   2.776 -0.6177 -0.4598 -0.0880
  872MOL0     O17633   4.164   9.914   2.894 -0.2030  0.0087 -0.2884
  872MOL0     C17634   4.389  10.196   2.896 -0.5261  0.1738 -1.0990
  872MOL0     C17635   4.520  10.239   2.920 -0.3376  0.4391  0.3634
  872MOL0     N17636   5.160  10.624   2.919  0.9839  0.0249  0.3294
  872MOL0     N17637   5.243  10.714   2.920  0.5601  0.2956  0.2049
  872MOL0     C17638   6.444  10.451   3.049 -0.2673 -0.6176  0.3523
  872MOL0     C17639   6.545  10.365   3.076 -0.2553  0.2094 -0.2346
  872MOL0     C17640   6.944  10.186   3.202 -0.0309  0.3407 -0.4719
  872MOL0     C17641   7.024  10.171   3.091 -0.0324 -0.6605 -0.3915
  872MOL0     C17642   7.144  10.098   3.089 -1.0801  0.2534 -0.0016
  872MOL0     C17643   7.186  10.034   3.202  0.1074 -0.0632  0.1246
  872MOL0     O17644   7.305   9.971   3.197  0.3822  0.4739  0.1580
  872MOL0     C17645   7.349   9.894   3.307  0.6352 -0.6438  0.5897
  872MOL0     C17646   7.476   9.832   3.268  0.1321 -1.1388 -0.0975
  872MOL0     C17647   7.522   9.728   3.372 -0.5799  0.7800 -1.1524
  872MOL0     C17648   7.671   9.690   3.354 -0.0798  0.1051 -1.4149
  872MOL0     C17649   7.707   9.630   3.222  0.2518  0.1462 -1.1118
  872MOL0     C17650   7.744   9.587   3.114 -0.2102  0.8798 -0.3297
  872MOL0     C17651   7.098  10.035   3.315  0.6157  0.3683 -0.3400
  872MOL0     C17652   6.980  10.116   3.322  1.0867 -0.0664  0.2287
  872MOL0     H17653   6.806  10.576   3.044  0.2089 -0.7211 -1.0630
  872MOL0     H17654   6.634  10.737   2.990 -1.9200 -0.4404  0.5639
  872MOL0     H17655   6.229  10.543   2.942  0.7147  0.1316 -0.8499
  872MOL0     H17656   6.220  10.607   3.101 -1.7339  0.0477  0.1145
  872MOL0     H17657   6.163  10.841   3.015 -0.3370  1.1088  0.0712
  872MOL0     H17658   6.183  10.779   2.852 -1.9101 -1.5614 -0.2887
  872MOL0     H17659   5.987  10.607   2.989 -0.9630 -0.4767  0.0165
  872MOL0     H17660   5.940  10.769   3.013 -1.2802 -0.2613 -0.8253
  872MOL0     H17661   5.939  10.812   2.764 -1.2752 -0.9593  0.3304
  872MOL0     H17662   6.010  10.659   2.738  0.1498 -0.5144  0.5660
  872MOL0     H17663   5.782  10.623   2.710  1.5683  1.6721 -0.6435
  872MOL0     H17664   5.785  10.606   2.889 -2.8885  0.4580  0.3258
  872MOL0     H17665   5.734  10.836   2.929 -0.8487 -0.8788  0.4117
  872MOL0     H17666   5.731  10.864   2.751  0.1008 -1.6532 -2.2512
  872MOL0     H17667   5.524  10.870   2.774 -0.0396  0.0078  1.1687
  872MOL0     H17668   5.539  10.700   2.726 -3.0320  2.3565 -1.5718
  872MOL0     H17669   5.466  10.817   3.005 -2.1236 -0.8499 -0.4756
  872MOL0     H17670   5.554  10.668   3.007  0.8205 -0.5152 -1.2032
  872MOL0     H17671   5.426  10.446   2.894 -0.8608 -0.9733  1.3411
  872MOL0     H17672   5.195  10.297   2.896  1.1482 -0.4932  0.5613
  872MOL0     H17673   5.202  10.358   3.065 -1.2867  0.9782  0.6928
  872MOL0     H17674   4.991  10.431   2.862 -1.5298 -0.5387  1.9093
  872MOL0     H17675   4.989  10.460   3.041 -1.1348  2.1665  0.0816
  872MOL0     H17676   4.962  10.241   3.086 -1.5487  2.2742  0.6470
  872MOL0     H17677   4.981  10.193   2.919  2.7041  1.0497  1.3127
  872MOL0     H17678   4.775  10.300   2.845 -0.3437 -1.3998  0.0081
  872MOL0     H17679   4.760  10.380   3.007  2.9041  0.2531  0.5501
  872MOL0     H17680   4.639   9.969   3.077 -2.2151 -3.2204 -0.1766
  872MOL0     H17681   4.475   9.813   3.134 -0.4219  2.8767  1.3336
  872MOL0     H17682   4.306   9.828   3.073  0.1770 -2.5282 -1.0473
  872MOL0     H17683   4.431   9.768   2.965 -2.2549  0.0860 -1.0937
  872MOL0     H17684   3.974  10.001   3.055 -0.7514 -0.7335  0.1562
  872MOL0     H17685   3.724   9.948   3.030 -0.5585 -0.7143 -0.3480
  872MOL0     H17686   3.507  10.179   2.683 -0.3287 -0.3476 -2.9686
  872MOL0     H17687   3.576  10.023   2.638  3.0784  2.9912 -0.5329
  872MOL0     H17688   3.341  10.014   2.597  0.2342  0.2536 -0.6058
  872MOL0     H17689   3.360   9.927   2.757  0.4826  0.7672  1.1794
  872MOL0     H17690   3.243  10.203   2.713 -0.3032  1.4035  0.3750
  872MOL0     H17691   3.321  10.156   2.867  0.7874 -1.3324  0.2815
  872MOL0     H17692   3.108   9.977   2.751 -1.8257  1.4113 -1.0843
  872MOL0     H17693   3.149   9.995   2.925 -0.1604 -2.2076 -0.6088
  872MOL0     H17694   3.007  10.194   2.733  0.8788  1.8743 -0.5362
  872MOL0     H17695   3.080  10.246   2.897 -0.3935  0.1892  0.0457
  872MOL0     H17696   2.895  10.007   2.874 -4.2032  1.2575 -0.4606
  872MOL0     H17697   2.949  10.081   3.017 -1.3536 -0.4331  0.9559
  872MOL0     H17698   2.702  10.137   2.887 -1.3250  0.7021  1.6630
  872MOL0     H17699   2.797  10.280   2.840  0.1793  2.1636  2.1875
  872MOL0     H17700   2.775  10.189   3.125  1.8481  0.2947  0.5350
  872MOL0     H17701   2.679  10.319   3.046 -1.6160 -1.0741 -0.6885
  872MOL0     H17702   3.722  10.198   2.674 -0.3455  0.3145  0.6712
  872MOL0     H17703   3.965  10.236   2.704 -3.6163  0.4458 -1.6886
  872MOL0     H17704   4.317  10.256   2.841 -3.1080 -2.0950 -0.4250
  872MOL0     H17705   4.553  10.337   2.887  0.1728 -0.4822 -2.1234
  872MOL0     H17706   6.343  10.413   3.051 -0.2220 -0.7108  1.6271
  872MOL0     H17707   6.511  10.265   3.102 -2.3845  0.6167 -1.2086
  872MOL0     H17708   6.988  10.219   3.000 -1.5859 -0.1694  0.4466
  872MOL0     H17709   7.200  10.085   2.996  0.8646 -0.8417  1.2594
  872MOL0     H17710   7.374   9.964   3.388  0.3358  1.3623 -0.9541
  872MOL0     H17711   7.269   9.832   3.348 -0.3370  0.1512 -0.0545
  872MOL0     H17712   7.553   9.908   3.280 -0.9336  0.0342 -0.5066
  872MOL0     H17713   7.483   9.789   3.168 -1.9059 -0.8344 -0.4155
  872MOL0     H17714   7.454   9.642   3.376  0.4411 -0.0000  0.3927
  872MOL0     H17715   7.518   9.783   3.466  2.6921  0.3347 -0.6411
  872MOL0     H17716   7.689   9.618   3.434  2.0729  2.3773  0.3293
  872MOL0     H17717   7.727   9.780   3.381 -1.8109  0.5034  1.1976
  872MOL0     H17718   7.791   9.541   3.030  0.6594 -2.3686  1.7626
  872MOL0     H17719   7.127   9.999   3.413 -0.8113  2.9472  1.1239
  872MOL0     H17720   6.922  10.106   3.413 -2.5794 -5.2510 -2.2264
  873MOL0     O17721   8.470   9.613   3.437  0.5697  0.0385 -0.2280
  873MOL0     C17722   8.557   9.545   3.483  0.2257  0.0755 -0.4969
  873MOL0     O17723   8.546   9.443   3.580 -0.5897 -0.4466  0.3356
  873MOL0     C17724   8.431   9.388   3.635  0.0574 -0.2793  0.1887
  873MOL0     C17725   8.446   9.268   3.699 -0.7340 -0.1503  0.1551
  873MOL0     C17726   8.348   9.212   3.776 -0.6369  0.4602  0.4756
  873MOL0     C17727   8.220   9.279   3.782 -0.0325 -0.1062 -0.3793
  873MOL0     O17728   8.123   9.220   3.862 -0.1840 -0.0095  0.1879
  873MOL0     C17729   8.089   9.294   3.976  1.1312 -0.6579 -1.2406
  873MOL0     C17730   7.943   9.255   4.009 -0.2798 -0.2542 -0.7159
  873MOL0     C17731   7.841   9.312   3.912  0.4048 -0.0345  1.7666
  873MOL0     C17732   7.700   9.239   3.914  0.4363  0.0092 -0.7641
  873MOL0     C17733   7.582   9.332   3.912  0.8339 -0.6938  0.0907
  873MOL0     C17734   7.567   9.417   3.783  0.2797  1.2133  0.0545
  873MOL0     C17735   7.426   9.485   3.779  0.7554 -0.6404 -0.6608
  873MOL0     C17736   7.396   9.559   3.644  0.1298 -0.2547  0.6841
  873MOL0     N17737   7.261   9.630   3.642 -0.0116  0.7777 -0.3958
  873MOL0     C17738   7.142   9.566   3.632 -0.4201  0.3417  0.7471
  873MOL0     C17739   7.055   9.661   3.599 -0.0692  0.5868 -0.1717
  873MOL0     C17740   6.913   9.648   3.554 -0.8498  0.7789 -0.2325
  873MOL0     C17741   6.850   9.783   3.544 -0.5544  0.5464 -1.0238
  873MOL0     C17742   6.704   9.764   3.503  0.2641  0.4299 -0.0231
  873MOL0     C17743   6.635   9.902   3.476  0.3133 -0.0164 -0.6689
  873MOL0     O17744   6.498   9.873   3.437 -0.1638 -0.6990  0.5384
  873MOL0     C17745   6.419   9.985   3.401 -0.5437 -0.0094  0.0050
  873MOL0     C17746   6.457  10.126   3.412  0.6414 -0.0503  0.8570
  873MOL0     C17747   6.359  10.226   3.371  0.0682  0.5379  0.5107
  873MOL0     C17748   6.385  10.372   3.410  0.4405 -0.3078 -0.1543
  873MOL0     C17749   6.233  10.177   3.316 -0.0692 -0.2546 -0.8683
  873MOL0     C17750   6.123  10.274   3.279  0.0170  0.6455  0.2118
  873MOL0     O17751   5.995  10.233   3.313  0.2015  0.8550  0.4471
  873MOL0     C17752   5.890  10.301   3.266  0.9289  0.3989  0.8794
  873MOL0     C17753   5.783  10.219   3.237  0.2964 -0.7033 -0.7569
  873MOL0     C17754   5.653  10.275   3.216  0.3558  0.7714 -1.0430
  873MOL0     C17755   5.640  10.415   3.200 -0.4157  0.2745  1.1133
  873MOL0     O17756   5.519  10.473   3.184 -0.1415  0.5660  0.0464
  873MOL0     C17757   5.419  10.423   3.272  0.4778  0.3284 -0.7165
  873MOL0     C17758   5.351  10.533   3.351  0.3380 -0.2226  0.3850
  873MOL0     C17759   5.244  10.607   3.258  1.0152  0.1720  0.1330
  873MOL0     C17760   5.157  10.683   3.355 -0.2650  0.3574 -0.5063
  873MOL0     C17761   5.044  10.762   3.281 -0.6350  0.1794 -0.9873
  873MOL0     C17762   4.945  10.822   3.383 -0.4903  0.1122  0.1251
  873MOL0     C17763   4.993  10.919   3.488 -0.4788 -0.3497  0.2069
  873MOL0     C17764   4.884  11.011   3.541  0.9411 -0.3440 -0.1974
  873MOL0    Cl17765   4.843  11.128   3.420 -0.4847 -0.2689 -0.4367
  873MOL0     C17766   5.749  10.501   3.210 -0.1988  0.3023  0.0200
  873MOL0     C17767   5.870  10.440   3.243  0.3154 -0.2721 -0.4382
  873MOL0     O17768   6.156  10.374   3.213  0.4066 -0.0591 -0.1820
  873MOL0     C17769   6.199  10.039   3.326  0.4313 -0.5089 -0.0335
  873MOL0     C17770   6.295   9.948   3.352 -0.1220  0.3229  0.0622
  873MOL0     N17771   7.110   9.783   3.611  0.0652 -0.4083  0.1515
  873MOL0     N17772   7.232   9.764   3.644 -0.7238  0.2081  0.1102
  873MOL0     C17773   8.203   9.395   3.706  0.7846  0.4773 -0.0965
  873MOL0     C17774   8.309   9.456   3.643  0.6406  0.4347  0.0981
  873MOL0     C17775   8.697   9.568   3.431  0.0154  0.2810  0.5394
  873MOL0     C17776   8.723   9.674   3.346 -0.5552 -0.7463 -1.0989
  873MOL0     C17777   8.853   9.692   3.298  0.3674  0.2481 -0.3438
  873MOL0     C17778   8.960   9.600   3.323  0.4312  0.7018 -0.1827
  873MOL0     O17779   9.081   9.609   3.266  0.2576 -0.4289 -0.7822
  873MOL0     C17780   9.133   9.734   3.213 -0.7854 -0.7660  0.8915
  873MOL0     C17781   9.281   9.745   3.259 -0.1230  0.4103  0.5298
  873MOL0     C17782   9.361   9.871   3.211  0.0538 -1.1607 -0.8371
  873MOL0     C17783   9.511   9.878   3.254  1.0320  0.3025  0.6232
  873MOL0     C17784   9.583   9.784   3.169  0.7761  0.0737  0.0324
  873MOL0     C17785   9.638   9.695   3.113  0.2443 -0.7338  0.4540
  873MOL0     C17786   8.918   9.483   3.391  0.2496 -0.5750 -0.6632
  873MOL0     C17787   8.800   9.468   3.453  0.3088 -0.2665  0.1640
  873MOL0     H17788   8.543   9.219   3.702 -0.3071  0.3711 -2.7329
  873MOL0     H17789   8.372   9.121   3.830 -0.2096 -0.8727 -1.8485
  873MOL0     H17790   8.150   9.263   4.062  0.9718  0.3046 -0.7607
  873MOL0     H17791   8.098   9.402   3.958 -0.4737 -0.2966 -0.1298
  873MOL0     H17792   7.932   9.148   4.030 -0.1104 -0.7270 -2.8600
  873MOL0     H17793   7.923   9.302   4.106 -0.1371  0.9586 -1.2559
  873MOL0     H17794   7.828   9.419   3.930  0.6594  0.8862 -2.4308
  873MOL0     H17795   7.877   9.301   3.809 -1.3535 -1.0069  1.2191
  873MOL0     H17796   7.695   9.178   3.823  0.0979  0.3965 -1.0130
  873MOL0     H17797   7.702   9.166   3.995  1.6019 -0.3205 -1.0808
  873MOL0     H17798   7.496   9.265   3.920  0.2702  0.1407  1.2834
  873MOL0     H17799   7.584   9.395   4.001 -1.5883 -1.8295  1.0596
  873MOL0     H17800   7.638   9.499   3.772  2.9050 -0.9694 -0.3152
  873MOL0     H17801   7.575   9.350   3.697  0.8804  0.0011  1.0233
  873MOL0     H17802   7.355   9.403   3.796 -1.2061  1.0166 -0.5757
  873MOL0     H17803   7.429   9.555   3.863  0.9732  2.0113 -2.7628
  873MOL0     H17804   7.407   9.482   3.567  1.8184  0.2084  0.4106
  873MOL0     H17805   7.468   9.641   3.632 -0.6268  0.4948  1.1434
  873MOL0     H17806   7.116   9.461   3.642 -1.2132  0.7052  2.9556
  873MOL0     H17807   6.911   9.604   3.454 -1.8199 -0.6358  0.3765
  873MOL0     H17808   6.865   9.587   3.631  1.3662 -1.9457 -0.8577
  873MOL0     H17809   6.898   9.832   3.459 -0.4548  2.0376 -0.1543
  873MOL0     H17810   6.860   9.841   3.636  2.3779  0.4253 -1.1782
  873MOL0     H17811   6.651   9.705   3.578 -1.0237  0.9091 -0.5281
  873MOL0     H17812   6.695   9.709   3.409  1.8265  1.0448 -0.5716
  873MOL0     H17813   6.700   9.950   3.402  0.5503  0.0490 -0.4194
  873MOL0     H17814   6.636   9.963   3.567 -2.1196 -0.3371 -0.3573
  873MOL0     H17815   6.548  10.142   3.469 -0.4861 -0.4916  2.8998
  873MOL0     H17816   6.407  10.437   3.325 -1.6328  1.6579  0.7106
  873MOL0     H17817   6.298  10.414   3.461  2.7194  1.8786  2.2741
  873MOL0     H17818   6.447  10.388   3.499 -4.6039  2.2764  3.3682
  873MOL0     H17819   5.795  10.112   3.247 -0.0299 -0.7915 -1.2388
  873MOL0     H17820   5.563  10.215   3.204  0.1234  1.1398 -1.1850
  873MOL0     H17821   5.352  10.348   3.229 -0.7766  1.1232 -0.2057
  873MOL0     H17822   5.478  10.370   3.347  1.1808 -1.6187 -2.5459
  873MOL0     H17823   5.301  10.473   3.427 -1.9821  0.8711 -0.1880
  873MOL0     H17824   5.412  10.597   3.415  1.3732 -0.5301 -0.2596
  873MOL0     H17825   5.178  10.534   3.209 -0.0252  1.4218 -0.3691
  873MOL0     H17826   5.300  10.676   3.195  1.2354  2.0915  2.2979
  873MOL0     H17827   5.109  10.615   3.426  0.5949 -1.5928 -1.6994
  873MOL0     H17828   5.216  10.748   3.420  1.0743 -2.5110  1.3499
  873MOL0     H17829   4.984  10.691   3.224 -0.9513  0.9651 -1.6326
  873MOL0     H17830   5.091  10.841   3.223  0.1751  1.7546  1.6174
  873MOL0     H17831   4.863  10.869   3.328 -0.1366  0.6204  0.0299
  873MOL0     H17832   4.902  10.740   3.441  1.5152  0.9735  3.0791
  873MOL0     H17833   5.073  10.980   3.445  0.6219 -1.4681  0.5994
  873MOL0     H17834   5.042  10.857   3.565  1.3242  0.1967 -0.4514
  873MOL0     H17835   4.920  11.062   3.631 -1.2720 -1.7272  1.5650
  873MOL0     H17836   4.791  10.959   3.566  0.5401  0.9862  1.2756
  873MOL0     H17837   5.736  10.608   3.201  0.0685  0.1880 -2.3978
  873MOL0     H17838   5.952  10.510   3.258  0.4094  0.0088 -2.0837
  873MOL0     H17839   6.096  10.008   3.310  0.3787 -0.5334  0.3347
  873MOL0     H17840   6.282   9.841   3.339  0.9336  0.4216 -2.3063
  873MOL0     H17841   8.112   9.454   3.711 -0.2386 -1.1130  1.1442
  873MOL0     H17842   8.292   9.560   3.616 -1.1279  0.0395 -0.4832
  873MOL0     H17843   8.655   9.758   3.338  0.2584  0.0745  0.1139
  873MOL0     H17844   8.873   9.781   3.238 -2.7750 -0.6151 -2.9461
  873MOL0     H17845   9.119   9.737   3.105 -2.2118  2.1218  1.0516
  873MOL0     H17846   9.081   9.820   3.258 -1.2495  0.3115 -1.5576
  873MOL0     H17847   9.336   9.661   3.215  0.2426  1.5549 -1.3278
  873MOL0     H17848   9.290   9.746   3.368  0.8169  1.1156  0.4578
  873MOL0     H17849   9.314   9.949   3.273  0.3244 -1.7430  0.1294
  873MOL0     H17850   9.346   9.903   3.108 -0.0501  0.3522 -0.3777
  873MOL0     H17851   9.528   9.858   3.361  0.1018  1.1326  0.9410
  873MOL0     H17852   9.556   9.976   3.234 -1.3395  1.2596 -0.3213
  873MOL0     H17853   9.683   9.614   3.060  2.3195  0.9261 -0.4964
  873MOL0     H17854   8.985   9.398   3.399  1.5250  0.4736  0.1962
  873MOL0     H17855   8.783   9.389   3.525 -0.1078  1.9127  2.6250
  874MOL0     O17856   6.493   2.368   0.119  0.0255  0.2901 -0.0986
  874MOL0     C17857   6.541   2.436   0.034  0.0206 -0.4460 -0.2197
  874MOL0     O17858   6.478   2.498  -0.073 -0.0822 -0.3911  0.0603
  874MOL0     C17859   6.349   2.441  -0.103 -0.4814  0.7456  0.8080
  874MOL0     C17860   6.240   2.476  -0.033 -0.1388 -0.2604  0.0444
  874MOL0     C17861   6.116   2.421  -0.067 -0.2233 -0.5750 -0.3624
  874MOL0     C17862   6.101   2.327  -0.169  0.0386 -0.2197  0.8484
  874MOL0     O17863   5.971   2.286  -0.193 -0.3282  0.2493 -0.1036
  874MOL0     C17864   5.946   2.167  -0.265 -0.4365 -0.6993 -0.1199
  874MOL0     C17865   5.802   2.125  -0.270  0.3877  1.0055 -0.3366
  874MOL0     C17866   5.769   2.021  -0.159  0.3614 -1.0396  0.3875
  874MOL0     C17867   5.625   1.974  -0.164 -0.5638 -1.0800  0.0657
  874MOL0     C17868   5.598   1.867  -0.067 -0.2422  0.9561  0.6991
  874MOL0     C17869   5.447   1.817  -0.079  0.8191 -1.2270  0.1978
  874MOL0     C17870   5.331   1.907  -0.021  0.1515  0.0168 -0.6642
  874MOL0     C17871   5.346   1.922   0.136 -0.7949  0.1325 -0.3630
  874MOL0     N17872   5.242   2.006   0.193 -0.3476 -0.2397 -0.5090
  874MOL0     C17873   5.196   2.123   0.140  0.3935 -1.0855 -0.2994
  874MOL0     C17874   5.091   2.158   0.220  0.6414 -0.1580  0.0350
  874MOL0     C17875   5.019   2.298   0.206  0.1544 -0.5191 -0.1874
  874MOL0     C17876   4.867   2.288   0.179 -0.7434 -0.2683 -0.3892
  874MOL0     C17877   4.832   2.325   0.039  0.2199 -0.5178 -0.1202
  874MOL0     C17878   4.679   2.327   0.029  0.0039 -0.1005  0.0424
  874MOL0     O17879   4.638   2.188   0.032 -0.4399  0.5520 -0.0247
  874MOL0     C17880   4.508   2.170   0.076 -0.0332  0.6986  0.3320
  874MOL0     C17881   4.400   2.224   0.002 -0.2844  0.2602 -0.7971
  874MOL0     C17882   4.265   2.199   0.031 -0.0457 -0.5939  0.0144
  874MOL0     C17883   4.173   2.265  -0.066 -0.2882  1.4324  0.3429
  874MOL0     C17884   4.239   2.131   0.158 -0.2906 -0.3604  0.5316
  874MOL0     C17885   4.098   2.125   0.213  0.2617 -0.6108  0.1346
  874MOL0     O17886   4.080   2.060   0.322 -0.7916  0.1016  0.2520
  874MOL0     C17887   3.940   2.044   0.359  0.3308 -0.0137 -0.1915
  874MOL0     C17888   3.847   1.961   0.285  0.0633 -0.2320  0.4078
  874MOL0     C17889   3.719   1.938   0.331  0.0006  0.2399 -0.1920
  874MOL0     C17890   3.674   2.010   0.445  0.4764  0.1952  0.1341
  874MOL0     O17891   3.542   1.993   0.483 -0.1520  1.2993  0.4552
  874MOL0     C17892   3.513   1.963   0.622 -0.3000 -0.2816 -0.1455
  874MOL0     C17893   3.362   1.947   0.640 -0.7003  0.2873  0.1655
  874MOL0     C17894   3.331   1.899   0.778 -0.2936 -0.0577 -0.7574
  874MOL0     C17895   3.187   1.937   0.820  0.4209 -0.0124 -0.0328
  874MOL0     C17896   3.085   1.844   0.773  0.0742  1.0897 -0.0732
  874MOL0     C17897   2.950   1.888   0.809 -1.0338  0.6556 -0.1202
  874MOL0     C17898   2.840   1.794   0.764 -1.0832  1.3984 -0.3017
  874MOL0     C17899   2.700   1.847   0.777  0.2143 -0.5113 -0.2349
  874MOL0    Cl17900   2.668   1.995   0.674 -0.2551 -0.0724 -0.7133
  874MOL0     C17901   3.759   2.091   0.514 -0.1925 -0.8470 -0.3666
  874MOL0     C17902   3.891   2.101   0.473  0.0700 -0.0733  0.0764
  874MOL0     O17903   4.009   2.187   0.152 -0.2941  0.0160 -0.1184
  874MOL0     C17904   4.346   2.067   0.222 -0.6922 -0.5323 -0.8873
  874MOL0     C17905   4.481   2.086   0.186  0.3332  0.0930  0.3613
  874MOL0     N17906   5.076   2.065   0.316  0.0511 -0.2385  0.2533
  874MOL0     N17907   5.155   1.964   0.295  0.1158 -0.8547 -0.0277
  874MOL0     C17908   6.215   2.286  -0.238  0.5429 -0.0392  0.5984
  874MOL0     C17909   6.340   2.346  -0.206  0.4591 -0.4142  0.8973
  874MOL0     C17910   6.689   2.435   0.024 -0.6100 -0.9174  0.3826
  874MOL0     C17911   6.772   2.363   0.111 -0.2332  0.0024  0.1605
  874MOL0     C17912   6.916   2.361   0.090 -0.3087  0.9632  0.1147
  874MOL0     C17913   6.982   2.436  -0.016  0.1322 -0.3775  0.0555
  874MOL0     O17914   7.121   2.421  -0.027  0.1214  0.0863  0.8629
  874MOL0     C17915   7.191   2.490  -0.137  0.2449 -0.2798  0.7375
  874MOL0     C17916   7.342   2.496  -0.113 -0.2513 -0.6133 -0.3090
  874MOL0     C17917   7.379   2.538   0.032  0.6518  1.0434  0.0435
  874MOL0     C17918   7.524   2.570   0.039  0.8208 -0.6707  0.1407
  874MOL0     C17919   7.591   2.442   0.040 -0.3821  0.0184  0.2502
  874MOL0     C17920   7.659   2.343   0.055 -0.1392  0.2046 -0.5293
  874MOL0     C17921   6.896   2.495  -0.107 -0.4158 -0.1286 -0.2446
  874MOL0     C17922   6.754   2.500  -0.085 -0.0971  0.3674 -0.5343
  874MOL0     H17923   6.248   2.547   0.049  0.2052  4.2117 -3.4507
  874MOL0     H17924   6.023   2.450  -0.020 -0.1627 -0.5250 -0.2718
  874MOL0     H17925   5.963   2.211  -0.364  2.1537 -0.4865  0.3358
  874MOL0     H17926   6.024   2.092  -0.251  2.6229  1.8623 -2.0504
  874MOL0     H17927   5.728   2.205  -0.263 -2.6296 -1.6680  0.9384
  874MOL0     H17928   5.797   2.073  -0.366  2.0560 -1.4318  0.7798
  874MOL0     H17929   5.842   1.940  -0.168  2.1602  0.7462 -2.4825
  874MOL0     H17930   5.786   2.053  -0.055 -1.6236 -2.6450  1.2794
  874MOL0     H17931   5.561   2.061  -0.144  1.8087  0.9673 -0.6654
  874MOL0     H17932   5.611   1.939  -0.267  0.1729 -1.6224  0.1457
  874MOL0     H17933   5.661   1.779  -0.079 -1.1903  0.5187 -1.6434
  874MOL0     H17934   5.613   1.899   0.037  1.3957  1.3388  0.3587
  874MOL0     H17935   5.420   1.793  -0.182  1.3892 -0.3992 -0.1515
  874MOL0     H17936   5.447   1.726  -0.018 -0.2305 -1.4100 -0.0548
  874MOL0     H17937   5.321   2.007  -0.066 -1.5574  1.5527  2.7731
  874MOL0     H17938   5.235   1.861  -0.046 -0.3752  0.9836 -0.4681
  874MOL0     H17939   5.440   1.962   0.173 -1.7253  1.2022  0.9547
  874MOL0     H17940   5.353   1.822   0.179  1.7236  0.8227  1.0523
  874MOL0     H17941   5.229   2.195   0.066  1.8449 -1.0667  0.3485
  874MOL0     H17942   5.035   2.358   0.297 -0.4075  2.7181 -2.0498
  874MOL0     H17943   5.070   2.362   0.133  2.3884  0.1796  1.8432
  874MOL0     H17944   4.809   2.345   0.253 -1.7780 -0.1440 -1.2703
  874MOL0     H17945   4.850   2.181   0.193  0.2541 -0.6839 -2.0309
  874MOL0     H17946   4.886   2.265  -0.034 -0.6469 -0.2774 -0.9725
  874MOL0     H17947   4.873   2.423   0.013  0.9407 -0.5532  0.8258
  874MOL0     H17948   4.658   2.369  -0.070  0.1373  1.1511  0.5323
  874MOL0     H17949   4.645   2.390   0.112  2.9585  2.3620 -0.4367
  874MOL0     H17950   4.434   2.283  -0.083  3.3002  0.3800  0.5375
  874MOL0     H17951   4.099   2.194  -0.105  0.7981  0.0788  0.6803
  874MOL0     H17952   4.131   2.358  -0.026  0.5290  0.8334  2.7458
  874MOL0     H17953   4.223   2.298  -0.157  3.5561 -0.7456  1.4589
  874MOL0     H17954   3.889   1.925   0.192  1.8811  0.2208  1.0087
  874MOL0     H17955   3.641   1.881   0.282 -1.5186  0.1506  2.2160
  874MOL0     H17956   3.560   1.870   0.656  1.9866  0.1486 -1.8538
  874MOL0     H17957   3.541   2.050   0.682 -0.4347 -0.7145  0.5573
  874MOL0     H17958   3.323   2.045   0.609  1.6456  0.6322 -2.0249
  874MOL0     H17959   3.320   1.877   0.567 -3.3491  1.4803  0.4184
  874MOL0     H17960   3.391   1.954   0.852 -2.6191  0.0643  1.1907
  874MOL0     H17961   3.352   1.794   0.801 -0.5548 -0.1648 -1.0051
  874MOL0     H17962   3.173   1.956   0.927 -3.3051 -0.2884 -0.3269
  874MOL0     H17963   3.153   2.031   0.775 -2.2280 -0.1080  1.5312
  874MOL0     H17964   3.102   1.744   0.814 -1.6343 -0.0966 -2.0097
  874MOL0     H17965   3.088   1.830   0.664  3.3230 -1.8420  0.2087
  874MOL0     H17966   2.937   1.907   0.916 -2.0505 -1.2921  0.1489
  874MOL0     H17967   2.931   1.982   0.757 -2.1125  0.5751  0.0845
  874MOL0     H17968   2.845   1.697   0.815  0.6083  0.2210 -2.5134
  874MOL0     H17969   2.847   1.764   0.658 -1.1486 -0.5645  0.2031
  874MOL0     H17970   2.671   1.868   0.880 -3.4648  2.8820 -1.7188
  874MOL0     H17971   2.621   1.776   0.751 -1.3169  1.2213 -0.4856
  874MOL0     H17972   3.724   2.146   0.601  0.3685 -2.9723  1.2929
  874MOL0     H17973   3.965   2.159   0.528  0.6348 -0.8149  0.1214
  874MOL0     H17974   4.332   2.000   0.306 -4.0053 -1.8616 -2.3381
  874MOL0     H17975   4.564   2.045   0.243 -0.1151  0.3098  1.1900
  874MOL0     H17976   6.215   2.213  -0.319  3.1914  1.0045 -0.4676
  874MOL0     H17977   6.421   2.313  -0.271 -0.0348  0.1593 -0.0308
  874MOL0     H17978   6.719   2.317   0.194 -0.3913 -0.3287 -0.1200
  874MOL0     H17979   6.976   2.298   0.155  2.9819  0.2817 -3.1909
  874MOL0     H17980   7.161   2.447  -0.233  1.4358  1.3250 -0.4114
  874MOL0     H17981   7.159   2.595  -0.142 -1.4279 -0.8310 -2.2520
  874MOL0     H17982   7.389   2.562  -0.187  2.0005  2.0490  3.1992
  874MOL0     H17983   7.370   2.392  -0.136 -1.0100 -0.5921 -1.4453
  874MOL0     H17984   7.362   2.453   0.100  3.3008 -1.2543 -1.9585
  874MOL0     H17985   7.316   2.621   0.065  1.5705  1.0984  1.7863
  874MOL0     H17986   7.543   2.625   0.132 -0.0997  1.7581 -1.0278
  874MOL0     H17987   7.555   2.636  -0.042  1.0747  0.2023  0.9186
  874MOL0     H17988   7.719   2.255   0.057  1.1741  1.0617  1.7002
  874MOL0     H17989   6.936   2.541  -0.197 -0.1157 -0.4746 -0.2893
  874MOL0     H17990   6.695   2.546  -0.164 -1.4804 -0.7013 -0.1653
  875MOL0     O17991  10.188   7.839   2.048 -0.0217  0.4477 -0.7897
  875MOL0     C17992  10.202   7.720   2.081  0.3330  1.1504 -0.2394
  875MOL0     O17993  10.096   7.626   2.088 -0.2520  0.2286 -0.3086
  875MOL0     C17994   9.980   7.678   2.060  0.0501 -0.3383  0.2733
  875MOL0     C17995   9.904   7.722   2.160  0.2112  0.7542 -0.7842
  875MOL0     C17996   9.774   7.769   2.143 -0.8038  0.2581  0.3010
  875MOL0     C17997   9.720   7.771   2.011  0.0146  0.2119 -0.6030
  875MOL0     O17998   9.590   7.816   1.996  0.2115 -0.6515 -0.1062
  875MOL0     C17999   9.519   7.767   1.880  0.3884 -0.1035 -0.4917
  875MOL0     C18000   9.375   7.817   1.886  0.0793  0.3848  0.7760
  875MOL0     C18001   9.290   7.708   1.944  0.5170 -0.0715 -0.2722
  875MOL0     C18002   9.316   7.687   2.095 -0.8575  0.0832 -0.4589
  875MOL0     C18003   9.227   7.569   2.141  0.0133 -0.1721 -0.5681
  875MOL0     C18004   9.236   7.554   2.292  0.2960  0.6473 -0.3640
  875MOL0     C18005   9.123   7.470   2.359  0.9839  0.0438 -0.7101
  875MOL0     C18006   9.101   7.332   2.290  0.0785 -0.1955  0.2027
  875MOL0     N18007   9.064   7.227   2.392  0.2745  1.3308 -0.6378
  875MOL0     C18008   8.957   7.226   2.479 -0.3468 -0.0807 -0.2823
  875MOL0     C18009   8.939   7.105   2.538  0.1181  0.4590  0.1308
  875MOL0     C18010   8.838   7.068   2.640  0.2919 -0.1178 -0.0803
  875MOL0     C18011   8.765   6.941   2.598 -0.0608  0.0719 -0.0175
  875MOL0     C18012   8.663   6.914   2.705 -0.8298  0.0566 -0.8349
  875MOL0     C18013   8.551   6.829   2.648  0.2748  0.0042  0.3329
  875MOL0     O18014   8.448   6.844   2.742  0.3870  0.0762 -0.0734
  875MOL0     C18015   8.332   6.770   2.713  0.3585 -0.7646 -0.2863
  875MOL0     C18016   8.327   6.647   2.652  0.4707  0.3551  0.3301
  875MOL0     C18017   8.205   6.585   2.611 -0.6249  0.2643 -0.5248
  875MOL0     C18018   8.223   6.450   2.544  0.1483  0.2704 -0.4558
  875MOL0     C18019   8.081   6.650   2.627 -0.1034  0.4557  0.2757
  875MOL0     C18020   7.954   6.593   2.608 -0.6258 -0.3155  0.4087
  875MOL0     O18021   7.858   6.678   2.559  0.4074  0.6999 -0.2618
  875MOL0     C18022   7.734   6.620   2.537 -0.0907 -0.0068 -0.4993
  875MOL0     C18023   7.710   6.523   2.442  1.2184  0.9034  0.0167
  875MOL0     C18024   7.591   6.457   2.429 -0.7698  0.1940  0.1815
  875MOL0     C18025   7.483   6.495   2.509  0.3514  0.5585  0.4039
  875MOL0     O18026   7.365   6.422   2.495  0.1687 -0.6864 -0.2777
  875MOL0     C18027   7.305   6.406   2.363  0.3587  0.0260  0.3401
  875MOL0     C18028   7.156   6.388   2.378 -0.1371  0.8983  0.5511
  875MOL0     C18029   7.097   6.368   2.236 -0.5039 -0.2599  0.1827
  875MOL0     C18030   6.947   6.366   2.253 -0.6674 -0.6703  0.4559
  875MOL0     C18031   6.882   6.322   2.114  0.0514  0.0726 -0.2318
  875MOL0     C18032   6.734   6.286   2.129 -0.4506 -0.4081 -0.4276
  875MOL0     C18033   6.681   6.237   2.001 -0.4914 -0.6937  0.7174
  875MOL0     C18034   6.530   6.211   2.016  0.1638  0.1496 -0.1450
  875MOL0    Cl18035   6.485   6.143   1.860 -0.1443 -0.2430  0.2200
  875MOL0     C18036   7.502   6.593   2.608  0.1884  0.0398  0.2626
  875MOL0     C18037   7.631   6.655   2.623  0.1067  0.6878 -0.4507
  875MOL0     O18038   7.942   6.476   2.646  0.4999 -0.2925 -0.6407
  875MOL0     C18039   8.084   6.773   2.691 -0.3373 -0.2456 -0.6122
  875MOL0     C18040   8.203   6.833   2.731  0.0547  0.1294  0.3135
  875MOL0     N18041   9.042   7.035   2.486  0.0182 -0.6726  0.8744
  875MOL0     N18042   9.105   7.101   2.394 -0.0206 -0.0351  0.1750
  875MOL0     C18043   9.801   7.728   1.906  0.0844  0.3626 -0.2307
  875MOL0     C18044   9.930   7.675   1.930 -0.6312 -0.0241 -0.0405
  875MOL0     C18045  10.330   7.686   2.146  0.0179 -0.9466  0.5388
  875MOL0     C18046  10.440   7.757   2.120 -0.6964 -0.0925  0.7707
  875MOL0     C18047  10.569   7.715   2.168  0.0046  1.0235 -0.7786
  875MOL0     C18048  10.579   7.601   2.244  0.4136 -1.1143 -0.3160
  875MOL0     O18049  10.699   7.554   2.287  0.0214 -0.6723  0.4676
  875MOL0     C18050  10.831   7.611   2.255  0.8257 -0.2177  0.4813
  875MOL0     C18051  10.867   7.727   2.339 -0.3779 -0.1880 -0.0510
  875MOL0     C18052  10.830   7.713   2.494 -1.0065  0.7095  0.4451
  875MOL0     C18053  10.921   7.602   2.549  0.8861 -0.2244  1.0100
  875MOL0     C18054  11.063   7.635   2.534 -0.2181 -0.1053  0.1192
  875MOL0     C18055  11.179   7.654   2.523 -1.0383  0.0307  0.1489
  875MOL0     C18056  10.464   7.531   2.278 -0.5499  0.0459 -0.0602
  875MOL0     C18057  10.342   7.570   2.226  0.1234  0.5529 -0.0224
  875MOL0     H18058   9.947   7.715   2.259 -1.0839  0.9644 -0.1943
  875MOL0     H18059   9.700   7.792   2.219 -1.8044  0.4800 -0.6907
  875MOL0     H18060   9.558   7.812   1.788  0.4780 -1.9579 -1.4043
  875MOL0     H18061   9.532   7.659   1.877  4.0416  0.2354 -2.9003
  875MOL0     H18062   9.370   7.906   1.949 -3.5280  0.3891  0.6878
  875MOL0     H18063   9.353   7.837   1.781  0.0917  1.0363  0.8977
  875MOL0     H18064   9.183   7.730   1.931  0.2575 -1.2568 -0.2591
  875MOL0     H18065   9.308   7.613   1.892 -1.4886 -0.8189  0.3147
  875MOL0     H18066   9.422   7.671   2.114 -1.1228  0.3603  1.4610
  875MOL0     H18067   9.285   7.786   2.128  0.9386  0.3699  0.4781
  875MOL0     H18068   9.123   7.592   2.117 -0.5532 -1.9223  0.0450
  875MOL0     H18069   9.258   7.472   2.101  0.9236  0.4755 -1.4769
  875MOL0     H18070   9.330   7.505   2.322 -0.4740 -0.9878 -0.5407
  875MOL0     H18071   9.228   7.658   2.326 -2.3860 -0.0146  1.2324
  875MOL0     H18072   9.150   7.443   2.462  1.0978 -1.0685 -1.0216
  875MOL0     H18073   9.038   7.539   2.371 -0.5047 -2.1530  3.8458
  875MOL0     H18074   9.197   7.310   2.243  1.0139  1.1873  1.3730
  875MOL0     H18075   9.026   7.345   2.211 -1.1127  2.4353  1.6059
  875MOL0     H18076   8.898   7.314   2.504 -2.8755 -1.7138 -0.1576
  875MOL0     H18077   8.890   7.048   2.735 -2.7619 -2.3328  1.3020
  875MOL0     H18078   8.767   7.150   2.638  2.5292  1.9200 -0.9053
  875MOL0     H18079   8.831   6.854   2.589  0.4306  0.6075 -2.8489
  875MOL0     H18080   8.712   6.948   2.502  1.1755 -1.4951 -0.8715
  875MOL0     H18081   8.625   7.010   2.741  1.1674 -0.0447  1.9292
  875MOL0     H18082   8.710   6.869   2.793  1.0143  0.2125 -1.7060
  875MOL0     H18083   8.588   6.727   2.643  0.2018 -0.0970  1.5856
  875MOL0     H18084   8.520   6.859   2.547  0.7440  1.3095  0.5552
  875MOL0     H18085   8.417   6.593   2.625 -0.5019 -0.8369 -0.6471
  875MOL0     H18086   8.125   6.402   2.534 -0.5626  1.2271  1.4696
  875MOL0     H18087   8.270   6.462   2.446  1.4225  0.8102  0.2018
  875MOL0     H18088   8.289   6.394   2.610 -1.7967 -0.7371  0.7217
  875MOL0     H18089   7.786   6.482   2.377 -0.8103  1.4175 -2.8745
  875MOL0     H18090   7.581   6.382   2.351  0.7633  1.0070 -0.8329
  875MOL0     H18091   7.318   6.500   2.309  3.1529  1.4607  3.1753
  875MOL0     H18092   7.345   6.317   2.312 -1.2225  0.7079 -2.3166
  875MOL0     H18093   7.144   6.293   2.431  1.1070 -1.4752 -2.9747
  875MOL0     H18094   7.111   6.480   2.416  0.1918  1.6932 -0.8933
  875MOL0     H18095   7.137   6.270   2.207 -1.7852 -1.2865  1.7057
  875MOL0     H18096   7.133   6.440   2.162 -1.9294  0.4714  0.1764
  875MOL0     H18097   6.931   6.293   2.333  0.5545 -0.6006  0.7871
  875MOL0     H18098   6.907   6.466   2.277  1.5796  0.4077 -0.0522
  875MOL0     H18099   6.934   6.235   2.074 -1.1158  0.1065 -1.9513
  875MOL0     H18100   6.880   6.403   2.041 -0.0198  1.1675  0.9495
  875MOL0     H18101   6.729   6.213   2.210  2.7338 -0.3629 -0.0769
  875MOL0     H18102   6.686   6.382   2.149  2.1688  0.9551 -0.2856
  875MOL0     H18103   6.734   6.142   1.986 -0.4177 -0.6397  0.6317
  875MOL0     H18104   6.708   6.306   1.920  1.5175 -0.7794  1.2536
  875MOL0     H18105   6.474   6.304   2.029  0.7730  0.8027 -1.8917
  875MOL0     H18106   6.502   6.141   2.095  2.4389  2.0138  2.5397
  875MOL0     H18107   7.417   6.632   2.664 -1.4766 -0.4830 -1.7313
  875MOL0     H18108   7.639   6.735   2.696 -1.1387 -0.0853  0.5720
  875MOL0     H18109   7.992   6.828   2.707  0.1323  0.2449  0.5102
  875MOL0     H18110   8.194   6.935   2.766 -1.7094  0.6058 -1.3852
  875MOL0     H18111   9.775   7.719   1.801  0.9646 -1.6054 -0.3320
  875MOL0     H18112   9.990   7.631   1.852  0.5485 -0.8160  1.2820
  875MOL0     H18113  10.436   7.841   2.051 -1.9258 -2.5735 -2.4693
  875MOL0     H18114  10.658   7.775   2.150 -0.1582  1.0706 -1.4669
  875MOL0     H18115  10.907   7.532   2.257 -1.2477 -2.3733 -0.1859
  875MOL0     H18116  10.828   7.657   2.156 -1.4614  1.3224  1.1984
  875MOL0     H18117  10.808   7.813   2.306  0.9304  1.8588  2.5400
  875MOL0     H18118  10.971   7.754   2.322 -0.7017  1.1793 -0.0263
  875MOL0     H18119  10.728   7.684   2.519 -0.7049 -2.5369 -1.4945
  875MOL0     H18120  10.852   7.802   2.553 -3.6534  2.1613 -0.6010
  875MOL0     H18121  10.905   7.502   2.507  0.1466 -0.5114  1.9292
  875MOL0     H18122  10.903   7.587   2.656  1.3316  0.3339  1.1659
  875MOL0     H18123  11.284   7.676   2.518 -1.2078  0.6855 -0.7182
  875MOL0     H18124  10.473   7.449   2.349  0.2411  1.7207  1.8656
  875MOL0     H18125  10.266   7.495   2.245  1.5347 -1.3380 -1.4394
  876MOL0     O18126   4.513   7.949   9.025  1.0401  0.1424  0.1965
  876MOL0     C18127   4.491   7.951   8.905  0.5897 -0.0822 -0.8363
  876MOL0     O18128   4.373   7.928   8.846 -0.4090 -1.1664 -0.7078
  876MOL0     C18129   4.288   7.849   8.918  0.8133  0.6927  0.2902
  876MOL0     C18130   4.170   7.896   8.965  0.6430  1.4634 -0.0236
  876MOL0     C18131   4.085   7.817   9.047  0.4195  0.5185 -0.2272
  876MOL0     C18132   4.123   7.678   9.082  0.3731 -0.2226  0.3444
  876MOL0     O18133   4.064   7.588   9.166  1.1532  0.0460 -0.0740
  876MOL0     C18134   3.949   7.634   9.252 -0.3574 -0.8746  0.4757
  876MOL0     C18135   3.987   7.732   9.372  0.6480  0.4009  0.7572
  876MOL0     C18136   4.105   7.685   9.457  0.6516 -0.4093  0.6882
  876MOL0     C18137   4.117   7.769   9.590  0.0347  0.5579 -0.2474
  876MOL0     C18138   4.222   7.707   9.691 -0.1344  0.6413  0.0043
  876MOL0     C18139   4.232   7.770   9.827 -0.1769 -0.1036 -0.8802
  876MOL0     C18140   4.334   7.699   9.910 -0.5311 -0.5731 -0.8677
  876MOL0     C18141   4.364   7.784  10.029 -0.1023 -0.5593  0.3547
  876MOL0     N18142   4.439   7.906   9.994  1.1385 -1.2227  0.3135
  876MOL0     C18143   4.561   7.917   9.936 -0.0578  0.3208  0.1373
  876MOL0     C18144   4.593   8.046   9.959 -0.3452 -0.0133  0.2515
  876MOL0     C18145   4.723   8.099   9.905  0.1204 -0.3075  0.0395
  876MOL0     C18146   4.710   8.127   9.762 -1.0494  0.4159  0.5190
  876MOL0     C18147   4.833   8.192   9.709  0.1599 -0.3090 -0.4091
  876MOL0     C18148   4.937   8.085   9.680 -0.2432 -0.2623  0.7256
  876MOL0     O18149   5.062   8.152   9.707  0.7657  0.0922  0.1046
  876MOL0     C18150   5.164   8.137   9.619  0.3333  0.1463 -0.2093
  876MOL0     C18151   5.180   8.029   9.523  0.1090 -0.6549  0.3540
  876MOL0     C18152   5.290   8.021   9.432  0.2029  0.4887 -0.0984
  876MOL0     C18153   5.288   7.900   9.342 -0.1403 -0.4328 -0.7193
  876MOL0     C18154   5.398   8.115   9.454 -1.2739 -0.5725  0.1295
  876MOL0     C18155   5.520   8.118   9.363 -0.1586 -0.0828 -0.3929
  876MOL0     O18156   5.638   8.121   9.428 -0.4228 -0.4338 -0.0931
  876MOL0     C18157   5.764   8.091   9.371 -0.3252 -0.4104 -0.0305
  876MOL0     C18158   5.878   8.109   9.452 -0.4827  0.9142  0.4165
  876MOL0     C18159   6.006   8.074   9.402 -0.3466  0.4260 -1.3546
  876MOL0     C18160   6.020   8.003   9.282  0.0827 -0.6167  0.1839
  876MOL0     O18161   6.140   7.944   9.255  0.2738  0.5057  0.0052
  876MOL0     C18162   6.197   7.945   9.125  0.2925 -0.2997 -0.0162
  876MOL0     C18163   6.342   7.927   9.133  0.0515  0.3413 -0.3181
  876MOL0     C18164   6.409   7.893   8.998  0.5182  1.2635  0.1059
  876MOL0     C18165   6.557   7.880   9.003 -0.0871  0.1496 -0.0818
  876MOL0     C18166   6.633   7.833   8.881  0.3214  0.0390  0.1547
  876MOL0     C18167   6.776   7.865   8.868 -0.6038  0.3969 -0.7398
  876MOL0     C18168   6.855   7.739   8.886  0.2103 -0.1024  0.6251
  876MOL0     C18169   6.855   7.687   9.029 -0.0635 -0.0891 -0.1447
  876MOL0    Cl18170   6.918   7.520   9.014 -0.0308 -0.0470  0.1175
  876MOL0     C18171   5.912   7.983   9.201 -0.2778  0.1171 -0.7049
  876MOL0     C18172   5.786   8.029   9.244 -1.3021  0.0922  0.2286
  876MOL0     O18173   5.503   8.101   9.243  0.0591  0.5326 -0.2824
  876MOL0     C18174   5.395   8.214   9.552 -0.1057  0.5912 -0.4148
  876MOL0     C18175   5.276   8.228   9.632 -0.0702 -0.7705 -0.3138
  876MOL0     N18176   4.485   8.118  10.014  0.0203  0.7716  0.7009
  876MOL0     N18177   4.393   8.027  10.041  0.6234 -0.7418  0.6357
  876MOL0     C18178   4.242   7.638   9.021  0.0350 -0.1635  0.0031
  876MOL0     C18179   4.321   7.714   8.937  0.8990 -0.9940  0.0050
  876MOL0     C18180   4.592   8.006   8.819 -0.5698 -0.0240  0.0542
  876MOL0     C18181   4.715   8.056   8.868 -0.4603 -0.3546  0.8674
  876MOL0     C18182   4.811   8.119   8.782  0.2056 -0.0813 -0.3529
  876MOL0     C18183   4.790   8.113   8.641 -0.7729  0.2676 -0.5966
  876MOL0     O18184   4.892   8.137   8.551  0.0551 -0.1730 -0.4414
  876MOL0     C18185   5.008   8.200   8.598  0.4374 -0.0855  0.2498
  876MOL0     C18186   5.099   8.218   8.487  0.7003 -0.6794 -1.0938
  876MOL0     C18187   5.147   8.093   8.413  0.5940 -0.4834 -0.2596
  876MOL0     C18188   5.252   8.130   8.308 -0.3214 -1.1446  0.1922
  876MOL0     C18189   5.331   8.013   8.248  0.8343  0.5397  0.2347
  876MOL0     C18190   5.408   7.930   8.209  0.0936  0.3708 -0.4086
  876MOL0     C18191   4.674   8.048   8.593  0.1497  0.3405  0.0450
  876MOL0     C18192   4.583   7.997   8.680 -0.1706  0.0382 -0.2349
  876MOL0     H18193   4.142   7.997   8.935  1.4824  1.3516 -1.2142
  876MOL0     H18194   4.001   7.876   9.083  1.6291  1.6955  0.8114
  876MOL0     H18195   3.869   7.670   9.188  1.7965  2.2728 -0.7112
  876MOL0     H18196   3.908   7.545   9.300 -0.8069 -2.6433 -2.9229
  876MOL0     H18197   4.017   7.830   9.334 -3.2489  1.9297  1.1563
  876MOL0     H18198   3.900   7.741   9.438  1.2509  2.2997  1.3624
  876MOL0     H18199   4.083   7.579   9.473 -0.1905 -0.4069 -0.3398
  876MOL0     H18200   4.202   7.695   9.408 -0.6091  0.4769 -1.8473
  876MOL0     H18201   4.150   7.869   9.560  1.4524  1.0394  2.5806
  876MOL0     H18202   4.020   7.776   9.639 -1.6115  0.7394 -3.2593
  876MOL0     H18203   4.194   7.604   9.715  2.7392 -0.3247 -0.4689
  876MOL0     H18204   4.323   7.706   9.649  0.1392 -0.2942  0.6446
  876MOL0     H18205   4.262   7.872   9.804 -1.4291  0.7573  1.0327
  876MOL0     H18206   4.134   7.771   9.875  0.0651  0.0436 -0.3799
  876MOL0     H18207   4.288   7.608   9.950  1.4677 -0.9188  0.7956
  876MOL0     H18208   4.418   7.682   9.842 -0.3994  1.0672 -1.1585
  876MOL0     H18209   4.444   7.731  10.083  1.5639  0.2575 -1.2094
  876MOL0     H18210   4.278   7.810  10.092 -1.0810  0.3446 -1.2947
  876MOL0     H18211   4.615   7.839   9.884 -2.0126 -1.8204  1.1134
  876MOL0     H18212   4.746   8.189   9.962  1.6838 -0.3383 -0.4995
  876MOL0     H18213   4.799   8.020   9.918  0.5260  0.0075 -0.3782
  876MOL0     H18214   4.631   8.201   9.745 -2.4699 -1.2892 -0.6242
  876MOL0     H18215   4.683   8.040   9.702 -2.4862  0.7333  0.6713
  876MOL0     H18216   4.879   8.258   9.784  1.2300 -1.2253 -0.2288
  876MOL0     H18217   4.808   8.254   9.623  2.7334  0.7264 -0.4972
  876MOL0     H18218   4.921   8.056   9.575 -1.3390 -1.9355  1.3116
  876MOL0     H18219   4.935   7.993   9.739  2.3280 -1.7849 -1.3004
  876MOL0     H18220   5.114   7.944   9.540  0.5603 -0.7613  1.6705
  876MOL0     H18221   5.264   7.928   9.239 -0.3103  0.3072 -0.4833
  876MOL0     H18222   5.391   7.867   9.325 -0.1049 -0.7275  0.0573
  876MOL0     H18223   5.237   7.817   9.391  0.4234  0.8182  2.1931
  876MOL0     H18224   5.853   8.136   9.554  0.9794 -1.5513  1.5500
  876MOL0     H18225   6.100   8.072   9.456 -1.2730  1.4778  0.3772
  876MOL0     H18226   6.157   7.867   9.059  2.0157 -0.3870 -1.0268
  876MOL0     H18227   6.188   8.043   9.077  1.4412  0.2206  0.7787
  876MOL0     H18228   6.392   8.016   9.173  1.3749 -0.2730 -0.5429
  876MOL0     H18229   6.363   7.849   9.206 -2.1303  0.3395  0.3853
  876MOL0     H18230   6.373   7.959   8.919  1.4250 -2.0566 -3.4110
  876MOL0     H18231   6.370   7.799   8.958  0.0080  2.4522 -2.4005
  876MOL0     H18232   6.587   7.983   9.024  1.0743 -0.6570  2.7338
  876MOL0     H18233   6.587   7.818   9.088  2.3132  0.2978 -0.7395
  876MOL0     H18234   6.602   7.898   8.798  1.3449  0.3373 -0.0029
  876MOL0     H18235   6.614   7.733   8.842 -0.1735  1.7462 -4.6019
  876MOL0     H18236   6.777   7.898   8.764 -3.9315  0.1481 -0.9515
  876MOL0     H18237   6.804   7.940   8.943  2.4907 -2.1440  0.8895
  876MOL0     H18238   6.955   7.767   8.852 -0.6306  1.1932 -0.9157
  876MOL0     H18239   6.818   7.667   8.813  0.9648 -1.9883  2.0274
  876MOL0     H18240   6.757   7.678   9.077 -0.3429  0.6410 -0.5714
  876MOL0     H18241   6.919   7.740   9.100  1.6239 -1.5095 -0.5277
  876MOL0     H18242   5.919   7.928   9.107 -2.3917 -1.1166 -0.2175
  876MOL0     H18243   5.704   8.019   9.174 -1.6825  2.1587  0.3041
  876MOL0     H18244   5.475   8.284   9.574  0.3753 -0.0825  0.0205
  876MOL0     H18245   5.270   8.303   9.710 -2.8608 -1.0310 -0.1875
  876MOL0     H18246   4.266   7.533   9.030  1.3100  0.2973  3.1399
  876MOL0     H18247   4.411   7.671   8.895  0.9601 -1.7172  0.8316
  876MOL0     H18248   4.732   8.061   8.975 -0.4559 -0.9091  0.8961
  876MOL0     H18249   4.905   8.153   8.824  0.3663 -0.1335 -0.6681
  876MOL0     H18250   4.984   8.298   8.640 -1.8979 -0.5720  0.1803
  876MOL0     H18251   5.058   8.132   8.668  1.6822 -0.7765 -1.2456
  876MOL0     H18252   5.187   8.274   8.520  0.2454 -1.4194  1.5629
  876MOL0     H18253   5.056   8.288   8.415 -0.1372  0.0518  0.0822
  876MOL0     H18254   5.066   8.042   8.359 -1.7018  0.7496  1.7943
  876MOL0     H18255   5.186   8.027   8.490 -0.3330  0.6111  1.2082
  876MOL0     H18256   5.328   8.192   8.355 -0.8844 -0.7178  0.5530
  876MOL0     H18257   5.210   8.194   8.229 -0.3377 -3.3336 -1.6842
  876MOL0     H18258   5.480   7.855   8.183 -0.5844 -1.1799  1.8224
  876MOL0     H18259   4.658   8.050   8.486 -2.5772  3.9870  0.3431
  876MOL0     H18260   4.496   7.956   8.628  0.7378 -0.1712 -1.6507
  877MOL0     O18261   4.932   0.703   3.642  0.0777  0.1225  0.6384
  877MOL0     C18262   4.969   0.814   3.591  0.3223  0.8967  0.6982
  877MOL0     O18263   4.902   0.881   3.498  0.0054 -0.6406  0.3795
  877MOL0     C18264   4.780   0.840   3.463  0.2999 -0.2174  0.3821
  877MOL0     C18265   4.675   0.917   3.506 -0.5684 -0.8431 -1.0072
  877MOL0     C18266   4.546   0.894   3.460 -0.1609  0.7069  0.0350
  877MOL0     C18267   4.519   0.783   3.383  0.3305  0.4047  0.1389
  877MOL0     O18268   4.400   0.736   3.353  0.0748  0.1703  0.3189
  877MOL0     C18269   4.298   0.830   3.324 -0.2570  0.5239  0.6528
  877MOL0     C18270   4.209   0.771   3.222  0.0747  0.0270  0.1217
  877MOL0     C18271   4.073   0.837   3.217  0.3505 -0.7747 -0.0781
  877MOL0     C18272   3.971   0.764   3.132  0.4373  0.0930 -0.6252
  877MOL0     C18273   3.842   0.848   3.120  0.2268  0.8725 -1.1149
  877MOL0     C18274   3.742   0.854   3.236  0.2763  0.5831  0.0497
  877MOL0     C18275   3.626   0.952   3.209  0.0020 -0.4255 -0.5801
  877MOL0     C18276   3.554   0.974   3.348  0.2755  0.1823  0.3547
  877MOL0     N18277   3.497   1.103   3.340 -0.3200 -0.1608  0.8747
  877MOL0     C18278   3.528   1.209   3.421  0.2013 -0.1563 -0.7815
  877MOL0     C18279   3.461   1.315   3.378 -0.1445 -0.3139 -0.7678
  877MOL0     C18280   3.481   1.445   3.442  0.4529 -0.0073  0.5142
  877MOL0     C18281   3.352   1.486   3.504  0.3434  0.8503  0.7691
  877MOL0     C18282   3.385   1.623   3.575  0.4862  0.3992  0.2854
  877MOL0     C18283   3.257   1.680   3.644  0.4707 -0.0171  0.1463
  877MOL0     O18284   3.143   1.691   3.552  0.5514 -0.4570 -0.0557
  877MOL0     C18285   3.024   1.722   3.612 -0.1369  0.3084 -0.3680
  877MOL0     C18286   2.915   1.711   3.529 -0.0141 -0.5352  1.2775
  877MOL0     C18287   2.783   1.746   3.574 -0.9642  0.4286 -0.5084
  877MOL0     C18288   2.673   1.722   3.476 -0.1422 -0.1643 -0.8337
  877MOL0     C18289   2.762   1.787   3.709 -0.0857  0.5394 -1.1931
  877MOL0     C18290   2.634   1.818   3.767 -0.4009 -0.5317  0.3730
  877MOL0     O18291   2.625   1.945   3.824  0.4146 -0.0599  1.0392
  877MOL0     C18292   2.502   1.999   3.851 -0.2104 -0.3954 -0.2312
  877MOL0     C18293   2.475   2.058   3.975  0.1784  0.1650  0.6658
  877MOL0     C18294   2.352   2.114   4.004 -0.0246 -0.2415  0.0856
  877MOL0     C18295   2.256   2.120   3.911 -0.6088 -0.3066  1.1200
  877MOL0     O18296   2.135   2.170   3.955  0.5933 -0.0987 -0.1389
  877MOL0     C18297   2.014   2.141   3.878 -0.3807 -0.6209 -0.1858
  877MOL0     C18298   1.905   2.245   3.899  0.8549  0.2119  0.1250
  877MOL0     C18299   1.811   2.198   4.009 -0.3622  0.0614  0.5310
  877MOL0     C18300   1.868   2.177   4.146 -0.1063  0.3932 -0.4375
  877MOL0     C18301   1.754   2.131   4.246 -0.2740  0.1588  0.1433
  877MOL0     C18302   1.696   2.243   4.333 -0.9822  0.1439 -0.5320
  877MOL0     C18303   1.588   2.179   4.418 -0.1351 -0.8347 -0.2045
  877MOL0     C18304   1.504   2.272   4.503 -0.1909 -0.0528 -0.4148
  877MOL0    Cl18305   1.358   2.194   4.531 -0.5560  0.0868 -0.4578
  877MOL0     C18306   2.278   2.072   3.780 -1.2193  1.5465 -0.0628
  877MOL0     C18307   2.399   2.005   3.754 -0.6258  0.1296  0.2390
  877MOL0     O18308   2.547   1.734   3.758  0.4118 -0.2643 -0.1476
  877MOL0     C18309   2.880   1.809   3.787 -0.5787 -0.1402  0.2633
  877MOL0     C18310   3.004   1.783   3.732 -0.0634 -0.7414  0.3982
  877MOL0     N18311   3.389   1.283   3.264 -0.6003  0.0288 -0.0088
  877MOL0     N18312   3.411   1.150   3.244 -0.2238 -1.1894 -1.0126
  877MOL0     C18313   4.625   0.703   3.353 -0.7137  0.5170  0.0528
  877MOL0     C18314   4.755   0.730   3.384 -0.2942 -0.5639 -0.3021
  877MOL0     C18315   5.095   0.858   3.637 -0.6210  0.5844  0.2711
  877MOL0     C18316   5.162   0.794   3.741  0.0510  0.2166 -0.7842
  877MOL0     C18317   5.277   0.839   3.792 -0.1013 -0.3087 -0.6638
  877MOL0     C18318   5.352   0.929   3.722 -0.0107  0.4613 -0.2092
  877MOL0     O18319   5.484   0.934   3.759 -0.3125  1.2173  0.4810
  877MOL0     C18320   5.555   1.055   3.722  0.5628  0.8300 -1.5579
  877MOL0     C18321   5.702   1.034   3.746 -0.2526 -0.4030  0.1004
  877MOL0     C18322   5.735   1.016   3.894  0.6140  0.3307 -0.5522
  877MOL0     C18323   5.886   1.008   3.935 -0.7828  0.4782 -0.2585
  877MOL0     C18324   5.970   1.125   3.898  0.4425 -0.1342 -0.3061
  877MOL0     C18325   6.050   1.214   3.870 -0.3987 -0.1967 -0.7319
  877MOL0     C18326   5.284   1.005   3.631  0.8247 -0.0735 -0.8531
  877MOL0     C18327   5.163   0.967   3.581 -0.6941 -0.0833 -0.7287
  877MOL0     H18328   4.704   1.007   3.559  0.7516 -1.0218 -1.3950
  877MOL0     H18329   4.473   0.965   3.498 -0.9766 -1.3384  2.5883
  877MOL0     H18330   4.248   0.845   3.421 -1.8407  0.4074 -0.1212
  877MOL0     H18331   4.332   0.925   3.281 -1.4645  0.8803  0.4418
  877MOL0     H18332   4.256   0.781   3.124 -1.8062 -0.9410 -0.9186
  877MOL0     H18333   4.188   0.665   3.238 -1.2547  0.0935 -1.0272
  877MOL0     H18334   4.044   0.836   3.323  0.9004 -1.6474  0.0710
  877MOL0     H18335   4.084   0.943   3.192 -0.2876 -0.5178  0.6676
  877MOL0     H18336   4.006   0.755   3.029 -0.7939  2.7434 -1.3762
  877MOL0     H18337   3.960   0.669   3.185  2.4369  0.0505 -0.2053
  877MOL0     H18338   3.875   0.952   3.113 -0.1072  1.1616  0.9922
  877MOL0     H18339   3.779   0.813   3.038 -3.6717  0.6345  1.6700
  877MOL0     H18340   3.701   0.759   3.270 -1.8257  1.6822  0.7932
  877MOL0     H18341   3.797   0.885   3.326  0.0554  1.3123 -0.0552
  877MOL0     H18342   3.672   1.045   3.173 -0.0437 -0.8925 -1.8933
  877MOL0     H18343   3.554   0.916   3.136  0.4517 -2.8477  0.0937
  877MOL0     H18344   3.618   0.962   3.436  1.4116 -2.9969 -0.7754
  877MOL0     H18345   3.472   0.902   3.351  0.5360 -0.0913  0.8295
  877MOL0     H18346   3.596   1.220   3.505 -1.1605 -2.4431  0.7541
  877MOL0     H18347   3.557   1.447   3.521  0.5806  2.8728  0.4280
  877MOL0     H18348   3.512   1.513   3.362  0.7100  1.7717  2.0667
  877MOL0     H18349   3.326   1.409   3.578 -1.7265  0.8405  0.1019
  877MOL0     H18350   3.271   1.496   3.431  0.7344  4.7285  0.6693
  877MOL0     H18351   3.413   1.690   3.492 -0.6426  0.6471  0.0770
  877MOL0     H18352   3.468   1.606   3.643  2.0751  2.4789 -0.9785
  877MOL0     H18353   3.277   1.776   3.691  0.7745 -0.0289  0.0464
  877MOL0     H18354   3.237   1.611   3.726  2.3122  1.9493  2.3823
  877MOL0     H18355   2.941   1.674   3.430 -3.0504 -1.4090  0.6836
  877MOL0     H18356   2.691   1.773   3.381  0.1291  1.1269 -0.1226
  877MOL0     H18357   2.662   1.616   3.451 -1.1554 -1.0768  2.8511
  877MOL0     H18358   2.572   1.753   3.506 -0.8630 -3.6254  0.8131
  877MOL0     H18359   2.556   2.060   4.048  1.9624  1.8285 -1.2508
  877MOL0     H18360   2.331   2.153   4.103 -3.3826 -1.7217  0.0749
  877MOL0     H18361   2.046   2.161   3.776  1.0451  3.8683  0.9291
  877MOL0     H18362   1.987   2.038   3.904  1.3286 -1.1862 -0.5379
  877MOL0     H18363   1.940   2.346   3.921 -1.1455  1.5683 -2.3785
  877MOL0     H18364   1.846   2.251   3.807 -1.7754 -2.9736  1.3750
  877MOL0     H18365   1.762   2.108   3.970 -0.3897 -1.2957  3.4466
  877MOL0     H18366   1.735   2.276   4.020 -0.4358  0.0797 -0.0540
  877MOL0     H18367   1.954   2.109   4.151 -1.4569 -1.3043  1.1214
  877MOL0     H18368   1.906   2.272   4.185  1.5741 -0.9910  1.5146
  877MOL0     H18369   1.796   2.048   4.303  0.8391  0.8730  0.3940
  877MOL0     H18370   1.674   2.088   4.184  0.5571 -1.8756  0.4193
  877MOL0     H18371   1.772   2.287   4.399 -2.4551  0.7726  0.8058
  877MOL0     H18372   1.657   2.319   4.266 -0.9177  1.7438  1.1728
  877MOL0     H18373   1.639   2.119   4.493  0.0371  1.4385  1.6018
  877MOL0     H18374   1.529   2.119   4.348  0.0314 -0.9459 -0.2491
  877MOL0     H18375   1.476   2.356   4.440 -0.0240  1.7291  1.7330
  877MOL0     H18376   1.552   2.295   4.599 -2.8508  0.0563  0.9743
  877MOL0     H18377   2.197   2.041   3.715 -1.2577 -1.3770  1.1863
  877MOL0     H18378   2.422   1.968   3.654  0.7587 -0.7278  0.8369
  877MOL0     H18379   2.891   1.852   3.886 -0.4139 -0.9088  0.5823
  877MOL0     H18380   3.088   1.812   3.795  0.0405  0.7629 -0.3905
  877MOL0     H18381   4.623   0.613   3.293  2.1966  0.7053 -0.4649
  877MOL0     H18382   4.840   0.666   3.366  0.2109 -0.0956  0.3820
  877MOL0     H18383   5.120   0.712   3.799 -0.8225 -0.1339 -1.8797
  877MOL0     H18384   5.320   0.767   3.861 -0.9747 -0.0043  0.2173
  877MOL0     H18385   5.542   1.076   3.615  1.5726 -0.8572 -2.0481
  877MOL0     H18386   5.527   1.139   3.787  1.7724  0.8603 -1.0488
  877MOL0     H18387   5.755   1.124   3.713 -0.9646  0.6283  1.6786
  877MOL0     H18388   5.741   0.950   3.686 -0.0248  0.9541 -1.7544
  877MOL0     H18389   5.700   0.917   3.922  1.1386  0.0870 -0.7580
  877MOL0     H18390   5.688   1.099   3.950 -5.1111 -2.1733 -0.9014
  877MOL0     H18391   5.943   0.927   3.888  0.2104 -0.5614  2.5315
  877MOL0     H18392   5.895   0.980   4.040  0.6103  0.2568 -0.4133
  877MOL0     H18393   6.123   1.286   3.840  0.2886 -0.6821 -0.2602
  877MOL0     H18394   5.339   1.087   3.584  1.0572 -0.5541 -1.4326
  877MOL0     H18395   5.120   1.027   3.502 -1.4369  2.2854  1.3374
  878MOL0     O18396   0.723   1.972   1.933  0.6287 -0.2660  0.1498
  878MOL0     C18397   0.753   1.881   1.853 -0.5056  0.2469 -1.0673
  878MOL0     O18398   0.699   1.751   1.850  0.2443  0.2414  0.0534
  878MOL0     C18399   0.611   1.720   1.952  0.6647 -0.0591  0.2612
  878MOL0     C18400   0.643   1.739   2.090  1.1297 -0.6938  0.4274
  878MOL0     C18401   0.553   1.681   2.178  0.5981 -0.4692  0.2958
  878MOL0     C18402   0.442   1.610   2.142  0.3631 -0.0322 -0.9014
  878MOL0     O18403   0.357   1.556   2.236 -0.3985  0.1719  0.6442
  878MOL0     C18404   0.326   1.628   2.355 -0.4905  0.2192 -1.0090
  878MOL0     C18405   0.218   1.551   2.437  0.1904 -0.0137  0.1025
  878MOL0     C18406   0.083   1.557   2.379  0.2567  0.1470 -0.2971
  878MOL0     C18407  -0.029   1.498   2.460 -0.0475  0.0435  0.8233
  878MOL0     C18408  -0.053   1.354   2.410 -0.5497 -0.6629 -0.6537
  878MOL0     C18409  -0.185   1.305   2.459  0.4810  0.2120 -0.3660
  878MOL0     C18410  -0.182   1.146   2.462  0.1096  0.2395  0.3074
  878MOL0     C18411  -0.317   1.097   2.524  0.1276 -0.0644  0.3682
  878MOL0     N18412  -0.429   1.149   2.449  0.0479 -0.5162 -0.7588
  878MOL0     C18413  -0.460   1.108   2.320 -0.2233 -0.5522  0.1192
  878MOL0     C18414  -0.568   1.189   2.284 -0.3343  0.4307  0.1426
  878MOL0     C18415  -0.640   1.182   2.152 -0.3124 -0.9518 -0.1153
  878MOL0     C18416  -0.767   1.105   2.169 -0.1133  0.8952  1.1460
  878MOL0     C18417  -0.881   1.183   2.225 -0.0065  0.7380 -0.6908
  878MOL0     C18418  -1.017   1.114   2.212  0.6149 -0.7509  0.0632
  878MOL0     O18419  -1.138   1.186   2.233 -0.2962  0.5252 -0.2669
  878MOL0     C18420  -1.255   1.119   2.228 -0.3348 -0.2218 -0.1970
  878MOL0     C18421  -1.271   0.989   2.183 -0.5039 -0.6929 -0.4923
  878MOL0     C18422  -1.401   0.927   2.184  0.4513 -0.2021 -0.2746
  878MOL0     C18423  -1.418   0.784   2.141 -0.3653  0.5251 -0.1765
  878MOL0     C18424  -1.512   1.000   2.250  0.8695 -0.9639  0.1961
  878MOL0     C18425  -1.646   0.943   2.267  0.1566 -0.5511  0.5940
  878MOL0     O18426  -1.738   1.015   2.344  0.7161  0.2098 -0.6473
  878MOL0     C18427  -1.862   0.953   2.363 -0.4514 -0.7728  0.1073
  878MOL0     C18428  -1.960   1.017   2.299  0.4195 -0.2922 -0.4574
  878MOL0     C18429  -2.094   0.984   2.321  1.1880  0.6308 -0.5843
  878MOL0     C18430  -2.132   0.892   2.416 -0.9101  0.9719  0.2532
  878MOL0     O18431  -2.262   0.857   2.442 -0.4500 -0.2224 -0.3012
  878MOL0     C18432  -2.364   0.952   2.413 -0.0908 -0.0564 -0.0163
  878MOL0     C18433  -2.488   0.920   2.497 -0.3288  0.4075 -0.5750
  878MOL0     C18434  -2.611   1.015   2.469  0.1117 -0.1972 -0.0583
  878MOL0     C18435  -2.737   0.964   2.539 -0.4676 -0.4248  0.5160
  878MOL0     C18436  -2.863   1.039   2.491 -0.7818  0.6775  0.5693
  878MOL0     C18437  -2.854   1.189   2.532  0.7257 -0.0149 -0.3060
  878MOL0     C18438  -2.981   1.257   2.482  0.4598 -0.0049  0.2224
  878MOL0     C18439  -2.984   1.268   2.329  0.1104 -0.6758 -0.3632
  878MOL0    Cl18440  -3.131   1.347   2.271  0.6956 -0.1710  0.6951
  878MOL0     C18441  -2.033   0.811   2.471 -0.1780  0.6979 -0.0434
  878MOL0     C18442  -1.901   0.857   2.450  0.7458  0.0928 -0.1497
  878MOL0     O18443  -1.682   0.851   2.193 -1.0216 -0.0254 -0.9291
  878MOL0     C18444  -1.488   1.137   2.289  0.4312 -0.8503  0.1672
  878MOL0     C18445  -1.366   1.195   2.273 -0.0017  0.0305  0.3582
  878MOL0     N18446  -0.603   1.272   2.384 -0.3902  0.1846 -0.0745
  878MOL0     N18447  -0.512   1.253   2.481 -0.1349 -0.2116 -0.1410
  878MOL0     C18448   0.416   1.598   2.011  0.5081 -0.1997 -0.1924
  878MOL0     C18449   0.496   1.650   1.916 -0.1214 -0.9573 -0.1555
  878MOL0     C18450   0.878   1.909   1.768  0.3658  0.1840 -0.4910
  878MOL0     C18451   0.933   1.796   1.718 -0.2779  0.4899 -0.1970
  878MOL0     C18452   1.050   1.807   1.641  0.6320  0.0763 -0.6055
  878MOL0     C18453   1.108   1.928   1.613 -0.3566  0.1978  0.2654
  878MOL0     O18454   1.231   1.919   1.549  0.2759  0.3888  0.6015
  878MOL0     C18455   1.288   2.042   1.506  0.2590  0.8544  0.9730
  878MOL0     C18456   1.395   2.028   1.391  0.1487 -0.1531  0.0670
  878MOL0     C18457   1.496   1.920   1.421 -0.1930 -0.6940 -0.4829
  878MOL0     C18458   1.588   1.890   1.304  0.2601  0.3827  0.4467
  878MOL0     C18459   1.655   1.758   1.332 -1.0777  0.4232  0.6753
  878MOL0     C18460   1.711   1.656   1.361 -0.0386  0.0384  0.7683
  878MOL0     C18461   1.053   2.041   1.666  0.7583 -0.0590  0.6935
  878MOL0     C18462   0.942   2.033   1.746  0.5861  0.2467 -0.0634
  878MOL0     H18463   0.734   1.789   2.122  2.2845 -1.4271 -1.4966
  878MOL0     H18464   0.565   1.688   2.285 -3.6589 -0.8428  0.9398
  878MOL0     H18465   0.412   1.642   2.421 -0.3082  2.4632 -1.6501
  878MOL0     H18466   0.282   1.723   2.323 -2.2315 -0.8278 -1.9079
  878MOL0     H18467   0.253   1.448   2.444  2.2418  0.5913 -0.4037
  878MOL0     H18468   0.212   1.591   2.538  1.6609 -3.3723  1.6842
  878MOL0     H18469   0.070   1.666   2.378  0.0760  0.1292  0.0947
  878MOL0     H18470   0.078   1.537   2.272 -1.2502  1.8976 -0.6038
  878MOL0     H18471   0.002   1.499   2.566  1.5308 -0.5887  0.4021
  878MOL0     H18472  -0.122   1.554   2.448 -0.6420 -1.0539  0.1880
  878MOL0     H18473  -0.066   1.353   2.301 -5.8439 -0.2360 -0.3270
  878MOL0     H18474   0.030   1.293   2.444 -0.4329 -0.4941 -0.6375
  878MOL0     H18475  -0.197   1.352   2.557  0.2891  1.9032 -1.1788
  878MOL0     H18476  -0.272   1.340   2.403 -0.5563 -0.5366  0.7335
  878MOL0     H18477  -0.179   1.109   2.359 -0.6224  1.8204 -0.3079
  878MOL0     H18478  -0.100   1.110   2.525  1.5562 -0.7097 -1.9824
  878MOL0     H18479  -0.318   1.125   2.630  0.1266 -1.1024  0.6546
  878MOL0     H18480  -0.310   0.988   2.517  0.5214 -0.0393  0.3116
  878MOL0     H18481  -0.395   1.052   2.253 -1.0734  0.1081 -1.2976
  878MOL0     H18482  -0.651   1.286   2.121  0.2505 -1.2615 -1.4495
  878MOL0     H18483  -0.578   1.124   2.082  0.1094 -1.6885  0.8377
  878MOL0     H18484  -0.759   1.013   2.228 -3.0659  1.6034  2.8509
  878MOL0     H18485  -0.789   1.071   2.068  1.9821 -0.9040  1.2023
  878MOL0     H18486  -0.889   1.282   2.180  4.0227  1.5893  0.0420
  878MOL0     H18487  -0.866   1.204   2.332 -0.2102  0.5997 -0.6340
  878MOL0     H18488  -1.023   1.027   2.279  0.1767 -0.1788  0.7831
  878MOL0     H18489  -1.006   1.078   2.109  2.2264 -1.3321  0.4144
  878MOL0     H18490  -1.189   0.924   2.155  0.5315 -1.1425  3.0011
  878MOL0     H18491  -1.440   0.726   2.231 -0.4554  0.5473 -0.1836
  878MOL0     H18492  -1.502   0.778   2.071  1.3126 -2.2371 -2.1814
  878MOL0     H18493  -1.325   0.750   2.095 -0.3044 -0.2364  0.4883
  878MOL0     H18494  -1.938   1.106   2.240  0.8462  0.4375  0.7591
  878MOL0     H18495  -2.156   1.049   2.261 -0.3110 -1.0378 -0.9422
  878MOL0     H18496  -2.335   1.057   2.426  1.3253  0.5155 -5.2811
  878MOL0     H18497  -2.395   0.946   2.308 -2.1060 -0.2068  0.5568
  878MOL0     H18498  -2.523   0.820   2.473  3.1790 -0.5466 -2.4991
  878MOL0     H18499  -2.461   0.924   2.603  0.5563 -3.0128 -0.5512
  878MOL0     H18500  -2.630   1.027   2.362 -0.9817 -0.5734  0.0801
  878MOL0     H18501  -2.582   1.113   2.508  0.7350 -0.4325  0.0896
  878MOL0     H18502  -2.748   0.855   2.532  3.1022 -0.8065 -1.4973
  878MOL0     H18503  -2.717   0.982   2.645 -0.9392  0.2576  0.4910
  878MOL0     H18504  -2.961   1.004   2.524 -0.1707  0.4384  2.1948
  878MOL0     H18505  -2.860   1.033   2.382 -1.9893  1.7113  0.4505
  878MOL0     H18506  -2.855   1.198   2.641  0.9124  3.1986 -0.4921
  878MOL0     H18507  -2.761   1.229   2.493  1.2369 -1.8127 -1.0450
  878MOL0     H18508  -2.969   1.359   2.521  1.1403  1.3455 -3.1767
  878MOL0     H18509  -3.075   1.212   2.516 -0.2032 -1.3806 -3.1166
  878MOL0     H18510  -2.969   1.168   2.287 -0.0814 -1.5344  1.5359
  878MOL0     H18511  -2.896   1.328   2.306 -0.8754  0.2037 -2.1028
  878MOL0     H18512  -2.060   0.725   2.531  1.8705  1.2949  1.8643
  878MOL0     H18513  -1.833   0.786   2.497  0.1829  0.9965  2.1643
  878MOL0     H18514  -1.569   1.196   2.331  3.2081  1.7619  2.2798
  878MOL0     H18515  -1.362   1.301   2.295 -0.3816  0.1641 -0.2101
  878MOL0     H18516   0.323   1.547   1.992  0.9438 -2.1811  2.3970
  878MOL0     H18517   0.469   1.654   1.811  1.4963  0.4270 -0.5558
  878MOL0     H18518   0.891   1.700   1.749 -0.0642 -0.2780 -2.1743
  878MOL0     H18519   1.110   1.723   1.606 -1.6979 -1.0152 -2.1904
  878MOL0     H18520   1.208   2.102   1.461  0.8557  0.7051 -0.3477
  878MOL0     H18521   1.332   2.085   1.596 -0.7550  1.2913  1.2739
  878MOL0     H18522   1.430   2.128   1.364  2.0294 -1.1139 -1.2618
  878MOL0     H18523   1.341   2.002   1.299  0.7626  1.4266 -0.7823
  878MOL0     H18524   1.441   1.828   1.446  0.4834 -0.9281  0.1824
  878MOL0     H18525   1.564   1.950   1.501  0.2979 -0.2052 -1.0730
  878MOL0     H18526   1.663   1.968   1.289 -2.8728  3.5764 -0.0495
  878MOL0     H18527   1.526   1.894   1.214  1.9316 -2.4059 -0.9696
  878MOL0     H18528   1.768   1.567   1.381  3.3771  1.0112 -3.1152
  878MOL0     H18529   1.093   2.139   1.640 -2.8768  1.1933 -0.8342
  878MOL0     H18530   0.881   2.117   1.778  0.7378 -0.5344  2.5096
  879MOL0     O18531   0.098   0.554   9.311  0.4693  0.2089 -0.2172
  879MOL0     C18532   0.039   0.622   9.225 -0.3748  0.5507  0.0239
  879MOL0     O18533  -0.096   0.621   9.213  0.3588 -0.8148 -0.0374
  879MOL0     C18534  -0.176   0.547   9.291 -0.8920 -0.4274  0.2988
  879MOL0     C18535  -0.157   0.413   9.308  0.1531  0.4811 -0.6330
  879MOL0     C18536  -0.256   0.341   9.376 -0.1980  0.0961 -0.1360
  879MOL0     C18537  -0.371   0.399   9.432  0.0909  0.8620  0.1761
  879MOL0     O18538  -0.454   0.306   9.490  0.6808 -0.6377 -0.4407
  879MOL0     C18539  -0.602   0.330   9.485  0.4527 -0.5549  0.0753
  879MOL0     C18540  -0.657   0.236   9.374  0.7247  0.0346  0.2600
  879MOL0     C18541  -0.809   0.237   9.361 -1.0619 -0.7637 -0.4133
  879MOL0     C18542  -0.860   0.100   9.324  0.5217 -0.7007  0.4036
  879MOL0     C18543  -1.008   0.105   9.268  0.1029  0.0977  0.6228
  879MOL0     C18544  -1.102   0.123   9.386  0.2285  0.6227  0.0259
  879MOL0     C18545  -1.245   0.168   9.356 -1.4273  0.2386 -0.1122
  879MOL0     C18546  -1.306   0.104   9.230  0.3298  0.0381  1.5043
  879MOL0     N18547  -1.451   0.135   9.229  0.7917 -0.6530  0.0479
  879MOL0     C18548  -1.513   0.251   9.203  0.3292  0.6782  0.2580
  879MOL0     C18549  -1.643   0.238   9.211 -0.0095  0.6325  0.4464
  879MOL0     C18550  -1.742   0.352   9.210  0.6086 -0.5496  0.5171
  879MOL0     C18551  -1.845   0.338   9.097 -0.8291  0.1713  0.1586
  879MOL0     C18552  -1.905   0.472   9.063 -0.3900  0.2645 -0.4367
  879MOL0     C18553  -1.964   0.551   9.174  0.1894  0.1062 -0.3673
  879MOL0     O18554  -2.055   0.469   9.247 -0.1987 -0.0560 -0.6296
  879MOL0     C18555  -2.183   0.467   9.207  0.0819 -0.7151 -0.1042
  879MOL0     C18556  -2.246   0.342   9.201 -0.3601  0.5717  0.1073
  879MOL0     C18557  -2.388   0.324   9.177  0.8732  0.1210  0.0045
  879MOL0     C18558  -2.441   0.180   9.162 -0.0597  0.0971 -0.8149
  879MOL0     C18559  -2.464   0.438   9.153  0.6161 -0.9564 -0.0811
  879MOL0     C18560  -2.610   0.454   9.131  0.6006  0.1472 -0.2912
  879MOL0     O18561  -2.687   0.361   9.201 -0.1958 -0.2411 -0.0802
  879MOL0     C18562  -2.813   0.325   9.156 -0.2382 -0.4123  0.4591
  879MOL0     C18563  -2.873   0.237   9.246 -0.3037  0.0555 -0.1141
  879MOL0     C18564  -3.003   0.191   9.228  0.2480  0.1157  0.2520
  879MOL0     C18565  -3.069   0.222   9.110  0.6426  0.1031 -0.4699
  879MOL0     O18566  -3.186   0.154   9.083  0.4603  0.5067  0.3692
  879MOL0     C18567  -3.300   0.214   9.154  0.0281  0.2078 -0.1862
  879MOL0     C18568  -3.423   0.171   9.093  0.2401 -0.5167 -0.2028
  879MOL0     C18569  -3.478   0.036   9.149  1.2523  1.2470 -0.1223
  879MOL0     C18570  -3.616   0.009   9.086 -0.1838 -0.0043 -0.4152
  879MOL0     C18571  -3.691  -0.121   9.117 -0.5349  0.0774 -0.0939
  879MOL0     C18572  -3.821  -0.117   9.036 -0.2040  0.5249 -0.0565
  879MOL0     C18573  -3.950  -0.034   9.084 -0.1151  0.3945  0.3695
  879MOL0     C18574  -4.084  -0.073   9.009 -0.3083  0.5786 -0.4457
  879MOL0    Cl18575  -4.049  -0.086   8.833  0.0785  0.3366 -0.9256
  879MOL0     C18576  -3.010   0.298   9.015 -0.4147  0.1004  0.0453
  879MOL0     C18577  -2.892   0.364   9.042 -0.8172  1.3169  1.2688
  879MOL0     O18578  -2.645   0.510   9.026  0.2146 -0.1075 -0.5206
  879MOL0     C18579  -2.397   0.571   9.161 -0.6880  0.6206  0.5676
  879MOL0     C18580  -2.260   0.576   9.184  0.1726 -0.1061  0.1727
  879MOL0     N18581  -1.674   0.108   9.242 -0.2583 -0.2710  0.1381
  879MOL0     N18582  -1.557   0.047   9.248 -0.6532 -0.5641  0.2974
  879MOL0     C18583  -0.377   0.542   9.422 -0.1054  0.3585  1.0937
  879MOL0     C18584  -0.288   0.613   9.342 -0.6364 -0.3053 -0.0541
  879MOL0     C18585   0.115   0.714   9.131 -0.1661  0.1617  0.4146
  879MOL0     C18586   0.253   0.736   9.153 -0.1969  0.2010  0.1660
  879MOL0     C18587   0.323   0.817   9.067 -0.1393 -0.0979  0.2553
  879MOL0     C18588   0.261   0.879   8.963  0.0709 -0.8660  0.3831
  879MOL0     O18589   0.342   0.960   8.880  0.1020 -0.7286 -0.4537
  879MOL0     C18590   0.293   1.043   8.771  0.2775  0.6216  0.2298
  879MOL0     C18591   0.380   1.155   8.709 -0.6361  0.1744  0.0412
  879MOL0     C18592   0.288   1.235   8.608 -0.4074  0.4676  0.1081
  879MOL0     C18593   0.359   1.363   8.536 -0.1673  0.3989  0.2126
  879MOL0     C18594   0.477   1.316   8.462  0.3398 -0.4403  0.4529
  879MOL0     C18595   0.563   1.278   8.388 -0.1120 -0.4560 -0.4631
  879MOL0     C18596   0.121   0.863   8.944  0.6663  0.5293 -0.6764
  879MOL0     C18597   0.050   0.770   9.025 -0.1697 -0.2134  0.5154
  879MOL0     H18598  -0.068   0.369   9.266  0.1990  1.1549 -1.2483
  879MOL0     H18599  -0.245   0.234   9.392 -0.2149 -0.3171 -2.5269
  879MOL0     H18600  -0.649   0.304   9.580 -0.1027  1.0166  0.2435
  879MOL0     H18601  -0.630   0.434   9.468  1.8496  0.0805  1.3975
  879MOL0     H18602  -0.608   0.256   9.279  0.5232  1.4737  0.4392
  879MOL0     H18603  -0.640   0.129   9.394 -1.6736 -0.4913 -0.1881
  879MOL0     H18604  -0.852   0.285   9.449  0.0263 -0.4753 -0.0253
  879MOL0     H18605  -0.848   0.289   9.273 -0.3668 -2.2996 -1.6879
  879MOL0     H18606  -0.801   0.056   9.243 -1.2361  2.0395 -2.6193
  879MOL0     H18607  -0.855   0.032   9.410  2.9712 -2.4823 -1.0156
  879MOL0     H18608  -1.017   0.184   9.192 -3.9231 -1.1147 -0.4045
  879MOL0     H18609  -1.027   0.006   9.225  1.1625 -0.0406  0.4476
  879MOL0     H18610  -1.100   0.031   9.446  3.5952 -0.8590 -2.0642
  879MOL0     H18611  -1.072   0.202   9.455  3.0889  1.4049 -1.9188
  879MOL0     H18612  -1.308   0.157   9.445 -1.7741  2.1303 -0.0931
  879MOL0     H18613  -1.244   0.275   9.335 -0.2090  0.4254  0.7979
  879MOL0     H18614  -1.296  -0.004   9.236  1.1104  0.1039  1.4719
  879MOL0     H18615  -1.253   0.127   9.137  0.1364  0.8062  1.5753
  879MOL0     H18616  -1.462   0.345   9.182 -0.7750  1.4657  0.9890
  879MOL0     H18617  -1.787   0.351   9.310  2.6560  1.6444  1.5621
  879MOL0     H18618  -1.686   0.444   9.193  1.1548 -1.3448 -2.5493
  879MOL0     H18619  -1.917   0.264   9.133  0.8787 -2.2644 -1.2051
  879MOL0     H18620  -1.800   0.294   9.008  2.5469 -0.6180  2.0741
  879MOL0     H18621  -1.996   0.462   9.004 -0.8288 -0.3703  0.3272
  879MOL0     H18622  -1.831   0.532   9.009  1.8245  0.5520  2.6647
  879MOL0     H18623  -2.010   0.643   9.135 -0.0698 -0.3377 -1.1323
  879MOL0     H18624  -1.892   0.590   9.247  1.6557  0.5598 -1.9762
  879MOL0     H18625  -2.195   0.248   9.219 -2.0695 -0.7560 -1.5391
  879MOL0     H18626  -2.450   0.147   9.058  3.6425 -0.9226 -0.9540
  879MOL0     H18627  -2.377   0.099   9.199 -0.8120 -1.2178 -2.2866
  879MOL0     H18628  -2.537   0.162   9.211 -0.4069  1.8161 -0.7965
  879MOL0     H18629  -2.815   0.228   9.336 -0.4176 -1.1961 -0.1427
  879MOL0     H18630  -3.046   0.126   9.304 -0.0890  0.5898  0.4696
  879MOL0     H18631  -3.291   0.198   9.262  4.0112 -1.0645 -0.5567
  879MOL0     H18632  -3.287   0.322   9.140  2.5692 -0.2267 -1.9452
  879MOL0     H18633  -3.502   0.245   9.109  0.0534 -1.1051  1.9512
  879MOL0     H18634  -3.411   0.153   8.986  0.2131  0.4515 -0.3739
  879MOL0     H18635  -3.476   0.044   9.258 -0.9798  0.9349 -0.0237
  879MOL0     H18636  -3.411  -0.043   9.113 -1.2179 -2.2515  2.2545
  879MOL0     H18637  -3.684   0.089   9.116 -0.9579 -0.6797 -0.3280
  879MOL0     H18638  -3.598   0.018   8.979  0.7610  2.3427 -0.1081
  879MOL0     H18639  -3.718  -0.150   9.219 -3.6202 -0.1583 -0.8690
  879MOL0     H18640  -3.639  -0.208   9.077  1.8537  2.0334 -1.4713
  879MOL0     H18641  -3.793  -0.090   8.934 -3.4760  1.5148 -0.8181
  879MOL0     H18642  -3.852  -0.222   9.032  2.1497 -0.1993 -0.6099
  879MOL0     H18643  -3.946   0.072   9.057 -1.8154 -0.1479 -2.3536
  879MOL0     H18644  -3.969  -0.046   9.191  1.3557  2.8275  0.9773
  879MOL0     H18645  -4.165  -0.003   9.032  1.1273  2.1836 -0.0638
  879MOL0     H18646  -4.114  -0.170   9.050  1.6946  0.5557  1.1281
  879MOL0     H18647  -3.056   0.317   8.918 -0.2081  1.6448  0.2334
  879MOL0     H18648  -2.856   0.438   8.971  0.7199 -0.9717 -0.4764
  879MOL0     H18649  -2.448   0.665   9.141 -0.4126  0.5980 -0.3075
  879MOL0     H18650  -2.223   0.678   9.189 -2.7759  0.9982  2.3782
  879MOL0     H18651  -0.464   0.593   9.462 -1.0889 -1.2323  1.0384
  879MOL0     H18652  -0.319   0.717   9.336 -1.3790 -0.3766  1.9674
  879MOL0     H18653   0.305   0.712   9.245  4.5001  1.2074 -1.8962
  879MOL0     H18654   0.429   0.837   9.079  0.1358 -2.3503  2.2937
  879MOL0     H18655   0.266   0.977   8.688  3.5002  0.1055 -0.5482
  879MOL0     H18656   0.200   1.085   8.810  1.3640  0.3367  3.4349
  879MOL0     H18657   0.474   1.118   8.667  0.6055  2.0351  0.9843
  879MOL0     H18658   0.412   1.227   8.786 -1.2839 -0.4143  0.8868
  879MOL0     H18659   0.201   1.270   8.664  0.5489  1.8649  0.7909
  879MOL0     H18660   0.244   1.166   8.536 -2.2812  0.9918  0.7022
  879MOL0     H18661   0.391   1.436   8.612 -0.3644  0.3465  0.3472
  879MOL0     H18662   0.289   1.399   8.461 -0.7250  1.2064  1.0988
  879MOL0     H18663   0.629   1.248   8.310  1.5875  0.8599  0.4005
  879MOL0     H18664   0.071   0.893   8.852 -0.5282 -0.1313 -0.2687
  879MOL0     H18665  -0.053   0.749   8.999 -0.6978  2.6978 -0.1187
  880MOL0     O18666   7.512   0.687   0.507 -0.4504 -0.0865  0.1566
  880MOL0     C18667   7.608   0.766   0.515  0.4677  0.0227 -0.1586
  880MOL0     O18668   7.608   0.895   0.470  0.0570  0.2746  0.2001
  880MOL0     C18669   7.482   0.947   0.437  0.8383  0.0462 -0.6636
  880MOL0     C18670   7.420   0.910   0.317  0.5027 -0.9122 -0.5279
  880MOL0     C18671   7.310   0.978   0.270  0.0294 -0.6536  0.6701
  880MOL0     C18672   7.252   1.086   0.341 -0.0069 -0.3506  0.2339
  880MOL0     O18673   7.145   1.166   0.301 -0.8203 -0.2445 -0.2638
  880MOL0     C18674   7.115   1.175   0.166  0.2191 -0.4283  0.1009
  880MOL0     C18675   6.990   1.266   0.136 -0.1397 -0.0497 -0.2825
  880MOL0     C18676   6.874   1.239   0.230 -0.7407 -0.5284  0.8221
  880MOL0     C18677   6.764   1.339   0.202 -0.2482 -0.3945 -0.1317
  880MOL0     C18678   6.642   1.317   0.297 -0.3327 -0.0147  0.1407
  880MOL0     C18679   6.525   1.399   0.243  0.1538 -0.3255 -0.6613
  880MOL0     C18680   6.515   1.537   0.315 -0.4614 -0.5377 -0.1324
  880MOL0     C18681   6.373   1.609   0.317 -0.4565  0.1785  0.0958
  880MOL0     N18682   6.269   1.517   0.361  0.1689 -0.3399  0.2931
  880MOL0     C18683   6.157   1.480   0.281 -0.5183 -0.0065  0.1401
  880MOL0     C18684   6.087   1.396   0.354 -0.0488 -0.2527  0.0061
  880MOL0     C18685   5.966   1.334   0.317  0.1197 -0.1667  0.6443
  880MOL0     C18686   5.941   1.200   0.382  0.8866  0.0775 -0.6466
  880MOL0     C18687   5.805   1.148   0.331  0.1217  0.4004 -0.4064
  880MOL0     C18688   5.775   1.007   0.390  0.2140 -0.3372 -0.1859
  880MOL0     O18689   5.750   1.019   0.535  0.7984 -0.3594 -0.1660
  880MOL0     C18690   5.614   1.040   0.571  0.5800  0.3541 -0.2163
  880MOL0     C18691   5.594   1.062   0.706  0.4053 -0.3820  0.2016
  880MOL0     C18692   5.469   1.097   0.766  0.5993 -0.0133 -0.3560
  880MOL0     C18693   5.469   1.135   0.909  0.0086 -0.1865 -0.0842
  880MOL0     C18694   5.354   1.110   0.682  0.3065 -0.2664  0.1468
  880MOL0     C18695   5.211   1.132   0.725 -0.3406  0.1732  0.2593
  880MOL0     O18696   5.171   1.103   0.854  0.7617  0.3170  0.2077
  880MOL0     C18697   5.037   1.073   0.868  0.7000  0.5802 -0.1249
  880MOL0     C18698   4.962   0.991   0.779 -0.0209 -1.0314  0.0677
  880MOL0     C18699   4.821   0.961   0.806 -0.7373 -0.0300 -0.1932
  880MOL0     C18700   4.762   1.021   0.916  0.0367 -0.0136 -0.4029
  880MOL0     O18701   4.629   1.008   0.952 -0.2036  0.0894 -0.2151
  880MOL0     C18702   4.545   0.932   0.861  1.0115 -0.5456  0.3415
  880MOL0     C18703   4.395   0.937   0.912 -0.6470  0.1763  0.3112
  880MOL0     C18704   4.300   0.826   0.886 -0.5219 -0.6974 -0.0309
  880MOL0     C18705   4.270   0.781   0.739 -0.7140  0.3924  0.1184
  880MOL0     C18706   4.174   0.666   0.739  0.7336 -0.1839  0.6573
  880MOL0     C18707   4.034   0.710   0.753  0.1738 -0.3400  0.3105
  880MOL0     C18708   3.952   0.718   0.620  0.5257  0.4355 -0.5238
  880MOL0     C18709   4.020   0.810   0.518  0.0940  0.2254  0.5826
  880MOL0    Cl18710   3.901   0.831   0.393 -0.2859 -0.5013 -0.0620
  880MOL0     C18711   4.828   1.105   0.995  0.0332 -0.0117  0.2717
  880MOL0     C18712   4.967   1.130   0.970  0.5358  0.4706 -0.1396
  880MOL0     O18713   5.138   1.185   0.640 -0.5380 -0.0303 -0.2263
  880MOL0     C18714   5.369   1.076   0.544  0.1240 -0.0261 -0.0308
  880MOL0     C18715   5.494   1.045   0.494 -0.0943  0.1281 -0.2688
  880MOL0     N18716   6.154   1.374   0.470  0.0968 -0.4120  0.0602
  880MOL0     N18717   6.261   1.444   0.479 -0.1463 -0.8875 -0.0608
  880MOL0     C18718   7.305   1.111   0.464  0.1327 -0.0374 -0.4213
  880MOL0     C18719   7.420   1.047   0.513 -0.7572  0.6515 -0.4084
  880MOL0     C18720   7.738   0.705   0.564  0.0756 -0.1774  0.4145
  880MOL0     C18721   7.860   0.768   0.544  0.1511 -0.4302 -1.2420
  880MOL0     C18722   7.987   0.714   0.586 -1.0897 -0.0460  0.7230
  880MOL0     C18723   7.993   0.587   0.651  0.5384  0.3144 -0.1574
  880MOL0     O18724   8.092   0.499   0.681 -1.4682 -0.3874 -0.3451
  880MOL0     C18725   8.225   0.543   0.657 -0.2547 -0.0604  0.6237
  880MOL0     C18726   8.315   0.431   0.693  0.2685  0.2238  0.5521
  880MOL0     C18727   8.456   0.483   0.730 -0.4317 -0.3347 -0.0397
  880MOL0     C18728   8.547   0.372   0.786 -0.3497  0.3406 -0.2637
  880MOL0     C18729   8.562   0.248   0.712 -0.2230 -0.0689 -0.7968
  880MOL0     C18730   8.572   0.158   0.638 -0.5444 -0.2481  0.1784
  880MOL0     C18731   7.867   0.529   0.677  0.7394 -0.5202  0.0099
  880MOL0     C18732   7.744   0.595   0.646  0.2849  0.5129  0.0914
  880MOL0     H18733   7.460   0.822   0.268 -1.6120 -2.2003 -0.0922
  880MOL0     H18734   7.267   0.955   0.173 -1.2674 -0.6554  1.2126
  880MOL0     H18735   7.203   1.207   0.109 -0.1823 -0.3758 -0.4975
  880MOL0     H18736   7.091   1.074   0.133 -0.3124 -0.2094 -0.1966
  880MOL0     H18737   7.016   1.370   0.158 -4.1916  1.2394 -0.8361
  880MOL0     H18738   6.959   1.246   0.033 -0.7807 -4.1237  0.5438
  880MOL0     H18739   6.846   1.135   0.216  0.6444 -0.8382  0.1276
  880MOL0     H18740   6.906   1.249   0.334  2.5130  1.3031 -0.1941
  880MOL0     H18741   6.798   1.440   0.225 -0.4714 -1.1611  4.5017
  880MOL0     H18742   6.738   1.328   0.097  2.4496  0.7318 -1.0275
  880MOL0     H18743   6.617   1.210   0.295  1.1278 -0.4951  2.5151
  880MOL0     H18744   6.671   1.343   0.399  1.0572 -1.3377  0.1137
  880MOL0     H18745   6.537   1.419   0.136  0.5797  3.0155 -0.1174
  880MOL0     H18746   6.431   1.344   0.249 -0.8321  1.3785  0.3207
  880MOL0     H18747   6.553   1.529   0.417  1.0257  1.5323 -0.4885
  880MOL0     H18748   6.593   1.597   0.269 -0.3124  0.9888  1.9425
  880MOL0     H18749   6.333   1.640   0.219  1.5949 -0.1310 -0.8951
  880MOL0     H18750   6.379   1.702   0.374 -0.7108 -0.3671  1.0215
  880MOL0     H18751   6.118   1.526   0.191  0.3122 -0.4860 -0.4857
  880MOL0     H18752   5.887   1.406   0.343  0.8638  0.8395  0.2000
  880MOL0     H18753   5.963   1.315   0.210  0.9124  0.0006  0.5826
  880MOL0     H18754   5.937   1.211   0.491 -0.7827  0.5391 -0.7395
  880MOL0     H18755   6.020   1.129   0.356 -0.6206 -1.0789 -2.2753
  880MOL0     H18756   5.808   1.143   0.222  0.6254 -0.9687 -0.3602
  880MOL0     H18757   5.724   1.219   0.351 -1.2185 -1.0529 -0.4414
  880MOL0     H18758   5.856   0.936   0.373  0.3119 -0.0192 -1.1610
  880MOL0     H18759   5.698   0.953   0.333  1.1907 -0.3860 -1.5123
  880MOL0     H18760   5.684   1.066   0.766  0.8309  0.1253 -0.4484
  880MOL0     H18761   5.545   1.083   0.968 -1.5698  0.0138  2.2348
  880MOL0     H18762   5.498   1.241   0.904  0.0599 -0.1822 -5.0487
  880MOL0     H18763   5.382   1.114   0.971  0.4307 -0.5145  0.4061
  880MOL0     H18764   5.017   0.950   0.695  1.7937 -2.1981  1.7192
  880MOL0     H18765   4.765   0.898   0.738  0.6353 -0.6395 -0.7953
  880MOL0     H18766   4.547   0.963   0.756  0.0353 -0.4149  0.3522
  880MOL0     H18767   4.587   0.831   0.855  1.2874 -0.5444  1.8143
  880MOL0     H18768   4.393   0.935   1.022  0.0693  2.9632  0.4541
  880MOL0     H18769   4.356   1.031   0.873 -0.4127 -0.2092 -0.9048
  880MOL0     H18770   4.209   0.835   0.947 -1.2954 -0.6812 -1.1555
  880MOL0     H18771   4.344   0.739   0.936 -2.5221 -0.5370  2.1803
  880MOL0     H18772   4.233   0.865   0.681 -0.0152  1.7812  1.6001
  880MOL0     H18773   4.368   0.746   0.703  0.2126  3.0809 -0.2179
  880MOL0     H18774   4.192   0.607   0.829 -0.9527 -2.5835 -0.4616
  880MOL0     H18775   4.181   0.595   0.656 -3.4841  0.5622 -0.5666
  880MOL0     H18776   3.977   0.643   0.818  0.4397  0.5095  1.4672
  880MOL0     H18777   4.041   0.802   0.812  5.8301  0.2372 -0.6421
  880MOL0     H18778   3.856   0.764   0.646  0.2658  0.1234 -0.9215
  880MOL0     H18779   3.933   0.618   0.579  0.6177  1.0869 -2.2129
  880MOL0     H18780   4.104   0.760   0.470 -1.4892 -1.9946 -0.0156
  880MOL0     H18781   4.047   0.907   0.561 -0.3061 -0.2043  1.8579
  880MOL0     H18782   4.780   1.138   1.087 -0.5078  0.5399 -0.2013
  880MOL0     H18783   5.021   1.192   1.040 -1.1745  2.0907 -0.1687
  880MOL0     H18784   5.287   1.074   0.473  2.1999  3.5716 -2.8327
  880MOL0     H18785   5.503   1.018   0.389  0.9665 -2.4685  0.4113
  880MOL0     H18786   7.268   1.190   0.529 -0.3194 -0.3973 -0.2397
  880MOL0     H18787   7.445   1.068   0.616 -0.7603  1.8859 -0.6439
  880MOL0     H18788   7.860   0.861   0.488 -2.3282 -1.4798 -3.1668
  880MOL0     H18789   8.077   0.767   0.554  0.1992 -1.0332  2.5966
  880MOL0     H18790   8.231   0.573   0.552 -2.1218  0.6686  0.6982
  880MOL0     H18791   8.242   0.629   0.723  1.2891 -1.1983  1.7940
  880MOL0     H18792   8.328   0.391   0.592  0.4284  0.9947  0.2557
  880MOL0     H18793   8.270   0.364   0.766 -0.4142 -2.2214 -1.9544
  880MOL0     H18794   8.463   0.567   0.800  0.9697 -0.0739 -0.4508
  880MOL0     H18795   8.506   0.513   0.638 -0.0177 -0.8499  0.0104
  880MOL0     H18796   8.516   0.344   0.887 -2.8514 -1.4337 -1.4160
  880MOL0     H18797   8.646   0.412   0.809  0.7952 -0.9171 -2.7084
  880MOL0     H18798   8.571   0.059   0.597 -0.5117  0.2095 -0.9796
  880MOL0     H18799   7.864   0.435   0.731 -1.5942 -0.6212 -0.1963
  880MOL0     H18800   7.651   0.549   0.677 -0.9484  2.0164 -1.2280
  881MOL0     O18801   7.556   7.452  10.724 -0.2854 -0.5905  0.4991
  881MOL0     C18802   7.530   7.402  10.835  0.3781  0.8819  0.3722
  881MOL0     O18803   7.414   7.401  10.898  0.5723  0.7081  0.1594
  881MOL0     C18804   7.293   7.437  10.841 -1.2032 -1.0636 -0.5732
  881MOL0     C18805   7.185   7.439  10.927 -0.9015 -0.4127  0.1758
  881MOL0     C18806   7.059   7.453  10.880  0.0064 -0.0298  0.0041
  881MOL0     C18807   7.027   7.492  10.748 -0.7958  0.2706  0.2034
  881MOL0     O18808   6.902   7.509  10.702  0.2949  0.0357  0.6074
  881MOL0     C18809   6.808   7.562  10.792 -0.3370  0.4210 -1.1060
  881MOL0     C18810   6.687   7.626  10.715  0.2423 -1.3136  0.4493
  881MOL0     C18811   6.719   7.767  10.656 -0.0756  0.5915  0.4866
  881MOL0     C18812   6.620   7.805  10.543  0.1750 -0.4394 -0.4183
  881MOL0     C18813   6.511   7.907  10.584  0.0637 -0.3275  1.0217
  881MOL0     C18814   6.414   7.841  10.688 -0.4193 -0.6265  0.5809
  881MOL0     C18815   6.295   7.924  10.697  1.6890  0.3765  0.4051
  881MOL0     C18816   6.203   7.902  10.573 -0.1844 -0.0611  0.5242
  881MOL0     N18817   6.152   7.766  10.543 -0.5131 -0.6865  0.5684
  881MOL0     C18818   6.043   7.706  10.613 -0.0111 -0.3659  0.3067
  881MOL0     C18819   6.016   7.586  10.547  0.4916  0.4549  0.2759
  881MOL0     C18820   5.889   7.512  10.560  0.3208  0.4489 -0.3056
  881MOL0     C18821   5.759   7.603  10.525 -0.3988  0.3137 -0.1513
  881MOL0     C18822   5.676   7.630  10.650 -0.5729 -0.1603  0.0174
  881MOL0     C18823   5.541   7.694  10.624  0.3641  0.4767  0.7656
  881MOL0     O18824   5.455   7.598  10.561  0.1520 -0.1856 -0.6934
  881MOL0     C18825   5.316   7.602  10.571 -0.3015  0.4043 -0.3518
  881MOL0     C18826   5.231   7.672  10.645  1.1041 -0.4748 -0.1112
  881MOL0     C18827   5.094   7.650  10.654  0.0283  0.4676  0.9979
  881MOL0     C18828   5.019   7.736  10.751  0.2953  0.0876 -0.3154
  881MOL0     C18829   5.028   7.543  10.584 -0.4060  0.9152 -1.1507
  881MOL0     C18830   4.890   7.502  10.590  0.3164 -0.0180  0.1690
  881MOL0     O18831   4.824   7.523  10.713  0.1241  0.3255 -0.3201
  881MOL0     C18832   4.687   7.500  10.722 -0.5288 -0.0716 -0.4256
  881MOL0     C18833   4.596   7.425  10.637 -0.3507 -0.9350 -0.5791
  881MOL0     C18834   4.463   7.404  10.682  0.4429  0.7715  0.6909
  881MOL0     C18835   4.414   7.469  10.800 -0.0896  0.7848  0.4788
  881MOL0     O18836   4.284   7.474  10.839 -0.1875 -0.2683 -0.4075
  881MOL0     C18837   4.173   7.391  10.780  0.1839  0.6516 -0.8718
  881MOL0     C18838   4.046   7.409  10.860  0.4919  0.5568  0.0717
  881MOL0     C18839   3.943   7.291  10.864 -0.0673  0.7382 -0.8910
  881MOL0     C18840   3.916   7.232  10.722 -0.1411 -0.1378 -0.2899
  881MOL0     C18841   3.841   7.093  10.729  0.7401  0.6852 -0.2817
  881MOL0     C18842   3.690   7.093  10.782 -0.3388  0.3210  0.5684
  881MOL0     C18843   3.579   7.131  10.683 -0.9160  0.9968 -0.2686
  881MOL0     C18844   3.447   7.174  10.743  0.9991 -0.3167 -0.0705
  881MOL0    Cl18845   3.502   7.327  10.811 -0.0466 -0.8976 -0.5188
  881MOL0     C18846   4.506   7.541  10.877  0.3654 -0.5579  0.3724
  881MOL0     C18847   4.634   7.559  10.838 -0.4456 -0.6748  0.0840
  881MOL0     O18848   4.833   7.455  10.489  0.0841  0.6702  0.9863
  881MOL0     C18849   5.118   7.481  10.491 -0.5055  0.4336  0.0888
  881MOL0     C18850   5.255   7.504  10.489 -0.8151  0.0636  0.6527
  881MOL0     N18851   6.122   7.571  10.458  0.5021  0.7563  0.3448
  881MOL0     N18852   6.203   7.672  10.460  0.1000 -0.3502  0.3560
  881MOL0     C18853   7.135   7.500  10.657 -0.2034 -0.3686  0.0402
  881MOL0     C18854   7.269   7.470  10.705 -0.5652 -0.1144 -0.0000
  881MOL0     C18855   7.641   7.348  10.915 -0.3265  0.2689 -0.4590
  881MOL0     C18856   7.639   7.339  11.056  0.2114 -0.5901  0.2397
  881MOL0     C18857   7.736   7.290  11.132  0.4252  0.2595 -0.4807
  881MOL0     C18858   7.852   7.249  11.068 -0.0645 -0.4081  0.6148
  881MOL0     O18859   7.953   7.199  11.128  0.3398  0.3053  0.5082
  881MOL0     C18860   7.976   7.212  11.272  0.6077 -0.5349 -0.2987
  881MOL0     C18861   8.005   7.358  11.314  0.6110 -0.5024  0.2285
  881MOL0     C18862   8.117   7.423  11.229  0.0424  0.9149  0.4921
  881MOL0     C18863   8.257   7.394  11.276 -0.2447 -0.4273  0.4578
  881MOL0     C18864   8.356   7.419  11.167 -0.7559 -0.2305  0.2856
  881MOL0     C18865   8.419   7.432  11.066 -0.8144 -0.2889 -0.0127
  881MOL0     C18866   7.862   7.239  10.927  0.1406 -0.2493 -0.1157
  881MOL0     C18867   7.761   7.294  10.854 -0.2945 -0.3640  0.4124
  881MOL0     H18868   7.212   7.421  11.030  2.9355 -0.7117 -0.7227
  881MOL0     H18869   6.985   7.450  10.959  0.4462  3.0019  0.6628
  881MOL0     H18870   6.782   7.470  10.846 -1.7092  0.9576 -0.8000
  881MOL0     H18871   6.843   7.638  10.862  0.0875  0.1053 -0.9760
  881MOL0     H18872   6.668   7.552  10.637  0.6018  0.0698 -0.9969
  881MOL0     H18873   6.595   7.626  10.774 -0.4705  0.3580 -0.5913
  881MOL0     H18874   6.709   7.841  10.736 -1.5426 -0.4032  1.2706
  881MOL0     H18875   6.821   7.755  10.618 -0.3935 -3.6477  0.4837
  881MOL0     H18876   6.688   7.853  10.472  2.5087 -3.5824 -0.5806
  881MOL0     H18877   6.580   7.720  10.487 -1.4128 -1.8048  2.5272
  881MOL0     H18878   6.559   7.995  10.628  0.5045 -0.0829  0.0613
  881MOL0     H18879   6.466   7.951  10.495 -0.2454 -1.6571  0.4985
  881MOL0     H18880   6.395   7.738  10.656  0.8249 -0.7491  0.1690
  881MOL0     H18881   6.462   7.834  10.786  0.0976 -1.4493  0.2845
  881MOL0     H18882   6.246   7.899  10.792  0.0430  0.6664 -0.3204
  881MOL0     H18883   6.315   8.032  10.699 -0.4352  1.0144 -3.3080
  881MOL0     H18884   6.260   7.940  10.487 -0.4015 -1.3424 -0.2119
  881MOL0     H18885   6.115   7.968  10.571  0.2920  0.6190 -1.7166
  881MOL0     H18886   5.980   7.750  10.689 -0.7254  0.1906 -0.5752
  881MOL0     H18887   5.890   7.422  10.497 -0.9297  0.7810 -0.8298
  881MOL0     H18888   5.872   7.482  10.664  0.8016 -0.8347 -0.5797
  881MOL0     H18889   5.710   7.545  10.447  0.2371  0.9259 -1.0133
  881MOL0     H18890   5.791   7.694  10.473  2.9895 -1.1726 -0.9197
  881MOL0     H18891   5.731   7.699  10.715 -1.4929 -1.8477  2.7899
  881MOL0     H18892   5.657   7.543  10.713 -1.0163 -0.6903 -0.8299
  881MOL0     H18893   5.545   7.790  10.571  0.8050  0.8175  1.4050
  881MOL0     H18894   5.495   7.729  10.717 -0.5827  2.1611 -0.2618
  881MOL0     H18895   5.275   7.751  10.705 -2.5827  0.5915  1.5115
  881MOL0     H18896   4.998   7.677  10.841 -1.9753 -0.6011 -1.2288
  881MOL0     H18897   5.088   7.818  10.775 -1.2920  1.1172  0.9694
  881MOL0     H18898   4.929   7.767  10.699  0.4822 -3.2377 -2.9465
  881MOL0     H18899   4.634   7.378  10.547  1.7523  0.6569 -0.5778
  881MOL0     H18900   4.405   7.329  10.630  2.7420  0.9353 -2.3830
  881MOL0     H18901   4.154   7.422  10.677  2.7051  1.2601 -1.2355
  881MOL0     H18902   4.206   7.287  10.773  2.0738  1.0380  1.1449
  881MOL0     H18903   4.073   7.411  10.966 -2.2924  0.0640  0.8799
  881MOL0     H18904   4.000   7.506  10.842  2.3914  1.5627  0.4747
  881MOL0     H18905   3.848   7.308  10.915 -0.0184  0.3359 -0.6601
  881MOL0     H18906   3.986   7.215  10.930  0.3188  1.9258  0.2644
  881MOL0     H18907   3.856   7.305  10.667 -0.1168  0.7980  0.8863
  881MOL0     H18908   4.010   7.216  10.668 -1.2956  0.9397 -2.7905
  881MOL0     H18909   3.901   7.028  10.794  0.2292 -0.1095 -0.5887
  881MOL0     H18910   3.851   7.047  10.631  1.0312  2.1316 -0.9498
  881MOL0     H18911   3.675   6.988  10.810 -0.2124  0.0237 -0.4600
  881MOL0     H18912   3.684   7.157  10.871 -1.1644  1.2155 -0.1036
  881MOL0     H18913   3.551   7.039  10.630 -0.9415  0.0601  1.3101
  881MOL0     H18914   3.615   7.205  10.611  1.4067 -0.3017 -0.5198
  881MOL0     H18915   3.395   7.100  10.805 -0.0950 -2.0592 -2.8926
  881MOL0     H18916   3.375   7.204  10.667  1.5327 -0.9034 -0.8116
  881MOL0     H18917   4.478   7.564  10.979  0.1388  0.6331  0.0515
  881MOL0     H18918   4.704   7.610  10.904 -0.1357  0.9966 -1.4401
  881MOL0     H18919   5.081   7.399  10.429  1.0836  1.4406 -2.3455
  881MOL0     H18920   5.320   7.445  10.425 -1.6662  0.9566 -1.1034
  881MOL0     H18921   7.102   7.524  10.556 -1.6357  1.7176  0.9248
  881MOL0     H18922   7.350   7.463  10.633 -2.3620  0.2911 -2.1785
  881MOL0     H18923   7.554   7.385  11.105 -0.8704 -0.6691 -1.4958
  881MOL0     H18924   7.724   7.285  11.240  1.1411 -1.3109 -0.4501
  881MOL0     H18925   7.883   7.186  11.323 -2.0995  4.3684 -2.0617
  881MOL0     H18926   8.064   7.158  11.308  1.9850  3.7592  3.8779
  881MOL0     H18927   8.033   7.371  11.419  2.9299  0.5234 -0.4452
  881MOL0     H18928   7.913   7.412  11.292  0.7674 -0.4648 -0.3439
  881MOL0     H18929   8.109   7.532  11.228 -0.0233  0.9089 -0.4564
  881MOL0     H18930   8.095   7.390  11.127 -0.5625 -0.5120  1.0510
  881MOL0     H18931   8.249   7.286  11.293 -0.4278 -0.1967  2.0150
  881MOL0     H18932   8.271   7.455  11.366 -1.9078  1.3093 -0.4151
  881MOL0     H18933   8.464   7.451  10.971  2.1036 -1.0883  1.0987
  881MOL0     H18934   7.954   7.199  10.884  0.0216 -2.8064  1.7169
  881MOL0     H18935   7.777   7.302  10.747  1.5358 -0.7701  0.6120
  882MOL0     O18936   1.599   5.183   5.021  0.5491  0.5871 -0.3590
  882MOL0     C18937   1.644   5.278   5.088 -0.2516  0.1722  0.1570
  882MOL0     O18938   1.572   5.386   5.128  0.3633  0.1427 -0.0676
  882MOL0     C18939   1.439   5.369   5.095  0.3797  0.7500  0.0975
  882MOL0     C18940   1.390   5.432   4.987  0.3729 -0.7491  0.0809
  882MOL0     C18941   1.254   5.418   4.945 -0.2386 -0.1006 -0.4265
  882MOL0     C18942   1.176   5.344   5.031  0.6069 -0.2967  0.0874
  882MOL0     O18943   1.046   5.337   4.994 -0.3884  0.5884 -0.3253
  882MOL0     C18944   0.950   5.313   5.088 -0.1623  0.5492  0.0362
  882MOL0     C18945   0.827   5.324   5.003  0.3711  0.4566  0.3802
  882MOL0     C18946   0.691   5.304   5.091 -0.3004 -0.0962 -0.3504
  882MOL0     C18947   0.575   5.327   4.993 -0.3308  0.0141  0.5046
  882MOL0     C18948   0.439   5.302   5.059 -0.1512  0.0315 -0.0750
  882MOL0     C18949   0.391   5.424   5.150 -0.2440  0.3602  0.6371
  882MOL0     C18950   0.246   5.395   5.191  0.5743  0.2363 -0.6040
  882MOL0     C18951   0.235   5.321   5.325 -0.1445 -0.5191  0.2549
  882MOL0     N18952   0.092   5.298   5.350  0.6816  0.2755  0.2104
  882MOL0     C18953  -0.013   5.384   5.390 -0.2584  0.0833 -0.5884
  882MOL0     C18954  -0.120   5.301   5.410 -0.3061 -0.8647  0.7191
  882MOL0     C18955  -0.260   5.334   5.469 -0.2593  0.4469 -0.1549
  882MOL0     C18956  -0.371   5.294   5.363 -0.4182 -0.5660 -0.5965
  882MOL0     C18957  -0.511   5.351   5.412 -0.1772 -0.2499 -0.0225
  882MOL0     C18958  -0.634   5.346   5.315 -0.0100  0.3778  0.3932
  882MOL0     O18959  -0.604   5.417   5.192 -0.4550  0.1626  0.2026
  882MOL0     C18960  -0.711   5.464   5.115 -0.3569 -0.1217 -0.5556
  882MOL0     C18961  -0.838   5.419   5.119 -0.3868 -0.5882 -0.1225
  882MOL0     C18962  -0.946   5.471   5.035 -0.2357 -0.3995  0.0491
  882MOL0     C18963  -1.087   5.422   5.056  0.8169  0.0698  0.3179
  882MOL0     C18964  -0.907   5.567   4.936 -0.1049 -0.0722 -0.3247
  882MOL0     C18965  -1.007   5.628   4.845  0.0801  0.3467 -0.2228
  882MOL0     O18966  -1.109   5.542   4.812  0.4207 -0.3095 -0.1182
  882MOL0     C18967  -1.210   5.586   4.731  0.2430  1.0801  0.1494
  882MOL0     C18968  -1.339   5.598   4.771 -0.3719 -0.3300  0.4470
  882MOL0     C18969  -1.444   5.617   4.682 -0.4051  0.3927 -0.2432
  882MOL0     C18970  -1.423   5.632   4.547 -0.1837 -0.4665 -0.4428
  882MOL0     O18971  -1.525   5.662   4.457 -0.4655  0.2691  0.0372
  882MOL0     C18972  -1.629   5.570   4.452  0.5382  0.2548 -0.1628
  882MOL0     C18973  -1.752   5.627   4.376  0.0199 -0.1830 -0.4495
  882MOL0     C18974  -1.708   5.658   4.238 -0.0960 -0.1699  0.1484
  882MOL0     C18975  -1.814   5.724   4.147  0.2090 -0.3184  0.0735
  882MOL0     C18976  -1.900   5.617   4.076  0.1002 -0.1316 -0.2945
  882MOL0     C18977  -2.028   5.581   4.152 -0.3218 -0.4644 -0.1611
  882MOL0     C18978  -2.128   5.508   4.071  0.6469 -0.1687  0.2320
  882MOL0     C18979  -2.096   5.364   4.030 -0.4624  0.4860 -0.0418
  882MOL0    Cl18980  -2.222   5.306   3.930  0.3378 -0.3741 -0.0062
  882MOL0     C18981  -1.298   5.621   4.503 -0.1789 -0.0250 -0.7780
  882MOL0     C18982  -1.185   5.594   4.589  0.2539 -0.2768  0.0583
  882MOL0     O18983  -0.993   5.745   4.803 -0.5994 -0.2614  0.3540
  882MOL0     C18984  -0.774   5.614   4.933  0.0239  0.3508 -0.1419
  882MOL0     C18985  -0.682   5.562   5.023  0.9110 -0.5974  0.1888
  882MOL0     N18986  -0.078   5.170   5.380 -0.1513  0.3740  0.5843
  882MOL0     N18987   0.038   5.173   5.331  0.3751  0.5948 -0.8181
  882MOL0     C18988   1.227   5.296   5.158 -0.4088 -0.2808 -0.1100
  882MOL0     C18989   1.362   5.295   5.180 -0.4645 -0.9771 -0.2158
  882MOL0     C18990   1.783   5.268   5.123  0.1816  0.6108 -0.8186
  882MOL0     C18991   1.843   5.366   5.194 -0.6958 -0.1835  0.6022
  882MOL0     C18992   1.978   5.357   5.223  0.1336  0.0074  0.6225
  882MOL0     C18993   2.066   5.251   5.178 -0.1010  0.6097 -0.1467
  882MOL0     O18994   2.199   5.274   5.202  0.8316  0.2395 -0.4745
  882MOL0     C18995   2.300   5.184   5.142 -0.5287 -0.6176 -0.0194
  882MOL0     C18996   2.324   5.216   4.993 -0.4547  0.1797  0.1825
  882MOL0     C18997   2.377   5.359   4.983  0.2129 -0.2576 -0.4158
  882MOL0     C18998   2.396   5.392   4.839  0.2804 -0.6424  0.3980
  882MOL0     C18999   2.518   5.322   4.802 -0.1907  0.5944  0.1594
  882MOL0     C19000   2.622   5.271   4.766 -0.3229  0.3194  0.7091
  882MOL0     C19001   1.996   5.154   5.098 -0.5763  0.3629  0.2824
  882MOL0     C19002   1.861   5.162   5.068 -0.6206 -0.8119  0.6496
  882MOL0     H19003   1.462   5.493   4.933 -1.6470  3.3039  1.5800
  882MOL0     H19004   1.217   5.454   4.849  1.0994 -0.6651 -1.1831
  882MOL0     H19005   0.955   5.210   5.125  1.4794  0.9002  0.8822
  882MOL0     H19006   0.953   5.392   5.164  0.2586 -0.2119  0.8326
  882MOL0     H19007   0.820   5.420   4.951  3.7798  1.3315  1.3069
  882MOL0     H19008   0.818   5.250   4.923 -1.5903  0.8785  0.1443
  882MOL0     H19009   0.684   5.202   5.130  1.6022  0.3620  1.3627
  882MOL0     H19010   0.677   5.371   5.177  1.6024 -0.4721  0.3209
  882MOL0     H19011   0.575   5.426   4.946  0.3557 -0.3374 -0.2646
  882MOL0     H19012   0.589   5.253   4.913  2.8856  2.5093 -1.4808
  882MOL0     H19013   0.358   5.281   4.988 -1.5073  0.7047  1.2076
  882MOL0     H19014   0.452   5.212   5.120  2.7522 -0.7419 -1.6576
  882MOL0     H19015   0.460   5.437   5.234  2.2099  0.2548 -1.2389
  882MOL0     H19016   0.389   5.516   5.091 -2.6157  0.4013  0.7029
  882MOL0     H19017   0.203   5.495   5.202  0.2661  0.2868 -2.0780
  882MOL0     H19018   0.195   5.331   5.119 -0.7257 -0.5968  0.9836
  882MOL0     H19019   0.274   5.389   5.401  3.6996  0.3736 -2.2593
  882MOL0     H19020   0.292   5.229   5.316  2.7965  1.0674  1.3795
  882MOL0     H19021  -0.011   5.487   5.424 -3.5534 -0.8275  3.0175
  882MOL0     H19022  -0.285   5.282   5.562 -0.2388 -0.7410 -0.7863
  882MOL0     H19023  -0.262   5.441   5.490  1.5998  1.1092 -2.8821
  882MOL0     H19024  -0.376   5.185   5.353  2.1818 -0.6723 -1.3272
  882MOL0     H19025  -0.342   5.343   5.270 -0.2332  1.0231  0.2740
  882MOL0     H19026  -0.499   5.457   5.435 -2.6930  0.1920 -0.4148
  882MOL0     H19027  -0.543   5.303   5.505  0.4189  1.4772  1.1212
  882MOL0     H19028  -0.725   5.377   5.367  0.4776  0.2937  1.3157
  882MOL0     H19029  -0.641   5.241   5.286 -1.9148 -0.4462  3.3675
  882MOL0     H19030  -0.856   5.339   5.190  2.8448 -0.8374  0.5535
  882MOL0     H19031  -1.113   5.340   4.989 -2.0362 -0.8930  2.3600
  882MOL0     H19032  -1.100   5.393   5.161  2.3155  0.2930  0.5915
  882MOL0     H19033  -1.161   5.503   5.044  1.2474  0.8923  2.5506
  882MOL0     H19034  -1.370   5.576   4.873 -0.7993 -0.0221  0.3875
  882MOL0     H19035  -1.540   5.632   4.730 -0.7981  3.1232 -1.7062
  882MOL0     H19036  -1.598   5.475   4.407  1.0296  1.0178 -1.4939
  882MOL0     H19037  -1.663   5.538   4.551  1.0901  0.8323  0.2233
  882MOL0     H19038  -1.836   5.558   4.386  0.6804 -0.8429  0.8559
  882MOL0     H19039  -1.787   5.718   4.425 -3.6040 -1.1922 -0.8718
  882MOL0     H19040  -1.666   5.571   4.188 -3.5381 -0.5990 -2.3838
  882MOL0     H19041  -1.639   5.741   4.256  0.7030 -1.3141  2.8745
  882MOL0     H19042  -1.871   5.795   4.208 -1.3363 -1.9414  0.6249
  882MOL0     H19043  -1.750   5.772   4.072 -0.9532 -1.1982 -1.5528
  882MOL0     H19044  -1.844   5.526   4.055  1.2942  0.6367 -0.5258
  882MOL0     H19045  -1.935   5.661   3.982  0.2988  0.8764  0.0897
  882MOL0     H19046  -2.009   5.529   4.246 -2.7296  3.7112  2.9707
  882MOL0     H19047  -2.074   5.673   4.188 -0.7574 -0.9760  0.6009
  882MOL0     H19048  -2.137   5.570   3.981 -1.3663  0.8862  1.1122
  882MOL0     H19049  -2.225   5.503   4.122 -0.3506  3.5487 -1.0192
  882MOL0     H19050  -2.083   5.301   4.119  0.3361  0.1293 -0.4020
  882MOL0     H19051  -1.998   5.366   3.981 -0.0810  0.4339  0.7052
  882MOL0     H19052  -1.283   5.627   4.395 -2.8783  0.9221 -1.1947
  882MOL0     H19053  -1.089   5.587   4.539 -0.2827  1.1421 -1.2373
  882MOL0     H19054  -0.734   5.695   4.872  2.7065 -1.8443 -1.5495
  882MOL0     H19055  -0.582   5.602   5.012  0.0981  1.0966 -1.8341
  882MOL0     H19056   1.168   5.237   5.226  0.2766  1.7466  2.3901
  882MOL0     H19057   1.413   5.242   5.259 -0.0114 -0.2770 -0.0253
  882MOL0     H19058   1.805   5.461   5.229 -1.0202 -0.7239  1.7790
  882MOL0     H19059   2.011   5.445   5.278  1.3590  1.3052 -1.9994
  882MOL0     H19060   2.394   5.192   5.197 -1.4596  1.9783  1.3630
  882MOL0     H19061   2.276   5.079   5.159 -3.8025 -0.0559 -0.3612
  882MOL0     H19062   2.232   5.201   4.936  0.5578 -1.8394 -1.0697
  882MOL0     H19063   2.407   5.148   4.968 -0.9550 -0.5569  0.4703
  882MOL0     H19064   2.473   5.368   5.035  0.1073  1.2551 -0.4351
  882MOL0     H19065   2.312   5.430   5.035  0.2556 -0.8469  0.4525
  882MOL0     H19066   2.406   5.499   4.821  0.6557 -0.6914  0.2967
  882MOL0     H19067   2.306   5.369   4.782  0.1982  1.1529 -0.2386
  882MOL0     H19068   2.718   5.237   4.733 -0.1459  1.5462 -0.0840
  882MOL0     H19069   2.056   5.073   5.058 -1.3536 -0.2919  0.4238
  882MOL0     H19070   1.811   5.089   5.006 -1.9839  0.5917  0.0330
  883MOL0     O19071   6.595   1.201   3.129  1.4924  0.2898  0.1152
  883MOL0     C19072   6.518   1.167   3.216 -0.8345 -0.3336 -0.1802
  883MOL0     O19073   6.556   1.122   3.341  0.1531  0.0071 -0.4889
  883MOL0     C19074   6.690   1.131   3.378  0.2074 -0.8614  0.0435
  883MOL0     C19075   6.717   1.036   3.474 -0.0104  0.1956 -0.2600
  883MOL0     C19076   6.847   1.039   3.538 -0.1035 -0.1756 -0.0738
  883MOL0     C19077   6.936   1.140   3.508 -0.2046 -0.1514 -0.1098
  883MOL0     O19078   7.057   1.153   3.572 -0.3838 -0.6457 -0.7404
  883MOL0     C19079   7.114   1.049   3.650 -0.2334  0.1814 -0.2382
  883MOL0     C19080   7.235   1.097   3.727  0.4868 -0.1416 -0.2159
  883MOL0     C19081   7.350   1.153   3.644 -0.5477  0.8048  0.2938
  883MOL0     C19082   7.418   1.036   3.562 -0.5483 -0.2538 -0.7250
  883MOL0     C19083   7.562   1.073   3.522 -0.2743  0.1574 -1.0901
  883MOL0     C19084   7.656   1.006   3.612  0.0723  0.5223  0.6123
  883MOL0     C19085   7.798   1.036   3.555  0.2734 -1.2363  0.3042
  883MOL0     C19086   7.893   0.970   3.645 -0.6983 -0.4965 -0.4606
  883MOL0     N19087   8.027   0.984   3.591 -0.9643 -0.6418  0.3566
  883MOL0     C19088   8.135   0.902   3.616 -0.9931 -0.2566  0.0352
  883MOL0     C19089   8.247   0.974   3.580 -0.4286 -0.7335  0.3506
  883MOL0     C19090   8.398   0.955   3.604 -0.0887  0.4798  0.8744
  883MOL0     C19091   8.446   0.833   3.513 -0.3570  0.1119  0.8113
  883MOL0     C19092   8.427   0.861   3.371 -1.0442  0.3616 -0.3348
  883MOL0     C19093   8.524   0.780   3.279 -0.0396  0.7647 -0.7861
  883MOL0     O19094   8.503   0.636   3.304 -0.3311 -0.9239  0.0887
  883MOL0     C19095   8.410   0.556   3.245 -0.0727 -0.4411  1.0074
  883MOL0     C19096   8.417   0.418   3.281 -0.0967  0.1753 -0.1785
  883MOL0     C19097   8.336   0.321   3.234 -0.9246 -0.0121  0.3199
  883MOL0     C19098   8.357   0.178   3.277 -0.3326 -0.3128 -0.1059
  883MOL0     C19099   8.238   0.361   3.137  0.0394  0.1505  0.8591
  883MOL0     C19100   8.143   0.270   3.068  0.1818  0.9900  0.3485
  883MOL0     O19101   8.046   0.325   2.984  0.4137 -0.5929 -0.4059
  883MOL0     C19102   7.953   0.234   2.935  0.1828 -0.5005  0.3504
  883MOL0     C19103   8.002   0.144   2.843  0.5110 -0.3604  0.7390
  883MOL0     C19104   7.916   0.043   2.795 -0.6103  1.2694 -0.0233
  883MOL0     C19105   7.782   0.041   2.835 -0.3112  0.1659 -0.3777
  883MOL0     O19106   7.690  -0.036   2.770  0.2180  0.2773  0.3748
  883MOL0     C19107   7.644  -0.140   2.848  0.7794  0.5284  0.4446
  883MOL0     C19108   7.713  -0.257   2.790  0.2446  0.3015  0.0847
  883MOL0     C19109   7.707  -0.269   2.636  0.6996  0.6045 -0.1872
  883MOL0     C19110   7.560  -0.288   2.583  0.2162  0.2021 -0.2043
  883MOL0     C19111   7.547  -0.304   2.438 -0.3149 -0.2507  0.7805
  883MOL0     C19112   7.411  -0.326   2.377 -0.0338 -0.0293  0.4603
  883MOL0     C19113   7.337  -0.454   2.418 -0.3149 -1.0908 -0.2335
  883MOL0     C19114   7.319  -0.535   2.282  1.0761  0.1648  0.5113
  883MOL0    Cl19115   7.199  -0.673   2.337 -0.7144  0.1371 -0.1626
  883MOL0     C19116   7.728   0.137   2.930 -0.7034  0.4427  0.3063
  883MOL0     C19117   7.818   0.231   2.981  0.2786 -0.1664 -0.0497
  883MOL0     O19118   8.150   0.149   3.090  0.5761 -0.5735 -0.1572
  883MOL0     C19119   8.232   0.498   3.093  0.4139  1.0630 -0.3335
  883MOL0     C19120   8.320   0.592   3.150  0.4452 -0.3843  0.6791
  883MOL0     N19121   8.199   1.094   3.516  0.2148  0.0456  0.3075
  883MOL0     N19122   8.074   1.099   3.536  0.2970 -0.2721  0.1002
  883MOL0     C19123   6.913   1.230   3.408 -0.1369 -0.2526 -0.4869
  883MOL0     C19124   6.787   1.236   3.344 -0.4463  0.3210  0.2627
  883MOL0     C19125   6.376   1.193   3.183  0.0530 -0.0737  0.2540
  883MOL0     C19126   6.348   1.276   3.071 -0.1483  0.3394 -0.3485
  883MOL0     C19127   6.211   1.290   3.029  0.2481 -0.3431  0.4182
  883MOL0     C19128   6.102   1.230   3.101 -0.0233  0.1606  0.2868
  883MOL0     O19129   5.967   1.233   3.063  0.0904  0.1756  0.5397
  883MOL0     C19130   5.929   1.294   2.935  0.0021  1.0529 -0.1943
  883MOL0     C19131   5.780   1.295   2.907  0.0429  1.2062 -0.6670
  883MOL0     C19132   5.690   1.360   3.021 -0.4124 -0.3034  0.0846
  883MOL0     C19133   5.544   1.359   2.974 -0.1673 -0.3413  0.2628
  883MOL0     C19134   5.480   1.472   3.037  0.1470 -0.0962 -0.2923
  883MOL0     C19135   5.438   1.578   3.076 -0.0357  0.0226  0.6274
  883MOL0     C19136   6.143   1.170   3.222  0.2794  1.5624  0.4542
  883MOL0     C19137   6.276   1.140   3.261  0.3121 -0.3852 -0.0296
  883MOL0     H19138   6.656   0.952   3.506  0.5055  0.5491  1.7875
  883MOL0     H19139   6.888   0.952   3.588 -0.2806 -0.9306 -1.1962
  883MOL0     H19140   7.041   1.017   3.724  0.3008  0.9927  0.6600
  883MOL0     H19141   7.139   0.964   3.585  0.3092  0.2873 -0.1761
  883MOL0     H19142   7.205   1.178   3.794  4.0983  1.2414 -0.0274
  883MOL0     H19143   7.274   1.019   3.793  0.0392  0.5794  0.9308
  883MOL0     H19144   7.312   1.224   3.571  0.8953  0.0231 -1.2803
  883MOL0     H19145   7.418   1.202   3.714 -1.8077  1.0786  1.3797
  883MOL0     H19146   7.425   0.938   3.610  1.3772 -0.0192 -0.4525
  883MOL0     H19147   7.354   1.017   3.475 -0.7329  0.4513 -0.7514
  883MOL0     H19148   7.582   1.037   3.421 -0.6377  1.6448 -1.7227
  883MOL0     H19149   7.581   1.181   3.526  0.9117 -0.0670  0.5673
  883MOL0     H19150   7.640   1.051   3.711 -2.2161  2.3830 -0.5120
  883MOL0     H19151   7.649   0.897   3.610 -0.9528  0.5502 -2.8770
  883MOL0     H19152   7.822   0.996   3.456  2.2103  2.9290 -1.1468
  883MOL0     H19153   7.818   1.144   3.556  2.6189 -1.6187  0.1878
  883MOL0     H19154   7.873   0.862   3.651  0.3896 -0.7475 -1.1628
  883MOL0     H19155   7.879   1.007   3.747 -4.8998 -0.7878 -0.7280
  883MOL0     H19156   8.143   0.811   3.674 -1.6753  0.8460  1.9407
  883MOL0     H19157   8.459   1.039   3.572  1.2026 -0.3930  0.9901
  883MOL0     H19158   8.425   0.942   3.709  1.7174 -2.0789  0.2033
  883MOL0     H19159   8.396   0.736   3.528 -0.2786 -0.2864 -1.2269
  883MOL0     H19160   8.551   0.813   3.534 -0.8055 -1.1659  1.9547
  883MOL0     H19161   8.448   0.962   3.334 -1.5996 -1.0223 -5.0712
  883MOL0     H19162   8.324   0.836   3.343 -1.9286 -0.6162  3.3056
  883MOL0     H19163   8.627   0.810   3.300  0.2585  0.8632 -2.3163
  883MOL0     H19164   8.509   0.788   3.171 -1.7690 -0.7506 -0.7033
  883MOL0     H19165   8.492   0.390   3.355  0.0893 -0.5458 -0.6212
  883MOL0     H19166   8.413   0.133   3.194 -1.4138 -1.9754  0.0070
  883MOL0     H19167   8.425   0.179   3.362 -1.5578 -0.5402  0.8974
  883MOL0     H19168   8.269   0.117   3.302  0.3467 -0.8670  1.0005
  883MOL0     H19169   8.104   0.157   2.808 -0.0475 -1.0327 -1.3083
  883MOL0     H19170   7.962  -0.021   2.720  1.3280  1.2156  1.1286
  883MOL0     H19171   7.677  -0.118   2.951 -0.4114 -2.3925  1.5485
  883MOL0     H19172   7.537  -0.160   2.836  0.9238 -2.1104  2.5094
  883MOL0     H19173   7.815  -0.257   2.831  0.4425 -3.3804 -0.1270
  883MOL0     H19174   7.677  -0.348   2.838 -0.5003 -0.3243 -1.5872
  883MOL0     H19175   7.760  -0.360   2.606  0.6373  1.1292 -2.0088
  883MOL0     H19176   7.747  -0.185   2.578 -0.9063  1.4713 -0.0829
  883MOL0     H19177   7.506  -0.368   2.635 -0.8635  0.7222 -0.5027
  883MOL0     H19178   7.505  -0.195   2.603 -2.7616 -1.6575  1.0338
  883MOL0     H19179   7.611  -0.383   2.397 -0.2345  0.3496 -0.3145
  883MOL0     H19180   7.584  -0.213   2.388 -1.2253 -0.7330 -0.8409
  883MOL0     H19181   7.351  -0.239   2.406  3.0917  2.0593  1.1776
  883MOL0     H19182   7.413  -0.314   2.268 -2.1206 -1.1178  0.2401
  883MOL0     H19183   7.239  -0.422   2.454 -0.7785 -2.8989  0.2105
  883MOL0     H19184   7.398  -0.511   2.490 -0.8047 -0.1122  0.9962
  883MOL0     H19185   7.413  -0.586   2.259  1.2316 -0.6305  2.7460
  883MOL0     H19186   7.291  -0.479   2.192 -0.6991  0.9541  1.4931
  883MOL0     H19187   7.626   0.120   2.962 -0.9458 -1.0697 -1.1478
  883MOL0     H19188   7.783   0.300   3.057  0.1832 -3.0959  2.7690
  883MOL0     H19189   8.169   0.526   3.009  0.7605 -1.5700 -1.5708
  883MOL0     H19190   8.326   0.690   3.105  1.2209 -1.5653 -2.0091
  883MOL0     H19191   6.993   1.303   3.398 -0.5711  0.3315  0.1374
  883MOL0     H19192   6.752   1.323   3.289 -1.5419  0.1689  0.6966
  883MOL0     H19193   6.423   1.326   3.010  1.5168 -3.2402 -1.5384
  883MOL0     H19194   6.199   1.355   2.943  1.2107  0.5012  0.9093
  883MOL0     H19195   5.970   1.394   2.915 -0.0831  0.8713 -1.3297
  883MOL0     H19196   5.962   1.218   2.863 -3.5414 -1.9958  1.0779
  883MOL0     H19197   5.740   1.196   2.883 -0.4451  0.5828  2.3573
  883MOL0     H19198   5.771   1.344   2.810  1.0049  2.5953 -0.0790
  883MOL0     H19199   5.722   1.460   3.050  0.5660 -0.5224 -0.1966
  883MOL0     H19200   5.714   1.295   3.106  4.0050 -0.4745 -1.0126
  883MOL0     H19201   5.499   1.265   3.006 -0.2944  0.5037  2.8140
  883MOL0     H19202   5.524   1.372   2.867  1.0205 -2.6732 -0.2989
  883MOL0     H19203   5.414   1.679   3.104  3.6134  1.1516  0.2575
  883MOL0     H19204   6.069   1.137   3.295 -1.2337  1.0274 -1.2503
  883MOL0     H19205   6.287   1.082   3.351  1.1997 -0.1423  0.0290
  884MOL0     O19206  10.457   7.118   9.215  0.8240 -0.4188  0.9033
  884MOL0     C19207  10.455   7.150   9.092  0.3377  0.8061  0.1926
  884MOL0     O19208  10.340   7.143   9.013  0.0791 -0.5829 -0.4779
  884MOL0     C19209  10.215   7.117   9.076 -0.0003 -0.8943 -0.2261
  884MOL0     C19210  10.128   7.219   9.092 -0.1035 -0.6360  0.4836
  884MOL0     C19211   9.996   7.195   9.138 -0.3508  0.4738 -0.0434
  884MOL0     C19212   9.957   7.062   9.158  0.4837  0.3500 -0.5072
  884MOL0     O19213   9.830   7.038   9.208  0.2732 -0.0683 -0.1424
  884MOL0     C19214   9.728   7.086   9.118 -0.6215 -0.7718  0.1617
  884MOL0     C19215   9.650   6.960   9.069  1.0387 -0.6521  0.3953
  884MOL0     C19216   9.565   6.914   9.186 -0.3602  0.0152 -0.7047
  884MOL0     C19217   9.481   6.794   9.157  0.3553  0.7135 -0.6757
  884MOL0     C19218   9.386   6.763   9.276 -0.7618  0.4215 -0.4200
  884MOL0     C19219   9.315   6.624   9.263  0.4286 -0.3775 -0.4071
  884MOL0     C19220   9.218   6.622   9.148 -0.3823 -0.5675  0.6306
  884MOL0     C19221   9.165   6.479   9.135 -0.3751  0.0610 -0.6268
  884MOL0     N19222   9.066   6.451   9.028  0.8282 -0.1843 -0.0844
  884MOL0     C19223   8.930   6.471   9.040 -0.1436 -0.9730 -0.4666
  884MOL0     C19224   8.876   6.402   8.943  0.3935 -0.3899  0.4078
  884MOL0     C19225   8.726   6.398   8.910 -0.5784 -0.0924  0.7962
  884MOL0     C19226   8.691   6.433   8.762 -0.1204 -0.0704  0.6677
  884MOL0     C19227   8.545   6.420   8.727  0.0074  0.3441 -0.4443
  884MOL0     C19228   8.519   6.473   8.590  0.4718  0.2277  0.1806
  884MOL0     O19229   8.384   6.459   8.567 -0.5105  0.2433  0.6222
  884MOL0     C19230   8.335   6.527   8.459  0.8943 -0.2443  0.5159
  884MOL0     C19231   8.409   6.604   8.364  0.1639  1.2641  0.6125
  884MOL0     C19232   8.350   6.694   8.281  0.7644 -0.2358 -0.2784
  884MOL0     C19233   8.436   6.778   8.196  0.0693 -0.5147 -0.3111
  884MOL0     C19234   8.204   6.698   8.273 -0.6289 -0.1388 -0.2424
  884MOL0     C19235   8.127   6.788   8.179 -0.0200 -0.1061  0.1356
  884MOL0     O19236   7.989   6.763   8.183 -0.0825 -0.0974  0.0807
  884MOL0     C19237   7.898   6.855   8.131  0.0990  0.4627 -0.2408
  884MOL0     C19238   7.855   6.955   8.210  0.5096  0.3187  0.5414
  884MOL0     C19239   7.768   7.057   8.155 -0.1221 -0.0511 -0.7694
  884MOL0     C19240   7.729   7.053   8.025 -0.1689  0.3177  0.4632
  884MOL0     O19241   7.662   7.157   7.970  0.1235 -0.2543  0.1430
  884MOL0     C19242   7.741   7.276   7.956  0.4920  0.2345  0.2091
  884MOL0     C19243   7.679   7.370   7.849  0.4859 -0.5514 -0.3832
  884MOL0     C19244   7.535   7.376   7.861  0.0966 -0.9538  0.5367
  884MOL0     C19245   7.473   7.493   7.774 -0.0491  0.0145 -0.5889
  884MOL0     C19246   7.554   7.624   7.769 -0.0545  0.9367  0.6696
  884MOL0     C19247   7.460   7.722   7.700  0.0124  0.4832 -0.2332
  884MOL0     C19248   7.517   7.857   7.718 -0.1585  0.3663  0.2623
  884MOL0     C19249   7.452   7.954   7.622  0.9061  0.0108 -0.9175
  884MOL0    Cl19250   7.288   8.009   7.686 -0.5165 -0.0317  0.1318
  884MOL0     C19251   7.776   6.952   7.945  0.3658 -0.0586 -0.2018
  884MOL0     C19252   7.861   6.856   7.995 -0.4728  0.4642  0.1685
  884MOL0     O19253   8.182   6.879   8.113  0.5512  0.6151 -0.1127
  884MOL0     C19254   8.131   6.608   8.356 -0.2540  0.1848 -0.0105
  884MOL0     C19255   8.193   6.528   8.449 -0.2092  1.2807  0.8046
  884MOL0     N19256   8.974   6.330   8.880  0.2581  0.4134 -0.1108
  884MOL0     N19257   9.094   6.373   8.919 -0.2757  0.1314  0.0657
  884MOL0     C19258  10.047   6.958   9.144 -0.3674  0.4020 -0.3541
  884MOL0     C19259  10.175   6.982   9.105 -0.2139  0.0210  0.2769
  884MOL0     C19260  10.579   7.187   9.021 -0.0453 -0.9653 -0.3841
  884MOL0     C19261  10.689   7.236   9.096  0.0164 -0.1811 -0.3684
  884MOL0     C19262  10.816   7.264   9.045 -0.5313  0.2716  0.8266
  884MOL0     C19263  10.828   7.250   8.902 -0.1662 -1.2918  0.3230
  884MOL0     O19264  10.946   7.298   8.845 -0.3927 -0.4988  0.0780
  884MOL0     C19265  11.056   7.335   8.934 -0.3684  0.1068  0.4268
  884MOL0     C19266  11.167   7.389   8.855 -0.3641 -0.2361  1.0896
  884MOL0     C19267  11.119   7.525   8.795 -0.2106 -0.1115 -0.0419
  884MOL0     C19268  11.237   7.604   8.751 -0.1145  0.6943  0.4976
  884MOL0     C19269  11.205   7.740   8.706 -0.8607  0.7797 -0.3798
  884MOL0     C19270  11.197   7.852   8.668 -0.0184  0.1756 -0.1021
  884MOL0     C19271  10.718   7.213   8.821 -0.4128 -0.6525  0.8295
  884MOL0     C19272  10.594   7.180   8.874  0.1069  0.5119 -0.8762
  884MOL0     H19273  10.167   7.319   9.078 -1.2927 -0.3390 -0.9970
  884MOL0     H19274   9.936   7.285   9.147  2.0812  2.0430  2.0565
  884MOL0     H19275   9.660   7.148   9.177  0.6848 -1.7359  2.8748
  884MOL0     H19276   9.767   7.140   9.032 -0.0186  1.8353  1.9440
  884MOL0     H19277   9.589   6.972   8.979  0.5975 -0.4078  0.7221
  884MOL0     H19278   9.718   6.881   9.034 -0.3269 -1.1811 -1.2249
  884MOL0     H19279   9.624   6.887   9.274 -3.0704  1.8986  1.8840
  884MOL0     H19280   9.493   6.992   9.214  1.2415  1.2226  0.2247
  884MOL0     H19281   9.420   6.812   9.068  0.8051  1.5946 -0.8236
  884MOL0     H19282   9.546   6.708   9.144 -0.0991  0.3811 -0.7739
  884MOL0     H19283   9.435   6.773   9.373 -0.7713  0.3971 -0.4120
  884MOL0     H19284   9.302   6.834   9.280 -2.6509 -1.7120  3.4017
  884MOL0     H19285   9.391   6.547   9.252  0.7186  0.1029 -1.9627
  884MOL0     H19286   9.263   6.601   9.357 -0.4135  1.0143 -0.5092
  884MOL0     H19287   9.139   6.695   9.168  0.8944  1.6284 -1.7301
  884MOL0     H19288   9.270   6.653   9.056 -0.2678  2.4007  1.5823
  884MOL0     H19289   9.118   6.453   9.231  1.2680 -3.0138 -0.5425
  884MOL0     H19290   9.240   6.402   9.117 -0.2574  0.2561 -0.9769
  884MOL0     H19291   8.878   6.547   9.099  0.4740 -0.8276 -0.0884
  884MOL0     H19292   8.683   6.300   8.933 -0.1808 -0.4291  0.1514
  884MOL0     H19293   8.673   6.476   8.964  2.2451  2.0615  0.7314
  884MOL0     H19294   8.747   6.361   8.702  1.0813  0.1920  1.4498
  884MOL0     H19295   8.732   6.533   8.746  0.0425 -0.4747 -1.8266
  884MOL0     H19296   8.481   6.476   8.797 -0.8150 -0.9814 -0.1032
  884MOL0     H19297   8.520   6.314   8.728 -0.8642  0.5353 -1.4263
  884MOL0     H19298   8.586   6.420   8.522  1.0882  1.2094  0.0030
  884MOL0     H19299   8.539   6.580   8.584  0.8815  0.0796 -1.5237
  884MOL0     H19300   8.517   6.597   8.370  0.0738  0.5181  1.8119
  884MOL0     H19301   8.418   6.754   8.090  1.4764 -2.3755 -0.1887
  884MOL0     H19302   8.418   6.885   8.203  0.8761 -0.3301 -0.8858
  884MOL0     H19303   8.542   6.762   8.217  0.0761 -1.8019 -1.1964
  884MOL0     H19304   7.889   6.946   8.313 -1.2286 -3.1977  0.9753
  884MOL0     H19305   7.717   7.123   8.225 -0.2921 -1.5553  0.5718
  884MOL0     H19306   7.739   7.330   8.051 -2.1007  1.3522 -0.3957
  884MOL0     H19307   7.843   7.252   7.926 -0.1020  1.5483 -3.3502
  884MOL0     H19308   7.724   7.469   7.851  0.6134 -0.6197  0.6033
  884MOL0     H19309   7.702   7.321   7.754  1.4716 -0.0214 -0.4301
  884MOL0     H19310   7.524   7.393   7.969  0.8656 -0.6115  0.5743
  884MOL0     H19311   7.494   7.280   7.829 -1.9059  0.3824 -1.1413
  884MOL0     H19312   7.443   7.460   7.674 -3.8935  2.5044 -0.4610
  884MOL0     H19313   7.373   7.512   7.814  0.0919  1.2164 -0.7614
  884MOL0     H19314   7.641   7.618   7.703  0.0029  3.6456  0.4063
  884MOL0     H19315   7.578   7.659   7.870  1.4125 -1.3202  1.1862
  884MOL0     H19316   7.446   7.689   7.597 -1.9194  0.4180  0.0131
  884MOL0     H19317   7.364   7.721   7.753 -1.0851 -1.8417 -2.1121
  884MOL0     H19318   7.626   7.855   7.713 -0.0644 -0.1464  1.8535
  884MOL0     H19319   7.492   7.887   7.821  1.8119 -2.4586  1.6836
  884MOL0     H19320   7.439   7.911   7.522 -0.9444  0.2103 -0.7886
  884MOL0     H19321   7.518   8.042   7.611 -0.8303  1.4848 -0.0421
  884MOL0     H19322   7.753   6.948   7.839 -0.8219 -0.0879  0.0491
  884MOL0     H19323   7.905   6.782   7.929 -0.3417  1.3856 -0.8050
  884MOL0     H19324   8.025   6.588   8.344  0.5421 -3.0789 -4.2975
  884MOL0     H19325   8.145   6.459   8.518 -0.1742  0.7931  0.3503
  884MOL0     H19326  10.017   6.857   9.170  1.9132 -0.6683 -1.5764
  884MOL0     H19327  10.257   6.911   9.093  1.7602  2.1289  0.6638
  884MOL0     H19328  10.692   7.239   9.204 -1.2877  2.5403 -0.3279
  884MOL0     H19329  10.895   7.294   9.114  0.6377 -0.9023  0.0565
  884MOL0     H19330  11.038   7.407   9.014 -4.5901 -1.3744  1.0583
  884MOL0     H19331  11.093   7.240   8.974  0.0106 -0.9781 -2.2184
  884MOL0     H19332  11.202   7.331   8.769 -0.4034  0.6976  0.4310
  884MOL0     H19333  11.258   7.395   8.915  0.2734 -0.1276  0.1395
  884MOL0     H19334  11.078   7.575   8.883  0.3856  1.0128 -0.3634
  884MOL0     H19335  11.051   7.510   8.711 -1.0634 -0.6836  0.7428
  884MOL0     H19336  11.289   7.565   8.663 -1.3851  2.2844 -1.0382
  884MOL0     H19337  11.304   7.609   8.837 -0.3206  1.0528  0.6381
  884MOL0     H19338  11.187   7.956   8.642 -3.2710  0.1993  0.7159
  884MOL0     H19339  10.719   7.230   8.714  1.3255 -0.0089  0.9178
  884MOL0     H19340  10.514   7.152   8.806  0.7909 -1.5630 -0.8917
  885MOL0     O19341   1.907   1.036   8.544  0.2204 -1.0626  0.1017
  885MOL0     C19342   1.946   0.990   8.651  0.6557 -0.3326 -0.9354
  885MOL0     O19343   1.864   0.926   8.737 -0.6069  0.3167  0.2828
  885MOL0     C19344   1.728   0.907   8.703  0.1950 -1.2405  0.0587
  885MOL0     C19345   1.627   0.988   8.761 -0.4132 -0.3079 -0.8315
  885MOL0     C19346   1.497   0.962   8.735  0.1166 -0.0811  0.2533
  885MOL0     C19347   1.455   0.865   8.647  0.6193 -0.0338 -0.6329
  885MOL0     O19348   1.315   0.841   8.626 -0.4152  0.1967 -0.2305
  885MOL0     C19349   1.279   0.828   8.489 -1.0276 -0.2549  0.2167
  885MOL0     C19350   1.129   0.845   8.477 -0.7854  0.9571 -0.3993
  885MOL0     C19351   1.055   0.732   8.551  0.3782 -0.2730 -0.4926
  885MOL0     C19352   0.900   0.770   8.546  0.2105 -0.5560  1.0453
  885MOL0     C19353   0.825   0.666   8.631  0.1836  0.7152 -1.0881
  885MOL0     C19354   0.679   0.707   8.621 -0.2448 -0.4206 -0.5543
  885MOL0     C19355   0.601   0.664   8.747  0.2826  0.7853 -0.7495
  885MOL0     C19356   0.456   0.709   8.751  0.1590  0.7989  0.0941
  885MOL0     N19357   0.372   0.652   8.653  0.8830 -0.3061 -0.1828
  885MOL0     C19358   0.406   0.555   8.566  0.4889 -0.6319 -0.3806
  885MOL0     C19359   0.285   0.532   8.496 -0.1634 -0.9853  0.8689
  885MOL0     C19360   0.272   0.435   8.379  0.9673 -0.4615  0.6065
  885MOL0     C19361   0.125   0.392   8.348  0.2683  0.5139  0.2834
  885MOL0     C19362   0.080   0.282   8.436 -0.4946 -0.8764  0.6272
  885MOL0     C19363  -0.068   0.240   8.414 -0.1030 -0.3841  0.2213
  885MOL0     O19364  -0.096   0.128   8.503 -0.1228 -0.9890  0.0933
  885MOL0     C19365  -0.219   0.087   8.504  0.4093 -0.5516 -0.3453
  885MOL0     C19366  -0.269   0.033   8.627  0.3542 -0.7641  0.4043
  885MOL0     C19367  -0.409  -0.006   8.635 -0.2714 -0.4957  0.2003
  885MOL0     C19368  -0.460  -0.071   8.758  0.7552 -1.2677  0.3594
  885MOL0     C19369  -0.485  -0.004   8.509 -0.6366 -1.5639 -0.3832
  885MOL0     C19370  -0.627  -0.034   8.501 -0.3024  0.3199 -1.0841
  885MOL0     O19371  -0.710   0.013   8.595 -0.2457 -0.3963 -0.1952
  885MOL0     C19372  -0.847   0.002   8.569 -0.1760  0.1281 -0.0599
  885MOL0     C19373  -0.915  -0.119   8.542  0.0781  1.1584 -0.0267
  885MOL0     C19374  -1.051  -0.114   8.516  0.1558 -0.2262  0.3984
  885MOL0     C19375  -1.120  -0.000   8.503 -0.1753  0.1332 -0.5587
  885MOL0     O19376  -1.250  -0.001   8.457  0.3478  0.1563  0.7080
  885MOL0     C19377  -1.342   0.069   8.536  0.2865 -0.0933  0.0334
  885MOL0     C19378  -1.488   0.004   8.525 -0.4905  0.6172 -0.3299
  885MOL0     C19379  -1.593   0.082   8.596 -0.3522  0.0008 -0.0939
  885MOL0     C19380  -1.719  -0.000   8.593 -0.6000  0.2088  0.6739
  885MOL0     C19381  -1.832   0.087   8.648 -0.0989 -0.1381 -0.3101
  885MOL0     C19382  -1.969   0.025   8.655 -0.4227  0.8256 -0.1877
  885MOL0     C19383  -2.011  -0.036   8.525 -0.0868  0.0967  0.0008
  885MOL0     C19384  -2.166  -0.040   8.502 -0.8821 -0.3707 -0.6679
  885MOL0    Cl19385  -2.218   0.130   8.466  0.2023  0.3840  0.1584
  885MOL0     C19386  -1.061   0.117   8.546  0.6883  0.4962 -0.2307
  885MOL0     C19387  -0.920   0.116   8.577  0.5001 -0.2252  0.3912
  885MOL0     O19388  -0.663  -0.109   8.412 -0.0189  0.3616 -0.0459
  885MOL0     C19389  -0.427   0.043   8.392  0.3009 -0.5453 -0.5798
  885MOL0     C19390  -0.298   0.090   8.389  0.4956 -0.1206 -0.5163
  885MOL0     N19391   0.193   0.624   8.548  1.0064  0.3339 -0.6114
  885MOL0     N19392   0.249   0.706   8.635  0.0485 -0.0560  0.6500
  885MOL0     C19393   1.554   0.789   8.583  0.8380  0.6048  0.4527
  885MOL0     C19394   1.687   0.813   8.613  0.4709  1.2463  0.0812
  885MOL0     C19395   2.082   1.015   8.694  0.1658  0.3340  0.7292
  885MOL0     C19396   2.111   1.059   8.824  0.9003 -0.4143  0.3295
  885MOL0     C19397   2.245   1.107   8.843 -0.3607 -0.7662 -0.3096
  885MOL0     C19398   2.346   1.105   8.752 -0.4712  1.0541  0.2485
  885MOL0     O19399   2.469   1.166   8.768  0.3851 -0.5498 -0.0112
  885MOL0     C19400   2.540   1.139   8.888 -0.0145  0.2426 -0.3448
  885MOL0     C19401   2.681   1.087   8.861  0.0252  0.2544  0.2717
  885MOL0     C19402   2.760   1.192   8.770 -0.1049 -0.0935  0.0156
  885MOL0     C19403   2.907   1.181   8.805 -0.5178  0.0719 -0.2618
  885MOL0     C19404   2.948   1.250   8.927  0.6806 -0.3455 -0.4957
  885MOL0     C19405   2.971   1.290   9.043  0.1523 -0.2693  1.0543
  885MOL0     C19406   2.316   1.043   8.632 -0.4631  0.5001 -0.0827
  885MOL0     C19407   2.188   1.006   8.598  0.5662  0.2688 -0.3439
  885MOL0     H19408   1.654   1.060   8.838  2.3359 -2.1841  0.1271
  885MOL0     H19409   1.424   1.026   8.784  1.0397  0.4860  0.9212
  885MOL0     H19410   1.329   0.911   8.438 -0.7303  0.0743  1.0270
  885MOL0     H19411   1.317   0.728   8.465  2.7276  0.9510  0.4333
  885MOL0     H19412   1.093   0.942   8.514 -0.3809  0.9491  0.0265
  885MOL0     H19413   1.112   0.838   8.369 -1.8001  2.1412 -0.3357
  885MOL0     H19414   1.080   0.630   8.523 -1.0131 -0.8558  0.2924
  885MOL0     H19415   1.065   0.739   8.660 -0.8473  1.7729 -0.4621
  885MOL0     H19416   0.884   0.871   8.584 -0.0080 -0.4861  0.7654
  885MOL0     H19417   0.854   0.764   8.447 -1.2950  0.0096  1.6940
  885MOL0     H19418   0.843   0.566   8.591  4.0708  1.1632 -0.7860
  885MOL0     H19419   0.862   0.669   8.733 -1.9867 -2.2956 -0.0597
  885MOL0     H19420   0.672   0.816   8.611 -1.1884 -0.3308  0.7249
  885MOL0     H19421   0.648   0.672   8.522  2.0224 -1.4244 -0.9708
  885MOL0     H19422   0.605   0.555   8.750  0.2950  0.7726 -1.1221
  885MOL0     H19423   0.651   0.702   8.836 -0.1772 -2.7441  1.1868
  885MOL0     H19424   0.450   0.817   8.733 -0.5309  0.2315 -4.2642
  885MOL0     H19425   0.418   0.684   8.850  4.0436 -3.6476  0.8198
  885MOL0     H19426   0.497   0.503   8.538  1.8700  0.2777  2.1020
  885MOL0     H19427   0.316   0.484   8.292 -0.4338 -0.2283  0.0067
  885MOL0     H19428   0.331   0.345   8.397  3.5867  1.2236  1.0997
  885MOL0     H19429   0.104   0.364   8.244  0.4082 -0.9325  0.6258
  885MOL0     H19430   0.055   0.475   8.364  2.2184  3.0262 -2.8306
  885MOL0     H19431   0.087   0.320   8.538  2.2887  1.5325 -0.3375
  885MOL0     H19432   0.136   0.188   8.430 -0.3696 -0.7391 -0.6507
  885MOL0     H19433  -0.079   0.215   8.308 -1.2836  0.3723  0.1447
  885MOL0     H19434  -0.140   0.320   8.437  1.3948  0.7595  1.1850
  885MOL0     H19435  -0.206   0.011   8.712 -0.1238 -0.7012  0.7756
  885MOL0     H19436  -0.374  -0.106   8.816  0.2074 -0.9134  1.4283
  885MOL0     H19437  -0.515   0.001   8.820  1.4583 -0.4467  0.0514
  885MOL0     H19438  -0.528  -0.157   8.753 -0.9090 -0.2544  2.9727
  885MOL0     H19439  -0.863  -0.214   8.549  2.1190  2.0845 -1.6305
  885MOL0     H19440  -1.100  -0.210   8.497  0.1967 -0.0877 -0.4331
  885MOL0     H19441  -1.310   0.060   8.640  3.4661  0.2513 -0.8169
  885MOL0     H19442  -1.334   0.175   8.509  0.5520  0.9483  3.6890
  885MOL0     H19443  -1.512   0.004   8.419  2.7055 -1.1138 -1.1856
  885MOL0     H19444  -1.486  -0.100   8.560 -1.9944  1.0280  1.1237
  885MOL0     H19445  -1.615   0.166   8.529 -0.2726 -0.6180 -0.9114
  885MOL0     H19446  -1.562   0.116   8.695 -3.0775  1.2310  0.4246
  885MOL0     H19447  -1.738  -0.031   8.490 -0.4627 -1.5583  1.1384
  885MOL0     H19448  -1.714  -0.097   8.643  1.9613  1.0720  2.3221
  885MOL0     H19449  -1.844   0.172   8.580 -0.0730 -1.4117 -1.9721
  885MOL0     H19450  -1.797   0.123   8.745 -0.8832 -1.6984  0.5898
  885MOL0     H19451  -1.965  -0.039   8.744  0.3158  0.8435 -0.2003
  885MOL0     H19452  -2.047   0.100   8.672 -0.3779  1.8939 -3.8981
  885MOL0     H19453  -1.968  -0.136   8.521 -0.9509 -0.3429  1.1245
  885MOL0     H19454  -1.972   0.022   8.440  2.8671 -1.7229 -0.0149
  885MOL0     H19455  -2.211  -0.082   8.592 -0.6843  0.4765 -0.1621
  885MOL0     H19456  -2.192  -0.093   8.409 -2.4852 -1.4995  0.3758
  885MOL0     H19457  -1.123   0.205   8.533 -1.4102 -0.4995  2.2491
  885MOL0     H19458  -0.877   0.208   8.615  0.0678 -0.3062  1.0994
  885MOL0     H19459  -0.499   0.051   8.312 -0.9245 -1.9729  0.3207
  885MOL0     H19460  -0.262   0.128   8.293  0.7367 -2.7282 -1.5358
  885MOL0     H19461   1.535   0.716   8.505 -2.6906  2.6782 -0.8527
  885MOL0     H19462   1.765   0.756   8.563  1.9002  2.1953  1.1567
  885MOL0     H19463   2.025   1.058   8.889  0.3635 -0.9891 -0.3732
  885MOL0     H19464   2.273   1.147   8.940 -0.0363  3.4975 -1.9547
  885MOL0     H19465   2.549   1.230   8.947 -1.6995  0.0542  0.2637
  885MOL0     H19466   2.495   1.064   8.954 -1.0312  1.6893  0.6507
  885MOL0     H19467   2.674   0.996   8.801 -1.2426  2.8168 -3.8956
  885MOL0     H19468   2.741   1.067   8.951 -0.5067 -1.7562  0.2210
  885MOL0     H19469   2.722   1.293   8.781 -0.8265 -0.1881 -1.3994
  885MOL0     H19470   2.761   1.155   8.667  4.6925 -1.7578  0.3850
  885MOL0     H19471   2.963   1.229   8.723 -3.5609  0.1622 -2.4343
  885MOL0     H19472   2.937   1.076   8.817  2.0250  0.7208 -0.3865
  885MOL0     H19473   2.991   1.328   9.142  0.0609 -5.0189  3.2030
  885MOL0     H19474   2.393   1.035   8.556 -1.7700 -0.2311 -1.3724
  885MOL0     H19475   2.170   0.965   8.500 -1.8130 -0.9811  0.5424
  886MOL0     O19476   5.608   6.752   6.662 -0.3565  0.3617 -0.1345
  886MOL0     C19477   5.687   6.689   6.737  1.3519 -0.0316 -0.1575
  886MOL0     O19478   5.643   6.627   6.858 -0.3649 -0.0570  0.2066
  886MOL0     C19479   5.512   6.652   6.902 -0.3113 -0.4663  0.4449
  886MOL0     C19480   5.472   6.748   6.997  0.6177 -0.4789  0.3255
  886MOL0     C19481   5.343   6.771   7.029  0.5311 -0.5547 -0.5540
  886MOL0     C19482   5.232   6.717   6.955 -0.6171  0.0021 -0.0291
  886MOL0     O19483   5.096   6.744   6.973  0.0536 -0.3646 -0.5635
  886MOL0     C19484   5.075   6.837   7.086  0.8167 -0.2061  0.4060
  886MOL0     C19485   4.920   6.848   7.090 -0.2835 -0.7259  0.0928
  886MOL0     C19486   4.876   6.931   7.201 -0.3217 -0.3041 -0.5111
  886MOL0     C19487   4.840   6.866   7.336  0.0496 -0.5476 -0.0916
  886MOL0     C19488   4.718   6.777   7.322 -0.3876 -0.0752  0.7292
  886MOL0     C19489   4.600   6.825   7.236 -0.5198 -0.7497 -0.0274
  886MOL0     C19490   4.521   6.959   7.277 -1.0218  0.2285  0.1757
  886MOL0     C19491   4.435   7.002   7.163 -0.3557 -0.2170 -0.3059
  886MOL0     N19492   4.342   7.115   7.200 -0.2697  1.1215  0.1795
  886MOL0     C19493   4.223   7.157   7.139 -0.0924  0.1655 -0.0750
  886MOL0     C19494   4.162   7.231   7.236  0.3357 -0.3870  0.6215
  886MOL0     C19495   4.032   7.307   7.227  0.4001 -0.4446 -0.2069
  886MOL0     C19496   3.915   7.203   7.226  0.4519  0.2831 -0.0141
  886MOL0     C19497   3.905   7.133   7.365  0.4294 -0.6021  1.1722
  886MOL0     C19498   3.777   7.056   7.374 -0.0277 -0.6256  0.6090
  886MOL0     O19499   3.803   6.921   7.335 -0.1953  0.2193 -0.0855
  886MOL0     C19500   3.712   6.817   7.337  0.5415 -0.0402 -0.1138
  886MOL0     C19501   3.578   6.840   7.371 -0.0083 -1.0507  0.2692
  886MOL0     C19502   3.492   6.736   7.368  0.1106  0.7902  0.0035
  886MOL0     C19503   3.356   6.776   7.412 -0.2441  0.2458 -0.7803
  886MOL0     C19504   3.526   6.602   7.323  0.4817 -0.4603  0.2929
  886MOL0     C19505   3.432   6.482   7.315 -0.3256 -0.3436  0.5290
  886MOL0     O19506   3.303   6.503   7.354  0.3420 -0.1129  0.0582
  886MOL0     C19507   3.221   6.392   7.359  0.6789  0.6360  0.0333
  886MOL0     C19508   3.187   6.302   7.246  0.2916  0.4619 -1.6696
  886MOL0     C19509   3.098   6.196   7.261 -0.1247  0.6117  0.4465
  886MOL0     C19510   3.037   6.176   7.386  0.0932  0.0965  1.5337
  886MOL0     O19511   2.949   6.075   7.405  0.0026  0.3839  0.2790
  886MOL0     C19512   2.843   6.060   7.311 -0.2601 -0.5757  0.8611
  886MOL0     C19513   2.724   5.975   7.365 -0.4648  0.2447  0.5493
  886MOL0     C19514   2.687   6.021   7.505 -0.8447 -0.4646  0.9126
  886MOL0     C19515   2.577   5.915   7.561 -0.0075 -0.5264  0.4126
  886MOL0     C19516   2.520   5.953   7.697  0.5448 -0.0633 -0.1450
  886MOL0     C19517   2.412   6.060   7.697 -1.0324  0.5057 -0.6208
  886MOL0     C19518   2.280   6.041   7.628  0.3498  0.0849 -0.8886
  886MOL0     C19519   2.166   6.126   7.687 -0.1638 -0.4264  0.7227
  886MOL0    Cl19520   2.006   6.056   7.635 -0.0316  0.4446 -0.3432
  886MOL0     C19521   3.072   6.259   7.489  0.4755 -0.4258  0.6311
  886MOL0     C19522   3.157   6.366   7.478 -0.6154  0.1935 -0.4213
  886MOL0     O19523   3.475   6.381   7.267 -0.4009 -0.1519  0.2820
  886MOL0     C19524   3.652   6.586   7.286 -0.1614 -0.4056  0.1981
  886MOL0     C19525   3.745   6.692   7.290  0.2260 -0.9126  0.4267
  886MOL0     N19526   4.243   7.243   7.350  0.2706 -0.1475  0.5010
  886MOL0     N19527   4.352   7.183   7.316 -1.1305 -0.2610 -0.7027
  886MOL0     C19528   5.269   6.630   6.856 -0.6609 -0.6434  0.8025
  886MOL0     C19529   5.405   6.592   6.835 -0.8700 -0.1348  0.7762
  886MOL0     C19530   5.826   6.686   6.709 -0.8652 -0.9000 -0.5709
  886MOL0     C19531   5.879   6.660   6.578 -0.1220  1.1052 -0.7816
  886MOL0     C19532   6.022   6.664   6.556  0.6627  0.4434 -0.2775
  886MOL0     C19533   6.105   6.707   6.660  0.5780 -0.2211 -0.0739
  886MOL0     O19534   6.244   6.729   6.646 -0.1513 -0.3768  0.9266
  886MOL0     C19535   6.299   6.741   6.511 -0.0544  0.2339 -0.4371
  886MOL0     C19536   6.437   6.804   6.507 -0.0985 -0.0102 -0.8643
  886MOL0     C19537   6.504   6.805   6.371  1.3563 -0.2467  0.7540
  886MOL0     C19538   6.654   6.834   6.387 -0.3606  0.5957 -0.0962
  886MOL0     C19539   6.718   6.868   6.260  0.7280  0.1278  0.7923
  886MOL0     C19540   6.759   6.898   6.151 -0.0966  0.0809  0.3583
  886MOL0     C19541   6.054   6.720   6.792  0.3868  0.2373  0.9677
  886MOL0     C19542   5.915   6.708   6.818  0.0755  0.1743 -0.0302
  886MOL0     H19543   5.548   6.815   7.034 -0.3437  0.7686  0.1049
  886MOL0     H19544   5.328   6.850   7.101 -0.5681 -0.6214 -0.6871
  886MOL0     H19545   5.110   6.783   7.175  0.7512 -1.8398 -0.5261
  886MOL0     H19546   5.121   6.935   7.075 -1.0159  0.4370 -2.8427
  886MOL0     H19547   4.891   6.894   6.995 -0.4603  1.6119  1.1993
  886MOL0     H19548   4.873   6.750   7.103 -0.6988 -0.4729  0.5193
  886MOL0     H19549   4.958   7.000   7.224 -0.1416 -1.2215  1.8463
  886MOL0     H19550   4.799   7.004   7.174  0.0444  0.2078 -0.1852
  886MOL0     H19551   4.921   6.803   7.375 -1.0389 -1.9064  0.0742
  886MOL0     H19552   4.823   6.939   7.416 -3.4341 -2.0451  0.7041
  886MOL0     H19553   4.748   6.677   7.289  2.1980  0.6420  0.6743
  886MOL0     H19554   4.673   6.758   7.420 -0.2211  1.0120  1.0299
  886MOL0     H19555   4.643   6.852   7.139 -0.2348  2.4738  0.8722
  886MOL0     H19556   4.521   6.753   7.216 -0.9858  0.0559 -1.1897
  886MOL0     H19557   4.455   6.937   7.362 -1.8844  0.3482 -0.4445
  886MOL0     H19558   4.595   7.037   7.295  0.0272  0.0420 -2.7922
  886MOL0     H19559   4.372   6.916   7.141  0.8121 -1.0471 -0.4680
  886MOL0     H19560   4.499   7.022   7.076 -1.0355 -1.2640 -1.0610
  886MOL0     H19561   4.188   7.135   7.039  1.7374 -2.7229 -0.1900
  886MOL0     H19562   4.031   7.373   7.315 -0.3918  1.3818 -1.5320
  886MOL0     H19563   4.043   7.369   7.138  0.7266  1.9339  1.4171
  886MOL0     H19564   3.938   7.135   7.144  3.0554 -1.5053  2.0169
  886MOL0     H19565   3.823   7.257   7.204 -0.0055  0.7354  2.6381
  886MOL0     H19566   3.889   7.210   7.441  1.1655 -0.4407  1.1695
  886MOL0     H19567   3.999   7.080   7.383  0.5505  0.0300  2.5210
  886MOL0     H19568   3.704   7.110   7.314 -0.6606  1.3253  2.9845
  886MOL0     H19569   3.745   7.058   7.479  0.8768  1.6298  0.9067
  886MOL0     H19570   3.544   6.940   7.393  1.4118 -0.3270 -0.6863
  886MOL0     H19571   3.331   6.714   7.499  0.3542  1.4892  0.3117
  886MOL0     H19572   3.353   6.879   7.448  1.2269  0.4691 -1.2661
  886MOL0     H19573   3.282   6.768   7.331 -0.6701 -0.0885 -0.3691
  886MOL0     H19574   3.223   6.332   7.149  0.0086 -0.5178 -2.0906
  886MOL0     H19575   3.058   6.141   7.177  2.1431  0.2119 -0.4590
  886MOL0     H19576   2.797   6.158   7.298 -0.7314 -0.8877  0.0294
  886MOL0     H19577   2.881   6.007   7.223 -0.2989 -0.9587  1.0690
  886MOL0     H19578   2.641   5.985   7.294  0.5628  0.6394 -0.6537
  886MOL0     H19579   2.766   5.874   7.357 -0.6480  0.0390  1.9419
  886MOL0     H19580   2.642   6.120   7.504 -0.7424 -0.3550 -2.2199
  886MOL0     H19581   2.779   6.025   7.563  0.8847 -3.7751 -1.2753
  886MOL0     H19582   2.504   5.907   7.480 -1.1781  2.1351  1.1095
  886MOL0     H19583   2.631   5.820   7.568  0.9483 -0.1931 -1.6623
  886MOL0     H19584   2.604   5.989   7.758 -0.6066  1.3320  0.6862
  886MOL0     H19585   2.477   5.871   7.756  1.8145 -1.3889 -1.0056
  886MOL0     H19586   2.398   6.079   7.803  0.0222 -1.3034 -0.1204
  886MOL0     H19587   2.468   6.144   7.654  1.0932 -2.0965 -3.4459
  886MOL0     H19588   2.257   5.935   7.643 -1.1182  0.4557 -0.3152
  886MOL0     H19589   2.302   6.081   7.529 -1.7294 -0.8936 -1.8224
  886MOL0     H19590   2.180   6.229   7.653 -0.2848 -0.9755 -1.1534
  886MOL0     H19591   2.154   6.120   7.795 -2.0193 -4.2935  0.4901
  886MOL0     H19592   3.021   6.238   7.583 -1.6468 -1.3889 -0.6831
  886MOL0     H19593   3.186   6.431   7.560  2.7380  0.1554 -1.4125
  886MOL0     H19594   3.691   6.491   7.251  1.0416  0.3768 -0.6628
  886MOL0     H19595   3.846   6.665   7.263  0.1769 -1.8102  1.0839
  886MOL0     H19596   5.193   6.592   6.788 -0.7133  3.0230 -1.4741
  886MOL0     H19597   5.432   6.512   6.767  0.4595  1.3987 -0.5954
  886MOL0     H19598   5.802   6.643   6.504 -0.6606 -2.1259  0.3391
  886MOL0     H19599   6.068   6.639   6.461 -1.0520  0.9391 -1.2803
  886MOL0     H19600   6.310   6.650   6.451 -3.5670  1.5550 -3.4396
  886MOL0     H19601   6.225   6.801   6.458 -0.9523  0.7034  1.2501
  886MOL0     H19602   6.496   6.742   6.576 -0.6478  1.0539  0.6233
  886MOL0     H19603   6.445   6.900   6.560  0.7081 -0.7394  0.3775
  886MOL0     H19604   6.456   6.882   6.311  0.4917  0.4538  2.2839
  886MOL0     H19605   6.489   6.709   6.321  0.9991  0.5218 -0.6648
  886MOL0     H19606   6.715   6.753   6.429  0.5620  2.6927  3.0626
  886MOL0     H19607   6.670   6.920   6.454 -0.6995 -0.2846  1.1574
  886MOL0     H19608   6.812   6.932   6.064  1.9280  2.2699  2.2844
  886MOL0     H19609   6.122   6.754   6.869 -0.2602 -0.6608  1.9482
  886MOL0     H19610   5.870   6.736   6.912  0.5833  3.0896 -0.5566
  887MOL0     O19611   4.262  11.272   7.547 -0.0145 -0.2847 -0.3205
  887MOL0     C19612   4.308  11.226   7.442 -0.0807  0.9912  0.6309
  887MOL0     O19613   4.258  11.233   7.315  0.1368 -0.3152 -0.5989
  887MOL0     C19614   4.129  11.291   7.306 -0.7072  0.6044 -0.3051
  887MOL0     C19615   4.112  11.429   7.309 -0.2499 -0.4016  0.7231
  887MOL0     C19616   3.979  11.480   7.307  0.5447  0.4778 -0.6123
  887MOL0     C19617   3.871  11.403   7.280 -0.3359 -0.5040  0.3732
  887MOL0     O19618   3.748  11.454   7.274  0.4978  0.2715 -0.1152
  887MOL0     C19619   3.671  11.421   7.393  0.3020  0.6761 -0.0742
  887MOL0     C19620   3.540  11.334   7.375 -0.0103  0.1561 -0.1618
  887MOL0     C19621   3.443  11.400   7.282  0.2523  0.0954  0.1719
  887MOL0     C19622   3.303  11.338   7.306  0.0909  0.0240 -0.7538
  887MOL0     C19623   3.206  11.394   7.209  0.1792 -0.3449  0.0553
  887MOL0     C19624   3.057  11.364   7.228  0.2892  0.4176 -0.6695
  887MOL0     C19625   2.963  11.437   7.128 -0.7465  0.0937 -0.0935
  887MOL0     C19626   2.822  11.458   7.181  0.6375  0.4047 -0.7329
  887MOL0     N19627   2.717  11.467   7.077  0.6107 -0.1474  0.9335
  887MOL0     C19628   2.583  11.481   7.094  0.1502 -0.4284 -0.4250
  887MOL0     C19629   2.522  11.471   6.975  0.2714 -0.0442 -0.0741
  887MOL0     C19630   2.378  11.500   6.946 -0.8129 -0.4639 -0.0346
  887MOL0     C19631   2.287  11.385   6.988  0.9632 -0.3528 -0.4076
  887MOL0     C19632   2.172  11.438   7.083  0.3711  0.3606  0.0174
  887MOL0     C19633   2.066  11.327   7.083 -0.1276  0.1724 -0.1712
  887MOL0     O19634   2.116  11.192   7.113 -1.0754 -0.0038 -0.0252
  887MOL0     C19635   2.031  11.088   7.098 -0.2417 -1.2276  0.6716
  887MOL0     C19636   1.900  11.093   7.146 -0.3020  0.1645  0.0617
  887MOL0     C19637   1.810  10.984   7.132 -0.2161 -0.0547 -0.2668
  887MOL0     C19638   1.680  10.991   7.210  0.9755 -0.5237  0.3741
  887MOL0     C19639   1.851  10.869   7.059 -0.0840  0.5310 -0.3463
  887MOL0     C19640   1.780  10.735   7.057 -0.6090 -0.2429 -0.0244
  887MOL0     O19641   1.664  10.718   7.133 -0.0153 -0.4216 -0.1774
  887MOL0     C19642   1.575  10.618   7.126 -0.0370 -0.1569  0.1194
  887MOL0     C19643   1.472  10.644   7.207  0.7783  0.0053 -0.3651
  887MOL0     C19644   1.354  10.567   7.201 -0.3377  0.0489 -0.4770
  887MOL0     C19645   1.348  10.447   7.120  0.2476  0.0928  0.7836
  887MOL0     O19646   1.236  10.369   7.110 -0.0532  0.2534  0.0734
  887MOL0     C19647   1.126  10.392   7.199 -0.2804 -0.0380 -0.4450
  887MOL0     C19648   1.008  10.308   7.159  0.2089  0.3728  0.4176
  887MOL0     C19649   0.888  10.356   7.230 -0.1999 -0.3302  0.7245
  887MOL0     C19650   0.813  10.242   7.305  0.0246 -0.2277  0.3396
  887MOL0     C19651   0.683  10.305   7.372  0.2266  0.5943  1.1178
  887MOL0     C19652   0.616  10.195   7.461 -0.5786 -0.6772  0.2892
  887MOL0     C19653   0.582  10.066   7.379  0.1738  0.2885 -0.6084
  887MOL0     C19654   0.498   9.957   7.447 -1.0549  0.0623 -0.2771
  887MOL0    Cl19655   0.343  10.007   7.492  0.3462  0.1712  0.2299
  887MOL0     C19656   1.460  10.409   7.046 -1.1411 -0.1984 -0.1150
  887MOL0     C19657   1.575  10.495   7.046 -0.7064 -0.7145  0.7957
  887MOL0     O19658   1.829  10.645   6.986 -0.1361  0.3128 -0.2810
  887MOL0     C19659   1.971  10.877   6.996 -0.3467  0.6673 -0.3470
  887MOL0     C19660   2.066  10.980   7.017  0.7897  0.5973  0.5688
  887MOL0     N19661   2.623  11.469   6.879  0.0966  0.5705 -0.3080
  887MOL0     N19662   2.737  11.462   6.938  0.0973 -0.3844 -0.0783
  887MOL0     C19663   3.890  11.262   7.273  0.3493 -0.3826 -0.6964
  887MOL0     C19664   4.016  11.205   7.291 -0.7655 -0.0558  1.3062
  887MOL0     C19665   4.435  11.156   7.444  0.2060  0.1478 -1.0264
  887MOL0     C19666   4.490  11.111   7.565 -0.5503 -0.6394 -0.5971
  887MOL0     C19667   4.612  11.050   7.579 -0.3985  0.0384  0.4344
  887MOL0     C19668   4.689  11.037   7.461 -0.2850 -0.5673  0.3994
  887MOL0     O19669   4.822  10.999   7.463 -0.1238  0.0933  0.2186
  887MOL0     C19670   4.882  10.983   7.588 -0.0908 -0.3573 -0.0864
  887MOL0     C19671   5.037  10.966   7.559 -0.1941 -0.0935  0.6764
  887MOL0     C19672   5.066  10.817   7.528 -0.8898  0.2890 -0.0739
  887MOL0     C19673   5.199  10.794   7.455  0.6022  0.5115  0.7192
  887MOL0     C19674   5.232  10.652   7.470 -0.5800 -0.4185 -0.0915
  887MOL0     C19675   5.266  10.533   7.473 -0.2124  0.5468 -0.7693
  887MOL0     C19676   4.626  11.061   7.337  0.3673  0.5384  0.1049
  887MOL0     C19677   4.503  11.124   7.331  0.3387 -0.4908 -0.0217
  887MOL0     H19678   4.207  11.481   7.316  0.5841 -1.7180 -0.1596
  887MOL0     H19679   3.958  11.586   7.313 -0.2611  0.4057 -1.8280
  887MOL0     H19680   3.740  11.370   7.461  3.2216 -0.0976 -3.3175
  887MOL0     H19681   3.653  11.518   7.440 -0.6123  0.3647  0.2392
  887MOL0     H19682   3.566  11.238   7.331 -2.0126 -1.7952  2.5515
  887MOL0     H19683   3.484  11.323   7.469  0.7159  1.4092  0.4568
  887MOL0     H19684   3.446  11.509   7.293  0.0479  0.2299 -1.0266
  887MOL0     H19685   3.482  11.366   7.186  0.0673 -1.6693  0.6938
  887MOL0     H19686   3.305  11.228   7.302 -1.5546 -0.0882  0.5481
  887MOL0     H19687   3.272  11.366   7.407  0.8774 -0.8267 -0.2564
  887MOL0     H19688   3.231  11.500   7.196 -0.2434  0.6719  5.2579
  887MOL0     H19689   3.228  11.357   7.108  0.3179  1.2124 -0.5252
  887MOL0     H19690   3.039  11.256   7.222 -0.1271  0.3319  1.3293
  887MOL0     H19691   3.023  11.389   7.330  1.4332  0.1865 -0.2205
  887MOL0     H19692   3.003  11.533   7.095 -2.5148  0.9613  0.1596
  887MOL0     H19693   2.961  11.369   7.043 -2.7403 -0.7534  0.5674
  887MOL0     H19694   2.817  11.544   7.249 -2.6351 -0.9525  0.9363
  887MOL0     H19695   2.792  11.376   7.246 -0.5155  0.1703 -1.5309
  887MOL0     H19696   2.528  11.491   7.187  0.1415 -0.2861 -0.4457
  887MOL0     H19697   2.338  11.595   6.983 -1.4882 -0.4817 -0.6928
  887MOL0     H19698   2.375  11.494   6.837  2.7356  0.5511 -0.2911
  887MOL0     H19699   2.343  11.314   7.049 -2.3858 -1.9198  1.1204
  887MOL0     H19700   2.235  11.327   6.911  0.1423 -2.2604  1.4693
  887MOL0     H19701   2.137  11.531   7.036  0.2720  0.0750 -0.4739
  887MOL0     H19702   2.207  11.468   7.182 -0.5409  3.7845 -0.5368
  887MOL0     H19703   2.036  11.316   6.978  1.0519  0.3991 -0.5394
  887MOL0     H19704   1.977  11.356   7.139 -0.1599  1.0013 -0.6296
  887MOL0     H19705   1.875  11.186   7.196  2.5487 -0.2071  2.5079
  887MOL0     H19706   1.680  10.935   7.304 -0.3253  0.2407  0.8580
  887MOL0     H19707   1.658  11.094   7.237 -1.8165 -1.3954  1.9175
  887MOL0     H19708   1.599  10.942   7.155 -1.2852  2.2753  1.0098
  887MOL0     H19709   1.468  10.732   7.270 -0.6344  0.4984 -1.1013
  887MOL0     H19710   1.262  10.603   7.246 -1.1485 -1.1426 -1.1223
  887MOL0     H19711   1.154  10.368   7.302  0.4058  1.2113 -0.3271
  887MOL0     H19712   1.096  10.497   7.198 -0.4491 -0.0849 -0.2978
  887MOL0     H19713   1.002  10.305   7.050  3.1641 -2.6941  0.1678
  887MOL0     H19714   1.031  10.203   7.180 -0.6544  0.5728  2.7251
  887MOL0     H19715   0.823  10.409   7.159  0.1303  0.6556  1.1470
  887MOL0     H19716   0.911  10.420   7.315 -0.2712 -1.4124  1.5725
  887MOL0     H19717   0.798  10.161   7.233  1.3309  0.9686 -1.3705
  887MOL0     H19718   0.884  10.203   7.379  0.9819  0.0285 -0.4347
  887MOL0     H19719   0.603  10.326   7.300  0.8102  2.7083  1.0499
  887MOL0     H19720   0.701  10.401   7.421 -1.2531  2.7612 -2.2569
  887MOL0     H19721   0.683  10.160   7.540 -0.4870  1.2697  1.1406
  887MOL0     H19722   0.526  10.224   7.516 -0.2875 -0.1212  0.4898
  887MOL0     H19723   0.673  10.015   7.344  0.2605  0.5963 -0.8363
  887MOL0     H19724   0.531  10.105   7.290 -3.4064  0.7508  1.4725
  887MOL0     H19725   0.550   9.918   7.535 -0.5717 -2.8077 -1.7130
  887MOL0     H19726   0.484   9.866   7.388  0.8771  0.8231 -2.0396
  887MOL0     H19727   1.448  10.330   6.973  1.4513  1.5329 -2.6186
  887MOL0     H19728   1.656  10.471   6.978  1.0660  2.0670  1.7254
  887MOL0     H19729   2.006  10.796   6.932  2.4976 -1.4055  3.4395
  887MOL0     H19730   2.169  10.973   6.984 -0.0750  0.2430 -2.2840
  887MOL0     H19731   3.804  11.199   7.256  1.4995 -2.1105 -0.3110
  887MOL0     H19732   4.025  11.097   7.285 -2.2939 -0.1180 -1.2175
  887MOL0     H19733   4.437  11.128   7.658  0.1842 -3.0921  0.3363
  887MOL0     H19734   4.643  11.018   7.678 -0.5726 -0.5297  0.3073
  887MOL0     H19735   4.871  11.073   7.649  3.9921 -1.1618  2.2450
  887MOL0     H19736   4.843  10.895   7.640 -4.2407 -0.7355 -3.3130
  887MOL0     H19737   5.096  11.002   7.644 -1.3963 -0.4284  1.6815
  887MOL0     H19738   5.067  11.026   7.473  1.3044 -0.3583  0.9916
  887MOL0     H19739   4.984  10.763   7.479 -1.5370  0.6046  0.6331
  887MOL0     H19740   5.074  10.773   7.628  0.0556  1.2389  0.2848
  887MOL0     H19741   5.276  10.854   7.504  1.7248  0.3504 -0.7951
  887MOL0     H19742   5.188  10.818   7.349 -0.6527  1.6305  1.0763
  887MOL0     H19743   5.285  10.429   7.488  2.2678  1.0644  0.1756
  887MOL0     H19744   4.674  11.033   7.244  0.9795  0.2914  0.4927
  887MOL0     H19745   4.472  11.162   7.234  1.9545  2.3599  0.4686
  888MOL0     O19746   7.258   7.694   5.985 -0.6255 -0.3236  0.3137
  888MOL0     C19747   7.156   7.764   5.995 -0.2701  0.0281 -0.3493
  888MOL0     O19748   7.033   7.715   6.005 -0.1334  0.4805  0.9721
  888MOL0     C19749   7.014   7.585   5.978  0.7088  0.0883  0.4919
  888MOL0     C19750   7.040   7.491   6.078 -0.2927 -0.9217 -0.9464
  888MOL0     C19751   6.989   7.363   6.079 -0.1852  0.7861  0.7112
  888MOL0     C19752   6.928   7.321   5.960  0.5624 -0.1560  0.0827
  888MOL0     O19753   6.873   7.198   5.955 -0.6820 -0.4622 -0.5103
  888MOL0     C19754   6.803   7.152   5.845  0.5716  0.3294  0.2048
  888MOL0     C19755   6.649   7.195   5.831 -0.7225 -0.1821 -0.7077
  888MOL0     C19756   6.560   7.129   5.936 -0.0141  0.1973 -0.2114
  888MOL0     C19757   6.521   6.985   5.892 -0.3730 -0.8640 -0.7742
  888MOL0     C19758   6.409   6.929   5.986  0.2880  0.5981 -0.2121
  888MOL0     C19759   6.333   6.814   5.912 -0.1043  0.0675  0.2700
  888MOL0     C19760   6.199   6.785   5.984  0.3781  0.3355  0.5079
  888MOL0     C19761   6.120   6.691   5.893 -0.7541 -0.8671 -0.7406
  888MOL0     N19762   5.979   6.682   5.941 -0.5344  0.1684 -0.3854
  888MOL0     C19763   5.931   6.648   6.068  0.2763 -0.9776 -1.3631
  888MOL0     C19764   5.798   6.672   6.058 -0.7503  1.0108 -0.6255
  888MOL0     C19765   5.703   6.620   6.163  0.0517  0.3413  0.1260
  888MOL0     C19766   5.623   6.736   6.225 -0.2382  0.3025  0.8471
  888MOL0     C19767   5.510   6.688   6.307 -0.1883  0.0954 -0.2153
  888MOL0     C19768   5.422   6.817   6.354  0.6022 -0.3545  0.4877
  888MOL0     O19769   5.285   6.789   6.331  0.8555 -0.1155 -0.4800
  888MOL0     C19770   5.197   6.858   6.412 -0.0034  0.3253 -0.8115
  888MOL0     C19771   5.230   6.918   6.528  0.1198  1.1065  0.3547
  888MOL0     C19772   5.138   6.983   6.608  0.2712  0.2095 -0.0775
  888MOL0     C19773   5.177   7.042   6.748 -0.0234 -0.0317 -0.5124
  888MOL0     C19774   5.001   6.993   6.558 -0.1380  0.3180 -0.0556
  888MOL0     C19775   4.885   7.057   6.635  0.1987  0.3802 -0.0586
  888MOL0     O19776   4.916   7.147   6.734 -0.5481 -0.4023 -0.1142
  888MOL0     C19777   4.814   7.222   6.793  0.4649  0.5472  0.3421
  888MOL0     C19778   4.805   7.355   6.739  0.4810  0.0995  0.2645
  888MOL0     C19779   4.708   7.437   6.789  0.0061 -0.7374 -0.3610
  888MOL0     C19780   4.627   7.400   6.893  0.5627  0.0709  0.0989
  888MOL0     O19781   4.522   7.474   6.946 -1.0618 -0.0011  0.1717
  888MOL0     C19782   4.416   7.485   6.848 -0.3900 -0.2004 -0.0882
  888MOL0     C19783   4.288   7.532   6.913  1.3958 -0.6278 -1.1795
  888MOL0     C19784   4.301   7.675   6.968  1.1178  0.1521 -0.2149
  888MOL0     C19785   4.184   7.764   6.999 -0.3446 -0.1546 -0.4811
  888MOL0     C19786   4.065   7.701   7.063 -1.0982 -0.1072 -0.9589
  888MOL0     C19787   3.955   7.687   6.960  0.7324  0.5071 -0.4053
  888MOL0     C19788   3.839   7.609   7.014  0.6057  0.8444  0.0498
  888MOL0     C19789   3.748   7.572   6.894  0.0279 -0.1960  0.4904
  888MOL0    Cl19790   3.607   7.459   6.928 -0.3736 -0.0230  0.1386
  888MOL0     C19791   4.635   7.264   6.934 -0.5176  0.1526 -0.1018
  888MOL0     C19792   4.724   7.181   6.891 -0.1386  0.4049  0.5485
  888MOL0     O19793   4.770   7.025   6.603  0.6441 -0.2978 -0.1268
  888MOL0     C19794   4.963   6.929   6.434  0.2610  0.1450  0.2310
  888MOL0     C19795   5.067   6.862   6.366 -0.3003 -0.0539 -0.5023
  888MOL0     N19796   5.772   6.735   5.940  0.1052  1.1684 -0.1987
  888MOL0     N19797   5.882   6.744   5.868 -0.1855 -0.4594 -0.2518
  888MOL0     C19798   6.911   7.414   5.853 -0.2446  0.3055 -0.1205
  888MOL0     C19799   6.951   7.545   5.869 -0.3767  0.8514  0.7635
  888MOL0     C19800   7.157   7.915   5.986  0.6549 -0.6631  0.3055
  888MOL0     C19801   7.279   7.987   5.996 -0.9501 -0.4224  0.0977
  888MOL0     C19802   7.281   8.123   5.970  0.0763  0.0458  0.0917
  888MOL0     C19803   7.173   8.203   5.939  0.9509  0.0114 -0.4505
  888MOL0     O19804   7.190   8.334   5.912  0.1394  0.0486 -1.2513
  888MOL0     C19805   7.085   8.399   5.853 -0.1138 -0.5922  1.0524
  888MOL0     C19806   7.129   8.535   5.799 -0.1382  0.3365 -1.1684
  888MOL0     C19807   7.170   8.633   5.914  0.7865  0.4714  0.5091
  888MOL0     C19808   7.198   8.783   5.858  0.5143  0.2545  0.6968
  888MOL0     C19809   7.240   8.873   5.965  0.4144  0.0454  0.2123
  888MOL0     C19810   7.290   8.950   6.041 -0.1895  0.7593  0.1575
  888MOL0     C19811   7.052   8.136   5.944 -0.9879  0.1340  0.5178
  888MOL0     C19812   7.044   7.994   5.964  0.4372 -0.0231 -0.0633
  888MOL0     H19813   7.087   7.521   6.172 -3.1013  2.2057 -0.3252
  888MOL0     H19814   7.012   7.297   6.162 -0.1922 -1.0511 -0.6982
  888MOL0     H19815   6.847   7.171   5.747  0.2835 -0.4984 -0.0927
  888MOL0     H19816   6.798   7.042   5.843 -1.0604  0.2982  2.0731
  888MOL0     H19817   6.646   7.304   5.835 -0.6530 -0.1954 -0.0942
  888MOL0     H19818   6.626   7.158   5.731 -2.0302 -0.8108 -0.1985
  888MOL0     H19819   6.611   7.129   6.033 -1.6586  0.9293  0.6847
  888MOL0     H19820   6.467   7.186   5.944  0.2272  0.3485  2.2173
  888MOL0     H19821   6.489   6.986   5.787  0.5789  1.5332 -1.1046
  888MOL0     H19822   6.611   6.923   5.894 -1.1656 -2.1505 -2.2151
  888MOL0     H19823   6.457   6.891   6.077  1.1141  2.6265  0.2380
  888MOL0     H19824   6.333   7.005   6.005 -0.0280  0.6385 -1.5175
  888MOL0     H19825   6.318   6.845   5.808 -0.5792 -1.4246 -0.1334
  888MOL0     H19826   6.393   6.723   5.917 -0.8051 -0.3444  2.7505
  888MOL0     H19827   6.217   6.731   6.078  0.0607 -0.1872  0.2744
  888MOL0     H19828   6.154   6.882   6.005 -0.4807  0.0510  0.0134
  888MOL0     H19829   6.165   6.592   5.908  0.1579 -0.1576  1.5745
  888MOL0     H19830   6.126   6.717   5.787 -0.1979  1.6894 -0.1342
  888MOL0     H19831   5.993   6.608   6.147 -1.2298  1.7289  1.4438
  888MOL0     H19832   5.642   6.546   6.111 -0.4343  0.1967  0.8960
  888MOL0     H19833   5.750   6.566   6.246  0.2226  1.2934  0.6629
  888MOL0     H19834   5.600   6.807   6.145  2.5536 -0.6718 -0.9902
  888MOL0     H19835   5.694   6.769   6.301  0.5115 -3.1907  1.8697
  888MOL0     H19836   5.549   6.642   6.398  0.5915 -0.3535 -0.7649
  888MOL0     H19837   5.447   6.616   6.254  0.9480 -3.9390  3.3640
  888MOL0     H19838   5.437   6.906   6.293 -1.0786 -1.3805 -1.5433
  888MOL0     H19839   5.462   6.846   6.451  1.4621  0.1431 -0.0013
  888MOL0     H19840   5.331   6.908   6.567  0.9519 -0.4625 -1.9880
  888MOL0     H19841   5.172   7.152   6.748 -0.3943 -0.0084  1.4941
  888MOL0     H19842   5.116   6.994   6.824  0.8548 -1.8481 -0.8914
  888MOL0     H19843   5.281   7.013   6.769  0.2527  1.3920  0.2304
  888MOL0     H19844   4.884   7.391   6.674  0.3621  2.5615  1.3584
  888MOL0     H19845   4.697   7.541   6.759  4.2009  0.4391  1.4714
  888MOL0     H19846   4.442   7.555   6.769 -0.3258 -1.3574 -1.1322
  888MOL0     H19847   4.395   7.387   6.804 -0.0436 -0.9221  1.2702
  888MOL0     H19848   4.205   7.534   6.841 -0.3737  1.9449  0.7423
  888MOL0     H19849   4.272   7.468   7.000  1.3864 -1.3488 -1.7076
  888MOL0     H19850   4.349   7.736   6.890 -0.5999  3.1592  0.9287
  888MOL0     H19851   4.370   7.669   7.053 -1.6077 -2.5998  2.0439
  888MOL0     H19852   4.214   7.839   7.073 -0.7385 -0.6868  0.2333
  888MOL0     H19853   4.165   7.818   6.906  1.0483  0.5922 -0.3491
  888MOL0     H19854   4.039   7.774   7.141  2.4383 -0.2472  0.5084
  888MOL0     H19855   4.082   7.612   7.123 -1.8345  0.8757  0.8094
  888MOL0     H19856   3.926   7.790   6.935  2.3181  2.0020  3.2683
  888MOL0     H19857   3.994   7.633   6.873 -1.6043  1.3247 -2.0715
  888MOL0     H19858   3.789   7.658   7.097  0.3245  1.2841 -0.3747
  888MOL0     H19859   3.871   7.510   7.049 -0.2818  0.3139 -0.5717
  888MOL0     H19860   3.809   7.528   6.814  0.2590  2.1146 -0.6877
  888MOL0     H19861   3.711   7.665   6.850  0.5428 -0.1295  0.1893
  888MOL0     H19862   4.555   7.229   6.998 -1.2454 -0.6339 -1.4035
  888MOL0     H19863   4.724   7.075   6.912  0.4734  0.0178 -1.2435
  888MOL0     H19864   4.865   6.944   6.389 -2.3086 -2.5564  4.2334
  888MOL0     H19865   5.034   6.826   6.270 -2.6322  1.3716 -0.3215
  888MOL0     H19866   6.865   7.380   5.761 -1.2687 -1.0981  0.8763
  888MOL0     H19867   6.941   7.609   5.781  0.5897 -2.1138 -1.6976
  888MOL0     H19868   7.370   7.932   6.018 -0.5432 -0.0179 -0.5651
  888MOL0     H19869   7.376   8.176   5.964 -0.2360  0.4431 -2.4668
  888MOL0     H19870   7.056   8.341   5.765  1.5378  0.6082 -0.3540
  888MOL0     H19871   7.005   8.406   5.927  0.6334 -0.9206  1.9140
  888MOL0     H19872   7.045   8.591   5.756  0.4867  1.1890 -1.3035
  888MOL0     H19873   7.204   8.518   5.721 -0.1942 -0.3808 -1.0673
  888MOL0     H19874   7.262   8.597   5.962  2.6171  1.0118 -2.3839
  888MOL0     H19875   7.085   8.635   5.983 -0.6056 -3.8681 -0.7249
  888MOL0     H19876   7.104   8.821   5.815  0.2014  0.6541  1.7091
  888MOL0     H19877   7.280   8.774   5.787 -0.6936  1.3219 -0.9126
  888MOL0     H19878   7.325   9.027   6.107 -1.3220  1.7807 -0.3826
  888MOL0     H19879   6.964   8.196   5.925  0.4182  2.5332  1.1208
  888MOL0     H19880   6.944   7.955   5.979  0.2728  0.1237 -0.7257
  889MOL0     O19881   3.828   6.758   9.735  0.5070  0.2636  0.1790
  889MOL0     C19882   3.862   6.861   9.673 -0.2340 -0.8559 -0.2274
  889MOL0     O19883   3.778   6.968   9.640 -0.1979  0.6169  0.3167
  889MOL0     C19884   3.653   6.977   9.691  0.1703 -0.1087 -0.2356
  889MOL0     C19885   3.625   6.946   9.821  0.7545  0.1019  1.0245
  889MOL0     C19886   3.497   6.944   9.869  0.4579 -0.1701 -0.2146
  889MOL0     C19887   3.392   6.994   9.786  0.2141 -0.6366 -0.1124
  889MOL0     O19888   3.265   7.019   9.832 -0.6623  0.3580  0.1192
  889MOL0     C19889   3.207   6.941   9.941 -1.1068 -0.0243  0.1866
  889MOL0     C19890   3.079   7.004   9.997 -0.4321 -0.0746 -0.3134
  889MOL0     C19891   3.012   6.924  10.108 -0.1758 -0.3018 -0.1170
  889MOL0     C19892   2.906   7.011  10.197 -0.4375 -0.1446 -0.2091
  889MOL0     C19893   2.833   6.928  10.299 -0.3861  0.8218 -0.3783
  889MOL0     C19894   2.707   6.861  10.235 -0.7169 -0.3203 -0.6700
  889MOL0     C19895   2.607   6.820  10.347  0.0822  0.3139 -0.5644
  889MOL0     C19896   2.500   6.727  10.300  1.2687 -0.8349  0.0513
  889MOL0     N19897   2.424   6.659  10.406 -0.0606  0.2006 -0.1573
  889MOL0     C19898   2.300   6.706  10.447  0.6651  0.0484 -0.1667
  889MOL0     C19899   2.259   6.621  10.544 -0.4319  1.5997 -0.1919
  889MOL0     C19900   2.135   6.638  10.622 -0.8491 -0.4334  0.0310
  889MOL0     C19901   2.160   6.634  10.772  0.3275 -0.4836 -0.0516
  889MOL0     C19902   2.015   6.634  10.834 -0.0416 -0.3163  0.1816
  889MOL0     C19903   2.026   6.645  10.981 -0.2123 -0.0090 -0.7263
  889MOL0     O19904   1.981   6.521  11.036  0.2165  0.3606 -0.6624
  889MOL0     C19905   1.856   6.508  11.077 -0.7273  0.1943  0.4208
  889MOL0     C19906   1.827   6.377  11.107  0.5428 -0.3023 -0.5183
  889MOL0     C19907   1.707   6.338  11.176 -0.7543  0.3495  0.0874
  889MOL0     C19908   1.696   6.187  11.196  0.4906 -0.0638 -0.1697
  889MOL0     C19909   1.610   6.436  11.202 -0.2840  0.6330 -0.8660
  889MOL0     C19910   1.483   6.406  11.273 -0.8704 -0.4557 -0.7647
  889MOL0     O19911   1.455   6.277  11.314  0.0025  0.0138 -0.5379
  889MOL0     C19912   1.356   6.265  11.406  0.4230 -0.0233  0.8133
  889MOL0     C19913   1.367   6.317  11.541  0.1817 -0.2637  0.1349
  889MOL0     C19914   1.260   6.310  11.631 -0.1183 -0.3508 -0.7772
  889MOL0     C19915   1.138   6.251  11.592  0.8184  0.4978 -0.0586
  889MOL0     O19916   1.023   6.256  11.677  0.0459  0.2776 -0.2944
  889MOL0     C19917   0.997   6.381  11.739 -0.0359 -0.1972 -0.1065
  889MOL0     C19918   0.877   6.360  11.826  0.2578 -0.0021  0.6573
  889MOL0     C19919   0.750   6.323  11.740  0.9802 -0.1135  0.1940
  889MOL0     C19920   0.620   6.327  11.831 -0.4141 -0.3825  0.9044
  889MOL0     C19921   0.489   6.316  11.760 -0.4364 -0.5086 -0.8366
  889MOL0     C19922   0.364   6.354  11.848 -0.6826  0.1439 -0.8619
  889MOL0     C19923   0.348   6.245  11.959 -0.2765  0.0219 -0.0649
  889MOL0     C19924   0.199   6.226  12.008  0.0568 -0.3862  0.4712
  889MOL0    Cl19925   0.128   6.358  12.097  0.4786 -0.0724 -0.0547
  889MOL0     C19926   1.124   6.208  11.455 -0.3447  0.0044  0.0064
  889MOL0     C19927   1.233   6.208  11.370 -0.2179  0.0200 -0.9267
  889MOL0     O19928   1.417   6.503  11.294 -0.5829  0.0472 -0.5727
  889MOL0     C19929   1.628   6.568  11.154  0.6516  0.3727 -0.2892
  889MOL0     C19930   1.761   6.599  11.104 -0.0283 -0.6969 -0.4260
  889MOL0     N19931   2.349   6.507  10.554  0.4238  0.2514 -0.2343
  889MOL0     N19932   2.450   6.539  10.469  0.6542 -0.4627 -0.8134
  889MOL0     C19933   3.421   7.036   9.656  0.8180  0.1803 -0.4802
  889MOL0     C19934   3.550   7.016   9.606 -0.1045  0.3368  0.5536
  889MOL0     C19935   4.011   6.877   9.643  0.1150 -0.0477  0.1577
  889MOL0     C19936   4.055   6.969   9.550  0.9337 -0.0384  0.1292
  889MOL0     C19937   4.190   6.967   9.512  0.4514  0.3114 -0.0122
  889MOL0     C19938   4.275   6.873   9.573  0.1612 -0.3925  0.1024
  889MOL0     O19939   4.409   6.872   9.542 -0.2715 -0.1213 -0.2201
  889MOL0     C19940   4.490   6.925   9.651  0.1119  0.9827  0.9547
  889MOL0     C19941   4.518   7.068   9.618  0.1178  0.0676  0.2688
  889MOL0     C19942   4.509   7.154   9.743  0.0563 -0.1657  0.3538
  889MOL0     C19943   4.539   7.301   9.712  0.7912  0.3030 -0.0202
  889MOL0     C19944   4.456   7.369   9.616 -0.8568  0.4029  0.2092
  889MOL0     C19945   4.394   7.438   9.544  0.1170  0.1598  0.2082
  889MOL0     C19946   4.232   6.786   9.671  0.4694 -0.0659  0.2526
  889MOL0     C19947   4.097   6.778   9.699 -0.3885 -0.4905  0.6898
  889MOL0     H19948   3.709   6.919   9.885  1.0632 -2.6109 -0.3747
  889MOL0     H19949   3.473   6.913   9.971 -3.9055 -2.9577 -1.7936
  889MOL0     H19950   3.185   6.841   9.901 -0.1161  0.0639 -0.6271
  889MOL0     H19951   3.273   6.931  10.028 -2.8558  1.6357  1.7947
  889MOL0     H19952   3.107   7.106  10.028 -2.0319  0.9422 -2.0080
  889MOL0     H19953   3.015   7.002   9.908  0.0788 -1.4667 -0.6619
  889MOL0     H19954   2.962   6.836  10.069 -0.9997 -0.6752  1.6467
  889MOL0     H19955   3.090   6.886  10.175  2.0994 -0.1532 -2.5061
  889MOL0     H19956   2.950   7.098  10.248 -1.2755 -0.3342  0.8584
  889MOL0     H19957   2.840   7.053  10.120 -0.6135  0.0736  0.0625
  889MOL0     H19958   2.897   6.854  10.348 -2.1334  1.4598  3.1508
  889MOL0     H19959   2.806   6.993  10.382  3.4395  1.3271  0.6421
  889MOL0     H19960   2.655   6.935  10.174  1.0002  1.6456  0.1184
  889MOL0     H19961   2.732   6.780  10.166 -1.0792 -0.9470 -0.0738
  889MOL0     H19962   2.655   6.767  10.431 -2.3527  2.6364  2.5105
  889MOL0     H19963   2.557   6.909  10.384  0.1540 -0.4793  1.6035
  889MOL0     H19964   2.538   6.647  10.235 -1.0564 -1.9066 -0.1030
  889MOL0     H19965   2.424   6.788  10.250  2.4375  2.1615  1.6853
  889MOL0     H19966   2.248   6.800  10.429 -0.8406 -0.8033 -0.4237
  889MOL0     H19967   2.089   6.732  10.590  0.2025  0.0202 -0.1990
  889MOL0     H19968   2.068   6.556  10.596  0.2211 -1.2790 -0.1294
  889MOL0     H19969   2.203   6.730  10.801  0.0801  0.0377 -1.3639
  889MOL0     H19970   2.225   6.551  10.799  0.6851 -0.1492  0.1192
  889MOL0     H19971   1.963   6.543  10.800  0.8029 -0.1061 -1.8230
  889MOL0     H19972   1.954   6.717  10.797 -0.3324 -1.8575 -3.2661
  889MOL0     H19973   1.978   6.736  11.019  1.1230 -0.5000  2.3849
  889MOL0     H19974   2.133   6.658  10.996  0.0389 -1.6425 -0.9879
  889MOL0     H19975   1.886   6.291  11.077 -0.5851 -1.2674 -0.0557
  889MOL0     H19976   1.599   6.146  11.166  0.4638 -0.4412  0.4106
  889MOL0     H19977   1.760   6.128  11.131 -1.0260 -1.2022 -0.7037
  889MOL0     H19978   1.722   6.158  11.299 -0.9863 -1.9920 -0.2753
  889MOL0     H19979   1.458   6.370  11.567 -0.3923 -0.4542  2.8723
  889MOL0     H19980   1.280   6.351  11.729  0.7057 -1.9481 -0.2308
  889MOL0     H19981   1.085   6.408  11.797  1.5883 -1.3118 -1.9464
  889MOL0     H19982   0.972   6.458  11.665 -1.8046  1.4650  2.0487
  889MOL0     H19983   0.905   6.274  11.887 -0.2705  0.5374  1.6937
  889MOL0     H19984   0.854   6.452  11.881  0.1688 -0.8604  2.1262
  889MOL0     H19985   0.756   6.220  11.703  2.0907 -0.9918  2.5979
  889MOL0     H19986   0.747   6.399  11.661 -0.4118  0.4964  0.7969
  889MOL0     H19987   0.628   6.250  11.909  2.2513 -2.4370 -1.2001
  889MOL0     H19988   0.620   6.421  11.888  1.2600 -0.4039  1.0099
  889MOL0     H19989   0.483   6.218  11.712  0.2992 -1.3001  0.6409
  889MOL0     H19990   0.488   6.386  11.675 -0.2511 -2.6220 -2.6826
  889MOL0     H19991   0.377   6.452  11.895  0.4232 -0.2634 -0.2992
  889MOL0     H19992   0.273   6.357  11.787 -2.9112  1.0791  2.2833
  889MOL0     H19993   0.426   6.263  12.033  2.3093 -0.8969 -2.3664
  889MOL0     H19994   0.383   6.153  11.910  0.6490  0.1846  0.2659
  889MOL0     H19995   0.191   6.130  12.060 -0.1462 -0.3352  0.5332
  889MOL0     H19996   0.136   6.220  11.919  0.3360  1.4125  0.1249
  889MOL0     H19997   1.025   6.169  11.434 -0.3107 -1.0411  1.6605
  889MOL0     H19998   1.218   6.191  11.264  1.8263  1.2226 -1.4801
  889MOL0     H19999   1.550   6.641  11.174  1.9655  1.2118  2.2176
  889MOL0     H20000   1.785   6.704  11.090  3.5722 -1.3040  0.2105
  889MOL0     H20001   3.329   7.076   9.614  0.6136  1.9015  1.3997
  889MOL0     H20002   3.578   7.043   9.505  0.0032 -0.6006  0.3242
  889MOL0     H20003   3.980   7.036   9.508 -1.0653 -1.1978  1.6806
  889MOL0     H20004   4.222   7.045   9.443  0.6323 -1.1880 -1.6643
  889MOL0     H20005   4.441   6.908   9.747  0.5423 -0.8891  0.8953
  889MOL0     H20006   4.583   6.869   9.656 -0.7264 -0.4126  1.6239
  889MOL0     H20007   4.440   7.097   9.547 -2.2058 -2.5814  1.5401
  889MOL0     H20008   4.618   7.084   9.578 -0.3367 -0.1827 -1.0268
  889MOL0     H20009   4.581   7.114   9.815 -0.8718  0.1686  1.5088
  889MOL0     H20010   4.410   7.138   9.787  0.9663  0.0656  2.6638
  889MOL0     H20011   4.641   7.303   9.672  0.5932 -0.6504 -0.5916
  889MOL0     H20012   4.533   7.367   9.799  0.0934  1.7678 -1.1352
  889MOL0     H20013   4.327   7.503   9.491  0.6410  1.6376  1.2968
  889MOL0     H20014   4.296   6.710   9.715  0.4380 -1.4988 -2.0185
  889MOL0     H20015   4.064   6.694   9.760  0.7634 -4.1033 -3.1606
  890MOL0     O20016   5.089   1.167   7.311 -0.2483 -0.8261  0.1504
  890MOL0     C20017   5.115   1.121   7.199  0.5412 -0.1635  0.3037
  890MOL0     O20018   5.029   1.108   7.099 -0.5583 -0.0759 -0.0517
  890MOL0     C20019   4.903   1.158   7.121 -0.3135 -0.1057  0.5601
  890MOL0     C20020   4.797   1.073   7.148  0.1965 -0.4800  0.7362
  890MOL0     C20021   4.663   1.116   7.138 -1.5808  0.2141  0.2634
  890MOL0     C20022   4.641   1.252   7.108  0.5599 -0.0521 -0.4585
  890MOL0     O20023   4.504   1.292   7.109 -0.0578  0.2421 -0.0451
  890MOL0     C20024   4.471   1.421   7.044  0.5141 -0.1146 -0.4160
  890MOL0     C20025   4.316   1.454   7.065  0.1985  0.0879 -0.0868
  890MOL0     C20026   4.283   1.527   7.187  0.5327  0.3004 -0.9649
  890MOL0     C20027   4.133   1.512   7.227  0.2413 -0.3467 -0.2201
  890MOL0     C20028   4.100   1.593   7.361  0.2216  0.3156  0.0767
  890MOL0     C20029   3.970   1.550   7.411  0.5193 -0.1328 -0.5273
  890MOL0     C20030   3.931   1.630   7.546 -0.3154  0.3831  1.0431
  890MOL0     C20031   3.909   1.783   7.529  0.5741  0.4930  0.1868
  890MOL0     N20032   3.806   1.826   7.624  0.4062 -0.1265 -0.1589
  890MOL0     C20033   3.675   1.827   7.599  0.3676  0.5708  0.7886
  890MOL0     C20034   3.615   1.882   7.703 -0.0900  0.8962 -1.1890
  890MOL0     C20035   3.462   1.910   7.710 -0.1205  0.1196  0.1817
  890MOL0     C20036   3.371   1.826   7.606  0.1717 -0.5438 -0.1913
  890MOL0     C20037   3.222   1.872   7.601  0.0195  0.1939 -0.6602
  890MOL0     C20038   3.207   1.998   7.520  0.3452 -0.8406  0.6198
  890MOL0     O20039   3.253   1.976   7.383 -0.0078 -0.2009 -0.0297
  890MOL0     C20040   3.174   2.020   7.278  0.0915 -0.5906  0.1114
  890MOL0     C20041   3.128   2.151   7.254 -0.2404  0.0346  0.1897
  890MOL0     C20042   3.058   2.185   7.134 -0.4315 -0.6093  0.5029
  890MOL0     C20043   3.015   2.334   7.116 -0.4832  0.3990  1.2930
  890MOL0     C20044   3.038   2.093   7.034  0.4852  0.0379 -0.4234
  890MOL0     C20045   2.936   2.114   6.926  0.2100  0.1879 -0.5551
  890MOL0     O20046   2.890   1.988   6.884  0.4035 -0.4501  0.4194
  890MOL0     C20047   2.795   1.976   6.784 -0.1418  0.3459  0.8147
  890MOL0     C20048   2.693   1.883   6.798 -0.0355  0.6807  0.5323
  890MOL0     C20049   2.603   1.851   6.694 -0.0887 -0.9021  0.0698
  890MOL0     C20050   2.626   1.907   6.566  0.0904 -0.5200 -0.2299
  890MOL0     O20051   2.566   1.872   6.449  0.2354 -0.2119 -0.3473
  890MOL0     C20052   2.450   1.783   6.458  0.2401  0.2669 -0.0922
  890MOL0     C20053   2.324   1.841   6.516  0.2925  0.4335  0.7942
  890MOL0     C20054   2.230   1.729   6.565  0.2770 -1.3880 -0.4229
  890MOL0     C20055   2.198   1.626   6.458  0.2481 -0.1715  0.2163
  890MOL0     C20056   2.077   1.543   6.512 -0.1831 -0.7894  0.5286
  890MOL0     C20057   2.071   1.422   6.414 -1.0033 -0.6509 -0.7293
  890MOL0     C20058   1.955   1.324   6.437  0.2621 -0.2309  1.5131
  890MOL0     C20059   1.943   1.274   6.584 -0.0461 -0.3288  0.3050
  890MOL0    Cl20060   2.099   1.195   6.618 -0.0674  0.0619 -0.0032
  890MOL0     C20061   2.734   1.994   6.554  0.8684 -0.0964 -0.2810
  890MOL0     C20062   2.816   2.035   6.657  0.9712 -0.3225  0.3696
  890MOL0     O20063   2.931   2.219   6.863  0.3373  0.7257 -0.7164
  890MOL0     C20064   3.081   1.959   7.057  0.2217 -0.4432 -0.0801
  890MOL0     C20065   3.157   1.930   7.172 -0.3135  0.3696  0.2456
  890MOL0     N20066   3.718   1.912   7.795  0.5069 -0.4101  0.1669
  890MOL0     N20067   3.835   1.877   7.746 -0.5203 -0.4152  0.0512
  890MOL0     C20068   4.747   1.335   7.082  0.1464 -0.7211  0.3096
  890MOL0     C20069   4.878   1.290   7.087  0.5827 -0.3544  0.2628
  890MOL0     C20070   5.257   1.115   7.156  0.1521  0.3358 -0.9085
  890MOL0     C20071   5.354   1.123   7.252  0.7940 -0.5844 -0.3791
  890MOL0     C20072   5.485   1.104   7.208 -0.5102 -0.6252 -0.9469
  890MOL0     C20073   5.525   1.085   7.080  0.1361  0.3401  0.2996
  890MOL0     O20074   5.653   1.094   7.034 -0.6630  0.2096 -0.3898
  890MOL0     C20075   5.762   1.073   7.119 -0.1487 -0.2789 -0.4767
  890MOL0     C20076   5.881   0.995   7.065  0.0310  0.2230 -0.4600
  890MOL0     C20077   5.832   0.880   6.976 -0.6550  0.6492 -0.2208
  890MOL0     C20078   5.947   0.826   6.891  0.0825 -0.1833 -0.2693
  890MOL0     C20079   6.053   0.775   6.986 -0.3166 -0.3723  0.0713
  890MOL0     C20080   6.130   0.732   7.067 -0.3648  0.4639  0.5410
  890MOL0     C20081   5.420   1.065   6.984  0.1474  0.7938 -0.0728
  890MOL0     C20082   5.285   1.083   7.024  0.0550  0.5219  0.6156
  890MOL0     H20083   4.823   0.968   7.160  0.3011 -0.2590  2.8632
  890MOL0     H20084   4.582   1.044   7.143 -0.6980 -0.8878 -0.6739
  890MOL0     H20085   4.534   1.492   7.098 -0.2203 -1.7765  2.9066
  890MOL0     H20086   4.488   1.412   6.937 -1.7963 -1.3106 -0.7542
  890MOL0     H20087   4.281   1.510   6.978 -0.3403 -0.3585 -0.1611
  890MOL0     H20088   4.266   1.357   7.063 -0.6451  0.4846 -3.3367
  890MOL0     H20089   4.353   1.497   7.266  4.1030  1.6524 -3.3296
  890MOL0     H20090   4.305   1.633   7.167  1.0883  0.0661 -1.6174
  890MOL0     H20091   4.071   1.552   7.147  0.8082 -0.3484 -0.6683
  890MOL0     H20092   4.114   1.405   7.245 -0.2809  0.0877  2.1076
  890MOL0     H20093   4.175   1.574   7.438 -0.3468  0.3194  0.6426
  890MOL0     H20094   4.093   1.701   7.344  0.1052  0.0043 -2.1542
  890MOL0     H20095   3.886   1.571   7.344 -2.7146 -0.4993  3.0352
  890MOL0     H20096   3.972   1.441   7.417 -0.4440 -0.1087  0.5492
  890MOL0     H20097   3.833   1.586   7.566  0.1805 -1.4811 -0.3185
  890MOL0     H20098   4.004   1.615   7.625 -0.5206 -0.4181  1.0944
  890MOL0     H20099   3.877   1.811   7.428  0.5986 -0.0424  0.0312
  890MOL0     H20100   4.005   1.833   7.549  1.2672 -0.8133  0.2232
  890MOL0     H20101   3.635   1.773   7.514 -2.2621  2.4317  0.7230
  890MOL0     H20102   3.418   1.903   7.810  0.5614 -0.6014  0.4398
  890MOL0     H20103   3.454   2.015   7.682 -0.0732  0.2780  0.7535
  890MOL0     H20104   3.375   1.720   7.633 -1.9834 -0.2410  1.5345
  890MOL0     H20105   3.422   1.842   7.511  0.3124  1.7665  0.2262
  890MOL0     H20106   3.176   1.896   7.697  0.8450  0.2276 -0.2700
  890MOL0     H20107   3.162   1.793   7.555  1.2208 -0.8743 -0.4299
  890MOL0     H20108   3.260   2.079   7.571 -0.9036  1.4442 -1.5473
  890MOL0     H20109   3.100   2.017   7.510  0.3936 -1.6202 -1.8746
  890MOL0     H20110   3.137   2.225   7.333 -0.8706 -1.6001  1.8991
  890MOL0     H20111   3.029   2.388   7.210 -2.5239  0.7936  1.4036
  890MOL0     H20112   3.080   2.376   7.039 -2.3733  0.9178 -0.0746
  890MOL0     H20113   2.911   2.338   7.082 -0.4105 -6.0000 -1.0259
  890MOL0     H20114   2.671   1.835   6.893  0.7555 -0.0697  0.3493
  890MOL0     H20115   2.527   1.778   6.719  0.4669 -1.2517  0.7644
  890MOL0     H20116   2.431   1.743   6.358  0.7612 -2.7846  0.9212
  890MOL0     H20117   2.479   1.701   6.524 -1.8213 -0.6299 -0.1863
  890MOL0     H20118   2.336   1.912   6.599  1.6456  0.9303  0.1979
  890MOL0     H20119   2.268   1.888   6.435 -0.1197 -2.5003 -0.7592
  890MOL0     H20120   2.140   1.781   6.599  1.9456  0.2174  1.8343
  890MOL0     H20121   2.266   1.676   6.654 -0.9101 -1.6173 -0.0629
  890MOL0     H20122   2.162   1.683   6.373 -1.8491  1.9547  2.3818
  890MOL0     H20123   2.279   1.555   6.437  1.0631  0.5983  0.7013
  890MOL0     H20124   1.986   1.603   6.502  2.0630  2.6869 -1.1339
  890MOL0     H20125   2.078   1.508   6.615 -1.5880 -0.0270  0.8192
  890MOL0     H20126   2.063   1.464   6.313 -0.3243  1.7953  0.1708
  890MOL0     H20127   2.169   1.374   6.413 -1.2089 -1.2514  2.0467
  890MOL0     H20128   1.976   1.234   6.379 -1.2255  1.8355 -2.6256
  890MOL0     H20129   1.863   1.370   6.400  0.2583  0.5728  2.4751
  890MOL0     H20130   1.864   1.199   6.594 -0.0010 -0.1914  2.1474
  890MOL0     H20131   1.912   1.354   6.653  0.9085 -1.5274  2.2215
  890MOL0     H20132   2.745   2.036   6.454 -2.8585 -3.0755 -2.1979
  890MOL0     H20133   2.882   2.120   6.646  2.0923 -1.0432  1.3926
  890MOL0     H20134   3.071   1.892   6.972  1.1078 -0.3835 -0.2379
  890MOL0     H20135   3.195   1.828   7.169 -0.0503  0.4385  0.9385
  890MOL0     H20136   4.720   1.438   7.066 -0.0702 -0.8330 -0.0576
  890MOL0     H20137   4.956   1.360   7.059 -1.3299  1.0894 -1.7728
  890MOL0     H20138   5.338   1.140   7.358  1.2446  0.0216 -0.4037
  890MOL0     H20139   5.571   1.123   7.271 -0.6095  0.3313 -1.0890
  890MOL0     H20140   5.786   1.176   7.149 -1.3308 -0.3607  0.8148
  890MOL0     H20141   5.736   1.013   7.206  1.7669  0.8923  0.9877
  890MOL0     H20142   5.936   0.954   7.150 -1.7566 -2.2668 -0.3957
  890MOL0     H20143   5.958   1.052   7.013  1.8329 -2.0653 -0.4888
  890MOL0     H20144   5.756   0.906   6.902  1.2727  0.9318 -2.2397
  890MOL0     H20145   5.799   0.800   7.042  3.1010 -2.2083 -1.4317
  890MOL0     H20146   5.992   0.896   6.820 -0.8280 -0.1232 -0.8036
  890MOL0     H20147   5.906   0.747   6.827  0.8785 -0.4866 -0.4142
  890MOL0     H20148   6.210   0.698   7.130  0.1561  0.4602 -0.1067
  890MOL0     H20149   5.452   1.038   6.884 -1.4603  0.9589 -0.6628
  890MOL0     H20150   5.207   1.065   6.951  0.6310  0.1304  0.0932
  891MOL0     O20151   3.526   3.902   6.532  0.3485  0.4938  0.3865
  891MOL0     C20152   3.415   3.849   6.515  0.3896 -0.4327 -0.6262
  891MOL0     O20153   3.378   3.766   6.415 -0.6247 -0.0627 -0.2114
  891MOL0     C20154   3.481   3.701   6.349 -0.2029  1.0397  0.2373
  891MOL0     C20155   3.604   3.647   6.409 -0.6206 -0.9605  0.1404
  891MOL0     C20156   3.697   3.574   6.334  0.2515  0.4585  0.1126
  891MOL0     C20157   3.673   3.542   6.200  0.3849 -0.2879  0.5304
  891MOL0     O20158   3.770   3.473   6.130 -0.3976  0.0278  0.1264
  891MOL0     C20159   3.748   3.444   5.994 -0.4525  0.5129  1.2343
  891MOL0     C20160   3.880   3.392   5.938 -0.0359  0.4023 -0.2214
  891MOL0     C20161   3.944   3.281   6.019 -0.1267  0.8968 -0.3529
  891MOL0     C20162   4.064   3.219   5.943  0.0677 -0.4222  0.1258
  891MOL0     C20163   4.144   3.110   6.015  0.8405  0.4292 -0.9531
  891MOL0     C20164   4.281   3.073   5.958  0.6580  0.4763 -0.2793
  891MOL0     C20165   4.329   2.938   6.007 -1.1912 -0.2986 -0.1343
  891MOL0     C20166   4.461   2.889   5.945  0.0629  0.2222 -0.8222
  891MOL0     N20167   4.462   2.882   5.799  0.0610  1.0852  0.0840
  891MOL0     C20168   4.386   2.797   5.727  0.7980 -0.0014 -0.6478
  891MOL0     C20169   4.409   2.828   5.594  0.0397  0.2519 -0.9028
  891MOL0     C20170   4.357   2.751   5.481 -0.7114  0.2668 -0.1525
  891MOL0     C20171   4.211   2.759   5.493 -0.0655 -0.2474  0.1711
  891MOL0     C20172   4.123   2.725   5.368 -0.5337 -0.2085 -0.2507
  891MOL0     C20173   4.180   2.597   5.303  0.0062 -1.6589  0.5601
  891MOL0     O20174   4.176   2.478   5.381  0.7196  0.1715 -0.3590
  891MOL0     C20175   4.049   2.434   5.417  0.0982  0.5040 -0.3936
  891MOL0     C20176   3.929   2.434   5.340 -0.4167 -1.1788 -0.1418
  891MOL0     C20177   3.804   2.378   5.381  0.0596  1.3428  0.0324
  891MOL0     C20178   3.684   2.397   5.290 -0.2402  0.1215  0.1976
  891MOL0     C20179   3.799   2.307   5.506 -0.4480  0.1645  0.6079
  891MOL0     C20180   3.679   2.229   5.554 -0.9551  0.2927  0.2570
  891MOL0     O20181   3.720   2.148   5.659 -0.3420  0.4292 -0.4780
  891MOL0     C20182   3.627   2.077   5.727  0.1703 -0.6665  0.5645
  891MOL0     C20183   3.657   1.943   5.743 -0.1342 -1.1024  0.5660
  891MOL0     C20184   3.563   1.865   5.805 -0.0073  0.3625  1.0696
  891MOL0     C20185   3.451   1.918   5.863 -0.0849  0.4378  0.1631
  891MOL0     O20186   3.363   1.830   5.932  0.2045 -0.2638  0.5430
  891MOL0     C20187   3.222   1.836   5.903 -0.5734 -0.9026  0.1848
  891MOL0     C20188   3.160   1.715   5.968  0.9011  0.2572  0.3225
  891MOL0     C20189   3.158   1.738   6.112  1.1659 -0.8989 -0.6329
  891MOL0     C20190   3.119   1.611   6.196  0.2813 -0.9751 -0.0461
  891MOL0     C20191   2.967   1.609   6.212  0.1588  0.6323  0.4574
  891MOL0     C20192   2.939   1.485   6.297  0.0109 -0.0394 -0.1645
  891MOL0     C20193   2.802   1.444   6.279 -0.1124  0.7459  0.1810
  891MOL0     C20194   2.689   1.545   6.323 -0.4647 -0.2218  0.5581
  891MOL0    Cl20195   2.533   1.453   6.284 -0.3218 -0.0117  0.0699
  891MOL0     C20196   3.419   2.049   5.855  0.1470  0.0122 -0.7513
  891MOL0     C20197   3.505   2.130   5.787 -0.6719 -0.2734  0.0084
  891MOL0     O20198   3.563   2.231   5.506  1.1901 -0.3738 -0.0919
  891MOL0     C20199   3.917   2.308   5.584 -1.1047  0.4526  0.3979
  891MOL0     C20200   4.036   2.370   5.538 -0.2782 -0.0936  0.1162
  891MOL0     N20201   4.494   2.943   5.591 -0.0586  0.4236 -0.1877
  891MOL0     N20202   4.514   2.976   5.716  0.4674  0.1441  0.8827
  891MOL0     C20203   3.547   3.580   6.140 -0.1303 -0.7696 -0.1658
  891MOL0     C20204   3.458   3.656   6.214 -0.4002  0.5760 -0.4933
  891MOL0     C20205   3.320   3.893   6.615  0.3413 -0.2025 -0.7023
  891MOL0     C20206   3.343   4.017   6.682 -0.9565 -0.7191 -0.3577
  891MOL0     C20207   3.256   4.057   6.780  0.3430 -0.3042 -0.9633
  891MOL0     C20208   3.137   3.994   6.806 -0.1560 -0.0192 -0.2292
  891MOL0     O20209   3.062   4.058   6.893  0.1472 -1.1083  0.5748
  891MOL0     C20210   2.947   3.999   6.946 -0.9156  0.7461  0.5617
  891MOL0     C20211   2.830   4.026   6.853  0.4283 -0.0791  0.5667
  891MOL0     C20212   2.696   3.987   6.924 -0.5961 -0.0786  0.2369
  891MOL0     C20213   2.646   4.089   7.023  0.6722 -1.1956 -0.7151
  891MOL0     C20214   2.521   4.062   7.106 -0.6245  0.3070  0.3619
  891MOL0     C20215   2.411   4.050   7.154 -0.0510 -0.1954 -0.1951
  891MOL0     C20216   3.119   3.866   6.752 -0.4665 -0.7493 -0.5807
  891MOL0     C20217   3.206   3.818   6.654 -0.3484  0.1682  0.0253
  891MOL0     H20218   3.627   3.660   6.514  1.4695 -0.1159 -0.3620
  891MOL0     H20219   3.794   3.553   6.377  0.8257  1.2093 -0.7728
  891MOL0     H20220   3.671   3.367   5.978 -1.3309  1.5471  0.3323
  891MOL0     H20221   3.728   3.531   5.930 -1.1820 -1.1942 -1.0145
  891MOL0     H20222   3.855   3.356   5.838 -0.1085 -0.7267  0.1892
  891MOL0     H20223   3.950   3.476   5.936  3.4757 -2.2087  1.8140
  891MOL0     H20224   3.975   3.318   6.117  0.8781 -2.4691  0.7153
  891MOL0     H20225   3.869   3.204   6.036 -0.6094  1.4294 -0.0216
  891MOL0     H20226   4.024   3.182   5.848  0.7413 -0.9518  0.0369
  891MOL0     H20227   4.141   3.294   5.922  1.1854 -0.6438  2.9583
  891MOL0     H20228   4.150   3.135   6.122 -3.9939 -1.8567  0.1497
  891MOL0     H20229   4.078   3.022   6.009  0.0660  0.9770 -0.6849
  891MOL0     H20230   4.267   3.061   5.850 -0.5391  0.9302 -0.1842
  891MOL0     H20231   4.359   3.148   5.974  1.7644 -0.3548 -1.5187
  891MOL0     H20232   4.331   2.941   6.116 -1.0580  3.0116 -0.1193
  891MOL0     H20233   4.258   2.860   5.979  2.2980 -3.2581 -1.6492
  891MOL0     H20234   4.477   2.790   5.988 -1.2460 -0.0557 -0.9256
  891MOL0     H20235   4.543   2.952   5.980 -0.4476  1.5104 -1.8560
  891MOL0     H20236   4.335   2.708   5.761 -0.0724  0.8036  0.1908
  891MOL0     H20237   4.382   2.786   5.380 -1.4545  0.5864 -0.2309
  891MOL0     H20238   4.392   2.647   5.482  0.9568  0.7931 -0.4837
  891MOL0     H20239   4.194   2.865   5.514  1.2454  0.3760 -1.6389
  891MOL0     H20240   4.183   2.702   5.582 -2.1130  0.0595 -0.2193
  891MOL0     H20241   4.119   2.806   5.295 -0.3454  1.4624  1.5191
  891MOL0     H20242   4.020   2.721   5.404  0.5216 -1.6149  3.0310
  891MOL0     H20243   4.280   2.619   5.264 -1.9120  1.4122 -3.3795
  891MOL0     H20244   4.124   2.590   5.209  2.8203 -1.8617 -1.2009
  891MOL0     H20245   3.934   2.473   5.239  1.8067 -1.2228 -0.0866
  891MOL0     H20246   3.643   2.307   5.242  0.8813  1.1846 -2.9368
  891MOL0     H20247   3.596   2.427   5.349 -0.3012 -0.8001  0.5959
  891MOL0     H20248   3.708   2.470   5.213  0.7857 -0.5438 -0.1344
  891MOL0     H20249   3.751   1.900   5.708 -0.3748 -0.6850 -0.6528
  891MOL0     H20250   3.586   1.761   5.823  0.2610  0.7790  3.3873
  891MOL0     H20251   3.188   1.929   5.949  0.2885 -0.1755 -0.6041
  891MOL0     H20252   3.205   1.845   5.796  1.8951  2.1462 -0.1055
  891MOL0     H20253   3.057   1.701   5.933  0.5522  0.4308  1.2598
  891MOL0     H20254   3.216   1.623   5.947 -0.4704 -0.4281 -0.4445
  891MOL0     H20255   3.102   1.830   6.132  1.5050 -0.4886 -1.5405
  891MOL0     H20256   3.261   1.758   6.140  1.0282  0.3272 -0.9484
  891MOL0     H20257   3.165   1.526   6.147  3.1056  2.0162 -3.1258
  891MOL0     H20258   3.154   1.638   6.296 -2.7870  0.1079  0.8588
  891MOL0     H20259   2.914   1.593   6.118 -1.8823  0.2246  1.6214
  891MOL0     H20260   2.928   1.695   6.265  1.3553  0.4592  1.6899
  891MOL0     H20261   3.001   1.399   6.270  3.5327  1.7977  1.3805
  891MOL0     H20262   2.966   1.503   6.401  1.4685  0.0235 -0.5376
  891MOL0     H20263   2.788   1.346   6.326 -0.2237 -0.5232 -2.3210
  891MOL0     H20264   2.795   1.422   6.172  1.0315  0.7622  0.0848
  891MOL0     H20265   2.691   1.627   6.250  0.3733 -2.6648 -2.4065
  891MOL0     H20266   2.704   1.585   6.423  1.0560  0.6707  0.0023
  891MOL0     H20267   3.321   2.071   5.897 -0.2200 -0.0697 -1.5281
  891MOL0     H20268   3.488   2.237   5.775  2.1950  0.7093  3.0420
  891MOL0     H20269   3.924   2.261   5.682 -2.3122 -0.4609  0.0766
  891MOL0     H20270   4.119   2.378   5.608 -0.5787  2.0727  0.2956
  891MOL0     H20271   3.527   3.554   6.037  3.1451 -1.6258 -0.6993
  891MOL0     H20272   3.365   3.685   6.167 -1.4966  0.4049  1.4658
  891MOL0     H20273   3.433   4.076   6.672 -0.9361 -0.9517 -1.6396
  891MOL0     H20274   3.273   4.153   6.829 -0.2427 -0.2381 -0.8796
  891MOL0     H20275   2.954   3.891   6.965  1.6955  0.4317 -1.5789
  891MOL0     H20276   2.931   4.043   7.045  1.0983  1.7399  0.4897
  891MOL0     H20277   2.842   3.960   6.767 -0.5115 -1.2235  1.2704
  891MOL0     H20278   2.817   4.130   6.823 -1.3084 -0.6937 -1.0083
  891MOL0     H20279   2.714   3.894   6.979  1.7272  1.1502  1.7246
  891MOL0     H20280   2.615   3.954   6.858  0.3526  2.5575 -2.4832
  891MOL0     H20281   2.632   4.190   6.985  2.6150  0.5621  2.8155
  891MOL0     H20282   2.727   4.109   7.094  0.3067  0.5488 -0.7468
  891MOL0     H20283   2.314   4.053   7.198 -0.4689  3.9798 -0.9784
  891MOL0     H20284   3.036   3.796   6.764  0.3912 -1.5059  1.4243
  891MOL0     H20285   3.184   3.732   6.592  2.6073  0.2108 -1.2737
  892MOL0     O20286   4.547  10.534   4.500  0.4899  0.2537  0.1891
  892MOL0     C20287   4.559  10.414   4.468 -0.2685 -0.6371  0.1317
  892MOL0     O20288   4.493  10.305   4.525  0.2619 -0.0373 -0.4250
  892MOL0     C20289   4.369  10.322   4.589 -0.0921 -0.2787 -0.0010
  892MOL0     C20290   4.319  10.213   4.662  0.0812 -0.5130  0.6853
  892MOL0     C20291   4.194  10.219   4.715 -0.5391  0.3411  1.4935
  892MOL0     C20292   4.112  10.326   4.690  0.1314  0.1899 -0.6114
  892MOL0     O20293   3.984  10.352   4.746 -0.4570 -0.4373 -0.2828
  892MOL0     C20294   3.944  10.268   4.858 -0.3596  0.4824  0.8122
  892MOL0     C20295   3.790  10.274   4.891  0.1455  0.2498 -0.1450
  892MOL0     C20296   3.726  10.409   4.898 -0.0545 -0.4057  0.0730
  892MOL0     C20297   3.577  10.396   4.937  0.5302 -0.1670 -0.5096
  892MOL0     C20298   3.498  10.521   4.889 -0.1277 -0.2748  0.0534
  892MOL0     C20299   3.519  10.659   4.960 -0.3512  0.2779 -0.7665
  892MOL0     C20300   3.421  10.768   4.906  0.2241 -0.0921  0.8753
  892MOL0     C20301   3.428  10.904   4.979 -0.0516  0.2707 -0.0939
  892MOL0     N20302   3.296  10.968   4.963 -0.2149  0.4183  0.3010
  892MOL0     C20303   3.186  10.950   5.047  0.3006 -0.2566 -0.7058
  892MOL0     C20304   3.091  11.031   4.987  0.1918  0.2390 -0.8368
  892MOL0     C20305   2.949  11.035   5.027 -0.0632 -0.2955 -0.4625
  892MOL0     C20306   2.893  10.890   5.017  0.0478  0.1986  0.6469
  892MOL0     C20307   2.754  10.875   5.071 -0.0548  0.5120 -0.9143
  892MOL0     C20308   2.646  10.933   4.981  0.0001 -0.4622  0.6782
  892MOL0     O20309   2.516  10.904   5.043  0.6090  0.3416 -0.0461
  892MOL0     C20310   2.409  10.972   4.991  0.4546 -0.3536  0.1735
  892MOL0     C20311   2.413  11.061   4.883 -0.3960  0.0632  1.2976
  892MOL0     C20312   2.299  11.115   4.823 -0.5491 -0.6002  0.0774
  892MOL0     C20313   2.320  11.206   4.707  0.2364 -0.6501  0.2778
  892MOL0     C20314   2.177  11.080   4.879  0.4547  0.5370  0.4315
  892MOL0     C20315   2.041  11.118   4.827  0.3393  0.2823  0.4434
  892MOL0     O20316   1.932  11.068   4.891  0.0690 -0.2915 -0.7399
  892MOL0     C20317   1.808  11.097   4.844 -0.1616 -0.2062  0.0371
  892MOL0     C20318   1.765  11.213   4.774 -0.7421  0.1716 -0.2905
  892MOL0     C20319   1.631  11.249   4.769  0.5468  0.2910 -1.0715
  892MOL0     C20320   1.530  11.170   4.815 -0.5747 -0.4673 -0.6953
  892MOL0     O20321   1.406  11.217   4.804 -0.1739 -0.1587 -0.5752
  892MOL0     C20322   1.297  11.138   4.855  0.5464  0.5479 -0.2317
  892MOL0     C20323   1.185  11.239   4.893 -0.1153 -0.1152 -0.4633
  892MOL0     C20324   1.062  11.173   4.968 -0.3798  0.4108  0.3552
  892MOL0     C20325   1.030  11.025   4.908 -0.2305 -0.0579 -0.1506
  892MOL0     C20326   0.883  10.966   4.934 -0.4638 -0.3773 -0.5085
  892MOL0     C20327   0.773  11.071   4.898 -0.0213  0.7413 -0.5663
  892MOL0     C20328   0.644  11.000   4.881 -0.3468  0.2481 -0.3106
  892MOL0     C20329   0.545  11.095   4.812 -0.0975  0.0381 -0.1463
  892MOL0    Cl20330   0.471  11.215   4.922 -0.0608 -0.0523 -0.2455
  892MOL0     C20331   1.570  11.056   4.891 -0.3043  0.3078 -1.1306
  892MOL0     C20332   1.705  11.028   4.903 -0.3789  0.2197  0.2534
  892MOL0     O20333   2.032  11.176   4.715 -0.2929  0.2814 -0.2125
  892MOL0     C20334   2.171  10.988   4.982 -0.6856  0.2564 -0.3733
  892MOL0     C20335   2.289  10.931   5.034 -0.7478  0.1902 -0.3745
  892MOL0     N20336   3.146  11.096   4.883  0.7793 -0.5406 -0.2545
  892MOL0     N20337   3.266  11.056   4.856  0.0209 -0.4229  0.1893
  892MOL0     C20338   4.155  10.434   4.614  0.6729 -0.0903 -0.0228
  892MOL0     C20339   4.278  10.427   4.558 -0.3782 -0.8547 -0.5672
  892MOL0     C20340   4.670  10.390   4.369 -0.4166  0.0250 -0.3075
  892MOL0     C20341   4.750  10.494   4.322 -0.1112 -0.6490  0.1044
  892MOL0     C20342   4.861  10.462   4.238 -0.0812 -0.1026 -0.7351
  892MOL0     C20343   4.883  10.331   4.183  0.6115  0.5546 -0.6191
  892MOL0     O20344   4.987  10.289   4.101  0.3607 -0.4441  0.0716
  892MOL0     C20345   5.060  10.388   4.023  0.7621  0.3949 -0.0078
  892MOL0     C20346   5.175  10.450   4.104  0.2491 -0.3421  0.3499
  892MOL0     C20347   5.269  10.347   4.174  0.4929 -0.3288  0.0710
  892MOL0     C20348   5.400  10.404   4.237  0.4709 -0.1685 -0.1159
  892MOL0     C20349   5.470  10.488   4.144 -0.9954  1.0563  0.2374
  892MOL0     C20350   5.529  10.556   4.071 -0.3194  0.0264  0.3908
  892MOL0     C20351   4.805  10.223   4.239  0.2433  0.8054 -0.1329
  892MOL0     C20352   4.698  10.256   4.327  0.0164  0.2066 -0.8336
  892MOL0     H20353   4.384  10.126   4.666  1.8142  0.7485  1.0756
  892MOL0     H20354   4.152  10.135   4.770 -1.5954 -0.2177 -0.0923
  892MOL0     H20355   3.957  10.161   4.844 -2.7053  0.4575 -2.2353
  892MOL0     H20356   3.994  10.303   4.949  0.7030 -0.9675  0.8088
  892MOL0     H20357   3.735  10.216   4.817 -3.2510  2.4701  0.4067
  892MOL0     H20358   3.787  10.228   4.991 -2.4333  0.8226  0.1133
  892MOL0     H20359   3.785  10.465   4.972  1.1928 -1.6068  0.0155
  892MOL0     H20360   3.741  10.458   4.801  1.7571 -3.2662 -1.2064
  892MOL0     H20361   3.529  10.315   4.882 -1.2198  2.0622 -2.4286
  892MOL0     H20362   3.570  10.368   5.043  1.5091 -2.1172 -0.8997
  892MOL0     H20363   3.520  10.539   4.783  1.4329 -1.1918  0.1836
  892MOL0     H20364   3.391  10.499   4.883 -0.0532 -0.2195 -2.2171
  892MOL0     H20365   3.500  10.646   5.067  0.7159 -1.1703 -0.7227
  892MOL0     H20366   3.622  10.693   4.947  0.1351 -1.0989 -0.7119
  892MOL0     H20367   3.458  10.792   4.805  2.0728  1.0252  1.7540
  892MOL0     H20368   3.327  10.717   4.886  2.7652 -4.0125 -3.1547
  892MOL0     H20369   3.517  10.958   4.944  0.1813 -1.3094 -2.0806
  892MOL0     H20370   3.447  10.869   5.081  0.4540 -2.9919 -1.2100
  892MOL0     H20371   3.170  10.885   5.133  1.1179  0.5866  0.1063
  892MOL0     H20372   2.933  11.072   5.129  1.0193 -3.4532  0.9630
  892MOL0     H20373   2.896  11.091   4.950 -1.0510 -0.8054 -0.1642
  892MOL0     H20374   2.943  10.813   5.077 -1.3608  0.4929  2.2862
  892MOL0     H20375   2.900  10.858   4.913  1.5844  0.7623  0.5570
  892MOL0     H20376   2.748  10.913   5.173 -0.4604 -0.5772 -0.5185
  892MOL0     H20377   2.741  10.767   5.074 -0.3831  0.5648  1.6022
  892MOL0     H20378   2.649  10.884   4.883  1.9480  1.3606 -0.2449
  892MOL0     H20379   2.675  11.037   4.967  2.8503 -0.7886  3.0490
  892MOL0     H20380   2.504  11.088   4.829  0.2806 -1.3546  1.6878
  892MOL0     H20381   2.420  11.228   4.670 -0.5391 -1.2759 -2.3881
  892MOL0     H20382   2.251  11.170   4.631 -3.3358 -2.5012  3.9968
  892MOL0     H20383   2.284  11.302   4.746  0.5531 -0.4398  0.0525
  892MOL0     H20384   1.832  11.288   4.733 -0.7446  1.2910  1.6377
  892MOL0     H20385   1.599  11.343   4.726 -0.9113  0.4874  0.3627
  892MOL0     H20386   1.256  11.071   4.779 -1.3516  2.0276 -0.5900
  892MOL0     H20387   1.315  11.077   4.944 -1.6674 -0.1503 -0.1925
  892MOL0     H20388   1.228  11.320   4.952 -1.8844  0.3542  0.2259
  892MOL0     H20389   1.146  11.288   4.803 -0.7130  2.5224  1.1256
  892MOL0     H20390   0.978  11.240   4.949 -0.5845 -0.0632 -0.4474
  892MOL0     H20391   1.080  11.166   5.076  1.4097  1.6191  0.1742
  892MOL0     H20392   1.051  11.023   4.801  0.5007 -0.7408 -0.0028
  892MOL0     H20393   1.099  10.955   4.956  0.3750  1.1650  0.8425
  892MOL0     H20394   0.877  10.929   5.037  3.0083  1.2635  0.4401
  892MOL0     H20395   0.878  10.883   4.863 -1.3274 -0.1645 -0.7025
  892MOL0     H20396   0.776  11.137   4.985  1.8743  2.8641 -2.0764
  892MOL0     H20397   0.798  11.128   4.808  1.1928 -1.6402 -1.8448
  892MOL0     H20398   0.597  10.979   4.978  0.0975 -0.6317 -0.2770
  892MOL0     H20399   0.675  10.906   4.834  5.1882  0.6027  1.8664
  892MOL0     H20400   0.461  11.040   4.768 -0.1283 -0.4316  0.4896
  892MOL0     H20401   0.584  11.146   4.723 -3.0338  0.8090 -1.1413
  892MOL0     H20402   1.495  10.995   4.940 -0.3758 -0.9124 -2.6852
  892MOL0     H20403   1.734  10.942   4.963 -3.2235 -1.0358  0.0136
  892MOL0     H20404   2.080  10.935   5.012 -1.2553  1.3553 -0.1242
  892MOL0     H20405   2.290  10.861   5.117  0.2533 -1.5561 -1.7802
  892MOL0     H20406   4.093  10.517   4.579  1.2396  0.4678  0.2684
  892MOL0     H20407   4.304  10.511   4.494  0.2350 -0.8864 -0.3658
  892MOL0     H20408   4.753  10.593   4.364  1.3622 -1.1635  1.2999
  892MOL0     H20409   4.934  10.540   4.220 -1.2888  0.7861 -1.9726
  892MOL0     H20410   5.104  10.322   3.949 -2.8478 -3.2012  0.6769
  892MOL0     H20411   4.997  10.463   3.974  0.6077  1.2768  1.4729
  892MOL0     H20412   5.138  10.524   4.176 -0.3487 -1.5336  1.2949
  892MOL0     H20413   5.235  10.504   4.030  0.2059 -0.9887 -0.1704
  892MOL0     H20414   5.297  10.261   4.113  1.6715 -0.9294  1.3851
  892MOL0     H20415   5.207  10.310   4.257 -0.8036 -0.8078 -1.0715
  892MOL0     H20416   5.465  10.328   4.282  0.0093  1.2566  3.3090
  892MOL0     H20417   5.369  10.460   4.326  0.5779 -1.5635  0.8377
  892MOL0     H20418   5.589  10.619   4.009 -1.6217  0.2420 -0.6716
  892MOL0     H20419   4.830  10.120   4.214  0.4540  0.3034  1.9863
  892MOL0     H20420   4.642  10.172   4.366 -0.9581  0.3994 -1.7773
  893MOL0     O20421   8.131   5.635   9.132 -0.2172 -0.5667  0.0365
  893MOL0     C20422   8.192   5.586   9.039  0.0558  1.0890 -0.1634
  893MOL0     O20423   8.133   5.520   8.934 -0.2122 -0.0398  0.4955
  893MOL0     C20424   7.997   5.518   8.903 -0.3300 -0.1154 -0.6450
  893MOL0     C20425   7.895   5.531   8.999 -0.1038  0.5232 -0.1510
  893MOL0     C20426   7.762   5.517   8.968  0.7537 -0.8882 -0.4954
  893MOL0     C20427   7.722   5.499   8.839 -1.0127  0.2132 -0.1137
  893MOL0     O20428   7.581   5.492   8.813 -0.1605 -0.5149 -0.5552
  893MOL0     C20429   7.522   5.458   8.687 -0.1252 -0.1560  0.3663
  893MOL0     C20430   7.373   5.405   8.698 -0.4051 -0.9958  0.2015
  893MOL0     C20431   7.284   5.520   8.733 -0.3898  0.2750  0.0159
  893MOL0     C20432   7.228   5.500   8.882  0.0933  0.0399 -0.2367
  893MOL0     C20433   7.120   5.609   8.901 -0.1234 -0.0661 -0.5439
  893MOL0     C20434   7.050   5.615   9.038 -0.1182 -0.5387  0.0419
  893MOL0     C20435   6.956   5.736   9.037 -0.4111 -0.1636 -0.0432
  893MOL0     C20436   6.908   5.784   9.172 -0.0857  0.2996 -0.3591
  893MOL0     N20437   6.811   5.692   9.236 -0.4803  0.1421  0.3833
  893MOL0     C20438   6.836   5.584   9.317  0.3910  0.1062  0.5738
  893MOL0     C20439   6.714   5.541   9.357 -0.7672  0.2641  1.1101
  893MOL0     C20440   6.681   5.436   9.457  0.1319  0.2193 -0.2957
  893MOL0     C20441   6.622   5.304   9.400  1.0331 -0.0559  0.0503
  893MOL0     C20442   6.706   5.220   9.306  0.1211 -0.5265 -0.0306
  893MOL0     C20443   6.625   5.099   9.266  1.2090 -0.2606  1.2910
  893MOL0     O20444   6.520   5.148   9.173 -0.3947  0.0421  1.0839
  893MOL0     C20445   6.403   5.084   9.155 -0.3596 -0.2208  1.3226
  893MOL0     C20446   6.392   4.943   9.162  0.5345 -0.0107  0.9959
  893MOL0     C20447   6.280   4.886   9.110  0.9883 -0.0398  0.1267
  893MOL0     C20448   6.260   4.739   9.136 -0.4261  0.8908  1.5726
  893MOL0     C20449   6.180   4.962   9.043 -0.1438  0.8011 -0.4596
  893MOL0     C20450   6.050   4.906   9.006 -0.4865  0.4970  0.6918
  893MOL0     O20451   6.044   4.778   8.979 -0.3791  0.4124  0.3121
  893MOL0     C20452   5.946   4.713   8.910 -0.0236  0.2178  0.1282
  893MOL0     C20453   5.884   4.769   8.796  0.1156  0.5217 -1.1445
  893MOL0     C20454   5.790   4.689   8.715 -0.6125  0.4230  0.4751
  893MOL0     C20455   5.766   4.553   8.750  0.3140  0.9300 -0.9392
  893MOL0     O20456   5.658   4.486   8.685 -0.7757 -0.7283 -0.0573
  893MOL0     C20457   5.606   4.378   8.759 -0.2224  0.2645 -0.1079
  893MOL0     C20458   5.493   4.301   8.684 -0.4181 -0.8742 -0.1005
  893MOL0     C20459   5.363   4.355   8.739 -0.1039  1.0887 -0.1996
  893MOL0     C20460   5.239   4.328   8.649  0.2715 -0.9603  0.6684
  893MOL0     C20461   5.100   4.345   8.728 -0.1697 -0.7324  0.0579
  893MOL0     C20462   4.976   4.329   8.631 -0.0512 -0.4729  0.3010
  893MOL0     C20463   4.847   4.328   8.710  0.3662  0.1695 -0.0231
  893MOL0     C20464   4.723   4.351   8.631 -0.9459  0.1023 -0.2561
  893MOL0    Cl20465   4.565   4.332   8.725 -0.3542  0.3837  0.2307
  893MOL0     C20466   5.839   4.498   8.861 -0.0714  0.1148 -0.2346
  893MOL0     C20467   5.933   4.578   8.935  0.1957 -0.1068  0.0608
  893MOL0     O20468   5.953   4.980   9.018 -0.8474  0.2743 -0.1769
  893MOL0     C20469   6.191   5.101   9.055  0.5745  0.4368 -0.4431
  893MOL0     C20470   6.302   5.163   9.102 -0.7025  0.3358 -0.3530
  893MOL0     N20471   6.615   5.622   9.305  0.0739 -0.2662  0.3722
  893MOL0     N20472   6.679   5.710   9.238 -0.2269 -0.0175  0.8400
  893MOL0     C20473   7.818   5.496   8.735  0.1322 -0.0291  0.2712
  893MOL0     C20474   7.951   5.503   8.771 -0.0710 -0.1529 -0.5646
  893MOL0     C20475   8.338   5.568   9.043  0.6629 -0.8081  0.2060
  893MOL0     C20476   8.417   5.630   9.140  0.1643 -0.3478  0.2813
  893MOL0     C20477   8.552   5.606   9.138 -0.4263 -0.4205 -0.2027
  893MOL0     C20478   8.616   5.522   9.057 -0.1021  0.9775  0.8701
  893MOL0     O20479   8.745   5.489   9.083 -0.2269 -0.2199  0.8381
  893MOL0     C20480   8.827   5.431   8.981 -0.6636  0.1829 -0.4158
  893MOL0     C20481   8.979   5.436   9.022 -0.0470  0.4884 -0.7077
  893MOL0     C20482   9.010   5.333   9.135 -0.4048  0.0910 -0.4494
  893MOL0     C20483   9.152   5.321   9.173  0.3293 -0.4511  0.4296
  893MOL0     C20484   9.178   5.222   9.275 -0.4046  1.2210 -0.6903
  893MOL0     C20485   9.210   5.143   9.366  0.7787  0.2592 -0.4253
  893MOL0     C20486   8.539   5.464   8.957  0.3454  0.3525 -0.5684
  893MOL0     C20487   8.400   5.487   8.948 -0.4326  0.0252  0.3243
  893MOL0     H20488   7.919   5.552   9.102 -0.8032  0.3382  0.0523
  893MOL0     H20489   7.679   5.524   9.037  0.6274  3.3616 -0.8549
  893MOL0     H20490   7.527   5.552   8.631 -1.3490  0.0534  0.5810
  893MOL0     H20491   7.581   5.385   8.632  0.6612  0.9054 -0.2443
  893MOL0     H20492   7.342   5.381   8.596 -1.9586  0.7369  0.2092
  893MOL0     H20493   7.369   5.314   8.759 -0.0426 -0.3570  1.2062
  893MOL0     H20494   7.341   5.614   8.735  1.5999 -0.8301  2.6579
  893MOL0     H20495   7.199   5.520   8.665  0.0531  1.1718 -0.5609
  893MOL0     H20496   7.183   5.401   8.893 -1.1690  0.5671 -0.4585
  893MOL0     H20497   7.313   5.506   8.950 -1.7540 -0.7834  2.3222
  893MOL0     H20498   7.170   5.704   8.884  0.3878 -0.6027 -2.3179
  893MOL0     H20499   7.046   5.608   8.819 -1.4774  1.2470  0.6129
  893MOL0     H20500   6.989   5.526   9.059 -1.9043  0.8380  0.9866
  893MOL0     H20501   7.121   5.621   9.122  1.1042 -0.3830 -0.9779
  893MOL0     H20502   6.999   5.821   8.984 -1.2053 -1.3173 -2.7110
  893MOL0     H20503   6.864   5.715   8.981 -1.4981  0.8916  1.2685
  893MOL0     H20504   6.869   5.885   9.166 -1.0856  0.0540  1.3942
  893MOL0     H20505   6.989   5.801   9.244  0.6102  1.7324 -1.4183
  893MOL0     H20506   6.933   5.543   9.345  0.4348 -0.8347 -0.8440
  893MOL0     H20507   6.769   5.407   9.515  0.3545  1.9968  0.3020
  893MOL0     H20508   6.615   5.476   9.534 -1.2160 -2.4325  0.0344
  893MOL0     H20509   6.523   5.318   9.357  2.0861  0.9117 -2.2348
  893MOL0     H20510   6.606   5.241   9.488 -0.8958 -1.2008 -1.0575
  893MOL0     H20511   6.790   5.167   9.354  0.5410 -0.5622 -0.7905
  893MOL0     H20512   6.744   5.282   9.225  1.5262 -1.4261 -0.1026
  893MOL0     H20513   6.577   5.061   9.357 -3.0897  4.1591  1.2858
  893MOL0     H20514   6.687   5.026   9.213  0.6990  0.7945 -0.8709
  893MOL0     H20515   6.476   4.889   9.203  0.8573  1.3748  2.2435
  893MOL0     H20516   6.281   4.680   9.047  2.8640 -1.1085  3.4729
  893MOL0     H20517   6.328   4.715   9.218  0.1252  2.0257  1.4664
  893MOL0     H20518   6.165   4.719   9.187 -0.5937  0.4792  1.1020
  893MOL0     H20519   5.913   4.867   8.760 -1.5589  1.9377  1.0768
  893MOL0     H20520   5.750   4.738   8.627  3.1203  3.6326  0.2849
  893MOL0     H20521   5.678   4.298   8.782  0.2907  0.3758 -1.3004
  893MOL0     H20522   5.563   4.415   8.853 -1.4033  1.9507 -1.2502
  893MOL0     H20523   5.507   4.303   8.576  0.0387 -0.0239 -0.0381
  893MOL0     H20524   5.503   4.195   8.709  1.4608 -0.8940 -0.7956
  893MOL0     H20525   5.374   4.461   8.764 -0.3297  1.2631 -0.8094
  893MOL0     H20526   5.346   4.293   8.827  2.8449 -1.6177 -1.3183
  893MOL0     H20527   5.237   4.399   8.565 -0.9036 -0.0885  1.4010
  893MOL0     H20528   5.248   4.228   8.606  2.3902 -0.1486 -0.9565
  893MOL0     H20529   5.089   4.444   8.774  3.3047  0.1971 -0.7992
  893MOL0     H20530   5.096   4.264   8.801  1.4892 -1.4417 -0.5916
  893MOL0     H20531   4.980   4.411   8.559 -3.7265 -0.0450  0.3905
  893MOL0     H20532   4.979   4.243   8.563  3.8593  0.7950 -1.3984
  893MOL0     H20533   4.853   4.411   8.781 -1.9026 -0.2503  0.7260
  893MOL0     H20534   4.836   4.232   8.761 -0.0230 -0.0933 -0.6004
  893MOL0     H20535   4.727   4.283   8.546  3.1363 -0.1094 -0.0886
  893MOL0     H20536   4.721   4.455   8.597  2.5101  0.4946  0.3619
  893MOL0     H20537   5.837   4.396   8.897 -2.2579  0.3082  0.3351
  893MOL0     H20538   5.996   4.537   9.013  1.2805 -2.0081 -1.7332
  893MOL0     H20539   6.112   5.163   9.013 -0.0391  1.7261  2.4126
  893MOL0     H20540   6.313   5.271   9.104  0.9568  0.2218  2.5472
  893MOL0     H20541   7.783   5.491   8.633  1.0913 -1.3229 -0.0111
  893MOL0     H20542   8.028   5.501   8.694 -1.6014 -0.1152 -2.1603
  893MOL0     H20543   8.369   5.697   9.210 -0.3306 -0.1485 -0.2427
  893MOL0     H20544   8.621   5.651   9.209  1.9680 -1.8765 -1.4647
  893MOL0     H20545   8.793   5.328   8.964  1.3837 -0.6904  0.4673
  893MOL0     H20546   8.830   5.493   8.891 -1.1288 -0.0864 -0.6201
  893MOL0     H20547   9.012   5.534   9.056 -1.2163  0.1732  1.4992
  893MOL0     H20548   9.034   5.408   8.931  2.2967 -0.1640  0.8227
  893MOL0     H20549   8.964   5.242   9.094 -0.5427 -0.1637  0.2495
  893MOL0     H20550   8.953   5.358   9.226 -0.6070 -0.5168 -0.4018
  893MOL0     H20551   9.191   5.416   9.211 -2.0595  2.4680 -3.6596
  893MOL0     H20552   9.204   5.288   9.082  0.4471  1.2523 -0.1545
  893MOL0     H20553   9.249   5.067   9.430  4.1134  0.4605 -2.0015
  893MOL0     H20554   8.583   5.401   8.881  1.3434  1.5462 -1.0127
  893MOL0     H20555   8.343   5.452   8.862 -1.4083  1.9738  0.1298
  894MOL0     O20556   0.913   1.679   1.106  0.1662 -0.2768  0.7214
  894MOL0     C20557   0.942   1.727   0.998 -0.0179 -0.4668 -0.0650
  894MOL0     O20558   0.859   1.800   0.913 -0.0596 -0.6465 -0.0449
  894MOL0     C20559   0.727   1.838   0.946 -0.5529 -0.9257  0.4789
  894MOL0     C20560   0.675   1.967   0.922  0.3632  0.3882  0.6911
  894MOL0     C20561   0.545   2.005   0.941  0.2376 -0.0974  0.4494
  894MOL0     C20562   0.459   1.912   0.992  0.6615  0.2172 -1.1045
  894MOL0     O20563   0.333   1.967   1.018  0.4400  0.2377 -0.1586
  894MOL0     C20564   0.224   1.889   1.059 -0.1405  0.8771  0.4817
  894MOL0     C20565   0.098   1.957   1.100  0.3046 -0.7160 -0.7543
  894MOL0     C20566  -0.001   1.854   1.155  0.0755  0.0696  0.1464
  894MOL0     C20567  -0.143   1.899   1.168  0.4200 -0.0761 -0.1613
  894MOL0     C20568  -0.215   1.941   1.040 -0.2550  0.2842  0.0741
  894MOL0     C20569  -0.362   1.962   1.080  0.1984 -0.0261 -0.0962
  894MOL0     C20570  -0.446   1.977   0.955  1.0087 -0.1312  1.0467
  894MOL0     C20571  -0.589   1.974   0.986  0.6912  0.2448  0.6524
  894MOL0     N20572  -0.639   2.079   1.071  0.2193  0.0320 -0.5163
  894MOL0     C20573  -0.617   2.214   1.050 -0.1783  0.2530  0.3456
  894MOL0     C20574  -0.681   2.276   1.155  0.0838 -0.6028 -0.0760
  894MOL0     C20575  -0.702   2.420   1.185  0.6371  0.4994  0.0625
  894MOL0     C20576  -0.578   2.501   1.155  0.1321 -0.3998  0.1999
  894MOL0     C20577  -0.608   2.650   1.175  0.3571  0.5852 -0.4437
  894MOL0     C20578  -0.652   2.702   1.308 -0.4057 -1.1580 -0.5730
  894MOL0     O20579  -0.631   2.833   1.334 -0.4309  0.9535 -0.2636
  894MOL0     C20580  -0.670   2.889   1.452 -0.4837 -0.4844  0.0041
  894MOL0     C20581  -0.732   2.826   1.562  1.0113 -0.4869  0.2432
  894MOL0     C20582  -0.766   2.884   1.686 -0.5601 -0.2067 -0.4113
  894MOL0     C20583  -0.825   2.810   1.799  0.7619 -0.4678 -0.3568
  894MOL0     C20584  -0.733   3.028   1.694 -0.4213 -0.1894  0.8317
  894MOL0     C20585  -0.757   3.113   1.817  0.3643  0.0688  0.6228
  894MOL0     O20586  -0.718   3.245   1.813 -0.1399 -0.0297 -0.1793
  894MOL0     C20587  -0.753   3.320   1.916  0.0778  0.7562 -0.3585
  894MOL0     C20588  -0.696   3.303   2.042 -0.2527 -0.1429  0.4451
  894MOL0     C20589  -0.744   3.392   2.145 -0.2915  0.6072 -0.7749
  894MOL0     C20590  -0.848   3.481   2.127  0.4699 -0.3356 -0.5935
  894MOL0     O20591  -0.886   3.557   2.234 -0.2248 -0.6402  0.0537
  894MOL0     C20592  -1.019   3.609   2.242  0.4215  0.8083  0.5183
  894MOL0     C20593  -1.029   3.678   2.369  0.0214 -0.5103 -0.5516
  894MOL0     C20594  -1.025   3.585   2.487 -1.1458  0.6118 -0.0887
  894MOL0     C20595  -0.980   3.654   2.616  0.3599  0.5124  0.0924
  894MOL0     C20596  -1.079   3.632   2.726  0.0154  0.8280 -0.4058
  894MOL0     C20597  -1.210   3.711   2.718  0.4621 -0.1781 -0.7618
  894MOL0     C20598  -1.322   3.649   2.803 -0.3275  0.2301 -0.4137
  894MOL0     C20599  -1.392   3.535   2.732 -0.2226 -0.2771 -0.6715
  894MOL0    Cl20600  -1.544   3.489   2.818 -0.1021 -0.0998  0.3042
  894MOL0     C20601  -0.901   3.497   1.998 -0.6731  0.3301 -0.6191
  894MOL0     C20602  -0.850   3.415   1.893  0.2575  0.1004 -1.2882
  894MOL0     O20603  -0.812   3.060   1.911  0.1868 -0.9233  0.5010
  894MOL0     C20604  -0.658   3.092   1.593  0.1613  0.9504 -0.1060
  894MOL0     C20605  -0.631   3.022   1.474 -0.4563 -0.5452 -0.2069
  894MOL0     N20606  -0.731   2.177   1.238 -0.2515  0.4501 -0.6438
  894MOL0     N20607  -0.706   2.057   1.187  0.1222  0.2499 -0.4710
  894MOL0     C20608   0.496   1.774   1.000  0.1416 -0.8053 -0.0667
  894MOL0     C20609   0.627   1.741   0.980 -0.4363  0.4743  0.2146
  894MOL0     C20610   1.090   1.742   0.959 -0.4397 -0.2261  0.3966
  894MOL0     C20611   1.124   1.802   0.829 -0.0111  0.8958 -0.1257
  894MOL0     C20612   1.257   1.807   0.779 -0.1447  0.3987 -0.1727
  894MOL0     C20613   1.359   1.758   0.862  0.0234  0.0865  0.1521
  894MOL0     O20614   1.498   1.772   0.838  0.3467  0.2849  0.2396
  894MOL0     C20615   1.559   1.863   0.746 -0.3312 -0.2808  0.8673
  894MOL0     C20616   1.709   1.882   0.765  0.3997  0.1106 -0.4360
  894MOL0     C20617   1.780   1.751   0.759  1.3939  0.6758 -0.3391
  894MOL0     C20618   1.931   1.793   0.790 -0.2965  0.6617  0.2095
  894MOL0     C20619   1.975   1.759   0.922  0.7936 -0.8045 -1.6620
  894MOL0     C20620   2.014   1.743   1.036 -0.3805 -0.0334  0.2460
  894MOL0     C20621   1.324   1.717   0.990 -0.3898 -1.1615  0.3642
  894MOL0     C20622   1.193   1.714   1.042 -0.0982 -0.2737 -0.6824
  894MOL0     H20623   0.741   2.037   0.871  0.8423  2.5564  3.9253
  894MOL0     H20624   0.505   2.106   0.938 -0.9195 -0.5272 -2.5786
  894MOL0     H20625   0.202   1.806   0.991 -3.8359  1.8494  0.2844
  894MOL0     H20626   0.262   1.842   1.150 -2.7775  1.6872  2.1163
  894MOL0     H20627   0.130   2.023   1.181  2.5412 -1.3944 -1.0034
  894MOL0     H20628   0.056   2.021   1.021 -0.2176  2.4364  1.8800
  894MOL0     H20629  -0.006   1.774   1.080 -1.9080  1.2158 -1.0416
  894MOL0     H20630   0.027   1.825   1.256  0.0222  1.3136  0.5241
  894MOL0     H20631  -0.211   1.820   1.201 -2.2463  0.4991 -3.7158
  894MOL0     H20632  -0.141   1.982   1.240 -2.1334  0.9056 -1.1123
  894MOL0     H20633  -0.174   2.037   1.007  0.6356 -0.3283 -0.6261
  894MOL0     H20634  -0.204   1.871   0.957 -1.1616  1.4857 -1.1084
  894MOL0     H20635  -0.407   1.880   1.137 -0.8108 -0.4942 -1.5155
  894MOL0     H20636  -0.370   2.058   1.132  0.1036  1.2405 -2.2809
  894MOL0     H20637  -0.427   2.068   0.897  1.6424 -1.6466 -1.2537
  894MOL0     H20638  -0.427   1.894   0.887  0.2193 -0.3105  1.0410
  894MOL0     H20639  -0.609   1.876   1.031  0.6620  0.9172  2.1545
  894MOL0     H20640  -0.642   1.990   0.892 -0.3056  1.6709  1.4334
  894MOL0     H20641  -0.556   2.256   0.971 -0.2199  0.5377  0.4624
  894MOL0     H20642  -0.788   2.461   1.131 -1.2261 -2.3290  0.6565
  894MOL0     H20643  -0.733   2.434   1.289 -1.1761  1.3914 -0.5637
  894MOL0     H20644  -0.559   2.478   1.049  1.9553 -4.4502  1.2131
  894MOL0     H20645  -0.494   2.462   1.213 -0.4210 -1.3719  0.3821
  894MOL0     H20646  -0.668   2.686   1.091 -0.3334  2.6230  0.8198
  894MOL0     H20647  -0.510   2.698   1.166  1.5839 -1.3795  1.5844
  894MOL0     H20648  -0.592   2.655   1.387 -0.2997  1.8245  1.2614
  894MOL0     H20649  -0.760   2.687   1.309 -1.3691  3.9184 -2.3625
  894MOL0     H20650  -0.752   2.721   1.545  1.2069 -0.1757 -2.3588
  894MOL0     H20651  -0.916   2.860   1.833 -0.2072 -0.7890 -2.3368
  894MOL0     H20652  -0.861   2.716   1.757 -2.1729 -0.1654  1.2412
  894MOL0     H20653  -0.757   2.789   1.882 -0.5103 -0.9478  0.5820
  894MOL0     H20654  -0.607   3.243   2.059  0.6286  0.7538 -0.8497
  894MOL0     H20655  -0.704   3.383   2.245 -0.9190  1.2283 -0.4608
  894MOL0     H20656  -1.040   3.674   2.157 -3.3908 -0.9691 -0.0936
  894MOL0     H20657  -1.092   3.528   2.247  0.5911  0.4536 -1.6238
  894MOL0     H20658  -0.946   3.748   2.369 -1.7862  1.7695 -1.0599
  894MOL0     H20659  -1.119   3.739   2.378  0.1019 -0.1963 -1.7884
  894MOL0     H20660  -0.954   3.506   2.461 -0.2928  1.4954 -0.4960
  894MOL0     H20661  -1.122   3.538   2.505 -0.4424 -0.4768  1.0384
  894MOL0     H20662  -0.879   3.619   2.641  0.3122 -0.3245 -0.8327
  894MOL0     H20663  -0.979   3.763   2.603 -1.1118  0.9073  2.6841
  894MOL0     H20664  -1.024   3.660   2.816  1.0124  0.2668 -0.8165
  894MOL0     H20665  -1.106   3.527   2.741  2.3993  0.0379 -1.1614
  894MOL0     H20666  -1.195   3.811   2.760 -0.6929  0.3166 -1.4914
  894MOL0     H20667  -1.242   3.735   2.617 -0.1488  1.6133 -0.1700
  894MOL0     H20668  -1.389   3.732   2.825 -1.2189 -0.4292 -0.5915
  894MOL0     H20669  -1.284   3.617   2.900 -0.6022 -0.3492 -0.4929
  894MOL0     H20670  -1.328   3.446   2.726  0.8385  0.3590  0.7444
  894MOL0     H20671  -1.418   3.570   2.631 -1.9564  1.7479  0.3857
  894MOL0     H20672  -0.984   3.561   1.971  0.1274  2.1268  0.9282
  894MOL0     H20673  -0.900   3.421   1.797 -1.1366 -2.4921 -0.8232
  894MOL0     H20674  -0.628   3.196   1.604 -1.0053  1.1716  1.4054
  894MOL0     H20675  -0.576   3.080   1.400 -0.2631 -0.9511 -0.3833
  894MOL0     H20676   0.422   1.699   1.027  0.5071 -1.5312 -1.0349
  894MOL0     H20677   0.662   1.639   0.997 -0.5645  0.6095  1.3115
  894MOL0     H20678   1.043   1.861   0.789 -1.5222 -0.7199  0.4510
  894MOL0     H20679   1.281   1.846   0.681  0.3667 -1.7259 -0.9375
  894MOL0     H20680   1.549   1.828   0.643 -0.5662 -0.2308  0.8732
  894MOL0     H20681   1.515   1.963   0.755  0.9928  0.5923 -1.4558
  894MOL0     H20682   1.727   1.928   0.863 -0.0663 -1.1085  0.2455
  894MOL0     H20683   1.754   1.953   0.695  0.9189 -0.0299 -0.2528
  894MOL0     H20684   1.764   1.711   0.659  3.4705 -2.2489  0.3678
  894MOL0     H20685   1.734   1.672   0.819 -0.2140 -0.5186 -2.9957
  894MOL0     H20686   1.949   1.899   0.765 -1.7088  1.2065  1.3755
  894MOL0     H20687   1.991   1.737   0.717 -0.2348  0.3726  0.4799
  894MOL0     H20688   2.055   1.731   1.134  1.4943  2.3312 -0.1569
  894MOL0     H20689   1.416   1.701   1.046  0.5716  1.9654 -0.1539
  894MOL0     H20690   1.179   1.670   1.141  1.1104  1.1266  0.1561
  895MOL0     O20691   0.918   2.430  11.001  0.1636  0.7075 -0.3215
  895MOL0     C20692   0.942   2.533  11.070  0.0851  1.3413  1.1654
  895MOL0     O20693   0.850   2.631  11.112 -1.1044  0.5724 -0.3869
  895MOL0     C20694   0.720   2.594  11.100 -0.8822  0.1272  0.6900
  895MOL0     C20695   0.641   2.689  11.045  0.5322 -0.6814  0.6990
  895MOL0     C20696   0.508   2.663  11.013  0.0681  0.6941  0.6377
  895MOL0     C20697   0.460   2.533  11.050 -1.5293 -0.2573  0.0049
  895MOL0     O20698   0.335   2.505  11.019 -0.1986  0.4360 -0.1739
  895MOL0     C20699   0.303   2.365  10.995 -0.5176  0.6933  0.1867
  895MOL0     C20700   0.181   2.360  10.904 -0.7179  0.5529 -0.5965
  895MOL0     C20701   0.047   2.359  10.977 -0.2680  0.7005 -0.1272
  895MOL0     C20702  -0.072   2.342  10.888  0.9498  0.2147 -0.0284
  895MOL0     C20703  -0.207   2.382  10.961  0.5374 -0.4839 -0.8916
  895MOL0     C20704  -0.320   2.400  10.856 -0.3080  0.1517 -0.2947
  895MOL0     C20705  -0.465   2.367  10.905 -1.2393  0.0979 -0.7208
  895MOL0     C20706  -0.560   2.371  10.789  0.6347  0.3644 -0.0588
  895MOL0     N20707  -0.700   2.329  10.822 -0.6123 -0.6371 -0.2613
  895MOL0     C20708  -0.815   2.365  10.755 -0.1473  0.7151  0.6272
  895MOL0     C20709  -0.912   2.293  10.818 -0.2805 -0.5264 -1.1525
  895MOL0     C20710  -1.060   2.287  10.785 -0.0311 -0.2995 -0.2881
  895MOL0     C20711  -1.119   2.144  10.782 -0.1163 -0.7028  0.8186
  895MOL0     C20712  -1.196   2.127  10.914  0.5021 -0.7667  0.7399
  895MOL0     C20713  -1.242   1.987  10.936 -0.3205 -0.3806  0.8626
  895MOL0     O20714  -1.340   1.939  10.838 -0.0493  0.1747 -0.0357
  895MOL0     C20715  -1.471   1.987  10.841 -0.7170 -0.7586  0.1933
  895MOL0     C20716  -1.527   2.069  10.944 -0.5930 -0.7127  1.1662
  895MOL0     C20717  -1.664   2.109  10.943  0.2969 -0.4690  0.1436
  895MOL0     C20718  -1.715   2.173  11.066 -0.5447  0.4783 -0.1788
  895MOL0     C20719  -1.743   2.060  10.828 -0.5014  0.5573 -0.2775
  895MOL0     C20720  -1.894   2.078  10.817 -0.6317  0.1124  0.0548
  895MOL0     O20721  -1.955   2.064  10.695  0.1505 -0.0622  0.0477
  895MOL0     C20722  -2.092   2.044  10.692  0.2335 -0.1004 -0.6168
  895MOL0     C20723  -2.177   2.159  10.710 -0.0340 -0.4864  0.1631
  895MOL0     C20724  -2.317   2.142  10.723  0.5277  0.1250 -0.6715
  895MOL0     C20725  -2.378   2.023  10.694  0.3832 -0.3281 -0.2568
  895MOL0     O20726  -2.522   2.012  10.699  0.0772  0.0447  0.5793
  895MOL0     C20727  -2.606   2.132  10.693  0.2758 -0.1739 -0.1861
  895MOL0     C20728  -2.751   2.082  10.703  0.4052  0.1096  0.7030
  895MOL0     C20729  -2.852   2.198  10.690 -0.1203  0.3361  0.0928
  895MOL0     C20730  -2.999   2.138  10.688  0.0638  0.0959  0.2121
  895MOL0     C20731  -3.114   2.239  10.694 -0.5703  0.4424 -0.8392
  895MOL0     C20732  -3.141   2.290  10.550 -0.5199  0.7217  0.7823
  895MOL0     C20733  -3.205   2.185  10.458  0.1442  1.0409  0.6570
  895MOL0     C20734  -3.239   2.248  10.318  0.1030  0.0606 -0.7033
  895MOL0    Cl20735  -3.281   2.116  10.205  0.2114 -0.2439 -0.0684
  895MOL0     C20736  -2.294   1.907  10.674 -0.0978 -0.0445  0.1106
  895MOL0     C20737  -2.157   1.919  10.665 -0.0360  0.0683 -0.5502
  895MOL0     O20738  -1.957   2.096  10.922  0.2426 -0.4473  0.6115
  895MOL0     C20739  -1.680   1.995  10.715 -0.8357  0.3389  0.0445
  895MOL0     C20740  -1.549   1.950  10.733  0.0875 -0.4511 -0.3022
  895MOL0     N20741  -0.859   2.216  10.928 -0.4952  0.6771  0.7733
  895MOL0     N20742  -0.730   2.239  10.922  0.2330  0.3011  0.0569
  895MOL0     C20743   0.546   2.439  11.114  0.2882  1.0731 -0.5206
  895MOL0     C20744   0.680   2.468  11.139  0.8312 -0.0750  0.2218
  895MOL0     C20745   1.093   2.563  11.083  0.4894  0.4718 -0.7130
  895MOL0     C20746   1.133   2.673  11.155  0.0989  0.2054  0.7364
  895MOL0     C20747   1.264   2.706  11.166  0.1432 -0.6663  0.8769
  895MOL0     C20748   1.362   2.627  11.098 -0.2216  0.8780  0.4368
  895MOL0     O20749   1.489   2.667  11.108 -0.0261  0.2890 -0.3769
  895MOL0     C20750   1.591   2.599  11.036  1.3418  0.0929  0.1994
  895MOL0     C20751   1.644   2.474  11.105  0.2394  0.0686  0.5522
  895MOL0     C20752   1.739   2.405  11.010  0.1837 -1.0880  0.3096
  895MOL0     C20753   1.834   2.321  11.081  0.4482  1.1345  0.2579
  895MOL0     C20754   1.767   2.223  11.175  0.3235  0.2440 -0.8831
  895MOL0     C20755   1.699   2.152  11.251 -0.1594  0.2329  0.2070
  895MOL0     C20756   1.320   2.499  11.036 -0.0829 -0.4648  0.5159
  895MOL0     C20757   1.186   2.468  11.039 -0.2983  0.2159 -0.0463
  895MOL0     H20758   0.694   2.779  11.016  1.1027 -1.5703 -1.1778
  895MOL0     H20759   0.449   2.741  10.967  1.2368  1.9104  1.1416
  895MOL0     H20760   0.385   2.308  10.951 -0.2272  0.6921  0.7255
  895MOL0     H20761   0.285   2.321  11.093  0.2327  1.6469  0.7604
  895MOL0     H20762   0.186   2.449  10.840 -0.2394  0.1295 -1.1563
  895MOL0     H20763   0.187   2.272  10.839 -2.1054 -0.0140  0.0123
  895MOL0     H20764   0.044   2.277  11.050  0.3022  2.1700  1.6362
  895MOL0     H20765   0.040   2.453  11.033  1.7412 -0.2526  1.9095
  895MOL0     H20766  -0.066   2.404  10.798 -2.2682  0.6299 -0.0529
  895MOL0     H20767  -0.088   2.238  10.856 -0.4987  0.0490  1.1713
  895MOL0     H20768  -0.225   2.307  11.038  0.1653 -0.7509 -1.2427
  895MOL0     H20769  -0.189   2.475  11.016 -0.6064 -1.2039  0.7836
  895MOL0     H20770  -0.312   2.506  10.830 -1.6540  0.5547  0.8270
  895MOL0     H20771  -0.304   2.345  10.763 -1.4500  1.4904 -1.3297
  895MOL0     H20772  -0.459   2.267  10.949 -0.5696  0.3071 -0.3362
  895MOL0     H20773  -0.494   2.443  10.979 -1.1679  1.3481 -1.9439
  895MOL0     H20774  -0.519   2.306  10.711  1.9593  0.4278  0.5598
  895MOL0     H20775  -0.546   2.473  10.752  0.7429  0.3350 -0.0988
  895MOL0     H20776  -0.827   2.427  10.666 -3.2799  0.5875  0.8735
  895MOL0     H20777  -1.120   2.351  10.849 -2.0066 -1.9074 -0.4252
  895MOL0     H20778  -1.066   2.332  10.685 -1.5697 -0.3056 -0.2197
  895MOL0     H20779  -1.044   2.064  10.772 -0.2213 -0.4893 -2.5948
  895MOL0     H20780  -1.183   2.138  10.694  0.8943  0.9304 -0.0730
  895MOL0     H20781  -1.274   2.203  10.926  1.7205  0.2833  2.4648
  895MOL0     H20782  -1.129   2.140  11.000  0.6969 -0.9806  0.6220
  895MOL0     H20783  -1.275   1.976  11.039 -1.1079 -3.0154  0.4034
  895MOL0     H20784  -1.159   1.919  10.915  0.5750  1.6274 -3.1968
  895MOL0     H20785  -1.475   2.094  11.037  1.4209  2.9092 -0.7330
  895MOL0     H20786  -1.796   2.109  11.102  1.3398 -1.0111  1.5994
  895MOL0     H20787  -1.641   2.182  11.146 -3.4651  0.7074  2.6970
  895MOL0     H20788  -1.758   2.271  11.043 -1.6844  0.4282  1.5699
  895MOL0     H20789  -2.116   2.245  10.736  0.9058 -1.5855  1.7627
  895MOL0     H20790  -2.380   2.223  10.757  2.7380  1.0083  1.7273
  895MOL0     H20791  -2.589   2.206  10.772  1.2274  0.4351 -0.9347
  895MOL0     H20792  -2.593   2.185  10.598  1.7825 -0.9345 -0.4208
  895MOL0     H20793  -2.760   2.004  10.626  1.5663 -0.4464  1.1088
  895MOL0     H20794  -2.753   2.034  10.801 -4.3472 -1.7274 -0.0672
  895MOL0     H20795  -2.835   2.249  10.595 -0.7394 -1.1490 -0.8445
  895MOL0     H20796  -2.857   2.261  10.779 -0.6847 -2.2426  2.0090
  895MOL0     H20797  -3.020   2.067  10.607  2.4388 -0.7934  0.2877
  895MOL0     H20798  -3.013   2.088  10.785 -0.2944 -0.9719 -0.3661
  895MOL0     H20799  -3.098   2.321  10.764  1.8204 -0.8428  0.2301
  895MOL0     H20800  -3.203   2.194  10.739  0.5789  0.4605  1.6017
  895MOL0     H20801  -3.215   2.371  10.550 -2.7093 -1.1741 -0.5498
  895MOL0     H20802  -3.045   2.329  10.517 -0.2523 -0.2609  0.3861
  895MOL0     H20803  -3.293   2.131  10.493 -0.4565 -1.3887 -3.8085
  895MOL0     H20804  -3.138   2.101  10.438 -0.6386  0.5138  0.1854
  895MOL0     H20805  -3.157   2.304  10.273 -1.0891  2.6130  0.1243
  895MOL0     H20806  -3.320   2.319  10.334 -0.2510  0.1837 -2.8246
  895MOL0     H20807  -2.349   1.814  10.664  0.4997 -0.4230  0.3471
  895MOL0     H20808  -2.087   1.837  10.657  2.5804  1.5407  3.7215
  895MOL0     H20809  -1.726   1.955  10.625  1.0130  0.6072 -1.0635
  895MOL0     H20810  -1.508   1.891  10.651 -0.2917  3.1158 -3.3485
  895MOL0     H20811   0.498   2.354  11.161 -2.1221  2.3502 -0.5026
  895MOL0     H20812   0.747   2.389  11.172  0.5683 -0.0181  0.9067
  895MOL0     H20813   1.059   2.739  11.198  0.5228  0.9887  0.2800
  895MOL0     H20814   1.300   2.785  11.231  2.8238 -0.7913 -0.3278
  895MOL0     H20815   1.556   2.575  10.935 -0.7945 -0.0963  0.9426
  895MOL0     H20816   1.676   2.668  11.024  0.8702  0.9246  1.3910
  895MOL0     H20817   1.559   2.408  11.126 -0.0487  0.8219  1.8234
  895MOL0     H20818   1.685   2.504  11.202  2.5472 -0.4661 -0.2044
  895MOL0     H20819   1.800   2.476  10.954 -1.1197 -0.4422 -0.3313
  895MOL0     H20820   1.687   2.344  10.936 -0.0305 -1.6169  0.8786
  895MOL0     H20821   1.912   2.373  11.137  2.5289 -0.7381 -0.7299
  895MOL0     H20822   1.892   2.257  11.013  0.4169 -0.3716  1.5904
  895MOL0     H20823   1.628   2.104  11.315  1.5989 -2.1334  0.5198
  895MOL0     H20824   1.387   2.427  10.990 -2.4660 -1.5393 -1.5606
  895MOL0     H20825   1.158   2.375  10.990  1.2385  0.6481 -1.8513
  896MOL0     O20826   6.004   7.089   2.458 -0.4965  0.0291 -0.2273
  896MOL0     C20827   6.046   7.010   2.548  0.0073 -0.4190  1.1518
  896MOL0     O20828   5.966   6.934   2.627  0.4880  0.3295  0.0035
  896MOL0     C20829   5.829   6.946   2.625  0.6761  0.8940 -0.3826
  896MOL0     C20830   5.765   6.961   2.752  0.9468  0.3506  0.5722
  896MOL0     C20831   5.627   6.972   2.759  0.7047  0.7134 -1.0175
  896MOL0     C20832   5.545   6.960   2.646  0.4729  0.2085  0.0390
  896MOL0     O20833   5.410   6.954   2.665  0.5171  0.1130  0.3905
  896MOL0     C20834   5.331   6.911   2.550  0.0589  0.2981 -0.2930
  896MOL0     C20835   5.181   6.872   2.602 -0.7459  0.3290  1.1898
  896MOL0     C20836   5.096   6.960   2.687 -0.4944  0.0003  0.3735
  896MOL0     C20837   5.071   7.084   2.598  0.4112 -0.1247  0.1444
  896MOL0     C20838   4.979   7.186   2.662  0.3240 -0.5187 -0.4403
  896MOL0     C20839   5.011   7.222   2.805  0.8230  0.0604 -0.2378
  896MOL0     C20840   4.920   7.339   2.860 -0.5117  0.3628  0.2503
  896MOL0     C20841   4.958   7.374   3.004  0.2845 -0.9217 -0.3802
  896MOL0     N20842   4.870   7.475   3.062  0.3401 -0.0448  0.8866
  896MOL0     C20843   4.802   7.471   3.182 -0.2147 -0.2183  0.4539
  896MOL0     C20844   4.731   7.582   3.192  0.9555  0.5611 -0.2808
  896MOL0     C20845   4.660   7.613   3.311  0.1457  0.4471  0.2567
  896MOL0     C20846   4.735   7.704   3.404  0.0459 -0.1860 -0.2208
  896MOL0     C20847   4.653   7.741   3.527 -1.2992  0.3225  0.0067
  896MOL0     C20848   4.725   7.856   3.599  0.5692  0.7041 -0.0250
  896MOL0     O20849   4.693   7.842   3.737 -0.2511  0.1133 -0.1150
  896MOL0     C20850   4.615   7.941   3.779  1.4828 -1.4136 -0.0299
  896MOL0     C20851   4.675   8.028   3.868  0.2862 -0.9207 -0.4696
  896MOL0     C20852   4.610   8.154   3.903 -0.3322  1.1577 -0.6821
  896MOL0     C20853   4.679   8.245   3.997 -0.0426 -0.6967 -0.1019
  896MOL0     C20854   4.483   8.187   3.843 -0.1853  0.0939 -0.2344
  896MOL0     C20855   4.414   8.326   3.850 -0.3751  0.1939  0.1423
  896MOL0     O20856   4.299   8.342   3.778 -0.3115  0.4254  0.0702
  896MOL0     C20857   4.240   8.467   3.776  0.3145  0.6476 -0.4264
  896MOL0     C20858   4.114   8.482   3.828 -0.2368 -0.1425 -0.5905
  896MOL0     C20859   4.054   8.612   3.826  0.3022 -0.6311 -0.7236
  896MOL0     C20860   4.122   8.718   3.765  0.2949 -0.8731  0.3857
  896MOL0     O20861   4.054   8.830   3.729  0.5145  0.2381  0.0870
  896MOL0     C20862   3.991   8.896   3.834 -0.0222 -0.2253 -0.4873
  896MOL0     C20863   3.930   9.022   3.782  0.1964 -0.5926 -0.2324
  896MOL0     C20864   3.840   9.113   3.866 -0.3238  0.0166 -0.0591
  896MOL0     C20865   3.731   9.027   3.945  0.0486  0.7989  0.3289
  896MOL0     C20866   3.629   9.127   4.001  0.3960 -0.3572  0.1105
  896MOL0     C20867   3.497   9.134   3.915 -0.2956 -0.1106 -0.6761
  896MOL0     C20868   3.362   9.177   3.984 -0.2469 -0.0719 -0.0992
  896MOL0     C20869   3.332   9.328   3.978 -0.6008 -0.7859 -0.1623
  896MOL0    Cl20870   3.201   9.373   4.072 -0.2799  0.0017 -0.1937
  896MOL0     C20871   4.244   8.703   3.710  0.0339  0.1049  0.1344
  896MOL0     C20872   4.308   8.574   3.716  0.3049 -0.7562 -0.7061
  896MOL0     O20873   4.455   8.421   3.922 -0.1148  0.3426 -0.4725
  896MOL0     C20874   4.422   8.090   3.765  0.0667 -0.0865 -0.6399
  896MOL0     C20875   4.486   7.971   3.720 -0.2199 -0.3872 -0.3589
  896MOL0     N20876   4.740   7.660   3.079 -0.1581  0.3303 -0.1099
  896MOL0     N20877   4.826   7.592   3.006 -0.5476 -0.2824  0.6952
  896MOL0     C20878   5.610   6.949   2.517  0.4046  0.1908 -0.2392
  896MOL0     C20879   5.753   6.939   2.512  0.3140 -0.4495 -0.2923
  896MOL0     C20880   6.196   6.989   2.554  0.1601 -0.3735 -0.2292
  896MOL0     C20881   6.290   7.061   2.475  0.1070 -0.3805  0.8482
  896MOL0     C20882   6.427   7.034   2.504 -0.2362 -0.5350  0.5879
  896MOL0     C20883   6.473   6.945   2.601 -0.1603  0.9526  0.4582
  896MOL0     O20884   6.613   6.929   2.589  0.5533 -0.0903  0.0199
  896MOL0     C20885   6.682   6.859   2.694  0.1072  0.7150  0.3460
  896MOL0     C20886   6.704   6.942   2.825 -0.8744 -0.0310  0.2813
  896MOL0     C20887   6.811   6.876   2.910  0.3859 -0.5639 -0.5366
  896MOL0     C20888   6.825   6.946   3.049 -0.8525 -0.0749 -0.8296
  896MOL0     C20889   6.921   6.882   3.139  0.7837  0.3100 -0.7065
  896MOL0     C20890   7.006   6.827   3.210 -0.1638  0.3555  0.1146
  896MOL0     C20891   6.376   6.868   2.666  0.5055 -0.5644  0.4163
  896MOL0     C20892   6.244   6.888   2.644 -0.2051 -0.6116  0.8078
  896MOL0     H20893   5.830   6.973   2.838 -0.4378  0.8978  1.5818
  896MOL0     H20894   5.591   6.993   2.859 -0.6471 -0.3279 -1.2690
  896MOL0     H20895   5.329   6.994   2.479 -1.3646  0.9715  0.4880
  896MOL0     H20896   5.373   6.825   2.498  0.6741  1.4521 -1.7925
  896MOL0     H20897   5.119   6.836   2.519  2.4759 -1.1163 -0.8042
  896MOL0     H20898   5.193   6.781   2.662 -0.7361 -1.6540 -1.6073
  896MOL0     H20899   5.010   6.904   2.723 -1.7719  0.8051 -1.3276
  896MOL0     H20900   5.154   6.996   2.773  1.2470  2.8880 -1.8140
  896MOL0     H20901   5.171   7.129   2.593  0.5588  0.0751  3.0157
  896MOL0     H20902   5.031   7.069   2.497  0.1304  2.3773 -0.1811
  896MOL0     H20903   4.974   7.275   2.599  0.4013 -0.1470  0.0759
  896MOL0     H20904   4.878   7.145   2.655  1.1620 -2.5457 -2.0211
  896MOL0     H20905   5.002   7.136   2.872 -0.7608 -1.2869 -2.0668
  896MOL0     H20906   5.117   7.252   2.806  0.7700  0.4009  2.3210
  896MOL0     H20907   4.937   7.433   2.807  3.6076 -1.3622 -1.9653
  896MOL0     H20908   4.814   7.311   2.860 -0.9594  1.6899 -2.6925
  896MOL0     H20909   5.059   7.414   3.016 -0.9024  2.4723 -0.7754
  896MOL0     H20910   4.944   7.288   3.071 -2.5960  0.9727  1.6397
  896MOL0     H20911   4.811   7.401   3.263  1.7932  0.4818  0.9106
  896MOL0     H20912   4.558   7.643   3.285  0.4199  0.1114 -1.3065
  896MOL0     H20913   4.634   7.517   3.357 -0.5820 -1.2017 -3.2632
  896MOL0     H20914   4.778   7.793   3.358  2.9927 -0.1035  2.3879
  896MOL0     H20915   4.826   7.653   3.437  0.1112 -0.2156 -0.4440
  896MOL0     H20916   4.654   7.653   3.591 -0.9036 -1.4332 -2.2894
  896MOL0     H20917   4.553   7.774   3.497 -0.5278  1.1405 -1.8860
  896MOL0     H20918   4.689   7.952   3.560 -3.2048 -0.0619  1.2146
  896MOL0     H20919   4.834   7.851   3.589  0.4324  0.2662 -1.5100
  896MOL0     H20920   4.774   8.008   3.906 -1.0285 -2.6725  2.3614
  896MOL0     H20921   4.755   8.197   4.060 -2.7529 -0.7953  3.3649
  896MOL0     H20922   4.713   8.331   3.938 -0.3193  0.5024  1.4165
  896MOL0     H20923   4.604   8.281   4.067  0.4877 -0.3318  0.2859
  896MOL0     H20924   4.059   8.396   3.865  0.7750 -0.3245  0.5299
  896MOL0     H20925   3.949   8.616   3.851  0.3985 -1.5753 -0.1176
  896MOL0     H20926   3.911   8.832   3.873 -0.3880 -1.6228 -3.2864
  896MOL0     H20927   4.060   8.917   3.916  0.1757  0.5953 -0.8509
  896MOL0     H20928   4.012   9.089   3.753  0.9958 -1.5901 -0.3321
  896MOL0     H20929   3.867   8.997   3.696  0.1495 -4.2176  0.6750
  896MOL0     H20930   3.803   9.193   3.802 -0.0168 -0.0945 -0.3785
  896MOL0     H20931   3.899   9.162   3.944  1.4796 -1.3624 -0.4780
  896MOL0     H20932   3.699   8.949   3.876  1.4583 -0.0033  0.5370
  896MOL0     H20933   3.775   8.971   4.028 -0.1461  2.4843  1.6480
  896MOL0     H20934   3.677   9.225   3.992 -0.3301 -0.1391 -2.1330
  896MOL0     H20935   3.615   9.093   4.104  3.2438 -1.9844  0.0433
  896MOL0     H20936   3.507   9.206   3.833 -1.0646  1.4518  0.5476
  896MOL0     H20937   3.491   9.032   3.877  1.8046 -1.1404  1.5383
  896MOL0     H20938   3.367   9.148   4.090 -0.2945 -0.0121 -0.0803
  896MOL0     H20939   3.284   9.115   3.940 -0.5575  0.7657 -0.7643
  896MOL0     H20940   3.321   9.365   3.876 -2.7030 -4.7278 -1.5999
  896MOL0     H20941   3.420   9.377   4.022 -1.7839  0.8020  0.5131
  896MOL0     H20942   4.292   8.790   3.667 -0.1381  1.6429  2.7944
  896MOL0     H20943   4.407   8.559   3.675  1.0473  1.9089 -0.0805
  896MOL0     H20944   4.317   8.104   3.741 -1.2839  2.1927  4.9648
  896MOL0     H20945   4.432   7.901   3.657 -1.1641 -1.7607  1.8529
  896MOL0     H20946   5.553   6.931   2.426  1.4169  1.3741 -1.1408
  896MOL0     H20947   5.803   6.931   2.417  0.9123  0.4034 -0.0509
  896MOL0     H20948   6.262   7.118   2.387  0.0668  0.4142  1.3559
  896MOL0     H20949   6.506   7.077   2.444 -0.8971 -1.0336 -0.6743
  896MOL0     H20950   6.624   6.769   2.717  1.7862 -0.6232 -0.4507
  896MOL0     H20951   6.778   6.826   2.654  0.6582  1.2684  1.1865
  896MOL0     H20952   6.617   6.931   2.890 -2.8021 -0.6314 -2.2400
  896MOL0     H20953   6.733   7.046   2.808 -1.1259  0.2562  1.4774
  896MOL0     H20954   6.900   6.883   2.846  0.6686 -3.0085 -0.5251
  896MOL0     H20955   6.797   6.768   2.920  2.6538 -0.9006 -0.4070
  896MOL0     H20956   6.726   6.945   3.095 -0.4948  0.2625 -0.0314
  896MOL0     H20957   6.843   7.054   3.043 -0.6886  0.0017  0.5998
  896MOL0     H20958   7.084   6.780   3.266  0.3128 -0.7727 -1.4108
  896MOL0     H20959   6.402   6.787   2.734  0.6801 -0.2419  0.7351
  896MOL0     H20960   6.172   6.825   2.694 -0.0370 -1.6686 -0.2272
  897MOL0     O20961   2.155   8.488   3.546  0.1732 -0.5630 -0.2462
  897MOL0     C20962   2.129   8.558   3.644 -0.6988 -0.0074  0.2903
  897MOL0     O20963   2.009   8.572   3.693  0.3441  0.9273  0.2482
  897MOL0     C20964   1.906   8.506   3.625 -0.5565  0.1937  0.3622
  897MOL0     C20965   1.830   8.576   3.532  0.2326  0.2579 -0.3387
  897MOL0     C20966   1.747   8.504   3.443 -0.2002  0.4597 -0.0336
  897MOL0     C20967   1.743   8.362   3.437 -0.1944 -0.0108  0.2411
  897MOL0     O20968   1.676   8.275   3.353  0.4840  0.0558  0.1496
  897MOL0     C20969   1.563   8.334   3.271  0.0571  0.2976 -0.4729
  897MOL0     C20970   1.517   8.217   3.187  0.2945 -0.5775 -0.6871
  897MOL0     C20971   1.449   8.282   3.064  0.0050  0.3816 -0.5796
  897MOL0     C20972   1.383   8.172   2.980 -0.7016  0.5479  0.7208
  897MOL0     C20973   1.318   8.227   2.852  0.0825  0.2201  0.6328
  897MOL0     C20974   1.288   8.106   2.758  0.0882 -0.3607  0.5707
  897MOL0     C20975   1.217   8.136   2.624  0.6687  0.2337 -0.0046
  897MOL0     C20976   1.063   8.125   2.641  0.2795  0.8934  0.4920
  897MOL0     N20977   1.000   8.131   2.512  0.0674  0.1455 -0.1340
  897MOL0     C20978   0.972   8.230   2.437  0.6537 -0.6937  0.1218
  897MOL0     C20979   0.905   8.180   2.329  0.6026  0.5248 -0.0977
  897MOL0     C20980   0.841   8.250   2.221  0.7562  0.1400 -0.9610
  897MOL0     C20981   0.926   8.357   2.166  0.3128 -0.3161 -0.1033
  897MOL0     C20982   0.912   8.401   2.024  0.2777  0.3450  0.5860
  897MOL0     C20983   0.903   8.292   1.920  0.0102  0.5959 -0.0924
  897MOL0     O20984   0.783   8.221   1.886 -0.5040  0.2179 -1.0855
  897MOL0     C20985   0.662   8.286   1.893 -0.8407  0.3719  0.5599
  897MOL0     C20986   0.631   8.401   1.816 -0.3013  0.8690  0.5809
  897MOL0     C20987   0.507   8.461   1.836 -0.0075  0.0703 -0.6727
  897MOL0     C20988   0.492   8.592   1.766  0.4247  0.7231  0.3107
  897MOL0     C20989   0.415   8.413   1.935  0.2627 -0.0182  0.9810
  897MOL0     C20990   0.285   8.471   1.963 -0.1662  0.3692 -0.3256
  897MOL0     O20991   0.274   8.525   2.091  0.2475 -0.5707  0.7506
  897MOL0     C20992   0.148   8.592   2.108 -0.6381  0.2967  0.8692
  897MOL0     C20993   0.133   8.708   2.029 -0.1169 -0.0425 -0.3903
  897MOL0     C20994   0.014   8.780   2.045  0.1400 -0.4810  0.1236
  897MOL0     C20995  -0.076   8.753   2.141  0.0310  0.1580  0.2955
  897MOL0     O20996  -0.188   8.829   2.149  0.0588  0.5186  0.7951
  897MOL0     C20997  -0.301   8.785   2.227 -0.0705 -0.0541  0.2672
  897MOL0     C20998  -0.418   8.873   2.186 -0.0949 -0.1452 -0.0803
  897MOL0     C20999  -0.410   9.014   2.226  0.3641 -0.1411 -0.5184
  897MOL0     C21000  -0.529   9.088   2.177  0.1444 -0.1807 -0.2196
  897MOL0     C21001  -0.537   9.228   2.251 -0.9170 -0.1486  0.5593
  897MOL0     C21002  -0.672   9.303   2.232 -0.3939  0.2070  0.7039
  897MOL0     C21003  -0.655   9.441   2.293  0.3555 -0.3550  0.4678
  897MOL0     C21004  -0.751   9.544   2.221  0.1858 -0.1502  0.3277
  897MOL0    Cl21005  -0.915   9.474   2.190 -0.0313  0.5629  0.3765
  897MOL0     C21006  -0.052   8.645   2.232  0.0777 -0.5008 -0.0867
  897MOL0     C21007   0.054   8.561   2.208 -0.9169  0.3626 -1.1399
  897MOL0     O21008   0.198   8.473   1.870 -0.6895  0.2992  0.1589
  897MOL0     C21009   0.441   8.292   1.993 -0.7384  0.1078 -0.5831
  897MOL0     C21010   0.570   8.232   1.983  0.1077  0.4190  0.5405
  897MOL0     N21011   0.891   8.040   2.342 -0.3779  0.7977  0.3142
  897MOL0     N21012   0.951   8.017   2.452 -0.5150 -0.2845  0.6710
  897MOL0     C21013   1.814   8.292   3.535 -0.3797  0.7387  0.2526
  897MOL0     C21014   1.895   8.362   3.624 -0.3089 -0.4150 -0.4035
  897MOL0     C21015   2.235   8.633   3.720 -0.5887 -0.3767  0.4642
  897MOL0     C21016   2.199   8.734   3.809  0.8235 -0.2528  0.2654
  897MOL0     C21017   2.289   8.816   3.878 -0.1332 -0.8546  0.2758
  897MOL0     C21018   2.428   8.802   3.857  0.5574  0.1971  0.1848
  897MOL0     O21019   2.513   8.895   3.913 -0.1294 -0.5252  0.0910
  897MOL0     C21020   2.642   8.914   3.856  0.3811 -0.8476 -0.2567
  897MOL0     C21021   2.664   9.068   3.844  0.9124  0.2818  0.1540
  897MOL0     C21022   2.806   9.089   3.794 -0.6652  0.0729  0.4778
  897MOL0     C21023   2.852   9.235   3.795  0.8865  0.3120  0.7524
  897MOL0     C21024   2.996   9.236   3.758 -0.3681 -0.6959 -0.6058
  897MOL0     C21025   3.112   9.235   3.720  0.1533 -0.4642  0.4630
  897MOL0     C21026   2.469   8.694   3.768  0.8495  0.4219  0.1544
  897MOL0     C21027   2.374   8.610   3.711  0.9864  0.0628 -0.4170
  897MOL0     H21028   1.849   8.683   3.527  1.9254  0.0543  0.8417
  897MOL0     H21029   1.687   8.565   3.376 -1.1815  1.3558  1.5746
  897MOL0     H21030   1.481   8.373   3.332  0.2410  1.7102 -1.0766
  897MOL0     H21031   1.610   8.411   3.208 -0.2698 -1.6954 -3.3793
  897MOL0     H21032   1.586   8.137   3.163 -0.1569 -0.9498 -0.7634
  897MOL0     H21033   1.439   8.167   3.245 -1.2282  1.2670 -1.0447
  897MOL0     H21034   1.376   8.361   3.083  1.1670  1.1206  1.0860
  897MOL0     H21035   1.526   8.334   3.006 -1.5500  2.7070 -0.7101
  897MOL0     H21036   1.443   8.085   2.955 -2.6933 -1.4611  2.4597
  897MOL0     H21037   1.307   8.128   3.046 -0.5585  2.0281  1.9451
  897MOL0     H21038   1.225   8.281   2.871  0.2221  0.7062 -0.0392
  897MOL0     H21039   1.392   8.289   2.800  1.5164 -1.7149  0.2350
  897MOL0     H21040   1.383   8.055   2.739 -0.8213 -1.6733 -0.6809
  897MOL0     H21041   1.231   8.030   2.813 -1.6016  0.0830 -0.5027
  897MOL0     H21042   1.238   8.236   2.585 -1.0733 -0.2186 -2.3119
  897MOL0     H21043   1.252   8.058   2.556  1.3724 -1.0868  1.7913
  897MOL0     H21044   1.022   8.204   2.704  1.2472 -0.0282  2.3645
  897MOL0     H21045   1.027   8.036   2.693 -0.3551  2.0976  2.1990
  897MOL0     H21046   0.986   8.336   2.456 -1.0470 -0.2310 -1.0410
  897MOL0     H21047   0.818   8.170   2.150  1.5752  0.5085 -1.6604
  897MOL0     H21048   0.753   8.296   2.267  1.1801  1.1743 -1.1578
  897MOL0     H21049   1.028   8.317   2.159  2.1756  3.7860  0.9976
  897MOL0     H21050   0.933   8.442   2.233  0.0701 -0.2328 -0.1824
  897MOL0     H21051   1.000   8.459   1.994  2.6704 -3.4926 -0.4050
  897MOL0     H21052   0.827   8.470   2.017  2.2174  2.9132  0.4726
  897MOL0     H21053   0.980   8.215   1.931  0.5554  0.9426 -1.3442
  897MOL0     H21054   0.932   8.341   1.827 -3.6758 -2.2145 -3.0929
  897MOL0     H21055   0.706   8.444   1.751  0.8752 -1.6758  0.1409
  897MOL0     H21056   0.470   8.586   1.660  3.4335  1.0517 -0.4329
  897MOL0     H21057   0.430   8.663   1.822  1.3108  0.1657  2.0665
  897MOL0     H21058   0.590   8.641   1.764  1.1479 -0.6964 -0.6205
  897MOL0     H21059   0.194   8.752   1.951 -1.2149 -1.2932 -2.0339
  897MOL0     H21060  -0.010   8.858   1.973 -3.5021 -1.1036  0.4977
  897MOL0     H21061  -0.324   8.680   2.203 -2.3876 -0.2429  2.7778
  897MOL0     H21062  -0.264   8.794   2.330 -0.5560  0.0343  0.4343
  897MOL0     H21063  -0.441   8.868   2.079 -4.5660 -1.1913  0.7153
  897MOL0     H21064  -0.504   8.828   2.235  0.2599  0.9402  1.6411
  897MOL0     H21065  -0.330   9.067   2.174 -2.1166  2.3049 -2.0883
  897MOL0     H21066  -0.415   9.034   2.333  0.5218  0.7517 -0.6691
  897MOL0     H21067  -0.516   9.116   2.072 -2.5545  2.3777 -0.0217
  897MOL0     H21068  -0.617   9.026   2.195  0.6004 -1.0200 -0.8177
  897MOL0     H21069  -0.457   9.288   2.206  0.1475 -1.1780  1.0334
  897MOL0     H21070  -0.509   9.217   2.356  0.1689  0.1617  0.3164
  897MOL0     H21071  -0.678   9.319   2.124  2.1941  2.2616  0.7715
  897MOL0     H21072  -0.755   9.244   2.271  1.2802 -0.8718  2.9014
  897MOL0     H21073  -0.551   9.473   2.292  0.7058 -1.4695 -0.1535
  897MOL0     H21074  -0.674   9.433   2.400 -0.1269  2.4142  0.6733
  897MOL0     H21075  -0.715   9.582   2.125 -0.1762  2.2070  1.0533
  897MOL0     H21076  -0.751   9.633   2.285  2.1652  0.3725 -0.3191
  897MOL0     H21077  -0.116   8.631   2.318  1.1355  0.2307  0.8361
  897MOL0     H21078   0.061   8.477   2.277 -1.8786  2.6481  1.9434
  897MOL0     H21079   0.373   8.246   2.063 -0.0742  1.4981  1.0256
  897MOL0     H21080   0.596   8.144   2.040  0.2039 -0.6987 -1.1572
  897MOL0     H21081   1.814   8.183   3.535 -0.3415  0.7372 -0.0939
  897MOL0     H21082   1.955   8.314   3.700 -0.1637 -1.1583 -0.9738
  897MOL0     H21083   2.092   8.749   3.818  0.5387 -2.8523  1.8771
  897MOL0     H21084   2.253   8.891   3.948 -0.4925 -1.8367  1.1715
  897MOL0     H21085   2.725   8.873   3.915  0.8099 -2.2937 -1.7835
  897MOL0     H21086   2.651   8.864   3.759 -1.1205 -0.5818 -0.5581
  897MOL0     H21087   2.651   9.123   3.937 -2.6776 -0.4156  0.1992
  897MOL0     H21088   2.590   9.107   3.774  1.5109  1.5436  0.2036
  897MOL0     H21089   2.804   9.052   3.691 -0.7619 -0.6743  0.7436
  897MOL0     H21090   2.875   9.026   3.851 -0.1545  0.6163  0.4667
  897MOL0     H21091   2.853   9.283   3.893  0.4885  4.0796 -0.8965
  897MOL0     H21092   2.791   9.304   3.736  1.4797  0.1538 -0.0624
  897MOL0     H21093   3.210   9.249   3.679 -0.4574  1.7704 -0.4207
  897MOL0     H21094   2.571   8.672   3.738  1.1474  1.7201  0.1561
  897MOL0     H21095   2.408   8.535   3.640 -0.9865 -2.9689  1.5903
  898MOL0     O21096   0.310   7.756   7.649 -0.3189 -0.1983 -0.5386
  898MOL0     C21097   0.300   7.736   7.531 -0.3013 -0.2135 -0.2376
  898MOL0     O21098   0.184   7.701   7.464 -0.4194 -0.0480  0.5066
  898MOL0     C21099   0.059   7.708   7.528 -0.6097 -0.1739 -0.5145
  898MOL0     C21100   0.015   7.608   7.619  0.1962 -0.4023  0.0658
  898MOL0     C21101  -0.103   7.630   7.684 -0.8945  0.4604 -0.0468
  898MOL0     C21102  -0.185   7.739   7.657  0.6530  0.1823  0.3158
  898MOL0     O21103  -0.308   7.755   7.721 -0.5546 -0.4774 -0.1676
  898MOL0     C21104  -0.396   7.646   7.701  0.4918  0.6654  0.0505
  898MOL0     C21105  -0.427   7.632   7.546 -0.3073  0.3403 -0.4091
  898MOL0     C21106  -0.552   7.540   7.524 -0.3535  0.1128 -0.0190
  898MOL0     C21107  -0.575   7.538   7.374  0.4475  0.1092  0.3261
  898MOL0     C21108  -0.688   7.441   7.323 -0.1897 -0.4866  0.2755
  898MOL0     C21109  -0.703   7.432   7.170 -0.1803 -0.1896 -0.2560
  898MOL0     C21110  -0.810   7.346   7.118  0.1055 -0.3866 -0.3709
  898MOL0     C21111  -0.827   7.354   6.969  0.5458 -0.5668 -0.0915
  898MOL0     N21112  -0.931   7.269   6.925  1.2837 -0.4431 -0.0801
  898MOL0     C21113  -0.924   7.133   6.908  0.7855 -1.2732  0.4468
  898MOL0     C21114  -1.042   7.093   6.856 -0.1585 -0.7665  0.5204
  898MOL0     C21115  -1.078   6.958   6.799  0.4902  0.9055  0.0153
  898MOL0     C21116  -1.214   6.910   6.844 -0.3542  0.0409 -0.1296
  898MOL0     C21117  -1.331   6.961   6.751  0.3786  0.4727  0.4742
  898MOL0     C21118  -1.462   6.884   6.793  0.2337  0.2154  1.0595
  898MOL0     O21119  -1.504   6.937   6.917 -0.2274 -0.2131  0.2489
  898MOL0     C21120  -1.618   7.009   6.925  0.1648 -0.7011 -0.5508
  898MOL0     C21121  -1.605   7.147   6.909 -0.1934  0.1736  0.5152
  898MOL0     C21122  -1.713   7.227   6.895  0.8735 -0.1772  0.7008
  898MOL0     C21123  -1.700   7.371   6.881 -0.1236 -0.2906  0.1449
  898MOL0     C21124  -1.846   7.166   6.907 -0.5864  0.3510 -1.0290
  898MOL0     C21125  -1.972   7.238   6.892 -0.3213  0.6901  0.3464
  898MOL0     O21126  -2.085   7.176   6.942 -0.0613  0.4500 -0.6108
  898MOL0     C21127  -2.207   7.231   6.907  0.2543 -0.6216 -0.2360
  898MOL0     C21128  -2.286   7.290   7.003  0.1263  0.0879  0.9702
  898MOL0     C21129  -2.405   7.355   6.963  0.5528  0.1966 -0.0261
  898MOL0     C21130  -2.438   7.359   6.832 -0.1618 -0.0570 -0.3598
  898MOL0     O21131  -2.545   7.443   6.804 -0.7756 -0.0882  0.1272
  898MOL0     C21132  -2.559   7.494   6.672  0.2551 -0.1329 -0.4667
  898MOL0     C21133  -2.682   7.583   6.688  0.2154  0.3015 -0.0580
  898MOL0     C21134  -2.741   7.601   6.550  0.1193 -0.3038  0.2105
  898MOL0     C21135  -2.830   7.723   6.548 -0.4580  0.1454  0.0840
  898MOL0     C21136  -2.893   7.728   6.406 -0.1375  1.0361  0.3583
  898MOL0     C21137  -3.033   7.665   6.410  0.3626  0.1698  0.3061
  898MOL0     C21138  -3.130   7.655   6.286 -0.0389 -0.2029  0.6397
  898MOL0     C21139  -3.220   7.788   6.264 -0.1441 -0.2735 -0.0238
  898MOL0    Cl21140  -3.113   7.932   6.233 -0.7249 -0.2099  0.3384
  898MOL0     C21141  -2.372   7.290   6.736 -0.9197 -0.7680  0.1244
  898MOL0     C21142  -2.247   7.230   6.775 -0.6873 -0.3256  0.8418
  898MOL0     O21143  -1.971   7.334   6.821  0.1539  0.4223 -0.4051
  898MOL0     C21144  -1.848   7.025   6.928  0.9437 -0.1827  0.1098
  898MOL0     C21145  -1.738   6.945   6.937  0.0734 -0.3135  1.0397
  898MOL0     N21146  -1.115   7.206   6.846  0.6694 -0.4381  0.2465
  898MOL0     N21147  -1.053   7.308   6.891 -0.4350 -0.9495  0.3191
  898MOL0     C21148  -0.148   7.829   7.560 -0.0210  0.2914 -0.0074
  898MOL0     C21149  -0.017   7.819   7.512  0.8207 -0.1062  1.1022
  898MOL0     C21150   0.417   7.777   7.449 -0.2627 -0.1191 -0.0417
  898MOL0     C21151   0.395   7.795   7.312  0.0154  0.4112  0.2214
  898MOL0     C21152   0.507   7.849   7.235  0.1065  0.0414  0.3536
  898MOL0     C21153   0.632   7.882   7.292  0.7663 -0.0378 -0.4065
  898MOL0     O21154   0.723   7.943   7.203 -0.1588  0.6010 -0.0632
  898MOL0     C21155   0.855   7.982   7.241  0.1480 -0.0716  0.1552
  898MOL0     C21156   0.956   7.868   7.256  0.4303 -0.3595 -0.0514
  898MOL0     C21157   1.073   7.926   7.339 -0.0705 -1.1165  0.1923
  898MOL0     C21158   1.188   7.823   7.348  0.0947 -0.4341 -0.1270
  898MOL0     C21159   1.265   7.844   7.467  0.2567 -0.0631  0.9038
  898MOL0     C21160   1.342   7.848   7.566  0.1118 -0.2172 -0.1368
  898MOL0     C21161   0.646   7.852   7.429  0.1101  1.1303 -0.3918
  898MOL0     C21162   0.543   7.805   7.510 -0.3269  0.7149  0.6405
  898MOL0     H21163   0.071   7.517   7.638  1.5271  0.9189  3.1492
  898MOL0     H21164  -0.134   7.549   7.749  2.6246 -1.0592 -0.0449
  898MOL0     H21165  -0.350   7.555   7.742  0.9143 -0.0305 -1.8379
  898MOL0     H21166  -0.493   7.661   7.750  1.2871 -1.2994  2.4307
  898MOL0     H21167  -0.459   7.732   7.516 -0.5384  1.5351  3.3521
  898MOL0     H21168  -0.341   7.581   7.501 -0.5146 -1.9986  1.6288
  898MOL0     H21169  -0.525   7.440   7.559 -1.3400 -0.1355  0.0469
  898MOL0     H21170  -0.641   7.581   7.572 -1.7976 -0.6355 -1.9216
  898MOL0     H21171  -0.606   7.638   7.344  0.3122  0.1570  0.6147
  898MOL0     H21172  -0.482   7.516   7.321  0.6306  3.6203 -1.0572
  898MOL0     H21173  -0.665   7.340   7.359  0.4741 -1.0879 -1.6647
  898MOL0     H21174  -0.786   7.469   7.361  2.1211  3.4078  4.1905
  898MOL0     H21175  -0.707   7.537   7.139  1.6878  0.7160  2.2420
  898MOL0     H21176  -0.605   7.400   7.132  0.2775 -0.4040  1.0310
  898MOL0     H21177  -0.778   7.247   7.154  0.2956 -0.9431 -1.9902
  898MOL0     H21178  -0.905   7.374   7.166 -0.4276  1.1415 -2.2324
  898MOL0     H21179  -0.738   7.321   6.915  0.6564  0.6739 -0.6920
  898MOL0     H21180  -0.834   7.459   6.941  1.2164 -0.4631  0.1193
  898MOL0     H21181  -0.840   7.068   6.930  1.4160 -0.1838  1.3337
  898MOL0     H21182  -1.073   6.975   6.691 -0.3930 -1.9535 -0.5841
  898MOL0     H21183  -1.009   6.878   6.828 -0.0541  0.0460 -0.9779
  898MOL0     H21184  -1.220   6.947   6.947 -0.3948 -2.3012  0.7820
  898MOL0     H21185  -1.227   6.802   6.844 -2.6771  0.2762 -0.3822
  898MOL0     H21186  -1.301   6.937   6.648 -0.7611  2.4209 -0.3619
  898MOL0     H21187  -1.352   7.068   6.758  0.8457  0.5046  1.4395
  898MOL0     H21188  -1.437   6.779   6.811  0.7095  0.3948  1.4970
  898MOL0     H21189  -1.548   6.884   6.727  0.3664 -0.2969  0.8792
  898MOL0     H21190  -1.503   7.185   6.914  0.0466 -0.2863 -0.6760
  898MOL0     H21191  -1.750   7.424   6.962  0.3789 -0.0071  0.2740
  898MOL0     H21192  -1.594   7.399   6.886 -0.3642  0.5429  0.7392
  898MOL0     H21193  -1.737   7.416   6.789  0.8513  1.9824  0.8014
  898MOL0     H21194  -2.267   7.280   7.109  0.8823 -1.4495  0.7143
  898MOL0     H21195  -2.470   7.405   7.034  0.6539  2.7967 -1.6441
  898MOL0     H21196  -2.469   7.554   6.652  1.1706  0.0835  3.4707
  898MOL0     H21197  -2.575   7.414   6.599  0.5314 -1.6676  1.0840
  898MOL0     H21198  -2.752   7.534   6.756  0.1763 -0.0096 -0.3164
  898MOL0     H21199  -2.647   7.673   6.740  1.1509  0.7675 -1.4249
  898MOL0     H21200  -2.795   7.511   6.523  0.1466  0.1062 -1.3093
  898MOL0     H21201  -2.654   7.625   6.488  0.2538 -2.1760 -0.3875
  898MOL0     H21202  -2.909   7.733   6.624  0.1747  0.8366  0.6766
  898MOL0     H21203  -2.764   7.810   6.563  1.7951 -1.3485 -0.6426
  898MOL0     H21204  -2.837   7.672   6.331 -1.7357 -0.6955  0.3798
  898MOL0     H21205  -2.898   7.831   6.370  1.2419  0.9002 -0.3015
  898MOL0     H21206  -3.010   7.561   6.435 -0.6599  0.5171  3.0771
  898MOL0     H21207  -3.086   7.715   6.491  1.4819  1.5908  0.2074
  898MOL0     H21208  -3.203   7.579   6.314 -0.8945  1.5990  3.8061
  898MOL0     H21209  -3.085   7.620   6.193  0.9104 -2.4269  1.8628
  898MOL0     H21210  -3.282   7.798   6.353  0.9832 -0.2250  0.7728
  898MOL0     H21211  -3.282   7.779   6.174  0.9451 -0.2055 -0.7991
  898MOL0     H21212  -2.399   7.286   6.631 -0.4763  2.1084 -0.1871
  898MOL0     H21213  -2.196   7.166   6.705 -0.3850  1.2694 -0.4569
  898MOL0     H21214  -1.938   6.966   6.917  1.9770 -1.8562  0.2015
  898MOL0     H21215  -1.736   6.836   6.942 -1.9180 -0.4914 -0.5679
  898MOL0     H21216  -0.217   7.908   7.534  1.5268  0.5441 -4.2234
  898MOL0     H21217   0.019   7.896   7.445  2.2744 -1.7426 -0.0881
  898MOL0     H21218   0.298   7.779   7.266  0.2178 -1.6918  0.4189
  898MOL0     H21219   0.489   7.871   7.131 -1.0238  0.7607  0.6905
  898MOL0     H21220   0.892   8.062   7.177 -0.2110  1.4813  1.7959
  898MOL0     H21221   0.847   8.042   7.332 -2.8808 -1.0881  0.6880
  898MOL0     H21222   0.988   7.840   7.155  1.2172 -0.3238  0.1834
  898MOL0     H21223   0.913   7.782   7.307 -2.1814  1.0107  0.2817
  898MOL0     H21224   1.025   7.956   7.432 -1.2006  3.0792 -1.5043
  898MOL0     H21225   1.100   8.025   7.302 -0.2246 -0.7054  1.1621
  898MOL0     H21226   1.238   7.830   7.251  2.1608  0.9003  0.9574
  898MOL0     H21227   1.128   7.733   7.362  1.5698 -1.4404 -0.0609
  898MOL0     H21228   1.416   7.852   7.643  1.4538  3.9386 -1.4038
  898MOL0     H21229   0.738   7.885   7.475  2.3305 -0.4981 -3.3111
  898MOL0     H21230   0.565   7.797   7.616 -1.7535  3.4525  1.2475
  899MOL0     O21231   1.082   4.913   4.284  0.5325  0.4196 -0.1540
  899MOL0     C21232   1.118   4.813   4.220 -0.3256  0.6013 -0.4242
  899MOL0     O21233   1.039   4.713   4.179 -0.7390  0.2943 -1.1447
  899MOL0     C21234   0.905   4.702   4.206 -0.7232  0.3540 -0.4153
  899MOL0     C21235   0.865   4.569   4.217 -0.5225 -0.3779 -0.5598
  899MOL0     C21236   0.739   4.537   4.267  0.7678  0.4882  0.2915
  899MOL0     C21237   0.645   4.643   4.289  0.0114  0.0480 -0.6418
  899MOL0     O21238   0.522   4.593   4.304  1.1923 -0.3566 -0.6257
  899MOL0     C21239   0.410   4.688   4.296  0.3788  0.7429 -0.0191
  899MOL0     C21240   0.272   4.617   4.270  0.7647  0.1529 -0.4273
  899MOL0     C21241   0.278   4.541   4.141 -0.3816  0.2481 -0.5247
  899MOL0     C21242   0.143   4.483   4.112 -0.4411 -0.6833 -0.6629
  899MOL0     C21243   0.146   4.380   4.003  0.3211  0.5010 -0.3041
  899MOL0     C21244   0.010   4.331   3.963  0.6712  0.0442  0.0794
  899MOL0     C21245  -0.063   4.419   3.861 -0.5648  0.2724  0.1385
  899MOL0     C21246   0.012   4.427   3.726  0.6853  0.4384 -0.0855
  899MOL0     N21247   0.052   4.299   3.661  0.6073 -0.2844  0.2702
  899MOL0     C21248  -0.038   4.214   3.597 -1.0413 -0.3896 -0.4414
  899MOL0     C21249   0.040   4.131   3.533 -0.2815  0.3990  0.3101
  899MOL0     C21250  -0.025   4.040   3.435  0.0816  0.5507 -0.2450
  899MOL0     C21251   0.058   3.920   3.385 -0.0066 -0.3844  0.7176
  899MOL0     C21252   0.102   3.819   3.486 -0.0828  1.3621 -0.0978
  899MOL0     C21253  -0.007   3.717   3.523 -0.8470 -0.3817  0.4020
  899MOL0     O21254  -0.098   3.702   3.416 -0.0971  0.2615  0.4327
  899MOL0     C21255  -0.219   3.649   3.439  0.1377  0.3524  0.0233
  899MOL0     C21256  -0.312   3.650   3.336  0.9940 -0.6007  0.0756
  899MOL0     C21257  -0.449   3.600   3.362 -0.8757 -0.6245  1.5164
  899MOL0     C21258  -0.559   3.601   3.257 -0.3030  0.2892  0.1886
  899MOL0     C21259  -0.487   3.560   3.498 -0.0894 -0.7875  0.9894
  899MOL0     C21260  -0.624   3.543   3.551  0.0223  0.4072  0.0016
  899MOL0     O21261  -0.662   3.420   3.598 -0.0415  0.0237 -0.4409
  899MOL0     C21262  -0.771   3.416   3.687 -0.5234 -0.2329  0.1145
  899MOL0     C21263  -0.858   3.306   3.673  0.6668  0.8181  0.4173
  899MOL0     C21264  -0.963   3.289   3.763  0.2021  0.6459  0.1106
  899MOL0     C21265  -0.983   3.377   3.866  0.4111  0.1467 -0.4479
  899MOL0     O21266  -1.078   3.345   3.963  0.6822 -0.4460 -0.6208
  899MOL0     C21267  -1.158   3.448   4.029  0.3128 -0.4019  0.7595
  899MOL0     C21268  -1.282   3.388   4.094 -0.0430  0.0800 -0.0159
  899MOL0     C21269  -1.264   3.316   4.230  0.1687  0.1092  0.2679
  899MOL0     C21270  -1.396   3.313   4.315 -0.0903  0.2280  0.2787
  899MOL0     C21271  -1.362   3.230   4.436  0.4768 -0.2673 -0.4509
  899MOL0     C21272  -1.464   3.231   4.551  0.1592 -0.0350 -0.1236
  899MOL0     C21273  -1.474   3.362   4.623  0.1293 -0.6252 -0.5361
  899MOL0     C21274  -1.548   3.337   4.761  0.1789  0.7858  0.5404
  899MOL0    Cl21275  -1.718   3.333   4.742  0.0832  0.3272 -0.1283
  899MOL0     C21276  -0.903   3.491   3.874  0.2598 -0.2907  0.3239
  899MOL0     C21277  -0.793   3.501   3.799 -0.2746 -0.0323  0.6035
  899MOL0     O21278  -0.688   3.645   3.544  0.4630 -0.0117 -0.3613
  899MOL0     C21279  -0.383   3.556   3.589 -0.1474 -0.7061 -0.3668
  899MOL0     C21280  -0.253   3.591   3.562 -1.0887  0.6825  0.1201
  899MOL0     N21281   0.171   4.166   3.544 -0.3679 -0.1305  0.0909
  899MOL0     N21282   0.181   4.270   3.611  0.2170  0.1169 -0.7840
  899MOL0     C21283   0.688   4.778   4.289 -0.0749 -0.2349  0.5735
  899MOL0     C21284   0.810   4.805   4.235  0.1725  0.1707  0.0374
  899MOL0     C21285   1.270   4.787   4.229 -0.3687 -0.2257 -0.6584
  899MOL0     C21286   1.360   4.888   4.289  0.2194  0.4019 -0.1192
  899MOL0     C21287   1.497   4.860   4.309 -0.7034 -0.7194 -0.2897
  899MOL0     C21288   1.546   4.733   4.289 -0.1571 -0.2701 -0.3787
  899MOL0     O21289   1.675   4.687   4.324  0.1318 -0.4256 -0.7489
  899MOL0     C21290   1.782   4.782   4.350  0.0745 -0.4329 -0.0470
  899MOL0     C21291   1.920   4.712   4.347 -0.6430 -0.1904  0.0544
  899MOL0     C21292   2.040   4.818   4.365 -0.4698 -0.1052  0.1124
  899MOL0     C21293   2.178   4.748   4.391  0.2201 -0.1729 -0.3423
  899MOL0     C21294   2.300   4.818   4.363  0.3571 -0.9122 -0.2505
  899MOL0     C21295   2.408   4.877   4.348 -0.4008  0.3382  0.2090
  899MOL0     C21296   1.453   4.634   4.239 -0.0335 -0.4566 -0.2222
  899MOL0     C21297   1.320   4.660   4.204 -0.2039  0.5197  0.7035
  899MOL0     H21298   0.932   4.486   4.193 -0.9030 -1.1303  0.8696
  899MOL0     H21299   0.702   4.436   4.279 -0.1375  0.5328 -1.7545
  899MOL0     H21300   0.403   4.733   4.396 -2.6692  1.0817 -0.3093
  899MOL0     H21301   0.421   4.759   4.214 -0.7824  1.6588  0.5889
  899MOL0     H21302   0.260   4.548   4.355 -0.0209  1.1421  0.2807
  899MOL0     H21303   0.186   4.683   4.257 -0.4588 -1.5766 -1.6606
  899MOL0     H21304   0.317   4.606   4.061  2.3010 -1.6382 -0.8853
  899MOL0     H21305   0.345   4.457   4.158 -1.4519 -0.3293  0.9994
  899MOL0     H21306   0.106   4.429   4.201  0.9398 -1.7569 -0.7110
  899MOL0     H21307   0.078   4.567   4.088 -0.6842 -1.4664 -2.9781
  899MOL0     H21308   0.198   4.417   3.914  0.1602 -2.0970 -1.5880
  899MOL0     H21309   0.207   4.294   4.034 -1.9305 -0.1539  2.7832
  899MOL0     H21310   0.017   4.235   3.911  0.8270  0.2341 -0.2568
  899MOL0     H21311  -0.054   4.304   4.048  2.7103 -0.7427  1.4426
  899MOL0     H21312  -0.156   4.366   3.838  0.8070 -1.6255 -1.2802
  899MOL0     H21313  -0.075   4.522   3.897  1.1961  0.1953  1.0673
  899MOL0     H21314   0.103   4.486   3.743  2.0574 -0.9279 -2.1735
  899MOL0     H21315  -0.045   4.481   3.651  2.0447  0.8723 -0.8507
  899MOL0     H21316  -0.145   4.199   3.606 -0.9197 -0.3601  1.5204
  899MOL0     H21317  -0.121   4.013   3.479 -0.5880 -0.6722 -2.3000
  899MOL0     H21318  -0.050   4.095   3.344 -1.6827  1.3621  0.6860
  899MOL0     H21319   0.146   3.972   3.347  2.4475 -1.7423  4.1298
  899MOL0     H21320   0.005   3.879   3.298 -0.5912  0.6668  0.5467
  899MOL0     H21321   0.131   3.862   3.582 -2.4380 -4.1508  3.5945
  899MOL0     H21322   0.190   3.764   3.449 -0.4786  1.3281 -1.0186
  899MOL0     H21323  -0.073   3.755   3.602 -0.7309  0.5646  0.0604
  899MOL0     H21324   0.035   3.625   3.565  0.4716  0.9357  2.1377
  899MOL0     H21325  -0.284   3.684   3.237 -1.2764 -1.5421 -0.9552
  899MOL0     H21326  -0.607   3.503   3.255 -0.2802  0.2505 -2.3070
  899MOL0     H21327  -0.631   3.674   3.295  0.2349  0.3249  1.1595
  899MOL0     H21328  -0.524   3.629   3.157 -1.3441  1.7793  0.2123
  899MOL0     H21329  -0.830   3.232   3.599 -1.2382  1.5957 -1.1648
  899MOL0     H21330  -1.015   3.194   3.772  3.3521 -1.2912 -0.3809
  899MOL0     H21331  -1.090   3.491   4.102 -1.0725 -0.2646  2.0112
  899MOL0     H21332  -1.179   3.533   3.963 -1.2649 -1.1016  0.3091
  899MOL0     H21333  -1.363   3.462   4.102 -0.4091 -0.2316 -0.6808
  899MOL0     H21334  -1.315   3.315   4.019  2.3075  0.2477 -1.3213
  899MOL0     H21335  -1.183   3.355   4.292  1.9473 -0.3272 -1.6214
  899MOL0     H21336  -1.231   3.214   4.208 -0.4177  0.3640 -2.1790
  899MOL0     H21337  -1.433   3.411   4.346  0.5393  0.4477  0.3503
  899MOL0     H21338  -1.473   3.267   4.253 -1.0165  1.3969  0.5129
  899MOL0     H21339  -1.268   3.263   4.481  0.5514 -1.4270  0.2892
  899MOL0     H21340  -1.343   3.125   4.412 -1.4694 -0.9897  0.8804
  899MOL0     H21341  -1.560   3.195   4.512 -0.2622 -1.0563  1.6963
  899MOL0     H21342  -1.438   3.152   4.623 -2.9545 -1.2074 -0.1311
  899MOL0     H21343  -1.535   3.437   4.572  0.0541  0.9510  1.7378
  899MOL0     H21344  -1.376   3.407   4.641 -1.9364  4.3088  0.2900
  899MOL0     H21345  -1.531   3.427   4.821  2.7604 -0.0727  1.2137
  899MOL0     H21346  -1.512   3.256   4.824  1.2448  0.1864 -0.7852
  899MOL0     H21347  -0.911   3.552   3.964  2.0523 -0.4649  0.6344
  899MOL0     H21348  -0.719   3.580   3.811  3.9794 -3.3376 -1.1294
  899MOL0     H21349  -0.416   3.517   3.685 -1.3715  1.2507  0.0645
  899MOL0     H21350  -0.184   3.594   3.646  1.3732  0.3616 -1.7761
  899MOL0     H21351   0.619   4.858   4.314  1.1967  0.9641  0.3881
  899MOL0     H21352   0.833   4.910   4.224  0.1583  0.1080 -0.6378
  899MOL0     H21353   1.321   4.989   4.300 -3.8105 -0.7342 -2.0760
  899MOL0     H21354   1.555   4.942   4.352 -1.0252  0.6669 -2.3900
  899MOL0     H21355   1.772   4.854   4.269  1.0526 -0.8511 -0.5650
  899MOL0     H21356   1.779   4.827   4.450  0.7180 -3.7326  1.6326
  899MOL0     H21357   1.925   4.657   4.252 -0.8325  0.5089 -0.3672
  899MOL0     H21358   1.931   4.632   4.420 -1.8820  0.0315  0.5044
  899MOL0     H21359   2.011   4.869   4.457 -0.0424  0.6060 -0.1358
  899MOL0     H21360   2.046   4.882   4.277 -1.0421  1.1114  0.9297
  899MOL0     H21361   2.181   4.650   4.342  2.3967 -1.1861  1.5761
  899MOL0     H21362   2.180   4.729   4.499 -0.1878 -0.7062 -0.4228
  899MOL0     H21363   2.502   4.927   4.336 -0.1685 -0.3004 -0.6736
  899MOL0     H21364   1.498   4.544   4.198  2.6701  0.8082 -0.2006
  899MOL0     H21365   1.254   4.586   4.159 -1.1346  1.0993  1.0663
  900MOL0     O21366   5.190   9.854  10.854  0.2919 -0.0481  0.6676
  900MOL0     C21367   5.243   9.740  10.858  0.2995 -0.6336  0.1262
  900MOL0     O21368   5.277   9.674  10.979 -0.0727 -0.8620  0.2725
  900MOL0     C21369   5.236   9.736  11.098 -1.1213 -0.7968 -0.1821
  900MOL0     C21370   5.104   9.755  11.145 -0.9397  0.1785 -0.3169
  900MOL0     C21371   5.083   9.814  11.264 -0.0745 -0.3573 -0.9470
  900MOL0     C21372   5.174   9.887  11.340 -0.1990 -0.5083  0.5586
  900MOL0     O21373   5.140   9.951  11.453 -0.8766  0.5993 -0.5030
  900MOL0     C21374   5.224  10.061  11.492 -0.9837  1.3878 -0.1242
  900MOL0     C21375   5.144  10.141  11.587  0.3586  1.1931  0.2897
  900MOL0     C21376   5.021  10.198  11.512  0.1322 -0.0479 -0.1606
  900MOL0     C21377   4.936  10.282  11.611  0.0736 -0.3881  0.3978
  900MOL0     C21378   4.793  10.309  11.568 -0.5041  0.4448  0.0047
  900MOL0     C21379   4.707  10.182  11.554 -1.4502  0.3736 -0.0573
  900MOL0     C21380   4.687  10.119  11.692  0.5839  0.5012 -0.6409
  900MOL0     C21381   4.618  10.217  11.792  0.5815 -0.7659 -0.1324
  900MOL0     N21382   4.483  10.267  11.743 -0.7196  0.2428  0.4426
  900MOL0     C21383   4.456  10.398  11.711  0.1705 -0.2350 -0.8269
  900MOL0     C21384   4.326  10.427  11.723 -1.0213 -0.3533 -1.0167
  900MOL0     C21385   4.253  10.550  11.694 -1.1395 -0.0346 -0.1476
  900MOL0     C21386   4.194  10.532  11.554 -0.1941 -0.1538 -0.4474
  900MOL0     C21387   4.290  10.494  11.439 -0.3263  0.3032  0.9615
  900MOL0     C21388   4.218  10.490  11.299 -0.4943 -0.5675  0.4381
  900MOL0     O21389   4.105  10.394  11.295  0.1812  1.1350  0.4578
  900MOL0     C21390   4.008  10.430  11.211  0.5574 -0.1185  0.0848
  900MOL0     C21391   3.880  10.448  11.259 -0.6809 -0.4445 -0.0508
  900MOL0     C21392   3.765  10.470  11.185  0.2015 -0.1565  0.1259
  900MOL0     C21393   3.628  10.480  11.244 -0.4875 -0.1964  0.0502
  900MOL0     C21394   3.779  10.488  11.042 -0.6257 -0.0419  1.0504
  900MOL0     C21395   3.672  10.539  10.955  0.0858  0.3744 -0.1165
  900MOL0     O21396   3.574  10.608  11.005 -0.4462  0.3256  0.0075
  900MOL0     C21397   3.453  10.616  10.931  0.1472 -0.0599  0.1050
  900MOL0     C21398   3.418  10.727  10.855 -0.3835  0.1194  0.1654
  900MOL0     C21399   3.298  10.729  10.777  0.5520  0.4659 -0.7122
  900MOL0     C21400   3.209  10.620  10.793  0.2168  0.4279 -0.0921
  900MOL0     O21401   3.097  10.618  10.712  0.7427  0.3169 -0.6681
  900MOL0     C21402   2.984  10.546  10.738  0.0117 -0.4532 -0.0776
  900MOL0     C21403   2.867  10.613  10.668  0.5363 -0.0006 -0.0551
  900MOL0     C21404   2.893  10.627  10.520  0.2899  0.5256 -0.2070
  900MOL0     C21405   2.760  10.658  10.445  0.1379 -0.1282 -0.4543
  900MOL0     C21406   2.775  10.666  10.296  0.6337 -0.3698 -0.2291
  900MOL0     C21407   2.650  10.720  10.221 -0.1524  0.1964 -0.3309
  900MOL0     C21408   2.701  10.761  10.074 -0.0029  0.2577  0.0751
  900MOL0     C21409   2.592  10.831   9.986 -0.4746 -0.7246  0.7537
  900MOL0    Cl21410   2.458  10.723   9.946  0.1539 -0.1086 -0.0876
  900MOL0     C21411   3.246  10.515  10.876 -0.7928 -0.3664  0.0123
  900MOL0     C21412   3.369  10.507  10.943 -0.4982  0.0983  1.0662
  900MOL0     O21413   3.675  10.497  10.842 -0.7074  0.1074 -0.4859
  900MOL0     C21414   3.908  10.463  10.989  0.0432 -0.0923  0.1262
  900MOL0     C21415   4.015  10.433  11.063 -0.0353 -0.1864  0.0871
  900MOL0     N21416   4.270  10.310  11.767  0.2577  0.1525 -0.1184
  900MOL0     N21417   4.360  10.219  11.785  0.3217 -1.1998 -0.4753
  900MOL0     C21418   5.308   9.869  11.295 -0.6020  0.1152  0.2513
  900MOL0     C21419   5.334   9.799  11.175  0.1004  0.5696 -0.3279
  900MOL0     C21420   5.264   9.671  10.732 -0.8470 -0.4791  0.0135
  900MOL0     C21421   5.206   9.716  10.618 -0.3629 -0.5106  0.3010
  900MOL0     C21422   5.222   9.648  10.491  0.2467 -0.3607 -0.1450
  900MOL0     C21423   5.293   9.529  10.482  0.1348 -0.4322  0.2324
  900MOL0     O21424   5.307   9.459  10.367 -0.2988 -0.2712 -0.3589
  900MOL0     C21425   5.234   9.487  10.250  0.0258 -0.2734  0.0553
  900MOL0     C21426   5.269   9.394  10.139  0.0862 -0.5200  0.3523
  900MOL0     C21427   5.413   9.400  10.080 -0.3326 -0.3061 -0.0207
  900MOL0     C21428   5.437   9.326   9.948 -0.0226 -0.2033 -0.5969
  900MOL0     C21429   5.447   9.182   9.979  0.5692 -0.6625  0.3377
  900MOL0     C21430   5.436   9.068  10.000 -0.3902  0.2950  0.7478
  900MOL0     C21431   5.352   9.486  10.599 -0.0777 -1.0740  0.4124
  900MOL0     C21432   5.342   9.551  10.722  0.3360 -0.3353  0.2602
  900MOL0     H21433   5.020   9.716  11.088 -0.8979  1.3691 -1.2366
  900MOL0     H21434   4.983   9.800  11.304  0.3209 -1.1116 -0.1883
  900MOL0     H21435   5.311  10.030  11.551 -2.6674 -1.9214  0.9121
  900MOL0     H21436   5.258  10.118  11.406  4.0116  2.3338  2.1025
  900MOL0     H21437   5.108  10.081  11.671  1.5374  3.6875  2.7269
  900MOL0     H21438   5.203  10.228  11.616  1.7302 -0.1864  1.8491
  900MOL0     H21439   5.055  10.245  11.419  2.5761 -3.8826 -1.4260
  900MOL0     H21440   4.962  10.110  11.489 -2.7573  1.2334  1.8017
  900MOL0     H21441   4.942  10.243  11.713  0.0734 -2.0776 -0.2123
  900MOL0     H21442   4.975  10.383  11.617 -2.2323  0.7902 -2.0695
  900MOL0     H21443   4.743  10.385  11.629 -1.2391  0.8288 -1.0512
  900MOL0     H21444   4.803  10.351  11.468 -0.3202 -0.6925 -0.4654
  900MOL0     H21445   4.613  10.210  11.506 -0.0366  1.8612 -2.1715
  900MOL0     H21446   4.760  10.111  11.490  2.1949  3.7212 -1.1859
  900MOL0     H21447   4.625  10.030  11.693  2.2434 -0.7149  1.5434
  900MOL0     H21448   4.784  10.091  11.734  1.0532  1.3340 -1.1236
  900MOL0     H21449   4.678  10.299  11.832 -0.2984 -0.4945  0.6727
  900MOL0     H21450   4.606  10.149  11.877  0.8165  1.0008  1.3539
  900MOL0     H21451   4.531  10.476  11.700 -0.3441  0.4181  0.0906
  900MOL0     H21452   4.185  10.569  11.777  2.1322  1.4013  2.4455
  900MOL0     H21453   4.313  10.642  11.697 -1.8272  0.3998  1.7391
  900MOL0     H21454   4.145  10.629  11.544  0.9140  0.3687 -0.9860
  900MOL0     H21455   4.120  10.453  11.566 -0.0950  0.0062  1.7426
  900MOL0     H21456   4.334  10.394  11.452  1.0347  0.3218 -2.2384
  900MOL0     H21457   4.374  10.564  11.431 -1.4160  1.6481  0.9546
  900MOL0     H21458   4.293  10.465  11.224  0.8898 -0.9795  1.9076
  900MOL0     H21459   4.196  10.595  11.273  3.7521  0.4855  0.3683
  900MOL0     H21460   3.883  10.436  11.366 -1.3955  0.6234  0.1022
  900MOL0     H21461   3.624  10.432  11.342  0.5816 -3.7617 -1.4846
  900MOL0     H21462   3.611  10.587  11.259 -1.0737 -0.2743 -0.0597
  900MOL0     H21463   3.556  10.429  11.179 -0.1018 -0.8659  0.1377
  900MOL0     H21464   3.489  10.808  10.850  0.8720 -0.7547  2.3343
  900MOL0     H21465   3.281  10.789  10.689 -0.8412 -0.0108 -0.7920
  900MOL0     H21466   2.996  10.441  10.710  1.7562 -0.7077  1.4658
  900MOL0     H21467   2.965  10.546  10.846  1.5855  0.6017  0.2383
  900MOL0     H21468   2.782  10.550  10.694 -0.9642  1.6187 -0.8175
  900MOL0     H21469   2.842  10.712  10.708 -2.5088 -1.8801  3.2687
  900MOL0     H21470   2.942  10.543  10.471  0.5309 -0.3318  1.4297
  900MOL0     H21471   2.943  10.723  10.504 -1.9626  2.0970  1.3939
  900MOL0     H21472   2.696  10.571  10.463 -2.7631  1.7882 -0.8447
  900MOL0     H21473   2.705  10.740  10.492  1.9416 -0.7642  3.2117
  900MOL0     H21474   2.789  10.567  10.253 -0.0179 -1.2118  1.4282
  900MOL0     H21475   2.858  10.730  10.263  2.0078 -3.0282 -2.3366
  900MOL0     H21476   2.561  10.658  10.208 -1.4101  1.7175  0.8174
  900MOL0     H21477   2.626  10.820  10.256  2.1312  0.0799  1.8610
  900MOL0     H21478   2.736  10.671  10.022  0.1224  0.0686  0.4822
  900MOL0     H21479   2.781  10.835  10.076 -0.9495  1.3109  0.3130
  900MOL0     H21480   2.640  10.864   9.893 -0.8767 -0.1555  0.7439
  900MOL0     H21481   2.560  10.920  10.042 -1.2921 -0.3055 -0.3381
  900MOL0     H21482   3.183  10.427  10.881 -1.5727  0.1984  0.4846
  900MOL0     H21483   3.404  10.429  11.010 -0.1154 -1.6908 -1.1095
  900MOL0     H21484   3.914  10.466  10.880  0.7622 -1.0668  0.1264
  900MOL0     H21485   4.109  10.417  11.011 -0.6880 -2.6706 -0.4446
  900MOL0     H21486   5.396   9.911  11.345 -0.8042  1.0961 -0.1954
  900MOL0     H21487   5.436   9.788  11.139  0.0345 -1.2251 -0.0477
  900MOL0     H21488   5.150   9.809  10.626 -0.9610 -1.0010  2.9088
  900MOL0     H21489   5.166   9.688  10.407  0.5764 -0.5275 -0.4420
  900MOL0     H21490   5.128   9.487  10.274  0.3472  1.0608  1.6282
  900MOL0     H21491   5.261   9.586  10.213  0.3637 -0.5338 -0.4070
  900MOL0     H21492   5.198   9.411  10.058 -1.6029  1.6869  2.1640
  900MOL0     H21493   5.269   9.290  10.174  2.6061 -0.4057  0.8934
  900MOL0     H21494   5.488   9.374  10.155  1.9117  0.6140 -1.7961
  900MOL0     H21495   5.425   9.507  10.060 -1.8623  0.5405  3.0997
  900MOL0     H21496   5.536   9.361   9.916  0.5333 -0.3090  0.9248
  900MOL0     H21497   5.355   9.342   9.877 -1.6447  0.3974  1.3224
  900MOL0     H21498   5.407   8.967  10.018  2.0090 -0.4283  0.9093
  900MOL0     H21499   5.408   9.394  10.590 -0.0845 -0.9647 -0.9839
  900MOL0     H21500   5.379   9.507  10.814 -1.5517 -2.4957  0.0783
  901MOL0     O21501   5.171  10.236   1.211 -0.0379 -0.1311 -0.6044
  901MOL0     C21502   5.102  10.185   1.122  0.6084 -0.4676  0.0505
  901MOL0     O21503   4.996  10.101   1.137 -0.2194  0.0087 -0.1763
  901MOL0     C21504   4.945  10.083   1.258 -0.1300  0.7502  0.2708
  901MOL0     C21505   4.885  10.181   1.342 -0.0501  0.0240  0.2961
  901MOL0     C21506   4.844  10.154   1.469  0.2400 -1.0061 -0.9599
  901MOL0     C21507   4.845  10.025   1.518 -0.2670 -0.1304  0.0221
  901MOL0     O21508   4.798   9.992   1.643 -0.1898  0.0491 -0.5983
  901MOL0     C21509   4.740  10.094   1.729  0.3622  0.4706 -0.1658
  901MOL0     C21510   4.639  10.024   1.821 -0.3720  0.5041 -0.4057
  901MOL0     C21511   4.708   9.927   1.915 -0.6142  0.8128 -0.2255
  901MOL0     C21512   4.606   9.878   2.020 -0.8106 -0.2655  0.3921
  901MOL0     C21513   4.644   9.748   2.089 -0.0665  0.1157  0.6144
  901MOL0     C21514   4.591   9.716   2.226  0.2275  0.3281 -0.2371
  901MOL0     C21515   4.435   9.724   2.226 -0.2915 -0.4913 -0.8025
  901MOL0     C21516   4.379   9.629   2.123  0.3236 -0.4017  0.2157
  901MOL0     N21517   4.231   9.619   2.123 -0.4712 -0.3469  0.3673
  901MOL0     C21518   4.156   9.617   2.241 -0.6950  0.2463  0.4603
  901MOL0     C21519   4.035   9.612   2.207  0.2921  0.2259 -0.7678
  901MOL0     C21520   3.909   9.622   2.284 -0.2072 -0.6439 -0.4200
  901MOL0     C21521   3.778   9.575   2.221 -0.2915 -0.0820 -0.0997
  901MOL0     C21522   3.699   9.698   2.174 -0.6527  0.0495 -0.2903
  901MOL0     C21523   3.570   9.656   2.097  0.6738 -0.0271  0.1636
  901MOL0     O21524   3.492   9.766   2.082  0.1715  0.3947 -0.2269
  901MOL0     C21525   3.365   9.749   2.036 -0.0609 -0.4159 -0.3118
  901MOL0     C21526   3.309   9.634   1.979 -0.1594 -0.1468 -0.5106
  901MOL0     C21527   3.175   9.634   1.929 -0.3188 -0.7188 -0.2554
  901MOL0     C21528   3.127   9.506   1.871 -1.0093 -0.5916  0.1559
  901MOL0     C21529   3.090   9.743   1.970 -0.2205 -0.0018  0.4064
  901MOL0     C21530   2.947   9.757   1.933  0.7778 -0.3135  0.4083
  901MOL0     O21531   2.885   9.876   1.945 -0.7194 -0.2003  0.1382
  901MOL0     C21532   2.754   9.891   1.926 -0.5451 -1.0893  0.8675
  901MOL0     C21533   2.651   9.812   1.966 -0.3236 -1.0145 -0.4338
  901MOL0     C21534   2.522   9.831   1.939  0.5646 -0.0190  0.2978
  901MOL0     C21535   2.479   9.943   1.871 -0.1502 -0.5882 -1.0000
  901MOL0     O21536   2.350   9.990   1.873 -0.0361  0.1956  0.4679
  901MOL0     C21537   2.266   9.967   1.995  0.2783 -0.0677  0.2946
  901MOL0     C21538   2.126  10.006   1.963  0.3564  0.1057  1.0402
  901MOL0     C21539   2.052   9.938   1.845  0.0399  0.1772  0.3014
  901MOL0     C21540   2.010   9.791   1.858 -0.4168 -0.6458 -0.2787
  901MOL0     C21541   1.932   9.727   1.736  0.2378 -0.2379  0.7773
  901MOL0     C21542   2.019   9.703   1.605  0.8675  0.7893  0.2575
  901MOL0     C21543   1.933   9.675   1.488 -0.0480  0.3496 -0.3599
  901MOL0     C21544   1.996   9.684   1.354  0.5889 -0.3250 -0.6907
  901MOL0    Cl21545   1.867   9.639   1.239  0.3869 -0.1198 -0.0998
  901MOL0     C21546   2.571  10.039   1.831  0.5288  0.1806  0.4546
  901MOL0     C21547   2.710  10.007   1.847  0.8864 -0.1553 -0.4202
  901MOL0     O21548   2.890   9.652   1.896 -0.3068 -0.5032  0.0942
  901MOL0     C21549   3.150   9.854   2.027  0.2123 -0.0672 -0.0111
  901MOL0     C21550   3.284   9.862   2.061 -0.7401 -0.1621 -0.2012
  901MOL0     N21551   4.034   9.607   2.070  0.3567  0.0511 -0.6671
  901MOL0     N21552   4.151   9.600   2.017  0.1420 -1.1035  0.5285
  901MOL0     C21553   4.890   9.926   1.432  0.2050 -0.2762 -0.8629
  901MOL0     C21554   4.941   9.952   1.304  0.3208 -0.0785  0.1061
  901MOL0     C21555   5.149  10.201   0.983 -0.4054 -0.8924  0.7602
  901MOL0     C21556   5.065  10.184   0.870 -0.0851  0.0727 -0.8281
  901MOL0     C21557   5.116  10.211   0.747 -0.4663 -0.3505 -0.5523
  901MOL0     C21558   5.252  10.251   0.720  0.2776 -0.3027  0.6878
  901MOL0     O21559   5.297  10.263   0.591  0.2507  0.0497 -0.3153
  901MOL0     C21560   5.439  10.291   0.576  0.8648  0.5214  0.2813
  901MOL0     C21561   5.472  10.318   0.427 -0.6906 -0.5955  0.0031
  901MOL0     C21562   5.624  10.331   0.391  0.2483  0.4131 -0.0447
  901MOL0     C21563   5.635  10.351   0.233  0.1051  0.0776  0.1033
  901MOL0     C21564   5.769  10.385   0.199  0.3647 -0.0281 -0.3136
  901MOL0     C21565   5.883  10.427   0.175 -0.1047  0.0048 -0.3893
  901MOL0     C21566   5.335  10.267   0.831 -0.0628  0.1914  0.0707
  901MOL0     C21567   5.281  10.244   0.959  0.2838  0.2402  0.3278
  901MOL0     H21568   4.884  10.285   1.310  1.3664  0.2026  0.7656
  901MOL0     H21569   4.815  10.244   1.522  1.7590  1.1880 -3.5787
  901MOL0     H21570   4.813  10.154   1.784  0.7081 -0.5385  0.5035
  901MOL0     H21571   4.690  10.178   1.680  0.1438  1.5899  1.8553
  901MOL0     H21572   4.577  10.094   1.877 -0.8806  0.6885 -1.1735
  901MOL0     H21573   4.569   9.966   1.760 -0.7156 -1.5592  1.8114
  901MOL0     H21574   4.752   9.843   1.859  2.9953  2.4110 -0.1057
  901MOL0     H21575   4.796   9.968   1.965 -1.2562 -0.2581  1.8842
  901MOL0     H21576   4.582   9.945   2.103  0.5614 -1.5200  1.8529
  901MOL0     H21577   4.511   9.854   1.971  1.1860 -1.7572 -3.0648
  901MOL0     H21578   4.618   9.670   2.018 -0.4163  0.2882  0.5465
  901MOL0     H21579   4.752   9.745   2.102  0.0180  0.0933 -0.1043
  901MOL0     H21580   4.615   9.611   2.247  3.1401  0.6768 -1.3567
  901MOL0     H21581   4.635   9.775   2.307 -1.4198  0.6896  0.4276
  901MOL0     H21582   4.405   9.691   2.326  2.8122  1.1343  0.8403
  901MOL0     H21583   4.398   9.826   2.210  0.6323  1.2984  5.5193
  901MOL0     H21584   4.419   9.530   2.149 -0.8756 -0.8080  0.5683
  901MOL0     H21585   4.397   9.654   2.018  0.1406 -2.5375 -0.3803
  901MOL0     H21586   4.194   9.623   2.343  1.7020 -3.1048 -0.0453
  901MOL0     H21587   3.924   9.578   2.383 -0.1346  2.5666  1.1060
  901MOL0     H21588   3.887   9.726   2.309  0.5934 -0.0841 -1.8819
  901MOL0     H21589   3.710   9.524   2.290 -0.5930 -1.5352 -1.4412
  901MOL0     H21590   3.797   9.497   2.147  0.2308  0.9391 -1.0699
  901MOL0     H21591   3.753   9.756   2.098 -1.1872  2.3177  0.9910
  901MOL0     H21592   3.677   9.772   2.251  2.3007  1.6802 -0.8608
  901MOL0     H21593   3.514   9.584   2.156 -2.0391  1.5676 -0.3168
  901MOL0     H21594   3.592   9.621   1.996  1.8756  2.3006 -0.4809
  901MOL0     H21595   3.368   9.547   1.952 -2.4333 -0.9156 -3.5839
  901MOL0     H21596   3.070   9.445   1.941  1.4827 -0.7033  2.2247
  901MOL0     H21597   3.068   9.536   1.784  0.7071  1.8835 -0.2609
  901MOL0     H21598   3.207   9.440   1.835 -0.8722 -1.1579  1.4575
  901MOL0     H21599   2.664   9.722   2.025 -1.8748 -0.2734  1.1378
  901MOL0     H21600   2.446   9.767   1.982 -1.4685  1.7195 -0.5217
  901MOL0     H21601   2.258   9.861   2.020 -0.2602 -0.8521 -2.7970
  901MOL0     H21602   2.306  10.028   2.076  0.1933  0.2415  0.1031
  901MOL0     H21603   2.071   9.981   2.054 -1.9994 -1.6245 -0.7258
  901MOL0     H21604   2.116  10.113   1.945  1.4974  0.0609 -0.0449
  901MOL0     H21605   2.123   9.935   1.762 -0.9382 -2.5619 -0.5305
  901MOL0     H21606   1.966   9.996   1.810  0.2397 -0.4332 -1.2865
  901MOL0     H21607   2.098   9.733   1.888 -0.2415 -0.0573  0.3810
  901MOL0     H21608   1.945   9.787   1.945  1.3833 -2.1225  1.0864
  901MOL0     H21609   1.847   9.796   1.728  0.8897  0.5680  0.6742
  901MOL0     H21610   1.881   9.633   1.758 -0.9825 -0.4084 -2.3029
  901MOL0     H21611   2.090   9.785   1.593  0.3944  1.3179  0.9684
  901MOL0     H21612   2.088   9.619   1.619 -0.2537 -0.8163 -2.8591
  901MOL0     H21613   1.852   9.747   1.500  1.1361  1.5306  1.0262
  901MOL0     H21614   1.896   9.574   1.502 -2.1879  1.3144  1.5315
  901MOL0     H21615   2.076   9.610   1.343 -2.1462 -3.5208 -0.8775
  901MOL0     H21616   2.033   9.787   1.347 -1.2956  0.4869  0.4451
  901MOL0     H21617   2.553  10.138   1.790  1.7974  0.5032  0.6496
  901MOL0     H21618   2.795  10.070   1.824  0.1962  1.0531  0.2739
  901MOL0     H21619   3.093   9.943   2.054 -0.6022 -0.9265  1.1693
  901MOL0     H21620   3.341   9.950   2.091 -0.4317  0.0299 -1.3018
  901MOL0     H21621   4.888   9.820   1.457 -2.9007 -0.3419 -0.9624
  901MOL0     H21622   4.982   9.872   1.243 -1.0167 -0.7898  0.0934
  901MOL0     H21623   4.963  10.148   0.875  0.2514 -0.9846 -1.3147
  901MOL0     H21624   5.048  10.197   0.664 -2.0648  1.0324  0.4677
  901MOL0     H21625   5.471  10.375   0.637 -1.3582  1.7121 -0.0617
  901MOL0     H21626   5.500  10.203   0.598  1.8867  1.5194  1.5454
  901MOL0     H21627   5.426  10.411   0.391  1.3702 -0.5849 -2.9667
  901MOL0     H21628   5.429  10.239   0.365  0.9684  0.4118 -2.5915
  901MOL0     H21629   5.664  10.234   0.422  1.0519  1.0093  0.8275
  901MOL0     H21630   5.672  10.409   0.451  2.8399 -1.9899  1.2249
  901MOL0     H21631   5.573  10.438   0.210  3.1016  3.0103  2.1588
  901MOL0     H21632   5.605  10.263   0.175  1.6923  0.1557 -0.8863
  901MOL0     H21633   5.967  10.493   0.164 -1.9145  1.9608 -5.1562
  901MOL0     H21634   5.441  10.290   0.829 -0.1598  0.6623  0.1353
  901MOL0     H21635   5.357  10.242   1.037  1.2479 -1.5959 -0.5849
  902MOL0     O21636   1.750   8.705  11.079  0.1499  0.4207  0.0899
  902MOL0     C21637   1.804   8.741  10.975  0.1219 -0.0171 -0.2532
  902MOL0     O21638   1.749   8.739  10.849  0.0546  0.1455  0.7793
  902MOL0     C21639   1.613   8.704  10.834 -0.1068  0.4031 -0.3254
  902MOL0     C21640   1.550   8.596  10.903 -0.4888 -0.6506  0.1906
  902MOL0     C21641   1.415   8.564  10.877  0.3193 -0.1500 -0.2656
  902MOL0     C21642   1.340   8.643  10.788 -0.6830  0.4034 -0.0545
  902MOL0     O21643   1.207   8.622  10.765 -0.9754 -0.1698  0.1676
  902MOL0     C21644   1.175   8.482  10.750 -0.1316 -0.5666  0.0312
  902MOL0     C21645   1.045   8.480  10.667 -1.1431  0.4956 -0.3815
  902MOL0     C21646   0.971   8.346  10.663  0.4993  1.1890 -0.3308
  902MOL0     C21647   0.850   8.370  10.579 -0.0946 -0.8759  0.1679
  902MOL0     C21648   0.775   8.237  10.572 -0.5238 -0.2331 -0.5718
  902MOL0     C21649   0.630   8.250  10.514  0.7554  0.6434 -0.0670
  902MOL0     C21650   0.567   8.114  10.521  0.0213  0.5714 -0.1586
  902MOL0     C21651   0.416   8.107  10.524  0.0998 -0.1252  0.2159
  902MOL0     N21652   0.350   7.992  10.584  0.3211 -0.1437 -0.6985
  902MOL0     C21653   0.273   7.907  10.508  0.2682  0.0153 -0.6741
  902MOL0     C21654   0.194   7.845  10.599 -0.1513 -0.7229 -1.1207
  902MOL0     C21655   0.102   7.733  10.582 -0.4447  0.4163 -0.4316
  902MOL0     C21656  -0.005   7.771  10.481 -0.8007  0.3141  0.0655
  902MOL0     C21657  -0.087   7.650  10.437 -0.4007 -0.5605 -0.3041
  902MOL0     C21658  -0.183   7.685  10.320  0.5331  0.1794 -0.4366
  902MOL0     O21659  -0.279   7.580  10.302  0.0271  0.3818 -0.2465
  902MOL0     C21660  -0.401   7.572  10.365  0.1538 -0.4877 -0.2280
  902MOL0     C21661  -0.426   7.626  10.490  0.0672 -0.2175  0.2431
  902MOL0     C21662  -0.551   7.627  10.545 -0.0479  0.3798 -1.1714
  902MOL0     C21663  -0.567   7.718  10.666  0.2943 -0.3306  0.1201
  902MOL0     C21664  -0.663   7.555  10.482  0.7494 -0.0922 -0.5829
  902MOL0     C21665  -0.799   7.546  10.540 -0.7517 -0.1949 -0.0955
  902MOL0     O21666  -0.889   7.470  10.475  0.0353  0.2944 -0.3646
  902MOL0     C21667  -1.009   7.446  10.531  0.2072  0.0881 -0.9737
  902MOL0     C21668  -1.129   7.506  10.484 -0.0132  0.0420  0.0525
  902MOL0     C21669  -1.253   7.465  10.548 -1.0434 -0.1221 -0.9632
  902MOL0     C21670  -1.255   7.381  10.661  0.4712  0.1608  0.5431
  902MOL0     O21671  -1.368   7.363  10.726  0.2313 -0.0550 -0.5288
  902MOL0     C21672  -1.414   7.230  10.754  0.0026 -0.2148 -0.0217
  902MOL0     C21673  -1.566   7.220  10.748 -0.3081 -0.0208 -0.2298
  902MOL0     C21674  -1.616   7.288  10.618  0.6986  0.0193 -0.7374
  902MOL0     C21675  -1.759   7.257  10.586 -0.3820 -0.1634  0.0523
  902MOL0     C21676  -1.776   7.290  10.435 -0.9968 -0.3478 -0.8299
  902MOL0     C21677  -1.928   7.304  10.403  0.0306 -0.2241  0.2363
  902MOL0     C21678  -2.001   7.169  10.416 -0.1259 -0.0990  0.2154
  902MOL0     C21679  -2.150   7.185  10.374  0.6974  0.3740 -0.1892
  902MOL0    Cl21680  -2.219   7.349  10.388 -0.9172 -0.1895 -0.1781
  902MOL0     C21681  -1.133   7.321  10.712 -0.0921 -0.0005  0.5721
  902MOL0     C21682  -1.014   7.358  10.647 -0.4113  0.0381 -0.3062
  902MOL0     O21683  -0.815   7.582  10.657 -0.1525 -0.5716 -0.0002
  902MOL0     C21684  -0.631   7.483  10.364 -0.5081 -0.3506  0.2514
  902MOL0     C21685  -0.507   7.497  10.304 -0.4938 -0.2354  0.1862
  902MOL0     N21686   0.229   7.888  10.727  0.2204 -0.0629  1.0827
  902MOL0     N21687   0.326   7.975  10.712 -0.3001 -0.1030  0.7212
  902MOL0     C21688   1.404   8.750  10.730 -0.6863 -0.6604 -0.4408
  902MOL0     C21689   1.544   8.776  10.747  0.6004 -0.4369 -0.1102
  902MOL0     C21690   1.940   8.796  10.989 -0.9310 -0.6305 -0.7061
  902MOL0     C21691   1.989   8.822  11.120 -0.9012 -0.3766 -0.3304
  902MOL0     C21692   2.114   8.883  11.140 -0.5730 -0.2622  0.2114
  902MOL0     C21693   2.190   8.911  11.023  0.1372 -0.3429 -0.4240
  902MOL0     O21694   2.319   8.957  11.022 -0.0819 -0.4120  0.1303
  902MOL0     C21695   2.396   8.941  11.140 -0.4218 -0.2231 -0.3821
  902MOL0     C21696   2.544   8.959  11.118 -0.1216  0.9432  1.5707
  902MOL0     C21697   2.635   8.951  11.233 -0.3612 -0.1061  0.1224
  902MOL0     C21698   2.774   8.960  11.177 -0.4474 -0.2479 -0.8563
  902MOL0     C21699   2.865   8.931  11.294 -0.4175 -0.2080  0.6142
  902MOL0     C21700   2.944   8.910  11.386  0.1632 -0.9137  0.2807
  902MOL0     C21701   2.130   8.909  10.901  0.2263  0.0383  0.7228
  902MOL0     C21702   2.007   8.854  10.884  0.0469  0.0967  0.1226
  902MOL0     H21703   1.610   8.538  10.971  2.5803  1.2337 -0.7094
  902MOL0     H21704   1.376   8.484  10.939 -0.5180  1.4571  1.3534
  902MOL0     H21705   1.264   8.432  10.711 -0.3458  0.2101 -1.5071
  902MOL0     H21706   1.159   8.444  10.851 -0.6570  1.0187  0.5703
  902MOL0     H21707   0.982   8.553  10.718 -2.2988 -1.7590  1.6395
  902MOL0     H21708   1.070   8.510  10.565  0.7088  1.5531  0.3401
  902MOL0     H21709   1.031   8.270  10.613 -2.5377 -1.1852 -0.6551
  902MOL0     H21710   0.937   8.315  10.762 -0.5248  0.6267 -0.8378
  902MOL0     H21711   0.792   8.455  10.616 -3.0280 -2.7892  0.3022
  902MOL0     H21712   0.893   8.398  10.482 -1.2795  1.7170  0.2972
  902MOL0     H21713   0.834   8.162  10.518  2.3383  1.0944  0.5278
  902MOL0     H21714   0.762   8.199  10.674  0.8043  0.7537 -0.0168
  902MOL0     H21715   0.580   8.323  10.578  1.2537  1.7230 -0.8859
  902MOL0     H21716   0.630   8.286  10.411  1.3851  0.4404 -0.1425
  902MOL0     H21717   0.599   8.048  10.439 -1.0404  0.6857 -0.6713
  902MOL0     H21718   0.592   8.062  10.615  1.1990 -0.5621 -1.0532
  902MOL0     H21719   0.375   8.110  10.422  1.3332 -5.3493 -0.6926
  902MOL0     H21720   0.379   8.193  10.581 -1.2228  0.0262 -0.8226
  902MOL0     H21721   0.259   7.905  10.401 -2.7256 -2.1653 -0.3794
  902MOL0     H21722   0.163   7.654  10.537 -2.5140 -0.6200 -1.5958
  902MOL0     H21723   0.072   7.697  10.681  2.6522  2.3080  1.3568
  902MOL0     H21724   0.040   7.807  10.388 -0.6048 -1.1581 -0.4380
  902MOL0     H21725  -0.065   7.848  10.531  2.0145  2.1400  0.8384
  902MOL0     H21726  -0.140   7.620  10.528  2.0330  0.3574  1.5171
  902MOL0     H21727  -0.015   7.572  10.414  0.4887 -0.1720  1.0332
  902MOL0     H21728  -0.126   7.710  10.230  0.3619 -2.0592 -1.2135
  902MOL0     H21729  -0.246   7.768  10.353 -1.6242 -0.9473 -1.5206
  902MOL0     H21730  -0.353   7.682  10.547 -0.0012 -0.4887  0.6007
  902MOL0     H21731  -0.650   7.789  10.670  1.6320  1.3132 -0.3455
  902MOL0     H21732  -0.577   7.652  10.752  0.1404  4.0366  3.8153
  902MOL0     H21733  -0.476   7.775  10.685  0.6989 -0.6474 -0.7720
  902MOL0     H21734  -1.146   7.572  10.400 -0.4274  2.5117  1.9752
  902MOL0     H21735  -1.339   7.520  10.512 -0.4470  2.6024  1.3803
  902MOL0     H21736  -1.362   7.164  10.684  0.1194 -0.6480  0.4736
  902MOL0     H21737  -1.383   7.193  10.852 -1.0359 -2.4453 -0.4741
  902MOL0     H21738  -1.593   7.114  10.757 -0.9005 -0.0550 -1.9998
  902MOL0     H21739  -1.603   7.271  10.838  2.4319 -0.2793  1.1575
  902MOL0     H21740  -1.552   7.256  10.535  0.9547  0.1017 -0.5695
  902MOL0     H21741  -1.611   7.397  10.626  3.3989 -0.1878  1.5941
  902MOL0     H21742  -1.788   7.153  10.606  2.1397 -0.9468  0.0032
  902MOL0     H21743  -1.821   7.326  10.643 -1.2963 -1.3452  0.5392
  902MOL0     H21744  -1.730   7.211  10.375  2.1377  1.3809 -0.9103
  902MOL0     H21745  -1.735   7.388  10.407 -1.3872 -0.5026 -1.9893
  902MOL0     H21746  -1.977   7.371  10.475 -3.4502 -1.4036 -0.8580
  902MOL0     H21747  -1.945   7.335  10.300  2.7105 -0.1607 -0.2491
  902MOL0     H21748  -1.995   7.131  10.519  2.3143 -1.6840 -0.4239
  902MOL0     H21749  -1.951   7.088  10.361  2.7316  0.7032  1.4815
  902MOL0     H21750  -2.205   7.114  10.437 -0.5817 -0.4850 -2.1831
  902MOL0     H21751  -2.164   7.157  10.269 -0.4903  0.1062  0.0304
  902MOL0     H21752  -1.141   7.272  10.809 -2.6020  0.6111  0.7385
  902MOL0     H21753  -0.923   7.308  10.681 -3.2001 -3.5204  2.7118
  902MOL0     H21754  -0.710   7.425  10.316 -1.5435  1.4046 -0.2265
  902MOL0     H21755  -0.487   7.455  10.206  1.2792 -3.1426  1.6555
  902MOL0     H21756   1.354   8.827  10.672 -0.1265  0.3167  0.3448
  902MOL0     H21757   1.591   8.854  10.688 -4.1650  0.3085 -3.4707
  902MOL0     H21758   1.927   8.795  11.205  0.3712 -1.6704  0.2278
  902MOL0     H21759   2.143   8.897  11.244  3.9943 -0.0495 -0.8587
  902MOL0     H21760   2.359   9.021  11.204 -0.6956 -0.6647  0.0166
  902MOL0     H21761   2.379   8.852  11.201  1.3292  0.2983  0.9544
  902MOL0     H21762   2.560   9.055  11.067  2.5990  0.0183  0.4929
  902MOL0     H21763   2.569   8.878  11.049 -1.3623  0.4813  1.6413
  902MOL0     H21764   2.622   8.852  11.278  0.1654 -0.4364 -0.4205
  902MOL0     H21765   2.620   9.030  11.306 -0.2999 -0.6577  0.7426
  902MOL0     H21766   2.788   9.062  11.142 -2.1465 -0.3169 -1.8271
  902MOL0     H21767   2.796   8.889  11.097  1.4974  0.3493 -0.9060
  902MOL0     H21768   3.005   8.892  11.472  1.8451  0.9362 -0.4462
  902MOL0     H21769   2.177   8.945  10.809 -1.2629  0.4175  0.0717
  902MOL0     H21770   1.967   8.856  10.783 -2.2597 -0.4442  0.9572
  903MOL0     O21771   3.095   7.466  10.212 -0.3097 -0.2424 -0.5043
  903MOL0     C21772   3.162   7.560  10.174 -1.3076 -0.9349 -0.6329
  903MOL0     O21773   3.144   7.690  10.211  0.3455 -0.3252 -0.1370
  903MOL0     C21774   3.045   7.726  10.299  0.0964  0.4998  0.6576
  903MOL0     C21775   3.029   7.672  10.431 -0.8036  0.3635 -0.0736
  903MOL0     C21776   2.929   7.707  10.519 -0.5835  0.2975  0.3884
  903MOL0     C21777   2.844   7.808  10.492 -0.2511 -0.8859  0.4161
  903MOL0     O21778   2.761   7.842  10.598 -0.3747 -0.7299  0.2268
  903MOL0     C21779   2.679   7.958  10.573  0.0369  0.0984  0.7410
  903MOL0     C21780   2.595   7.985  10.694 -0.7926  0.1874 -0.6285
  903MOL0     C21781   2.567   8.137  10.717 -0.2945  0.5432 -0.4457
  903MOL0     C21782   2.471   8.172  10.830 -0.0255 -0.5801 -1.0386
  903MOL0     C21783   2.330   8.115  10.814  0.9297  0.4306  0.0656
  903MOL0     C21784   2.251   8.180  10.701 -0.3688 -0.8294  0.4533
  903MOL0     C21785   2.098   8.137  10.700 -0.2510  0.3816  0.5669
  903MOL0     C21786   2.018   8.175  10.822  0.5460  0.5567  0.1797
  903MOL0     N21787   1.877   8.128  10.814  0.5306  0.3506 -0.2239
  903MOL0     C21788   1.772   8.208  10.847 -0.4049  0.5727 -0.2766
  903MOL0     C21789   1.666   8.126  10.856 -0.3968 -0.5310  0.3910
  903MOL0     C21790   1.522   8.163  10.870 -0.5411  0.4246  0.9153
  903MOL0     C21791   1.465   8.092  10.996  0.3888 -0.0520  0.3092
  903MOL0     C21792   1.325   8.118  11.020  0.4467  0.2257 -0.1323
  903MOL0     C21793   1.227   8.024  10.938 -0.8857  0.0807  0.4725
  903MOL0     O21794   1.221   8.054  10.797  0.2860 -0.0313  0.7140
  903MOL0     C21795   1.127   7.984  10.720 -0.4722  0.3607 -0.1901
  903MOL0     C21796   1.120   7.996  10.576 -0.8995  0.3406 -0.3027
  903MOL0     C21797   1.028   7.931  10.499  0.2823  0.0734 -0.4907
  903MOL0     C21798   1.036   7.969  10.357  0.6402  0.6109  0.5277
  903MOL0     C21799   0.937   7.839  10.566 -0.3055 -0.1657 -0.6949
  903MOL0     C21800   0.822   7.785  10.494 -0.0608  0.3514  0.5344
  903MOL0     O21801   0.773   7.671  10.539  0.3858  0.3147  0.0099
  903MOL0     C21802   0.658   7.606  10.503 -0.0134  0.6918 -0.4801
  903MOL0     C21803   0.655   7.465  10.488 -0.3570 -0.2465 -0.1697
  903MOL0     C21804   0.535   7.400  10.441 -0.2281 -0.8422 -0.5675
  903MOL0     C21805   0.421   7.479  10.408 -0.3587  0.0249  0.4567
  903MOL0     O21806   0.317   7.422  10.345  0.5951  0.4620  0.6582
  903MOL0     C21807   0.298   7.280  10.334  0.3622 -0.0567  0.5964
  903MOL0     C21808   0.163   7.258  10.256 -0.7138  0.3458  0.7932
  903MOL0     C21809   0.143   7.104  10.226  0.2543 -0.6296 -0.4313
  903MOL0     C21810   0.020   7.069  10.139  0.0346  0.0517  0.9294
  903MOL0     C21811  -0.014   6.916  10.136 -0.5285 -0.0409  0.4411
  903MOL0     C21812  -0.075   6.859  10.269  0.0094  1.2008  0.1666
  903MOL0     C21813  -0.129   6.712  10.228  0.0453  0.0573 -0.2839
  903MOL0     C21814  -0.154   6.622  10.345 -0.1081  0.4101 -0.6042
  903MOL0    Cl21815  -0.283   6.685  10.456  0.2911  0.5533  0.2177
  903MOL0     C21816   0.432   7.614  10.424  0.3627  0.4958 -0.1686
  903MOL0     C21817   0.543   7.677  10.479 -0.1077  1.0773 -0.2390
  903MOL0     O21818   0.777   7.850  10.401 -0.2358  0.6467  0.3252
  903MOL0     C21819   0.958   7.797  10.702 -0.6545  0.2926  0.9616
  903MOL0     C21820   1.048   7.878  10.774 -0.2035 -0.6415  0.2819
  903MOL0     N21821   1.701   8.004  10.805 -0.5097  0.4112 -0.9090
  903MOL0     N21822   1.827   8.001  10.793 -0.3450 -0.4379 -0.0978
  903MOL0     C21823   2.858   7.864  10.366  0.1670  0.3528 -0.0475
  903MOL0     C21824   2.957   7.827  10.273 -0.8481  0.1561 -0.6005
  903MOL0     C21825   3.290   7.535  10.087 -0.0789 -0.3803 -0.3930
  903MOL0     C21826   3.382   7.636  10.054 -0.1028  0.3861 -1.6213
  903MOL0     C21827   3.502   7.601   9.988 -0.6841 -0.6574 -0.1841
  903MOL0     C21828   3.528   7.474   9.936  0.5338  0.0349  0.3748
  903MOL0     O21829   3.644   7.451   9.860  0.0652 -0.0905 -0.7792
  903MOL0     C21830   3.676   7.313   9.867  0.7995  0.2276  0.5588
  903MOL0     C21831   3.821   7.295   9.851 -1.1262  0.4346  0.0134
  903MOL0     C21832   3.865   7.336   9.717 -0.6250 -0.3762 -0.2429
  903MOL0     C21833   4.017   7.328   9.687 -0.4743  0.5354 -0.4941
  903MOL0     C21834   4.053   7.318   9.547  0.2535  0.7140  0.0863
  903MOL0     C21835   4.102   7.293   9.432  0.7994  0.4049  0.0197
  903MOL0     C21836   3.432   7.375   9.964 -0.0240 -0.1440  0.2423
  903MOL0     C21837   3.326   7.400  10.042  0.5731 -0.1253 -0.7811
  903MOL0     H21838   3.093   7.590  10.463 -0.8639  0.6265  0.7398
  903MOL0     H21839   2.931   7.669  10.621 -0.1045  3.0681  1.5032
  903MOL0     H21840   2.737   8.047  10.548 -0.7120  0.5740  0.6897
  903MOL0     H21841   2.610   7.941  10.490  1.0877 -0.6145 -0.0091
  903MOL0     H21842   2.498   7.938  10.680 -0.4974 -0.5580 -0.2103
  903MOL0     H21843   2.651   7.953  10.783 -1.3987  2.4775  0.6685
  903MOL0     H21844   2.665   8.183  10.730 -0.3097  0.5470 -0.3422
  903MOL0     H21845   2.516   8.175  10.628 -0.3704 -0.9685 -1.0793
  903MOL0     H21846   2.518   8.128  10.919  0.4893  1.2339 -0.3660
  903MOL0     H21847   2.469   8.280  10.846  1.4243 -0.3881 -1.9371
  903MOL0     H21848   2.326   8.010  10.782 -4.4296  0.2309  0.4602
  903MOL0     H21849   2.280   8.130  10.910  0.8872  1.0723 -0.0547
  903MOL0     H21850   2.268   8.287  10.715  0.3584 -0.5721 -2.0638
  903MOL0     H21851   2.290   8.154  10.603 -1.5612 -1.0013  0.0059
  903MOL0     H21852   2.045   8.163  10.608 -0.1346  2.0539  0.9426
  903MOL0     H21853   2.090   8.028  10.698  1.6582  0.2209 -0.7499
  903MOL0     H21854   2.025   8.283  10.837 -1.3265  0.6400  0.7132
  903MOL0     H21855   2.048   8.142  10.922 -1.6427  1.5258  1.2407
  903MOL0     H21856   1.767   8.314  10.870  0.7046  0.2792  1.4880
  903MOL0     H21857   1.505   8.269  10.886 -0.0958  0.2731  2.5587
  903MOL0     H21858   1.471   8.134  10.777 -0.3444 -0.1454  0.9766
  903MOL0     H21859   1.523   8.117  11.085 -0.8302  1.2562  0.7746
  903MOL0     H21860   1.476   7.983  10.990 -1.8026 -0.5382  2.9856
  903MOL0     H21861   1.297   8.222  10.999 -1.2105 -0.8231 -3.8641
  903MOL0     H21862   1.314   8.096  11.126  3.0457 -0.4162  0.0785
  903MOL0     H21863   1.128   8.034  10.984 -0.4077 -0.7520  1.7359
  903MOL0     H21864   1.257   7.920  10.952 -1.3685 -0.2828 -0.9891
  903MOL0     H21865   1.200   8.058  10.534 -1.0997 -0.6106 -2.2243
  903MOL0     H21866   0.994   8.068  10.337 -0.8885  0.2784  1.8834
  903MOL0     H21867   1.141   7.963  10.327  0.4954  3.6015 -0.9980
  903MOL0     H21868   0.980   7.899  10.294  0.9048 -1.4453  2.4368
  903MOL0     H21869   0.746   7.412  10.512 -0.7301 -0.3792  1.0570
  903MOL0     H21870   0.550   7.292  10.438 -0.1910 -0.9380  1.4733
  903MOL0     H21871   0.378   7.248  10.267 -2.1037 -1.6774 -1.8042
  903MOL0     H21872   0.295   7.225  10.428  1.8685  1.5358  1.6511
  903MOL0     H21873   0.078   7.305  10.306 -1.2424  2.2763 -1.6977
  903MOL0     H21874   0.150   7.314  10.163 -1.9175 -0.8923  0.1822
  903MOL0     H21875   0.140   7.055  10.323  1.9575 -2.9145 -1.4290
  903MOL0     H21876   0.233   7.061  10.181  1.3922  1.2227 -0.0527
  903MOL0     H21877  -0.067   7.117  10.185  0.2637  0.0902  1.3256
  903MOL0     H21878   0.033   7.111  10.039 -0.0304 -1.5582  0.2167
  903MOL0     H21879   0.082   6.864  10.123 -0.7708 -0.6210  0.8929
  903MOL0     H21880  -0.077   6.898  10.049 -0.9228  1.1801  0.4587
  903MOL0     H21881   0.003   6.862  10.345 -0.3876  5.4897  0.6556
  903MOL0     H21882  -0.161   6.909  10.316  0.2166  0.4620  1.3748
  903MOL0     H21883  -0.047   6.675  10.166  2.6873  1.6902  2.0045
  903MOL0     H21884  -0.226   6.718  10.178 -0.7456  0.8369  1.2824
  903MOL0     H21885  -0.066   6.601  10.406 -0.4323  0.6568 -0.0289
  903MOL0     H21886  -0.194   6.528  10.306 -1.2108  0.4508  0.3589
  903MOL0     H21887   0.343   7.663  10.387  0.4055  0.4195 -0.3745
  903MOL0     H21888   0.538   7.782  10.506  1.6073  0.6743  1.9259
  903MOL0     H21889   0.888   7.728  10.748  1.5340 -2.0298  1.0279
  903MOL0     H21890   1.048   7.845  10.878 -1.0242 -2.3077 -0.2217
  903MOL0     H21891   2.803   7.946  10.322  0.6736  0.8049  0.1496
  903MOL0     H21892   2.959   7.883  10.181 -0.9383  1.3101  0.0762
  903MOL0     H21893   3.372   7.737  10.094  4.3373  0.7350 -0.8475
  903MOL0     H21894   3.569   7.682   9.962 -1.6624  0.1524 -0.2004
  903MOL0     H21895   3.667   7.281   9.971 -0.5417 -2.3784 -0.2728
  903MOL0     H21896   3.619   7.245   9.803  0.8966  0.4797  0.2020
  903MOL0     H21897   3.847   7.189   9.866 -0.1820  0.6545 -0.0248
  903MOL0     H21898   3.870   7.345   9.935 -0.2240  1.0521 -0.8575
  903MOL0     H21899   3.836   7.440   9.700  5.2977  2.3844  3.3416
  903MOL0     H21900   3.802   7.274   9.652 -3.6134  1.7449  0.3908
  903MOL0     H21901   4.060   7.250   9.751  2.5344  0.3922 -2.4730
  903MOL0     H21902   4.071   7.416   9.723 -0.6827  0.3946  0.1850
  903MOL0     H21903   4.139   7.273   9.333 -2.8128 -1.1792 -1.1777
  903MOL0     H21904   3.443   7.272   9.931 -0.0681 -0.0501 -0.0680
  903MOL0     H21905   3.247   7.330  10.064  0.9723  0.3127  2.7224
  904MOL0     O21906   8.751   2.317   8.190 -0.3694  0.0658  0.4625
  904MOL0     C21907   8.757   2.255   8.301 -0.4840 -0.3510  0.6609
  904MOL0     O21908   8.647   2.210   8.375  0.7349  0.1778  0.0299
  904MOL0     C21909   8.522   2.243   8.337  0.3266  1.2200  0.0102
  904MOL0     C21910   8.420   2.151   8.352  0.1078  0.9812 -0.5420
  904MOL0     C21911   8.292   2.180   8.319  0.7730  0.5600 -0.5995
  904MOL0     C21912   8.259   2.304   8.270  0.2064 -0.1131  0.8129
  904MOL0     O21913   8.136   2.342   8.224 -0.4528 -0.4296  0.2515
  904MOL0     C21914   8.022   2.256   8.243  0.1015 -0.7833  0.8097
  904MOL0     C21915   7.901   2.315   8.170 -0.1223 -0.3846  0.7205
  904MOL0     C21916   7.770   2.235   8.168 -1.1489  0.4635  0.1945
  904MOL0     C21917   7.654   2.316   8.095 -0.9727 -0.8372 -0.2108
  904MOL0     C21918   7.513   2.279   8.129  0.1587 -0.3975 -0.2764
  904MOL0     C21919   7.470   2.129   8.123  0.5040 -0.2070  0.4448
  904MOL0     C21920   7.366   2.096   8.231  0.0326 -0.0946 -0.4601
  904MOL0     C21921   7.291   1.964   8.217 -0.2802 -1.2045 -0.6371
  904MOL0     N21922   7.163   1.967   8.291 -0.6413  0.8054  0.3101
  904MOL0     C21923   7.075   2.069   8.292  0.3287 -0.0752  0.1933
  904MOL0     C21924   6.960   2.016   8.344 -0.0241  0.8158  1.1783
  904MOL0     C21925   6.839   2.099   8.386  0.9281 -0.1184 -0.3364
  904MOL0     C21926   6.805   2.202   8.278 -0.6368  0.2304  0.1783
  904MOL0     C21927   6.661   2.260   8.306  0.7062 -0.0671  0.2740
  904MOL0     C21928   6.556   2.174   8.249 -0.3275  0.5330  0.1740
  904MOL0     O21929   6.424   2.217   8.286  0.5316  0.7613  0.1200
  904MOL0     C21930   6.356   2.319   8.226  0.3480 -0.1916 -0.2390
  904MOL0     C21931   6.398   2.377   8.109 -0.5473 -0.9118 -0.5449
  904MOL0     C21932   6.316   2.474   8.041  0.0785  0.0059 -1.3195
  904MOL0     C21933   6.383   2.536   7.923 -0.2036  0.0901  0.0215
  904MOL0     C21934   6.186   2.515   8.102 -0.4397 -1.2198 -0.5906
  904MOL0     C21935   6.097   2.627   8.055  0.1173  0.0085  0.1900
  904MOL0     O21936   6.145   2.714   7.960 -0.3211  0.1667 -0.3318
  904MOL0     C21937   6.056   2.783   7.891 -1.0452  0.2723  0.4689
  904MOL0     C21938   6.050   2.756   7.757 -0.1172  0.1098 -0.4605
  904MOL0     C21939   5.965   2.827   7.668  0.8656  0.4560 -0.6017
  904MOL0     C21940   5.895   2.939   7.727 -0.5184  0.4392  0.9374
  904MOL0     O21941   5.838   3.030   7.643  0.3744  0.8308  0.8785
  904MOL0     C21942   5.696   3.033   7.624 -0.2253 -0.6489  0.4648
  904MOL0     C21943   5.665   3.157   7.534  0.1983 -0.9927 -0.1390
  904MOL0     C21944   5.586   3.259   7.617 -0.4215  1.0384  0.0416
  904MOL0     C21945   5.668   3.340   7.714 -0.6587  1.3345 -0.2057
  904MOL0     C21946   5.576   3.395   7.822 -0.3252  0.6412  0.1392
  904MOL0     C21947   5.655   3.483   7.919  0.3073  0.7277  0.4351
  904MOL0     C21948   5.559   3.523   8.026  0.1709  0.5455  0.3373
  904MOL0     C21949   5.422   3.569   7.977  1.0109 -0.0255  0.2069
  904MOL0    Cl21950   5.364   3.659   8.129  0.3504  0.1110 -0.1287
  904MOL0     C21951   5.906   2.974   7.862  1.3067 -0.1466 -0.6586
  904MOL0     C21952   5.984   2.891   7.945  0.6762 -0.2495 -0.1433
  904MOL0     O21953   5.984   2.632   8.107 -0.1581 -0.3697 -0.3257
  904MOL0     C21954   6.151   2.447   8.220 -0.0671 -0.5843  0.7433
  904MOL0     C21955   6.228   2.352   8.269 -0.6825  0.2000 -0.1975
  904MOL0     N21956   6.986   1.886   8.380  0.3132 -1.1704 -0.4313
  904MOL0     N21957   7.108   1.866   8.351 -0.2698 -0.4883 -0.1914
  904MOL0     C21958   8.358   2.402   8.256  0.2950  0.3888  0.3770
  904MOL0     C21959   8.491   2.372   8.298  0.3308 -0.3548 -0.6170
  904MOL0     C21960   8.893   2.222   8.354  0.1788 -0.0812 -0.0564
  904MOL0     C21961   9.003   2.297   8.312 -0.5003  0.1132 -0.7662
  904MOL0     C21962   9.137   2.261   8.341  0.5302  0.2195  0.0698
  904MOL0     C21963   9.162   2.141   8.425  0.4625 -0.3522  0.5109
  904MOL0     O21964   9.289   2.102   8.463  0.7574 -0.1185 -0.5050
  904MOL0     C21965   9.328   1.967   8.436  0.8863 -0.8945 -0.3757
  904MOL0     C21966   9.479   1.959   8.437  0.5987 -0.1546 -0.2601
  904MOL0     C21967   9.557   2.051   8.344  0.1437  0.3737 -0.4065
  904MOL0     C21968   9.694   1.986   8.316  0.2954 -0.8501  0.7573
  904MOL0     C21969   9.772   1.961   8.440 -0.4344  0.0676  0.8452
  904MOL0     C21970   9.839   1.932   8.529  1.2890 -0.0707 -0.3206
  904MOL0     C21971   9.047   2.074   8.477 -0.5567 -0.7672 -0.1008
  904MOL0     C21972   8.913   2.121   8.444  0.0115 -0.0210  0.3778
  904MOL0     H21973   8.450   2.061   8.405 -0.4455  0.6157 -0.8438
  904MOL0     H21974   8.212   2.111   8.345  0.3119  0.6944 -1.6321
  904MOL0     H21975   8.049   2.156   8.208  3.9667  0.2117  0.4691
  904MOL0     H21976   8.010   2.250   8.351 -1.0469  3.2188  1.0790
  904MOL0     H21977   7.871   2.407   8.222 -2.7979  1.5307 -3.6201
  904MOL0     H21978   7.927   2.346   8.068  1.5356 -0.7197  1.0158
  904MOL0     H21979   7.787   2.139   8.119 -1.3172 -0.2608  1.5085
  904MOL0     H21980   7.734   2.216   8.270  0.1885 -2.6964  0.2086
  904MOL0     H21981   7.665   2.420   8.126  1.5084 -0.6628 -1.4259
  904MOL0     H21982   7.668   2.300   7.987 -0.0307 -1.0909 -0.0626
  904MOL0     H21983   7.504   2.309   8.234 -0.6660 -0.0728 -0.4311
  904MOL0     H21984   7.440   2.341   8.077  0.1476 -0.0309  0.1757
  904MOL0     H21985   7.435   2.105   8.023 -0.4504 -0.6047  0.8627
  904MOL0     H21986   7.559   2.068   8.141  1.0135  0.5081  0.3861
  904MOL0     H21987   7.433   2.102   8.317  2.1166  3.8749 -2.1085
  904MOL0     H21988   7.294   2.177   8.240 -0.4349 -0.7664  3.4444
  904MOL0     H21989   7.344   1.873   8.243  0.5622 -0.5789 -0.1243
  904MOL0     H21990   7.285   1.951   8.108 -0.8234  3.0691 -1.3038
  904MOL0     H21991   7.092   2.174   8.267 -1.4054 -0.0856 -1.1620
  904MOL0     H21992   6.752   2.035   8.401  1.7411 -2.0127 -2.9231
  904MOL0     H21993   6.843   2.159   8.477 -1.2801  1.3211 -1.0822
  904MOL0     H21994   6.804   2.168   8.174  1.0801 -0.0131  0.2103
  904MOL0     H21995   6.883   2.278   8.286 -0.8342  0.5234 -0.6354
  904MOL0     H21996   6.657   2.359   8.262 -0.9259 -0.4899 -0.5987
  904MOL0     H21997   6.637   2.279   8.411 -1.4672  1.6800 -0.4683
  904MOL0     H21998   6.581   2.072   8.280  1.6471  1.5769  2.3688
  904MOL0     H21999   6.566   2.174   8.140 -0.7449  0.9175  0.1306
  904MOL0     H22000   6.494   2.351   8.067  0.6440  0.6535  1.0690
  904MOL0     H22001   6.328   2.515   7.831 -0.3148 -2.7991  0.6473
  904MOL0     H22002   6.371   2.645   7.931 -0.0461  0.0285  1.5112
  904MOL0     H22003   6.488   2.507   7.913 -0.8031 -1.5989 -2.0011
  904MOL0     H22004   6.105   2.670   7.720  0.9133  0.4958  0.1300
  904MOL0     H22005   5.952   2.800   7.564  2.7290 -1.7225 -0.3615
  904MOL0     H22006   5.666   2.944   7.569  0.2710 -1.2272  1.1099
  904MOL0     H22007   5.649   3.024   7.722 -0.5567 -2.4986  0.1730
  904MOL0     H22008   5.755   3.202   7.490 -1.8692  1.2359 -2.3943
  904MOL0     H22009   5.601   3.134   7.449 -0.7676  2.8172 -0.6010
  904MOL0     H22010   5.518   3.200   7.679 -0.7687  2.0969  0.7106
  904MOL0     H22011   5.522   3.323   7.554 -1.0174 -0.7568 -1.2575
  904MOL0     H22012   5.749   3.278   7.753 -0.9993 -1.9504 -4.0506
  904MOL0     H22013   5.710   3.426   7.662 -1.8462  1.3857 -1.1192
  904MOL0     H22014   5.522   3.316   7.875 -1.0655  0.3832 -0.9888
  904MOL0     H22015   5.498   3.453   7.773 -0.5603  2.1330  2.1271
  904MOL0     H22016   5.730   3.415   7.961  0.5644 -1.4823 -3.1460
  904MOL0     H22017   5.703   3.568   7.870  1.8081 -0.8333 -0.9826
  904MOL0     H22018   5.597   3.609   8.082  1.4642 -0.6762  1.4074
  904MOL0     H22019   5.546   3.443   8.100 -1.2200  0.7426  0.3455
  904MOL0     H22020   5.369   3.476   7.954  0.9934 -0.0580  0.3835
  904MOL0     H22021   5.421   3.637   7.890 -1.0265  2.2368  1.8816
  904MOL0     H22022   5.867   3.073   7.886  1.7604  0.0304 -0.6302
  904MOL0     H22023   5.991   2.921   8.049 -2.5936 -2.9798  1.0456
  904MOL0     H22024   6.060   2.470   8.274 -1.0321 -3.3712  0.4469
  904MOL0     H22025   6.201   2.302   8.361 -2.2858 -1.6814 -1.6049
  904MOL0     H22026   8.338   2.494   8.201  2.1664  0.3688 -0.4115
  904MOL0     H22027   8.564   2.449   8.279 -0.3191  0.1720 -1.0445
  904MOL0     H22028   8.987   2.389   8.258  3.8866  1.0229 -0.8013
  904MOL0     H22029   9.219   2.320   8.302  2.0488  0.1909  2.8982
  904MOL0     H22030   9.279   1.908   8.514  0.6656 -2.1448 -1.4292
  904MOL0     H22031   9.288   1.938   8.339 -1.4018 -1.5853  0.7053
  904MOL0     H22032   9.498   1.853   8.418 -1.2083 -0.1385 -2.6396
  904MOL0     H22033   9.520   1.986   8.534  1.0928  1.0542 -0.7870
  904MOL0     H22034   9.568   2.148   8.392  0.4573 -0.5319  1.4211
  904MOL0     H22035   9.497   2.053   8.253 -1.1259  1.5986  0.4219
  904MOL0     H22036   9.747   2.049   8.245 -0.6922 -0.0187  0.7361
  904MOL0     H22037   9.680   1.892   8.263  1.2606 -0.5215 -0.1050
  904MOL0     H22038   9.882   1.882   8.614  0.8513  1.1398  0.6438
  904MOL0     H22039   9.051   1.993   8.549 -0.8355  0.7764  1.7419
  904MOL0     H22040   8.830   2.065   8.484 -0.4421 -0.2452 -0.8203
  905MOL0     O22041   6.642   8.176   0.894 -0.0035  0.6586 -0.6330
  905MOL0     C22042   6.575   8.276   0.851 -0.6340  0.3416 -0.2340
  905MOL0     O22043   6.483   8.341   0.913 -0.1897 -0.8012  0.6490
  905MOL0     C22044   6.473   8.306   1.046 -0.2435  0.3737  0.3130
  905MOL0     C22045   6.505   8.393   1.148  0.4841  0.4788  0.1554
  905MOL0     C22046   6.473   8.380   1.285  0.7343 -0.3194 -0.6322
  905MOL0     C22047   6.409   8.256   1.327  0.6298 -0.9902 -0.2617
  905MOL0     O22048   6.378   8.233   1.460  0.1607  0.6852  0.0891
  905MOL0     C22049   6.240   8.228   1.497  0.2702  0.2823  1.3891
  905MOL0     C22050   6.254   8.175   1.642  0.0220  0.3732 -0.1762
  905MOL0     C22051   6.113   8.139   1.688 -0.1257 -0.4386  0.5317
  905MOL0     C22052   6.117   8.115   1.846 -0.7460 -0.4002 -0.1253
  905MOL0     C22053   5.988   8.055   1.905  0.2712  0.2309 -0.0035
  905MOL0     C22054   5.921   7.934   1.833  0.2382  0.0058 -0.4607
  905MOL0     C22055   5.793   7.898   1.911 -0.0638  0.1064  0.0007
  905MOL0     C22056   5.713   7.805   1.831  0.2198  0.5967  0.3221
  905MOL0     N22057   5.616   7.752   1.926  0.1812  0.2982 -0.1952
  905MOL0     C22058   5.524   7.820   2.009  0.1869  0.6094  0.3390
  905MOL0     C22059   5.454   7.720   2.062 -0.2231  0.0541  0.2513
  905MOL0     C22060   5.348   7.744   2.153 -0.0334  0.5417  0.3708
  905MOL0     C22061   5.226   7.754   2.062  0.7740  0.1257  0.1268
  905MOL0     C22062   5.109   7.829   2.137 -0.3921 -0.1996  0.2297
  905MOL0     C22063   4.995   7.855   2.037  0.0589 -0.1797 -0.7508
  905MOL0     O22064   4.873   7.873   2.112 -0.2686  0.2019  0.2463
  905MOL0     C22065   4.759   7.897   2.035 -0.8846 -0.0007  0.4628
  905MOL0     C22066   4.750   7.984   1.929  0.6833 -0.5352 -0.0917
  905MOL0     C22067   4.629   8.010   1.858  0.3360  0.1286 -0.9014
  905MOL0     C22068   4.625   8.128   1.756 -0.3362  0.0951 -0.0774
  905MOL0     C22069   4.511   7.937   1.906 -0.7204  0.1506  0.1099
  905MOL0     C22070   4.375   7.958   1.860  0.0561 -0.1263 -0.5061
  905MOL0     O22071   4.276   7.936   1.952 -0.2399  0.5672 -0.1459
  905MOL0     C22072   4.149   7.930   1.903 -0.5323 -0.3305  0.4092
  905MOL0     C22073   4.109   7.813   1.839 -0.6305  0.4678 -0.8554
  905MOL0     C22074   3.973   7.788   1.809 -0.6781 -0.0321 -0.1904
  905MOL0     C22075   3.879   7.890   1.831 -0.5661 -0.1456 -0.1227
  905MOL0     O22076   3.749   7.863   1.793  0.3286 -0.3202 -0.4126
  905MOL0     C22077   3.646   7.955   1.844 -1.0698  0.4439 -0.0978
  905MOL0     C22078   3.525   7.863   1.857 -0.1764  0.1629 -0.2921
  905MOL0     C22079   3.507   7.778   1.993  0.6501 -0.1763  0.5120
  905MOL0     C22080   3.623   7.678   2.035  0.4046 -0.2194 -0.4429
  905MOL0     C22081   3.747   7.746   2.109 -0.1299 -0.0313  0.7910
  905MOL0     C22082   3.859   7.638   2.113  0.1537 -0.2788  0.0358
  905MOL0     C22083   3.985   7.696   2.182  0.2291 -0.6119 -0.1405
  905MOL0     C22084   4.089   7.583   2.213  0.0450 -0.6538 -0.0158
  905MOL0    Cl22085   4.234   7.672   2.273  0.0538 -0.3591 -0.0583
  905MOL0     C22086   3.929   8.019   1.876  0.3400 -0.7452  0.3376
  905MOL0     C22087   4.058   8.039   1.912 -0.0450  0.6479 -0.2682
  905MOL0     O22088   4.358   7.985   1.746  0.2826  0.1657  0.6791
  905MOL0     C22089   4.526   7.832   2.003  0.3845 -0.3502  0.2586
  905MOL0     C22090   4.654   7.809   2.061  0.0657 -0.4270  0.6814
  905MOL0     N22091   5.489   7.599   2.008 -0.1814  0.5003 -0.3899
  905MOL0     N22092   5.592   7.614   1.930  0.1187  0.2414 -0.0744
  905MOL0     C22093   6.380   8.160   1.229  0.0761  0.7196 -0.7071
  905MOL0     C22094   6.404   8.192   1.093  0.9070  0.0891  0.8174
  905MOL0     C22095   6.616   8.335   0.724  0.0554  0.1532 -0.7414
  905MOL0     C22096   6.550   8.448   0.679  0.4254 -0.1059  0.5057
  905MOL0     C22097   6.598   8.504   0.557  0.4674 -0.5969 -0.1557
  905MOL0     C22098   6.697   8.446   0.484 -0.2750 -0.0380 -0.0624
  905MOL0     O22099   6.729   8.502   0.362  0.0113  0.0496  0.4922
  905MOL0     C22100   6.847   8.460   0.287  1.0456 -1.2507  0.3159
  905MOL0     C22101   6.971   8.525   0.349  0.2119 -1.0930 -0.1798
  905MOL0     C22102   7.089   8.482   0.270 -1.2054 -0.6456  0.1058
  905MOL0     C22103   7.226   8.511   0.341 -0.0539  0.6903  0.2398
  905MOL0     C22104   7.266   8.645   0.348  0.2212  0.4114  0.2646
  905MOL0     C22105   7.288   8.762   0.343  0.0406  0.2602 -0.3685
  905MOL0     C22106   6.749   8.324   0.522 -0.2294 -0.3211 -0.4923
  905MOL0     C22107   6.723   8.279   0.651 -0.5577  1.5549  0.6810
  905MOL0     H22108   6.555   8.485   1.122 -0.4863  1.1869  0.7187
  905MOL0     H22109   6.481   8.464   1.354 -2.6942  2.0800 -2.8732
  905MOL0     H22110   6.186   8.323   1.493  0.6785  0.4732 -0.3013
  905MOL0     H22111   6.185   8.153   1.440  0.3470  0.1219  1.5241
  905MOL0     H22112   6.317   8.086   1.640  0.4398  0.6610 -2.9790
  905MOL0     H22113   6.305   8.240   1.714 -0.9542 -2.0871  2.9517
  905MOL0     H22114   6.051   8.227   1.667 -1.7204 -1.9225 -1.3293
  905MOL0     H22115   6.079   8.048   1.638 -2.0670 -0.3456  1.5851
  905MOL0     H22116   6.199   8.043   1.855 -0.1726  0.1308 -0.9452
  905MOL0     H22117   6.141   8.211   1.892  0.0478  0.1322 -1.5887
  905MOL0     H22118   6.006   8.031   2.010  0.7318 -3.1669 -0.7623
  905MOL0     H22119   5.911   8.133   1.903 -0.6667 -0.6685 -0.2746
  905MOL0     H22120   5.898   7.961   1.729  0.6594 -0.5554 -0.7080
  905MOL0     H22121   5.994   7.853   1.835 -0.4802 -0.6719 -0.9279
  905MOL0     H22122   5.819   7.855   2.008  0.4299  0.0084 -0.1720
  905MOL0     H22123   5.742   7.992   1.937 -1.2377 -0.5108 -0.0081
  905MOL0     H22124   5.776   7.724   1.793 -2.2014 -0.3635 -1.9714
  905MOL0     H22125   5.669   7.854   1.744 -0.3748 -0.6855 -0.1386
  905MOL0     H22126   5.508   7.926   2.025  1.6740  1.1181 -1.2059
  905MOL0     H22127   5.333   7.669   2.231  3.7847 -0.8607 -0.0248
  905MOL0     H22128   5.359   7.839   2.205  1.8221  0.5306  0.0668
  905MOL0     H22129   5.197   7.651   2.035 -0.5859  0.7420 -0.9129
  905MOL0     H22130   5.252   7.808   1.971 -0.3538  0.0787 -0.2429
  905MOL0     H22131   5.147   7.929   2.161  0.4732 -0.9865  2.3599
  905MOL0     H22132   5.084   7.783   2.233  2.2667 -0.5586  0.8196
  905MOL0     H22133   4.980   7.770   1.970 -1.5312 -0.2037 -0.3885
  905MOL0     H22134   5.007   7.944   1.975 -0.4038  0.1763 -0.3393
  905MOL0     H22135   4.831   8.057   1.924 -1.5022  2.0584 -0.0733
  905MOL0     H22136   4.576   8.217   1.798  0.1620  0.7817 -0.8981
  905MOL0     H22137   4.723   8.175   1.744  0.1222  0.3585  3.5344
  905MOL0     H22138   4.577   8.097   1.663  0.4452 -1.9416  0.1626
  905MOL0     H22139   4.184   7.735   1.833  2.6651  3.0478  2.3349
  905MOL0     H22140   3.933   7.694   1.771 -0.8475 -0.8653  1.8841
  905MOL0     H22141   3.661   7.996   1.944 -1.7383  1.4352 -0.3874
  905MOL0     H22142   3.632   8.033   1.768 -2.2772 -0.6647 -1.0588
  905MOL0     H22143   3.437   7.928   1.849 -1.2789 -1.3824 -1.4392
  905MOL0     H22144   3.528   7.795   1.771  3.0338 -0.2360  0.0442
  905MOL0     H22145   3.417   7.721   1.967  2.1253 -2.2071 -0.3940
  905MOL0     H22146   3.494   7.846   2.078  2.5451  2.1412 -0.9404
  905MOL0     H22147   3.583   7.600   2.100  2.4897  0.4822  1.8302
  905MOL0     H22148   3.657   7.621   1.948  0.6954 -0.0620 -0.4341
  905MOL0     H22149   3.716   7.783   2.207 -0.3376  2.1870 -0.0667
  905MOL0     H22150   3.785   7.831   2.051  0.1667  0.2028  1.3292
  905MOL0     H22151   3.820   7.565   2.184 -2.5838  1.0565  0.0342
  905MOL0     H22152   3.868   7.597   2.012 -3.0720 -1.8167  0.2753
  905MOL0     H22153   3.946   7.733   2.277  0.7552  0.0352 -0.1741
  905MOL0     H22154   4.022   7.781   2.125 -1.2573  0.3546  0.2799
  905MOL0     H22155   4.119   7.531   2.121  0.7308 -0.8171  0.2982
  905MOL0     H22156   4.048   7.512   2.286  1.8461 -1.3271  0.3866
  905MOL0     H22157   3.867   8.107   1.864  0.7213 -0.8328 -3.4739
  905MOL0     H22158   4.092   8.132   1.956 -0.4809  0.2389  0.9830
  905MOL0     H22159   4.441   7.778   2.043  0.3333 -0.8953 -0.5819
  905MOL0     H22160   4.668   7.731   2.135 -2.3305 -1.2975  0.2997
  905MOL0     H22161   6.341   8.063   1.260  3.1800 -0.8747 -1.3994
  905MOL0     H22162   6.358   8.122   1.023  0.1859  0.9731  0.3872
  905MOL0     H22163   6.467   8.491   0.734  0.0301 -0.7794  0.4502
  905MOL0     H22164   6.556   8.600   0.532 -3.4363 -1.8462  0.9463
  905MOL0     H22165   6.856   8.351   0.283  0.0843 -1.2914 -1.2625
  905MOL0     H22166   6.840   8.509   0.190  1.4171  1.5283  1.5764
  905MOL0     H22167   6.982   8.486   0.451 -3.1973 -1.8417  0.0377
  905MOL0     H22168   6.954   8.633   0.348  2.3229 -0.7061  0.6898
  905MOL0     H22169   7.089   8.527   0.171 -1.8063  0.7033  0.6952
  905MOL0     H22170   7.089   8.374   0.257 -0.6085 -0.9843  2.3826
  905MOL0     H22171   7.305   8.454   0.291 -0.9908 -1.0583  0.7058
  905MOL0     H22172   7.223   8.473   0.444 -2.7775 -1.2549 -0.4647
  905MOL0     H22173   7.307   8.868   0.351  1.1960 -0.0431  1.5107
  905MOL0     H22174   6.814   8.263   0.460  0.4077  0.7309 -0.8811
  905MOL0     H22175   6.785   8.197   0.686 -0.0652  1.2099 -0.9406
  906MOL0     O22176   3.024   0.710   9.442 -0.2432 -0.0120  0.6178
  906MOL0     C22177   3.075   0.652   9.536  0.1962  0.3393  0.4616
  906MOL0     O22178   3.006   0.587   9.635 -0.0095 -0.6086  0.0183
  906MOL0     C22179   2.867   0.606   9.638  0.4177  0.3649 -0.3492
  906MOL0     C22180   2.781   0.501   9.660  0.5298  0.9885  0.6607
  906MOL0     C22181   2.643   0.508   9.659 -1.3698 -0.5679  0.3684
  906MOL0     C22182   2.587   0.629   9.628  0.3434 -0.7631  0.1028
  906MOL0     O22183   2.453   0.654   9.611 -0.0804 -0.3480  0.0635
  906MOL0     C22184   2.368   0.577   9.697  0.2051 -0.2699 -0.0309
  906MOL0     C22185   2.231   0.644   9.676 -0.8319 -0.0418 -0.1777
  906MOL0     C22186   2.125   0.544   9.722 -0.1173  0.5134 -0.2885
  906MOL0     C22187   1.984   0.584   9.695  0.0169  0.6559 -0.4976
  906MOL0     C22188   1.880   0.484   9.743 -0.3237  0.0495  0.4489
  906MOL0     C22189   1.753   0.541   9.792 -0.7059 -0.7674 -0.0239
  906MOL0     C22190   1.658   0.436   9.839  0.4626 -0.1794 -0.2223
  906MOL0     C22191   1.587   0.363   9.717  0.2787 -0.7892  0.4194
  906MOL0     N22192   1.480   0.272   9.751  0.7391 -0.0257 -0.3053
  906MOL0     C22193   1.367   0.285   9.830 -0.2783 -1.1459 -0.0706
  906MOL0     C22194   1.307   0.164   9.830  0.4784 -0.2969  0.2662
  906MOL0     C22195   1.190   0.111   9.911 -0.1705 -0.5233  0.6495
  906MOL0     C22196   1.237   0.032  10.035 -0.1656 -0.2202  0.6936
  906MOL0     C22197   1.135   0.010  10.146  0.2264 -0.5764 -0.7304
  906MOL0     C22198   1.021  -0.080  10.105  0.8916  0.2846 -0.0255
  906MOL0     O22199   1.053  -0.217  10.068  0.0682  0.1267  0.5712
  906MOL0     C22200   0.948  -0.301  10.106 -0.1063 -0.2678 -0.1385
  906MOL0     C22201   0.965  -0.403  10.207  0.3871 -0.2797  0.5423
  906MOL0     C22202   0.861  -0.484  10.250 -0.6121  0.2959 -0.2889
  906MOL0     C22203   0.891  -0.578  10.370 -0.6060 -0.4513  0.5913
  906MOL0     C22204   0.734  -0.478  10.191 -0.4173  0.7202 -0.9461
  906MOL0     C22205   0.623  -0.574  10.210  0.5777  0.5864  0.0938
  906MOL0     O22206   0.504  -0.552  10.143  0.4310  0.1935  0.6002
  906MOL0     C22207   0.388  -0.608  10.188  0.7977  0.1104 -0.1017
  906MOL0     C22208   0.291  -0.614  10.097  0.3125 -0.6804  0.7959
  906MOL0     C22209   0.175  -0.679  10.138 -0.4828  0.6235  0.3251
  906MOL0     C22210   0.148  -0.725  10.269 -0.5194  0.6045 -0.0132
  906MOL0     O22211   0.019  -0.773  10.305 -0.6722  0.1416  0.5415
  906MOL0     C22212   0.020  -0.894  10.386  0.4391 -0.1560 -0.3139
  906MOL0     C22213  -0.106  -0.966  10.338  1.0702 -0.0900  0.0853
  906MOL0     C22214  -0.113  -1.109  10.399 -0.4037 -0.2293  0.0919
  906MOL0     C22215  -0.261  -1.166  10.408  0.2281 -0.1461  0.2784
  906MOL0     C22216  -0.241  -1.307  10.466  0.4131  0.6162 -0.6702
  906MOL0     C22217  -0.377  -1.358  10.526 -0.1030 -0.6834  0.3076
  906MOL0     C22218  -0.483  -1.380  10.419 -1.3480 -0.6662  0.7857
  906MOL0     C22219  -0.622  -1.374  10.483  0.1244 -0.8038 -0.3114
  906MOL0    Cl22220  -0.650  -1.487  10.620  0.8737 -0.1141 -0.0732
  906MOL0     C22221   0.240  -0.707  10.361 -1.3419  0.6467 -1.0732
  906MOL0     C22222   0.361  -0.652  10.322  0.3987 -0.6711 -0.4823
  906MOL0     O22223   0.647  -0.674  10.272  0.3248 -0.4923  0.0858
  906MOL0     C22224   0.716  -0.367  10.106 -0.1289  0.6366 -0.5174
  906MOL0     C22225   0.815  -0.287  10.064  0.0555  0.3278  0.7279
  906MOL0     N22226   1.366   0.083   9.735  0.1965  0.0706 -0.8739
  906MOL0     N22227   1.476   0.148   9.707 -0.0792 -0.1330  0.4838
  906MOL0     C22228   2.667   0.740   9.598 -0.0409  0.8106 -0.3999
  906MOL0     C22229   2.804   0.730   9.611 -0.0417  0.1364  0.0385
  906MOL0     C22230   3.225   0.637   9.532  0.6519 -0.4055 -0.2320
  906MOL0     C22231   3.284   0.584   9.651  0.2353  0.0737 -0.9541
  906MOL0     C22232   3.424   0.567   9.660 -1.1010 -0.0677 -0.2305
  906MOL0     C22233   3.505   0.620   9.551  0.4383 -0.1283  0.0797
  906MOL0     O22234   3.639   0.607   9.524 -0.4409 -0.5662  0.3661
  906MOL0     C22235   3.711   0.517   9.610 -0.0446 -0.0198 -0.4618
  906MOL0     C22236   3.715   0.369   9.569 -0.3430  0.0016 -0.8024
  906MOL0     C22237   3.764   0.284   9.688 -0.3503 -0.0839 -0.0131
  906MOL0     C22238   3.901   0.211   9.656 -0.4481  0.4513  0.0016
  906MOL0     C22239   4.008   0.309   9.651 -0.1855  0.8305  0.3455
  906MOL0     C22240   4.097   0.392   9.636 -0.3528  0.4105 -0.0318
  906MOL0     C22241   3.445   0.687   9.444  0.6060  0.4574  0.5715
  906MOL0     C22242   3.306   0.679   9.428  0.1636 -0.3107 -0.4373
  906MOL0     H22243   2.819   0.403   9.684 -0.0722 -0.1425 -2.5033
  906MOL0     H22244   2.602   0.412   9.690  2.3746 -1.3849  3.5595
  906MOL0     H22245   2.369   0.477   9.652  0.9934  0.3760 -1.5003
  906MOL0     H22246   2.387   0.581   9.804 -3.3459  0.2615  0.6980
  906MOL0     H22247   2.227   0.730   9.743 -0.3876  0.0375 -0.2492
  906MOL0     H22248   2.224   0.672   9.571  1.9172 -1.1892 -0.7436
  906MOL0     H22249   2.133   0.454   9.661  0.2244  1.1881 -1.2611
  906MOL0     H22250   2.138   0.511   9.826 -0.7519 -2.7522 -1.1306
  906MOL0     H22251   1.960   0.680   9.741  0.7645  0.6819 -0.1550
  906MOL0     H22252   1.968   0.611   9.590 -2.4395  2.9491  0.3325
  906MOL0     H22253   1.868   0.420   9.655  1.2956 -1.8646  1.5386
  906MOL0     H22254   1.923   0.430   9.828 -2.2032  1.4534  2.3868
  906MOL0     H22255   1.782   0.607   9.874  1.0208  2.1048 -2.7394
  906MOL0     H22256   1.717   0.607   9.713 -1.4041  0.6512  1.4274
  906MOL0     H22257   1.711   0.358   9.895  1.4735  0.8510  0.2956
  906MOL0     H22258   1.584   0.469   9.912  0.9690 -1.3192  0.8386
  906MOL0     H22259   1.669   0.315   9.663  2.1088  2.5732 -0.1005
  906MOL0     H22260   1.553   0.446   9.655  2.2562  0.9685  1.5602
  906MOL0     H22261   1.324   0.370   9.881  0.9292 -0.9471  0.6541
  906MOL0     H22262   1.130   0.197   9.941 -1.2888 -1.4386  1.1297
  906MOL0     H22263   1.132   0.049   9.843 -1.2959  1.4226 -0.2436
  906MOL0     H22264   1.321   0.090  10.074 -0.6681  1.4856 -0.5961
  906MOL0     H22265   1.279  -0.060   9.994  2.4473  0.1084  2.4349
  906MOL0     H22266   1.108   0.105  10.192  0.3295 -1.0573  0.3373
  906MOL0     H22267   1.178  -0.037  10.234  1.7522 -0.9947 -1.6641
  906MOL0     H22268   0.977  -0.043  10.012  2.7020  1.2545 -0.5394
  906MOL0     H22269   0.955  -0.084  10.192  0.8292  0.7504 -0.0503
  906MOL0     H22270   1.060  -0.407  10.260  1.2779  2.8098 -0.6063
  906MOL0     H22271   0.990  -0.562  10.414 -0.3072  0.9933 -0.5526
  906MOL0     H22272   0.814  -0.567  10.447  0.0213 -2.1402  1.5314
  906MOL0     H22273   0.899  -0.681  10.333 -1.6193  0.4484 -2.4476
  906MOL0     H22274   0.304  -0.568  10.000  0.1425  0.4026  1.2700
  906MOL0     H22275   0.103  -0.707  10.062  0.8770 -1.7059 -0.2217
  906MOL0     H22276   0.100  -0.965  10.364 -0.2563 -0.5477 -1.6512
  906MOL0     H22277   0.014  -0.866  10.492  2.4964  0.9241 -0.4257
  906MOL0     H22278  -0.187  -0.899  10.368 -1.3861 -2.8541 -0.0164
  906MOL0     H22279  -0.105  -0.960  10.228  1.9366  0.2919  0.1007
  906MOL0     H22280  -0.062  -1.098  10.496  0.1155 -0.4128 -0.1576
  906MOL0     H22281  -0.048  -1.173  10.339  0.2303 -0.7932  1.3392
  906MOL0     H22282  -0.324  -1.098  10.466  1.9169  1.0304  0.8086
  906MOL0     H22283  -0.300  -1.180  10.306  1.0158  1.3224 -0.2648
  906MOL0     H22284  -0.163  -1.316  10.542 -1.0997  0.3657  0.9075
  906MOL0     H22285  -0.216  -1.377  10.385  2.3823 -2.1588  2.0954
  906MOL0     H22286  -0.360  -1.438  10.599 -0.2382 -0.1021  0.9891
  906MOL0     H22287  -0.417  -1.280  10.592  1.9133  1.9874 -1.3908
  906MOL0     H22288  -0.477  -1.472  10.360 -2.1131 -0.8451  0.9703
  906MOL0     H22289  -0.479  -1.291  10.356 -1.2380 -1.5714 -0.5247
  906MOL0     H22290  -0.693  -1.379  10.400  2.3686 -0.1513 -2.3785
  906MOL0     H22291  -0.632  -1.272  10.523  1.4482 -0.5940 -0.4713
  906MOL0     H22292   0.215  -0.734  10.463 -2.7331 -1.0278 -1.8103
  906MOL0     H22293   0.441  -0.636  10.393  1.3500 -0.3630 -1.5860
  906MOL0     H22294   0.616  -0.364  10.064 -0.7450  0.8162  0.9057
  906MOL0     H22295   0.794  -0.208   9.994  0.4625  0.0571  0.2935
  906MOL0     H22296   2.624   0.837   9.572 -0.4058  0.4282 -1.2638
  906MOL0     H22297   2.867   0.814   9.583  0.5273 -0.9564 -2.2225
  906MOL0     H22298   3.225   0.562   9.740  0.7231 -0.2016 -0.6943
  906MOL0     H22299   3.476   0.526   9.745  0.4775  0.0192 -1.1226
  906MOL0     H22300   3.813   0.555   9.613  0.0352  0.0099 -2.2211
  906MOL0     H22301   3.675   0.520   9.713  0.6797 -2.6721 -0.0766
  906MOL0     H22302   3.792   0.362   9.491  2.6093 -2.4334  2.0314
  906MOL0     H22303   3.615   0.337   9.538 -0.5253  1.8748 -2.2730
  906MOL0     H22304   3.687   0.209   9.710 -0.7066  0.3750  0.3278
  906MOL0     H22305   3.780   0.349   9.774  1.3850 -0.0598 -0.3128
  906MOL0     H22306   3.889   0.144   9.571 -1.1273  1.9780 -1.1470
  906MOL0     H22307   3.932   0.151   9.742  1.0783  1.9276  0.5368
  906MOL0     H22308   4.168   0.467   9.609  1.8424 -0.6360  2.3891
  906MOL0     H22309   3.491   0.726   9.354  0.1131 -0.9930 -0.3480
  906MOL0     H22310   3.249   0.718   9.344 -0.1206  0.6996  0.2118
  907MOL0     O22311   0.484  10.495   4.078 -0.5772 -0.1968  0.6834
  907MOL0     C22312   0.570  10.483   4.166  0.4979 -0.7821 -0.8617
  907MOL0     O22313   0.547  10.423   4.287 -0.2709 -0.4738 -0.4782
  907MOL0     C22314   0.413  10.408   4.329 -1.2741  0.0028 -0.7184
  907MOL0     C22315   0.402  10.287   4.407  0.2823 -0.8146  0.2055
  907MOL0     C22316   0.275  10.248   4.447  0.1515 -0.5307 -0.0009
  907MOL0     C22317   0.161  10.323   4.418  0.5924 -0.5234 -0.8461
  907MOL0     O22318   0.029  10.301   4.462 -0.1897 -0.9970  0.5067
  907MOL0     C22319   0.013  10.181   4.535 -0.7043  0.5756  0.0610
  907MOL0     C22320  -0.137  10.152   4.557 -0.3633 -0.2566 -0.1431
  907MOL0     C22321  -0.155  10.006   4.558  0.1874  0.2301 -0.7581
  907MOL0     C22322  -0.295   9.962   4.564  1.1264 -0.5473 -0.2346
  907MOL0     C22323  -0.316   9.818   4.602  0.2794  0.0436  0.5026
  907MOL0     C22324  -0.461   9.800   4.647 -0.3596 -0.4668 -0.0958
  907MOL0     C22325  -0.509   9.655   4.643 -0.2306  0.3653 -0.1459
  907MOL0     C22326  -0.663   9.648   4.632 -0.1269  0.2075  0.0133
  907MOL0     N22327  -0.700   9.507   4.653  0.1018 -1.2173  0.0796
  907MOL0     C22328  -0.719   9.448   4.772 -0.2126 -0.2235  1.1690
  907MOL0     C22329  -0.759   9.324   4.746 -0.1722  0.6135 -0.6165
  907MOL0     C22330  -0.811   9.217   4.839 -0.6794  0.7647  0.4666
  907MOL0     C22331  -0.931   9.256   4.920  0.0948  0.1606 -0.3716
  907MOL0     C22332  -1.067   9.260   4.837 -0.0327 -0.3556 -0.4437
  907MOL0     C22333  -1.140   9.122   4.835 -0.2879  1.4096  0.2876
  907MOL0     O22334  -1.263   9.130   4.769  0.2195 -0.3315 -0.0820
  907MOL0     C22335  -1.369   9.051   4.807 -0.0875 -0.1339 -0.2504
  907MOL0     C22336  -1.359   8.911   4.833 -0.0813 -0.4438 -0.2078
  907MOL0     C22337  -1.470   8.834   4.877 -1.0129 -0.5895  0.4924
  907MOL0     C22338  -1.435   8.696   4.923  0.1096  0.5123  0.8302
  907MOL0     C22339  -1.596   8.894   4.871 -0.2206  0.0007  0.8597
  907MOL0     C22340  -1.723   8.829   4.912 -0.2500  0.5794  0.6926
  907MOL0     O22341  -1.828   8.915   4.931  0.3476  0.4123 -0.1537
  907MOL0     C22342  -1.944   8.852   4.937  0.0669  0.1404  0.1422
  907MOL0     C22343  -2.016   8.873   5.054  0.0982  0.0896  0.5516
  907MOL0     C22344  -2.149   8.814   5.060 -0.7116 -0.7127 -0.9345
  907MOL0     C22345  -2.215   8.761   4.948  0.9932 -0.5091 -1.2569
  907MOL0     O22346  -2.348   8.708   4.951  0.1894 -0.6097  0.3191
  907MOL0     C22347  -2.420   8.676   5.071 -0.4070  0.2277 -0.4655
  907MOL0     C22348  -2.536   8.574   5.051 -0.4911  0.0237  0.0989
  907MOL0     C22349  -2.643   8.579   5.150 -0.3946 -0.1511 -0.0871
  907MOL0     C22350  -2.740   8.460   5.120 -0.2625 -0.1966  0.2208
  907MOL0     C22351  -2.880   8.478   5.174 -0.0253 -0.6097 -0.3302
  907MOL0     C22352  -2.961   8.346   5.174 -0.4320 -1.1114  0.4967
  907MOL0     C22353  -3.100   8.358   5.238 -0.2502  0.5957 -0.5038
  907MOL0     C22354  -3.091   8.352   5.393  0.0381 -0.3917 -0.7953
  907MOL0    Cl22355  -3.260   8.377   5.451 -0.0062 -0.2427 -0.0501
  907MOL0     C22356  -2.142   8.743   4.833  0.3582 -0.2419  0.6988
  907MOL0     C22357  -2.005   8.778   4.829 -0.0483 -0.3229  0.3071
  907MOL0     O22358  -1.724   8.699   4.917 -0.5094  0.0557  0.0261
  907MOL0     C22359  -1.602   9.029   4.838  1.2971 -0.1640  0.0666
  907MOL0     C22360  -1.497   9.108   4.817 -0.1008  0.1436 -0.4114
  907MOL0     N22361  -0.758   9.309   4.611 -0.3039  0.6843  0.2105
  907MOL0     N22362  -0.728   9.420   4.559  0.5169 -0.1977  0.7389
  907MOL0     C22363   0.178  10.439   4.348 -0.1516 -0.1282  0.4990
  907MOL0     C22364   0.303  10.484   4.308  0.7364  0.1980 -0.4677
  907MOL0     C22365   0.709  10.512   4.132  0.1320  0.4227  0.7475
  907MOL0     C22366   0.809  10.464   4.216 -0.5568 -0.0539 -0.9791
  907MOL0     C22367   0.944  10.520   4.209  0.3048  0.2951 -0.4866
  907MOL0     C22368   0.974  10.608   4.107  0.1534  0.8819 -0.2689
  907MOL0     O22369   1.094  10.660   4.096 -0.7408 -0.0602  0.5119
  907MOL0     C22370   1.187  10.653   4.212 -0.1587  0.0709  0.2898
  907MOL0     C22371   1.333  10.720   4.191 -0.0253 -0.2322 -0.9857
  907MOL0     C22372   1.393  10.683   4.052 -0.6293 -0.0604 -0.3602
  907MOL0     C22373   1.531  10.753   4.047 -0.6000  0.1770  0.0521
  907MOL0     C22374   1.621  10.681   3.958 -0.0628  0.4876  0.3313
  907MOL0     C22375   1.692  10.594   3.906  0.4474  0.4927 -0.5839
  907MOL0     C22376   0.881  10.639   4.011  0.0528 -0.4461 -0.0423
  907MOL0     C22377   0.746  10.596   4.027 -0.6069 -0.3723 -0.0471
  907MOL0     H22378   0.491  10.230   4.431  1.3418  1.3651  1.8409
  907MOL0     H22379   0.265  10.152   4.496 -2.4392 -0.3808 -0.0983
  907MOL0     H22380   0.048  10.092   4.483 -0.5996  0.1387  0.8618
  907MOL0     H22381   0.058  10.200   4.633  0.9944  4.9848 -1.3051
  907MOL0     H22382  -0.165  10.198   4.652 -1.1894 -0.5343 -0.2464
  907MOL0     H22383  -0.187  10.207   4.476  0.0969  2.6288  1.4203
  907MOL0     H22384  -0.109   9.958   4.471  1.4020 -0.2753  0.1338
  907MOL0     H22385  -0.106   9.971   4.649  1.6495  0.3960 -1.4502
  907MOL0     H22386  -0.346  10.025   4.638  2.7009 -0.1405  0.5445
  907MOL0     H22387  -0.338   9.972   4.464  2.2968 -1.1898 -0.8125
  907MOL0     H22388  -0.307   9.758   4.511 -2.1535 -1.1102  0.9288
  907MOL0     H22389  -0.244   9.780   4.675 -0.3965 -2.5365 -0.0375
  907MOL0     H22390  -0.474   9.845   4.746  1.1244 -0.7233  0.2318
  907MOL0     H22391  -0.534   9.857   4.588 -1.7260 -0.2584  1.6989
  907MOL0     H22392  -0.469   9.616   4.549  0.7411 -1.4435  0.9550
  907MOL0     H22393  -0.469   9.595   4.725  0.3919  0.2940 -0.4897
  907MOL0     H22394  -0.696   9.675   4.531  1.9607  0.2406 -0.7063
  907MOL0     H22395  -0.705   9.716   4.706 -0.2067  0.4050 -0.2106
  907MOL0     H22396  -0.719   9.501   4.867 -1.2615  4.2389 -1.0198
  907MOL0     H22397  -0.835   9.130   4.777 -0.2298  2.1342 -1.6946
  907MOL0     H22398  -0.731   9.195   4.910 -0.8940 -1.2921  0.1569
  907MOL0     H22399  -0.920   9.361   4.949  2.6783  0.3084 -1.5653
  907MOL0     H22400  -0.944   9.189   5.006 -0.2594  2.2521  1.2971
  907MOL0     H22401  -1.042   9.292   4.735  0.8246  0.1787 -0.0769
  907MOL0     H22402  -1.133   9.339   4.872  1.3060  0.3151  0.6557
  907MOL0     H22403  -1.154   9.081   4.936 -3.3793  0.1021 -0.5787
  907MOL0     H22404  -1.082   9.045   4.784 -0.6427  1.3076  0.0399
  907MOL0     H22405  -1.264   8.858   4.822 -0.0302 -0.5957  0.8297
  907MOL0     H22406  -1.327   8.687   4.935  0.0922  0.2873  0.8244
  907MOL0     H22407  -1.483   8.662   5.015 -0.7459  1.4543  0.7527
  907MOL0     H22408  -1.468   8.626   4.846  0.4514 -0.0039  1.1475
  907MOL0     H22409  -1.973   8.926   5.138  1.7398 -0.1324 -0.0996
  907MOL0     H22410  -2.193   8.833   5.157  1.4784  2.1008 -0.3393
  907MOL0     H22411  -2.354   8.647   5.154  1.7329  1.6069 -1.5889
  907MOL0     H22412  -2.478   8.763   5.102 -0.2426 -0.2707  1.3304
  907MOL0     H22413  -2.584   8.590   4.954 -1.7924  0.3761  0.7920
  907MOL0     H22414  -2.482   8.478   5.050 -1.6609 -0.6739  1.3039
  907MOL0     H22415  -2.708   8.667   5.151 -0.7027 -0.3700  1.3226
  907MOL0     H22416  -2.606   8.570   5.252 -1.4564  0.4981  0.3747
  907MOL0     H22417  -2.759   8.428   5.018 -2.2313 -2.2061  1.1404
  907MOL0     H22418  -2.705   8.366   5.163 -0.8374  0.8014  3.1239
  907MOL0     H22419  -2.944   8.550   5.123  1.5506  2.2352  1.4657
  907MOL0     H22420  -2.875   8.519   5.275  2.6026 -1.3082 -0.1109
  907MOL0     H22421  -2.974   8.317   5.069  0.5780  0.1023  0.0134
  907MOL0     H22422  -2.907   8.268   5.228  2.6501 -1.3309 -2.5478
  907MOL0     H22423  -3.167   8.275   5.212  0.5556 -0.7572  1.4187
  907MOL0     H22424  -3.147   8.452   5.209  1.8741  2.0813  0.6521
  907MOL0     H22425  -3.028   8.426   5.442 -1.4046  0.1920  0.2121
  907MOL0     H22426  -3.054   8.254   5.425 -0.9722 -0.7652 -0.7431
  907MOL0     H22427  -2.200   8.701   4.751 -1.3127  4.1322 -0.6543
  907MOL0     H22428  -1.942   8.761   4.742 -2.1717 -1.3276 -1.0931
  907MOL0     H22429  -1.700   9.073   4.821  1.2196 -0.3157  0.1176
  907MOL0     H22430  -1.511   9.208   4.775  1.0486 -0.3195 -2.0029
  907MOL0     H22431   0.095  10.501   4.316  0.4249 -0.2370 -1.3031
  907MOL0     H22432   0.303  10.581   4.258 -2.3096  1.3593  1.4400
  907MOL0     H22433   0.790  10.396   4.298 -2.0275  1.5881  0.1164
  907MOL0     H22434   1.019  10.494   4.283  0.3265  3.5245  0.8078
  907MOL0     H22435   1.144  10.700   4.301 -0.1133  0.5419  0.0658
  907MOL0     H22436   1.218  10.548   4.215  1.5863  0.2981 -3.5730
  907MOL0     H22437   1.406  10.691   4.267 -0.0666  1.2474 -0.3433
  907MOL0     H22438   1.314  10.827   4.205 -0.7579 -0.4771 -0.0078
  907MOL0     H22439   1.326  10.718   3.972  3.3135  0.2909 -3.8637
  907MOL0     H22440   1.400  10.576   4.033  0.7114  0.1883 -1.4749
  907MOL0     H22441   1.576  10.748   4.146  0.8782  1.1116 -0.5497
  907MOL0     H22442   1.515  10.854   4.008  3.3932  1.0135  0.1600
  907MOL0     H22443   1.757  10.533   3.848  1.3405  0.1615  0.7143
  907MOL0     H22444   0.905  10.708   3.931  0.3531  4.6975  3.9036
  907MOL0     H22445   0.668  10.636   3.963 -1.9554  0.7626  2.1774
  908MOL0     O22446   7.746   3.175  11.046  0.2391 -0.5529 -0.7990
  908MOL0     C22447   7.810   3.083  11.098  0.2307  1.0857 -0.0042
  908MOL0     O22448   7.775   2.951  11.094 -0.1071  0.5728 -0.2132
  908MOL0     C22449   7.674   2.899  11.012 -0.2852  0.4414 -0.8565
  908MOL0     C22450   7.677   2.762  11.021  1.4454 -0.5937 -0.3352
  908MOL0     C22451   7.581   2.691  10.949 -1.0019 -0.4751 -0.9195
  908MOL0     C22452   7.499   2.747  10.855 -0.5125  0.5165  0.2892
  908MOL0     O22453   7.427   2.661  10.777 -0.8402  0.1001  0.5694
  908MOL0     C22454   7.343   2.715  10.670 -0.5545  0.0950 -0.2983
  908MOL0     C22455   7.279   2.595  10.610 -0.2404  0.5379 -0.1652
  908MOL0     C22456   7.167   2.540  10.699 -1.0268  0.1487  0.9574
  908MOL0     C22457   7.115   2.417  10.619  0.3509 -0.1437  0.0699
  908MOL0     C22458   7.027   2.312  10.692  0.9233 -0.4009 -0.4999
  908MOL0     C22459   6.918   2.389  10.784 -0.8508  0.1581  0.3075
  908MOL0     C22460   6.819   2.302  10.854 -0.1306 -0.2880 -0.5438
  908MOL0     C22461   6.887   2.218  10.963  0.7413 -0.4865  0.3164
  908MOL0     N22462   6.784   2.146  11.036  0.7305 -0.2992  0.6481
  908MOL0     C22463   6.791   2.085  11.158  0.8391  0.5124 -1.1367
  908MOL0     C22464   6.677   2.021  11.189 -0.2375  0.6314  0.4223
  908MOL0     C22465   6.634   1.946  11.314  0.5030 -0.4495 -0.7735
  908MOL0     C22466   6.506   1.996  11.373  0.1971  0.2047 -0.2250
  908MOL0     C22467   6.385   1.952  11.283  0.2038 -0.4268 -0.0641
  908MOL0     C22468   6.250   1.993  11.338 -0.4767 -0.2158 -0.9005
  908MOL0     O22469   6.232   1.913  11.457 -0.0504 -0.1076 -0.1892
  908MOL0     C22470   6.100   1.897  11.494 -0.3225 -0.0748 -0.6290
  908MOL0     C22471   6.089   1.837  11.618  0.3806  0.1837 -0.6177
  908MOL0     C22472   5.958   1.818  11.672 -0.5722  0.2964 -0.8353
  908MOL0     C22473   5.958   1.745  11.806 -0.6447 -0.2253 -0.5843
  908MOL0     C22474   5.848   1.858  11.608  0.0551  0.0851  0.0442
  908MOL0     C22475   5.706   1.845  11.664 -0.8909 -0.2568 -0.5529
  908MOL0     O22476   5.690   1.880  11.797 -0.8421  0.1348  0.5594
  908MOL0     C22477   5.574   1.911  11.860 -0.4087  0.7109  0.5692
  908MOL0     C22478   5.461   1.971  11.804 -0.2210  0.3905  0.8058
  908MOL0     C22479   5.348   2.017  11.883 -0.0045  0.7408  0.0998
  908MOL0     C22480   5.343   1.978  12.018  0.3538  0.2209  0.2388
  908MOL0     O22481   5.245   2.011  12.105  1.0201 -0.2922  0.5138
  908MOL0     C22482   5.131   2.089  12.057  0.5549 -0.2552 -0.4538
  908MOL0     C22483   5.031   1.992  11.988  0.0515 -0.9341 -0.4698
  908MOL0     C22484   4.914   2.075  11.921 -0.4533 -0.7159  0.0888
  908MOL0     C22485   4.823   1.987  11.832 -0.0034 -0.0044 -0.4216
  908MOL0     C22486   4.733   2.085  11.752 -0.7375  0.4996  0.6299
  908MOL0     C22487   4.603   2.120  11.834 -0.3899  0.5036  0.6640
  908MOL0     C22488   4.516   1.989  11.857 -0.0862  0.0257  0.8238
  908MOL0     C22489   4.405   2.026  11.958 -0.4126  0.2031  0.9119
  908MOL0    Cl22490   4.334   2.184  11.907 -0.0887 -0.5041  0.3392
  908MOL0     C22491   5.456   1.917  12.072  0.2512 -0.0238  0.2003
  908MOL0     C22492   5.574   1.885  11.994  0.5716 -1.8236  0.4808
  908MOL0     O22493   5.622   1.825  11.582  0.6455 -0.3450 -0.0891
  908MOL0     C22494   5.860   1.922  11.485  1.1179 -0.8883 -0.7052
  908MOL0     C22495   5.979   1.938  11.428 -0.7235  0.7745  0.0676
  908MOL0     N22496   6.605   2.032  11.078 -0.2013  0.5552  0.3368
  908MOL0     N22497   6.661   2.100  10.987 -0.0895 -0.1195 -0.0983
  908MOL0     C22498   7.493   2.887  10.851 -0.2588  0.1174 -0.0342
  908MOL0     C22499   7.577   2.963  10.924 -0.1886  0.0341 -0.7539
  908MOL0     C22500   7.938   3.115  11.165 -0.5967 -0.2843  0.0299
  908MOL0     C22501   8.006   3.023  11.251 -0.2903 -0.2401 -0.1111
  908MOL0     C22502   8.131   3.059  11.304  0.8004  1.2323 -0.4753
  908MOL0     C22503   8.186   3.181  11.278  0.3360 -0.7304 -0.1489
  908MOL0     O22504   8.299   3.231  11.326 -0.0851 -0.1929  0.3443
  908MOL0     C22505   8.368   3.156  11.424 -1.4155  0.3005  0.2800
  908MOL0     C22506   8.509   3.211  11.422  0.4121  0.9808  0.5980
  908MOL0     C22507   8.598   3.122  11.503 -0.5416  0.0954 -0.2665
  908MOL0     C22508   8.741   3.185  11.535  0.3612  0.1234  0.4891
  908MOL0     C22509   8.807   3.092  11.632 -0.6574 -1.0397  0.4042
  908MOL0     C22510   8.857   3.021  11.718  0.2309 -0.6483 -0.6300
  908MOL0     C22511   8.126   3.272  11.190  0.3955 -0.4917 -0.0425
  908MOL0     C22512   7.996   3.246  11.135  0.0788  0.1278  0.2217
  908MOL0     H22513   7.747   2.705  11.081 -0.0866 -1.8141  0.3763
  908MOL0     H22514   7.581   2.583  10.952 -0.0559 -0.5050 -1.5264
  908MOL0     H22515   7.266   2.786  10.702 -0.8254 -0.2840 -0.1029
  908MOL0     H22516   7.405   2.763  10.593 -0.5707  0.5532 -0.0335
  908MOL0     H22517   7.241   2.632  10.515  1.7659  0.1085 -1.2035
  908MOL0     H22518   7.342   2.508  10.588 -2.4184 -1.6356  1.5728
  908MOL0     H22519   7.210   2.506  10.793  0.7831 -1.8388 -0.4907
  908MOL0     H22520   7.091   2.618  10.706 -1.0640  0.2511 -0.3596
  908MOL0     H22521   7.056   2.451  10.533  0.0939 -0.3744  0.1547
  908MOL0     H22522   7.204   2.370  10.576 -0.0311  0.7450 -1.8324
  908MOL0     H22523   6.975   2.243  10.626  1.8862 -1.7270  0.0929
  908MOL0     H22524   7.086   2.256  10.765 -0.4662 -4.8678 -2.4608
  908MOL0     H22525   6.975   2.436  10.864 -1.0557  0.2051  0.4258
  908MOL0     H22526   6.863   2.466  10.728  0.4869 -0.4132 -1.9374
  908MOL0     H22527   6.745   2.370  10.897 -0.8087  0.0762 -2.1954
  908MOL0     H22528   6.766   2.232  10.788  1.6231 -0.6558 -1.6354
  908MOL0     H22529   6.950   2.280  11.028  0.0951  1.9303 -1.2328
  908MOL0     H22530   6.944   2.141  10.911  1.3595  2.0664 -3.1917
  908MOL0     H22531   6.874   2.099  11.227 -1.2648 -1.2422  2.0351
  908MOL0     H22532   6.637   1.837  11.300  0.1407 -0.6026  0.2807
  908MOL0     H22533   6.715   1.958  11.386  0.1643 -1.8586 -0.1287
  908MOL0     H22534   6.508   2.105  11.381  0.5368  0.1710  0.1866
  908MOL0     H22535   6.498   1.943  11.468  3.4845 -0.7524 -0.3581
  908MOL0     H22536   6.387   1.845  11.260  1.7501  0.1308 -3.1176
  908MOL0     H22537   6.392   2.004  11.187  1.2917  0.0639  0.2686
  908MOL0     H22538   6.174   1.968  11.263  0.3154 -1.1800 -1.3955
  908MOL0     H22539   6.246   2.098  11.370  1.0101 -0.7619  1.3225
  908MOL0     H22540   6.176   1.797  11.669 -1.3543 -4.1659 -0.5945
  908MOL0     H22541   5.916   1.805  11.887  0.7526 -0.4164  0.3142
  908MOL0     H22542   5.904   1.650  11.796 -0.8179 -0.5245  2.4385
  908MOL0     H22543   6.062   1.720  11.828 -1.0942 -1.6392  0.0639
  908MOL0     H22544   5.472   2.000  11.700  2.1373  1.1740  1.2058
  908MOL0     H22545   5.269   2.072  11.834 -1.3971 -1.1499  0.1108
  908MOL0     H22546   5.068   2.130  12.138 -1.1231 -1.4073 -1.1217
  908MOL0     H22547   5.158   2.171  11.990  1.7891 -0.3188 -0.0488
  908MOL0     H22548   5.076   1.937  11.905 -1.5277  0.0692 -2.0643
  908MOL0     H22549   4.986   1.924  12.061 -0.8680 -1.1260 -1.1899
  908MOL0     H22550   4.959   2.160  11.869 -0.4490 -0.3875  0.6173
  908MOL0     H22551   4.857   2.132  11.995 -0.4688  3.3646 -2.7340
  908MOL0     H22552   4.880   1.923  11.764  1.4847 -0.7576  1.4524
  908MOL0     H22553   4.770   1.909  11.887  4.2138 -1.8833  1.4616
  908MOL0     H22554   4.703   2.044  11.655  0.8367 -0.4175  0.5006
  908MOL0     H22555   4.799   2.170  11.734  4.2153 -2.7645  1.3405
  908MOL0     H22556   4.633   2.164  11.930  1.7978  2.0766 -0.6467
  908MOL0     H22557   4.543   2.194  11.780  0.9127  0.2838 -1.1914
  908MOL0     H22558   4.567   1.904  11.903 -0.0825 -0.0492  0.6808
  908MOL0     H22559   4.464   1.961  11.765  2.3817  0.5689 -0.8229
  908MOL0     H22560   4.453   2.040  12.056  1.4455  0.2047  0.0497
  908MOL0     H22561   4.326   1.953  11.977 -1.0394  0.9655  1.3044
  908MOL0     H22562   5.451   1.886  12.176 -3.4240 -1.5397 -0.2764
  908MOL0     H22563   5.666   1.849  12.040  0.7383  0.2336  1.8572
  908MOL0     H22564   5.774   1.971  11.442 -1.2486 -1.3730  3.0469
  908MOL0     H22565   5.982   2.005  11.343 -0.6049  1.4478  0.6000
  908MOL0     H22566   7.431   2.935  10.776 -1.4813 -1.1408  0.1342
  908MOL0     H22567   7.571   3.072  10.919 -0.0105  0.0921  0.1448
  908MOL0     H22568   7.961   2.927  11.274  0.1504  0.0393  2.0793
  908MOL0     H22569   8.170   2.981  11.369  0.2477 -1.1491 -2.8390
  908MOL0     H22570   8.316   3.162  11.520 -0.4152  0.5815  0.8153
  908MOL0     H22571   8.370   3.051  11.393 -0.0577  0.3320  0.1890
  908MOL0     H22572   8.496   3.311  11.464 -0.8848  0.0623  2.5136
  908MOL0     H22573   8.552   3.219  11.322 -3.4061 -0.2539 -1.3526
  908MOL0     H22574   8.605   3.020  11.464 -0.0630 -0.0873  0.2860
  908MOL0     H22575   8.550   3.119  11.602 -0.6663 -0.9271 -0.3496
  908MOL0     H22576   8.721   3.280  11.587  1.5009  0.5123  0.2390
  908MOL0     H22577   8.788   3.218  11.442 -0.1148  2.5123  1.0041
  908MOL0     H22578   8.913   2.959  11.785  2.4772  1.1168 -0.7261
  908MOL0     H22579   8.169   3.368  11.164 -0.7421 -0.1517 -0.7310
  908MOL0     H22580   7.942   3.318  11.075 -0.2687 -1.0445 -0.9134
  909MOL0     O22581   7.091   8.138   6.843 -0.3607 -0.4224  0.6434
  909MOL0     C22582   7.077   8.022   6.834  0.0081  0.9091  0.1111
  909MOL0     O22583   6.955   7.950   6.824  0.7637 -0.0256 -0.0573
  909MOL0     C22584   6.830   8.000   6.842 -0.9132 -0.3556 -0.4098
  909MOL0     C22585   6.815   8.094   6.941 -0.5737  0.1638 -0.6541
  909MOL0     C22586   6.686   8.154   6.970  0.3543 -0.2587 -0.2620
  909MOL0     C22587   6.581   8.115   6.889  0.4743 -0.5371 -0.3659
  909MOL0     O22588   6.460   8.165   6.926 -0.7973 -0.1709  0.1169
  909MOL0     C22589   6.341   8.135   6.844 -0.6812 -0.8907 -0.9313
  909MOL0     C22590   6.220   8.212   6.901 -0.3402  0.2650 -0.1877
  909MOL0     C22591   6.082   8.170   6.857 -0.1827 -0.5363 -0.6466
  909MOL0     C22592   5.976   8.243   6.936 -0.0096 -0.3028 -0.2141
  909MOL0     C22593   5.835   8.166   6.942 -0.1934  0.1697 -0.2544
  909MOL0     C22594   5.823   8.073   7.067 -0.3771  0.5726 -0.2030
  909MOL0     C22595   5.683   8.060   7.126  0.1834  0.3012  0.0046
  909MOL0     C22596   5.688   7.958   7.249 -0.4268 -0.0178 -0.8470
  909MOL0     N22597   5.554   7.939   7.309 -0.8388 -0.5249 -0.0252
  909MOL0     C22598   5.449   7.873   7.252 -0.6614  0.0705 -0.0896
  909MOL0     C22599   5.346   7.873   7.342 -0.6305 -0.6448  0.1101
  909MOL0     C22600   5.209   7.804   7.323 -0.3441  0.0971 -0.0362
  909MOL0     C22601   5.206   7.654   7.332  0.1034  0.4135 -0.6033
  909MOL0     C22602   5.089   7.605   7.411 -0.1527  0.2932 -0.2540
  909MOL0     C22603   5.099   7.635   7.561  0.2318 -0.4945  0.3739
  909MOL0     O22604   4.984   7.563   7.609  0.2888  0.0888 -0.5116
  909MOL0     C22605   4.873   7.644   7.644 -0.2497 -0.1428  0.7686
  909MOL0     C22606   4.778   7.596   7.736  0.3327 -0.1360 -0.0089
  909MOL0     C22607   4.653   7.665   7.757 -0.1513  0.4131 -0.8428
  909MOL0     C22608   4.545   7.603   7.848  0.1590 -0.1618  0.1781
  909MOL0     C22609   4.639   7.800   7.717  0.3338  1.2686  0.3950
  909MOL0     C22610   4.512   7.880   7.738  0.0436 -0.0901  0.2076
  909MOL0     O22611   4.459   7.890   7.866 -0.2760  0.1987  0.2377
  909MOL0     C22612   4.331   7.947   7.873  0.9985  0.4107  0.4894
  909MOL0     C22613   4.215   7.870   7.891  0.8152  0.1994  1.1007
  909MOL0     C22614   4.090   7.932   7.888 -0.2619  0.3924  0.0261
  909MOL0     C22615   4.077   8.065   7.863  0.1852  0.8074 -0.1651
  909MOL0     O22616   3.951   8.125   7.852  0.0667  0.1701 -0.5137
  909MOL0     C22617   3.917   8.263   7.858  0.1660 -0.3268 -0.5465
  909MOL0     C22618   3.773   8.281   7.897 -0.1929  1.2857 -0.5227
  909MOL0     C22619   3.711   8.415   7.882 -0.0367 -1.3280 -0.1833
  909MOL0     C22620   3.564   8.415   7.938  0.0977 -0.0094 -0.3959
  909MOL0     C22621   3.496   8.555   7.908  0.4816 -0.8408  0.2160
  909MOL0     C22622   3.358   8.551   7.992  0.3756 -0.6178  0.4346
  909MOL0     C22623   3.249   8.458   7.942  0.1668  0.4842  0.0688
  909MOL0     C22624   3.157   8.532   7.840 -0.7928 -0.2757  0.3894
  909MOL0    Cl22625   3.049   8.651   7.911  0.2975 -0.1706  0.4328
  909MOL0     C22626   4.190   8.143   7.854 -0.9011 -0.0384 -0.4456
  909MOL0     C22627   4.318   8.082   7.851 -0.2029  0.5872  0.3762
  909MOL0     O22628   4.465   7.932   7.631 -0.3768 -0.4414 -0.3133
  909MOL0     C22629   4.735   7.848   7.629  0.0262  0.1231 -0.6476
  909MOL0     C22630   4.841   7.778   7.591 -0.1370  0.5534  0.6200
  909MOL0     N22631   5.399   7.941   7.454  0.1843 -0.3724  0.4584
  909MOL0     N22632   5.517   7.980   7.432 -0.0097 -0.0337  0.2772
  909MOL0     C22633   6.601   8.023   6.782  0.2951  0.2333 -0.5916
  909MOL0     C22634   6.725   7.958   6.765 -0.1854 -0.4284 -0.3170
  909MOL0     C22635   7.193   7.919   6.830  0.3804 -0.2334 -0.1442
  909MOL0     C22636   7.180   7.777   6.820  1.2511  0.5671 -0.3539
  909MOL0     C22637   7.286   7.687   6.826 -0.3939 -0.1454  0.2727
  909MOL0     C22638   7.414   7.738   6.823  0.5025  0.4497  0.8417
  909MOL0     O22639   7.525   7.654   6.819  0.3479 -0.8172  0.1124
  909MOL0     C22640   7.637   7.691   6.740 -0.5615  0.2183  0.2154
  909MOL0     C22641   7.748   7.586   6.745 -0.3465 -0.0678 -0.2979
  909MOL0     C22642   7.864   7.622   6.647 -0.0792  0.2690 -0.7363
  909MOL0     C22643   7.986   7.532   6.645  0.1699  0.0220  0.8427
  909MOL0     C22644   8.088   7.575   6.743  0.1492  0.6402  0.0003
  909MOL0     C22645   8.152   7.608   6.837 -1.1739  0.3422 -0.0947
  909MOL0     C22646   7.428   7.879   6.817  0.0485 -0.4234 -0.1376
  909MOL0     C22647   7.320   7.972   6.829  0.0799 -0.6062 -0.5909
  909MOL0     H22648   6.898   8.118   7.006 -0.0864  0.6930 -1.4603
  909MOL0     H22649   6.678   8.224   7.053 -1.8513 -2.4244  1.5054
  909MOL0     H22650   6.358   8.157   6.738  0.5420  1.8278 -0.2677
  909MOL0     H22651   6.321   8.028   6.851 -0.7377 -0.7833  1.3676
  909MOL0     H22652   6.235   8.181   7.005  2.7313 -0.5799 -0.7920
  909MOL0     H22653   6.236   8.319   6.891 -0.2462  0.8057  3.9116
  909MOL0     H22654   6.082   8.195   6.751  0.4468 -2.7182 -1.2100
  909MOL0     H22655   6.055   8.066   6.875 -1.6376 -0.3682 -1.7115
  909MOL0     H22656   6.021   8.253   7.035  3.2181 -0.2283 -1.5650
  909MOL0     H22657   5.966   8.342   6.892 -0.8078  0.2872  1.2240
  909MOL0     H22658   5.752   8.236   6.954 -0.8461 -0.7015  0.4776
  909MOL0     H22659   5.820   8.118   6.845  0.2817  0.2711 -0.3805
  909MOL0     H22660   5.844   7.969   7.044 -2.4923 -0.0565  0.5226
  909MOL0     H22661   5.898   8.093   7.145 -1.2880  0.1175  0.8192
  909MOL0     H22662   5.636   8.153   7.161 -0.4509  0.2736 -0.7284
  909MOL0     H22663   5.619   8.015   7.049  0.5050  0.0441 -0.1101
  909MOL0     H22664   5.753   8.000   7.326 -0.4235  1.3846 -1.5756
  909MOL0     H22665   5.737   7.863   7.226  0.4083 -0.0830  1.0948
  909MOL0     H22666   5.447   7.831   7.152 -0.6850  1.1798 -0.5626
  909MOL0     H22667   5.142   7.851   7.396 -0.9945  1.4100 -1.4174
  909MOL0     H22668   5.175   7.829   7.222  0.5154  1.8385  0.0660
  909MOL0     H22669   5.289   7.624   7.396 -0.9724  1.9271  1.6201
  909MOL0     H22670   5.207   7.608   7.232 -0.7385  1.8560 -1.3114
  909MOL0     H22671   5.095   7.497   7.395  2.9035  0.4927 -1.0084
  909MOL0     H22672   4.993   7.637   7.368  0.4066  1.2996 -0.7941
  909MOL0     H22673   5.109   7.742   7.577  1.1460 -0.4735 -0.2598
  909MOL0     H22674   5.185   7.585   7.604  0.5872  2.3334  3.2985
  909MOL0     H22675   4.791   7.493   7.768 -1.1656 -0.1178  0.7569
  909MOL0     H22676   4.592   7.521   7.902 -0.9696 -0.9588 -0.0113
  909MOL0     H22677   4.506   7.677   7.919 -0.3603 -0.5063  0.2573
  909MOL0     H22678   4.467   7.558   7.786  1.0295 -3.5519  1.3394
  909MOL0     H22679   4.220   7.761   7.895  1.9129  0.1482 -0.6978
  909MOL0     H22680   3.997   7.877   7.904  1.5925 -3.4942 -1.1951
  909MOL0     H22681   3.985   8.309   7.931  1.3694 -3.6679  0.6487
  909MOL0     H22682   3.932   8.289   7.753  0.8692 -0.0077 -0.3720
  909MOL0     H22683   3.721   8.205   7.838  0.3132  0.9171 -0.5087
  909MOL0     H22684   3.753   8.249   8.000  0.4578 -0.7584 -0.9892
  909MOL0     H22685   3.707   8.436   7.775 -3.2587 -2.1022 -0.2927
  909MOL0     H22686   3.772   8.493   7.930  0.4283 -2.7376  1.6179
  909MOL0     H22687   3.505   8.337   7.888  2.6109 -1.4366 -1.2706
  909MOL0     H22688   3.569   8.390   8.044  0.0912  3.3853  0.5052
  909MOL0     H22689   3.486   8.572   7.800 -1.9944 -1.0306  0.3583
  909MOL0     H22690   3.559   8.632   7.952 -1.7250  0.2001  1.7144
  909MOL0     H22691   3.388   8.523   8.093  3.9264 -0.0325 -0.3377
  909MOL0     H22692   3.316   8.652   7.989 -0.1836 -0.8053 -3.1243
  909MOL0     H22693   3.197   8.412   8.027 -0.6745  2.9728  0.9751
  909MOL0     H22694   3.293   8.380   7.879 -0.2404  0.1189  0.2322
  909MOL0     H22695   3.102   8.452   7.788 -3.4822  2.1837 -0.8138
  909MOL0     H22696   3.222   8.589   7.774  0.7804  0.2698  2.3227
  909MOL0     H22697   4.192   8.251   7.844 -0.2247  0.1776  1.5656
  909MOL0     H22698   4.411   8.135   7.836 -0.8994  1.7666  0.0586
  909MOL0     H22699   4.728   7.947   7.587 -1.4851  0.1344 -0.4204
  909MOL0     H22700   4.907   7.820   7.515 -0.4847  0.4737  0.2719
  909MOL0     H22701   6.520   7.981   6.723 -0.2414 -1.6534  1.3439
  909MOL0     H22702   6.757   7.887   6.689 -0.5558 -2.4806  1.3490
  909MOL0     H22703   7.082   7.731   6.812  0.2289  2.2181  1.6220
  909MOL0     H22704   7.269   7.580   6.840  1.6953 -0.6543 -0.7376
  909MOL0     H22705   7.604   7.715   6.638  2.1526 -0.6516 -0.9648
  909MOL0     H22706   7.680   7.780   6.786  0.1638 -0.1159  0.2001
  909MOL0     H22707   7.704   7.493   6.709  2.3277 -1.5877  0.1146
  909MOL0     H22708   7.793   7.561   6.841  0.4018 -3.3702 -1.3719
  909MOL0     H22709   7.889   7.728   6.652 -0.2711  0.3255 -0.9045
  909MOL0     H22710   7.825   7.613   6.545  1.2922  3.1522 -1.6169
  909MOL0     H22711   8.021   7.544   6.543 -0.5629 -0.8703  0.4642
  909MOL0     H22712   7.949   7.430   6.660 -0.9918 -0.1865 -2.6661
  909MOL0     H22713   8.223   7.620   6.916 -1.1735  0.7361 -0.1545
  909MOL0     H22714   7.521   7.935   6.812  0.9859 -1.9371 -0.1265
  909MOL0     H22715   7.335   8.079   6.828  1.4910 -0.7830 -2.0171
  910MOL0     O22716  10.540   0.973   3.661 -0.1916  0.0753 -0.3319
  910MOL0     C22717  10.599   0.863   3.654 -0.2092 -0.1089  0.8383
  910MOL0     O22718  10.550   0.735   3.678 -0.1575  0.3042 -0.0429
  910MOL0     C22719  10.415   0.710   3.695  0.3122  0.0072  1.0236
  910MOL0     C22720  10.373   0.614   3.785  0.2061 -0.2039 -0.5715
  910MOL0     C22721  10.231   0.606   3.809 -0.8200 -0.0937  0.3992
  910MOL0     C22722  10.141   0.671   3.727  0.3762 -0.4834  0.6532
  910MOL0     O22723  10.005   0.663   3.743 -0.4778  0.0201 -0.3726
  910MOL0     C22724   9.962   0.614   3.870  0.6508 -0.2653  0.3045
  910MOL0     C22725   9.812   0.625   3.877  0.1257  0.2490 -0.2942
  910MOL0     C22726   9.766   0.767   3.854 -0.4341 -0.8279 -0.1472
  910MOL0     C22727   9.621   0.781   3.855  0.4045 -0.3486  0.1031
  910MOL0     C22728   9.566   0.926   3.842  0.7177  0.2931 -0.1909
  910MOL0     C22729   9.412   0.942   3.854 -1.2070  0.0256 -0.1977
  910MOL0     C22730   9.368   1.090   3.821 -0.6243 -0.1569 -0.1078
  910MOL0     C22731   9.370   1.129   3.670 -0.7977 -0.3136  0.7783
  910MOL0     N22732   9.277   1.238   3.636 -0.3104 -0.0495 -0.3410
  910MOL0     C22733   9.142   1.233   3.643 -0.1279  0.2441  0.2607
  910MOL0     C22734   9.102   1.362   3.641 -0.4549 -0.5404 -0.0488
  910MOL0     C22735   8.958   1.389   3.647  0.6186  0.8362  0.2272
  910MOL0     C22736   8.932   1.506   3.735 -0.1165 -0.3576  0.5967
  910MOL0     C22737   8.788   1.530   3.774 -0.3798  0.1733  0.9192
  910MOL0     C22738   8.775   1.668   3.845 -0.0215  0.1998  0.0315
  910MOL0     O22739   8.652   1.671   3.904 -0.0746  0.4486  0.2107
  910MOL0     C22740   8.556   1.749   3.845  0.9936 -0.2904 -0.3791
  910MOL0     C22741   8.562   1.780   3.708  0.1890  0.1395  0.3680
  910MOL0     C22742   8.466   1.868   3.651 -0.8803 -0.2717  0.5718
  910MOL0     C22743   8.502   1.931   3.520  0.4400  0.7516 -0.2566
  910MOL0     C22744   8.357   1.914   3.738 -0.0465  0.9511  0.6250
  910MOL0     C22745   8.248   2.014   3.708 -0.6222  0.0377 -0.2863
  910MOL0     O22746   8.117   1.993   3.746  0.1432 -0.4781 -0.5273
  910MOL0     C22747   8.016   2.075   3.706 -0.1612  0.0562 -0.3382
  910MOL0     C22748   7.911   2.096   3.788  0.1992  1.0585 -0.2047
  910MOL0     C22749   7.796   2.162   3.745 -0.0797  0.0843 -0.1173
  910MOL0     C22750   7.790   2.212   3.616 -0.3574  0.6709  0.2367
  910MOL0     O22751   7.683   2.282   3.564  1.0255 -0.1700 -0.4144
  910MOL0     C22752   7.555   2.267   3.631  0.1769 -0.5802 -0.4246
  910MOL0     C22753   7.468   2.387   3.601  0.2825  1.2196 -0.1688
  910MOL0     C22754   7.330   2.364   3.648  0.4167 -0.2600  0.0292
  910MOL0     C22755   7.231   2.481   3.650 -0.1258  0.6829  0.4234
  910MOL0     C22756   7.085   2.438   3.672  0.1378 -0.4592 -0.2878
  910MOL0     C22757   7.033   2.320   3.579 -0.4307 -1.1003 -0.0461
  910MOL0     C22758   6.877   2.291   3.590 -0.2249  0.0292 -0.6396
  910MOL0     C22759   6.811   2.350   3.463 -0.3276  0.8054 -0.5367
  910MOL0    Cl22760   6.644   2.284   3.475 -0.0452 -0.3179 -0.1710
  910MOL0     C22761   7.894   2.191   3.527  0.8202 -0.9659  0.0786
  910MOL0     C22762   8.007   2.124   3.567  0.7270  0.1535  0.6055
  910MOL0     O22763   8.288   2.112   3.641  0.8376 -0.0489 -0.4191
  910MOL0     C22764   8.341   1.860   3.862  0.3583  0.2716  0.1855
  910MOL0     C22765   8.446   1.774   3.914 -0.5141 -0.5614  0.5832
  910MOL0     N22766   9.214   1.451   3.644  0.5607 -1.0143 -0.2271
  910MOL0     N22767   9.312   1.373   3.646  0.0906  0.1967  0.9433
  910MOL0     C22768  10.182   0.770   3.633 -0.0097  0.2413  0.6345
  910MOL0     C22769  10.326   0.779   3.618  0.4625  0.6423 -0.0015
  910MOL0     C22770  10.732   0.863   3.593  0.1450  0.5927 -0.2513
  910MOL0     C22771  10.795   0.984   3.581  0.7830 -0.5524  0.2089
  910MOL0     C22772  10.928   0.994   3.531  0.6167  0.5660 -0.9672
  910MOL0     C22773  10.989   0.882   3.479 -0.1358  0.2721  0.8155
  910MOL0     O22774  11.117   0.904   3.430  0.0551 -0.2068  0.1509
  910MOL0     C22775  11.207   0.800   3.393  0.8397 -0.5940 -0.4807
  910MOL0     C22776  11.324   0.865   3.314 -0.6377  0.0446  0.1160
  910MOL0     C22777  11.290   0.984   3.224 -0.7768 -0.5062  0.7212
  910MOL0     C22778  11.422   1.009   3.146 -1.0417 -0.1736 -0.5565
  910MOL0     C22779  11.503   1.104   3.225  1.1785  0.1902 -0.7257
  910MOL0     C22780  11.560   1.190   3.286 -0.0306 -0.0953  0.6258
  910MOL0     C22781  10.924   0.758   3.496  0.3978  0.0026  0.5855
  910MOL0     C22782  10.797   0.744   3.553  0.0874  1.2082 -0.1978
  910MOL0     H22783  10.442   0.565   3.854 -0.4587 -0.9850 -0.4530
  910MOL0     H22784  10.199   0.530   3.880 -3.1400 -0.6013 -1.0684
  910MOL0     H22785   9.984   0.508   3.887 -1.2929 -0.7023  0.3665
  910MOL0     H22786  10.002   0.678   3.949 -1.0988  0.8937  0.3064
  910MOL0     H22787   9.758   0.551   3.817 -0.1653  0.4491 -0.2831
  910MOL0     H22788   9.779   0.598   3.978 -1.9323 -0.5068 -1.0952
  910MOL0     H22789   9.820   0.823   3.930 -2.9769 -1.6775  2.4666
  910MOL0     H22790   9.806   0.793   3.755 -1.8090  2.3819  0.0091
  910MOL0     H22791   9.578   0.733   3.766 -0.0942 -0.4781  0.4089
  910MOL0     H22792   9.575   0.738   3.945  1.1062  0.9770  1.1253
  910MOL0     H22793   9.605   0.977   3.930  1.0036 -0.7175  0.2890
  910MOL0     H22794   9.592   0.965   3.743 -0.1021 -0.6768 -0.8132
  910MOL0     H22795   9.368   0.880   3.776  1.3459 -0.0995 -1.6311
  910MOL0     H22796   9.378   0.907   3.952 -0.4914  0.1933  0.1208
  910MOL0     H22797   9.269   1.105   3.863 -1.2943  0.6086 -1.8543
  910MOL0     H22798   9.438   1.163   3.861  0.2716  0.4611 -2.5770
  910MOL0     H22799   9.321   1.044   3.622 -2.2851  0.4879  0.8086
  910MOL0     H22800   9.470   1.140   3.627 -0.7612 -3.0909 -0.0342
  910MOL0     H22801   9.089   1.138   3.633 -0.0229  0.3270 -1.3136
  910MOL0     H22802   8.913   1.416   3.550  1.3606  0.5972 -0.1838
  910MOL0     H22803   8.908   1.299   3.683  1.0346  0.2104 -0.7297
  910MOL0     H22804   8.968   1.595   3.682  0.1545 -2.5715 -3.2764
  910MOL0     H22805   8.991   1.502   3.827  0.6604  0.4597  0.1500
  910MOL0     H22806   8.756   1.449   3.841  3.2629 -0.1816  2.4471
  910MOL0     H22807   8.731   1.537   3.681  0.5237  1.9785  0.4616
  910MOL0     H22808   8.793   1.758   3.786 -0.2548  0.0983 -0.1990
  910MOL0     H22809   8.850   1.673   3.924  2.1942 -1.1103 -1.8467
  910MOL0     H22810   8.638   1.741   3.641 -0.5311  0.6145 -0.7517
  910MOL0     H22811   8.406   1.953   3.473  0.9733  2.9707 -0.4299
  910MOL0     H22812   8.545   2.030   3.539  1.3912 -0.0911  2.4175
  910MOL0     H22813   8.565   1.878   3.448  1.2201  1.8815 -0.4375
  910MOL0     H22814   7.927   2.047   3.884  0.3134 -0.6181 -1.0491
  910MOL0     H22815   7.723   2.176   3.824  0.4058 -0.9652  0.5382
  910MOL0     H22816   7.512   2.170   3.604 -0.8548 -0.0579 -0.6910
  910MOL0     H22817   7.574   2.273   3.739  3.1610  0.3874 -0.9006
  910MOL0     H22818   7.515   2.482   3.629 -1.0980  3.1092 -3.6451
  910MOL0     H22819   7.454   2.382   3.493 -0.5144 -1.0866 -0.0209
  910MOL0     H22820   7.340   2.329   3.751  1.2438  1.0390  0.4298
  910MOL0     H22821   7.288   2.283   3.589 -2.0330  1.9093 -1.4281
  910MOL0     H22822   7.259   2.550   3.730  1.4613 -0.9904  1.3848
  910MOL0     H22823   7.237   2.528   3.552  2.3220  0.1478  0.2621
  910MOL0     H22824   7.028   2.531   3.659 -0.2664 -0.4046  1.5824
  910MOL0     H22825   7.064   2.412   3.776 -4.6411 -0.4408 -1.0337
  910MOL0     H22826   7.056   2.334   3.473 -2.1086 -0.0709 -0.3256
  910MOL0     H22827   7.086   2.227   3.600  0.9553 -0.4662 -0.6141
  910MOL0     H22828   6.820   2.338   3.671  2.1807 -1.7428  2.2889
  910MOL0     H22829   6.859   2.184   3.597  0.4534  0.0027  1.3235
  910MOL0     H22830   6.859   2.322   3.370 -0.5225 -1.3681 -0.0378
  910MOL0     H22831   6.813   2.459   3.471  0.0774  0.7235  0.6568
  910MOL0     H22832   7.880   2.224   3.424  0.0649  0.5072  0.6285
  910MOL0     H22833   8.085   2.106   3.493  0.1960  1.9702 -0.4719
  910MOL0     H22834   8.254   1.876   3.925  2.1716  2.3527  2.3429
  910MOL0     H22835   8.435   1.732   4.013 -1.7069  1.4426  1.3793
  910MOL0     H22836  10.115   0.826   3.568  0.6916 -0.3326 -0.6358
  910MOL0     H22837  10.363   0.840   3.536  0.7135  1.0967  0.4448
  910MOL0     H22838  10.746   1.074   3.615 -1.1666 -2.3908  2.6996
  910MOL0     H22839  10.974   1.092   3.538  0.9770  0.3070  0.4835
  910MOL0     H22840  11.240   0.745   3.481 -1.5590 -2.2763 -0.5306
  910MOL0     H22841  11.155   0.728   3.329 -2.3032  1.3025 -0.3012
  910MOL0     H22842  11.380   0.780   3.273  0.0258 -1.6396  4.0271
  910MOL0     H22843  11.400   0.897   3.386  1.0334 -1.7071 -0.7679
  910MOL0     H22844  11.257   1.078   3.270  1.6373  1.8201 -1.8646
  910MOL0     H22845  11.215   0.961   3.148  0.6386  1.6980 -1.5050
  910MOL0     H22846  11.392   1.054   3.051 -0.9841 -0.8581 -0.9019
  910MOL0     H22847  11.480   0.922   3.114  0.4752  0.7520 -0.4506
  910MOL0     H22848  11.598   1.266   3.352  0.2860 -0.6971  1.1403
  910MOL0     H22849  10.968   0.674   3.443 -1.8518 -0.2785 -0.9892
  910MOL0     H22850  10.758   0.643   3.550 -2.0671  1.9517  0.2859
  911MOL0     O22851   8.736   5.165   0.192 -1.1568 -0.4379  0.5189
  911MOL0     C22852   8.793   5.132   0.295  1.0619  0.1578 -1.0963
  911MOL0     O22853   8.732   5.149   0.430 -0.6450 -0.3668  0.6130
  911MOL0     C22854   8.609   5.213   0.437  0.1560 -1.0636  0.4180
  911MOL0     C22855   8.599   5.320   0.534 -0.5945 -0.4389  0.5906
  911MOL0     C22856   8.474   5.376   0.562 -0.0846 -0.0591  0.2711
  911MOL0     C22857   8.358   5.332   0.488  0.3113  0.7039 -0.2839
  911MOL0     O22858   8.233   5.374   0.542  0.4261 -0.0305 -0.0241
  911MOL0     C22859   8.115   5.308   0.506 -0.2589 -0.1024  0.6118
  911MOL0     C22860   8.066   5.372   0.380  0.1271  0.2445 -0.3252
  911MOL0     C22861   7.933   5.292   0.345  0.3349 -0.2279  0.0560
  911MOL0     C22862   7.852   5.375   0.241 -0.1419  0.4361  0.1886
  911MOL0     C22863   7.707   5.339   0.206 -0.5164 -0.7795 -0.7926
  911MOL0     C22864   7.625   5.390   0.326  0.3945  0.0395  0.3530
  911MOL0     C22865   7.620   5.537   0.349  0.0080 -0.2670 -0.4842
  911MOL0     C22866   7.486   5.576   0.415  0.5931 -0.0853  0.3871
  911MOL0     N22867   7.380   5.602   0.309  0.0530 -0.1051  0.1022
  911MOL0     C22868   7.351   5.728   0.264  0.0231 -0.1594  0.6012
  911MOL0     C22869   7.270   5.713   0.156 -0.5705 -0.4826  0.0158
  911MOL0     C22870   7.218   5.814   0.058  1.0993 -0.9060  0.0739
  911MOL0     C22871   7.164   5.939   0.135  0.3166 -0.3965 -0.2899
  911MOL0     C22872   7.065   6.007   0.040  0.2994 -0.3524  0.1279
  911MOL0     C22873   7.021   6.141   0.113 -0.5190  1.6864  0.5594
  911MOL0     O22874   6.968   6.239   0.024  0.1682  0.2532 -0.3138
  911MOL0     C22875   6.837   6.207  -0.017  1.0898 -0.2208  0.3962
  911MOL0     C22876   6.791   6.270  -0.130  0.0363  0.5694 -0.2250
  911MOL0     C22877   6.663   6.249  -0.184  0.0283 -0.2468  0.3888
  911MOL0     C22878   6.612   6.344  -0.287  0.2120  0.0176 -0.2258
  911MOL0     C22879   6.576   6.152  -0.134  0.1919 -0.6631 -0.3393
  911MOL0     C22880   6.435   6.116  -0.182 -0.8988 -0.5554  1.0836
  911MOL0     O22881   6.374   6.206  -0.257  0.3177  0.4061  0.0071
  911MOL0     C22882   6.257   6.167  -0.316  1.1148 -0.0029  0.2093
  911MOL0     C22883   6.137   6.201  -0.260  0.2646  0.1845 -0.6222
  911MOL0     C22884   6.021   6.163  -0.328  0.5189 -0.3585 -0.2327
  911MOL0     C22885   6.022   6.104  -0.452 -0.2488  0.1904  0.4689
  911MOL0     O22886   5.900   6.067  -0.503  0.7215  0.1103  0.2533
  911MOL0     C22887   5.880   5.947  -0.569 -0.3277  0.3481  0.8799
  911MOL0     C22888   5.738   5.925  -0.616  0.0546  0.4076 -0.3475
  911MOL0     C22889   5.713   5.799  -0.704 -0.0496 -0.1170 -0.0573
  911MOL0     C22890   5.556   5.772  -0.718  0.8818  0.6296  0.1110
  911MOL0     C22891   5.532   5.630  -0.774 -0.5821  0.3292 -0.3040
  911MOL0     C22892   5.391   5.617  -0.834 -0.5020  0.3232 -0.4687
  911MOL0     C22893   5.368   5.484  -0.904 -0.0034 -0.5961 -0.3882
  911MOL0     C22894   5.285   5.488  -1.027 -0.1868 -0.4355  0.3438
  911MOL0    Cl22895   5.123   5.547  -0.986  0.2954  0.1831 -0.6242
  911MOL0     C22896   6.152   6.075  -0.507 -0.0207  0.9103 -0.5433
  911MOL0     C22897   6.271   6.096  -0.439  0.4029  0.2264  0.3052
  911MOL0     O22898   6.406   5.998  -0.174  0.7127 -0.1439 -0.1932
  911MOL0     C22899   6.628   6.080  -0.017 -0.0069 -0.1215 -0.0041
  911MOL0     C22900   6.744   6.119   0.044 -0.4313  0.6556 -0.5854
  911MOL0     N22901   7.254   5.575   0.142  0.5468 -0.5609  0.9233
  911MOL0     N22902   7.314   5.511   0.233 -0.0816  0.3488  0.0261
  911MOL0     C22903   8.371   5.232   0.386  0.4236 -0.5900 -0.9602
  911MOL0     C22904   8.498   5.178   0.363  0.3470  0.7644  0.0123
  911MOL0     C22905   8.938   5.090   0.290  0.3674 -0.0785  0.2935
  911MOL0     C22906   9.015   5.093   0.410  0.5293 -0.0658  0.0921
  911MOL0     C22907   9.152   5.066   0.404  0.3916  0.0459 -0.7967
  911MOL0     C22908   9.209   5.043   0.277  0.9145 -0.3374 -0.5310
  911MOL0     O22909   9.342   5.010   0.253  0.2239 -0.1428 -0.7016
  911MOL0     C22910   9.428   5.025   0.364 -0.2672  0.0409 -0.4088
  911MOL0     C22911   9.555   4.964   0.320 -0.1026 -0.5927 -0.0453
  911MOL0     C22912   9.655   5.055   0.241  0.7113 -0.1187  0.6553
  911MOL0     C22913   9.803   4.998   0.244 -0.0746 -0.7471 -0.5250
  911MOL0     C22914   9.877   5.087   0.158 -0.9317 -0.4662 -0.2809
  911MOL0     C22915   9.948   5.147   0.086  0.4535 -0.1272  0.0642
  911MOL0     C22916   9.133   5.055   0.161  0.0116 -0.4994 -0.4702
  911MOL0     C22917   8.996   5.063   0.165  0.4325 -0.7750 -0.1054
  911MOL0     H22918   8.686   5.347   0.593  0.2342  0.0298 -0.8180
  911MOL0     H22919   8.462   5.454   0.637  1.4397  0.5512 -0.0774
  911MOL0     H22920   8.138   5.201   0.497  3.8692  0.6016  0.6864
  911MOL0     H22921   8.055   5.325   0.596  1.2785 -1.7238  2.0228
  911MOL0     H22922   8.044   5.478   0.399 -2.0588 -0.4996  1.9823
  911MOL0     H22923   8.141   5.371   0.301  0.2910 -0.6960 -0.1605
  911MOL0     H22924   7.950   5.189   0.314  0.9955  0.0885 -0.6753
  911MOL0     H22925   7.873   5.289   0.436  0.3494 -0.0918  0.0706
  911MOL0     H22926   7.857   5.478   0.276 -1.9110  2.0342 -3.7086
  911MOL0     H22927   7.909   5.377   0.148 -0.2149  1.7999  0.1604
  911MOL0     H22928   7.668   5.384   0.115 -0.0012 -0.7268 -0.9919
  911MOL0     H22929   7.707   5.230   0.206  0.1068 -0.8386  1.3564
  911MOL0     H22930   7.522   5.359   0.309 -0.3437  1.4107  2.0124
  911MOL0     H22931   7.651   5.337   0.418  0.9063  1.4563  1.0559
  911MOL0     H22932   7.705   5.572   0.408 -0.1574  0.7090 -0.8011
  911MOL0     H22933   7.626   5.590   0.253 -0.0443  1.9598  0.6954
  911MOL0     H22934   7.492   5.667   0.476 -2.1593 -0.7479  1.7757
  911MOL0     H22935   7.448   5.498   0.481 -0.4439  0.7144  0.7641
  911MOL0     H22936   7.404   5.817   0.297  2.4535 -1.6233  0.9511
  911MOL0     H22937   7.285   5.836  -0.026 -0.1659  1.0268 -0.5001
  911MOL0     H22938   7.129   5.769   0.013  1.0145 -0.6941  0.0260
  911MOL0     H22939   7.253   6.001   0.147  0.3822 -0.1051 -2.0135
  911MOL0     H22940   7.112   5.904   0.224  0.5125  1.6355  0.6736
  911MOL0     H22941   6.976   5.952   0.010  1.0763 -0.4696 -2.1660
  911MOL0     H22942   7.104   6.034  -0.059  1.3224  1.8641  1.0728
  911MOL0     H22943   7.114   6.191   0.142 -0.4363  2.5640 -1.1445
  911MOL0     H22944   6.953   6.121   0.197 -1.7937 -2.2876 -1.1720
  911MOL0     H22945   6.864   6.338  -0.173  2.1966 -2.6168 -2.0974
  911MOL0     H22946   6.589   6.306  -0.387 -1.9299  0.9907 -0.1677
  911MOL0     H22947   6.522   6.399  -0.257  1.1869  3.0627 -2.3751
  911MOL0     H22948   6.688   6.422  -0.293  0.4288 -0.1597  0.2155
  911MOL0     H22949   6.140   6.234  -0.157 -0.6774  0.0975 -0.5627
  911MOL0     H22950   5.923   6.187  -0.286  0.2834 -0.8146 -0.5123
  911MOL0     H22951   5.928   5.930  -0.665 -2.5278  1.6830 -0.5301
  911MOL0     H22952   5.919   5.867  -0.505  0.3992 -0.6867 -0.7835
  911MOL0     H22953   5.687   5.918  -0.519  2.7009  0.1445  1.1092
  911MOL0     H22954   5.696   6.012  -0.668  2.0324  0.3028 -2.2554
  911MOL0     H22955   5.753   5.711  -0.651 -0.8858 -2.2187 -2.7013
  911MOL0     H22956   5.763   5.807  -0.801 -1.5842 -2.3372 -1.1278
  911MOL0     H22957   5.503   5.779  -0.622 -2.8700 -1.0149 -1.6285
  911MOL0     H22958   5.504   5.838  -0.788 -0.1660 -0.0401  0.2314
  911MOL0     H22959   5.547   5.557  -0.694 -3.1916  0.2740  0.2352
  911MOL0     H22960   5.607   5.606  -0.850  2.6725  2.1369  2.0688
  911MOL0     H22961   5.314   5.622  -0.757 -0.4442  0.6041 -0.4269
  911MOL0     H22962   5.371   5.705  -0.895 -0.3049  1.0580  0.4955
  911MOL0     H22963   5.324   5.411  -0.836 -0.6393 -1.8424 -2.0547
  911MOL0     H22964   5.466   5.442  -0.930  1.0524  0.7074  1.3193
  911MOL0     H22965   5.282   5.390  -1.073  3.3639 -0.4501 -0.1428
  911MOL0     H22966   5.326   5.551  -1.107 -0.6984 -0.7211 -0.1434
  911MOL0     H22967   6.164   6.021  -0.601  1.4406  0.1819  0.0360
  911MOL0     H22968   6.365   6.075  -0.489 -1.2310 -1.2603 -2.3524
  911MOL0     H22969   6.573   6.008   0.042  0.9585 -0.3835  0.5834
  911MOL0     H22970   6.761   6.052   0.128  0.2898 -1.0456 -2.0125
  911MOL0     H22971   8.278   5.195   0.345  0.9821 -1.5927 -1.3572
  911MOL0     H22972   8.500   5.093   0.295 -1.9244  0.8454 -0.2407
  911MOL0     H22973   8.974   5.125   0.504  1.2385  0.4861  0.2187
  911MOL0     H22974   9.209   5.063   0.496 -0.4496 -1.0022 -0.2921
  911MOL0     H22975   9.435   5.127   0.403 -1.2856  0.2665 -0.7873
  911MOL0     H22976   9.390   4.969   0.450 -1.4663 -0.9161 -1.5311
  911MOL0     H22977   9.552   4.863   0.280 -1.3893 -1.0352  1.0796
  911MOL0     H22978   9.599   4.960   0.420  2.1860  1.1360 -0.8861
  911MOL0     H22979   9.652   5.156   0.284  1.7084  1.0539 -1.8520
  911MOL0     H22980   9.609   5.065   0.142 -1.4803 -0.7106  1.5595
  911MOL0     H22981   9.803   4.901   0.193 -0.0976  0.3866 -2.7980
  911MOL0     H22982   9.844   4.998   0.346 -0.5043 -4.1449 -0.2150
  911MOL0     H22983  10.006   5.213   0.025  0.1956  0.5963  0.5841
  911MOL0     H22984   9.176   5.047   0.061 -1.5366  0.3265 -1.2480
  911MOL0     H22985   8.938   5.058   0.073 -2.2220 -2.1536  1.5374
  912MOL0     O22986   4.471   5.543   4.221  0.3520 -0.1818  0.1305
  912MOL0     C22987   4.491   5.432   4.186  0.1451 -0.2088  0.7319
  912MOL0     O22988   4.393   5.339   4.165 -0.1866 -0.3686 -0.5918
  912MOL0     C22989   4.261   5.358   4.200 -0.0755  0.5663 -0.5710
  912MOL0     C22990   4.242   5.384   4.342 -0.1735  0.7956  0.4458
  912MOL0     C22991   4.107   5.406   4.391 -0.7123 -0.5052  0.6035
  912MOL0     C22992   4.002   5.424   4.300  0.0248 -0.1590 -0.0221
  912MOL0     O22993   3.878   5.456   4.360  0.2342  0.2620 -0.4025
  912MOL0     C22994   3.758   5.436   4.278 -1.2012 -0.1783  0.0734
  912MOL0     C22995   3.650   5.391   4.368 -0.7025  0.7893  0.0545
  912MOL0     C22996   3.591   5.518   4.449 -0.0860 -0.4153 -0.6377
  912MOL0     C22997   3.500   5.476   4.569 -0.6410  0.7221  0.1914
  912MOL0     C22998   3.377   5.398   4.521 -0.0087 -0.0206 -0.6902
  912MOL0     C22999   3.272   5.480   4.445 -0.0498 -0.6542  0.4440
  912MOL0     C23000   3.220   5.615   4.499 -0.1058  0.5617  0.8191
  912MOL0     C23001   3.136   5.600   4.621 -1.1507 -0.2956 -0.2382
  912MOL0     N23002   3.007   5.541   4.587  0.0951 -0.1273 -0.2388
  912MOL0     C23003   2.907   5.625   4.543 -0.7977 -1.1108 -0.1061
  912MOL0     C23004   2.805   5.552   4.503  0.3037 -0.1697 -0.8673
  912MOL0     C23005   2.670   5.579   4.437 -0.6158  0.8822  0.2388
  912MOL0     C23006   2.549   5.581   4.534  0.2425 -0.3743  1.0646
  912MOL0     C23007   2.424   5.576   4.452 -0.0040  0.4346  0.4700
  912MOL0     C23008   2.309   5.569   4.542 -0.4561 -0.4457 -0.0184
  912MOL0     O23009   2.189   5.567   4.464  0.8150  0.1448  0.1641
  912MOL0     C23010   2.071   5.548   4.525  0.7551 -0.9011 -0.4378
  912MOL0     C23011   2.045   5.508   4.660 -0.2270  0.4726  0.4984
  912MOL0     C23012   1.907   5.487   4.693  0.4755 -0.4355 -0.5559
  912MOL0     C23013   1.869   5.430   4.829 -0.4756  0.5280  0.1555
  912MOL0     C23014   1.798   5.542   4.613 -0.3444  0.1718 -0.0802
  912MOL0     C23015   1.654   5.554   4.657 -1.1130 -0.2736 -0.5835
  912MOL0     O23016   1.578   5.654   4.591  0.0148  0.1709 -0.2986
  912MOL0     C23017   1.448   5.677   4.630  0.5022 -0.2468  0.2954
  912MOL0     C23018   1.437   5.780   4.723  0.5561 -0.6163 -0.2675
  912MOL0     C23019   1.305   5.807   4.770  0.0240  0.4618  0.2379
  912MOL0     C23020   1.197   5.747   4.713 -0.0001 -0.1062 -0.1173
  912MOL0     O23021   1.068   5.766   4.755 -0.1086 -0.0199 -0.0790
  912MOL0     C23022   1.054   5.738   4.898  0.3592 -0.3823  0.1921
  912MOL0     C23023   0.907   5.732   4.932 -0.5054 -0.4358  0.4462
  912MOL0     C23024   0.892   5.702   5.083 -0.2965 -0.6438  0.3845
  912MOL0     C23025   0.751   5.723   5.120  0.3169  0.8118 -0.2468
  912MOL0     C23026   0.735   5.682   5.269  0.1771 -1.0027  0.0948
  912MOL0     C23027   0.583   5.688   5.315 -0.0834 -0.2404  0.5296
  912MOL0     C23028   0.565   5.616   5.461  0.4966 -1.3717  0.6660
  912MOL0     C23029   0.419   5.631   5.505  0.1566  0.8076 -0.1581
  912MOL0    Cl23030   0.416   5.797   5.567 -0.1786  0.5328  0.3072
  912MOL0     C23031   1.209   5.644   4.621  0.2766  0.1899 -0.2551
  912MOL0     C23032   1.337   5.606   4.573 -1.0871  0.3429 -0.4713
  912MOL0     O23033   1.611   5.476   4.739  0.0353 -0.2581 -0.3742
  912MOL0     C23034   1.831   5.595   4.488  0.2042  0.3305  0.0286
  912MOL0     C23035   1.963   5.593   4.447 -0.8234  0.6975  0.1466
  912MOL0     N23036   2.845   5.418   4.524  0.2777  0.0305  0.1601
  912MOL0     N23037   2.968   5.412   4.575 -0.2327 -0.2620  0.2763
  912MOL0     C23038   4.036   5.420   4.159  0.1770 -0.2403  0.8512
  912MOL0     C23039   4.164   5.389   4.110  0.9867 -0.2895  0.7427
  912MOL0     C23040   4.632   5.401   4.160  0.0224  0.2032  1.0386
  912MOL0     C23041   4.735   5.501   4.136 -0.1629  0.4263 -0.5313
  912MOL0     C23042   4.877   5.463   4.124  0.5424  1.1213 -0.0434
  912MOL0     C23043   4.915   5.330   4.115 -0.4099  0.0769  0.0922
  912MOL0     O23044   5.053   5.308   4.090 -0.1657 -0.1630  0.0189
  912MOL0     C23045   5.107   5.189   4.159 -0.0734 -0.0594  1.2878
  912MOL0     C23046   5.263   5.173   4.133  0.1857 -0.2540 -0.4241
  912MOL0     C23047   5.334   5.304   4.156  0.2105  0.0385  0.1044
  912MOL0     C23048   5.490   5.271   4.158 -0.6186  0.0677 -0.1347
  912MOL0     C23049   5.558   5.401   4.145  0.2107 -0.4389  0.5800
  912MOL0     C23050   5.621   5.504   4.123  0.6740  0.4275  0.6204
  912MOL0     C23051   4.814   5.232   4.135  0.2518 -0.3001  0.2016
  912MOL0     C23052   4.679   5.264   4.158  0.1138 -0.7011 -0.5910
  912MOL0     H23053   4.331   5.370   4.402 -1.3820 -0.0767  2.1120
  912MOL0     H23054   4.087   5.421   4.497  1.1306 -0.9008  1.0392
  912MOL0     H23055   3.732   5.528   4.225  2.6853  1.2331  0.3342
  912MOL0     H23056   3.775   5.354   4.208  1.3675  0.3956 -0.0480
  912MOL0     H23057   3.569   5.337   4.318  0.4418 -1.1688  0.2188
  912MOL0     H23058   3.694   5.328   4.446 -1.9207  3.8220  3.4774
  912MOL0     H23059   3.682   5.567   4.485 -1.5356  1.2179  0.9827
  912MOL0     H23060   3.525   5.581   4.388 -2.4955 -1.0745  1.1404
  912MOL0     H23061   3.558   5.414   4.640  0.9009  1.7509 -0.1122
  912MOL0     H23062   3.466   5.564   4.624 -1.4077  1.2253 -1.0664
  912MOL0     H23063   3.396   5.317   4.450  1.6913  0.5288 -0.9130
  912MOL0     H23064   3.331   5.351   4.608 -0.2973 -2.7912 -2.2195
  912MOL0     H23065   3.319   5.497   4.348  0.8647 -2.6167  0.5166
  912MOL0     H23066   3.185   5.416   4.426 -0.8029 -0.1964  2.0952
  912MOL0     H23067   3.303   5.685   4.515 -0.4689  2.6868 -4.5442
  912MOL0     H23068   3.163   5.671   4.425  0.7653 -0.1320 -0.4028
  912MOL0     H23069   3.136   5.697   4.671 -1.1887 -0.7532  0.6632
  912MOL0     H23070   3.184   5.531   4.691 -2.9687 -0.0581  1.3347
  912MOL0     H23071   2.907   5.733   4.532 -2.0554 -1.2182 -1.3947
  912MOL0     H23072   2.675   5.669   4.375 -0.0526 -0.8319 -2.3968
  912MOL0     H23073   2.656   5.494   4.369  0.6916  0.5916  0.3111
  912MOL0     H23074   2.572   5.669   4.596  3.0998 -0.7573  0.6532
  912MOL0     H23075   2.550   5.492   4.597 -0.6600 -0.2020  1.3443
  912MOL0     H23076   2.414   5.499   4.375  0.3728  1.4802 -0.6646
  912MOL0     H23077   2.418   5.670   4.395  2.2079  0.0135 -0.5528
  912MOL0     H23078   2.308   5.650   4.616  0.1125 -1.0297  0.6610
  912MOL0     H23079   2.313   5.472   4.593  0.9395 -0.5199 -0.2221
  912MOL0     H23080   2.123   5.466   4.723 -1.0882 -0.9444  0.6647
  912MOL0     H23081   1.812   5.495   4.898  0.3410  0.3622  1.0089
  912MOL0     H23082   1.809   5.341   4.810 -1.3946  0.9575  0.9355
  912MOL0     H23083   1.958   5.411   4.889 -1.6003  2.0917  2.4989
  912MOL0     H23084   1.531   5.826   4.749 -0.2362  0.9093  0.0157
  912MOL0     H23085   1.268   5.880   4.841  0.9822 -1.0803  2.4290
  912MOL0     H23086   1.094   5.640   4.921 -1.2968 -0.6986  2.0174
  912MOL0     H23087   1.094   5.821   4.957  0.4394  1.9426 -2.8359
  912MOL0     H23088   0.865   5.830   4.909  1.6521  0.5905  0.6660
  912MOL0     H23089   0.852   5.658   4.873 -2.4909 -1.0488  2.8646
  912MOL0     H23090   0.967   5.761   5.137  0.3511  1.0100 -2.1302
  912MOL0     H23091   0.930   5.600   5.092  1.4288 -0.2901 -1.8313
  912MOL0     H23092   0.713   5.824   5.102 -0.7009  0.3585 -0.7606
  912MOL0     H23093   0.685   5.657   5.064  0.7386 -1.4657  1.7573
  912MOL0     H23094   0.801   5.737   5.336  2.1598 -2.8341 -0.2577
  912MOL0     H23095   0.764   5.577   5.271  0.2915 -0.9581  1.6011
  912MOL0     H23096   0.553   5.793   5.320  3.2003  1.0095 -1.9620
  912MOL0     H23097   0.512   5.646   5.243  0.3748  2.1669 -1.4787
  912MOL0     H23098   0.637   5.656   5.533  4.1274 -1.4310 -2.5930
  912MOL0     H23099   0.585   5.509   5.452 -3.8776 -2.4478  1.4445
  912MOL0     H23100   0.401   5.557   5.583  0.7871  0.0283 -0.7285
  912MOL0     H23101   0.345   5.616   5.426 -0.1408  1.8523 -0.0865
  912MOL0     H23102   1.114   5.594   4.607 -0.8464  1.6595  1.5647
  912MOL0     H23103   1.357   5.515   4.517  0.4098  1.5965 -2.1236
  912MOL0     H23104   1.746   5.631   4.431 -0.3419  3.4425  2.5487
  912MOL0     H23105   1.976   5.613   4.341 -1.2548 -2.3189 -0.5857
  912MOL0     H23106   3.972   5.449   4.076  2.2524 -1.9871 -1.5017
  912MOL0     H23107   4.185   5.389   4.004  0.8315 -1.9086  0.6864
  912MOL0     H23108   4.708   5.606   4.137  1.2578  0.8169 -0.7749
  912MOL0     H23109   4.961   5.529   4.107  1.6110 -0.5998 -1.9012
  912MOL0     H23110   5.094   5.203   4.267  1.2378  1.5970  1.2608
  912MOL0     H23111   5.054   5.095   4.139  1.3006 -0.7669  0.8620
  912MOL0     H23112   5.283   5.132   4.034 -0.0992 -2.0472  0.2221
  912MOL0     H23113   5.305   5.106   4.209  2.5174  2.3759  0.7969
  912MOL0     H23114   5.296   5.338   4.253 -3.6125  1.0426 -1.5574
  912MOL0     H23115   5.308   5.370   4.073  1.2735 -0.4958 -0.6784
  912MOL0     H23116   5.513   5.222   4.063  2.8131  2.1529 -0.5438
  912MOL0     H23117   5.506   5.217   4.252 -4.1644 -1.2902 -0.1658
  912MOL0     H23118   5.686   5.589   4.111 -1.3665  1.8086 -1.5192
  912MOL0     H23119   4.836   5.126   4.129  0.2041 -0.2677 -0.5902
  912MOL0     H23120   4.608   5.183   4.174 -0.7944  0.3819  1.2557
  913MOL0     O23121   8.076  10.035   8.819  0.3647  0.1341 -0.0172
  913MOL0     C23122   8.052  10.099   8.717  0.6264 -0.6363 -0.6744
  913MOL0     O23123   7.931  10.124   8.662  0.2643 -0.2614 -0.0273
  913MOL0     C23124   7.810  10.086   8.724 -0.1292  0.8563 -0.5152
  913MOL0     C23125   7.713  10.187   8.732 -1.1106  0.0012 -0.2411
  913MOL0     C23126   7.587  10.164   8.793  0.3949  0.1439  0.1270
  913MOL0     C23127   7.575  10.034   8.852 -0.3935  0.5831  0.1619
  913MOL0     O23128   7.467  10.016   8.941 -0.1091 -0.1500  0.8105
  913MOL0     C23129   7.481   9.944   9.062 -0.6020  0.8064 -0.4676
  913MOL0     C23130   7.415  10.022   9.171 -0.2522  0.0914 -0.0511
  913MOL0     C23131   7.409   9.931   9.303 -0.3068 -0.6220  0.4527
  913MOL0     C23132   7.407  10.026   9.424 -0.1743  0.1438  0.1868
  913MOL0     C23133   7.394   9.934   9.549 -0.5087  0.2174  0.9185
  913MOL0     C23134   7.453   9.996   9.667  0.3234  0.3213  0.4410
  913MOL0     C23135   7.458   9.911   9.800 -0.5873  0.6540 -0.2031
  913MOL0     C23136   7.511   9.771   9.765 -0.2503  0.5586 -1.1525
  913MOL0     N23137   7.547   9.695   9.888 -0.0601  0.1569  0.1998
  913MOL0     C23138   7.617   9.573   9.906  0.2947 -0.9107 -0.0903
  913MOL0     C23139   7.601   9.540  10.037  0.1940 -0.2940  0.1010
  913MOL0     C23140   7.651   9.406  10.094 -0.2214 -0.9049  0.0781
  913MOL0     C23141   7.732   9.429  10.224  0.1998  0.7642  0.4443
  913MOL0     C23142   7.846   9.518  10.214  0.1108 -0.4001  0.3498
  913MOL0     C23143   7.934   9.475  10.102  0.3704 -0.5870 -0.2310
  913MOL0     O23144   8.062   9.547  10.110 -0.3968  0.5954 -1.1886
  913MOL0     C23145   8.182   9.473  10.104 -0.8306  1.3692  0.6947
  913MOL0     C23146   8.192   9.355  10.174  0.9467  0.4458 -0.0563
  913MOL0     C23147   8.310   9.285  10.191 -1.0582 -0.3615 -0.5849
  913MOL0     C23148   8.313   9.150  10.262  0.1251 -0.3550 -0.3489
  913MOL0     C23149   8.426   9.360  10.153 -0.0762 -0.4396 -0.6710
  913MOL0     C23150   8.565   9.307  10.180 -0.0064 -0.1627 -0.0833
  913MOL0     O23151   8.665   9.399  10.163  0.3743 -1.0075  0.3359
  913MOL0     C23152   8.801   9.366  10.179  0.0614  0.6388 -1.0128
  913MOL0     C23153   8.875   9.306  10.072 -0.0476  0.0171 -0.1422
  913MOL0     C23154   9.016   9.291  10.075  0.0244 -0.5850  0.4111
  913MOL0     C23155   9.076   9.324  10.188  0.4539  0.5256 -0.2132
  913MOL0     O23156   9.216   9.303  10.199  0.1871 -0.4990  0.6618
  913MOL0     C23157   9.302   9.322  10.086  0.3077  0.2228 -0.6897
  913MOL0     C23158   9.439   9.332  10.149  0.1901  0.4678 -0.2994
  913MOL0     C23159   9.556   9.332  10.040 -0.1963  0.3406 -0.2607
  913MOL0     C23160   9.694   9.315  10.100  0.1636 -0.3014  1.1741
  913MOL0     C23161   9.766   9.450  10.129  0.2447 -0.8049  0.8680
  913MOL0     C23162   9.813   9.520  10.006 -0.0937  0.0764 -0.4995
  913MOL0     C23163   9.916   9.627  10.040  0.0231  0.2534 -0.1368
  913MOL0     C23164   9.853   9.752  10.024  0.9694  0.0885 -0.5642
  913MOL0    Cl23165   9.743   9.789  10.170  0.2704  0.4018  0.2733
  913MOL0     C23166   9.000   9.364  10.307  0.1828 -0.1398  0.1965
  913MOL0     C23167   8.863   9.394  10.306 -0.4789 -0.9642  0.1062
  913MOL0     O23168   8.581   9.184  10.201 -0.4625  0.5860 -0.2066
  913MOL0     C23169   8.414   9.486  10.098  0.0881 -0.4811 -0.1990
  913MOL0     C23170   8.293   9.540  10.060 -0.7057 -0.3568  0.2782
  913MOL0     N23171   7.525   9.634  10.096  0.8295 -0.0700  0.2922
  913MOL0     N23172   7.503   9.722  10.012  0.3349  0.1506  0.0929
  913MOL0     C23173   7.673   9.926   8.836 -0.4059  0.1197  0.5469
  913MOL0     C23174   7.790   9.958   8.780 -0.1152 -0.7764  0.9786
  913MOL0     C23175   8.173  10.165   8.659 -0.5900  0.3720  0.6550
  913MOL0     C23176   8.173  10.202   8.522  0.0222 -0.1865 -0.3328
  913MOL0     C23177   8.291  10.254   8.464 -0.6535  0.1482  1.4412
  913MOL0     C23178   8.414  10.259   8.539  0.0552 -0.4284  0.2572
  913MOL0     O23179   8.520  10.296   8.466  0.5006 -0.0178 -0.5041
  913MOL0     C23180   8.641  10.338   8.532 -0.1221 -0.8180 -0.4443
  913MOL0     C23181   8.743  10.376   8.430  0.5879  0.0952 -0.0341
  913MOL0     C23182   8.874  10.386   8.503 -0.7266 -0.2966 -0.0094
  913MOL0     C23183   8.993  10.386   8.402  0.6038  0.6763  0.1342
  913MOL0     C23184   8.988  10.515   8.321 -0.2105  0.0170 -0.3861
  913MOL0     C23185   8.970  10.621   8.274  0.6533 -0.1800  0.1955
  913MOL0     C23186   8.404  10.241   8.674 -0.4123  0.3364  1.0400
  913MOL0     C23187   8.291  10.182   8.732 -0.0357 -0.3800 -0.7613
  913MOL0     H23188   7.736  10.286   8.693  0.7919  0.6612  2.3399
  913MOL0     H23189   7.497  10.225   8.789 -0.0718 -0.4363  1.3006
  913MOL0     H23190   7.436   9.844   9.061  0.3234  0.3598  0.8708
  913MOL0     H23191   7.588   9.934   9.080 -0.2095  0.3808 -2.7103
  913MOL0     H23192   7.481  10.108   9.186  1.7445 -1.3075 -0.4762
  913MOL0     H23193   7.311  10.050   9.152 -0.8530 -1.2388  1.0990
  913MOL0     H23194   7.317   9.872   9.301 -0.5671 -0.3652 -3.1404
  913MOL0     H23195   7.498   9.868   9.303 -0.2247 -0.5055  0.5622
  913MOL0     H23196   7.495  10.091   9.434  0.1033  0.1076 -1.7073
  913MOL0     H23197   7.315  10.084   9.416 -0.8155 -0.9432 -0.6259
  913MOL0     H23198   7.291   9.904   9.567 -0.7351 -0.5458 -1.2677
  913MOL0     H23199   7.447   9.842   9.522 -0.8857  0.1468  0.4000
  913MOL0     H23200   7.558  10.021   9.649  1.5498 -3.9781  0.3388
  913MOL0     H23201   7.395  10.087   9.684 -1.5478 -0.8123  0.4131
  913MOL0     H23202   7.513   9.953   9.885 -0.8744 -1.3816  1.0543
  913MOL0     H23203   7.356   9.896   9.834 -0.1071 -0.1088  0.9646
  913MOL0     H23204   7.606   9.772   9.710  1.1601 -0.1320  1.1387
  913MOL0     H23205   7.433   9.712   9.715 -0.6037 -0.6063  0.6668
  913MOL0     H23206   7.647   9.509   9.823 -2.4263  0.1456 -2.0259
  913MOL0     H23207   7.566   9.339  10.108 -0.4097 -0.6948 -0.0434
  913MOL0     H23208   7.711   9.357  10.017 -0.5003 -0.0662 -0.6961
  913MOL0     H23209   7.770   9.337  10.269  2.2453  3.0823  3.9345
  913MOL0     H23210   7.657   9.474  10.289 -1.1647  1.6975 -1.6629
  913MOL0     H23211   7.896   9.520  10.312 -0.0109  2.2587  0.4433
  913MOL0     H23212   7.815   9.621  10.196 -2.9163 -0.6879  2.9777
  913MOL0     H23213   7.888   9.507  10.008  1.4685 -2.5679 -1.5141
  913MOL0     H23214   7.941   9.366  10.100  1.6482 -0.5866  1.7403
  913MOL0     H23215   8.105   9.311  10.221  1.2759  0.4820  0.6129
  913MOL0     H23216   8.212   9.129  10.299 -0.0974 -0.4676 -1.0072
  913MOL0     H23217   8.330   9.075  10.184 -1.3567 -1.8986  0.7517
  913MOL0     H23218   8.373   9.154  10.353 -3.9196 -1.0365  2.6438
  913MOL0     H23219   8.826   9.279   9.979 -0.1712 -0.6335  0.1039
  913MOL0     H23220   9.065   9.251   9.987 -1.4350 -1.8576  0.1400
  913MOL0     H23221   9.306   9.246  10.007 -1.1629  0.1712 -0.7563
  913MOL0     H23222   9.267   9.410  10.031 -0.4307  0.2799 -0.1452
  913MOL0     H23223   9.442   9.415  10.220 -2.1522 -0.5920  1.1677
  913MOL0     H23224   9.450   9.247  10.217  0.4040  2.1822  1.9094
  913MOL0     H23225   9.550   9.429   9.989  0.3439  2.3310  3.1270
  913MOL0     H23226   9.534   9.262   9.960 -0.3404 -1.1800  1.0599
  913MOL0     H23227   9.680   9.261  10.195 -0.9217  1.7884  2.2915
  913MOL0     H23228   9.758   9.267  10.026 -0.4259  1.7718 -0.7952
  913MOL0     H23229   9.846   9.427  10.201  1.2775  3.0440  1.1721
  913MOL0     H23230   9.701   9.525  10.174  0.2469  2.0053 -3.2836
  913MOL0     H23231   9.866   9.451   9.938  1.0728  0.8091 -0.3576
  913MOL0     H23232   9.729   9.560   9.949  0.3834 -2.6329 -3.4349
  913MOL0     H23233   9.994   9.610   9.965 -1.9474 -0.4616 -2.1135
  913MOL0     H23234   9.964   9.612  10.137 -1.2474 -0.1371  0.4458
  913MOL0     H23235   9.801   9.759   9.927  2.0878 -3.5332 -1.5618
  913MOL0     H23236   9.927   9.833  10.022 -0.1094  1.1356  0.0833
  913MOL0     H23237   9.059   9.377  10.397  0.3543 -2.2718  0.4500
  913MOL0     H23238   8.819   9.432  10.397  0.9628 -0.9844  0.8438
  913MOL0     H23239   8.495   9.557  10.084  0.6414 -1.5549 -3.1187
  913MOL0     H23240   8.288   9.638  10.013  0.1540 -0.1990  0.5088
  913MOL0     H23241   7.668   9.828   8.882  0.8324  0.3337  1.1901
  913MOL0     H23242   7.870   9.885   8.777 -1.6009 -2.4120 -1.3319
  913MOL0     H23243   8.084  10.184   8.463  0.2035  1.9532 -1.3768
  913MOL0     H23244   8.305  10.291   8.363  3.7494  2.1088  2.5627
  913MOL0     H23245   8.610  10.415   8.603 -0.5990  0.3750 -1.8929
  913MOL0     H23246   8.684  10.256   8.591 -0.3278  0.7488  2.0053
  913MOL0     H23247   8.709  10.469   8.383 -2.2517 -0.2821  1.0595
  913MOL0     H23248   8.736  10.296   8.356 -2.2092 -0.6401  0.8935
  913MOL0     H23249   8.893  10.297   8.564 -0.2484  0.4217  0.9215
  913MOL0     H23250   8.876  10.475   8.566  0.6078  0.1433 -0.6228
  913MOL0     H23251   8.991  10.300   8.333 -1.3540  0.8224 -0.0560
  913MOL0     H23252   9.088  10.383   8.455  0.4611  2.5233  0.5651
  913MOL0     H23253   8.950  10.710   8.217 -1.7690 -0.2499  0.8373
  913MOL0     H23254   8.496  10.265   8.726 -0.6173  2.6207  0.4830
  913MOL0     H23255   8.301  10.138   8.831 -0.7559 -2.8029 -1.6730
  914MOL0     O23256   5.572   8.910   6.236  0.2950  0.1503 -0.0037
  914MOL0     C23257   5.577   8.796   6.196  0.0366 -1.1480  0.6849
  914MOL0     O23258   5.472   8.709   6.179  0.3425 -0.1321  0.2431
  914MOL0     C23259   5.350   8.740   6.239 -0.4994  0.5100 -0.3965
  914MOL0     C23260   5.239   8.699   6.166  0.5546  0.1296  0.5777
  914MOL0     C23261   5.107   8.729   6.209  0.1756 -0.0950 -0.1489
  914MOL0     C23262   5.089   8.798   6.326 -0.0453  0.5144  0.1809
  914MOL0     O23263   4.964   8.835   6.361  0.4148 -0.3322 -0.3526
  914MOL0     C23264   4.931   8.847   6.498 -0.0717  0.1022  0.3506
  914MOL0     C23265   4.774   8.839   6.525 -0.0072  0.1249 -0.2646
  914MOL0     C23266   4.751   8.859   6.677 -0.5767 -0.5317  0.4020
  914MOL0     C23267   4.608   8.895   6.718 -0.4817 -0.3099  0.3146
  914MOL0     C23268   4.606   8.908   6.876 -0.2966  0.2167 -1.5240
  914MOL0     C23269   4.469   8.943   6.923  0.1980  0.7513 -0.1130
  914MOL0     C23270   4.474   8.972   7.073  0.7393 -0.3432  0.8148
  914MOL0     C23271   4.361   9.044   7.135 -0.0129 -0.4113 -0.2068
  914MOL0     N23272   4.232   9.011   7.076 -0.0811 -0.2443  0.4841
  914MOL0     C23273   4.157   8.909   7.124 -0.1566  0.4343  0.1357
  914MOL0     C23274   4.048   8.920   7.045 -0.6147 -0.3683  0.5113
  914MOL0     C23275   3.928   8.839   7.035 -0.2951  0.0859 -0.2911
  914MOL0     C23276   3.843   8.813   7.162  0.3531  0.1342  0.8353
  914MOL0     C23277   3.761   8.684   7.152  1.0625  0.1687 -0.7464
  914MOL0     C23278   3.648   8.672   7.260 -0.7519  0.5376 -0.5055
  914MOL0     O23279   3.567   8.550   7.259 -0.1813 -0.5257  0.3302
  914MOL0     C23280   3.451   8.549   7.186  0.2139  0.8249 -0.6401
  914MOL0     C23281   3.406   8.634   7.087 -0.2399 -0.4494  0.0440
  914MOL0     C23282   3.277   8.615   7.044 -0.0626 -0.3807  1.0672
  914MOL0     C23283   3.243   8.713   6.934  0.5085 -0.0399  0.2517
  914MOL0     C23284   3.187   8.514   7.078  0.3352  0.8266  0.2878
  914MOL0     C23285   3.051   8.492   7.034 -0.4341  0.6969 -1.1439
  914MOL0     O23286   2.977   8.409   7.114  0.0480  0.3551 -0.5621
  914MOL0     C23287   2.846   8.391   7.082  0.1440  0.8730  0.0433
  914MOL0     C23288   2.797   8.332   6.962  0.5132 -0.7007 -0.4889
  914MOL0     C23289   2.660   8.317   6.949  0.0358 -0.5257 -0.2785
  914MOL0     C23290   2.567   8.350   7.049 -0.3934  0.1506  0.2545
  914MOL0     O23291   2.441   8.300   7.030 -0.9380 -0.3342  0.4861
  914MOL0     C23292   2.344   8.358   7.117 -0.2183 -0.5959  0.1312
  914MOL0     C23293   2.195   8.345   7.080  0.0882 -0.5724 -0.1475
  914MOL0     C23294   2.143   8.198   7.063 -0.6081 -1.4541  0.0261
  914MOL0     C23295   1.989   8.200   7.049 -0.3432 -0.9171  0.6245
  914MOL0     C23296   1.922   8.063   7.024  0.0369  0.1965  0.4206
  914MOL0     C23297   1.899   7.985   7.151 -0.5031  0.3791 -0.0675
  914MOL0     C23298   1.826   7.857   7.129  0.4342  0.0159  0.6184
  914MOL0     C23299   1.678   7.884   7.125  0.2078  0.1751  0.1527
  914MOL0    Cl23300   1.582   7.745   7.072 -0.2083  0.4103 -0.1801
  914MOL0     C23301   2.619   8.426   7.157  0.1108  0.5320  0.1981
  914MOL0     C23302   2.757   8.448   7.167  0.3277 -0.3305  0.0841
  914MOL0     O23303   3.008   8.550   6.934 -0.7801 -0.8765  0.6684
  914MOL0     C23304   3.243   8.417   7.162 -0.0353  0.0274 -0.4111
  914MOL0     C23305   3.376   8.435   7.207 -0.7987  0.0923 -0.4368
  914MOL0     N23306   4.066   9.015   6.948  0.8412  0.0048  0.1166
  914MOL0     N23307   4.179   9.070   6.970  0.4367  0.0763  0.1548
  914MOL0     C23308   5.197   8.835   6.409 -0.0585  0.4394  0.2869
  914MOL0     C23309   5.332   8.810   6.362 -1.0129  0.2765  0.2904
  914MOL0     C23310   5.719   8.759   6.159  0.4413 -0.8191 -0.3977
  914MOL0     C23311   5.837   8.841   6.174 -0.0736 -0.4357 -0.1354
  914MOL0     C23312   5.964   8.781   6.147 -0.3944 -0.1376 -0.2443
  914MOL0     C23313   5.976   8.652   6.103 -0.0885 -0.5846 -0.6643
  914MOL0     O23314   6.108   8.621   6.069  0.4136  0.2745 -0.5062
  914MOL0     C23315   6.122   8.479   6.028  0.2871  0.2643 -0.1162
  914MOL0     C23316   6.263   8.459   5.961 -0.1360  0.1119  0.7982
  914MOL0     C23317   6.260   8.332   5.879 -0.2114  0.1436  0.3926
  914MOL0     C23318   6.400   8.298   5.813  0.0719 -0.2841  0.6351
  914MOL0     C23319   6.413   8.336   5.671 -0.5949  0.0680 -0.6074
  914MOL0     C23320   6.417   8.341   5.548 -0.5760  1.0574 -0.1546
  914MOL0     C23321   5.861   8.576   6.077 -0.4006 -0.0720  0.1447
  914MOL0     C23322   5.739   8.625   6.108 -0.0566 -0.4180  0.5804
  914MOL0     H23323   5.253   8.633   6.081 -2.4349 -1.1265  0.9335
  914MOL0     H23324   5.028   8.692   6.144 -1.4769 -0.0421  1.7235
  914MOL0     H23325   4.987   8.771   6.554  1.2973  0.6351 -0.2638
  914MOL0     H23326   4.969   8.945   6.526 -1.5393  0.2687  1.9330
  914MOL0     H23327   4.719   8.910   6.463  0.9204 -1.1737 -2.6989
  914MOL0     H23328   4.736   8.743   6.489  1.3769 -0.8538  0.7399
  914MOL0     H23329   4.770   8.763   6.725 -2.2469  0.2780  2.9066
  914MOL0     H23330   4.823   8.934   6.712 -2.1502  1.8838 -1.1993
  914MOL0     H23331   4.568   8.985   6.670 -0.1697 -1.0104 -1.3107
  914MOL0     H23332   4.541   8.812   6.694  0.8980 -1.1049 -0.8669
  914MOL0     H23333   4.653   8.824   6.929  2.0113  1.4236 -1.5018
  914MOL0     H23334   4.659   9.000   6.903  0.5409 -0.7437  0.3289
  914MOL0     H23335   4.439   9.035   6.871 -0.0789  0.1082 -1.1336
  914MOL0     H23336   4.399   8.866   6.890  1.4979  0.6777 -2.9954
  914MOL0     H23337   4.479   8.871   7.114 -1.7863 -0.9292 -0.1205
  914MOL0     H23338   4.561   9.028   7.107  0.2390 -1.1720  3.7429
  914MOL0     H23339   4.382   9.150   7.120  1.4349 -0.9038 -1.8820
  914MOL0     H23340   4.371   9.016   7.241 -0.1127 -2.4628 -0.6862
  914MOL0     H23341   4.165   8.840   7.207  1.9755  0.5038  0.0564
  914MOL0     H23342   3.846   8.875   6.972 -0.2315 -1.7835 -1.5214
  914MOL0     H23343   3.955   8.746   6.983 -1.0244  1.2630 -2.9154
  914MOL0     H23344   3.776   8.899   7.165 -1.2954 -1.0674 -0.0584
  914MOL0     H23345   3.909   8.793   7.246 -1.4962 -1.6070  1.9527
  914MOL0     H23346   3.826   8.598   7.172 -1.7446 -2.5412 -2.3941
  914MOL0     H23347   3.714   8.671   7.054 -2.7988 -0.7106  1.0191
  914MOL0     H23348   3.589   8.763   7.247 -4.1914 -1.5922 -0.9446
  914MOL0     H23349   3.691   8.673   7.361  2.2964  2.5300 -1.6775
  914MOL0     H23350   3.466   8.720   7.058 -2.7991  1.3518 -0.2593
  914MOL0     H23351   3.213   8.664   6.841 -2.3394 -0.1389  1.1292
  914MOL0     H23352   3.154   8.768   6.966 -0.6768 -1.7220 -0.0405
  914MOL0     H23353   3.325   8.782   6.909  0.3441 -0.1378 -0.6054
  914MOL0     H23354   2.872   8.303   6.890  1.5065  1.0820 -0.2158
  914MOL0     H23355   2.618   8.259   6.867 -1.7476 -0.6073  0.6435
  914MOL0     H23356   2.369   8.329   7.219  3.7449  3.0211  0.5133
  914MOL0     H23357   2.366   8.465   7.109  0.8655 -0.8819 -1.0964
  914MOL0     H23358   2.133   8.391   7.158 -2.6579 -2.2568 -1.2029
  914MOL0     H23359   2.173   8.392   6.984 -1.9849 -1.9687 -0.4212
  914MOL0     H23360   2.169   8.136   7.150 -3.8726 -3.0433 -0.0022
  914MOL0     H23361   2.191   8.164   6.971 -0.0036 -2.2548  0.6157
  914MOL0     H23362   1.945   8.244   7.139  0.9664 -0.8927  1.2899
  914MOL0     H23363   1.947   8.261   6.969  0.3408  0.6636  1.4244
  914MOL0     H23364   1.986   8.012   6.951  2.3220  1.7246  1.2405
  914MOL0     H23365   1.825   8.088   6.978  1.1689  1.2004 -1.5599
  914MOL0     H23366   1.996   7.964   7.198 -0.9729 -2.1182 -0.1095
  914MOL0     H23367   1.849   8.057   7.217 -1.1350  2.4957 -2.7115
  914MOL0     H23368   1.839   7.779   7.205  0.3888 -1.1878 -0.5757
  914MOL0     H23369   1.865   7.807   7.040 -2.9041  1.2333 -1.7191
  914MOL0     H23370   1.660   7.965   7.054  1.5015  0.1367 -0.2462
  914MOL0     H23371   1.650   7.910   7.227  0.4931  1.7213 -0.1365
  914MOL0     H23372   2.547   8.455   7.233 -1.2517  0.5967 -1.0747
  914MOL0     H23373   2.795   8.507   7.250  3.9131  0.3699 -1.8339
  914MOL0     H23374   3.194   8.325   7.190  1.7716 -2.1717 -3.7495
  914MOL0     H23375   3.435   8.373   7.273 -2.3192  0.1235  1.0153
  914MOL0     H23376   5.188   8.886   6.504 -1.2016 -1.4811  1.2730
  914MOL0     H23377   5.416   8.838   6.425 -0.2633 -1.2029 -0.0174
  914MOL0     H23378   5.830   8.939   6.218  2.5472  0.2382 -1.0117
  914MOL0     H23379   6.061   8.827   6.165 -0.2184 -0.9286  0.9748
  914MOL0     H23380   6.111   8.417   6.118 -0.4903 -1.9471 -1.6605
  914MOL0     H23381   6.043   8.444   5.962  2.6684 -3.6128 -1.2374
  914MOL0     H23382   6.334   8.459   6.044 -1.0734  1.4278  1.6264
  914MOL0     H23383   6.277   8.542   5.892  0.6170 -0.9503 -0.3807
  914MOL0     H23384   6.182   8.329   5.803  0.2508  2.4594 -0.2734
  914MOL0     H23385   6.236   8.256   5.954 -1.9055  2.8586  2.8563
  914MOL0     H23386   6.418   8.191   5.823 -3.0227 -1.0614 -1.0474
  914MOL0     H23387   6.472   8.353   5.876  0.3163 -0.3722  0.4345
  914MOL0     H23388   6.420   8.345   5.441  1.2179  3.1823 -0.0955
  914MOL0     H23389   5.861   8.473   6.042 -1.1052  0.8863 -3.0410
  914MOL0     H23390   5.659   8.555   6.084  2.0158 -2.6297 -0.2862
  915MOL0     O23391   9.145   3.504   6.576  0.4429 -0.3831 -0.4172
  915MOL0     C23392   9.183   3.423   6.498 -0.7103 -0.1148  0.7534
  915MOL0     O23393   9.116   3.342   6.412  0.6219  0.2355 -0.1444
  915MOL0     C23394   8.979   3.366   6.383 -0.7373  0.2712 -0.8851
  915MOL0     C23395   8.924   3.276   6.296 -0.3306  0.8065  0.2254
  915MOL0     C23396   8.779   3.265   6.272  0.6566 -0.2051  0.1336
  915MOL0     C23397   8.701   3.365   6.320  0.2507 -0.0147  0.6028
  915MOL0     O23398   8.570   3.396   6.294 -0.3820  0.3138  0.2759
  915MOL0     C23399   8.486   3.292   6.249 -0.2672 -0.1482 -0.1642
  915MOL0     C23400   8.470   3.301   6.098 -0.3177 -0.3535  0.9583
  915MOL0     C23401   8.379   3.187   6.039  0.1930 -0.8907  0.5621
  915MOL0     C23402   8.391   3.179   5.880  0.1532 -0.4144  0.6515
  915MOL0     C23403   8.325   3.047   5.843 -0.1629 -0.4172  0.4970
  915MOL0     C23404   8.356   3.016   5.699  0.7159 -0.1911 -0.5689
  915MOL0     C23405   8.269   2.892   5.660 -0.3930  0.2070  0.6017
  915MOL0     C23406   8.274   2.862   5.510  0.6313  0.8831  0.1669
  915MOL0     N23407   8.140   2.860   5.444 -0.3820 -0.3212 -0.5686
  915MOL0     C23408   8.088   2.970   5.381 -0.5472  0.2119 -0.0022
  915MOL0     C23409   7.957   2.954   5.384 -0.3271 -0.7844  0.8968
  915MOL0     C23410   7.861   3.054   5.334 -0.2616  0.2843 -0.2235
  915MOL0     C23411   7.713   3.019   5.338 -0.5980 -0.0552 -0.4296
  915MOL0     C23412   7.653   2.917   5.230 -0.7898 -0.1970  0.5782
  915MOL0     C23413   7.512   2.928   5.210 -0.2860 -0.2125 -0.1751
  915MOL0     O23414   7.453   2.887   5.333 -0.3830  0.4737 -0.5081
  915MOL0     C23415   7.328   2.824   5.312 -0.8047  0.2051  0.1143
  915MOL0     C23416   7.319   2.679   5.323 -0.5861 -0.2699  0.6682
  915MOL0     C23417   7.199   2.618   5.291 -0.4346  1.3272 -0.1821
  915MOL0     C23418   7.195   2.458   5.274 -0.8997 -0.2594 -0.0850
  915MOL0     C23419   7.086   2.698   5.262  0.3789 -0.1962 -0.0950
  915MOL0     C23420   6.961   2.635   5.219  0.6901  0.1495 -0.9334
  915MOL0     O23421   6.899   2.695   5.115 -0.0092 -0.1678  0.4310
  915MOL0     C23422   6.776   2.643   5.078  0.0288 -0.1105 -0.2198
  915MOL0     C23423   6.752   2.537   4.993 -0.3818 -0.3909  0.8988
  915MOL0     C23424   6.621   2.496   4.969  0.5357  0.3659 -0.3430
  915MOL0     C23425   6.514   2.538   5.050 -0.1928  0.9108 -0.5661
  915MOL0     O23426   6.383   2.484   5.053 -0.0740  0.8583  0.2395
  915MOL0     C23427   6.349   2.402   4.935  0.0625 -1.1121  0.2912
  915MOL0     C23428   6.195   2.430   4.913  0.3049 -0.1919 -0.7228
  915MOL0     C23429   6.135   2.300   4.932 -0.1254 -0.0524  0.4508
  915MOL0     C23430   5.984   2.308   4.906 -0.7471 -0.6633  0.8232
  915MOL0     C23431   5.926   2.169   4.943  0.4564  0.1032  0.3920
  915MOL0     C23432   5.957   2.060   4.829  0.2807  0.5489  0.3027
  915MOL0     C23433   5.859   2.085   4.716 -0.4660  0.2626  0.5278
  915MOL0     C23434   5.822   1.955   4.650  0.1260  0.4969  1.4138
  915MOL0    Cl23435   5.683   1.901   4.753 -0.1883 -0.3341  0.0393
  915MOL0     C23436   6.544   2.626   5.158 -0.1487  0.8360  0.2082
  915MOL0     C23437   6.674   2.684   5.163  0.1391 -0.1174  0.2802
  915MOL0     O23438   6.916   2.537   5.281  0.0278  0.1250 -0.7708
  915MOL0     C23439   7.087   2.845   5.263  0.4769  0.8444 -0.7532
  915MOL0     C23440   7.212   2.904   5.286 -0.1840  0.0559  0.4161
  915MOL0     N23441   7.921   2.842   5.450  0.6955 -0.1483  0.2953
  915MOL0     N23442   8.032   2.784   5.484 -0.4377  0.0923  0.2772
  915MOL0     C23443   8.760   3.469   6.392 -0.0768 -0.0275 -0.6151
  915MOL0     C23444   8.894   3.466   6.433  0.4195  0.4740  0.5064
  915MOL0     C23445   9.331   3.402   6.486  0.2311 -0.1540 -0.0894
  915MOL0     C23446   9.378   3.336   6.382  0.4079  0.3032 -0.2172
  915MOL0     C23447   9.517   3.333   6.352  0.4310  0.6103  0.1516
  915MOL0     C23448   9.610   3.382   6.449 -0.0388 -0.3720 -0.9398
  915MOL0     O23449   9.749   3.376   6.437 -0.2741  0.3518  1.3342
  915MOL0     C23450   9.794   3.378   6.299  0.2123  0.5054  0.0585
  915MOL0     C23451   9.934   3.412   6.298 -0.4572 -0.1336  1.1096
  915MOL0     C23452   9.994   3.424   6.148  0.2434  1.4952 -0.5595
  915MOL0     C23453  10.124   3.510   6.140  1.0018  0.4149  0.2065
  915MOL0     C23454  10.109   3.663   6.164 -0.2383  0.1884 -0.1282
  915MOL0     C23455  10.095   3.783   6.170 -1.1937 -0.3783 -0.8855
  915MOL0     C23456   9.563   3.435   6.574  0.5450 -0.4163  0.0398
  915MOL0     C23457   9.425   3.435   6.594 -0.2145  1.0188 -0.0091
  915MOL0     H23458   8.986   3.195   6.259  0.9021  1.6060  0.5099
  915MOL0     H23459   8.738   3.198   6.197  0.4084  0.9265 -0.7646
  915MOL0     H23460   8.509   3.194   6.292  1.5755  1.6861  3.5496
  915MOL0     H23461   8.385   3.313   6.284 -0.0569 -1.7234  1.5487
  915MOL0     H23462   8.439   3.403   6.071  0.5800 -0.3488 -0.1256
  915MOL0     H23463   8.569   3.296   6.051  0.2775 -1.6358  2.2728
  915MOL0     H23464   8.417   3.095   6.085 -1.9577 -0.8702  2.5825
  915MOL0     H23465   8.277   3.207   6.074  0.4232 -1.2765  1.4933
  915MOL0     H23466   8.331   3.262   5.841 -0.3407 -0.0503  2.1103
  915MOL0     H23467   8.495   3.183   5.847  0.1533  1.1901  0.7574
  915MOL0     H23468   8.360   2.972   5.914  1.1146 -0.9376 -0.6288
  915MOL0     H23469   8.218   3.062   5.856 -0.0082 -0.0138  1.3734
  915MOL0     H23470   8.319   3.095   5.634 -0.8509  0.9101  1.5526
  915MOL0     H23471   8.460   2.989   5.677 -0.1416 -3.0435 -1.5386
  915MOL0     H23472   8.308   2.804   5.713 -1.1886  0.7942  2.2228
  915MOL0     H23473   8.165   2.914   5.685 -0.2968 -1.5267  2.8945
  915MOL0     H23474   8.306   2.759   5.497 -3.6964 -0.6055 -0.0338
  915MOL0     H23475   8.335   2.929   5.448 -0.1421  1.6678  0.2349
  915MOL0     H23476   8.132   3.058   5.335 -1.2726 -0.8719 -2.9728
  915MOL0     H23477   7.875   3.134   5.407 -1.5506 -0.8599  1.3448
  915MOL0     H23478   7.899   3.092   5.238  1.3042  2.3205  1.0951
  915MOL0     H23479   7.671   3.118   5.318  0.2076 -0.0072 -1.9600
  915MOL0     H23480   7.686   2.975   5.435 -0.1891 -2.7290 -1.4685
  915MOL0     H23481   7.674   2.812   5.253  1.0659 -0.2753 -1.1609
  915MOL0     H23482   7.712   2.937   5.141  0.0978 -1.5652  0.8255
  915MOL0     H23483   7.482   2.855   5.134 -1.7953 -2.0216  2.0099
  915MOL0     H23484   7.480   3.028   5.180 -0.8585  0.0254  1.1372
  915MOL0     H23485   7.408   2.621   5.345 -0.5212 -2.1212 -3.5915
  915MOL0     H23486   7.291   2.408   5.257 -0.9210 -0.6122  0.8003
  915MOL0     H23487   7.158   2.410   5.365  0.1071  1.1111  1.0895
  915MOL0     H23488   7.129   2.437   5.189  1.7550 -0.6060 -2.2015
  915MOL0     H23489   6.824   2.500   4.920 -0.5638 -0.1610  0.5983
  915MOL0     H23490   6.605   2.410   4.905 -0.2168  1.0505 -1.0884
  915MOL0     H23491   6.392   2.443   4.843  1.3225  0.3728  1.4984
  915MOL0     H23492   6.374   2.295   4.937 -0.8884 -1.4022  3.8154
  915MOL0     H23493   6.158   2.497   4.991 -1.0701 -3.6440  1.8631
  915MOL0     H23494   6.181   2.464   4.810  1.4790  1.0235 -0.5170
  915MOL0     H23495   6.148   2.262   5.034 -3.9376  1.3161  1.6054
  915MOL0     H23496   6.177   2.226   4.863 -1.4299 -0.2816 -0.1200
  915MOL0     H23497   5.938   2.384   4.970  0.4756  1.4958 -0.7616
  915MOL0     H23498   5.978   2.336   4.801 -0.3375  0.6532  1.1410
  915MOL0     H23499   5.819   2.188   4.958  0.7324  2.5128 -0.2252
  915MOL0     H23500   5.970   2.139   5.038 -2.6217 -2.0944  1.3101
  915MOL0     H23501   6.060   2.070   4.795 -0.1121  0.2208 -1.0621
  915MOL0     H23502   5.937   1.962   4.874 -1.9070  1.7857  2.2085
  915MOL0     H23503   5.897   2.159   4.645 -1.0399 -0.0810 -0.1519
  915MOL0     H23504   5.765   2.132   4.746 -1.4975 -0.5258 -1.3142
  915MOL0     H23505   5.894   1.873   4.659 -1.9508 -1.4101  1.5111
  915MOL0     H23506   5.786   1.966   4.547  0.3024 -0.2333  1.2698
  915MOL0     H23507   6.469   2.652   5.232 -0.1405  3.0634 -0.5082
  915MOL0     H23508   6.687   2.745   5.252 -0.4793  0.9001 -0.2916
  915MOL0     H23509   7.000   2.906   5.243 -1.9325 -1.3517  2.0091
  915MOL0     H23510   7.224   3.011   5.268  2.3992 -0.3615 -0.8057
  915MOL0     H23511   8.698   3.553   6.422 -3.6154 -0.7564 -4.9529
  915MOL0     H23512   8.928   3.543   6.501  0.1740  0.1828  0.9663
  915MOL0     H23513   9.311   3.315   6.299 -1.8819  0.1220  1.5678
  915MOL0     H23514   9.535   3.299   6.251 -0.6671  0.0840  0.1224
  915MOL0     H23515   9.781   3.284   6.245  2.9553  0.0914  0.0144
  915MOL0     H23516   9.737   3.458   6.250 -1.3340  1.5492  3.2062
  915MOL0     H23517   9.998   3.347   6.359  1.8266  0.1929 -0.7895
  915MOL0     H23518   9.946   3.514   6.334 -2.1068  0.1945  0.8224
  915MOL0     H23519   9.926   3.477   6.081 -3.5637 -1.7661  0.3760
  915MOL0     H23520  10.007   3.323   6.109 -0.4139  1.1738  0.0157
  915MOL0     H23521  10.181   3.490   6.049  1.4644 -3.4327  1.1482
  915MOL0     H23522  10.182   3.476   6.226  0.2725 -2.0508 -0.1938
  915MOL0     H23523  10.099   3.889   6.184 -2.6403 -0.2910 -1.0087
  915MOL0     H23524   9.638   3.483   6.636 -0.4658  1.3286 -0.0206
  915MOL0     H23525   9.388   3.462   6.692  0.6916  0.3192  0.5464
  916MOL0     O23526   7.712   9.336   5.793 -0.7291  0.1722 -0.2610
  916MOL0     C23527   7.779   9.435   5.756  0.1789  0.5279 -0.6913
  916MOL0     O23528   7.729   9.550   5.711  0.2394 -0.1562 -0.2499
  916MOL0     C23529   7.597   9.552   5.684 -0.4353 -0.4363 -0.2896
  916MOL0     C23530   7.517   9.653   5.734 -0.3454 -0.1408  0.2393
  916MOL0     C23531   7.380   9.651   5.704 -0.4424  0.0937 -1.2400
  916MOL0     C23532   7.324   9.564   5.608  0.4270 -0.2771  0.4381
  916MOL0     O23533   7.193   9.586   5.551  0.2669  0.0196 -0.4536
  916MOL0     C23534   7.121   9.696   5.597 -0.3035 -0.3659 -0.2813
  916MOL0     C23535   6.995   9.717   5.513 -0.4847 -0.4034 -0.1654
  916MOL0     C23536   6.895   9.598   5.525  0.6965 -0.4627  0.2657
  916MOL0     C23537   6.787   9.614   5.408 -1.2535 -1.0794  0.4573
  916MOL0     C23538   6.665   9.533   5.439  0.9199 -1.3549 -0.0945
  916MOL0     C23539   6.569   9.510   5.313 -0.3339 -0.2190  0.7017
  916MOL0     C23540   6.464   9.413   5.359  0.4701 -0.5324  0.9034
  916MOL0     C23541   6.396   9.337   5.247  0.2827 -0.0768  0.0617
  916MOL0     N23542   6.279   9.267   5.301 -0.4760  0.3710 -0.4917
  916MOL0     C23543   6.190   9.308   5.394 -0.3858 -0.1491  0.4820
  916MOL0     C23544   6.104   9.209   5.411  0.6814 -0.1292  0.1002
  916MOL0     C23545   5.977   9.187   5.486 -0.3289  0.4276  0.5220
  916MOL0     C23546   5.852   9.253   5.424 -0.2109  0.5057 -0.1956
  916MOL0     C23547   5.737   9.208   5.516 -1.1088  0.1406 -0.4870
  916MOL0     C23548   5.613   9.285   5.478  0.1525  0.1055 -0.1264
  916MOL0     O23549   5.523   9.282   5.588  0.5867  0.5318 -0.5185
  916MOL0     C23550   5.408   9.360   5.588 -0.1579  0.4290 -0.1547
  916MOL0     C23551   5.345   9.389   5.714 -0.1265 -0.5965  0.4654
  916MOL0     C23552   5.224   9.449   5.719 -0.4311  0.7605  0.5028
  916MOL0     C23553   5.167   9.491   5.854 -0.5784  0.4596  0.3152
  916MOL0     C23554   5.153   9.463   5.594 -0.6403 -0.6089  0.2361
  916MOL0     C23555   5.013   9.508   5.586  0.0263 -0.0599 -0.3191
  916MOL0     O23556   4.987   9.606   5.502 -0.1966  0.8075 -0.6012
  916MOL0     C23557   4.868   9.663   5.484 -0.0352  0.6027  0.0212
  916MOL0     C23558   4.831   9.713   5.362  0.0246  0.2273  0.3998
  916MOL0     C23559   4.707   9.772   5.338  0.1039  0.5695  0.2481
  916MOL0     C23560   4.617   9.800   5.445 -0.2942 -0.9754 -0.0203
  916MOL0     O23561   4.492   9.858   5.423  0.1984  0.0303  0.1872
  916MOL0     C23562   4.385   9.793   5.497 -0.7163 -0.9789  0.4010
  916MOL0     C23563   4.253   9.853   5.438 -0.3483  0.5440  0.3630
  916MOL0     C23564   4.147   9.777   5.505 -0.1422  0.2180  0.2003
  916MOL0     C23565   4.007   9.769   5.438 -0.4108  0.0879 -0.2394
  916MOL0     C23566   3.951   9.909   5.392  0.1668 -0.3334  1.0319
  916MOL0     C23567   3.814   9.913   5.326 -0.3387  0.6438  0.3608
  916MOL0     C23568   3.801   9.814   5.209 -0.3049  0.2082  0.0988
  916MOL0     C23569   3.683   9.859   5.118  0.7674  0.5669  0.4259
  916MOL0    Cl23570   3.617   9.716   5.025 -0.5397 -0.2489  0.0799
  916MOL0     C23571   4.650   9.751   5.571  0.0933  0.0851 -0.9226
  916MOL0     C23572   4.770   9.676   5.586  0.5812 -0.3197  0.3732
  916MOL0     O23573   4.933   9.447   5.652  1.0617  0.0613  0.0524
  916MOL0     C23574   5.216   9.439   5.468  0.3266  0.1636 -0.7824
  916MOL0     C23575   5.347   9.391   5.463 -0.0531  0.6306 -0.3664
  916MOL0     N23576   6.160   9.102   5.343  0.1953  0.6261  0.0000
  916MOL0     N23577   6.260   9.137   5.280  0.1468  0.3385  0.2328
  916MOL0     C23578   7.404   9.463   5.549  0.4030 -0.3650  0.4004
  916MOL0     C23579   7.535   9.458   5.595  0.3370  0.2804 -0.0558
  916MOL0     C23580   7.925   9.426   5.773  0.1906  0.4846 -0.3779
  916MOL0     C23581   7.990   9.310   5.836  0.9458 -0.2024  0.1308
  916MOL0     C23582   8.129   9.307   5.845 -0.4009  0.5929 -0.1704
  916MOL0     C23583   8.208   9.415   5.820  0.4285  0.4708  0.3866
  916MOL0     O23584   8.342   9.402   5.854 -0.2047  0.4039  0.8967
  916MOL0     C23585   8.434   9.505   5.861 -0.4190 -0.4235  0.2424
  916MOL0     C23586   8.502   9.536   5.719  0.1260  0.8202 -0.0040
  916MOL0     C23587   8.607   9.436   5.670  0.0012 -0.2424  0.2549
  916MOL0     C23588   8.558   9.294   5.664  0.9955  0.3116 -0.0833
  916MOL0     C23589   8.660   9.206   5.611  0.3414  0.1437 -0.1528
  916MOL0     C23590   8.743   9.134   5.567 -0.8261 -0.6005  0.2735
  916MOL0     C23591   8.144   9.526   5.753 -0.2367  0.6804  0.1458
  916MOL0     C23592   8.010   9.524   5.735  0.3216 -0.2360  1.1596
  916MOL0     H23593   7.566   9.727   5.795 -0.3357  0.1637 -0.1348
  916MOL0     H23594   7.316   9.718   5.761 -1.4736 -1.0884 -0.9685
  916MOL0     H23595   7.089   9.681   5.701  0.8995  1.3388  0.3870
  916MOL0     H23596   7.181   9.787   5.588  0.9581 -1.1385  0.0747
  916MOL0     H23597   6.940   9.810   5.530 -1.3175 -1.3505  3.1087
  916MOL0     H23598   7.038   9.717   5.412  0.5325  0.2918  0.2510
  916MOL0     H23599   6.954   9.508   5.507 -0.7750 -1.3455 -0.3829
  916MOL0     H23600   6.841   9.598   5.620 -1.1150  1.9565 -0.6387
  916MOL0     H23601   6.759   9.720   5.398  1.7384 -0.4080 -2.4164
  916MOL0     H23602   6.832   9.570   5.319  1.8578 -1.0352  1.8819
  916MOL0     H23603   6.698   9.434   5.473  3.5381 -0.1975  1.0320
  916MOL0     H23604   6.616   9.580   5.524  4.2582 -0.6958  1.6468
  916MOL0     H23605   6.521   9.605   5.287  1.7126  1.1040  1.4943
  916MOL0     H23606   6.627   9.467   5.231 -1.0766  0.1819 -0.0546
  916MOL0     H23607   6.502   9.343   5.434  1.3213 -0.6096  0.4220
  916MOL0     H23608   6.389   9.477   5.405  1.1893  1.3024 -0.3751
  916MOL0     H23609   6.470   9.266   5.211 -0.5395 -0.9729  0.0914
  916MOL0     H23610   6.369   9.413   5.174 -0.7576  0.3126  0.8230
  916MOL0     H23611   6.180   9.412   5.422  1.7816 -0.0315  0.9832
  916MOL0     H23612   5.956   9.080   5.496 -2.8609  0.9884  2.0041
  916MOL0     H23613   5.993   9.238   5.581 -2.4415  2.1319  0.0140
  916MOL0     H23614   5.837   9.236   5.317  2.0929  0.5249 -0.5800
  916MOL0     H23615   5.871   9.360   5.437 -0.1086  0.2066  2.5792
  916MOL0     H23616   5.760   9.237   5.619 -0.2480 -0.8053 -0.3946
  916MOL0     H23617   5.719   9.102   5.498  4.1849 -0.7532 -2.5857
  916MOL0     H23618   5.570   9.242   5.387  0.2323  0.3953 -0.3024
  916MOL0     H23619   5.630   9.390   5.453 -0.6165  0.8822  2.3464
  916MOL0     H23620   5.394   9.362   5.807  1.6469  0.0737 -0.2458
  916MOL0     H23621   5.114   9.410   5.905 -1.5066  0.6423 -0.3383
  916MOL0     H23622   5.249   9.521   5.921 -0.5967  0.2976  0.4110
  916MOL0     H23623   5.110   9.584   5.844 -3.0980 -0.9523  0.7408
  916MOL0     H23624   4.891   9.704   5.273 -1.0399 -0.1589 -0.3006
  916MOL0     H23625   4.677   9.802   5.238 -0.5653  0.2731  0.3513
  916MOL0     H23626   4.374   9.686   5.478  2.4105 -0.9611 -2.4162
  916MOL0     H23627   4.393   9.809   5.605  0.2976  0.7586  0.1022
  916MOL0     H23628   4.248   9.960   5.459  4.5275  0.5939  2.7027
  916MOL0     H23629   4.253   9.846   5.329  0.1813  2.1315  0.2398
  916MOL0     H23630   4.138   9.828   5.602  1.7124  0.3428  0.3351
  916MOL0     H23631   4.181   9.676   5.530  0.7924  0.6867  0.8747
  916MOL0     H23632   4.015   9.703   5.351 -1.8755 -1.3561  0.6417
  916MOL0     H23633   3.938   9.708   5.498 -0.9806 -0.7808 -1.7177
  916MOL0     H23634   4.020   9.967   5.330  0.6987  1.4209  3.1000
  916MOL0     H23635   3.945   9.965   5.486 -0.6592 -1.1564  1.4822
  916MOL0     H23636   3.742   9.899   5.407 -0.1179 -0.8003  0.3204
  916MOL0     H23637   3.807  10.019   5.300  2.7407  1.0235  0.6920
  916MOL0     H23638   3.787   9.717   5.256  1.6707  1.0289  2.5822
  916MOL0     H23639   3.891   9.810   5.147  0.2956 -3.5209  0.9998
  916MOL0     H23640   3.712   9.940   5.049 -0.1339  0.1646 -0.4576
  916MOL0     H23641   3.611   9.890   5.194  2.3293  2.0643  1.3909
  916MOL0     H23642   4.601   9.767   5.667  1.6374 -0.4420 -0.0107
  916MOL0     H23643   4.797   9.647   5.687 -0.5777 -1.0265  0.5005
  916MOL0     H23644   5.173   9.461   5.371 -1.8757  0.2735  0.1730
  916MOL0     H23645   5.383   9.357   5.366 -2.5921 -0.4146 -1.0224
  916MOL0     H23646   7.365   9.402   5.468 -0.7263  1.9040 -0.8767
  916MOL0     H23647   7.596   9.379   5.554 -0.4417  0.6341 -1.9961
  916MOL0     H23648   7.924   9.225   5.853 -3.0004  2.5166 -0.3165
  916MOL0     H23649   8.173   9.230   5.908  0.7598  1.1808 -0.2292
  916MOL0     H23650   8.379   9.594   5.891 -1.1706  0.8239 -4.0618
  916MOL0     H23651   8.515   9.480   5.930 -0.4521  0.4669  0.6133
  916MOL0     H23652   8.566   9.623   5.739  1.4095 -0.0945 -0.0407
  916MOL0     H23653   8.431   9.558   5.639 -0.8847 -1.2382  0.2687
  916MOL0     H23654   8.698   9.430   5.731  0.1246  0.4825  0.1519
  916MOL0     H23655   8.625   9.465   5.566 -1.1099 -1.1992 -0.2254
  916MOL0     H23656   8.464   9.287   5.609  1.2562  1.8938 -0.7845
  916MOL0     H23657   8.532   9.262   5.765  2.0052 -0.9288 -0.1825
  916MOL0     H23658   8.834   9.078   5.556 -1.7858 -1.7567 -2.9252
  916MOL0     H23659   8.208   9.611   5.732  0.0854  1.6003  4.1382
  916MOL0     H23660   7.972   9.616   5.692 -0.0146 -0.9414 -0.1187
  917MOL0     O23661   2.337   7.420   1.447 -0.1656 -0.1783 -0.1564
  917MOL0     C23662   2.375   7.450   1.563 -0.1039 -0.0504  0.2322
  917MOL0     O23663   2.310   7.415   1.680 -0.2951 -0.0049  0.2818
  917MOL0     C23664   2.196   7.342   1.661 -0.2150 -0.2488 -0.1068
  917MOL0     C23665   2.073   7.406   1.661 -0.0228  0.6722 -0.1042
  917MOL0     C23666   1.950   7.334   1.650 -0.5782 -0.2403 -0.4064
  917MOL0     C23667   1.957   7.197   1.619 -0.8982  0.5713  0.3193
  917MOL0     O23668   1.843   7.119   1.602  0.4305  1.1008  0.2698
  917MOL0     C23669   1.725   7.175   1.629 -0.2256  0.6579  0.2937
  917MOL0     C23670   1.621   7.070   1.594 -0.1780  0.8091 -0.4203
  917MOL0     C23671   1.477   7.091   1.631 -0.0304 -1.1269  0.3508
  917MOL0     C23672   1.386   7.012   1.537 -0.0070 -0.6068  0.4719
  917MOL0     C23673   1.243   7.003   1.600  0.1718 -0.5122  0.9356
  917MOL0     C23674   1.135   6.953   1.490 -0.2798 -0.8257 -0.1973
  917MOL0     C23675   1.001   6.908   1.544  0.5897  1.0747  0.4385
  917MOL0     C23676   0.910   6.836   1.443 -0.7782 -0.2449  1.0713
  917MOL0     N23677   0.857   6.923   1.334  1.3749  0.6098  0.5246
  917MOL0     C23678   0.756   7.021   1.356 -1.6114 -0.1280  0.0668
  917MOL0     C23679   0.723   7.067   1.231 -0.1223  0.0273 -0.0819
  917MOL0     C23680   0.612   7.167   1.199 -0.8158 -0.4343 -0.6465
  917MOL0     C23681   0.479   7.129   1.263 -0.1211 -0.4894 -0.1920
  917MOL0     C23682   0.353   7.187   1.202  0.3834 -0.4408  0.7754
  917MOL0     C23683   0.360   7.341   1.224 -0.6465 -0.5586 -0.0964
  917MOL0     O23684   0.348   7.393   1.092  0.7567 -0.4663  0.1300
  917MOL0     C23685   0.218   7.424   1.049 -0.1154 -0.9220 -0.3082
  917MOL0     C23686   0.214   7.505   0.937 -0.0757 -0.7354 -0.1098
  917MOL0     C23687   0.098   7.549   0.879 -0.7088  0.0780 -0.1760
  917MOL0     C23688   0.115   7.636   0.761  0.5236 -0.4930 -0.8735
  917MOL0     C23689  -0.025   7.507   0.938 -0.6193 -0.5111 -0.4193
  917MOL0     C23690  -0.159   7.559   0.900 -0.4172  0.3177  0.4812
  917MOL0     O23691  -0.262   7.542   0.993  0.1021  0.4414 -0.3769
  917MOL0     C23692  -0.399   7.538   0.951  0.7683 -0.2415 -0.2938
  917MOL0     C23693  -0.459   7.502   0.829 -0.0442 -0.2182  0.5403
  917MOL0     C23694  -0.593   7.517   0.807 -0.7681  0.7289 -0.2800
  917MOL0     C23695  -0.675   7.566   0.901  0.0599 -0.0757  0.4498
  917MOL0     O23696  -0.802   7.572   0.866 -0.0658 -0.6319 -0.3135
  917MOL0     C23697  -0.895   7.592   0.969  0.4450  0.1646  0.6926
  917MOL0     C23698  -1.040   7.563   0.915  0.0927  0.0076  0.2475
  917MOL0     C23699  -1.082   7.671   0.819  0.3527 -0.1391 -0.1725
  917MOL0     C23700  -1.231   7.706   0.791 -0.3236  0.1077 -0.3990
  917MOL0     C23701  -1.324   7.585   0.771 -0.2409  1.0394 -0.5092
  917MOL0     C23702  -1.470   7.607   0.727 -0.7985  0.1288  0.3041
  917MOL0     C23703  -1.552   7.699   0.800 -0.3216 -1.0972  0.0310
  917MOL0     C23704  -1.698   7.713   0.744 -0.0067  0.7964 -0.1373
  917MOL0    Cl23705  -1.698   7.786   0.577 -0.4482 -0.1244  0.0218
  917MOL0     C23706  -0.626   7.576   1.032  0.1039 -0.0330  0.2367
  917MOL0     C23707  -0.492   7.569   1.048  0.0193 -0.1673  0.4711
  917MOL0     O23708  -0.176   7.622   0.793 -0.4433 -0.1697 -0.0702
  917MOL0     C23709  -0.015   7.419   1.053  0.6557 -1.1423  0.3813
  917MOL0     C23710   0.101   7.380   1.111  0.7544  0.0057 -0.8634
  917MOL0     N23711   0.810   7.001   1.144  0.5929 -0.1964 -0.1724
  917MOL0     N23712   0.893   6.927   1.205  0.4167  0.9645 -0.0384
  917MOL0     C23713   2.078   7.134   1.624 -0.7601 -0.0856  0.4848
  917MOL0     C23714   2.199   7.208   1.642 -0.6138 -0.3016 -0.1592
  917MOL0     C23715   2.502   7.520   1.573 -0.2057  0.1275  0.1387
  917MOL0     C23716   2.584   7.550   1.455 -0.4449 -0.5533 -0.2512
  917MOL0     C23717   2.717   7.595   1.469 -0.2031 -0.0962  0.9282
  917MOL0     C23718   2.762   7.621   1.596 -0.1508  0.4368  0.1113
  917MOL0     O23719   2.890   7.653   1.630 -0.3843  0.1390  0.1553
  917MOL0     C23720   2.989   7.691   1.526  0.1454 -0.1641  0.1924
  917MOL0     C23721   3.061   7.569   1.460  0.0725  0.1643 -0.4476
  917MOL0     C23722   3.111   7.607   1.324  0.4676 -0.2532  0.3067
  917MOL0     C23723   3.192   7.496   1.254  0.1216 -0.6418 -0.6609
  917MOL0     C23724   3.104   7.401   1.185  0.3646  0.9056 -0.2665
  917MOL0     C23725   3.034   7.322   1.125 -1.3858 -0.6437  0.2920
  917MOL0     C23726   2.693   7.598   1.712  0.5374  0.3686 -0.5246
  917MOL0     C23727   2.557   7.551   1.698 -1.3302 -0.4217 -0.3557
  917MOL0     H23728   2.074   7.514   1.677  0.0387  0.5678  0.6613
  917MOL0     H23729   1.856   7.388   1.663 -0.6634 -0.7732  1.5060
  917MOL0     H23730   1.720   7.205   1.734 -0.5185 -3.4420  1.6520
  917MOL0     H23731   1.720   7.262   1.563  1.3223 -0.2196 -1.0788
  917MOL0     H23732   1.624   7.046   1.487 -0.3615 -0.2269 -0.2070
  917MOL0     H23733   1.655   6.980   1.646  1.0627  1.0997 -0.6990
  917MOL0     H23734   1.468   7.056   1.735 -1.4692  2.1983  1.5045
  917MOL0     H23735   1.448   7.196   1.641  2.9528 -0.3270  1.5952
  917MOL0     H23736   1.383   7.063   1.440  3.0621  1.7809  1.4688
  917MOL0     H23737   1.425   6.911   1.521  1.4943 -0.3524  2.2477
  917MOL0     H23738   1.241   6.938   1.688 -3.0652 -0.0056  1.3375
  917MOL0     H23739   1.199   7.096   1.637  0.1779  0.0441 -0.3935
  917MOL0     H23740   1.126   7.044   1.430 -0.9138  1.6374  3.3298
  917MOL0     H23741   1.188   6.871   1.440 -0.3092 -2.5426  2.4037
  917MOL0     H23742   1.018   6.835   1.623 -0.8763  0.5990  0.3394
  917MOL0     H23743   0.941   6.991   1.583  0.8595  0.4036  2.3587
  917MOL0     H23744   0.826   6.791   1.496  1.3351 -2.4129  2.7807
  917MOL0     H23745   0.970   6.756   1.400  0.3235  0.6409  0.9104
  917MOL0     H23746   0.704   7.035   1.450  1.1492 -2.4617  2.1627
  917MOL0     H23747   0.655   7.256   1.246  0.2954 -0.6026 -1.2903
  917MOL0     H23748   0.593   7.195   1.095 -0.8216  1.8633 -0.0840
  917MOL0     H23749   0.493   7.158   1.368 -0.6570  3.5823 -1.0906
  917MOL0     H23750   0.474   7.020   1.251  0.2741 -0.9257  2.7362
  917MOL0     H23751   0.260   7.157   1.252  0.9812 -0.8380  1.6857
  917MOL0     H23752   0.342   7.171   1.095  2.0916 -1.5066  0.7134
  917MOL0     H23753   0.455   7.375   1.265 -1.3347  1.8350 -0.3453
  917MOL0     H23754   0.287   7.378   1.296 -1.9435  0.4188 -1.8137
  917MOL0     H23755   0.309   7.539   0.897  0.0492 -1.4551 -0.4442
  917MOL0     H23756   0.220   7.665   0.770  1.0684 -2.9992  4.9447
  917MOL0     H23757   0.093   7.586   0.666 -0.6900 -2.1238  0.2241
  917MOL0     H23758   0.052   7.724   0.779 -0.1514 -1.0572 -0.4303
  917MOL0     H23759  -0.400   7.463   0.746  0.8518  0.2806  0.9337
  917MOL0     H23760  -0.628   7.490   0.707 -0.4817 -1.9130  0.2622
  917MOL0     H23761  -0.888   7.512   1.043  0.9065 -2.3496 -1.8838
  917MOL0     H23762  -0.897   7.693   1.012 -3.0816  0.2437  0.6390
  917MOL0     H23763  -1.041   7.469   0.859 -2.8736  0.9105 -1.4691
  917MOL0     H23764  -1.091   7.568   1.011  1.4133  2.2117  0.9048
  917MOL0     H23765  -1.038   7.633   0.726  1.6123 -2.0250  1.1200
  917MOL0     H23766  -1.028   7.766   0.831 -1.8960  1.0471  1.2945
  917MOL0     H23767  -1.279   7.771   0.865  1.1551  0.3297  0.3951
  917MOL0     H23768  -1.224   7.770   0.702  3.7545  0.9078  0.3370
  917MOL0     H23769  -1.311   7.520   0.858  3.7285  0.4037 -1.4142
  917MOL0     H23770  -1.266   7.527   0.699  0.2472 -0.0353  0.7070
  917MOL0     H23771  -1.483   7.634   0.622 -1.3116 -1.2272 -0.0110
  917MOL0     H23772  -1.509   7.507   0.750  0.2779  0.0724  2.0326
  917MOL0     H23773  -1.502   7.796   0.796 -1.7337 -0.2885  1.2339
  917MOL0     H23774  -1.559   7.667   0.904  0.8467 -0.4598  0.3224
  917MOL0     H23775  -1.751   7.782   0.810  1.3932  2.2706 -0.4757
  917MOL0     H23776  -1.746   7.616   0.757  2.0198 -0.1698  0.6895
  917MOL0     H23777  -0.693   7.601   1.113  0.2515 -0.6120  0.5504
  917MOL0     H23778  -0.456   7.586   1.149  0.1463 -1.3102  0.6278
  917MOL0     H23779  -0.110   7.388   1.094 -0.9920  2.3289 -0.4465
  917MOL0     H23780   0.090   7.319   1.200  1.2004  1.6065  0.3388
  917MOL0     H23781   2.085   7.028   1.601  0.2631 -0.1373  0.9594
  917MOL0     H23782   2.298   7.165   1.635 -0.3996  0.3995 -2.1361
  917MOL0     H23783   2.540   7.528   1.357  2.0155  0.5172 -1.6830
  917MOL0     H23784   2.778   7.600   1.379 -0.2223 -0.0346  0.9189
  917MOL0     H23785   2.938   7.752   1.451  1.0547 -2.3695 -2.4066
  917MOL0     H23786   3.072   7.740   1.577 -0.2731  0.9132 -0.1302
  917MOL0     H23787   2.994   7.483   1.467  1.0042 -0.4419  3.2265
  917MOL0     H23788   3.146   7.541   1.524  1.0083  2.5458 -0.5223
  917MOL0     H23789   3.181   7.689   1.341  1.5417 -1.6677  3.3949
  917MOL0     H23790   3.029   7.629   1.256  2.8583 -1.4845 -3.2832
  917MOL0     H23791   3.240   7.440   1.336 -2.4593 -1.9663  0.0406
  917MOL0     H23792   3.264   7.540   1.184 -0.4417  2.5852  0.6080
  917MOL0     H23793   2.972   7.253   1.071  0.9197 -0.5329 -2.7775
  917MOL0     H23794   2.741   7.599   1.809 -2.0619 -0.1611  0.8747
  917MOL0     H23795   2.506   7.518   1.787 -0.5754 -0.4724  0.0737
  918MOL0     O23796  11.205   9.644   6.965 -0.4389  0.2207  0.8140
  918MOL0     C23797  11.278   9.604   7.057  0.1394 -0.2249  0.2777
  918MOL0     O23798  11.243   9.520   7.160  0.7261 -0.5000  0.4005
  918MOL0     C23799  11.105   9.484   7.164 -0.2826 -0.0016  0.1246
  918MOL0     C23800  11.002   9.576   7.181  0.9405  0.0351  0.2006
  918MOL0     C23801  10.864   9.539   7.178 -0.1531 -0.5233  0.6042
  918MOL0     C23802  10.828   9.403   7.163  0.1787 -0.9712  0.8866
  918MOL0     O23803  10.699   9.361   7.156 -0.0884  0.1404 -0.2248
  918MOL0     C23804  10.599   9.433   7.096  0.5040  0.0122  0.0730
  918MOL0     C23805  10.470   9.349   7.068 -0.2594  0.9250 -0.6709
  918MOL0     C23806  10.390   9.301   7.191 -0.3995  0.3297 -0.1537
  918MOL0     C23807  10.266   9.221   7.136 -0.4934 -0.0252  0.5296
  918MOL0     C23808  10.157   9.191   7.243 -0.3412  0.4141  0.6508
  918MOL0     C23809  10.040   9.111   7.183  0.0784 -0.9687 -0.5618
  918MOL0     C23810  10.080   8.964   7.141  0.1984  0.1490  0.8856
  918MOL0     C23811   9.963   8.893   7.086  0.6449 -0.0142 -0.3021
  918MOL0     N23812   9.999   8.752   7.047 -0.3520 -0.3044 -0.2514
  918MOL0     C23813  10.099   8.693   6.967  0.2338 -0.3141  0.0986
  918MOL0     C23814  10.095   8.559   6.998 -0.4169 -0.5819  0.1008
  918MOL0     C23815  10.184   8.458   6.926  0.0004 -0.0329 -0.2498
  918MOL0     C23816  10.330   8.488   6.962 -0.4043 -0.3815  0.1445
  918MOL0     C23817  10.421   8.374   6.924  0.0759 -0.0577 -1.0588
  918MOL0     C23818  10.571   8.391   6.961  0.6097 -0.1095 -0.0824
  918MOL0     O23819  10.636   8.260   6.949  0.0429  0.2741 -0.1559
  918MOL0     C23820  10.771   8.262   6.927 -0.3261 -0.0300 -0.8074
  918MOL0     C23821  10.832   8.159   6.865 -0.1653 -1.0048 -0.0106
  918MOL0     C23822  10.975   8.157   6.826  0.8655  0.1877 -0.2290
  918MOL0     C23823  11.033   8.030   6.758 -0.2329  0.0824  0.1225
  918MOL0     C23824  11.053   8.266   6.862  0.1977 -0.0647  0.3699
  918MOL0     C23825  11.199   8.286   6.820 -0.4433  0.1390 -0.0065
  918MOL0     O23826  11.240   8.244   6.697  0.0017 -0.0176  0.0129
  918MOL0     C23827  11.366   8.271   6.662  0.1725 -1.0605  0.9892
  918MOL0     C23828  11.440   8.166   6.614  0.8862  0.1296 -0.8577
  918MOL0     C23829  11.568   8.194   6.562  0.9440  0.3020  0.0473
  918MOL0     C23830  11.631   8.325   6.557 -0.6072  0.3719  0.1739
  918MOL0     O23831  11.765   8.350   6.508  0.2551  0.5645  0.1479
  918MOL0     C23832  11.834   8.456   6.573 -0.3572 -0.5152  0.0059
  918MOL0     C23833  11.974   8.470   6.502  0.1816  0.2546 -0.7067
  918MOL0     C23834  12.075   8.565   6.579 -1.6871  0.4749  0.6925
  918MOL0     C23835  12.212   8.532   6.519 -0.3074 -0.1803 -0.3207
  918MOL0     C23836  12.312   8.620   6.594 -0.2100  0.2279 -0.4946
  918MOL0     C23837  12.451   8.599   6.540 -0.6515  0.1642  0.0283
  918MOL0     C23838  12.553   8.690   6.612 -1.3025  0.8160  0.7876
  918MOL0     C23839  12.687   8.684   6.546 -0.7930 -0.1971  0.2539
  918MOL0    Cl23840  12.810   8.762   6.657  0.1883 -0.6539 -0.2710
  918MOL0     C23841  11.550   8.425   6.609  0.3477  0.2896 -0.0272
  918MOL0     C23842  11.419   8.400   6.651 -0.1832  0.0433 -0.1512
  918MOL0     O23843  11.270   8.345   6.905 -0.1811 -0.1939 -0.3783
  918MOL0     C23844  10.991   8.368   6.931  0.7553 -0.6676  0.1690
  918MOL0     C23845  10.853   8.368   6.977  0.0502  0.0611 -0.2333
  918MOL0     N23846   9.984   8.538   7.084  0.0444 -0.1661  0.5223
  918MOL0     N23847   9.927   8.652   7.104  0.2073 -0.3995  1.0022
  918MOL0     C23848  10.926   9.310   7.156  0.1400 -0.3115  0.4862
  918MOL0     C23849  11.069   9.352   7.152  0.5196  0.1955  0.5782
  918MOL0     C23850  11.422   9.644   7.056  0.0852  0.2673 -0.7061
  918MOL0     C23851  11.475   9.743   6.973  0.4805  0.6713 -0.0763
  918MOL0     C23852  11.613   9.776   6.974  0.2669  1.1912 -0.0450
  918MOL0     C23853  11.701   9.704   7.057  0.0406 -0.2407  0.9222
  918MOL0     O23854  11.830   9.738   7.084 -0.2515 -0.6413 -0.0934
  918MOL0     C23855  11.886   9.869   7.044  0.3645  0.5593 -0.1486
  918MOL0     C23856  12.031   9.859   7.015  0.1017  0.5645 -0.8236
  918MOL0     C23857  12.114   9.801   7.133 -0.1490 -0.3423 -0.1786
  918MOL0     C23858  12.251   9.791   7.094  0.5628  1.0954  0.4006
  918MOL0     C23859  12.329   9.692   7.177 -0.0533  0.5760 -0.4278
  918MOL0     C23860  12.394   9.617   7.241 -0.2933 -0.6065 -0.8308
  918MOL0     C23861  11.650   9.600   7.138 -0.2385 -0.2259 -0.2072
  918MOL0     C23862  11.509   9.565   7.138 -0.1835 -0.5734  0.4541
  918MOL0     H23863  11.030   9.681   7.178  0.1742  0.3379  1.9337
  918MOL0     H23864  10.780   9.607   7.186 -0.0122 -0.4030  1.0971
  918MOL0     H23865  10.576   9.510   7.171  1.0000  0.2698 -0.0284
  918MOL0     H23866  10.636   9.488   7.009  0.3965  3.4663  2.0279
  918MOL0     H23867  10.403   9.414   7.012 -0.2658  0.7893 -0.8219
  918MOL0     H23868  10.492   9.268   6.997 -0.2645 -0.1110  0.4749
  918MOL0     H23869  10.447   9.237   7.260 -0.4073  2.1980  1.6993
  918MOL0     H23870  10.360   9.387   7.252 -1.9121 -0.0947 -0.2769
  918MOL0     H23871  10.228   9.283   7.055  4.1079  0.8249 -1.2270
  918MOL0     H23872  10.306   9.133   7.085 -0.5082 -1.1647  2.3891
  918MOL0     H23873  10.201   9.145   7.332 -0.8183 -1.5731 -0.0906
  918MOL0     H23874  10.114   9.284   7.281 -1.8814 -0.7820  1.9520
  918MOL0     H23875   9.971   9.113   7.267 -1.8948  0.3638 -2.1335
  918MOL0     H23876  10.001   9.161   7.093  2.5111  0.9363 -0.6932
  918MOL0     H23877  10.148   8.984   7.057  0.0090  0.5602  0.8264
  918MOL0     H23878  10.122   8.912   7.227  1.6709  1.0951  0.7833
  918MOL0     H23879   9.913   8.945   7.004  0.3527 -0.0984 -0.1795
  918MOL0     H23880   9.888   8.884   7.166 -1.3056  1.4286 -1.8682
  918MOL0     H23881  10.163   8.746   6.897 -1.1213 -0.3847 -1.2491
  918MOL0     H23882  10.153   8.365   6.975 -0.6674 -1.4922 -3.1617
  918MOL0     H23883  10.174   8.447   6.817 -0.0778  0.1241 -0.2588
  918MOL0     H23884  10.337   8.500   7.071  0.6584 -0.3452  0.0809
  918MOL0     H23885  10.369   8.577   6.913  0.0351 -1.4155 -1.4558
  918MOL0     H23886  10.412   8.360   6.816 -0.0991  1.7838 -1.3118
  918MOL0     H23887  10.389   8.278   6.966 -2.0487  0.7377 -0.7452
  918MOL0     H23888  10.574   8.437   7.060 -0.1524  0.0402 -0.1231
  918MOL0     H23889  10.618   8.461   6.891  1.6141 -3.0932 -2.6135
  918MOL0     H23890  10.772   8.076   6.829 -1.0617  0.1047 -1.1485
  918MOL0     H23891  11.076   8.062   6.662  0.3729  4.4954  1.6422
  918MOL0     H23892  11.111   7.979   6.816 -2.6180 -2.7040  1.1108
  918MOL0     H23893  10.957   7.954   6.737  0.1004 -0.0662 -0.5794
  918MOL0     H23894  11.398   8.067   6.612 -0.9772  0.9024 -2.1344
  918MOL0     H23895  11.629   8.109   6.536  0.1689 -1.0829  2.4785
  918MOL0     H23896  11.789   8.555   6.569  3.5775  1.4326 -1.0392
  918MOL0     H23897  11.842   8.435   6.680 -0.7373  3.7151  1.0274
  918MOL0     H23898  12.018   8.370   6.492  0.6095  0.3004  0.5495
  918MOL0     H23899  11.965   8.513   6.402 -1.4701  5.3661  1.3075
  918MOL0     H23900  12.071   8.543   6.686 -2.0439  0.0515  0.5955
  918MOL0     H23901  12.058   8.671   6.558  2.3376  1.0707 -0.3546
  918MOL0     H23902  12.235   8.426   6.537  2.7448  0.7263  1.8559
  918MOL0     H23903  12.208   8.563   6.414  0.2089  0.5851 -0.1181
  918MOL0     H23904  12.304   8.605   6.702  1.8429 -1.3140 -0.4920
  918MOL0     H23905  12.280   8.725   6.585 -1.1767  0.3724  2.9427
  918MOL0     H23906  12.490   8.497   6.546  0.1980  0.0388 -4.2915
  918MOL0     H23907  12.448   8.614   6.432  0.1005 -0.5882 -0.1152
  918MOL0     H23908  12.558   8.669   6.720 -0.5286  1.2364  0.8412
  918MOL0     H23909  12.506   8.788   6.601 -3.4024 -0.2031  0.2602
  918MOL0     H23910  12.691   8.726   6.446  4.8537  0.1041  0.2823
  918MOL0     H23911  12.708   8.578   6.529  0.4359  0.4667 -3.0999
  918MOL0     H23912  11.591   8.525   6.608  0.5460  0.2182  0.5940
  918MOL0     H23913  11.351   8.475   6.691  0.1457 -1.3789  3.4605
  918MOL0     H23914  11.052   8.456   6.950  0.9607 -0.1629 -2.3982
  918MOL0     H23915  10.811   8.445   7.041  1.7465  0.0244  1.0015
  918MOL0     H23916  10.898   9.205   7.157  1.0114 -0.6261 -1.9737
  918MOL0     H23917  11.156   9.290   7.136  0.9036  0.4903  1.4432
  918MOL0     H23918  11.403   9.802   6.918 -0.0554  1.1635  1.1398
  918MOL0     H23919  11.644   9.862   6.915 -1.0966  1.2063 -0.7701
  918MOL0     H23920  11.844   9.905   6.950  1.6728 -0.5667 -1.2280
  918MOL0     H23921  11.867   9.939   7.125 -1.9045  0.5685 -0.6411
  918MOL0     H23922  12.083   9.954   6.998  3.7465 -1.0635  0.2218
  918MOL0     H23923  12.035   9.805   6.921 -3.1304  2.0271 -1.9525
  918MOL0     H23924  12.067   9.706   7.161  0.5774 -1.1746 -1.6614
  918MOL0     H23925  12.106   9.864   7.221  0.8037  0.6831 -0.8022
  918MOL0     H23926  12.298   9.890   7.094  1.7087  0.6815  3.8361
  918MOL0     H23927  12.251   9.738   6.998  2.3278  0.5757  0.6445
  918MOL0     H23928  12.443   9.539   7.297 -1.9113 -2.2761 -1.6522
  918MOL0     H23929  11.723   9.554   7.202  1.1881  2.0915 -0.0357
  918MOL0     H23930  11.474   9.482   7.199 -1.7366 -1.1352 -1.1311
  919MOL0     O23931   5.071   7.489   0.335 -0.0799  0.4333  0.7224
  919MOL0     C23932   5.012   7.429   0.423 -0.2168  0.0388  0.2005
  919MOL0     O23933   5.024   7.297   0.459 -0.1594  0.3126 -0.1242
  919MOL0     C23934   5.103   7.212   0.391 -0.3655  0.5316 -0.4523
  919MOL0     C23935   5.219   7.156   0.448 -0.2616 -0.3769 -0.0131
  919MOL0     C23936   5.311   7.079   0.386  0.1631 -0.0059  0.2408
  919MOL0     C23937   5.293   7.062   0.242 -0.3841 -0.6931 -1.7100
  919MOL0     O23938   5.406   7.016   0.176  0.0436 -0.3190 -0.8868
  919MOL0     C23939   5.394   6.893   0.099  0.7496  0.4167 -0.0881
  919MOL0     C23940   5.356   6.775   0.186 -0.1400  0.5817 -0.1578
  919MOL0     C23941   5.459   6.745   0.297  0.0670  0.8975 -0.3522
  919MOL0     C23942   5.599   6.706   0.249 -0.8313  0.4532 -0.3574
  919MOL0     C23943   5.688   6.660   0.363  0.7011 -0.3851 -0.4691
  919MOL0     C23944   5.648   6.522   0.413 -0.3013 -0.2401  0.4835
  919MOL0     C23945   5.721   6.489   0.544 -0.4948  0.3266 -0.4159
  919MOL0     C23946   5.643   6.548   0.656 -0.2703 -0.4420 -0.3595
  919MOL0     N23947   5.521   6.478   0.693 -0.2946  0.1665  0.2520
  919MOL0     C23948   5.519   6.350   0.739  0.0778 -0.6630 -0.3661
  919MOL0     C23949   5.389   6.313   0.731 -0.9715 -0.3951  0.2080
  919MOL0     C23950   5.343   6.172   0.774 -0.2119 -0.5258  0.1808
  919MOL0     C23951   5.305   6.173   0.922  0.0804  0.4675 -0.7451
  919MOL0     C23952   5.249   6.034   0.963  0.7020 -0.5132  0.1001
  919MOL0     C23953   5.221   6.017   1.114 -0.2034  0.8435 -0.9045
  919MOL0     O23954   5.171   5.890   1.151 -0.3355  0.8069 -0.5907
  919MOL0     C23955   5.036   5.851   1.137  0.8293 -0.2309 -0.0159
  919MOL0     C23956   4.984   5.736   1.194  0.4154  1.1281  0.8250
  919MOL0     C23957   4.848   5.707   1.179  0.4337  0.1980 -1.0973
  919MOL0     C23958   4.800   5.598   1.268 -0.3655  0.9606  0.5714
  919MOL0     C23959   4.755   5.801   1.110  0.0698 -0.3775  0.5482
  919MOL0     C23960   4.613   5.771   1.098  0.5151 -0.9359  0.4340
  919MOL0     O23961   4.533   5.878   1.093 -0.2909  0.3875  0.6343
  919MOL0     C23962   4.398   5.858   1.089 -0.4042 -0.3718  0.1073
  919MOL0     C23963   4.337   5.847   0.962  0.6335 -0.6051 -0.5742
  919MOL0     C23964   4.197   5.844   0.946 -0.6001  0.2820 -0.0281
  919MOL0     C23965   4.113   5.847   1.057  0.0922 -0.2894  0.3549
  919MOL0     O23966   3.968   5.844   1.047 -0.8928  0.2401 -0.2076
  919MOL0     C23967   3.907   5.965   1.007 -0.7136 -0.4710  0.4228
  919MOL0     C23968   3.849   6.036   1.129 -0.1921  0.1059 -0.1063
  919MOL0     C23969   3.743   5.945   1.203 -0.1252  0.2408 -0.0024
  919MOL0     C23970   3.630   5.890   1.108  0.2522 -0.5884 -0.1147
  919MOL0     C23971   3.520   5.852   1.204  0.6933 -0.4116  0.7633
  919MOL0     C23972   3.539   5.706   1.264  0.4320 -0.2060 -0.0694
  919MOL0     C23973   3.422   5.663   1.368  0.4834 -0.3736  0.0779
  919MOL0     C23974   3.399   5.516   1.397 -0.2703  0.4945  0.8837
  919MOL0    Cl23975   3.336   5.434   1.253  0.3300  0.1308  0.2314
  919MOL0     C23976   4.176   5.863   1.181  0.9431 -0.1617 -0.4983
  919MOL0     C23977   4.315   5.869   1.198 -0.7208  0.0125 -0.4135
  919MOL0     O23978   4.583   5.666   1.055 -0.4296  0.5215  0.3982
  919MOL0     C23979   4.806   5.921   1.064 -0.0874 -0.8806 -0.2427
  919MOL0     C23980   4.941   5.949   1.085  0.0257 -0.0617  0.3912
  919MOL0     N23981   5.311   6.419   0.693 -0.1389  0.3253  0.5093
  919MOL0     N23982   5.390   6.517   0.661  0.5512  0.1607 -0.5269
  919MOL0     C23983   5.180   7.111   0.184  0.4561 -0.5701 -0.2633
  919MOL0     C23984   5.086   7.192   0.251  0.1299  0.2416  0.2892
  919MOL0     C23985   4.907   7.514   0.493 -0.7387  0.5646 -0.0961
  919MOL0     C23986   4.857   7.635   0.447 -0.1689 -0.3716 -0.0298
  919MOL0     C23987   4.766   7.706   0.516  0.8296 -0.6178 -0.6035
  919MOL0     C23988   4.717   7.663   0.640 -0.3928  0.3451 -0.8780
  919MOL0     O23989   4.609   7.710   0.716 -0.2475 -0.5836  0.1111
  919MOL0     C23990   4.527   7.800   0.656  0.1074  0.0412 -1.2557
  919MOL0     C23991   4.563   7.951   0.680 -0.1827  0.4339  0.0642
  919MOL0     C23992   4.472   8.033   0.772  0.5251  0.2082 -0.1911
  919MOL0     C23993   4.444   7.951   0.905 -0.2698 -0.1184  0.0953
  919MOL0     C23994   4.379   8.030   1.013  0.0887 -0.4695  0.1276
  919MOL0     C23995   4.317   8.086   1.101  0.0788 -0.6351 -0.6911
  919MOL0     C23996   4.769   7.549   0.691  0.8218 -0.1392 -0.1543
  919MOL0     C23997   4.866   7.470   0.621 -0.6048  0.9712 -0.2341
  919MOL0     H23998   5.233   7.165   0.555 -0.9351 -1.3833  0.1734
  919MOL0     H23999   5.385   7.026   0.444  1.4797 -1.3687 -2.5116
  919MOL0     H24000   5.316   6.904   0.023 -0.0235 -1.9027  0.2888
  919MOL0     H24001   5.485   6.874   0.042  2.3353  0.2243  2.3497
  919MOL0     H24002   5.261   6.794   0.237  0.3563 -0.8077  1.3566
  919MOL0     H24003   5.342   6.694   0.114 -0.7932  1.1963 -0.7467
  919MOL0     H24004   5.461   6.843   0.346 -1.1193  0.9115 -0.3074
  919MOL0     H24005   5.423   6.664   0.362  2.0401  0.4273  0.2503
  919MOL0     H24006   5.605   6.626   0.175  3.1750  0.7463 -0.5816
  919MOL0     H24007   5.656   6.788   0.203 -1.5363  0.3886 -1.3994
  919MOL0     H24008   5.791   6.649   0.328  1.7607  1.1503  1.8679
  919MOL0     H24009   5.688   6.738   0.440  1.2820 -0.7995 -0.0440
  919MOL0     H24010   5.541   6.501   0.418 -0.3985  0.3551  1.2342
  919MOL0     H24011   5.674   6.452   0.333 -1.6135 -0.6892  0.4180
  919MOL0     H24012   5.750   6.384   0.550  0.2896  0.3825 -2.3478
  919MOL0     H24013   5.813   6.547   0.532 -1.8037  2.5596 -0.0761
  919MOL0     H24014   5.624   6.654   0.637 -1.4346 -0.1737  1.8988
  919MOL0     H24015   5.712   6.548   0.741 -0.1537  2.3950 -0.3690
  919MOL0     H24016   5.604   6.291   0.774  1.8094  0.9959 -1.5381
  919MOL0     H24017   5.255   6.143   0.715 -1.2486  0.0106  1.4119
  919MOL0     H24018   5.418   6.095   0.752  2.0293  1.4306  0.6430
  919MOL0     H24019   5.236   6.254   0.946 -2.1518 -1.1771 -1.2342
  919MOL0     H24020   5.389   6.202   0.986 -1.3165  2.7481  0.1887
  919MOL0     H24021   5.331   5.967   0.933  1.2352  1.5804 -3.6674
  919MOL0     H24022   5.160   6.015   0.903  0.5682 -1.7888  0.6627
  919MOL0     H24023   5.156   6.099   1.147 -1.6600 -0.4790 -0.3908
  919MOL0     H24024   5.320   6.029   1.159 -0.9649  3.1131  0.3420
  919MOL0     H24025   5.043   5.665   1.252 -0.6773 -0.0925  0.4845
  919MOL0     H24026   4.757   5.634   1.362  0.3056  0.2030  1.1782
  919MOL0     H24027   4.727   5.537   1.214  0.8467 -1.8150  1.9061
  919MOL0     H24028   4.869   5.516   1.284 -0.4044  1.0463  1.1904
  919MOL0     H24029   4.407   5.853   0.879  4.3860  1.7673  2.4135
  919MOL0     H24030   4.148   5.841   0.849  0.1467 -1.3176 -0.3920
  919MOL0     H24031   3.972   6.040   0.961 -0.0257 -0.4841  1.3304
  919MOL0     H24032   3.829   5.936   0.936 -0.6885  3.3562 -1.4194
  919MOL0     H24033   3.936   6.051   1.193  1.7112 -0.4443 -2.4067
  919MOL0     H24034   3.800   6.131   1.105  1.2860  1.3600  1.5990
  919MOL0     H24035   3.706   6.004   1.287 -1.2893  0.6869 -0.8029
  919MOL0     H24036   3.792   5.860   1.252 -0.3967 -1.2192 -2.0996
  919MOL0     H24037   3.598   5.983   1.060  1.5564  0.0011  0.1333
  919MOL0     H24038   3.658   5.809   1.040 -0.1699 -3.3434  2.7507
  919MOL0     H24039   3.436   5.851   1.135  0.9164  0.9828  0.4420
  919MOL0     H24040   3.504   5.931   1.278  0.3434  1.8473 -1.5917
  919MOL0     H24041   3.545   5.624   1.192 -5.5746 -2.4657  1.3532
  919MOL0     H24042   3.633   5.698   1.319  1.1659  2.0654 -0.8955
  919MOL0     H24043   3.327   5.712   1.345  1.2869  1.2978  0.2043
  919MOL0     H24044   3.448   5.704   1.466 -0.5949 -1.8200  1.0143
  919MOL0     H24045   3.347   5.498   1.491  1.8224 -1.0018  1.8477
  919MOL0     H24046   3.499   5.474   1.413 -0.2072 -0.7626 -2.1641
  919MOL0     H24047   4.116   5.855   1.271  0.8124  0.4656 -0.5231
  919MOL0     H24048   4.367   5.888   1.292  2.1614  3.4778 -2.4432
  919MOL0     H24049   4.745   5.992   1.008 -1.1054 -0.6289  1.1105
  919MOL0     H24050   4.977   6.042   1.043 -0.8263 -0.4203 -1.2127
  919MOL0     H24051   5.170   7.092   0.078 -2.5373  0.1006 -0.2055
  919MOL0     H24052   5.007   7.249   0.205 -0.3624 -1.5743 -1.2203
  919MOL0     H24053   4.895   7.674   0.353 -2.0964  1.3007 -0.1997
  919MOL0     H24054   4.713   7.786   0.465 -2.5102 -0.7528  2.2648
  919MOL0     H24055   4.518   7.790   0.547 -0.5916  1.2559 -1.3323
  919MOL0     H24056   4.431   7.775   0.702  2.1369 -1.7611  2.3829
  919MOL0     H24057   4.576   7.996   0.581  2.2092  0.9012  0.5148
  919MOL0     H24058   4.665   7.944   0.721 -0.3095  1.5667  0.6340
  919MOL0     H24059   4.380   8.056   0.719  0.8778 -1.5308 -1.6578
  919MOL0     H24060   4.517   8.129   0.799 -1.1821  0.8254  0.6499
  919MOL0     H24061   4.544   7.923   0.938 -0.5448 -2.4578 -0.8764
  919MOL0     H24062   4.383   7.861   0.893 -1.0851  0.4450 -0.1557
  919MOL0     H24063   4.258   8.113   1.186  0.2858 -1.9348 -0.1027
  919MOL0     H24064   4.725   7.509   0.782  1.1139 -2.3739 -0.9461
  919MOL0     H24065   4.899   7.382   0.676 -1.4902  0.2305 -0.8549
  920MOL0     O24066  10.402  10.012   8.942  0.5891  0.4471  0.7067
  920MOL0     C24067  10.407  10.049   8.827  1.0644  0.2978  0.2554
  920MOL0     O24068  10.301  10.070   8.751  0.5928  1.0191  0.3363
  920MOL0     C24069  10.175  10.070   8.802  0.6190 -0.5650 -0.1217
  920MOL0     C24070  10.116  10.193   8.849 -0.1444 -0.2297  0.3528
  920MOL0     C24071   9.984  10.192   8.896 -0.2722 -0.3166  0.6691
  920MOL0     C24072   9.902  10.084   8.873  0.1100  0.8593 -0.4773
  920MOL0     O24073   9.764  10.071   8.912  0.1072  0.5931  0.0272
  920MOL0     C24074   9.703  10.201   8.913 -0.6698  0.5464  0.2048
  920MOL0     C24075   9.555  10.184   8.931 -0.6281  0.3922  0.7699
  920MOL0     C24076   9.521  10.112   9.057 -0.5838  0.4498 -0.2752
  920MOL0     C24077   9.362  10.126   9.081  0.0172 -0.5583  0.1727
  920MOL0     C24078   9.300  10.024   9.180  0.5580 -0.1200 -0.2783
  920MOL0     C24079   9.154  10.058   9.232 -0.0242  1.0812 -0.1723
  920MOL0     C24080   9.046  10.075   9.126  0.1436 -0.7578  0.0523
  920MOL0     C24081   8.907  10.087   9.182  0.2445 -0.1560  0.4680
  920MOL0     N24082   8.883  10.220   9.241  0.2151  0.1940  0.0119
  920MOL0     C24083   8.793  10.310   9.188 -0.5784  0.2652 -0.5115
  920MOL0     C24084   8.795  10.412   9.274 -0.2656 -0.2473  0.4966
  920MOL0     C24085   8.702  10.536   9.259  0.0047  0.3911  0.0706
  920MOL0     C24086   8.563  10.509   9.320  0.1266  0.3793  0.2506
  920MOL0     C24087   8.494  10.640   9.353 -0.1594 -0.6887  0.0345
  920MOL0     C24088   8.357  10.618   9.402 -0.0450  0.2060 -0.0135
  920MOL0     O24089   8.300  10.756   9.397 -0.3887  0.5150  0.2034
  920MOL0     C24090   8.168  10.774   9.395  0.4139 -0.2930  0.0001
  920MOL0     C24091   8.084  10.682   9.460  0.3544  0.8862  0.0481
  920MOL0     C24092   7.948  10.701   9.459  0.7034 -0.4869 -0.3824
  920MOL0     C24093   7.859  10.610   9.533  0.0758 -0.3970 -0.2877
  920MOL0     C24094   7.902  10.810   9.379  0.6876  0.1040  0.2938
  920MOL0     C24095   7.756  10.844   9.381  0.5839  0.1469 -0.1124
  920MOL0     O24096   7.658  10.742   9.388 -1.3567 -0.8403  0.7331
  920MOL0     C24097   7.528  10.782   9.382 -0.1586  0.2813 -0.2823
  920MOL0     C24098   7.478  10.816   9.251 -0.0404  0.6046  0.3565
  920MOL0     C24099   7.340  10.806   9.236 -0.1569  0.2467  0.3716
  920MOL0     C24100   7.248  10.771   9.340 -0.3231  0.2599  0.1749
  920MOL0     O24101   7.112  10.758   9.326 -0.7564 -0.5347 -0.5694
  920MOL0     C24102   7.068  10.770   9.191  0.9964  0.2458 -0.8811
  920MOL0     C24103   6.922  10.744   9.194  0.0373 -0.0528  0.2615
  920MOL0     C24104   6.890  10.603   9.245 -0.1295  0.0645 -0.5789
  920MOL0     C24105   6.732  10.601   9.274  0.1281  0.2296  0.2350
  920MOL0     C24106   6.684  10.454   9.280  0.8836  0.8838  0.8801
  920MOL0     C24107   6.533  10.447   9.310  1.0378 -0.6732  0.2649
  920MOL0     C24108   6.485  10.306   9.317 -0.4150  0.3300  0.3668
  920MOL0     C24109   6.334  10.306   9.337  0.2404  0.3533 -0.0606
  920MOL0    Cl24110   6.266  10.138   9.346 -0.2839 -0.2219  0.1829
  920MOL0     C24111   7.299  10.756   9.468  0.6351 -0.4211  0.2625
  920MOL0     C24112   7.440  10.758   9.483  0.0027  0.0413 -0.8033
  920MOL0     O24113   7.727  10.960   9.365 -0.5718 -0.1052 -0.2998
  920MOL0     C24114   7.985  10.894   9.311  0.5300 -0.7776  1.0655
  920MOL0     C24115   8.121  10.880   9.326  0.3587 -0.3436 -0.0194
  920MOL0     N24116   8.883  10.380   9.376  0.7593  0.3219  0.0053
  920MOL0     N24117   8.927  10.255   9.361  0.0925 -0.0931 -0.4436
  920MOL0     C24118   9.959   9.971   8.823 -0.2850  0.3860 -0.3795
  920MOL0     C24119  10.099   9.953   8.790 -0.4674 -0.1238 -0.1011
  920MOL0     C24120  10.542  10.056   8.755 -0.2721  0.0171  0.7355
  920MOL0     C24121  10.553  10.082   8.621 -0.1873 -0.0729 -0.2638
  920MOL0     C24122  10.680  10.126   8.569  0.6092 -0.2059  0.3233
  920MOL0     C24123  10.796  10.109   8.645  0.5437 -0.1266  0.7359
  920MOL0     O24124  10.903  10.129   8.571  0.5314 -1.0992  0.4789
  920MOL0     C24125  11.025  10.110   8.641 -1.3335  0.0431 -0.0362
  920MOL0     C24126  11.139  10.123   8.546 -0.9841 -0.2415  0.1442
  920MOL0     C24127  11.114  10.067   8.406  0.1517  0.2141  0.0066
  920MOL0     C24128  11.229  10.095   8.316 -0.7203  0.6253  0.6842
  920MOL0     C24129  11.306   9.970   8.302 -0.1323 -0.1924  0.0205
  920MOL0     C24130  11.371   9.870   8.273  0.1261 -0.6236 -0.3665
  920MOL0     C24131  10.788  10.052   8.777 -0.8038 -0.7350 -0.2258
  920MOL0     C24132  10.660  10.030   8.832  0.5124  0.1525  0.6627
  920MOL0     H24133  10.173  10.285   8.848  3.2095 -2.1221  1.1030
  920MOL0     H24134   9.942  10.286   8.931  1.9932  0.7170  0.7589
  920MOL0     H24135   9.744  10.269   8.987  4.6483 -1.0339 -0.8250
  920MOL0     H24136   9.715  10.242   8.812  0.0525  0.0424  0.0787
  920MOL0     H24137   9.521  10.287   8.914  0.4266  0.5281 -0.6542
  920MOL0     H24138   9.522  10.125   8.845  2.1369  1.3411 -1.0995
  920MOL0     H24139   9.553  10.008   9.042  1.3122  0.6861  1.5800
  920MOL0     H24140   9.588  10.146   9.136  0.2142  0.5929 -1.0056
  920MOL0     H24141   9.339  10.225   9.120 -3.3039 -0.7017 -1.1060
  920MOL0     H24142   9.309  10.116   8.986 -0.1450 -1.9807  0.3840
  920MOL0     H24143   9.291   9.928   9.128  1.2921 -1.1276  1.3650
  920MOL0     H24144   9.374  10.010   9.259  2.0428  0.7654 -1.4348
  920MOL0     H24145   9.130   9.985   9.309 -2.4867  0.5678 -1.3360
  920MOL0     H24146   9.157  10.155   9.283 -0.9655  1.2172 -0.3461
  920MOL0     H24147   9.060  10.163   9.062 -2.2313 -0.3510 -0.0159
  920MOL0     H24148   9.052   9.989   9.059  0.2498  0.1506 -1.1359
  920MOL0     H24149   8.881  10.013   9.258  0.9204 -0.2789  0.5867
  920MOL0     H24150   8.831  10.077   9.103 -0.9346  2.3613  1.1575
  920MOL0     H24151   8.732  10.303   9.099 -0.5449  2.4009 -0.7605
  920MOL0     H24152   8.751  10.610   9.322  2.7578 -1.9475  0.8828
  920MOL0     H24153   8.696  10.573   9.157  0.1024  0.6437  0.1565
  920MOL0     H24154   8.582  10.459   9.415 -1.2161 -0.0528  0.3133
  920MOL0     H24155   8.503  10.442   9.259 -1.8868  2.0240  0.3108
  920MOL0     H24156   8.492  10.693   9.258  1.7210 -2.4514 -1.0646
  920MOL0     H24157   8.551  10.710   9.416 -3.9612  2.5044  0.3026
  920MOL0     H24158   8.355  10.574   9.502  1.0719 -1.3036 -0.6200
  920MOL0     H24159   8.308  10.545   9.337  0.4567 -0.0028 -0.1627
  920MOL0     H24160   8.126  10.603   9.521  1.4885  1.3559 -0.1023
  920MOL0     H24161   7.916  10.554   9.609 -0.9105 -0.4894  0.4072
  920MOL0     H24162   7.776  10.657   9.586  1.0022 -1.6668  2.5444
  920MOL0     H24163   7.817  10.533   9.468  1.7269 -0.5119 -1.2588
  920MOL0     H24164   7.548  10.828   9.169  1.1162 -2.2058  0.7894
  920MOL0     H24165   7.295  10.842   9.145 -0.8397 -0.6132  0.3592
  920MOL0     H24166   7.096  10.870   9.158 -1.9094  0.6786 -2.4044
  920MOL0     H24167   7.119  10.696   9.129  1.9586 -0.7577  1.0101
  920MOL0     H24168   6.873  10.814   9.263 -2.7005 -0.3445 -1.2766
  920MOL0     H24169   6.880  10.754   9.094 -2.0294 -1.4680  0.9122
  920MOL0     H24170   6.951  10.578   9.332 -0.6997  0.0851 -0.1687
  920MOL0     H24171   6.925  10.535   9.167  0.7170  0.2779 -0.3983
  920MOL0     H24172   6.703  10.661   9.361 -0.0744  0.8180 -0.2324
  920MOL0     H24173   6.678  10.645   9.190  1.5334  0.6690 -0.4684
  920MOL0     H24174   6.719  10.403   9.371 -2.2423 -0.9209  1.2147
  920MOL0     H24175   6.709  10.406   9.185 -0.5908  0.7463  0.5384
  920MOL0     H24176   6.501  10.503   9.398  1.9433  0.1273  0.1055
  920MOL0     H24177   6.488  10.494   9.222  1.2865 -1.6135 -0.3879
  920MOL0     H24178   6.529  10.251   9.401 -4.5929  0.2323  2.8005
  920MOL0     H24179   6.517  10.250   9.228  1.5246 -0.5800  1.5695
  920MOL0     H24180   6.286  10.357   9.253 -1.8043  1.7729  1.8776
  920MOL0     H24181   6.303  10.369   9.420  1.4876  1.1166 -0.1455
  920MOL0     H24182   7.230  10.738   9.551  0.7946 -0.4665  0.3862
  920MOL0     H24183   7.475  10.723   9.580 -1.9707  1.2326  0.4214
  920MOL0     H24184   7.941  10.976   9.253  3.1298  0.5549  0.8366
  920MOL0     H24185   8.181  10.954   9.275 -1.0809  1.6198  0.9634
  920MOL0     H24186   9.889   9.888   8.815  0.6001 -0.1770 -3.7242
  920MOL0     H24187  10.149   9.871   8.738  2.7087  2.8686 -2.2137
  920MOL0     H24188  10.469  10.098   8.554 -0.8431 -2.4610 -0.0945
  920MOL0     H24189  10.682  10.174   8.472  0.5036 -0.3700  0.2377
  920MOL0     H24190  11.043  10.183   8.720 -1.2045  0.8430 -0.7892
  920MOL0     H24191  11.023  10.008   8.681  0.7099 -0.1644 -0.3515
  920MOL0     H24192  11.219  10.070   8.599 -2.3681 -0.0364  2.5545
  920MOL0     H24193  11.176  10.226   8.534  1.4056 -1.3377 -3.7435
  920MOL0     H24194  11.028  10.119   8.363 -0.0960 -0.2996 -0.1190
  920MOL0     H24195  11.101   9.959   8.413  2.9173 -0.2966 -1.4603
  920MOL0     H24196  11.291  10.177   8.353  0.4805 -1.0881  2.7109
  920MOL0     H24197  11.176  10.111   8.222  0.8484 -1.9112 -0.7595
  920MOL0     H24198  11.421   9.778   8.249 -3.2189 -2.3234 -1.3474
  920MOL0     H24199  10.879  10.044   8.836 -1.3013  0.3129  0.7235
  920MOL0     H24200  10.648   9.977   8.926  0.4246 -1.3920 -0.1817
  921MOL0     O24201  10.930   9.099   0.003  0.1537  0.0425 -0.0340
  921MOL0     C24202  10.947   9.138   0.119 -0.2223  0.6577  0.4937
  921MOL0     O24203  10.858   9.149   0.216 -0.3374  0.2272  0.6595
  921MOL0     C24204  10.730   9.159   0.172 -0.0067  0.6370  0.4761
  921MOL0     C24205  10.652   9.051   0.128  0.0937 -0.2101  0.5756
  921MOL0     C24206  10.522   9.062   0.097  0.6085  0.3787 -0.2827
  921MOL0     C24207  10.465   9.188   0.107 -0.5932  0.0089  0.4590
  921MOL0     O24208  10.331   9.214   0.089 -0.2354  0.2413 -0.5181
  921MOL0     C24209  10.246   9.099   0.134 -0.7257 -0.1018  0.5331
  921MOL0     C24210  10.100   9.148   0.161  0.0847  0.1481  0.2152
  921MOL0     C24211  10.034   9.214   0.043  0.0465  0.5275 -0.3005
  921MOL0     C24212  10.025   9.118  -0.073 -0.1544 -0.0365 -0.3408
  921MOL0     C24213   9.939   9.188  -0.185 -0.0908 -0.3856 -0.3972
  921MOL0     C24214   9.909   9.108  -0.315  0.0600 -0.5515 -0.7409
  921MOL0     C24215   9.821   9.187  -0.413  0.0648 -0.4256 -1.1235
  921MOL0     C24216   9.769   9.097  -0.524  0.0583 -0.4229 -0.4013
  921MOL0     N24217   9.683   9.165  -0.624  1.0000  0.2430 -0.0948
  921MOL0     C24218   9.578   9.247  -0.600  0.1209 -0.3559 -1.3556
  921MOL0     C24219   9.519   9.277  -0.716 -1.3801 -0.4623 -0.5565
  921MOL0     C24220   9.387   9.352  -0.718  0.3949 -0.6792 -0.3246
  921MOL0     C24221   9.422   9.506  -0.701 -0.7023  0.6353 -0.3679
  921MOL0     C24222   9.316   9.609  -0.747  0.0941 -0.3461 -0.3446
  921MOL0     C24223   9.184   9.585  -0.678  0.4030  0.4539  0.5491
  921MOL0     O24224   9.122   9.707  -0.679 -0.4600  0.2186  0.3652
  921MOL0     C24225   8.989   9.708  -0.638 -0.0504  0.3589  0.5379
  921MOL0     C24226   8.916   9.811  -0.693 -0.1144 -0.2440 -0.2654
  921MOL0     C24227   8.780   9.833  -0.657  0.8494  0.2048  0.3943
  921MOL0     C24228   8.706   9.954  -0.719  0.1160 -0.0630  0.3153
  921MOL0     C24229   8.720   9.749  -0.566 -0.7520  0.4841 -0.1343
  921MOL0     C24230   8.579   9.771  -0.505 -0.0813 -0.6489 -0.5076
  921MOL0     O24231   8.535   9.902  -0.503 -0.2359  0.2196 -0.6787
  921MOL0     C24232   8.399   9.934  -0.489  0.0515  0.6687 -0.3069
  921MOL0     C24233   8.304   9.898  -0.594 -0.0632  0.6903 -0.1045
  921MOL0     C24234   8.168   9.925  -0.593  0.2661 -0.5388 -1.0245
  921MOL0     C24235   8.125   9.990  -0.474 -0.5991 -0.6948 -0.0772
  921MOL0     O24236   7.994  10.019  -0.492 -0.2585 -0.3560  0.0114
  921MOL0     C24237   7.943  10.126  -0.406  0.0609  0.1114  0.3942
  921MOL0     C24238   7.788  10.125  -0.424 -0.9580 -0.1774 -0.8738
  921MOL0     C24239   7.722  10.005  -0.353 -0.1697 -0.4606 -0.1844
  921MOL0     C24240   7.574   9.985  -0.404  0.5481 -0.3085  0.2578
  921MOL0     C24241   7.470  10.054  -0.310 -0.0525 -0.3030  1.1617
  921MOL0     C24242   7.335  10.008  -0.353  0.8584 -0.2310  0.7731
  921MOL0     C24243   7.231  10.114  -0.308 -0.1661  0.2457  0.5801
  921MOL0     C24244   7.091  10.054  -0.344 -0.0930  0.5339 -0.5007
  921MOL0    Cl24245   7.007   9.974  -0.212 -0.0245  0.4949  0.1657
  921MOL0     C24246   8.216  10.039  -0.379  0.0315  0.7625 -0.2170
  921MOL0     C24247   8.353  10.010  -0.383  0.0464  0.7533  0.4370
  921MOL0     O24248   8.523   9.672  -0.443  0.5391 -0.5695  0.5649
  921MOL0     C24249   8.803   9.647  -0.503 -0.0741 -0.0701 -0.2377
  921MOL0     C24250   8.934   9.622  -0.544 -0.1436 -0.2668 -0.1025
  921MOL0     N24251   9.594   9.224  -0.821 -0.6216 -0.2405 -1.0787
  921MOL0     N24252   9.689   9.155  -0.759 -0.7788  0.2009  0.0800
  921MOL0     C24253  10.550   9.303   0.120  0.5891  0.6119  1.1425
  921MOL0     C24254  10.681   9.281   0.156 -0.7540  0.4446  0.8459
  921MOL0     C24255  11.085   9.167   0.156  0.7913  0.1722 -0.0800
  921MOL0     C24256  11.192   9.134   0.074 -0.3649 -1.2524  0.6292
  921MOL0     C24257  11.329   9.158   0.109  0.2226 -0.2724  0.4262
  921MOL0     C24258  11.358   9.202   0.236  0.0753 -0.2213 -0.5120
  921MOL0     O24259  11.493   9.199   0.259 -0.4729 -0.2097 -0.5162
  921MOL0     C24260  11.538   9.271   0.373 -0.1171 -0.1489 -0.6523
  921MOL0     C24261  11.681   9.311   0.358  0.3286  0.3407  0.6854
  921MOL0     C24262  11.721   9.411   0.473 -0.1992 -0.0617  0.3064
  921MOL0     C24263  11.869   9.439   0.453  0.2108  0.2007 -0.3508
  921MOL0     C24264  11.924   9.555   0.527  0.1879 -1.3663 -0.2187
  921MOL0     C24265  11.967   9.647   0.595  0.7262  0.3826  0.1144
  921MOL0     C24266  11.253   9.241   0.320  0.2646 -0.6768  1.0488
  921MOL0     C24267  11.123   9.220   0.279  0.5569  0.2792  0.7133
  921MOL0     H24268  10.703   8.956   0.133 -1.1461 -0.8969  0.6370
  921MOL0     H24269  10.453   8.978   0.090 -0.0712  0.9662 -0.9000
  921MOL0     H24270  10.244   9.034   0.047  0.6669  0.2934  0.1900
  921MOL0     H24271  10.286   9.042   0.218  1.0065 -0.2343 -0.3424
  921MOL0     H24272  10.037   9.065   0.194 -2.8241  2.3198  0.5203
  921MOL0     H24273  10.098   9.221   0.242  1.0038  2.4754 -1.7594
  921MOL0     H24274   9.939   9.262   0.067  0.7218  2.3171 -1.0207
  921MOL0     H24275  10.086   9.300   0.000  0.5448 -0.3843 -1.6005
  921MOL0     H24276  10.122   9.095  -0.118  0.5647 -0.3637  1.3018
  921MOL0     H24277   9.966   9.032  -0.040 -3.4260  1.7131 -1.1927
  921MOL0     H24278   9.843   9.216  -0.141  0.4320 -0.8342  1.0923
  921MOL0     H24279   9.999   9.273  -0.217  0.7244 -0.8483 -0.1134
  921MOL0     H24280  10.003   9.093  -0.369 -0.2011 -2.0870 -0.8114
  921MOL0     H24281   9.860   9.014  -0.289 -0.2777  0.1615  1.4393
  921MOL0     H24282   9.735   9.236  -0.367  1.0736  0.5169 -0.1974
  921MOL0     H24283   9.878   9.269  -0.458 -1.6337  1.6823  0.3678
  921MOL0     H24284   9.711   9.015  -0.481 -0.6774  0.3560  0.1035
  921MOL0     H24285   9.850   9.049  -0.581  0.5109 -2.3945  1.7779
  921MOL0     H24286   9.550   9.280  -0.501  4.5786 -0.3137  0.1167
  921MOL0     H24287   9.341   9.338  -0.816 -2.4049 -0.8522  0.9262
  921MOL0     H24288   9.317   9.330  -0.638  2.1346  0.2645  1.5441
  921MOL0     H24289   9.506   9.523  -0.769 -0.6381  1.8340 -0.0189
  921MOL0     H24290   9.455   9.530  -0.599  0.8812 -0.2918 -0.6405
  921MOL0     H24291   9.290   9.583  -0.850 -0.3315 -1.8827  0.1162
  921MOL0     H24292   9.345   9.714  -0.742 -1.4323  0.1196 -0.5571
  921MOL0     H24293   9.192   9.561  -0.572  2.0579  0.3448  0.4244
  921MOL0     H24294   9.121   9.512  -0.730  0.6288  0.5262  0.1698
  921MOL0     H24295   8.962   9.872  -0.770 -1.2946  0.3415 -0.5311
  921MOL0     H24296   8.723  10.042  -0.657 -0.9367  2.3820 -2.6145
  921MOL0     H24297   8.751   9.976  -0.816  0.1784  0.3664  0.4413
  921MOL0     H24298   8.597   9.942  -0.726  0.2487 -0.2260 -2.7897
  921MOL0     H24299   8.332   9.845  -0.684 -0.7135  2.5181 -1.4330
  921MOL0     H24300   8.100   9.885  -0.667  0.2272 -1.6118 -0.4274
  921MOL0     H24301   7.968  10.113  -0.300  1.1973 -1.9331 -0.0694
  921MOL0     H24302   7.994  10.215  -0.443  0.1913 -0.6614 -1.3756
  921MOL0     H24303   7.758  10.211  -0.364  0.1656 -0.0947 -0.4060
  921MOL0     H24304   7.761  10.131  -0.529 -0.9705  0.5604 -0.8310
  921MOL0     H24305   7.723  10.023  -0.245  1.2443  0.8841 -0.3813
  921MOL0     H24306   7.778   9.912  -0.367  0.6160  0.3573 -3.2340
  921MOL0     H24307   7.563  10.018  -0.507 -1.8034 -2.5405 -0.3072
  921MOL0     H24308   7.551   9.879  -0.417 -1.2966  0.2780 -1.8641
  921MOL0     H24309   7.481  10.162  -0.322 -1.6016 -0.3308 -1.0023
  921MOL0     H24310   7.481  10.034  -0.203  2.0612  1.0053  1.2455
  921MOL0     H24311   7.330  10.014  -0.462  1.3980  1.9908  0.8318
  921MOL0     H24312   7.311   9.910  -0.310 -1.0894 -0.5568 -0.8536
  921MOL0     H24313   7.247  10.210  -0.358  1.5414 -1.2069 -1.8712
  921MOL0     H24314   7.243  10.129  -0.200  1.1023 -0.0126  0.4972
  921MOL0     H24315   7.104   9.999  -0.438  0.3686  1.5129 -1.0192
  921MOL0     H24316   7.027  10.136  -0.376 -0.7314  0.2541  0.0192
  921MOL0     H24317   8.171  10.103  -0.304 -0.8878  1.0882 -1.0261
  921MOL0     H24318   8.420  10.056  -0.312 -0.4564  2.3020 -0.0568
  921MOL0     H24319   8.757   9.578  -0.433  0.6824  2.1747  2.6851
  921MOL0     H24320   8.997   9.544  -0.504  0.1291  1.2366  2.6717
  921MOL0     H24321  10.502   9.400   0.119 -2.1070 -0.6467  0.2131
  921MOL0     H24322  10.747   9.363   0.182 -0.1157 -1.1494  5.1076
  921MOL0     H24323  11.174   9.102  -0.028 -1.3413  2.2464 -0.4439
  921MOL0     H24324  11.402   9.159   0.029 -0.6618  3.7720 -0.6009
  921MOL0     H24325  11.480   9.364   0.374 -1.1512 -0.7787 -0.6358
  921MOL0     H24326  11.517   9.218   0.466 -1.2181  2.2957  0.5978
  921MOL0     H24327  11.708   9.356   0.262  2.1656 -0.9856  0.5409
  921MOL0     H24328  11.746   9.224   0.358  0.7800  0.6489 -0.6107
  921MOL0     H24329  11.703   9.366   0.571  1.5373  0.4696  0.9048
  921MOL0     H24330  11.657   9.500   0.472  0.5393  0.5101 -1.6962
  921MOL0     H24331  11.891   9.465   0.349 -4.1185  0.9951 -1.2784
  921MOL0     H24332  11.928   9.348   0.466  0.8439  0.5472 -0.7683
  921MOL0     H24333  12.025   9.712   0.659  0.2146  0.2487  0.7239
  921MOL0     H24334  11.256   9.289   0.417 -0.2280 -0.4397  0.9531
  921MOL0     H24335  11.042   9.244   0.347 -0.7415  4.0092 -1.7676
  922MOL0     O24336   7.600   2.034   1.993 -1.1299  0.4014 -0.0590
  922MOL0     C24337   7.631   1.917   1.973  0.0243  0.4969  0.2731
  922MOL0     O24338   7.541   1.813   1.956  0.9186 -0.0241  0.0869
  922MOL0     C24339   7.405   1.832   1.963 -0.4579  0.1966  0.5930
  922MOL0     C24340   7.329   1.738   2.038  0.2115 -0.6280 -0.1379
  922MOL0     C24341   7.190   1.764   2.058 -0.2514 -0.2311  0.4448
  922MOL0     C24342   7.133   1.871   1.993  1.8910  0.0158 -0.0115
  922MOL0     O24343   6.993   1.895   1.994 -0.0049 -0.3460 -0.6025
  922MOL0     C24344   6.900   1.810   2.052 -0.2979 -0.6928 -0.1021
  922MOL0     C24345   6.754   1.865   2.041  0.8235  0.1725  0.7658
  922MOL0     C24346   6.640   1.759   2.081  0.1967  0.8680  0.3472
  922MOL0     C24347   6.664   1.690   2.214  0.9595  0.6007 -0.4036
  922MOL0     C24348   6.524   1.618   2.250 -0.0942  0.2754  1.1210
  922MOL0     C24349   6.552   1.542   2.382 -0.7486  0.0586  0.2603
  922MOL0     C24350   6.438   1.449   2.436 -0.3317 -0.2867 -0.4094
  922MOL0     C24351   6.317   1.533   2.477  0.0954 -1.0057  0.3230
  922MOL0     N24352   6.216   1.461   2.541  0.8113 -0.0194 -0.1938
  922MOL0     C24353   6.115   1.402   2.469  0.1119 -0.0279  0.1985
  922MOL0     C24354   6.053   1.326   2.570 -1.0691 -0.1437 -0.0693
  922MOL0     C24355   5.930   1.236   2.555 -0.7416  0.2623  0.2458
  922MOL0     C24356   5.871   1.220   2.416 -0.3041  1.0163 -0.1604
  922MOL0     C24357   5.952   1.110   2.344  0.1671  0.0351 -0.5562
  922MOL0     C24358   5.891   1.089   2.201  0.5793 -0.4655  0.2799
  922MOL0     O24359   5.760   1.025   2.202  0.3013 -0.1348  0.0434
  922MOL0     C24360   5.667   1.059   2.102  1.2612  0.3209 -0.2298
  922MOL0     C24361   5.692   1.098   1.971  0.5195 -0.3407 -0.0638
  922MOL0     C24362   5.578   1.111   1.886 -0.1863 -0.4330  0.2416
  922MOL0     C24363   5.616   1.166   1.751 -0.7651 -0.2397 -0.1043
  922MOL0     C24364   5.443   1.094   1.935  0.2785 -1.3163 -0.0083
  922MOL0     C24365   5.321   1.139   1.859  0.7469 -0.0931  0.1600
  922MOL0     O24366   5.212   1.155   1.935 -0.6426 -0.0785  0.1390
  922MOL0     C24367   5.086   1.126   1.891  0.1565 -0.5439  0.6469
  922MOL0     C24368   5.047   1.048   1.784 -0.5738 -0.4550 -0.3454
  922MOL0     C24369   4.908   1.022   1.760 -0.2402 -0.0285  0.0703
  922MOL0     C24370   4.811   1.076   1.839  0.2095 -0.0104  0.4952
  922MOL0     O24371   4.683   1.058   1.798  0.1837 -0.7883  0.4117
  922MOL0     C24372   4.579   1.112   1.883 -0.0542  0.7079  0.1866
  922MOL0     C24373   4.453   1.101   1.797  0.4818  0.0845 -0.0384
  922MOL0     C24374   4.326   1.102   1.893  0.4840 -0.4453  0.5165
  922MOL0     C24375   4.212   1.117   1.795 -0.3106 -0.3450 -0.0390
  922MOL0     C24376   4.075   1.148   1.855  0.2229 -1.1606  0.3185
  922MOL0     C24377   4.024   1.036   1.948 -1.1192 -0.3425 -0.2990
  922MOL0     C24378   3.882   1.053   2.002  0.5866  0.2774 -0.6727
  922MOL0     C24379   3.779   1.140   1.931  1.0041 -0.2709  0.4691
  922MOL0    Cl24380   3.620   1.123   2.016 -0.2013  0.2735 -0.2872
  922MOL0     C24381   4.848   1.155   1.953 -0.0117 -0.1291 -0.7502
  922MOL0     C24382   4.986   1.185   1.968  0.3357  0.0947 -0.0598
  922MOL0     O24383   5.318   1.133   1.737  0.6879 -0.1396  0.6233
  922MOL0     C24384   5.429   1.053   2.064 -0.4053  0.0416  0.2481
  922MOL0     C24385   5.537   1.035   2.146 -0.2618  0.0009  0.4251
  922MOL0     N24386   6.122   1.343   2.692  0.0923 -0.0332 -0.7021
  922MOL0     N24387   6.210   1.425   2.669 -0.3075  0.4176 -0.3105
  922MOL0     C24388   7.199   1.959   1.917 -0.4386  0.4220  0.2032
  922MOL0     C24389   7.336   1.937   1.896 -0.5844  0.6752  0.2901
  922MOL0     C24390   7.776   1.886   1.991 -0.2385  0.2995  0.3310
  922MOL0     C24391   7.809   1.754   1.998  0.2593 -0.0970  0.3634
  922MOL0     C24392   7.933   1.713   2.022 -0.1181  0.3214  0.0037
  922MOL0     C24393   8.035   1.809   2.047 -0.6540 -0.0296 -1.0788
  922MOL0     O24394   8.154   1.753   2.069 -0.2024  0.4660 -0.5353
  922MOL0     C24395   8.258   1.840   2.128  0.9374 -0.2430  0.0854
  922MOL0     C24396   8.402   1.773   2.115  0.2629  0.7982  0.7502
  922MOL0     C24397   8.421   1.663   2.221  0.2209  0.0036 -0.0963
  922MOL0     C24398   8.559   1.595   2.194 -0.3047  0.1141 -0.1528
  922MOL0     C24399   8.670   1.687   2.232 -0.3316 -0.9592 -0.8984
  922MOL0     C24400   8.768   1.756   2.254  0.3128 -0.5728  0.5237
  922MOL0     C24401   8.003   1.951   2.047 -0.1143  0.4157 -0.6348
  922MOL0     C24402   7.871   1.984   2.016 -0.1235  0.2171 -0.1859
  922MOL0     H24403   7.365   1.641   2.072 -0.0394 -0.8815 -0.5777
  922MOL0     H24404   7.128   1.702   2.122  1.1631 -0.1684  1.9185
  922MOL0     H24405   6.918   1.714   2.002  2.4053 -1.1286  1.5232
  922MOL0     H24406   6.920   1.787   2.157  2.8264 -1.5778 -0.8068
  922MOL0     H24407   6.748   1.958   2.099  1.4225  1.5314 -1.2151
  922MOL0     H24408   6.737   1.896   1.937  0.0227  1.9858  1.4061
  922MOL0     H24409   6.548   1.818   2.091 -0.2527  1.0660 -3.5371
  922MOL0     H24410   6.633   1.685   2.002 -2.7304  0.1036  1.1928
  922MOL0     H24411   6.749   1.622   2.205  0.1246 -0.4414 -0.7759
  922MOL0     H24412   6.678   1.763   2.294  0.2506 -1.0899  1.3433
  922MOL0     H24413   6.447   1.694   2.267  1.4576  3.2971 -3.4636
  922MOL0     H24414   6.497   1.550   2.169  2.4065 -0.7486  1.0399
  922MOL0     H24415   6.635   1.474   2.362 -0.6115  0.2316  0.2370
  922MOL0     H24416   6.591   1.615   2.454 -1.5667  1.7338 -0.9300
  922MOL0     H24417   6.410   1.382   2.354 -0.0245 -0.0040 -0.7490
  922MOL0     H24418   6.469   1.394   2.525  1.2145  2.7250  1.0666
  922MOL0     H24419   6.276   1.584   2.389 -1.9167  0.7601  2.1462
  922MOL0     H24420   6.352   1.619   2.535  0.0313 -0.5496 -0.3042
  922MOL0     H24421   6.085   1.400   2.365 -0.3427  1.4241  0.2733
  922MOL0     H24422   5.966   1.141   2.595 -1.9036  0.0912  0.9164
  922MOL0     H24423   5.849   1.273   2.618 -2.1180 -1.8446 -0.1917
  922MOL0     H24424   5.876   1.311   2.355  3.2895  0.3517 -1.0907
  922MOL0     H24425   5.764   1.199   2.429 -0.3185  1.7836  1.2547
  922MOL0     H24426   5.946   1.015   2.399  2.0906 -1.6901 -3.1035
  922MOL0     H24427   6.056   1.141   2.334 -0.6339  2.9881 -0.6818
  922MOL0     H24428   5.959   1.029   2.140 -2.2929 -2.5056 -1.1582
  922MOL0     H24429   5.891   1.186   2.150  0.7226  0.0245  1.1886
  922MOL0     H24430   5.794   1.118   1.938  0.7898 -0.1348  0.8714
  922MOL0     H24431   5.578   1.267   1.736  1.0831  0.7892  1.6235
  922MOL0     H24432   5.725   1.177   1.742 -0.4524 -1.0415  1.8919
  922MOL0     H24433   5.582   1.103   1.668 -0.7717 -0.3936  0.0140
  922MOL0     H24434   5.127   1.012   1.721  2.9316  3.6935  1.2241
  922MOL0     H24435   4.870   0.969   1.673 -3.1602  2.9850 -0.6963
  922MOL0     H24436   4.564   1.045   1.969  0.1505  0.4030 -0.0144
  922MOL0     H24437   4.592   1.217   1.913 -0.0612  0.1438  2.3678
  922MOL0     H24438   4.447   1.196   1.742 -1.9944  0.3121  0.4761
  922MOL0     H24439   4.445   1.018   1.726 -2.2638  0.9229 -0.8608
  922MOL0     H24440   4.329   1.193   1.954  0.6003  0.5984 -0.9765
  922MOL0     H24441   4.316   1.012   1.955 -3.1766 -1.8254 -1.7372
  922MOL0     H24442   4.241   1.196   1.726  2.3348 -2.0457 -1.0454
  922MOL0     H24443   4.210   1.025   1.735 -0.8370  1.8815 -3.7711
  922MOL0     H24444   4.018   1.164   1.763  1.3845 -1.5241 -0.4893
  922MOL0     H24445   4.074   1.237   1.919  2.7081 -2.4791  2.3640
  922MOL0     H24446   4.019   0.941   1.893 -4.1552  0.3297 -1.4005
  922MOL0     H24447   4.086   1.021   2.036 -4.0279 -3.0212  1.5266
  922MOL0     H24448   3.878   1.085   2.107 -0.1032 -1.7090 -0.0360
  922MOL0     H24449   3.842   0.952   2.020  1.4419  0.4627  3.1086
  922MOL0     H24450   3.754   1.116   1.827 -1.7150  0.0005  0.9735
  922MOL0     H24451   3.804   1.247   1.932 -1.4884  0.3764  1.0532
  922MOL0     H24452   4.775   1.216   2.006 -0.5045 -0.8285 -0.5992
  922MOL0     H24453   5.019   1.248   2.050  2.0453 -1.8797  0.8512
  922MOL0     H24454   5.327   1.031   2.094 -0.0559 -0.6881  0.9102
  922MOL0     H24455   5.524   0.991   2.245  0.5974 -2.2421 -0.4082
  922MOL0     H24456   7.146   2.033   1.857 -1.5505 -1.7695 -1.7109
  922MOL0     H24457   7.401   2.012   1.853  2.3806  0.3023  3.7095
  922MOL0     H24458   7.729   1.688   1.964  0.7572 -0.4790 -0.0908
  922MOL0     H24459   7.958   1.609   2.006 -0.3169  0.5615 -2.0539
  922MOL0     H24460   8.268   1.939   2.083  1.8018  0.8824  2.6172
  922MOL0     H24461   8.239   1.864   2.233 -0.2566 -0.3467 -0.0836
  922MOL0     H24462   8.474   1.852   2.137 -0.4957  1.2062  1.8784
  922MOL0     H24463   8.413   1.741   2.011  0.1327 -0.7766  1.1861
  922MOL0     H24464   8.341   1.589   2.215 -0.1026  0.4527 -2.1179
  922MOL0     H24465   8.417   1.708   2.321 -2.1100 -2.1676  0.9048
  922MOL0     H24466   8.573   1.579   2.086  1.0602 -1.5415  0.2237
  922MOL0     H24467   8.562   1.500   2.247  1.3100  1.3072  2.0776
  922MOL0     H24468   8.858   1.812   2.270 -0.8488  1.0260  1.8224
  922MOL0     H24469   8.078   2.025   2.072  0.5861 -0.3819 -0.3247
  922MOL0     H24470   7.849   2.090   2.021  3.4044  1.0607  0.0863
  923MOL0     O24471   3.225   7.340   0.590  1.3653 -0.0827  0.1362
  923MOL0     C24472   3.234   7.361   0.714 -0.5079  0.1306  1.1019
  923MOL0     O24473   3.122   7.357   0.801  0.4733  0.1265  0.3132
  923MOL0     C24474   2.998   7.309   0.767 -0.2703  0.0170 -0.3471
  923MOL0     C24475   2.880   7.389   0.779  0.3046  0.9697 -0.4045
  923MOL0     C24476   2.755   7.350   0.731 -1.1470 -0.4551  0.0969
  923MOL0     C24477   2.744   7.218   0.676 -0.2463 -0.9033  0.5361
  923MOL0     O24478   2.617   7.184   0.639  0.3506 -0.0658 -0.5028
  923MOL0     C24479   2.579   7.042   0.656  1.5315 -0.2407  0.1937
  923MOL0     C24480   2.427   7.026   0.640 -0.6625 -0.6120 -0.3430
  923MOL0     C24481   2.382   7.060   0.501  0.0593 -0.5281 -0.2099
  923MOL0     C24482   2.238   7.003   0.492 -0.0415 -0.6942 -0.0073
  923MOL0     C24483   2.169   7.058   0.365  0.0218  0.0508  0.0005
  923MOL0     C24484   2.102   7.198   0.392  0.0385 -0.5575  0.5746
  923MOL0     C24485   1.989   7.233   0.299 -0.0582  0.1439 -0.2006
  923MOL0     C24486   1.915   7.354   0.352  0.1149  0.1338  0.3948
  923MOL0     N24487   1.806   7.384   0.254 -0.0803  0.1376 -0.3574
  923MOL0     C24488   1.711   7.294   0.209  0.0822 -0.2402 -0.1295
  923MOL0     C24489   1.646   7.360   0.114  0.1793  0.4773 -1.1370
  923MOL0     C24490   1.541   7.311   0.014 -0.1703 -0.5329  0.0578
  923MOL0     C24491   1.402   7.360   0.058 -0.0286  0.2667  0.0756
  923MOL0     C24492   1.304   7.296  -0.037  0.2860  0.3712  0.5417
  923MOL0     C24493   1.259   7.166   0.034  0.4653 -0.5441  0.5731
  923MOL0     O24494   1.186   7.201   0.160 -0.2612  0.3057 -0.1232
  923MOL0     C24495   1.052   7.197   0.157  0.3261 -0.3754  0.1262
  923MOL0     C24496   0.989   7.193   0.280 -0.1802 -0.4263 -0.0428
  923MOL0     C24497   0.850   7.193   0.295  0.2954  0.0687  0.8169
  923MOL0     C24498   0.792   7.179   0.426 -0.0832 -0.6259 -0.3826
  923MOL0     C24499   0.766   7.205   0.173 -1.1506 -0.2127  0.2702
  923MOL0     C24500   0.615   7.200   0.172 -0.2316  0.7160 -0.5550
  923MOL0     O24501   0.560   7.185   0.040  0.1376 -0.0994 -0.0010
  923MOL0     C24502   0.424   7.184   0.019 -0.3281  0.0620 -0.2983
  923MOL0     C24503   0.371   7.218  -0.104 -0.8141 -0.0630 -0.6282
  923MOL0     C24504   0.228   7.219  -0.121 -1.1326  0.6875  0.0061
  923MOL0     C24505   0.137   7.179  -0.019 -0.2214  0.7426 -0.3632
  923MOL0     O24506   0.006   7.186  -0.042 -0.2719 -1.1160  0.2287
  923MOL0     C24507  -0.073   7.120   0.056 -0.0700  0.3357 -1.2038
  923MOL0     C24508  -0.214   7.096   0.010  0.7808 -0.1381 -0.2024
  923MOL0     C24509  -0.300   7.223   0.012 -0.4977 -0.0305  0.1551
  923MOL0     C24510  -0.434   7.211  -0.072 -0.1835  0.6908 -0.6077
  923MOL0     C24511  -0.521   7.335  -0.053 -0.2482  1.1661 -0.3258
  923MOL0     C24512  -0.623   7.346  -0.173  0.5376  0.5014  0.3373
  923MOL0     C24513  -0.730   7.463  -0.179 -0.3002  0.5885  0.4396
  923MOL0     C24514  -0.822   7.453  -0.292  0.1655 -0.2958 -0.6643
  923MOL0    Cl24515  -0.948   7.334  -0.275 -0.5373  0.4754  0.1071
  923MOL0     C24516   0.200   7.136   0.099 -0.4967 -0.3451 -0.1640
  923MOL0     C24517   0.334   7.137   0.122 -0.1073 -0.4924  0.2720
  923MOL0     O24518   0.558   7.246   0.275  0.0660 -0.5012  0.4084
  923MOL0     C24519   0.840   7.205   0.045 -0.1851  0.6765 -0.7340
  923MOL0     C24520   0.975   7.205   0.038 -0.1805  0.4283  1.0543
  923MOL0     N24521   1.690   7.488   0.110  0.5642  0.1330 -0.9199
  923MOL0     N24522   1.788   7.502   0.195  0.2359 -0.0958 -0.1048
  923MOL0     C24523   2.855   7.130   0.682  0.2153 -1.0571  0.4223
  923MOL0     C24524   2.975   7.179   0.721 -0.2882  0.6812  1.1198
  923MOL0     C24525   3.356   7.421   0.773  0.2017 -0.0915 -0.4236
  923MOL0     C24526   3.472   7.447   0.692 -0.5746  0.4250 -0.0738
  923MOL0     C24527   3.601   7.480   0.750  0.5395 -0.3053  1.0080
  923MOL0     C24528   3.612   7.484   0.888  0.2199  0.6964 -0.2096
  923MOL0     O24529   3.729   7.503   0.956  0.5550  0.3633 -0.6981
  923MOL0     C24530   3.836   7.564   0.891 -0.4585  0.0735 -0.4063
  923MOL0     C24531   3.935   7.464   0.820 -0.3005  0.1432  0.2962
  923MOL0     C24532   4.057   7.539   0.764  0.7365  0.9387  0.3981
  923MOL0     C24533   4.180   7.549   0.859  0.4502 -0.1086  1.0091
  923MOL0     C24534   4.161   7.644   0.963  0.1875 -0.2477  0.3636
  923MOL0     C24535   4.151   7.720   1.050 -0.4784 -0.2780 -0.1515
  923MOL0     C24536   3.501   7.460   0.968 -0.1423  0.5200 -0.3116
  923MOL0     C24537   3.375   7.431   0.915 -0.1356  0.6956 -0.3066
  923MOL0     H24538   2.884   7.490   0.819 -0.3081  0.3245  1.3675
  923MOL0     H24539   2.668   7.414   0.730 -1.0527 -0.1679  2.9884
  923MOL0     H24540   2.623   6.979   0.578 -2.2707  0.4725 -2.8611
  923MOL0     H24541   2.603   7.001   0.754  2.9613 -2.1644 -0.8969
  923MOL0     H24542   2.399   6.921   0.654 -0.4088 -1.1098 -3.0373
  923MOL0     H24543   2.374   7.094   0.708  1.6440 -0.3848  1.3201
  923MOL0     H24544   2.377   7.170   0.500  1.1207 -0.4782 -0.5244
  923MOL0     H24545   2.450   7.024   0.423  0.9263 -2.3251  1.3112
  923MOL0     H24546   2.254   6.897   0.468  0.8764 -0.5232 -0.1889
  923MOL0     H24547   2.177   7.031   0.578 -0.6801  0.9662 -0.9434
  923MOL0     H24548   2.240   7.059   0.282  0.0718 -2.5327 -0.0727
  923MOL0     H24549   2.090   6.988   0.334  1.1163 -0.9128 -0.6873
  923MOL0     H24550   2.051   7.197   0.489 -2.4025 -2.0997 -0.6205
  923MOL0     H24551   2.186   7.268   0.390  2.3829 -3.1922  1.5165
  923MOL0     H24552   2.025   7.255   0.198  1.5319  0.1653  0.3536
  923MOL0     H24553   1.922   7.147   0.310 -2.7985  2.0375 -1.0073
  923MOL0     H24554   1.974   7.445   0.366  0.2739  0.3237 -1.3468
  923MOL0     H24555   1.873   7.330   0.451  0.0839  0.1930  0.3960
  923MOL0     H24556   1.685   7.194   0.242  0.6260  0.0180  1.1391
  923MOL0     H24557   1.555   7.359  -0.083 -0.2602 -1.0690 -0.2271
  923MOL0     H24558   1.538   7.201   0.007  0.6818 -0.6996  1.6336
  923MOL0     H24559   1.400   7.469   0.064  0.5824  0.2795  0.1272
  923MOL0     H24560   1.380   7.336   0.162 -0.1666 -0.0259 -0.0190
  923MOL0     H24561   1.349   7.281  -0.135 -0.4466  0.3807  0.1997
  923MOL0     H24562   1.222   7.367  -0.050 -0.6122 -0.8100 -0.5289
  923MOL0     H24563   1.341   7.109   0.079  0.4033 -1.1961 -0.1103
  923MOL0     H24564   1.199   7.107  -0.036  2.4194  0.9015 -2.5500
  923MOL0     H24565   1.049   7.173   0.368  2.8457 -2.8511 -2.4374
  923MOL0     H24566   0.858   7.138   0.503 -0.4981  0.4665  0.5781
  923MOL0     H24567   0.753   7.277   0.456  0.3044 -0.9283  1.2310
  923MOL0     H24568   0.707   7.109   0.421 -0.9776  0.4141 -0.1769
  923MOL0     H24569   0.442   7.251  -0.179 -0.6889  3.1136  0.7565
  923MOL0     H24570   0.188   7.260  -0.214  2.7885  1.0301 -1.7221
  923MOL0     H24571  -0.039   7.020   0.084 -1.3296  0.2894  0.3423
  923MOL0     H24572  -0.086   7.180   0.147 -0.2887 -0.0978 -0.9465
  923MOL0     H24573  -0.206   7.060  -0.093  2.1497 -0.3308 -0.0395
  923MOL0     H24574  -0.262   7.022   0.074  0.6837  1.1351  1.2599
  923MOL0     H24575  -0.240   7.307  -0.025  1.2098 -2.0578 -2.0154
  923MOL0     H24576  -0.330   7.241   0.115 -1.1896  1.1834 -0.2342
  923MOL0     H24577  -0.406   7.200  -0.177  0.4678  0.6819 -0.4362
  923MOL0     H24578  -0.485   7.115  -0.058  1.2259 -0.5902 -3.3303
  923MOL0     H24579  -0.447   7.415  -0.067  2.0973 -0.2230  2.9517
  923MOL0     H24580  -0.564   7.348   0.047  2.3399  0.3764  0.9856
  923MOL0     H24581  -0.568   7.363  -0.266 -2.5031  0.4989 -1.6152
  923MOL0     H24582  -0.669   7.250  -0.196  1.5249  0.8372 -3.9147
  923MOL0     H24583  -0.670   7.554  -0.190  1.4221 -0.6452 -0.9759
  923MOL0     H24584  -0.777   7.475  -0.081 -1.9541  0.1478 -0.2569
  923MOL0     H24585  -0.764   7.437  -0.383  2.1452 -1.5868  0.7516
  923MOL0     H24586  -0.873   7.550  -0.300  2.0792  0.7276 -0.8542
  923MOL0     H24587   0.134   7.100   0.178 -3.7130 -0.6933 -2.7757
  923MOL0     H24588   0.373   7.094   0.214  0.2530 -1.7908 -0.4605
  923MOL0     H24589   0.784   7.212  -0.047 -1.2620 -1.1409 -0.2748
  923MOL0     H24590   1.029   7.214  -0.056  0.2853 -1.0091  1.1461
  923MOL0     H24591   2.849   7.031   0.638 -1.3620 -1.1324  0.7511
  923MOL0     H24592   3.066   7.120   0.714 -1.4341 -1.0449  0.2027
  923MOL0     H24593   3.471   7.421   0.586  0.9894 -1.9834  0.4280
  923MOL0     H24594   3.691   7.494   0.693 -0.5133  2.5813 -0.1215
  923MOL0     H24595   3.801   7.645   0.828  0.8667 -0.6546 -2.1802
  923MOL0     H24596   3.884   7.618   0.972 -4.5145  3.8695 -0.1835
  923MOL0     H24597   3.884   7.408   0.741  0.9590 -1.0507  0.2734
  923MOL0     H24598   3.966   7.378   0.882  2.2415  0.5331 -0.3369
  923MOL0     H24599   4.038   7.635   0.715 -0.4925 -1.3513 -4.1602
  923MOL0     H24600   4.085   7.468   0.686  1.2085 -0.6798  1.9857
  923MOL0     H24601   4.270   7.571   0.799  0.6655 -0.3839  1.2276
  923MOL0     H24602   4.208   7.449   0.891  1.0566  0.5768  2.7509
  923MOL0     H24603   4.164   7.781   1.137  0.0129  0.6530 -0.8542
  923MOL0     H24604   3.507   7.461   1.076  0.9564  0.2774 -0.3658
  923MOL0     H24605   3.294   7.411   0.984  0.1294  0.8537  0.0497
  924MOL0     O24606   5.926   9.716   4.301  0.3070  0.1890  0.1706
  924MOL0     C24607   5.898   9.784   4.400  0.2385  0.2612  0.1398
  924MOL0     O24608   5.981   9.837   4.501  0.6364  0.2396  0.2707
  924MOL0     C24609   6.117   9.817   4.497  0.2588  0.0237 -0.0311
  924MOL0     C24610   6.191   9.805   4.376 -0.5345 -0.0816  0.2582
  924MOL0     C24611   6.327   9.807   4.388  0.1447  0.4135 -0.6022
  924MOL0     C24612   6.395   9.833   4.508 -0.2643  0.0751  0.1529
  924MOL0     O24613   6.529   9.839   4.514  0.1149 -0.7445 -0.2768
  924MOL0     C24614   6.586   9.967   4.558 -0.5394  0.5527 -0.1013
  924MOL0     C24615   6.730   9.969   4.510  0.1461 -0.2032  0.3904
  924MOL0     C24616   6.813   9.857   4.569  0.5139  0.8584  0.7477
  924MOL0     C24617   6.932   9.810   4.487  0.7537 -0.1744  0.4555
  924MOL0     C24618   7.004   9.701   4.574 -0.1359 -0.4893 -0.3709
  924MOL0     C24619   6.939   9.561   4.568 -0.2170  0.2314 -0.7976
  924MOL0     C24620   6.979   9.483   4.441  0.2888 -0.0052  0.5146
  924MOL0     C24621   6.875   9.363   4.408 -0.1010  0.0304 -0.2356
  924MOL0     N24622   6.737   9.410   4.386  0.3618 -0.2576 -0.5204
  924MOL0     C24623   6.686   9.468   4.274 -0.0432  0.3215  0.0257
  924MOL0     C24624   6.551   9.461   4.297 -0.6405 -0.2181 -0.0287
  924MOL0     C24625   6.451   9.522   4.206 -1.0787  0.2130  0.2912
  924MOL0     C24626   6.410   9.434   4.090  0.1137 -0.6230 -0.1629
  924MOL0     C24627   6.284   9.474   4.012  0.4363 -0.9827  0.7607
  924MOL0     C24628   6.166   9.495   4.101 -0.5755  0.5833  0.0953
  924MOL0     O24629   6.143   9.378   4.177  0.2041  0.0647  0.3423
  924MOL0     C24630   6.048   9.396   4.269 -0.0593 -0.2278 -0.1372
  924MOL0     C24631   6.070   9.444   4.390 -0.0496  0.5352  0.3513
  924MOL0     C24632   5.978   9.467   4.486 -0.5694 -0.0999 -0.1846
  924MOL0     C24633   6.021   9.507   4.621 -0.1834  0.4802  0.8516
  924MOL0     C24634   5.846   9.435   4.458  0.4171  0.3216 -0.7729
  924MOL0     C24635   5.726   9.468   4.543 -0.0452 -0.6465 -1.0119
  924MOL0     O24636   5.617   9.383   4.517  0.2988  0.6613 -0.3193
  924MOL0     C24637   5.499   9.395   4.580  0.1259  0.0433  0.2174
  924MOL0     C24638   5.422   9.515   4.595 -0.1197 -0.0239  0.3816
  924MOL0     C24639   5.302   9.512   4.663  0.0221  0.8408 -0.1790
  924MOL0     C24640   5.251   9.383   4.703 -0.8812  0.3967  0.2618
  924MOL0     O24641   5.130   9.385   4.760 -0.9283  0.5124  0.2437
  924MOL0     C24642   5.134   9.444   4.898  0.5227 -0.8929  0.7648
  924MOL0     C24643   5.001   9.442   4.971 -0.5047  0.3130 -0.3818
  924MOL0     C24644   4.905   9.535   4.894  0.4101  0.5762  0.8970
  924MOL0     C24645   4.773   9.549   4.963 -0.6003 -0.6187 -0.4861
  924MOL0     C24646   4.670   9.621   4.871  0.1650  0.2867 -0.3990
  924MOL0     C24647   4.560   9.651   4.973 -1.0362  0.1467  0.0893
  924MOL0     C24648   4.427   9.680   4.900 -0.0934  1.0328 -0.4776
  924MOL0     C24649   4.326   9.734   5.001  0.1436  0.9672  0.2321
  924MOL0    Cl24650   4.266   9.636   5.132  0.2111 -0.1364  0.0056
  924MOL0     C24651   5.320   9.267   4.683 -0.6181  0.0618  0.4132
  924MOL0     C24652   5.440   9.273   4.619 -0.4407 -0.2853 -1.1622
  924MOL0     O24653   5.729   9.559   4.630 -0.3306 -0.2045  0.5862
  924MOL0     C24654   5.813   9.379   4.334  0.2343 -0.5710 -0.2887
  924MOL0     C24655   5.917   9.357   4.242 -0.0454  0.2121  0.7216
  924MOL0     N24656   6.528   9.396   4.420  0.5019  0.3888  0.1501
  924MOL0     N24657   6.635   9.360   4.465  0.8441 -0.1772 -0.3270
  924MOL0     C24658   6.325   9.856   4.623 -0.7177  0.4072  0.1911
  924MOL0     C24659   6.189   9.846   4.621  0.0820  0.7896 -0.4048
  924MOL0     C24660   5.754   9.805   4.407 -0.3610  0.0681 -0.2540
  924MOL0     C24661   5.694   9.901   4.487  0.2227 -0.3140  0.0724
  924MOL0     C24662   5.557   9.945   4.472 -0.1520  0.0065 -1.0278
  924MOL0     C24663   5.466   9.865   4.399  0.0293  0.0418 -0.1182
  924MOL0     O24664   5.331   9.885   4.400 -0.1293  0.0019  0.6779
  924MOL0     C24665   5.314   9.997   4.306  0.3105  0.3986 -0.8412
  924MOL0     C24666   5.284   9.961   4.151  0.2932  1.3375 -0.1007
  924MOL0     C24667   5.163   9.851   4.155 -0.5425 -0.1178 -0.1633
  924MOL0     C24668   5.031   9.918   4.197  0.0359 -0.3037  0.1091
  924MOL0     C24669   4.921   9.831   4.186 -0.6045  0.6612 -0.0668
  924MOL0     C24670   4.825   9.766   4.153  0.0504  0.3709 -0.1685
  924MOL0     C24671   5.526   9.757   4.329  0.2963 -0.2942  0.0851
  924MOL0     C24672   5.661   9.724   4.332 -0.8262  0.5421 -0.0054
  924MOL0     H24673   6.145   9.811   4.279  1.3541  1.0164 -0.6350
  924MOL0     H24674   6.385   9.796   4.297  0.2434  1.3063 -0.6602
  924MOL0     H24675   6.542  10.043   4.492 -1.0331 -1.0313 -1.6657
  924MOL0     H24676   6.572   9.996   4.663 -1.2033 -1.7777  0.5093
  924MOL0     H24677   6.741   9.963   4.401 -0.1120 -0.1696  0.3620
  924MOL0     H24678   6.769  10.065   4.546 -2.9863  1.5614 -0.6012
  924MOL0     H24679   6.846   9.885   4.670  1.6769 -0.4281  0.7591
  924MOL0     H24680   6.746   9.772   4.582  2.4357 -0.8207  0.1078
  924MOL0     H24681   6.891   9.771   4.394  3.9866 -0.1067 -1.1102
  924MOL0     H24682   7.007   9.887   4.469  1.4762 -0.5200  1.8188
  924MOL0     H24683   7.109   9.709   4.546  0.1649  0.2779  0.9057
  924MOL0     H24684   6.996   9.738   4.677 -0.0204  1.1978 -0.9327
  924MOL0     H24685   6.959   9.506   4.661 -0.3359  1.8152  0.1929
  924MOL0     H24686   6.830   9.572   4.569 -0.3255 -0.5912  0.8165
  924MOL0     H24687   6.973   9.556   4.360  0.2991 -1.0940 -0.4886
  924MOL0     H24688   7.084   9.453   4.441  0.7020  1.3654 -0.4924
  924MOL0     H24689   6.885   9.292   4.490  0.0730 -1.4035 -1.4471
  924MOL0     H24690   6.916   9.321   4.316 -1.2278 -0.3511 -0.5806
  924MOL0     H24691   6.734   9.511   4.187  1.5584 -1.3192  0.0520
  924MOL0     H24692   6.367   9.557   4.266 -1.8410  3.1021 -2.1877
  924MOL0     H24693   6.491   9.616   4.165 -0.5105 -0.9341 -1.9648
  924MOL0     H24694   6.393   9.331   4.123 -0.7272 -1.6868 -3.4978
  924MOL0     H24695   6.493   9.416   4.020 -1.1317 -3.9386 -0.9998
  924MOL0     H24696   6.260   9.395   3.940 -1.4873 -0.2479  0.5149
  924MOL0     H24697   6.302   9.569   3.960 -4.0139 -0.0102  0.5775
  924MOL0     H24698   6.073   9.520   4.049 -1.2935 -2.4068 -0.2176
  924MOL0     H24699   6.190   9.577   4.170  0.3664  1.0282 -0.7384
  924MOL0     H24700   6.176   9.451   4.413  0.2571 -1.2499 -0.3625
  924MOL0     H24701   6.125   9.478   4.640 -1.0998 -4.4457 -0.0641
  924MOL0     H24702   6.017   9.616   4.624 -1.0425  0.4715  0.3565
  924MOL0     H24703   5.960   9.460   4.699 -0.6138  2.9874  2.1177
  924MOL0     H24704   5.463   9.609   4.560  1.8885 -0.8608  0.3334
  924MOL0     H24705   5.242   9.600   4.684 -1.9513 -0.5132  0.1411
  924MOL0     H24706   5.203   9.396   4.969  1.6431 -0.6433 -0.1156
  924MOL0     H24707   5.150   9.551   4.877  0.3165 -0.7672  1.2369
  924MOL0     H24708   4.973   9.336   4.971  2.6996 -0.7690 -3.8309
  924MOL0     H24709   5.015   9.494   5.066 -0.4439  3.4965 -1.9702
  924MOL0     H24710   4.877   9.500   4.795 -2.3617  0.3637  1.6517
  924MOL0     H24711   4.948   9.634   4.879  0.4646  0.3228 -0.7401
  924MOL0     H24712   4.729   9.452   4.988  0.8721 -1.4831 -1.0989
  924MOL0     H24713   4.789   9.612   5.051 -0.0137 -1.1736 -0.1884
  924MOL0     H24714   4.632   9.543   4.804 -0.0465 -0.4072  0.5158
  924MOL0     H24715   4.698   9.713   4.818 -0.4110  2.1336  2.3260
  924MOL0     H24716   4.544   9.562   5.034 -0.5683 -0.9905 -1.3749
  924MOL0     H24717   4.590   9.735   5.036 -1.2182  0.4643 -0.2444
  924MOL0     H24718   4.381   9.598   4.845 -0.0922  0.3152  0.5459
  924MOL0     H24719   4.437   9.761   4.828  0.1803  0.2982 -1.2907
  924MOL0     H24720   4.245   9.768   4.937 -1.8271  0.8617  2.5214
  924MOL0     H24721   4.364   9.825   5.046  1.8748 -0.2968  1.4753
  924MOL0     H24722   5.278   9.167   4.689 -2.2327  0.5797 -1.4463
  924MOL0     H24723   5.495   9.182   4.601 -0.3137  0.0035 -2.3317
  924MOL0     H24724   5.716   9.361   4.288  1.0079 -1.6040 -1.6116
  924MOL0     H24725   5.891   9.299   4.154 -1.4919  0.2216  1.1214
  924MOL0     H24726   6.375   9.877   4.717 -0.1771 -1.2276  0.2922
  924MOL0     H24727   6.126   9.862   4.708  0.0742  0.0891 -0.2806
  924MOL0     H24728   5.749   9.965   4.555 -1.0695  1.1520 -0.1999
  924MOL0     H24729   5.516  10.030   4.526 -1.4770 -0.7357 -0.8093
  924MOL0     H24730   5.224  10.048   4.341  0.3274  0.7949 -1.3787
  924MOL0     H24731   5.395  10.070   4.297  0.0510  0.9166  0.6722
  924MOL0     H24732   5.382   9.932   4.113 -0.7917 -2.0296 -0.7022
  924MOL0     H24733   5.263  10.052   4.095  0.2271  1.2549 -0.2117
  924MOL0     H24734   5.187   9.766   4.220  0.5684 -3.0066 -4.0070
  924MOL0     H24735   5.156   9.800   4.059 -1.5798  0.6104 -0.4874
  924MOL0     H24736   5.013   9.988   4.115 -0.2851  0.2076  0.6067
  924MOL0     H24737   5.033   9.959   4.298  1.4697  2.4527 -0.9375
  924MOL0     H24738   4.740   9.710   4.118  0.7052 -0.9480  0.2828
  924MOL0     H24739   5.461   9.689   4.276 -0.5911  0.1075  0.6195
  924MOL0     H24740   5.690   9.641   4.269 -2.7949 -0.2058  0.0248
  925MOL0     O24741   7.552   8.430   4.191 -0.1327  0.2462  0.4207
  925MOL0     C24742   7.625   8.450   4.291 -0.8551  0.5090  0.1725
  925MOL0     O24743   7.580   8.458   4.425  0.1459 -0.4656  0.9440
  925MOL0     C24744   7.451   8.431   4.447 -0.2489  0.1218  0.0263
  925MOL0     C24745   7.352   8.515   4.394 -0.2995  0.5291 -0.2855
  925MOL0     C24746   7.219   8.489   4.417 -0.4006 -0.1112  0.7509
  925MOL0     C24747   7.179   8.382   4.493 -0.5578  0.0154 -0.1434
  925MOL0     O24748   7.050   8.350   4.511 -0.6675  0.3739  0.5341
  925MOL0     C24749   6.940   8.428   4.461 -0.4253  1.3451 -0.9447
  925MOL0     C24750   6.795   8.366   4.491 -0.5443  0.3012  0.5659
  925MOL0     C24751   6.678   8.441   4.439  0.3074  0.0621  0.1556
  925MOL0     C24752   6.544   8.420   4.517 -0.3758  0.1761 -0.1213
  925MOL0     C24753   6.426   8.477   4.442  0.4954 -0.7276  0.2476
  925MOL0     C24754   6.306   8.413   4.508  0.1647 -0.5578 -0.1468
  925MOL0     C24755   6.181   8.446   4.425 -0.1179 -0.5377 -0.1418
  925MOL0     C24756   6.154   8.595   4.449  0.0675  0.0040  0.6398
  925MOL0     N24757   6.117   8.636   4.590 -0.5819 -0.3589 -0.2314
  925MOL0     C24758   6.006   8.607   4.662  0.6413 -0.4198 -0.5477
  925MOL0     C24759   6.029   8.667   4.779 -0.5397 -0.1451  0.1742
  925MOL0     C24760   5.934   8.668   4.901  0.4700 -0.7580  0.2556
  925MOL0     C24761   5.956   8.783   4.997  0.2367 -0.2260 -0.2886
  925MOL0     C24762   5.864   8.785   5.120  0.7035  0.9418  0.2037
  925MOL0     C24763   5.880   8.899   5.223  0.2142 -1.0647 -0.2112
  925MOL0     O24764   5.776   8.898   5.323  0.0551  0.8975 -0.0913
  925MOL0     C24765   5.654   8.960   5.307 -0.6806  0.5131 -0.0476
  925MOL0     C24766   5.622   9.046   5.208 -0.0162  0.3210  0.7097
  925MOL0     C24767   5.499   9.113   5.192  0.2222  0.0365  0.2295
  925MOL0     C24768   5.491   9.209   5.078  0.0686  0.4415 -0.8731
  925MOL0     C24769   5.389   9.081   5.272 -0.0642 -0.4109 -0.3972
  925MOL0     C24770   5.249   9.128   5.257 -0.0619  0.0932  0.5078
  925MOL0     O24771   5.156   9.048   5.309 -0.2527 -0.0231 -0.1274
  925MOL0     C24772   5.020   9.082   5.302 -0.3157  0.1172  0.1261
  925MOL0     C24773   4.964   9.178   5.388 -0.1674 -0.7522  0.5657
  925MOL0     C24774   4.833   9.229   5.379 -0.1328  0.4830 -0.7029
  925MOL0     C24775   4.744   9.164   5.290 -0.4121 -0.0963  0.0965
  925MOL0     O24776   4.611   9.186   5.296 -0.6083  0.1973 -0.1676
  925MOL0     C24777   4.556   9.199   5.431  0.1725  0.0510  0.5522
  925MOL0     C24778   4.406   9.172   5.439 -0.3552  0.2830  0.1051
  925MOL0     C24779   4.329   9.286   5.362 -0.2165  0.5032 -0.1673
  925MOL0     C24780   4.186   9.260   5.388  0.7493  0.1801 -0.7725
  925MOL0     C24781   4.086   9.349   5.314  0.0262  0.8519  0.2352
  925MOL0     C24782   3.940   9.303   5.341 -1.0822 -0.7394  0.1004
  925MOL0     C24783   3.846   9.422   5.323 -0.0643  0.7199 -0.5603
  925MOL0     C24784   3.692   9.386   5.336 -1.0318 -0.3056 -0.1216
  925MOL0    Cl24785   3.591   9.545   5.318 -0.1603  0.0462 -0.2879
  925MOL0     C24786   4.800   9.065   5.206  0.2028  0.5140  0.2298
  925MOL0     C24787   4.930   9.029   5.210 -0.2776  0.1490  1.2319
  925MOL0     O24788   5.222   9.225   5.194 -0.0622  0.3690 -0.5570
  925MOL0     C24789   5.421   8.996   5.382  0.5050  0.1012 -0.1307
  925MOL0     C24790   5.545   8.928   5.395 -0.4876 -0.6756 -0.2996
  925MOL0     N24791   6.145   8.741   4.767 -0.1638  0.8461 -0.0909
  925MOL0     N24792   6.202   8.719   4.653 -0.4874  0.6499 -0.1932
  925MOL0     C24793   7.279   8.306   4.550 -1.3031  0.4470 -0.9914
  925MOL0     C24794   7.419   8.319   4.522 -0.1907 -0.5782 -0.2688
  925MOL0     C24795   7.769   8.478   4.267 -0.4991 -0.6069  0.3762
  925MOL0     C24796   7.815   8.500   4.136 -0.2407  1.1478 -0.5574
  925MOL0     C24797   7.952   8.531   4.116  0.5172 -0.3529  0.0388
  925MOL0     C24798   8.041   8.529   4.218 -0.7433 -0.8749 -0.3615
  925MOL0     O24799   8.176   8.553   4.218 -0.0455  0.2602 -0.6882
  925MOL0     C24800   8.239   8.614   4.108  0.5397  0.1744  0.4656
  925MOL0     C24801   8.216   8.764   4.094 -0.3022 -0.5850 -0.2043
  925MOL0     C24802   8.256   8.848   4.211 -0.2621  0.1020  0.3288
  925MOL0     C24803   8.243   8.995   4.174  0.8103 -0.0875  0.1270
  925MOL0     C24804   8.321   9.094   4.256 -0.3835  0.8429  0.3226
  925MOL0     C24805   8.371   9.172   4.328  0.2664 -0.0796 -0.6970
  925MOL0     C24806   7.998   8.498   4.346 -0.5689 -0.1601  0.0355
  925MOL0     C24807   7.860   8.482   4.368 -0.0521  0.2370 -0.3817
  925MOL0     H24808   7.374   8.597   4.326 -0.5186  1.3601  0.6259
  925MOL0     H24809   7.152   8.562   4.373  2.0061  0.9083 -1.4850
  925MOL0     H24810   6.957   8.526   4.504 -0.6231  1.3941 -0.9782
  925MOL0     H24811   6.944   8.443   4.353 -2.2535 -0.4874 -1.3456
  925MOL0     H24812   6.789   8.263   4.454 -0.8191  0.5011  0.0430
  925MOL0     H24813   6.784   8.368   4.599 -1.3890 -0.2659  0.5032
  925MOL0     H24814   6.703   8.548   4.436 -0.6122  0.4440  3.3348
  925MOL0     H24815   6.671   8.407   4.335  0.5897  1.3075 -0.2964
  925MOL0     H24816   6.541   8.311   4.524  1.5529  0.0990 -0.0871
  925MOL0     H24817   6.563   8.466   4.614  0.8893  0.5317 -0.5192
  925MOL0     H24818   6.421   8.586   4.450  2.0799 -0.5235 -1.0516
  925MOL0     H24819   6.431   8.451   4.336  4.2271  0.7423 -0.0880
  925MOL0     H24820   6.327   8.306   4.504 -1.3693 -0.8448 -1.7781
  925MOL0     H24821   6.300   8.436   4.615  1.7159  0.3984 -0.2325
  925MOL0     H24822   6.205   8.438   4.319  1.1961  1.0436 -0.0083
  925MOL0     H24823   6.095   8.383   4.450 -2.0701  2.3877  1.0146
  925MOL0     H24824   6.070   8.614   4.382  1.6674  2.0983 -0.8656
  925MOL0     H24825   6.228   8.664   4.410 -0.8634 -0.6802 -2.6546
  925MOL0     H24826   5.910   8.571   4.626  0.8229  1.2706 -2.9564
  925MOL0     H24827   5.831   8.662   4.863  1.6185 -1.7360 -3.0005
  925MOL0     H24828   5.967   8.577   4.952 -0.5832 -0.8704  0.7577
  925MOL0     H24829   5.925   8.878   4.952  1.1768 -0.4053 -1.3340
  925MOL0     H24830   6.063   8.793   5.015  0.2972 -0.9455 -0.2359
  925MOL0     H24831   5.886   8.691   5.172  0.0058 -0.2505 -1.5595
  925MOL0     H24832   5.759   8.786   5.089  0.1077 -3.0619  1.4277
  925MOL0     H24833   5.882   8.989   5.162  0.2512 -1.3910 -0.7004
  925MOL0     H24834   5.979   8.891   5.267  0.1852  2.1721  0.6623
  925MOL0     H24835   5.701   9.069   5.137 -0.6690  1.4743  0.3547
  925MOL0     H24836   5.443   9.300   5.116 -0.9643 -1.7664  3.8853
  925MOL0     H24837   5.592   9.242   5.054 -0.2343  0.1820 -2.6583
  925MOL0     H24838   5.436   9.165   4.995  0.8701 -3.5551  0.5082
  925MOL0     H24839   5.027   9.224   5.463 -1.0645 -1.1805  1.6050
  925MOL0     H24840   4.796   9.304   5.447 -1.7532 -0.9550  0.0812
  925MOL0     H24841   4.599   9.143   5.515 -1.5586  1.0125  2.1764
  925MOL0     H24842   4.577   9.304   5.457 -0.9662  0.3391  0.3650
  925MOL0     H24843   4.379   9.076   5.394 -0.3590  1.6907 -3.1819
  925MOL0     H24844   4.384   9.173   5.546  1.4801  1.2406  0.5141
  925MOL0     H24845   4.370   9.303   5.262  0.7320  1.8205  0.4109
  925MOL0     H24846   4.350   9.383   5.408  0.3828  0.4129 -0.2455
  925MOL0     H24847   4.160   9.159   5.355 -0.6758 -0.6955  2.5317
  925MOL0     H24848   4.171   9.261   5.497  1.9367 -1.7746 -0.5523
  925MOL0     H24849   4.118   9.338   5.210  2.6814 -1.2824  1.1613
  925MOL0     H24850   4.097   9.450   5.355  1.7716  1.3320 -1.2853
  925MOL0     H24851   3.912   9.228   5.266 -1.6993 -0.0804 -0.3482
  925MOL0     H24852   3.925   9.260   5.440  0.8056 -1.4607  0.1137
  925MOL0     H24853   3.866   9.470   5.226  2.8627  0.0863 -0.3636
  925MOL0     H24854   3.868   9.503   5.393  1.4014  0.1800 -0.3454
  925MOL0     H24855   3.659   9.347   5.433  0.7712  0.8888  1.0370
  925MOL0     H24856   3.664   9.320   5.254 -0.8731  0.4686 -0.8163
  925MOL0     H24857   4.741   9.015   5.130  1.9958 -1.9366  0.3690
  925MOL0     H24858   4.967   8.965   5.131 -0.0125  1.1279  0.5535
  925MOL0     H24859   5.343   8.976   5.455  1.2576  2.4439  1.3989
  925MOL0     H24860   5.571   8.860   5.476  1.8108  1.0153  0.4951
  925MOL0     H24861   7.250   8.227   4.619  3.0626 -1.6176 -1.1958
  925MOL0     H24862   7.499   8.253   4.552 -1.0294 -2.3142 -1.6557
  925MOL0     H24863   7.750   8.487   4.050 -0.2328 -3.3823 -0.1139
  925MOL0     H24864   7.986   8.558   4.017 -1.0094  0.0174 -0.4070
  925MOL0     H24865   8.346   8.593   4.115  0.5910  0.4841  0.5944
  925MOL0     H24866   8.201   8.562   4.019  0.4540 -1.5101  1.4434
  925MOL0     H24867   8.107   8.769   4.089 -0.3986 -1.0522  1.0654
  925MOL0     H24868   8.262   8.791   3.998 -0.9878  0.8363 -0.1600
  925MOL0     H24869   8.361   8.818   4.222  0.1588 -0.7359 -4.0445
  925MOL0     H24870   8.193   8.815   4.294 -1.0314  0.5278 -0.0750
  925MOL0     H24871   8.136   9.016   4.179  1.1468  1.4854  2.3510
  925MOL0     H24872   8.280   9.015   4.073 -0.0320  0.8763 -0.0090
  925MOL0     H24873   8.424   9.221   4.407 -3.1134  0.3437  1.5379
  925MOL0     H24874   8.076   8.492   4.422 -0.3488 -1.0312 -0.2396
  925MOL0     H24875   7.816   8.449   4.462 -2.4439  2.2472 -0.6827
  926MOL0     O24876   2.957   7.959   5.214 -0.0009 -0.6378  0.2002
  926MOL0     C24877   3.026   7.863   5.252 -0.5826  0.1045  0.2796
  926MOL0     O24878   2.990   7.781   5.358 -0.1173  0.0834  0.5333
  926MOL0     C24879   2.901   7.838   5.446  0.5230 -0.5390 -0.5932
  926MOL0     C24880   2.946   7.894   5.567  0.2165 -0.0179  0.5158
  926MOL0     C24881   2.858   7.960   5.656 -0.4395  0.7651  0.3212
  926MOL0     C24882   2.717   7.951   5.635  0.4353 -0.7790  0.5283
  926MOL0     O24883   2.649   7.991   5.743 -0.3091  0.5919  0.3152
  926MOL0     C24884   2.504   8.006   5.729 -1.2440  0.9202 -0.5489
  926MOL0     C24885   2.449   7.884   5.806  0.3377 -0.1616 -0.0752
  926MOL0     C24886   2.296   7.902   5.797 -0.9526  0.3583  0.7392
  926MOL0     C24887   2.234   7.775   5.859  0.3129  0.5211 -0.8537
  926MOL0     C24888   2.084   7.785   5.882 -0.2768 -0.5884  0.0891
  926MOL0     C24889   2.027   7.654   5.948 -0.1385  0.1993 -0.5832
  926MOL0     C24890   2.067   7.641   6.098 -0.0340 -0.6063 -0.4135
  926MOL0     C24891   1.995   7.534   6.178  0.1570  0.7232  0.0424
  926MOL0     N24892   2.016   7.393   6.142  0.0123 -0.5100  0.3680
  926MOL0     C24893   2.093   7.291   6.202  0.0271  0.0391 -0.7521
  926MOL0     C24894   2.080   7.185   6.126  1.1152 -0.1484  0.0459
  926MOL0     C24895   2.126   7.043   6.139  0.3753  0.3677  0.5071
  926MOL0     C24896   2.267   7.026   6.181  0.3777  0.3014  0.0708
  926MOL0     C24897   2.363   7.123   6.114  1.3234 -0.8640  0.9832
  926MOL0     C24898   2.506   7.076   6.139 -0.1944 -0.1444 -0.7462
  926MOL0     O24899   2.594   7.175   6.082  0.0911  0.1859 -0.2743
  926MOL0     C24900   2.730   7.156   6.099  0.3186  0.5066 -0.0877
  926MOL0     C24901   2.779   7.052   6.174  0.3694  0.8350 -0.1252
  926MOL0     C24902   2.914   7.025   6.180  0.5488 -0.3473  0.6332
  926MOL0     C24903   2.938   6.903   6.263  0.0609 -1.0586  0.7115
  926MOL0     C24904   3.009   7.090   6.095 -0.1307 -0.3569  0.2945
  926MOL0     C24905   3.156   7.073   6.110 -0.3888  0.1858 -0.4095
  926MOL0     O24906   3.237   7.099   6.004 -0.2212  0.9469  0.3636
  926MOL0     C24907   3.366   7.050   6.004 -0.1190 -0.5769  0.8226
  926MOL0     C24908   3.412   6.929   6.063 -0.0285  0.9467 -0.1655
  926MOL0     C24909   3.548   6.890   6.036  0.1356  0.9479  0.7314
  926MOL0     C24910   3.629   6.967   5.950 -0.3074 -0.3672 -0.7807
  926MOL0     O24911   3.762   6.941   5.919  0.7139  0.2306 -0.1790
  926MOL0     C24912   3.848   6.873   6.005 -0.7440 -0.7687  0.0553
  926MOL0     C24913   3.990   6.870   5.953  0.3884  0.4869  0.1826
  926MOL0     C24914   4.028   6.789   5.819 -0.2124  0.4973 -0.6260
  926MOL0     C24915   4.182   6.814   5.808  0.7799 -0.0894 -0.3870
  926MOL0     C24916   4.247   6.753   5.677  0.0010  0.0032 -0.2603
  926MOL0     C24917   4.381   6.829   5.648 -0.0280  0.1056 -0.2607
  926MOL0     C24918   4.449   6.767   5.522  0.6260  0.0370  0.0582
  926MOL0     C24919   4.492   6.621   5.552  0.3238  0.1237  0.5460
  926MOL0    Cl24920   4.609   6.564   5.427  0.1475 -0.4983 -0.3549
  926MOL0     C24921   3.591   7.088   5.902  0.5763  0.5809 -0.2473
  926MOL0     C24922   3.456   7.125   5.925 -0.0754  0.3141  0.3703
  926MOL0     O24923   3.194   7.029   6.221 -0.3679 -0.2719  0.0697
  926MOL0     C24924   2.962   7.187   6.010  0.2809 -0.6507  0.4089
  926MOL0     C24925   2.826   7.224   6.018  0.0528 -0.1451  0.0457
  926MOL0     N24926   2.006   7.215   6.012  0.4842 -0.5830 -0.4261
  926MOL0     N24927   1.959   7.338   6.028 -1.2814  0.1316 -0.1613
  926MOL0     C24928   2.671   7.883   5.525  0.5037  0.0272  0.3460
  926MOL0     C24929   2.764   7.838   5.425  0.8732 -0.2823 -0.2526
  926MOL0     C24930   3.129   7.821   5.160 -0.9926 -0.4230  0.1618
  926MOL0     C24931   3.214   7.722   5.198  0.1515  1.3736 -0.3025
  926MOL0     C24932   3.318   7.670   5.119 -0.3370 -0.0051  0.3032
  926MOL0     C24933   3.348   7.725   4.992  1.7761 -0.1559  0.3746
  926MOL0     O24934   3.453   7.690   4.922 -0.4328  0.6778  0.1627
  926MOL0     C24935   3.535   7.585   4.974  0.5771  0.1696 -0.8545
  926MOL0     C24936   3.642   7.534   4.876 -0.1407  1.2448  0.2528
  926MOL0     C24937   3.645   7.594   4.740  0.0112  0.0057 -0.2907
  926MOL0     C24938   3.747   7.548   4.644 -0.3136 -0.3027  0.7929
  926MOL0     C24939   3.887   7.551   4.682 -0.4800 -0.4480 -0.1662
  926MOL0     C24940   4.002   7.539   4.719 -0.2525 -0.2273 -0.3111
  926MOL0     C24941   3.255   7.826   4.951 -0.0326 -0.4272  0.4125
  926MOL0     C24942   3.149   7.867   5.028 -0.4459 -0.0187  0.0743
  926MOL0     H24943   3.053   7.901   5.584  0.0937  0.1043  1.2837
  926MOL0     H24944   2.882   8.018   5.745  0.0410 -0.1820  0.8211
  926MOL0     H24945   2.482   8.094   5.790 -1.8249  0.2734  0.1863
  926MOL0     H24946   2.464   8.011   5.628  0.0388  1.6840 -1.0469
  926MOL0     H24947   2.475   7.790   5.757  0.7758 -0.1456  0.1183
  926MOL0     H24948   2.487   7.888   5.909 -1.0130 -0.7949  0.4779
  926MOL0     H24949   2.269   7.990   5.856  4.2208  1.9918  1.1914
  926MOL0     H24950   2.271   7.912   5.691  1.9979 -1.0641 -0.2066
  926MOL0     H24951   2.271   7.696   5.793  1.4066 -1.5157  1.9784
  926MOL0     H24952   2.279   7.754   5.956 -0.7251  1.4998 -0.1416
  926MOL0     H24953   2.045   7.870   5.941 -3.0191 -2.9819  2.0335
  926MOL0     H24954   2.024   7.786   5.791 -0.3213 -1.2327  0.1081
  926MOL0     H24955   1.919   7.662   5.934  0.2437  1.9708 -3.3627
  926MOL0     H24956   2.049   7.562   5.893  0.4022  0.9882 -1.7369
  926MOL0     H24957   2.174   7.618   6.101  0.2576  0.5123 -1.5110
  926MOL0     H24958   2.038   7.735   6.146 -0.3534 -1.2100  0.6219
  926MOL0     H24959   1.890   7.559   6.160  0.0961  0.8087  0.4983
  926MOL0     H24960   2.010   7.563   6.282 -0.7110  3.2911 -0.4553
  926MOL0     H24961   2.151   7.305   6.292 -1.1845 -2.3394  0.5185
  926MOL0     H24962   2.070   7.000   6.223 -1.0654  0.6747 -0.2649
  926MOL0     H24963   2.105   6.994   6.043 -1.2714  3.4046 -0.8233
  926MOL0     H24964   2.290   6.924   6.152 -0.6549  0.3207 -0.9121
  926MOL0     H24965   2.271   7.027   6.290  2.3837 -0.2091  0.0380
  926MOL0     H24966   2.355   7.226   6.147  1.7035 -1.1127  1.8736
  926MOL0     H24967   2.339   7.108   6.008  1.6893 -0.8203  0.8902
  926MOL0     H24968   2.525   6.975   6.103  0.0901  0.2155 -1.6287
  926MOL0     H24969   2.511   7.078   6.248  1.7911  0.6005 -0.7928
  926MOL0     H24970   2.713   6.998   6.242 -0.2249 -0.9584 -2.0309
  926MOL0     H24971   2.988   6.827   6.203 -0.6912 -1.5889  0.7362
  926MOL0     H24972   2.998   6.925   6.351  1.4713 -0.3938 -0.3758
  926MOL0     H24973   2.846   6.853   6.294 -0.6539  0.3896  1.0300
  926MOL0     H24974   3.346   6.861   6.116  1.6595 -0.0039  0.8000
  926MOL0     H24975   3.600   6.803   6.075  3.0644  1.6549 -1.2421
  926MOL0     H24976   3.842   6.928   6.100 -0.4647 -0.2817 -0.2014
  926MOL0     H24977   3.813   6.773   6.030 -0.1908 -0.2980  3.1702
  926MOL0     H24978   4.039   6.968   5.948  2.8777 -0.4352  3.1652
  926MOL0     H24979   4.049   6.814   6.026  3.0207  0.9940 -1.4150
  926MOL0     H24980   3.971   6.828   5.734  0.0815 -0.0217 -1.0658
  926MOL0     H24981   4.013   6.681   5.823 -0.6251  0.4182 -3.0064
  926MOL0     H24982   4.197   6.922   5.823 -1.0776 -0.1163  2.4449
  926MOL0     H24983   4.228   6.763   5.893 -1.7997  0.3753  1.3840
  926MOL0     H24984   4.180   6.773   5.593 -0.8877 -0.2644  0.3722
  926MOL0     H24985   4.259   6.644   5.674 -2.2526 -0.2791 -2.0521
  926MOL0     H24986   4.357   6.932   5.620 -1.3635 -0.9477 -3.5614
  926MOL0     H24987   4.447   6.833   5.735  0.2707 -1.2674 -0.3952
  926MOL0     H24988   4.532   6.826   5.483 -0.2961 -0.4760 -2.9711
  926MOL0     H24989   4.371   6.761   5.445  0.9897  1.3880 -0.4243
  926MOL0     H24990   4.404   6.557   5.552 -0.4701  1.1971  0.6884
  926MOL0     H24991   4.540   6.626   5.650 -2.0299  0.9338  1.7134
  926MOL0     H24992   3.662   7.146   5.844 -1.1102  1.9859 -1.0080
  926MOL0     H24993   3.414   7.213   5.877 -0.3096 -0.3665 -0.6987
  926MOL0     H24994   3.023   7.245   5.943 -0.5650  1.0121  1.0036
  926MOL0     H24995   2.784   7.296   5.948  0.6973  0.1391 -0.0504
  926MOL0     H24996   2.566   7.871   5.499  0.4227  0.2925  0.5461
  926MOL0     H24997   2.731   7.782   5.338  1.1503  2.5680 -2.3548
  926MOL0     H24998   3.214   7.672   5.295 -2.4322  0.0594 -0.9025
  926MOL0     H24999   3.380   7.594   5.166 -0.7980 -0.4523  0.1877
  926MOL0     H25000   3.585   7.635   5.057 -0.8993  1.0367 -0.4496
  926MOL0     H25001   3.481   7.500   5.017 -0.1800  1.3087  0.5342
  926MOL0     H25002   3.627   7.426   4.865 -2.5810  1.5738 -0.2288
  926MOL0     H25003   3.743   7.539   4.917  1.1801 -0.2375 -2.5219
  926MOL0     H25004   3.671   7.693   4.777  0.4303 -0.7634  1.5764
  926MOL0     H25005   3.547   7.592   4.691  0.5435 -0.7147 -1.3668
  926MOL0     H25006   3.736   7.626   4.567  3.4599  0.9158  1.3004
  926MOL0     H25007   3.716   7.451   4.605  0.1897 -0.0102 -0.3816
  926MOL0     H25008   4.106   7.545   4.744  0.3519  0.0978 -2.7099
  926MOL0     H25009   3.274   7.871   4.853  1.2315  0.1857  0.9128
  926MOL0     H25010   3.096   7.955   4.994 -0.0742 -0.0711 -0.6492
  927MOL0     O25011  10.023  10.699   4.306 -0.5186 -0.1177 -0.0036
  927MOL0     C25012  10.040  10.764   4.205 -1.1306 -0.5535 -0.2556
  927MOL0     O25013   9.938  10.821   4.128 -0.6698 -0.1421  0.1112
  927MOL0     C25014   9.806  10.809   4.165  0.5156 -1.1112 -0.1021
  927MOL0     C25015   9.731  10.694   4.137  0.7255  0.1196 -0.5857
  927MOL0     C25016   9.601  10.696   4.173  0.1914 -0.6250 -0.0029
  927MOL0     C25017   9.538  10.803   4.235 -0.3408  0.2677 -0.1040
  927MOL0     O25018   9.407  10.809   4.269  0.0746  0.0265 -0.5125
  927MOL0     C25019   9.322  10.698   4.226  0.0865 -0.5648 -0.2621
  927MOL0     C25020   9.167  10.717   4.256 -0.1146  0.5168  0.9306
  927MOL0     C25021   9.075  10.593   4.218 -1.0686 -0.0043 -0.3304
  927MOL0     C25022   8.942  10.623   4.274  0.4792  0.6631  0.8680
  927MOL0     C25023   8.836  10.529   4.218 -0.0205 -0.7434 -0.0645
  927MOL0     C25024   8.705  10.556   4.282  0.5358 -1.0830  0.5522
  927MOL0     C25025   8.599  10.476   4.209  0.0716  0.1492  0.2841
  927MOL0     C25026   8.463  10.518   4.260  0.9950 -0.2647 -0.0461
  927MOL0     N25027   8.346  10.463   4.180 -0.3480 -0.0648  0.5619
  927MOL0     C25028   8.297  10.529   4.066 -0.3978 -1.1154  0.5914
  927MOL0     C25029   8.220  10.441   4.003 -0.2149  0.7455  0.0487
  927MOL0     C25030   8.133  10.451   3.882  0.7377 -0.5332 -0.0459
  927MOL0     C25031   7.994  10.508   3.913 -0.5333 -0.0415 -0.5196
  927MOL0     C25032   7.914  10.544   3.785 -0.0856  0.1957  0.2580
  927MOL0     C25033   7.769  10.576   3.813  0.1522  0.3293  0.0472
  927MOL0     O25034   7.689  10.615   3.697  0.1577 -0.0480 -0.3265
  927MOL0     C25035   7.556  10.609   3.701  0.1409  0.0955 -0.0036
  927MOL0     C25036   7.486  10.609   3.827  0.2287  0.4432 -0.1502
  927MOL0     C25037   7.347  10.587   3.839  0.1382  0.1340  0.4860
  927MOL0     C25038   7.299  10.579   3.984  0.9157  0.1374  0.3055
  927MOL0     C25039   7.270  10.587   3.722  0.0266  0.3321  0.7332
  927MOL0     C25040   7.124  10.587   3.724  0.7425 -0.1294  0.4143
  927MOL0     O25041   7.065  10.619   3.600  0.2424 -0.3217  0.2897
  927MOL0     C25042   6.924  10.623   3.600  0.0207  0.2907  0.6616
  927MOL0     C25043   6.855  10.540   3.506  0.0899 -0.4220  0.2233
  927MOL0     C25044   6.710  10.556   3.495 -0.6617  0.6089 -0.1162
  927MOL0     C25045   6.643  10.657   3.570  0.3683  0.1611  0.6040
  927MOL0     O25046   6.508  10.688   3.539  0.2002  0.9604  0.3290
  927MOL0     C25047   6.501  10.773   3.421  0.6288  0.2896 -0.5519
  927MOL0     C25048   6.369  10.765   3.353  1.0944  0.2804  0.8660
  927MOL0     C25049   6.258  10.806   3.447 -0.6760 -0.0363 -0.2833
  927MOL0     C25050   6.118  10.801   3.380  0.6038 -0.7436 -0.6183
  927MOL0     C25051   6.004  10.829   3.479  0.1760  0.1281 -0.1114
  927MOL0     C25052   5.877  10.865   3.387 -0.3963  0.8445  0.0551
  927MOL0     C25053   5.748  10.880   3.469  0.3052 -0.4473  0.0464
  927MOL0     C25054   5.624  10.907   3.387 -0.0510  0.5152  0.0231
  927MOL0    Cl25055   5.478  10.881   3.492  0.2274 -0.1380 -0.2974
  927MOL0     C25056   6.705  10.733   3.667 -0.2061 -0.4001 -0.0777
  927MOL0     C25057   6.844  10.717   3.680  0.5955 -0.0330 -0.3766
  927MOL0     O25058   7.063  10.571   3.829  0.4249 -0.0843  0.1942
  927MOL0     C25059   7.337  10.610   3.598  0.4853 -0.4957  0.3408
  927MOL0     C25060   7.478  10.616   3.589  0.2246 -0.5574  0.0854
  927MOL0     N25061   8.229  10.317   4.072  0.6128 -0.3073 -0.0700
  927MOL0     N25062   8.316  10.332   4.167  0.7743  0.0596  0.2307
  927MOL0     C25063   9.614  10.915   4.266  0.0053  0.1060  0.1039
  927MOL0     C25064   9.746  10.922   4.221  1.0224 -0.7082 -0.8896
  927MOL0     C25065  10.185  10.785   4.167  0.0121 -0.8442 -0.5529
  927MOL0     C25066  10.285  10.747   4.249  0.2839 -0.1892  0.5029
  927MOL0     C25067  10.423  10.773   4.230 -0.2740 -0.1907 -0.5533
  927MOL0     C25068  10.462  10.850   4.124  0.2408  1.0601  0.1586
  927MOL0     O25069  10.598  10.882   4.109 -0.3574  0.4167  0.5520
  927MOL0     C25070  10.652  10.929   3.987 -1.0552 -0.1846 -1.6950
  927MOL0     C25071  10.804  10.957   3.987  0.3774  0.4625 -0.0751
  927MOL0     C25072  10.887  10.836   4.027 -0.0714  0.5626  0.4748
  927MOL0     C25073  11.036  10.847   3.993 -0.2621 -0.3542  0.5978
  927MOL0     C25074  11.092  10.971   4.042 -0.1266 -0.1385 -0.1193
  927MOL0     C25075  11.147  11.066   4.092 -0.8693  0.8529  0.6847
  927MOL0     C25076  10.362  10.893   4.036 -0.7585  0.1015 -0.1612
  927MOL0     C25077  10.225  10.870   4.061  0.6316  0.5170 -0.6126
  927MOL0     H25078   9.780  10.605   4.099 -0.4973  0.2127 -2.4649
  927MOL0     H25079   9.543  10.612   4.138  2.1667 -1.3286 -1.8222
  927MOL0     H25080   9.330  10.679   4.119 -0.0797  2.4627 -0.9040
  927MOL0     H25081   9.353  10.606   4.277 -0.4956  0.3089  1.8160
  927MOL0     H25082   9.150  10.736   4.362 -3.6631 -0.5934  0.6865
  927MOL0     H25083   9.133  10.807   4.203 -1.3626 -1.3093 -1.5605
  927MOL0     H25084   9.070  10.575   4.110 -3.8117  0.0482 -0.2872
  927MOL0     H25085   9.106  10.498   4.262 -3.5399 -0.3742  0.8132
  927MOL0     H25086   8.945  10.613   4.383 -0.1812 -1.6464  0.7264
  927MOL0     H25087   8.904  10.723   4.254 -0.5013  0.5673  2.1066
  927MOL0     H25088   8.837  10.542   4.109  0.1903  4.8462  0.3279
  927MOL0     H25089   8.872  10.429   4.245  0.8838 -0.5559 -0.5245
  927MOL0     H25090   8.720  10.530   4.388  1.3658 -2.8007  0.0465
  927MOL0     H25091   8.672  10.660   4.270  0.7532 -1.0860 -0.0560
  927MOL0     H25092   8.601  10.490   4.100  1.5633 -0.6651  0.1641
  927MOL0     H25093   8.624  10.371   4.227 -1.4320 -0.1931  0.4343
  927MOL0     H25094   8.450  10.627   4.264  2.7557 -0.0461  1.0532
  927MOL0     H25095   8.440  10.478   4.359 -0.8901 -3.5531 -1.6571
  927MOL0     H25096   8.308  10.636   4.051 -0.8503 -0.6514  3.0742
  927MOL0     H25097   8.181  10.525   3.817  2.5888  0.7218  2.6017
  927MOL0     H25098   8.117  10.354   3.834 -1.8577  0.2031 -0.8561
  927MOL0     H25099   8.006  10.599   3.973  1.3789 -1.9706  2.2512
  927MOL0     H25100   7.936  10.450   3.985 -0.4871  2.3217  1.5828
  927MOL0     H25101   7.915  10.470   3.704  2.0228  1.2334 -0.7524
  927MOL0     H25102   7.962  10.627   3.734  1.2371 -1.3045 -1.0521
  927MOL0     H25103   7.763  10.659   3.884  0.8913  2.4402 -2.2090
  927MOL0     H25104   7.715  10.492   3.858 -0.3057  0.0051 -1.0761
  927MOL0     H25105   7.543  10.631   3.916 -2.8562  1.8320  1.6460
  927MOL0     H25106   7.264  10.476   3.995 -0.0621  0.3638 -0.4813
  927MOL0     H25107   7.375  10.613   4.055 -0.6477  3.3407  0.6516
  927MOL0     H25108   7.213  10.643   4.007  0.5069 -0.3152  0.0577
  927MOL0     H25109   6.905  10.469   3.441 -1.6487  0.3218 -2.0459
  927MOL0     H25110   6.661  10.489   3.425  1.1129 -1.3262  0.3847
  927MOL0     H25111   6.518  10.879   3.444  0.1131  0.6784 -1.8324
  927MOL0     H25112   6.583  10.754   3.350  1.6291  2.2147  0.0185
  927MOL0     H25113   6.370  10.834   3.268  3.3210  0.9440  1.3716
  927MOL0     H25114   6.338  10.668   3.314 -2.0496  2.1559 -1.8058
  927MOL0     H25115   6.289  10.902   3.488  2.5149 -0.3527 -1.6792
  927MOL0     H25116   6.252  10.734   3.529 -3.5102  0.5209  0.0810
  927MOL0     H25117   6.120  10.865   3.292 -0.9435  2.5945  1.5731
  927MOL0     H25118   6.100  10.697   3.349  0.1186 -1.6203  2.2962
  927MOL0     H25119   6.035  10.914   3.540 -0.2507 -0.6003  1.1451
  927MOL0     H25120   5.977  10.744   3.542  1.5904  1.0617  1.8395
  927MOL0     H25121   5.912  10.946   3.322  3.4959 -1.4188 -1.0287
  927MOL0     H25122   5.860  10.777   3.325 -2.1929 -0.4097  2.1868
  927MOL0     H25123   5.771  10.963   3.536 -0.4729  0.3916 -0.6997
  927MOL0     H25124   5.732  10.789   3.527  0.6211  0.5180  1.7045
  927MOL0     H25125   5.632  10.850   3.294  2.3214 -1.4093  1.3110
  927MOL0     H25126   5.621  11.009   3.346  0.5663  0.8398  0.7692
  927MOL0     H25127   6.644  10.799   3.727 -0.3047 -2.3912  2.1768
  927MOL0     H25128   6.901  10.771   3.755  0.1794 -0.4228  0.2301
  927MOL0     H25129   7.278  10.635   3.510 -2.5744  0.3342  2.4800
  927MOL0     H25130   7.523  10.639   3.493  0.5648 -1.6226 -0.0310
  927MOL0     H25131   9.570  11.003   4.311 -0.4930 -0.4528  0.7387
  927MOL0     H25132   9.803  11.012   4.243 -1.1141 -0.1183  3.0713
  927MOL0     H25133  10.263  10.688   4.338  0.9527  0.9819  1.4751
  927MOL0     H25134  10.494  10.728   4.299  0.1181  2.8195  1.1825
  927MOL0     H25135  10.635  10.848   3.915  1.3268 -2.4503  0.0913
  927MOL0     H25136  10.602  11.023   3.959  1.8590  2.1927  0.4143
  927MOL0     H25137  10.817  11.037   4.060  1.2661  0.0981  0.1795
  927MOL0     H25138  10.834  10.999   3.891 -1.0173 -0.0133 -0.7368
  927MOL0     H25139  10.845  10.747   3.981  0.1567  1.2799 -1.1774
  927MOL0     H25140  10.886  10.818   4.135 -0.0099 -0.0863  0.3701
  927MOL0     H25141  11.044  10.840   3.884 -3.3360 -1.7571  0.3525
  927MOL0     H25142  11.095  10.764   4.034  0.1847 -0.4215 -0.1609
  927MOL0     H25143  11.195  11.156   4.125  0.7503  0.8109 -1.3448
  927MOL0     H25144  10.380  10.957   3.951  2.7406  1.0683  1.1302
  927MOL0     H25145  10.141  10.906   4.003 -0.9829 -0.1124  1.2259
  928MOL0     O25146   0.387   1.761   2.822 -0.2978 -0.0594 -0.0725
  928MOL0     C25147   0.363   1.824   2.716 -1.0618  0.3205 -0.8930
  928MOL0     O25148   0.237   1.848   2.668  0.2360 -0.2849 -0.1191
  928MOL0     C25149   0.119   1.807   2.736  0.4181 -1.1263 -0.4773
  928MOL0     C25150   0.010   1.897   2.746 -0.1659 -0.1632  0.4270
  928MOL0     C25151  -0.110   1.859   2.792 -0.2231  0.1021 -0.1374
  928MOL0     C25152  -0.142   1.724   2.822  0.4360 -0.8114 -1.0281
  928MOL0     O25153  -0.272   1.712   2.854 -0.2230 -0.0966 -0.6208
  928MOL0     C25154  -0.311   1.609   2.939  0.6368  0.1189 -0.8441
  928MOL0     C25155  -0.448   1.627   2.997 -0.6256 -0.2031 -0.0509
  928MOL0     C25156  -0.551   1.646   2.883  0.2451 -0.1088  0.0611
  928MOL0     C25157  -0.692   1.647   2.946  0.9461  0.1511 -0.1618
  928MOL0     C25158  -0.807   1.671   2.847 -0.2488  0.0177 -0.1248
  928MOL0     C25159  -0.930   1.642   2.924  0.3947 -0.2271  0.4755
  928MOL0     C25160  -1.045   1.726   2.863 -0.1206 -0.4862 -0.0882
  928MOL0     C25161  -1.172   1.686   2.945 -0.6364 -0.4150 -0.7198
  928MOL0     N25162  -1.167   1.748   3.078 -0.2132  0.2699  0.5017
  928MOL0     C25163  -1.247   1.848   3.109 -0.8997  1.2552  0.2051
  928MOL0     C25164  -1.274   1.846   3.239  0.5676 -0.2630 -0.1626
  928MOL0     C25165  -1.377   1.923   3.318 -0.2144 -0.4968  0.4606
  928MOL0     C25166  -1.329   2.069   3.341  0.6631  0.1063 -0.8359
  928MOL0     C25167  -1.245   2.080   3.475  0.3131  0.3616 -0.3451
  928MOL0     C25168  -1.219   2.224   3.523  0.0298 -1.1176  0.0052
  928MOL0     O25169  -1.134   2.275   3.420  0.3080 -0.1237  0.1133
  928MOL0     C25170  -0.997   2.269   3.435 -0.7652  0.2273 -0.4291
  928MOL0     C25171  -0.934   2.208   3.540  0.7237  0.4056  0.1891
  928MOL0     C25172  -0.795   2.216   3.566 -0.7555  0.3884  0.1724
  928MOL0     C25173  -0.734   2.133   3.679 -0.8979  0.0936  0.0887
  928MOL0     C25174  -0.719   2.303   3.481  0.0770  0.2815 -0.5433
  928MOL0     C25175  -0.571   2.314   3.489 -0.6250 -0.3273 -0.6567
  928MOL0     O25176  -0.515   2.395   3.391 -0.0934  0.1568  0.3071
  928MOL0     C25177  -0.378   2.420   3.385  0.2283  1.1767 -0.3526
  928MOL0     C25178  -0.300   2.437   3.499 -0.2060 -0.6102 -0.5506
  928MOL0     C25179  -0.162   2.474   3.499  0.0222  0.5453 -0.2378
  928MOL0     C25180  -0.097   2.482   3.368 -0.3749 -0.7019 -0.5519
  928MOL0     O25181   0.037   2.512   3.374  0.0726  0.6600  0.5918
  928MOL0     C25182   0.120   2.491   3.264  0.4837 -0.0571 -0.6167
  928MOL0     C25183   0.265   2.503   3.319 -0.2271  0.1078  0.5448
  928MOL0     C25184   0.359   2.492   3.202 -0.1448  0.5335 -0.8076
  928MOL0     C25185   0.509   2.497   3.249 -0.3179 -0.2524  0.0409
  928MOL0     C25186   0.594   2.480   3.116  0.6150 -0.1117 -0.0238
  928MOL0     C25187   0.617   2.329   3.087 -0.4245  0.1218  0.4518
  928MOL0     C25188   0.737   2.323   2.996 -0.1594 -0.8198 -0.4133
  928MOL0     C25189   0.746   2.186   2.943  0.0580  0.7389  0.5026
  928MOL0    Cl25190   0.895   2.168   2.856 -0.2993 -0.0934  0.3228
  928MOL0     C25191  -0.166   2.448   3.258  0.2284  0.0287 -0.8664
  928MOL0     C25192  -0.304   2.427   3.270 -0.5737 -0.1966 -0.1573
  928MOL0     O25193  -0.507   2.257   3.576  0.2504 -0.4980 -0.4960
  928MOL0     C25194  -0.785   2.374   3.382 -0.2815 -0.3185  0.5290
  928MOL0     C25195  -0.918   2.354   3.351  0.9805 -0.9225 -0.8467
  928MOL0     N25196  -1.215   1.732   3.294 -0.1056 -0.4235  0.3133
  928MOL0     N25197  -1.148   1.685   3.192 -0.6866 -0.3620 -0.3625
  928MOL0     C25198  -0.043   1.625   2.816 -0.2198  0.4859  0.0729
  928MOL0     C25199   0.084   1.674   2.781 -0.6943 -0.1845  0.3385
  928MOL0     C25200   0.487   1.865   2.639  0.3450  0.1964  0.6783
  928MOL0     C25201   0.608   1.873   2.697 -0.4978  0.2620  0.1312
  928MOL0     C25202   0.722   1.907   2.619  0.5410 -0.2954  0.6349
  928MOL0     C25203   0.704   1.951   2.485  0.3249  0.0433  0.3498
  928MOL0     O25204   0.808   2.001   2.410 -0.4974 -0.1471  0.0401
  928MOL0     C25205   0.792   2.041   2.270 -0.5620 -0.1780  0.1888
  928MOL0     C25206   0.923   2.081   2.212 -0.4254  0.2126  0.2692
  928MOL0     C25207   1.034   1.978   2.225 -0.9809  0.7766  0.8627
  928MOL0     C25208   1.138   1.983   2.103  0.6361 -0.4582  0.5794
  928MOL0     C25209   1.237   2.098   2.113 -0.1220 -0.0160 -0.4082
  928MOL0     C25210   1.310   2.193   2.122 -0.3450  0.6181  0.1881
  928MOL0     C25211   0.573   1.966   2.434 -0.3630  0.4049  0.2688
  928MOL0     C25212   0.464   1.921   2.510  0.3613  1.1267  0.5746
  928MOL0     H25213   0.019   2.002   2.719  1.0482 -0.4284 -0.2376
  928MOL0     H25214  -0.182   1.939   2.803 -0.4855 -0.0828 -0.4477
  928MOL0     H25215  -0.309   1.520   2.875  2.5592 -2.4256  2.4252
  928MOL0     H25216  -0.240   1.610   3.022 -1.9760  2.4335  1.5703
  928MOL0     H25217  -0.467   1.541   3.061 -1.7699 -2.2139 -2.8742
  928MOL0     H25218  -0.446   1.722   3.051  0.3316  0.2046 -0.7773
  928MOL0     H25219  -0.533   1.738   2.827 -1.0320  0.3866  0.4327
  928MOL0     H25220  -0.548   1.561   2.814 -2.8934  0.6470 -1.1566
  928MOL0     H25221  -0.702   1.546   2.985  0.2029 -0.1336 -1.0642
  928MOL0     H25222  -0.700   1.720   3.028  0.8175  0.4846 -0.4691
  928MOL0     H25223  -0.801   1.775   2.815  1.1322  0.3860  1.2092
  928MOL0     H25224  -0.792   1.609   2.758  1.0405 -0.1906  0.2125
  928MOL0     H25225  -0.961   1.539   2.938 -0.5939  0.1447  1.1063
  928MOL0     H25226  -0.912   1.693   3.019  4.0716  1.1056 -0.7239
  928MOL0     H25227  -1.023   1.833   2.860 -2.6500  0.1230  0.8908
  928MOL0     H25228  -1.048   1.697   2.758  0.8911  0.2568 -0.3405
  928MOL0     H25229  -1.180   1.577   2.957  3.0911 -0.7090  0.4792
  928MOL0     H25230  -1.255   1.728   2.888 -0.8371  0.1178 -0.0482
  928MOL0     H25231  -1.290   1.906   3.029 -0.5570  2.7785  1.0822
  928MOL0     H25232  -1.463   1.930   3.252  0.0318 -0.6594  0.1153
  928MOL0     H25233  -1.402   1.876   3.413 -0.1870 -2.0865 -0.2824
  928MOL0     H25234  -1.416   2.135   3.333 -1.0824 -1.3997  2.9634
  928MOL0     H25235  -1.260   2.109   3.267 -0.2704  2.3653 -0.5629
  928MOL0     H25236  -1.161   2.011   3.466 -0.1634 -0.2847  0.0892
  928MOL0     H25237  -1.305   2.038   3.557  3.6340 -2.4451  0.8636
  928MOL0     H25238  -1.180   2.234   3.625 -2.2004  0.2932  0.7896
  928MOL0     H25239  -1.312   2.281   3.531 -1.1039 -3.0900  2.0495
  928MOL0     H25240  -0.985   2.135   3.603  0.0342 -0.9044 -1.8048
  928MOL0     H25241  -0.667   2.184   3.749 -0.4301 -2.9954  2.0857
  928MOL0     H25242  -0.816   2.077   3.726 -2.5059 -0.3590 -3.0001
  928MOL0     H25243  -0.681   2.045   3.642 -0.3746 -0.1533  1.3818
  928MOL0     H25244  -0.345   2.433   3.598  1.8629 -1.7445  0.4154
  928MOL0     H25245  -0.115   2.513   3.589  0.2638  2.2654 -1.0662
  928MOL0     H25246   0.113   2.388   3.229 -1.0274  0.1765 -1.0895
  928MOL0     H25247   0.108   2.566   3.185  1.3138 -0.3578 -1.0323
  928MOL0     H25248   0.276   2.604   3.360  3.5500  0.6203 -1.2963
  928MOL0     H25249   0.291   2.435   3.400 -0.3018  1.5294  1.8209
  928MOL0     H25250   0.345   2.576   3.133  1.3416 -0.9400 -3.0263
  928MOL0     H25251   0.352   2.396   3.150 -0.0981  0.2674 -0.3254
  928MOL0     H25252   0.536   2.597   3.286  0.4514 -0.0040 -1.1132
  928MOL0     H25253   0.528   2.430   3.333  2.9028  1.9771  1.3019
  928MOL0     H25254   0.691   2.524   3.143  0.3056  0.6267 -0.1022
  928MOL0     H25255   0.556   2.532   3.028  2.1820 -1.4407 -1.5493
  928MOL0     H25256   0.632   2.259   3.171 -0.4489 -0.6489 -0.1745
  928MOL0     H25257   0.532   2.280   3.038  0.1543 -1.7714  1.2366
  928MOL0     H25258   0.832   2.324   3.050  0.9102 -1.0550 -2.2038
  928MOL0     H25259   0.735   2.398   2.917  0.6243  1.0114  1.2353
  928MOL0     H25260   0.661   2.165   2.877 -0.2220 -0.4273  1.2178
  928MOL0     H25261   0.752   2.108   3.019  1.4340 -0.0028 -0.3314
  928MOL0     H25262  -0.115   2.466   3.163 -0.7557  0.9880 -1.2320
  928MOL0     H25263  -0.358   2.404   3.179 -0.0917  1.5815 -0.9336
  928MOL0     H25264  -0.729   2.434   3.311 -1.4240 -0.2777 -0.3684
  928MOL0     H25265  -0.970   2.401   3.269  0.9010  2.0262  0.7647
  928MOL0     H25266  -0.075   1.526   2.848  0.7098  0.1891  0.1088
  928MOL0     H25267   0.155   1.592   2.787 -1.3970 -0.7988  0.4262
  928MOL0     H25268   0.626   1.848   2.801  1.0690 -1.7688 -0.5517
  928MOL0     H25269   0.824   1.912   2.654  0.5101  0.4266  0.6213
  928MOL0     H25270   0.750   1.958   2.212 -1.8143  0.8632 -0.4512
  928MOL0     H25271   0.719   2.122   2.266  1.5517  1.7780 -1.1100
  928MOL0     H25272   0.952   2.178   2.254 -2.1082  0.8751 -0.0341
  928MOL0     H25273   0.910   2.099   2.105 -1.8193  1.1419  0.5743
  928MOL0     H25274   0.988   1.879   2.216  1.8280 -0.5263 -0.5968
  928MOL0     H25275   1.082   1.981   2.323 -0.1137 -0.3142  0.4970
  928MOL0     H25276   1.084   1.991   2.008 -0.8329 -0.3988  1.3861
  928MOL0     H25277   1.187   1.886   2.105 -0.7040 -1.2558 -1.8563
  928MOL0     H25278   1.388   2.265   2.135  0.2941  0.0803 -0.5989
  928MOL0     H25279   0.553   2.014   2.339  2.0231  0.7743 -0.1174
  928MOL0     H25280   0.364   1.919   2.467  0.8187 -0.5342 -0.5113
  929MOL0     O25281   6.747   8.402   9.244 -0.2791  0.1256 -0.1974
  929MOL0     C25282   6.717   8.281   9.239  0.2136 -0.1580  0.4996
  929MOL0     O25283   6.593   8.230   9.220  0.1570 -0.3226  0.1496
  929MOL0     C25284   6.482   8.316   9.213  0.6670 -0.2328  0.0324
  929MOL0     C25285   6.387   8.304   9.312  0.1340 -0.3925  0.0426
  929MOL0     C25286   6.275   8.390   9.307 -0.6343  0.8459 -0.0320
  929MOL0     C25287   6.260   8.489   9.212 -0.4266  0.1027  0.9620
  929MOL0     O25288   6.154   8.584   9.215 -0.0528 -0.8792 -0.6483
  929MOL0     C25289   6.096   8.616   9.091  0.1018 -0.3716 -0.4095
  929MOL0     C25290   6.030   8.497   9.011 -0.0480 -0.2853 -0.9862
  929MOL0     C25291   5.983   8.553   8.870  0.2986  0.4991  0.0075
  929MOL0     C25292   6.098   8.528   8.769 -0.0138 -0.4695 -0.0147
  929MOL0     C25293   6.077   8.629   8.652 -0.0751  0.1827  0.9133
  929MOL0     C25294   6.188   8.600   8.541  0.8488 -0.6958  0.0061
  929MOL0     C25295   6.183   8.691   8.417 -0.1406 -0.4036 -0.0951
  929MOL0     C25296   6.322   8.693   8.364  0.2377  0.2593  0.7276
  929MOL0     N25297   6.328   8.744   8.224 -0.4338  0.1248 -1.2382
  929MOL0     C25298   6.297   8.869   8.194 -0.1160 -0.2069  0.7864
  929MOL0     C25299   6.291   8.866   8.060  0.2366 -0.0806 -0.5796
  929MOL0     C25300   6.257   8.980   7.968  0.3414  0.0690  0.0420
  929MOL0     C25301   6.108   8.977   7.944  0.0377 -0.4514  0.3439
  929MOL0     C25302   6.032   9.051   8.057  0.0457 -0.5906  0.1824
  929MOL0     C25303   5.888   9.062   8.029  0.4344  0.1405  0.5198
  929MOL0     O25304   5.816   9.143   8.127  0.0023  0.2767  0.1612
  929MOL0     C25305   5.677   9.142   8.124 -0.1700 -0.1183  0.5096
  929MOL0     C25306   5.613   9.232   8.208  0.3635  0.5379  0.0914
  929MOL0     C25307   5.469   9.249   8.197 -0.0423  0.1864 -0.5851
  929MOL0     C25308   5.407   9.358   8.294  0.0957  0.6748 -0.5209
  929MOL0     C25309   5.388   9.172   8.108 -0.1401  1.2097  0.3141
  929MOL0     C25310   5.233   9.163   8.097 -0.0554  0.0701  0.5635
  929MOL0     O25311   5.174   9.101   7.987  0.2463 -0.5912 -0.9273
  929MOL0     C25312   5.038   9.071   7.997 -0.1898  0.4392  0.2895
  929MOL0     C25313   4.977   8.999   8.095 -0.4561  0.4069  0.4682
  929MOL0     C25314   4.840   8.972   8.082 -0.3410 -0.0830  0.2077
  929MOL0     C25315   4.768   9.006   7.967  0.0288 -0.2669  0.1213
  929MOL0     O25316   4.635   8.957   7.958 -0.2199  0.2919 -0.1750
  929MOL0     C25317   4.552   9.020   7.857 -0.5660 -0.0109 -0.6379
  929MOL0     C25318   4.404   8.978   7.897 -1.3942 -0.0166  0.1394
  929MOL0     C25319   4.308   9.052   7.806 -0.0164  1.4177  0.4617
  929MOL0     C25320   4.166   9.042   7.852  0.2037  0.8340 -0.6936
  929MOL0     C25321   4.066   9.093   7.745  0.4521  0.1261  0.2355
  929MOL0     C25322   3.923   9.108   7.795 -0.2039  0.3304 -0.3390
  929MOL0     C25323   3.902   9.231   7.882 -0.8018 -0.3156 -0.3526
  929MOL0     C25324   3.755   9.249   7.937  0.4431  0.2512 -0.0833
  929MOL0    Cl25325   3.727   9.099   8.040 -0.1657  0.0959  0.2147
  929MOL0     C25326   4.831   9.080   7.869  0.8868  0.2939  0.4719
  929MOL0     C25327   4.965   9.111   7.880  0.6903 -0.6727 -0.1762
  929MOL0     O25328   5.173   9.205   8.199  0.0938 -0.9690  0.2316
  929MOL0     C25329   5.466   9.088   8.021 -0.0577  0.4622  0.6885
  929MOL0     C25330   5.602   9.082   8.019  0.3985  0.2502 -0.1670
  929MOL0     N25331   6.314   8.734   8.017 -0.7494 -0.2880 -0.5957
  929MOL0     N25332   6.340   8.658   8.122 -0.2967  0.5613  0.6529
  929MOL0     C25333   6.359   8.492   9.104  0.6261  0.0935 -0.4700
  929MOL0     C25334   6.471   8.412   9.110  0.3572  0.0080  0.5166
  929MOL0     C25335   6.828   8.189   9.257 -0.1826  0.0110  0.3925
  929MOL0     C25336   6.798   8.049   9.264 -0.6086 -0.4693  0.5539
  929MOL0     C25337   6.898   7.952   9.271  1.2990  0.5760  0.1913
  929MOL0     C25338   7.025   7.986   9.281 -0.3567 -0.0361  0.3353
  929MOL0     O25339   7.113   7.881   9.294 -0.0381 -0.3352  0.0088
  929MOL0     C25340   7.246   7.899   9.350  0.6259 -0.8441 -0.8258
  929MOL0     C25341   7.318   7.767   9.336  0.1344 -0.0472 -0.9159
  929MOL0     C25342   7.308   7.691   9.198  0.0124  0.6839 -0.2178
  929MOL0     C25343   7.336   7.542   9.208  0.3977  0.9192  0.3299
  929MOL0     C25344   7.235   7.464   9.285 -0.8222  0.0039 -0.1701
  929MOL0     C25345   7.148   7.411   9.345  0.4589  0.2547  0.9103
  929MOL0     C25346   7.062   8.124   9.266  0.0294 -0.4477 -0.1740
  929MOL0     C25347   6.966   8.225   9.257  0.3197 -0.5637  0.1388
  929MOL0     H25348   6.391   8.225   9.387 -1.0464 -0.6725 -0.1607
  929MOL0     H25349   6.196   8.388   9.382 -2.9639  1.9540 -2.2851
  929MOL0     H25350   6.011   8.684   9.097 -1.8677 -2.6323 -1.3508
  929MOL0     H25351   6.175   8.662   9.031  1.7544 -2.1592  0.2599
  929MOL0     H25352   6.098   8.411   9.004  0.3386 -0.0613 -0.1352
  929MOL0     H25353   5.947   8.455   9.069  2.1639 -3.5898  0.1064
  929MOL0     H25354   5.886   8.518   8.832  0.7010  0.1617 -0.7329
  929MOL0     H25355   5.967   8.660   8.886  1.9829  0.4807  2.2986
  929MOL0     H25356   6.201   8.540   8.804  0.5673 -1.9624 -1.0849
  929MOL0     H25357   6.094   8.427   8.726  2.5236  0.0647 -1.7152
  929MOL0     H25358   5.979   8.632   8.605  0.5484  2.7196 -0.4401
  929MOL0     H25359   6.080   8.734   8.684 -3.0411  0.8233 -0.6253
  929MOL0     H25360   6.281   8.618   8.595  0.6111  1.6555 -0.2835
  929MOL0     H25361   6.183   8.493   8.518  0.8241 -0.9880  1.2973
  929MOL0     H25362   6.114   8.658   8.339  2.6450 -0.9862 -2.4783
  929MOL0     H25363   6.163   8.793   8.451  0.8434  0.0055 -0.7304
  929MOL0     H25364   6.369   8.594   8.371  1.2400  0.6924  0.3578
  929MOL0     H25365   6.381   8.756   8.431  0.7428 -0.8043  1.3140
  929MOL0     H25366   6.281   8.961   8.249  1.0745  1.0702 -0.8803
  929MOL0     H25367   6.272   9.078   8.013  2.6708 -0.2506  0.0573
  929MOL0     H25368   6.309   8.965   7.872  1.5384 -1.3647  0.8801
  929MOL0     H25369   6.070   8.875   7.935 -0.2129 -0.3797  0.5677
  929MOL0     H25370   6.082   9.037   7.856 -0.9076 -0.1830  0.7885
  929MOL0     H25371   6.069   9.153   8.072 -1.4061 -0.1475  0.9297
  929MOL0     H25372   6.041   9.000   8.154  2.9616  1.2694  1.0174
  929MOL0     H25373   5.857   8.957   8.031  1.8409 -0.3122 -0.4430
  929MOL0     H25374   5.872   9.096   7.927 -1.3598 -2.1689 -0.0692
  929MOL0     H25375   5.680   9.283   8.276  3.8907 -0.7228 -2.1493
  929MOL0     H25376   5.481   9.413   8.353 -0.1880  1.3394 -0.7727
  929MOL0     H25377   5.345   9.427   8.236 -0.8934 -1.1293 -1.6902
  929MOL0     H25378   5.342   9.307   8.366  0.3673 -0.7349 -1.2569
  929MOL0     H25379   5.032   8.970   8.184 -1.5772 -1.8532  0.4950
  929MOL0     H25380   4.778   8.929   8.160  0.0169 -0.8040  0.1023
  929MOL0     H25381   4.571   9.128   7.856 -1.2789  0.1240 -1.7575
  929MOL0     H25382   4.576   8.985   7.757  4.3836  1.2365 -0.1356
  929MOL0     H25383   4.408   8.871   7.877 -0.5193 -0.1879  1.1852
  929MOL0     H25384   4.396   8.998   8.004 -0.1184  0.1134  0.2192
  929MOL0     H25385   4.324   9.010   7.707 -2.2933 -0.2755  0.7148
  929MOL0     H25386   4.332   9.157   7.791 -0.5543  1.4521 -0.2389
  929MOL0     H25387   4.146   8.939   7.886 -0.9953  0.9884 -0.9094
  929MOL0     H25388   4.137   9.097   7.942 -2.1379 -0.4635 -0.5821
  929MOL0     H25389   4.059   9.027   7.659 -0.4645 -0.2342  0.5736
  929MOL0     H25390   4.091   9.196   7.718 -0.3899  0.4564  0.6811
  929MOL0     H25391   3.854   9.120   7.711 -2.9440  3.3888  2.0612
  929MOL0     H25392   3.899   9.020   7.854 -0.7427 -0.2230 -1.3557
  929MOL0     H25393   3.932   9.321   7.829 -0.5413 -0.1454  0.0770
  929MOL0     H25394   3.967   9.212   7.968 -1.8199 -0.2426  0.4449
  929MOL0     H25395   3.683   9.261   7.855  1.3213  0.0035 -0.9009
  929MOL0     H25396   3.767   9.342   7.993  0.4341 -0.8516  1.8456
  929MOL0     H25397   4.778   9.119   7.782 -0.2420 -1.1544  0.4808
  929MOL0     H25398   5.019   9.160   7.800  0.7748  0.9733  0.8421
  929MOL0     H25399   5.418   9.037   7.938  0.2823  2.1304 -0.5865
  929MOL0     H25400   5.637   9.015   7.941 -0.9696 -0.3909 -0.2703
  929MOL0     H25401   6.339   8.559   9.020 -1.4473  0.3824  0.1988
  929MOL0     H25402   6.555   8.420   9.042  2.0406  1.4863  2.6126
  929MOL0     H25403   6.695   8.018   9.277 -1.8804  3.2732  0.5397
  929MOL0     H25404   6.866   7.848   9.276 -3.2970  1.8273  3.0201
  929MOL0     H25405   7.306   7.972   9.294  2.4090 -0.9002  0.9008
  929MOL0     H25406   7.246   7.943   9.450 -0.3094 -1.7819 -0.3902
  929MOL0     H25407   7.291   7.697   9.415 -0.3934 -1.9870 -2.7335
  929MOL0     H25408   7.423   7.793   9.356 -0.0822 -1.3162  2.4700
  929MOL0     H25409   7.382   7.737   9.132 -0.1385  0.3573 -0.6112
  929MOL0     H25410   7.206   7.701   9.162 -0.2883  0.8475  0.6456
  929MOL0     H25411   7.432   7.532   9.260  1.8390 -2.4069 -2.5193
  929MOL0     H25412   7.337   7.504   9.106 -3.1483  2.1363 -0.2817
  929MOL0     H25413   7.082   7.368   9.418  2.2115  0.5809  2.7676
  929MOL0     H25414   7.162   8.165   9.260 -0.1046  0.5778  2.9285
  929MOL0     H25415   6.991   8.330   9.260 -0.7044 -0.2816 -0.6799
  930MOL0     O25416   0.402   9.148   7.429  0.1501  0.2810 -0.2428
  930MOL0     C25417   0.474   9.158   7.527  0.1471 -1.2554  0.2956
  930MOL0     O25418   0.495   9.274   7.593  0.3045  0.1866  0.2992
  930MOL0     C25419   0.415   9.381   7.562  0.2603  0.3398 -0.2099
  930MOL0     C25420   0.277   9.382   7.518 -0.2992  0.2941  0.9439
  930MOL0     C25421   0.203   9.504   7.495 -0.1320 -0.1011  0.1401
  930MOL0     C25422   0.267   9.628   7.528  0.8000 -0.0270  0.1066
  930MOL0     O25423   0.203   9.747   7.532  0.2181 -0.5012  0.4108
  930MOL0     C25424   0.120   9.772   7.414 -0.0682  0.3201  0.2468
  930MOL0     C25425  -0.026   9.739   7.460  0.3244  0.3249  0.2716
  930MOL0     C25426  -0.095   9.860   7.521  0.0881 -0.1613  0.1131
  930MOL0     C25427  -0.251   9.864   7.502 -0.4252 -0.0616  0.2011
  930MOL0     C25428  -0.326   9.800   7.612  0.2853  0.4798  0.1934
  930MOL0     C25429  -0.319   9.890   7.733 -0.1930  0.2800 -0.2270
  930MOL0     C25430  -0.389   9.845   7.864 -0.4328 -0.2151 -0.4262
  930MOL0     C25431  -0.323   9.912   7.992  0.0740 -0.6273 -0.2228
  930MOL0     N25432  -0.395   9.892   8.118  0.1611  0.2387  0.1217
  930MOL0     C25433  -0.518   9.937   8.144  0.0277 -0.6204 -0.0795
  930MOL0     C25434  -0.561   9.855   8.244  0.0586 -0.3934 -0.0100
  930MOL0     C25435  -0.696   9.860   8.308 -0.4398 -0.0875 -0.4489
  930MOL0     C25436  -0.761   9.718   8.320 -0.3276 -0.3753  0.2959
  930MOL0     C25437  -0.906   9.715   8.348  0.1321 -0.1144 -0.2547
  930MOL0     C25438  -0.941   9.794   8.479  0.4018 -0.5576  0.5167
  930MOL0     O25439  -1.067   9.741   8.526  0.0668 -0.2272  0.0195
  930MOL0     C25440  -1.187   9.760   8.457 -0.3917  0.0803  0.7182
  930MOL0     C25441  -1.207   9.846   8.346 -0.2880  0.0691  0.0390
  930MOL0     C25442  -1.334   9.877   8.301 -0.0702 -0.4605  0.5750
  930MOL0     C25443  -1.347   9.974   8.190 -0.8011  0.8490 -0.1399
  930MOL0     C25444  -1.452   9.823   8.361 -0.3834  0.3538 -0.0565
  930MOL0     C25445  -1.592   9.848   8.311  0.8261 -0.3096  0.1393
  930MOL0     O25446  -1.700   9.822   8.401  0.4276 -0.1103  0.1292
  930MOL0     C25447  -1.822   9.881   8.373 -0.2907 -0.8173  0.9120
  930MOL0     C25448  -1.890   9.963   8.464  0.7554  0.1673  0.2208
  930MOL0     C25449  -2.020  10.012   8.440  0.5564 -0.0106  0.0864
  930MOL0     C25450  -2.093   9.967   8.328 -0.5473  0.2876 -0.2709
  930MOL0     O25451  -2.223  10.010   8.313  0.1725  0.6361 -0.3466
  930MOL0     C25452  -2.320   9.907   8.302  0.8421  0.2958  0.1795
  930MOL0     C25453  -2.456   9.974   8.337 -0.1915 -1.0981  0.1951
  930MOL0     C25454  -2.572   9.880   8.317 -0.2440  0.2621 -0.6041
  930MOL0     C25455  -2.708   9.923   8.370 -0.0169 -0.6997 -0.4438
  930MOL0     C25456  -2.815   9.825   8.353 -0.2052 -0.4630 -0.6799
  930MOL0     C25457  -2.948   9.863   8.419 -0.4689 -0.1847  0.5651
  930MOL0     C25458  -3.050   9.760   8.362  0.0255  0.4643 -0.1786
  930MOL0     C25459  -3.179   9.775   8.438 -0.5395 -0.5300  0.7833
  930MOL0    Cl25460  -3.299   9.652   8.399  0.0555  0.1385 -0.6334
  930MOL0     C25461  -2.023   9.877   8.236 -0.0258 -0.0895  0.0528
  930MOL0     C25462  -1.891   9.844   8.256 -0.1386 -0.4677  0.0502
  930MOL0     O25463  -1.615   9.886   8.192  0.2033 -0.1068 -0.6348
  930MOL0     C25464  -1.440   9.732   8.468 -1.7617  1.0004  0.3481
  930MOL0     C25465  -1.310   9.704   8.516 -0.0453 -0.1331 -0.6148
  930MOL0     N25466  -0.451   9.781   8.281  0.5739 -0.0574 -0.8704
  930MOL0     N25467  -0.361   9.793   8.201  0.4577  0.5297  0.4410
  930MOL0     C25468   0.396   9.624   7.584 -0.1391 -0.1601  0.3527
  930MOL0     C25469   0.467   9.508   7.595 -0.0819 -0.6611  0.4924
  930MOL0     C25470   0.583   9.059   7.546 -0.1344 -0.0740 -0.3262
  930MOL0     C25471   0.671   9.066   7.659 -0.0972 -0.3191  0.5273
  930MOL0     C25472   0.783   8.977   7.671 -0.1109 -0.1814 -0.3014
  930MOL0     C25473   0.810   8.873   7.586  0.6553 -0.0255  0.3088
  930MOL0     O25474   0.917   8.791   7.613  0.5526 -0.3660  0.2416
  930MOL0     C25475   0.957   8.682   7.531  0.2549  0.1694 -0.0165
  930MOL0     C25476   1.104   8.655   7.569 -0.0971  0.1593  0.0820
  930MOL0     C25477   1.196   8.760   7.520 -0.0253  0.1072 -0.0334
  930MOL0     C25478   1.330   8.758   7.590  0.2764 -0.2499 -0.7682
  930MOL0     C25479   1.392   8.629   7.552 -0.8235 -0.0179 -0.3086
  930MOL0     C25480   1.449   8.525   7.530  0.9765 -0.7718  0.3403
  930MOL0     C25481   0.720   8.864   7.479  0.1939 -0.1484  0.1045
  930MOL0     C25482   0.605   8.951   7.462  1.0675  0.1489  0.7498
  930MOL0     H25483   0.222   9.294   7.489 -1.4905  1.4872 -0.6093
  930MOL0     H25484   0.103   9.492   7.455  0.5242 -1.4518 -1.2163
  930MOL0     H25485   0.125   9.879   7.391  1.9111 -0.2400 -2.4343
  930MOL0     H25486   0.153   9.715   7.326 -1.4531  0.5058 -0.4325
  930MOL0     H25487  -0.087   9.721   7.371  2.1734  0.0012 -0.9733
  930MOL0     H25488  -0.036   9.653   7.527  3.2212  0.0306  0.4339
  930MOL0     H25489  -0.071   9.871   7.627  0.0918 -0.2583  0.1221
  930MOL0     H25490  -0.052   9.947   7.469  0.6156 -0.3151  0.2829
  930MOL0     H25491  -0.277   9.970   7.493 -0.3530  0.0882  1.5762
  930MOL0     H25492  -0.273   9.813   7.407  1.5031 -0.2797 -0.1654
  930MOL0     H25493  -0.429   9.784   7.578  0.3531  0.1343  0.1491
  930MOL0     H25494  -0.284   9.703   7.636  1.4979  0.8929 -0.2154
  930MOL0     H25495  -0.214   9.913   7.749  0.0725 -0.1778 -1.2275
  930MOL0     H25496  -0.371   9.981   7.699  0.1847  0.3137 -0.7322
  930MOL0     H25497  -0.494   9.863   7.841 -0.6782 -0.0048  0.8217
  930MOL0     H25498  -0.397   9.738   7.884 -0.8392  0.3295  2.8269
  930MOL0     H25499  -0.321  10.015   7.957  1.1468 -0.4208  0.3973
  930MOL0     H25500  -0.220   9.880   8.011  0.6487  0.5602 -1.2079
  930MOL0     H25501  -0.556  10.022   8.089  0.4884  0.1855  0.8180
  930MOL0     H25502  -0.685   9.909   8.405  1.9399  0.3246 -0.8673
  930MOL0     H25503  -0.759   9.919   8.241 -3.2782 -1.5455  0.7860
  930MOL0     H25504  -0.709   9.659   8.396  2.0500 -1.7185 -2.2076
  930MOL0     H25505  -0.749   9.659   8.229  2.0354 -0.2073  0.4498
  930MOL0     H25506  -0.926   9.612   8.376 -1.1218  0.1138 -0.2619
  930MOL0     H25507  -0.967   9.739   8.260 -0.8710  2.7381  1.0610
  930MOL0     H25508  -0.956   9.899   8.453 -0.8162 -1.1147 -1.2308
  930MOL0     H25509  -0.862   9.786   8.554 -1.0043 -0.0934  2.1437
  930MOL0     H25510  -1.125   9.902   8.302 -1.7215  1.9967 -0.3128
  930MOL0     H25511  -1.374   9.924   8.096  4.0998 -2.2157 -0.2738
  930MOL0     H25512  -1.430  10.039   8.218 -0.1124  2.1654 -1.0139
  930MOL0     H25513  -1.253  10.027   8.173 -0.0161 -0.8145 -1.2966
  930MOL0     H25514  -1.851   9.968   8.565 -0.3581 -1.2492  0.7554
  930MOL0     H25515  -2.079  10.063   8.515  0.0008  1.6235 -1.4112
  930MOL0     H25516  -2.320   9.864   8.201 -0.4422 -1.3180  0.8105
  930MOL0     H25517  -2.303   9.820   8.366  2.8574 -1.5598 -2.6058
  930MOL0     H25518  -2.460  10.013   8.439  0.3048  0.4027 -0.3332
  930MOL0     H25519  -2.475  10.056   8.268  0.1165 -0.4286  0.8857
  930MOL0     H25520  -2.554   9.778   8.352 -1.7782 -0.0247 -0.5788
  930MOL0     H25521  -2.586   9.870   8.209  0.2822 -1.9478 -0.5146
  930MOL0     H25522  -2.705   9.941   8.478 -2.1191  0.0286 -0.4453
  930MOL0     H25523  -2.736  10.019   8.325  1.0438  0.1188  0.5994
  930MOL0     H25524  -2.786   9.727   8.392  0.3315  0.3234  0.9640
  930MOL0     H25525  -2.833   9.813   8.245 -2.4289 -0.1241 -0.3914
  930MOL0     H25526  -2.953   9.842   8.526 -0.3504 -3.2410  0.0650
  930MOL0     H25527  -2.975   9.966   8.394 -0.6043 -0.6031 -1.1989
  930MOL0     H25528  -3.012   9.661   8.392  0.5068  0.7924  0.3113
  930MOL0     H25529  -3.057   9.766   8.253 -2.8028  0.3622 -0.0696
  930MOL0     H25530  -3.221   9.871   8.406  2.3878 -0.1100 -2.3505
  930MOL0     H25531  -3.176   9.785   8.547 -3.5885 -0.2563  0.9467
  930MOL0     H25532  -2.075   9.838   8.149  0.2092  0.5537 -0.3833
  930MOL0     H25533  -1.840   9.776   8.187 -0.7034 -0.9782  0.1264
  930MOL0     H25534  -1.524   9.684   8.517  0.0552 -0.3509  2.3333
  930MOL0     H25535  -1.307   9.640   8.604  1.2762  0.7995  0.0489
  930MOL0     H25536   0.450   9.711   7.619  1.7752 -1.3760  0.5632
  930MOL0     H25537   0.570   9.509   7.629  0.6607 -1.8364 -1.5130
  930MOL0     H25538   0.651   9.132   7.742  1.4457 -1.1678  1.6281
  930MOL0     H25539   0.860   8.985   7.747  1.1917 -2.3092 -1.3005
  930MOL0     H25540   0.899   8.594   7.561 -1.6738  1.1559 -0.6606
  930MOL0     H25541   0.943   8.693   7.423 -1.9470 -0.3273  0.1625
  930MOL0     H25542   1.133   8.558   7.527  1.1937  1.6382 -2.7412
  930MOL0     H25543   1.109   8.654   7.678 -0.6997  1.9504  0.1520
  930MOL0     H25544   1.148   8.854   7.548  2.8573  1.1824  1.7040
  930MOL0     H25545   1.209   8.776   7.412 -2.4003 -0.4073 -0.4524
  930MOL0     H25546   1.328   8.758   7.700 -0.4041 -5.5828 -0.5532
  930MOL0     H25547   1.392   8.841   7.554  1.6081 -1.2003 -0.7354
  930MOL0     H25548   1.509   8.436   7.533 -0.1108 -1.5452 -0.2681
  930MOL0     H25549   0.738   8.781   7.412  2.7323  1.3278 -1.1961
  930MOL0     H25550   0.543   8.939   7.374  4.7928  0.6475 -2.2192
  931MOL0     O25551   6.001   7.381   2.005 -0.0590 -0.3568  0.2937
  931MOL0     C25552   5.980   7.481   2.077  0.1284 -0.2251  1.1467
  931MOL0     O25553   6.042   7.608   2.061  0.5680 -0.6835 -0.7566
  931MOL0     C25554   6.131   7.626   1.955  0.4326 -0.3095  0.1078
  931MOL0     C25555   6.241   7.705   1.980  0.3780  0.2029 -0.5850
  931MOL0     C25556   6.329   7.742   1.877 -0.2993 -0.6993  0.7270
  931MOL0     C25557   6.312   7.696   1.746 -0.3312 -0.1489 -0.2958
  931MOL0     O25558   6.384   7.743   1.643 -0.3122  0.5769  0.2143
  931MOL0     C25559   6.518   7.690   1.646 -0.3252  0.4828  0.7978
  931MOL0     C25560   6.528   7.538   1.622  0.1490 -0.0585  0.4849
  931MOL0     C25561   6.465   7.486   1.495  0.2813  0.0996 -0.0040
  931MOL0     C25562   6.425   7.333   1.506 -0.3492 -1.3373 -0.8595
  931MOL0     C25563   6.355   7.280   1.381  0.0499 -0.2976 -0.2792
  931MOL0     C25564   6.335   7.124   1.389 -0.2921 -0.0510  0.0430
  931MOL0     C25565   6.281   7.065   1.252 -0.9322  0.4388 -0.7314
  931MOL0     C25566   6.209   6.934   1.286 -1.0889 -0.4376 -0.3825
  931MOL0     N25567   6.059   6.960   1.291  0.1683  0.2875 -0.3264
  931MOL0     C25568   5.972   6.993   1.185 -0.6611 -0.7220 -0.2728
  931MOL0     C25569   5.855   6.997   1.255 -0.2194  0.5930 -0.0806
  931MOL0     C25570   5.722   7.014   1.204  0.2606 -0.1159  0.4253
  931MOL0     C25571   5.643   7.118   1.283  0.3031 -0.8894 -0.3370
  931MOL0     C25572   5.522   7.167   1.201  0.3089 -0.7095 -0.8268
  931MOL0     C25573   5.387   7.089   1.211  0.3524 -0.2808  0.5518
  931MOL0     O25574   5.405   6.960   1.161 -0.5679  0.6102 -0.6252
  931MOL0     C25575   5.308   6.869   1.153 -0.1850 -0.4473 -0.3629
  931MOL0     C25576   5.346   6.744   1.112  0.3628  0.1453  0.1288
  931MOL0     C25577   5.258   6.635   1.100 -0.1844 -0.5108  0.0301
  931MOL0     C25578   5.317   6.512   1.044  0.5975 -0.0990  0.5986
  931MOL0     C25579   5.121   6.653   1.126  0.3536  0.4530  0.4870
  931MOL0     C25580   5.014   6.555   1.083  0.0404 -0.8555 -0.6879
  931MOL0     O25581   5.045   6.442   1.013 -0.2736 -0.5391  0.1470
  931MOL0     C25582   4.944   6.378   0.949 -0.3653 -0.0903  0.1037
  931MOL0     C25583   4.823   6.339   1.015 -0.2775 -0.1887  0.7238
  931MOL0     C25584   4.719   6.262   0.957 -0.3632  0.6631 -0.5898
  931MOL0     C25585   4.738   6.219   0.827 -0.7904  0.9541 -0.6979
  931MOL0     O25586   4.647   6.140   0.761  0.0250 -0.7842 -0.0844
  931MOL0     C25587   4.502   6.160   0.779 -0.0365  0.0556 -0.2819
  931MOL0     C25588   4.447   6.153   0.636 -0.0035 -0.4480 -0.7252
  931MOL0     C25589   4.299   6.147   0.635  0.3843  0.1055 -0.2559
  931MOL0     C25590   4.242   6.129   0.491 -0.4027  0.4702  0.5575
  931MOL0     C25591   4.093   6.149   0.467 -0.6546 -0.1282 -0.4462
  931MOL0     C25592   4.014   6.065   0.558 -0.3698  0.9240 -0.2424
  931MOL0     C25593   4.015   5.918   0.526  0.3351 -0.2549  0.4873
  931MOL0     C25594   3.936   5.836   0.628  0.4880 -0.4746  0.0441
  931MOL0    Cl25595   3.756   5.864   0.640 -0.0132  0.2761  0.3509
  931MOL0     C25596   4.856   6.258   0.753 -0.0032 -0.5134  0.1707
  931MOL0     C25597   4.954   6.340   0.812  0.1123  0.3714  0.0666
  931MOL0     O25598   4.913   6.567   1.150 -0.0119 -0.3892  0.3965
  931MOL0     C25599   5.077   6.778   1.184 -0.4908 -0.2654 -0.4680
  931MOL0     C25600   5.173   6.888   1.190 -0.9127  0.9678  0.8008
  931MOL0     N25601   5.872   6.962   1.387  0.3171 -0.4051 -0.4537
  931MOL0     N25602   5.997   6.946   1.408 -0.0050  0.2932  0.2006
  931MOL0     C25603   6.193   7.619   1.719  0.0875 -0.0386  0.6592
  931MOL0     C25604   6.108   7.574   1.822  0.1751 -0.2828 -0.8726
  931MOL0     C25605   5.868   7.472   2.169  0.0936  0.2810  0.2093
  931MOL0     C25606   5.828   7.589   2.233  0.2772  0.1362  0.0891
  931MOL0     C25607   5.722   7.594   2.321 -0.4900  0.2371 -0.7681
  931MOL0     C25608   5.654   7.482   2.353  0.2560 -0.0731  0.5128
  931MOL0     O25609   5.543   7.508   2.432 -0.7812  0.3461  0.1705
  931MOL0     C25610   5.443   7.410   2.445  0.5357  0.4082  0.2383
  931MOL0     C25611   5.367   7.440   2.575  0.2118  0.1967 -0.2868
  931MOL0     C25612   5.312   7.585   2.592  0.8022  0.0656 -0.8082
  931MOL0     C25613   5.195   7.611   2.691 -0.3236  0.1310  0.5531
  931MOL0     C25614   5.176   7.752   2.708 -0.4179 -0.4880  0.4773
  931MOL0     C25615   5.153   7.870   2.729 -0.7551 -1.4982 -0.6089
  931MOL0     C25616   5.695   7.363   2.307 -0.7745  0.0243  0.1657
  931MOL0     C25617   5.799   7.353   2.207  0.0744  0.1486  0.4388
  931MOL0     H25618   6.240   7.734   2.085  2.3768  2.6354 -1.1484
  931MOL0     H25619   6.400   7.821   1.893  0.9777 -0.9306 -2.8363
  931MOL0     H25620   6.570   7.736   1.562 -3.4955 -2.2490 -3.0370
  931MOL0     H25621   6.572   7.718   1.737 -0.1578  2.5963  0.1017
  931MOL0     H25622   6.636   7.519   1.613  0.0398 -0.4989  0.1154
  931MOL0     H25623   6.492   7.483   1.710 -1.6342  0.5897  0.1797
  931MOL0     H25624   6.369   7.537   1.483  0.2204 -0.3349 -1.6149
  931MOL0     H25625   6.529   7.506   1.408 -0.7259  0.0205 -0.7760
  931MOL0     H25626   6.519   7.280   1.523  1.8415  1.3179 -3.5337
  931MOL0     H25627   6.361   7.314   1.593  1.3973  1.0151  1.0805
  931MOL0     H25628   6.264   7.335   1.354 -0.6792 -0.5443  1.5258
  931MOL0     H25629   6.417   7.299   1.293 -0.3080 -3.1674 -1.2320
  931MOL0     H25630   6.436   7.088   1.410  0.0664  1.8055  1.8850
  931MOL0     H25631   6.270   7.089   1.470  0.3726 -0.4326  0.4156
  931MOL0     H25632   6.204   7.130   1.209 -2.0092  0.1272  0.6709
  931MOL0     H25633   6.362   7.052   1.180  0.3246 -1.2809  0.9115
  931MOL0     H25634   6.248   6.889   1.378 -3.0156  0.7942  1.1186
  931MOL0     H25635   6.224   6.859   1.208 -0.7873  0.9893 -1.7464
  931MOL0     H25636   6.000   7.004   1.080 -1.6578 -0.4790 -0.5303
  931MOL0     H25637   5.721   7.038   1.098 -0.0623  0.6875  0.6036
  931MOL0     H25638   5.669   6.919   1.210 -1.7113  0.7919 -1.3174
  931MOL0     H25639   5.706   7.206   1.294 -0.5428 -0.1553 -1.1651
  931MOL0     H25640   5.607   7.091   1.383  0.8864 -1.1010 -0.1806
  931MOL0     H25641   5.553   7.157   1.097 -0.9034 -0.8530 -1.1923
  931MOL0     H25642   5.492   7.269   1.226 -0.2468 -0.8833 -0.7750
  931MOL0     H25643   5.323   7.148   1.145  3.2025  3.4369  0.8192
  931MOL0     H25644   5.358   7.082   1.317 -0.0133 -2.3605  0.3662
  931MOL0     H25645   5.453   6.728   1.117  0.2615 -0.6356 -0.1917
  931MOL0     H25646   5.426   6.514   1.049  0.5827  0.1652  0.8397
  931MOL0     H25647   5.275   6.422   1.089 -1.8042  0.2918 -0.7143
  931MOL0     H25648   5.297   6.506   0.937  2.1266 -2.3935  0.3662
  931MOL0     H25649   4.811   6.365   1.119  1.0740 -2.3214  1.4892
  931MOL0     H25650   4.632   6.245   1.020 -0.5677  1.7085 -0.5580
  931MOL0     H25651   4.458   6.075   0.834 -0.4124  0.1188 -0.4816
  931MOL0     H25652   4.475   6.249   0.836 -0.5786 -0.4787  0.3144
  931MOL0     H25653   4.475   6.245   0.585 -0.5524  0.6060  0.7895
  931MOL0     H25654   4.497   6.073   0.582  1.7257  0.4653 -0.5587
  931MOL0     H25655   4.254   6.239   0.672 -0.8669  0.3367 -2.1892
  931MOL0     H25656   4.266   6.059   0.691  0.1185 -0.7134 -1.6316
  931MOL0     H25657   4.284   6.208   0.427  1.6982 -0.6273  0.4953
  931MOL0     H25658   4.275   6.028   0.465  0.1839  1.0128 -0.9688
  931MOL0     H25659   4.064   6.136   0.363 -0.3158  2.2067 -0.8743
  931MOL0     H25660   4.078   6.255   0.490  0.9969  0.4427 -1.7958
  931MOL0     H25661   4.047   6.092   0.659 -0.0514 -0.7260  0.1235
  931MOL0     H25662   3.908   6.093   0.554 -0.4916  0.4344 -0.5788
  931MOL0     H25663   4.119   5.888   0.542  1.1521  1.7103 -0.7823
  931MOL0     H25664   3.982   5.898   0.424  0.5068  1.2757  0.1167
  931MOL0     H25665   3.985   5.856   0.724  0.2606  1.7624 -0.2527
  931MOL0     H25666   3.947   5.732   0.596  1.6018 -0.5307  0.5476
  931MOL0     H25667   4.864   6.232   0.647 -1.4406  1.5684 -0.5160
  931MOL0     H25668   5.046   6.368   0.760  1.3897  3.6825  3.5746
  931MOL0     H25669   4.976   6.808   1.210  0.1317  1.3960  0.1651
  931MOL0     H25670   5.144   6.987   1.222 -3.2570  0.5458  0.1890
  931MOL0     H25671   6.181   7.590   1.615 -0.6193  0.1072  0.6968
  931MOL0     H25672   6.016   7.519   1.802 -0.7296 -0.3415  2.7730
  931MOL0     H25673   5.880   7.683   2.217 -2.3526  1.9674  1.6468
  931MOL0     H25674   5.689   7.686   2.368 -0.2529 -0.9602  1.9846
  931MOL0     H25675   5.380   7.425   2.357  1.2702  2.1212 -0.0513
  931MOL0     H25676   5.476   7.306   2.453 -1.3908 -0.3032 -0.4872
  931MOL0     H25677   5.434   7.427   2.661 -0.4984 -2.5169 -0.0670
  931MOL0     H25678   5.287   7.366   2.582  0.6863 -0.1964  1.7261
  931MOL0     H25679   5.293   7.644   2.502  2.3811  0.0514 -1.1841
  931MOL0     H25680   5.403   7.634   2.630  1.3138 -1.4079 -0.0760
  931MOL0     H25681   5.214   7.567   2.790  0.7786 -0.1125  0.2463
  931MOL0     H25682   5.100   7.566   2.661  1.9982 -4.7487 -0.6221
  931MOL0     H25683   5.135   7.971   2.758  2.9436 -0.9112  0.1218
  931MOL0     H25684   5.654   7.269   2.344 -0.0699  0.6416  2.7605
  931MOL0     H25685   5.817   7.250   2.175 -0.6745 -0.1750  1.0196
  932MOL0     O25686   2.633   8.303   4.385  0.6432 -0.1514 -0.1594
  932MOL0     C25687   2.623   8.188   4.333 -1.0797 -0.4469 -0.0588
  932MOL0     O25688   2.512   8.117   4.324  0.1196 -0.2188 -0.1769
  932MOL0     C25689   2.389   8.169   4.356  0.1329 -0.5087  0.9401
  932MOL0     C25690   2.282   8.135   4.271 -0.2648  0.0491  0.1681
  932MOL0     C25691   2.144   8.169   4.304  0.7614 -0.6940 -0.3131
  932MOL0     C25692   2.119   8.244   4.423  0.8917 -0.3995 -0.0639
  932MOL0     O25693   1.996   8.271   4.467  0.3131 -0.2235 -0.7401
  932MOL0     C25694   1.904   8.161   4.483  0.4763 -0.0303  0.4266
  932MOL0     C25695   1.887   8.155   4.631 -0.2638 -0.2846  0.2312
  932MOL0     C25696   1.811   8.025   4.663  0.7488  0.7946 -0.5194
  932MOL0     C25697   1.662   8.030   4.625  0.2068 -0.1145  0.7830
  932MOL0     C25698   1.586   7.905   4.666  0.3445  0.3537 -0.0914
  932MOL0     C25699   1.617   7.849   4.807  0.5608 -0.3869  0.5807
  932MOL0     C25700   1.531   7.729   4.833 -0.4070  0.1758 -0.4300
  932MOL0     C25701   1.381   7.742   4.798  0.8228  0.0575 -0.0347
  932MOL0     N25702   1.316   7.847   4.876  0.4480 -0.5520  0.0082
  932MOL0     C25703   1.235   7.943   4.827  0.5209  0.5537 -0.0843
  932MOL0     C25704   1.187   8.005   4.936 -0.5759  0.7918  0.2398
  932MOL0     C25705   1.080   8.112   4.946 -0.2654 -1.4326 -0.0297
  932MOL0     C25706   0.939   8.060   4.921  0.5855 -0.4145  0.0308
  932MOL0     C25707   0.823   8.161   4.926 -0.5353  0.1966 -0.0802
  932MOL0     C25708   0.688   8.094   4.909 -0.0605 -0.7373 -0.9286
  932MOL0     O25709   0.578   8.180   4.948 -0.8891 -0.2256  0.5623
  932MOL0     C25710   0.444   8.136   4.932  0.0120  0.6450  0.0442
  932MOL0     C25711   0.408   8.015   4.877  0.1209 -0.0004 -0.0605
  932MOL0     C25712   0.272   7.980   4.863 -0.0887 -0.1849 -0.3177
  932MOL0     C25713   0.250   7.854   4.785  0.1735  0.4986  0.8015
  932MOL0     C25714   0.171   8.072   4.907  0.4557  0.5094  0.4040
  932MOL0     C25715   0.025   8.041   4.897 -0.1163 -0.2057 -0.7586
  932MOL0     O25716  -0.023   7.922   4.841  0.1337 -0.3608  0.2520
  932MOL0     C25717  -0.152   7.924   4.783 -0.1438 -0.6331  0.0713
  932MOL0     C25718  -0.239   7.821   4.789 -0.0485 -0.2655 -0.5243
  932MOL0     C25719  -0.374   7.822   4.746  0.0738  0.5127  0.5826
  932MOL0     C25720  -0.433   7.936   4.690 -0.1360  0.3731 -0.1795
  932MOL0     O25721  -0.566   7.941   4.661  0.6469 -0.2058  0.5930
  932MOL0     C25722  -0.621   8.066   4.710 -0.1028 -0.0862  0.0650
  932MOL0     C25723  -0.773   8.071   4.673 -1.2023 -0.3453 -0.1550
  932MOL0     C25724  -0.794   8.093   4.525 -0.1555 -0.4621 -0.5603
  932MOL0     C25725  -0.943   8.076   4.499 -0.3260 -0.2116  0.5889
  932MOL0     C25726  -0.978   8.102   4.351 -0.3418  0.8730  0.3203
  932MOL0     C25727  -1.131   8.103   4.323  0.5443  0.0429 -0.1288
  932MOL0     C25728  -1.194   8.207   4.416 -0.0744 -0.6119 -0.4765
  932MOL0     C25729  -1.347   8.212   4.408 -0.5058 -0.0036  0.5540
  932MOL0    Cl25730  -1.423   8.267   4.254 -0.2867  0.4053 -0.2348
  932MOL0     C25731  -0.338   8.044   4.682 -0.6634 -0.9462 -0.2790
  932MOL0     C25732  -0.204   8.038   4.718 -0.4882 -0.1752  0.2916
  932MOL0     O25733  -0.048   8.129   4.944  0.3261 -0.3686 -0.0048
  932MOL0     C25734   0.211   8.188   4.971 -0.3087  0.7257  0.3596
  932MOL0     C25735   0.342   8.222   4.980  0.5549 -0.0337  0.4642
  932MOL0     N25736   1.231   7.946   5.051  0.9624 -0.0107  0.4452
  932MOL0     N25737   1.309   7.847   5.012  0.0880  0.3858  0.4273
  932MOL0     C25738   2.230   8.280   4.508 -0.3634 -0.2864 -0.3892
  932MOL0     C25739   2.363   8.240   4.475  0.0451 -0.7610  0.2961
  932MOL0     C25740   2.751   8.137   4.282  0.8305  0.4061 -0.0851
  932MOL0     C25741   2.755   8.026   4.196  0.5131  0.5489  0.5910
  932MOL0     C25742   2.882   7.981   4.145 -0.5782  0.3176 -0.3690
  932MOL0     C25743   3.003   8.043   4.169  0.3681 -0.6940  0.3181
  932MOL0     O25744   3.111   7.999   4.092  0.1348 -0.3407 -0.1130
  932MOL0     C25745   3.242   8.055   4.120 -0.1255  0.7978  0.0197
  932MOL0     C25746   3.295   7.998   4.247  0.2578 -0.1257 -0.0385
  932MOL0     C25747   3.445   8.002   4.253 -1.2477  0.5426 -0.1711
  932MOL0     C25748   3.508   7.969   4.388  0.0436 -0.0741 -0.0214
  932MOL0     C25749   3.458   7.837   4.442  1.0940 -0.7405 -0.4890
  932MOL0     C25750   3.422   7.737   4.489 -0.1978  0.5015 -0.5383
  932MOL0     C25751   2.989   8.158   4.253  0.7484  0.7282  0.3536
  932MOL0     C25752   2.874   8.192   4.319  0.4768 -0.0984 -0.1555
  932MOL0     H25753   2.299   8.088   4.175  0.7787  0.7399  0.0016
  932MOL0     H25754   2.061   8.148   4.237 -1.0901 -0.3852  1.7843
  932MOL0     H25755   1.805   8.185   4.445 -1.0740 -0.4049  3.8948
  932MOL0     H25756   1.945   8.065   4.452  0.8203  0.6199 -1.2330
  932MOL0     H25757   1.984   8.162   4.681 -1.4454  0.5418  2.5214
  932MOL0     H25758   1.842   8.247   4.668  2.4725  0.9203  0.8268
  932MOL0     H25759   1.849   7.936   4.611  1.1727  1.1497 -0.8256
  932MOL0     H25760   1.826   8.006   4.769 -2.2279 -1.7599 -0.4162
  932MOL0     H25761   1.624   8.117   4.680  0.0057 -0.1718  0.7353
  932MOL0     H25762   1.650   8.040   4.517 -1.1631 -2.8713  0.5864
  932MOL0     H25763   1.481   7.933   4.652  0.8692  2.1078 -0.7440
  932MOL0     H25764   1.607   7.818   4.603  0.0771 -0.9764  1.5864
  932MOL0     H25765   1.723   7.826   4.819  0.9127  1.2292  0.7539
  932MOL0     H25766   1.600   7.918   4.890  0.6333 -2.9527  2.8672
  932MOL0     H25767   1.582   7.646   4.781 -1.7262 -1.3892  0.6805
  932MOL0     H25768   1.536   7.706   4.940 -2.0790 -2.2735 -0.7805
  932MOL0     H25769   1.339   7.641   4.801  0.4782  0.2099  1.3069
  932MOL0     H25770   1.363   7.768   4.694  0.9696  1.1345  0.2023
  932MOL0     H25771   1.201   7.973   4.728  0.9719 -1.6184 -0.9640
  932MOL0     H25772   1.081   8.155   5.047  2.1380 -1.6921  0.1155
  932MOL0     H25773   1.110   8.190   4.877  0.3673  1.2297  3.0005
  932MOL0     H25774   0.912   7.991   5.001 -1.8051 -1.5268 -1.6154
  932MOL0     H25775   0.936   8.024   4.817 -0.1802  1.1065 -0.4977
  932MOL0     H25776   0.844   8.247   4.862 -1.5807  0.7449  0.2922
  932MOL0     H25777   0.824   8.195   5.030  1.2568 -0.5408  0.1736
  932MOL0     H25778   0.686   8.000   4.964  0.4430  0.1370  0.6754
  932MOL0     H25779   0.683   8.065   4.804  1.6926  1.3893 -1.6821
  932MOL0     H25780   0.478   7.939   4.847 -1.4073 -1.8187  0.7543
  932MOL0     H25781   0.339   7.809   4.740 -1.6225 -2.4282 -0.1004
  932MOL0     H25782   0.187   7.782   4.837  1.2473 -1.3865 -0.4087
  932MOL0     H25783   0.184   7.882   4.702  0.8537  0.8664  0.3731
  932MOL0     H25784  -0.204   7.730   4.837  0.4154  0.3223  0.2822
  932MOL0     H25785  -0.432   7.731   4.752  2.6476 -1.3308 -0.7690
  932MOL0     H25786  -0.607   8.077   4.818  0.0259 -0.8747  0.1351
  932MOL0     H25787  -0.575   8.149   4.655  0.1504 -0.8620 -0.9215
  932MOL0     H25788  -0.821   7.982   4.715 -1.9673  1.3854  3.0142
  932MOL0     H25789  -0.821   8.155   4.725 -1.1699  1.0281 -2.2268
  932MOL0     H25790  -0.748   8.001   4.486 -1.0000 -1.0756 -0.1447
  932MOL0     H25791  -0.754   8.189   4.493  0.0589 -0.1511  0.5835
  932MOL0     H25792  -0.992   7.989   4.542 -3.0101  2.1791  2.7659
  932MOL0     H25793  -0.988   8.163   4.548 -0.2682  1.1729 -1.6435
  932MOL0     H25794  -0.930   8.028   4.286 -2.2184 -2.3078  2.2754
  932MOL0     H25795  -0.939   8.199   4.320  3.6898 -0.3126  1.0686
  932MOL0     H25796  -1.145   8.126   4.217 -0.2991 -1.9096 -0.4920
  932MOL0     H25797  -1.177   8.006   4.345  1.4901 -0.5129 -0.5122
  932MOL0     H25798  -1.153   8.306   4.393 -1.8313  0.8422  2.1821
  932MOL0     H25799  -1.181   8.184   4.521  0.4097 -1.8173 -0.7890
  932MOL0     H25800  -1.380   8.287   4.481  0.0956  1.4776 -0.6617
  932MOL0     H25801  -1.376   8.113   4.446  1.9425  0.4399  4.0091
  932MOL0     H25802  -0.380   8.134   4.638 -2.8809 -1.9237 -0.3145
  932MOL0     H25803  -0.143   8.126   4.702 -0.8670 -0.0725 -0.6737
  932MOL0     H25804   0.155   8.267   5.018 -0.9491 -0.1913  1.1876
  932MOL0     H25805   0.358   8.320   5.025 -0.8703 -0.1350  1.2506
  932MOL0     H25806   2.207   8.333   4.600  0.8836 -0.4063  0.0028
  932MOL0     H25807   2.452   8.266   4.531 -0.3447 -0.1058  0.6198
  932MOL0     H25808   2.660   7.975   4.181  1.0204 -1.6347  3.8335
  932MOL0     H25809   2.876   7.895   4.079 -1.0106  0.6241 -0.7308
  932MOL0     H25810   3.311   8.037   4.036 -1.2650  1.4690 -1.1049
  932MOL0     H25811   3.239   8.163   4.136 -0.2674  0.7211  0.5293
  932MOL0     H25812   3.259   7.897   4.269  1.2881 -0.6933 -0.8661
  932MOL0     H25813   3.254   8.062   4.326  1.6011 -0.7625  1.2257
  932MOL0     H25814   3.488   8.100   4.228  1.3973 -0.2919  0.7219
  932MOL0     H25815   3.483   7.943   4.169  0.4838  4.0471 -2.1103
  932MOL0     H25816   3.492   8.047   4.463  1.6957 -0.0696  0.3639
  932MOL0     H25817   3.617   7.959   4.379  0.1433  0.4052  0.6161
  932MOL0     H25818   3.396   7.643   4.535  0.7486  1.1144  1.3530
  932MOL0     H25819   3.068   8.227   4.282 -0.0562  1.9071 -0.1946
  932MOL0     H25820   2.875   8.282   4.381  1.5484  0.8757 -1.5162
  933MOL0     O25821   2.968   4.096   3.333 -0.6387 -0.3979 -0.9396
  933MOL0     C25822   2.946   3.986   3.275 -0.2827 -0.7152  0.4389
  933MOL0     O25823   2.832   3.951   3.221 -0.8598 -0.1178 -0.7276
  933MOL0     C25824   2.717   4.025   3.242 -0.1366  0.9142 -0.2021
  933MOL0     C25825   2.716   4.168   3.232 -0.1679  0.0500  0.7279
  933MOL0     C25826   2.601   4.243   3.246  0.2901 -0.4728  0.1817
  933MOL0     C25827   2.486   4.174   3.264  0.5640  0.3134 -0.4262
  933MOL0     O25828   2.363   4.237   3.273  0.0699 -0.7075  0.3328
  933MOL0     C25829   2.244   4.189   3.200 -0.0198  0.0819  0.0824
  933MOL0     C25830   2.111   4.170   3.278  0.0673  0.7089  0.5001
  933MOL0     C25831   1.995   4.175   3.185  1.0214  0.7014  0.1268
  933MOL0     C25832   1.857   4.201   3.258  0.3492 -0.5149  0.0052
  933MOL0     C25833   1.742   4.135   3.178 -0.6073 -0.0860  0.1005
  933MOL0     C25834   1.610   4.145   3.266 -0.3285 -0.0969  0.5810
  933MOL0     C25835   1.570   4.296   3.276  0.2259 -0.2292  0.2399
  933MOL0     C25836   1.415   4.322   3.253  0.6803  0.1204 -0.3740
  933MOL0     N25837   1.324   4.255   3.354  0.6574  0.1870 -0.3480
  933MOL0     C25838   1.238   4.156   3.326 -0.2221 -0.8380 -0.0140
  933MOL0     C25839   1.159   4.143   3.436  0.1455  0.0231  0.4967
  933MOL0     C25840   1.056   4.043   3.466  0.1693  0.3832  0.9757
  933MOL0     C25841   0.917   4.099   3.448 -0.3297  0.4327 -0.6913
  933MOL0     C25842   0.821   3.985   3.468 -0.0643  0.2283  0.0287
  933MOL0     C25843   0.694   4.023   3.549 -0.5304 -0.9371 -0.8151
  933MOL0     O25844   0.619   3.904   3.570  0.4416 -0.3328  0.4283
  933MOL0     C25845   0.507   3.901   3.647  0.3199 -1.1232 -0.0649
  933MOL0     C25846   0.454   3.778   3.674  0.2218 -0.4145  0.1523
  933MOL0     C25847   0.342   3.755   3.758  0.1959 -0.1972  0.4377
  933MOL0     C25848   0.311   3.615   3.779  0.2108  0.5748  0.2955
  933MOL0     C25849   0.284   3.865   3.822  0.9865 -0.4691 -0.5982
  933MOL0     C25850   0.157   3.858   3.896  0.1368  0.2001 -0.2082
  933MOL0     O25851   0.141   3.955   3.986 -0.0181  0.2306 -0.9891
  933MOL0     C25852   0.018   3.980   4.035  0.0478 -0.3687 -0.7859
  933MOL0     C25853  -0.100   3.987   3.959 -0.0075 -0.8898  0.7501
  933MOL0     C25854  -0.221   4.006   4.022  1.1321 -0.7053  0.1790
  933MOL0     C25855  -0.231   4.019   4.162 -0.2746 -0.2569  0.6408
  933MOL0     O25856  -0.355   4.041   4.215  0.0321 -0.4190 -0.0608
  933MOL0     C25857  -0.368   4.092   4.348  0.2673  0.8435 -0.5341
  933MOL0     C25858  -0.331   4.240   4.336 -0.5134  0.2527  0.2405
  933MOL0     C25859  -0.447   4.318   4.272 -0.5760  1.3093 -0.5921
  933MOL0     C25860  -0.408   4.456   4.222  0.8024 -0.5306 -0.5780
  933MOL0     C25861  -0.397   4.571   4.321  0.0037 -1.0929 -0.1097
  933MOL0     C25862  -0.395   4.705   4.259 -0.4346 -0.2834  0.5351
  933MOL0     C25863  -0.450   4.816   4.343  0.4920  0.2162  0.8739
  933MOL0     C25864  -0.446   4.955   4.280 -0.4854  0.6861 -1.1952
  933MOL0    Cl25865  -0.555   4.959   4.131 -0.1911  0.2937  0.3740
  933MOL0     C25866  -0.120   4.001   4.242 -0.0398  0.6006  0.0078
  933MOL0     C25867   0.002   3.978   4.175  0.2361  0.2615  0.5681
  933MOL0     O25868   0.071   3.774   3.864  0.2920 -0.1069  0.7632
  933MOL0     C25869   0.334   3.991   3.793  0.2442 -0.0490 -0.3503
  933MOL0     C25870   0.444   4.010   3.707  0.9222  0.3917 -0.0508
  933MOL0     N25871   1.205   4.235   3.531 -0.2124 -0.0025  0.1466
  933MOL0     N25872   1.304   4.297   3.478  0.3124  0.1755 -0.1165
  933MOL0     C25873   2.491   4.034   3.279  1.2622  0.5733 -0.1198
  933MOL0     C25874   2.605   3.955   3.255  0.5750  0.5213 -0.2679
  933MOL0     C25875   3.064   3.906   3.245 -0.1105  0.0966 -0.7933
  933MOL0     C25876   3.199   3.938   3.290 -0.1429  1.1160  0.0907
  933MOL0     C25877   3.301   3.858   3.263  0.4365 -0.1042 -0.1578
  933MOL0     C25878   3.295   3.732   3.207  0.4454  0.1025  0.2292
  933MOL0     O25879   3.413   3.659   3.202 -0.3557  0.0239 -0.1346
  933MOL0     C25880   3.408   3.532   3.139  0.0635 -0.5057 -0.0070
  933MOL0     C25881   3.526   3.456   3.179 -0.2889  0.2709 -0.6611
  933MOL0     C25882   3.657   3.508   3.121 -0.1235 -0.3055  0.1781
  933MOL0     C25883   3.758   3.391   3.123 -0.7350 -1.2583 -0.2954
  933MOL0     C25884   3.864   3.409   3.025  0.4262 -0.7011 -0.2719
  933MOL0     C25885   3.959   3.415   2.942  0.0384  0.1039 -0.7663
  933MOL0     C25886   3.166   3.703   3.152  0.0432  0.5791  0.8086
  933MOL0     C25887   3.051   3.782   3.176 -0.8137 -0.1793  0.6183
  933MOL0     H25888   2.812   4.214   3.207  1.0095 -2.9760 -0.7983
  933MOL0     H25889   2.602   4.349   3.226 -2.6322 -0.3542  0.2310
  933MOL0     H25890   2.223   4.261   3.121  1.0426  0.9598  0.5711
  933MOL0     H25891   2.258   4.089   3.160 -2.6937 -0.3908  0.1703
  933MOL0     H25892   2.110   4.078   3.338  0.7968 -0.7451 -1.6152
  933MOL0     H25893   2.096   4.243   3.358  0.4224 -0.9745  2.1931
  933MOL0     H25894   2.012   4.244   3.102 -0.0120 -0.8749 -1.4782
  933MOL0     H25895   1.990   4.073   3.147  3.4669  0.3097  0.7238
  933MOL0     H25896   1.860   4.148   3.353 -0.1107 -4.1021 -1.8150
  933MOL0     H25897   1.833   4.307   3.272 -1.7182 -1.1180  1.5210
  933MOL0     H25898   1.726   4.179   3.079 -0.9652  3.1483  1.4724
  933MOL0     H25899   1.770   4.030   3.165 -1.6605 -0.4040  0.2763
  933MOL0     H25900   1.539   4.092   3.201  0.3252  1.8062 -1.8316
  933MOL0     H25901   1.629   4.091   3.360  0.1086 -1.0022 -0.0097
  933MOL0     H25902   1.616   4.341   3.364 -1.3607 -1.0721  1.5497
  933MOL0     H25903   1.612   4.337   3.183 -3.1042 -0.5817 -1.5727
  933MOL0     H25904   1.390   4.299   3.149  0.4250 -1.1952 -0.0361
  933MOL0     H25905   1.387   4.428   3.249 -0.9041 -0.2747 -0.3094
  933MOL0     H25906   1.232   4.107   3.229  1.1256  0.0271 -0.5674
  933MOL0     H25907   1.065   3.957   3.398 -1.4623  1.3060 -0.5125
  933MOL0     H25908   1.073   4.018   3.571  0.0222  1.7051  1.3270
  933MOL0     H25909   0.911   4.143   3.348  0.0467  1.3239 -0.3331
  933MOL0     H25910   0.902   4.173   3.527 -1.5047 -2.3764  1.9051
  933MOL0     H25911   0.870   3.906   3.525  2.2491  1.2945 -0.3524
  933MOL0     H25912   0.786   3.939   3.375  0.1856 -2.0655  1.0113
  933MOL0     H25913   0.635   4.092   3.487 -0.6358 -2.1024 -2.0571
  933MOL0     H25914   0.729   4.059   3.646 -0.5160  0.0333 -1.1690
  933MOL0     H25915   0.507   3.699   3.623  2.9803  2.1822 -1.3777
  933MOL0     H25916   0.398   3.566   3.824  1.5781  1.2895 -1.4578
  933MOL0     H25917   0.238   3.607   3.860 -0.7219  0.9767 -0.4897
  933MOL0     H25918   0.271   3.569   3.689 -1.9022  4.0423 -0.7140
  933MOL0     H25919  -0.093   3.970   3.852  1.6673  0.2472  0.6389
  933MOL0     H25920  -0.310   4.009   3.959 -0.0698  1.2393  1.8128
  933MOL0     H25921  -0.469   4.075   4.386  1.2405 -0.9014  1.5256
  933MOL0     H25922  -0.302   4.029   4.409 -0.5453  0.4834 -0.0115
  933MOL0     H25923  -0.296   4.286   4.429 -0.6743  0.7399  0.0681
  933MOL0     H25924  -0.245   4.252   4.270  1.0776 -0.4410  2.1347
  933MOL0     H25925  -0.525   4.316   4.349 -0.2598 -0.3032 -0.2807
  933MOL0     H25926  -0.481   4.250   4.193 -1.6996 -1.7900  2.3133
  933MOL0     H25927  -0.307   4.453   4.180  1.4605 -0.1221  0.9255
  933MOL0     H25928  -0.491   4.490   4.159  0.3222  2.9989  1.6894
  933MOL0     H25929  -0.314   4.560   4.391 -2.3423 -0.2533  3.0133
  933MOL0     H25930  -0.487   4.568   4.382  0.1282  2.1092  0.3996
  933MOL0     H25931  -0.294   4.730   4.228 -1.1092 -0.3084 -1.8991
  933MOL0     H25932  -0.451   4.702   4.165 -0.9365  1.3379  0.7603
  933MOL0     H25933  -0.391   4.815   4.435  3.6882  0.4626 -1.0343
  933MOL0     H25934  -0.557   4.800   4.361  0.0875  2.0832  0.3936
  933MOL0     H25935  -0.346   4.996   4.263 -1.8225  5.9588  1.3935
  933MOL0     H25936  -0.482   5.017   4.363 -0.1947  0.9136 -1.2371
  933MOL0     H25937  -0.109   4.023   4.348 -3.1239  0.0027  0.5304
  933MOL0     H25938   0.096   3.955   4.225  1.5648  2.2102 -0.8944
  933MOL0     H25939   0.290   4.084   3.827  1.7308  0.0877  1.3714
  933MOL0     H25940   0.469   4.112   3.680  0.4567  0.6643  0.5289
  933MOL0     H25941   2.399   3.982   3.305  1.0903  0.5363 -0.7802
  933MOL0     H25942   2.613   3.847   3.259  2.2209  0.4026 -3.2907
  933MOL0     H25943   3.224   4.034   3.335  2.9263  0.6767 -0.5134
  933MOL0     H25944   3.398   3.893   3.298  0.0488  0.8933 -0.0469
  933MOL0     H25945   3.322   3.473   3.173 -0.4618 -0.8404 -1.8010
  933MOL0     H25946   3.401   3.552   3.032 -2.2842 -1.3590 -0.0653
  933MOL0     H25947   3.503   3.352   3.157 -0.5843  0.5933 -1.9351
  933MOL0     H25948   3.537   3.469   3.287  3.1123  0.2454 -0.9041
  933MOL0     H25949   3.697   3.593   3.177 -1.3509  0.6648 -0.3723
  933MOL0     H25950   3.633   3.528   3.017 -0.1768  0.2977  0.3068
  933MOL0     H25951   3.709   3.296   3.100 -3.4252 -0.1047  0.2177
  933MOL0     H25952   3.805   3.393   3.221 -2.5599 -3.4479  0.7145
  933MOL0     H25953   4.044   3.412   2.878  1.5314 -2.3682  1.1594
  933MOL0     H25954   3.153   3.614   3.091  0.1967 -0.0146  1.6234
  933MOL0     H25955   2.957   3.757   3.128 -0.5197  0.9629 -0.6124
  934MOL0     O25956  10.147   1.406   4.725  0.0702 -0.6510 -0.4204
  934MOL0     C25957  10.170   1.466   4.614 -0.3694  0.2443 -0.3423
  934MOL0     O25958  10.210   1.401   4.499 -0.1846  0.3916 -0.1548
  934MOL0     C25959  10.211   1.262   4.514 -0.1197 -0.4644  0.6618
  934MOL0     C25960  10.300   1.191   4.592 -0.2726 -0.4987  0.2475
  934MOL0     C25961  10.285   1.060   4.620  0.5353  1.0820 -0.3645
  934MOL0     C25962  10.170   0.985   4.575  0.9319  0.3940  0.2587
  934MOL0     O25963  10.148   0.853   4.599  0.0540  0.0395  0.1512
  934MOL0     C25964  10.239   0.783   4.685  0.1702  0.3620 -0.5173
  934MOL0     C25965  10.190   0.644   4.729  0.6751 -0.8849 -0.3720
  934MOL0     C25966  10.042   0.651   4.785  0.2214  0.6417  0.5062
  934MOL0     C25967   9.931   0.612   4.677 -0.2465  0.5098 -0.5665
  934MOL0     C25968   9.788   0.644   4.734 -0.1828 -0.3860  0.1620
  934MOL0     C25969   9.774   0.786   4.781 -0.5856  0.2588  0.1239
  934MOL0     C25970   9.622   0.818   4.782  0.6950 -0.4992  0.0362
  934MOL0     C25971   9.552   0.828   4.649 -0.4539 -0.2050 -0.5679
  934MOL0     N25972   9.449   0.935   4.672  1.0745 -1.0192 -0.4779
  934MOL0     C25973   9.476   1.070   4.661 -0.3935 -0.1911 -0.1910
  934MOL0     C25974   9.362   1.133   4.700 -0.4647  0.1365  0.4624
  934MOL0     C25975   9.344   1.282   4.666 -0.4718  0.6164 -0.8796
  934MOL0     C25976   9.229   1.340   4.754 -0.3188 -0.1940 -0.6441
  934MOL0     C25977   9.088   1.332   4.675 -0.1877 -0.5807 -0.2367
  934MOL0     C25978   8.984   1.408   4.765  0.2465  0.2371 -0.6378
  934MOL0     O25979   8.860   1.416   4.693 -0.0562  0.5892  0.0307
  934MOL0     C25980   8.735   1.422   4.755 -0.2604 -0.0073 -0.5757
  934MOL0     C25981   8.714   1.412   4.893  0.3891  0.0519 -0.5132
  934MOL0     C25982   8.577   1.417   4.943 -1.0749  0.6683 -0.7280
  934MOL0     C25983   8.569   1.409   5.093  0.5610 -0.0214  0.6788
  934MOL0     C25984   8.467   1.414   4.850 -0.3681 -0.2758  1.0037
  934MOL0     C25985   8.329   1.402   4.893  0.2014 -0.1406 -0.4196
  934MOL0     O25986   8.239   1.457   4.807 -0.1766 -0.6542 -0.0950
  934MOL0     C25987   8.112   1.494   4.836  0.0411  0.0570  0.0137
  934MOL0     C25988   8.085   1.635   4.823  0.0351 -0.0291  0.2326
  934MOL0     C25989   7.957   1.679   4.853  0.0105 -0.0754  0.9322
  934MOL0     C25990   7.865   1.597   4.913  0.1876  0.3692  0.0275
  934MOL0     O25991   7.749   1.662   4.937 -0.2097 -0.4963  0.1030
  934MOL0     C25992   7.672   1.622   5.052  0.2064  0.5243 -0.5353
  934MOL0     C25993   7.565   1.511   5.025 -0.1573 -0.5298  0.2049
  934MOL0     C25994   7.424   1.571   5.033 -0.2447 -0.5934  0.5465
  934MOL0     C25995   7.365   1.549   5.171 -0.2354  0.2316 -0.8947
  934MOL0     C25996   7.214   1.599   5.175 -0.3996 -0.3621  0.0475
  934MOL0     C25997   7.158   1.599   5.318 -0.5912  0.0604 -1.2597
  934MOL0     C25998   7.130   1.464   5.379 -0.4561 -0.0298 -0.3014
  934MOL0     C25999   7.030   1.381   5.295  0.4665  0.3443  0.4620
  934MOL0    Cl26000   6.874   1.466   5.285  0.6170  0.4424 -0.4525
  934MOL0     C26001   7.896   1.459   4.934 -0.0202  0.3985  0.1760
  934MOL0     C26002   8.013   1.410   4.885 -0.1962  0.2164 -0.7233
  934MOL0     O26003   8.298   1.356   5.003 -0.3005  0.3141 -0.3007
  934MOL0     C26004   8.498   1.407   4.713 -0.0934  0.7562  0.0985
  934MOL0     C26005   8.629   1.427   4.671 -0.1324  0.6972  0.2852
  934MOL0     N26006   9.269   1.036   4.726  0.4320 -0.0647  0.2657
  934MOL0     N26007   9.321   0.922   4.712 -0.2517 -0.1012 -0.0993
  934MOL0     C26008  10.081   1.052   4.483 -0.0730 -0.8569  0.1182
  934MOL0     C26009  10.109   1.188   4.457  0.8398  0.6151  0.8207
  934MOL0     C26010  10.148   1.607   4.602 -0.2241 -0.1253 -0.4604
  934MOL0     C26011  10.070   1.669   4.697 -0.3386  0.1888 -0.2127
  934MOL0     C26012  10.063   1.814   4.703  0.0859 -0.1107 -0.0400
  934MOL0     C26013  10.131   1.899   4.612  0.0151 -0.1643 -0.2351
  934MOL0     O26014  10.121   2.036   4.603  0.1776  0.0168  0.4243
  934MOL0     C26015  10.067   2.110   4.713  0.5719 -0.6554  0.2444
  934MOL0     C26016  10.114   2.256   4.705  0.0818 -0.2137  0.0072
  934MOL0     C26017  10.262   2.266   4.728 -0.5162  0.1217  0.6051
  934MOL0     C26018  10.305   2.406   4.739  0.5160  0.0747 -0.9245
  934MOL0     C26019  10.305   2.464   4.604 -0.1230  0.0843 -0.1179
  934MOL0     C26020  10.304   2.505   4.494 -0.2837 -0.0375  0.0524
  934MOL0     C26021  10.201   1.831   4.509  0.3526 -0.6420 -0.4362
  934MOL0     C26022  10.205   1.689   4.497 -0.3690 -0.5811 -0.2344
  934MOL0     H26023  10.388   1.245   4.626  0.2219 -1.2357  0.1727
  934MOL0     H26024  10.365   1.016   4.679 -0.5200  0.5539  0.7172
  934MOL0     H26025  10.335   0.778   4.633  0.3661  0.4545 -0.1722
  934MOL0     H26026  10.253   0.838   4.779  0.3622 -2.9986  1.5903
  934MOL0     H26027  10.196   0.584   4.637 -0.9852 -0.5178 -0.7539
  934MOL0     H26028  10.245   0.596   4.811  0.4254 -1.0940 -0.3249
  934MOL0     H26029  10.036   0.581   4.869 -0.5186 -0.4991 -0.4723
  934MOL0     H26030  10.024   0.753   4.820  0.0985  0.9851 -0.5296
  934MOL0     H26031   9.961   0.649   4.579  1.7855 -1.4564 -0.7628
  934MOL0     H26032   9.934   0.504   4.664 -1.7823  0.3159  0.4090
  934MOL0     H26033   9.710   0.626   4.659 -0.7056 -0.7729  0.7815
  934MOL0     H26034   9.783   0.571   4.815  2.5271 -1.5257 -0.5930
  934MOL0     H26035   9.809   0.798   4.884  0.9654  0.5526 -0.4103
  934MOL0     H26036   9.833   0.854   4.718 -3.4486  1.9573 -0.8941
  934MOL0     H26037   9.559   0.752   4.841  0.6641 -0.9505 -0.4909
  934MOL0     H26038   9.640   0.913   4.833  1.8550 -0.6415 -0.0712
  934MOL0     H26039   9.516   0.729   4.619  1.4210 -1.2519  0.4647
  934MOL0     H26040   9.620   0.862   4.570 -0.7864  3.6210  0.5786
  934MOL0     H26041   9.567   1.119   4.629 -1.0013  0.1137 -1.5236
  934MOL0     H26042   9.435   1.334   4.698 -0.7104  0.4602  0.0839
  934MOL0     H26043   9.321   1.288   4.560  1.5968  0.3216 -1.3781
  934MOL0     H26044   9.247   1.443   4.785 -1.1607  0.3690 -1.9393
  934MOL0     H26045   9.211   1.278   4.843 -2.7364  0.4562 -0.6106
  934MOL0     H26046   9.063   1.226   4.677  1.3002 -0.9634  1.6317
  934MOL0     H26047   9.092   1.374   4.574 -2.2077 -2.0577 -0.9951
  934MOL0     H26048   9.021   1.510   4.777  1.4928 -0.3350  0.7125
  934MOL0     H26049   8.978   1.341   4.851  2.3898  0.2101 -0.4436
  934MOL0     H26050   8.796   1.414   4.964 -0.4469  2.8655  0.5255
  934MOL0     H26051   8.537   1.308   5.121 -0.5544 -0.1418 -0.9074
  934MOL0     H26052   8.660   1.436   5.147  2.1072 -0.0786 -1.7727
  934MOL0     H26053   8.493   1.480   5.127  0.5982  1.3670 -1.8664
  934MOL0     H26054   8.161   1.702   4.783  1.3663 -1.2660  0.6294
  934MOL0     H26055   7.931   1.780   4.821  0.2729 -0.3799 -0.2847
  934MOL0     H26056   7.751   1.584   5.118 -0.3349  1.6980  0.8444
  934MOL0     H26057   7.620   1.707   5.097  0.3022 -0.4182  1.4431
  934MOL0     H26058   7.567   1.481   4.920 -0.9792  2.9831 -0.9167
  934MOL0     H26059   7.589   1.431   5.097  0.9375 -0.9353 -0.5865
  934MOL0     H26060   7.356   1.511   4.972 -0.8386 -0.3695  0.9732
  934MOL0     H26061   7.423   1.676   5.001  1.1201 -1.2417 -1.9218
  934MOL0     H26062   7.362   1.442   5.194 -0.4864  0.2569 -0.8162
  934MOL0     H26063   7.433   1.593   5.245 -0.7089  3.0633 -2.0106
  934MOL0     H26064   7.146   1.542   5.111 -0.8900  0.4470 -0.1606
  934MOL0     H26065   7.195   1.692   5.121 -2.1403 -1.2576 -0.9817
  934MOL0     H26066   7.214   1.661   5.388 -0.9009 -0.3242 -0.6684
  934MOL0     H26067   7.062   1.652   5.311 -0.0052  1.3953  0.2878
  934MOL0     H26068   7.084   1.496   5.473  1.4431 -0.5227  0.8625
  934MOL0     H26069   7.229   1.421   5.399  0.3565  1.9144  0.0157
  934MOL0     H26070   7.033   1.286   5.349 -0.9978 -0.0824 -0.1532
  934MOL0     H26071   7.057   1.375   5.189 -0.1731 -1.5257  0.3657
  934MOL0     H26072   7.816   1.393   4.967 -0.3350  0.6580 -0.0584
  934MOL0     H26073   8.048   1.309   4.908  1.4221  0.5341 -1.6155
  934MOL0     H26074   8.410   1.401   4.649 -2.0708 -2.6926  2.7562
  934MOL0     H26075   8.629   1.435   4.563 -0.3613  1.1766  0.3161
  934MOL0     H26076   9.991   1.004   4.447 -1.9042  0.7958  2.2723
  934MOL0     H26077  10.038   1.244   4.398  3.1294  1.5806 -1.1925
  934MOL0     H26078  10.018   1.619   4.779 -0.8552  1.5573  0.3229
  934MOL0     H26079   9.993   1.863   4.770  0.5672  1.4853 -0.6354
  934MOL0     H26080   9.958   2.098   4.706  0.0826  1.5611  2.4430
  934MOL0     H26081  10.090   2.073   4.814  0.2064  0.6103  0.8060
  934MOL0     H26082  10.055   2.315   4.775 -1.4468  0.5710 -1.8565
  934MOL0     H26083  10.093   2.290   4.603 -0.5331  0.5559  0.3822
  934MOL0     H26084  10.325   2.217   4.653  4.3005  2.0654  2.9221
  934MOL0     H26085  10.275   2.212   4.823  0.0663 -2.0059 -0.6191
  934MOL0     H26086  10.401   2.413   4.791  0.4948  0.1981 -0.9035
  934MOL0     H26087  10.236   2.456   4.808  0.7336 -0.6089 -0.1849
  934MOL0     H26088  10.304   2.547   4.396 -2.1897  0.0826  0.0681
  934MOL0     H26089  10.257   1.884   4.433 -2.7004 -0.5403 -2.8282
  934MOL0     H26090  10.283   1.651   4.431  0.4708  2.3476 -1.0844
  935MOL0     O26091   7.219   0.704   7.548 -0.1857 -0.5865 -0.4570
  935MOL0     C26092   7.253   0.707   7.672  0.4478 -0.7316 -0.0447
  935MOL0     O26093   7.164   0.731   7.768  0.1579 -0.1675  0.0306
  935MOL0     C26094   7.036   0.782   7.743  0.1178 -0.2635  0.1388
  935MOL0     C26095   7.012   0.907   7.792 -1.0259 -0.0407  0.1384
  935MOL0     C26096   6.896   0.982   7.760 -0.2398 -0.3028 -0.0854
  935MOL0     C26097   6.793   0.913   7.693  0.6469  0.5732 -0.4655
  935MOL0     O26098   6.677   0.988   7.673  0.3396  0.2516  0.2481
  935MOL0     C26099   6.546   0.934   7.674  0.2508  0.9213  0.7187
  935MOL0     C26100   6.514   0.849   7.792  0.4906  0.6028  0.2371
  935MOL0     C26101   6.394   0.761   7.786  0.0131 -0.4328  0.2784
  935MOL0     C26102   6.254   0.835   7.804 -0.4612  0.2697  0.1820
  935MOL0     C26103   6.232   0.867   7.947 -0.5365 -0.1042  0.2579
  935MOL0     C26104   6.096   0.934   7.970 -0.2210  0.2610  0.2225
  935MOL0     C26105   6.088   0.974   8.119  0.5925  0.1516  0.9006
  935MOL0     C26106   6.189   1.072   8.185  0.8858  0.1404 -0.7474
  935MOL0     N26107   6.173   1.202   8.123  0.8567 -0.0065 -0.9933
  935MOL0     C26108   6.263   1.253   8.035  0.1342  0.2644 -0.2980
  935MOL0     C26109   6.244   1.390   8.041  0.4528 -0.1258  0.1548
  935MOL0     C26110   6.328   1.501   7.973 -0.2284  0.0704  0.5612
  935MOL0     C26111   6.352   1.463   7.832  0.5873  0.3134 -0.2140
  935MOL0     C26112   6.442   1.574   7.767  0.1678  0.8859 -0.5259
  935MOL0     C26113   6.439   1.569   7.613  0.1743  0.8788  0.8068
  935MOL0     O26114   6.498   1.436   7.578 -0.3909 -0.4315  0.2215
  935MOL0     C26115   6.632   1.417   7.578  0.3051  0.0374  0.4509
  935MOL0     C26116   6.731   1.519   7.588 -0.4649 -1.0358  0.6433
  935MOL0     C26117   6.869   1.499   7.584  0.0453 -0.5699 -0.6934
  935MOL0     C26118   6.956   1.614   7.587 -0.2854 -0.8097  0.0558
  935MOL0     C26119   6.920   1.367   7.582 -0.0178  0.4597 -0.3964
  935MOL0     C26120   7.067   1.328   7.579 -0.5797  0.1233 -0.2004
  935MOL0     O26121   7.094   1.200   7.612 -0.0488  0.0901  0.2805
  935MOL0     C26122   7.219   1.185   7.662 -0.9096 -0.1786 -0.4814
  935MOL0     C26123   7.284   1.070   7.632  0.2581  0.3822 -0.4806
  935MOL0     C26124   7.410   1.044   7.690  0.5557 -0.8015 -0.3960
  935MOL0     C26125   7.481   1.140   7.770 -0.3820 -1.0814  0.2723
  935MOL0     O26126   7.606   1.114   7.810  0.3249  0.5838  0.0217
  935MOL0     C26127   7.666   0.976   7.825  0.6376 -0.3340  0.2451
  935MOL0     C26128   7.810   1.007   7.865 -0.2243  0.2624 -0.6261
  935MOL0     C26129   7.895   0.884   7.874  0.2908 -0.3013 -1.0859
  935MOL0     C26130   8.041   0.914   7.894  0.0185  0.2084  0.3214
  935MOL0     C26131   8.064   0.970   8.030  0.3296  0.2342 -0.6644
  935MOL0     C26132   8.202   0.933   8.076  0.7442  0.0457  0.0697
  935MOL0     C26133   8.240   0.988   8.213  0.5227 -0.1218 -0.5065
  935MOL0     C26134   8.360   0.898   8.268 -0.0438 -0.3787 -0.0906
  935MOL0    Cl26135   8.514   0.907   8.162 -0.0157  0.0941  0.0061
  935MOL0     C26136   7.406   1.255   7.808  1.3033 -0.3270  0.8551
  935MOL0     C26137   7.275   1.275   7.756 -0.3256 -0.0968  0.0311
  935MOL0     O26138   7.142   1.406   7.524 -0.1759  0.0055  0.1236
  935MOL0     C26139   6.824   1.261   7.584 -0.2775 -0.4223 -0.1433
  935MOL0     C26140   6.682   1.290   7.572  0.9276  0.8285  0.4774
  935MOL0     N26141   6.133   1.413   8.125 -0.4078  0.1870 -0.3278
  935MOL0     N26142   6.096   1.299   8.178 -0.0695 -0.1510 -0.0144
  935MOL0     C26143   6.812   0.783   7.641  0.2842  0.2148  0.5230
  935MOL0     C26144   6.928   0.715   7.671  0.1197 -0.0665  0.0918
  935MOL0     C26145   7.399   0.686   7.704  0.1393 -0.5097 -0.2737
  935MOL0     C26146   7.425   0.675   7.844  0.0132 -0.1592  0.6406
  935MOL0     C26147   7.549   0.632   7.882  0.5438 -0.1184 -0.1739
  935MOL0     C26148   7.647   0.598   7.784  0.1587 -0.0178 -0.1259
  935MOL0     O26149   7.769   0.544   7.821 -0.5474  0.3705 -0.0200
  935MOL0     C26150   7.797   0.548   7.956 -1.0196  0.3739 -0.1790
  935MOL0     C26151   7.948   0.512   7.966  0.8298  0.0486 -0.0296
  935MOL0     C26152   7.984   0.494   8.108 -0.6820  0.2625  0.2484
  935MOL0     C26153   8.125   0.480   8.129  0.1147 -0.0390  0.2322
  935MOL0     C26154   8.148   0.405   8.253  0.1298  0.2204 -0.6763
  935MOL0     C26155   8.183   0.321   8.340  0.8870 -0.9514 -0.1629
  935MOL0     C26156   7.621   0.625   7.654  0.4857  0.3101  0.7832
  935MOL0     C26157   7.495   0.660   7.610  0.0195 -0.5245 -0.7955
  935MOL0     H26158   7.094   0.948   7.851  0.7476 -2.1003 -0.7464
  935MOL0     H26159   6.884   1.086   7.788 -0.3098 -0.1196 -0.7627
  935MOL0     H26160   6.471   1.013   7.663 -0.5810  0.7432  3.9406
  935MOL0     H26161   6.534   0.866   7.589  1.3621 -0.9905  2.0107
  935MOL0     H26162   6.588   0.770   7.807 -2.8067 -2.6169  0.7906
  935MOL0     H26163   6.511   0.907   7.884 -3.5564 -1.7097  1.8016
  935MOL0     H26164   6.388   0.712   7.688  0.2974  0.9559 -0.4700
  935MOL0     H26165   6.403   0.683   7.861 -0.5980 -1.7980 -1.0156
  935MOL0     H26166   6.243   0.921   7.737 -0.9057 -0.5647 -0.8473
  935MOL0     H26167   6.178   0.769   7.760 -2.2606  2.6805 -0.5426
  935MOL0     H26168   6.236   0.774   8.005  1.9351  0.9118  1.8825
  935MOL0     H26169   6.307   0.939   7.980  1.0727 -1.5778 -0.0593
  935MOL0     H26170   6.090   1.018   7.900  2.1264  0.9532  0.7415
  935MOL0     H26171   6.020   0.858   7.950 -0.3888  0.9251 -2.0103
  935MOL0     H26172   5.993   1.026   8.134 -0.7968 -1.0749 -2.6880
  935MOL0     H26173   6.074   0.892   8.191 -0.3041 -0.5449 -0.0343
  935MOL0     H26174   6.289   1.034   8.162  0.4957 -1.9463  0.7503
  935MOL0     H26175   6.157   1.071   8.290 -2.2060 -1.4853 -1.5855
  935MOL0     H26176   6.343   1.205   7.980  0.4972  1.1363 -0.5586
  935MOL0     H26177   6.274   1.597   7.978  0.1803  0.2768  1.1056
  935MOL0     H26178   6.417   1.519   8.034 -0.1895 -2.3983  1.3435
  935MOL0     H26179   6.253   1.460   7.786 -0.9720  0.8606  2.8760
  935MOL0     H26180   6.403   1.367   7.830  1.9628  0.8373  3.0851
  935MOL0     H26181   6.544   1.560   7.804 -0.0197 -0.2132 -0.4116
  935MOL0     H26182   6.410   1.672   7.803  0.3636  0.6388  0.3388
  935MOL0     H26183   6.494   1.653   7.569  0.8751  1.8372  3.3853
  935MOL0     H26184   6.336   1.573   7.574 -0.2666 -2.5868  1.2853
  935MOL0     H26185   6.702   1.623   7.580 -1.1279 -1.0386  2.5964
  935MOL0     H26186   7.021   1.634   7.501  0.9152 -1.6004  0.7380
  935MOL0     H26187   6.904   1.708   7.605 -0.7488 -0.8105 -1.2318
  935MOL0     H26188   7.026   1.606   7.671  1.7563  2.0481 -1.1975
  935MOL0     H26189   7.238   0.991   7.573  2.4619 -0.1861 -1.5369
  935MOL0     H26190   7.442   0.942   7.670 -0.5944 -0.7782 -2.6175
  935MOL0     H26191   7.613   0.918   7.901 -0.3428  0.0392 -0.1365
  935MOL0     H26192   7.657   0.925   7.728 -2.0003  0.4258  0.0039
  935MOL0     H26193   7.846   1.066   7.780 -3.7210 -0.2182 -2.6306
  935MOL0     H26194   7.808   1.062   7.960  2.8669 -0.5129 -0.0121
  935MOL0     H26195   7.891   0.819   7.785  0.0263 -0.2037 -1.1472
  935MOL0     H26196   7.861   0.829   7.962  2.9542  0.6658  0.6417
  935MOL0     H26197   8.091   0.819   7.873  1.3351  1.5382 -3.4792
  935MOL0     H26198   8.089   0.985   7.827 -0.2204 -0.9037 -1.0813
  935MOL0     H26199   7.995   0.937   8.108  1.3369  1.0860  0.6303
  935MOL0     H26200   8.055   1.078   8.020  0.3863  0.1562 -1.6051
  935MOL0     H26201   8.201   0.824   8.083  1.6763 -0.5520 -5.0950
  935MOL0     H26202   8.273   0.972   8.002  1.1501  0.2337  0.5510
  935MOL0     H26203   8.149   0.975   8.272 -0.7458  0.6550 -2.1877
  935MOL0     H26204   8.281   1.090   8.205  3.3116 -0.9846  1.3986
  935MOL0     H26205   8.332   0.799   8.304  1.3878 -0.3655  1.1600
  935MOL0     H26206   8.388   0.954   8.358 -0.2832  0.2073 -0.3745
  935MOL0     H26207   7.459   1.325   7.870  1.1066  0.3487  0.2726
  935MOL0     H26208   7.228   1.364   7.796  2.4832  0.9808  1.1436
  935MOL0     H26209   6.852   1.156   7.577  1.2161 -0.0771  0.3640
  935MOL0     H26210   6.607   1.212   7.559  0.9621  0.6008  1.5052
  935MOL0     H26211   6.731   0.730   7.590 -0.7654  1.4330  0.8857
  935MOL0     H26212   6.938   0.609   7.649 -3.1572 -0.3857 -0.4266
  935MOL0     H26213   7.352   0.702   7.920  0.0012 -0.5316  0.7639
  935MOL0     H26214   7.566   0.620   7.989  1.9233  2.5836  0.0039
  935MOL0     H26215   7.770   0.640   8.008 -3.4611  0.4296 -1.3933
  935MOL0     H26216   7.732   0.475   8.004 -0.5091  1.2713  2.0067
  935MOL0     H26217   8.005   0.597   7.928  0.6611  0.9543  1.6323
  935MOL0     H26218   7.958   0.428   7.897 -2.4553  0.1509 -0.8202
  935MOL0     H26219   7.940   0.400   8.145  1.5687 -0.7353  0.5400
  935MOL0     H26220   7.948   0.573   8.173  0.7245  0.6934  0.5251
  935MOL0     H26221   8.171   0.578   8.143  0.0061  0.0241  0.1473
  935MOL0     H26222   8.175   0.419   8.053  3.7714 -0.3957  2.6410
  935MOL0     H26223   8.210   0.247   8.412 -2.3115 -1.0825  1.0695
  935MOL0     H26224   7.702   0.612   7.583 -0.4140  0.4184 -0.3054
  935MOL0     H26225   7.473   0.681   7.506 -0.5391  0.9369 -0.4123
  936MOL0     O26226  11.179   7.137   5.952 -0.4474  0.0210  0.2819
  936MOL0     C26227  11.289   7.172   5.916  0.0374 -0.5168  0.4150
  936MOL0     O26228  11.349   7.134   5.805  0.2378  0.0780  1.0125
  936MOL0     C26229  11.303   7.022   5.742  0.0549 -0.4468  0.8929
  936MOL0     C26230  11.256   6.908   5.792 -0.3727 -0.7489 -0.1654
  936MOL0     C26231  11.235   6.800   5.710 -0.2725  0.6892  0.0910
  936MOL0     C26232  11.243   6.813   5.571 -0.7106  0.4676  0.0316
  936MOL0     O26233  11.197   6.718   5.474  0.0405 -0.1674  0.1154
  936MOL0     C26234  11.085   6.638   5.512 -0.2103 -0.9496 -0.4444
  936MOL0     C26235  10.990   6.633   5.391  0.0899  0.3411  0.1357
  936MOL0     C26236  10.925   6.768   5.363  0.0048 -0.0014 -0.1246
  936MOL0     C26237  10.825   6.801   5.475  0.1317  0.3222  0.2605
  936MOL0     C26238  10.733   6.926   5.445  0.0247 -0.5622  0.2624
  936MOL0     C26239  10.621   6.931   5.540 -0.2209  0.0490 -0.0798
  936MOL0     C26240  10.536   7.051   5.532  0.1512 -0.1910  0.6225
  936MOL0     C26241  10.448   7.073   5.650 -0.6875  0.5901  0.2153
  936MOL0     N26242  10.351   7.179   5.655  0.4618 -0.4815 -0.1654
  936MOL0     C26243  10.212   7.162   5.644  0.4408 -0.3981  0.5148
  936MOL0     C26244  10.168   7.293   5.646  0.2939  0.4183  0.6722
  936MOL0     C26245  10.030   7.340   5.653 -0.5147 -0.3129  0.8618
  936MOL0     C26246  10.011   7.492   5.689 -0.7237 -0.1481 -0.2499
  936MOL0     C26247  10.041   7.503   5.838 -0.2623  0.2787  0.1843
  936MOL0     C26248  10.014   7.638   5.892  0.9357 -0.5975  0.5705
  936MOL0     O26249   9.874   7.677   5.858 -0.0908  0.7871  0.1281
  936MOL0     C26250   9.840   7.800   5.818 -0.7671  0.5682 -0.7754
  936MOL0     C26251   9.930   7.908   5.804  0.4030 -0.0526  0.5981
  936MOL0     C26252   9.881   8.036   5.788  0.7646  0.8015 -0.1100
  936MOL0     C26253   9.978   8.146   5.797 -0.1353  0.2847  0.1928
  936MOL0     C26254   9.734   8.056   5.787  1.3517  0.1310  0.0140
  936MOL0     C26255   9.676   8.196   5.773 -0.7032  0.3353 -1.0046
  936MOL0     O26256   9.556   8.210   5.831 -0.0344 -0.1322 -0.4729
  936MOL0     C26257   9.480   8.320   5.812 -0.4391  0.1676  0.4521
  936MOL0     C26258   9.534   8.450   5.822 -0.0389 -0.5093 -0.2670
  936MOL0     C26259   9.458   8.560   5.790  0.6516 -0.3363  0.3873
  936MOL0     C26260   9.318   8.534   5.758  0.2638 -0.7703  0.1442
  936MOL0     O26261   9.233   8.636   5.727 -0.7220  0.2757 -0.1013
  936MOL0     C26262   9.273   8.762   5.690 -0.4161  0.0553 -0.4082
  936MOL0     C26263   9.160   8.858   5.668  0.6588  0.1014  0.5233
  936MOL0     C26264   9.194   8.999   5.626  0.2538 -0.7187  0.5857
  936MOL0     C26265   9.246   9.016   5.483 -0.0715  0.5319 -0.0704
  936MOL0     C26266   9.231   9.159   5.443 -0.2589 -0.6114  0.4372
  936MOL0     C26267   9.342   9.189   5.342 -0.0132 -0.2758 -0.0047
  936MOL0     C26268   9.347   9.333   5.314  0.3191 -0.3072 -0.1261
  936MOL0     C26269   9.476   9.370   5.252  0.4194 -0.3616  1.6310
  936MOL0    Cl26270   9.470   9.543   5.202 -0.1764  0.1634 -0.2640
  936MOL0     C26271   9.265   8.410   5.774 -0.4953 -0.2893 -0.7307
  936MOL0     C26272   9.345   8.298   5.798  0.6138 -0.8949 -0.9251
  936MOL0     O26273   9.728   8.264   5.689 -0.6581 -0.3284  0.0467
  936MOL0     C26274   9.645   7.942   5.801  0.3666 -0.2654  1.0879
  936MOL0     C26275   9.700   7.815   5.821  0.1457 -0.8611  0.9212
  936MOL0     N26276  10.271   7.379   5.643 -0.8219 -0.4305  0.5680
  936MOL0     N26277  10.374   7.310   5.650 -0.5243 -0.0179 -0.2815
  936MOL0     C26278  11.290   6.935   5.518 -0.2561 -0.0430 -0.0305
  936MOL0     C26279  11.332   7.033   5.606  0.0438  0.0161 -0.1510
  936MOL0     C26280  11.351   7.281   5.998  0.1440  0.5847 -0.5013
  936MOL0     C26281  11.476   7.328   5.958 -0.3939  0.4857 -0.6356
  936MOL0     C26282  11.532   7.440   6.021 -0.4009 -0.2608  0.7039
  936MOL0     C26283  11.468   7.509   6.122 -0.3776  0.1145 -0.3231
  936MOL0     O26284  11.529   7.614   6.189 -0.0015  0.4006 -0.2187
  936MOL0     C26285  11.442   7.716   6.237  0.1202  0.0709 -0.7510
  936MOL0     C26286  11.515   7.771   6.363  0.5767 -0.2510  0.3300
  936MOL0     C26287  11.521   7.683   6.482 -0.9403  0.1479 -0.2750
  936MOL0     C26288  11.390   7.616   6.518  0.0121 -0.4639 -0.1309
  936MOL0     C26289  11.276   7.705   6.531  0.1324  0.1689  0.4482
  936MOL0     C26290  11.186   7.777   6.534  0.2684 -0.2035  0.3074
  936MOL0     C26291  11.351   7.449   6.174 -0.2892 -0.2999  0.4110
  936MOL0     C26292  11.296   7.344   6.106  0.5183 -0.8936  0.6215
  936MOL0     H26293  11.245   6.902   5.900  1.5733 -0.9032  0.0531
  936MOL0     H26294  11.194   6.706   5.746 -0.2781  0.7633  0.2746
  936MOL0     H26295  11.116   6.536   5.538 -2.0584 -1.1775  1.0696
  936MOL0     H26296  11.034   6.686   5.595  0.4491 -0.2919 -0.4114
  936MOL0     H26297  11.054   6.614   5.305 -0.1759 -0.7763  0.1680
  936MOL0     H26298  10.918   6.551   5.403 -1.7359  1.5368 -1.8747
  936MOL0     H26299  11.003   6.843   5.346 -0.1482  0.1218 -0.2825
  936MOL0     H26300  10.864   6.755   5.273  1.2306 -1.7934 -0.7540
  936MOL0     H26301  10.758   6.714   5.484  1.3727 -0.9251 -1.7936
  936MOL0     H26302  10.867   6.813   5.575  0.0183  1.3653  0.1955
  936MOL0     H26303  10.797   7.014   5.458 -0.6839 -0.1806  1.4016
  936MOL0     H26304  10.688   6.922   5.345  0.8265 -1.2052 -0.0816
  936MOL0     H26305  10.551   6.849   5.521  0.5318 -0.3658 -1.1908
  936MOL0     H26306  10.668   6.921   5.638  1.0716  0.9099 -0.5829
  936MOL0     H26307  10.602   7.136   5.513  0.5667 -0.7232 -0.4338
  936MOL0     H26308  10.474   7.035   5.443 -0.3289 -0.7813  1.0508
  936MOL0     H26309  10.506   7.087   5.742 -2.4798 -0.3479  1.5755
  936MOL0     H26310  10.400   6.975   5.662 -1.3117  0.5071 -2.4037
  936MOL0     H26311  10.161   7.066   5.644  0.4502 -0.4719  2.8272
  936MOL0     H26312   9.999   7.318   5.550 -1.0188  2.2671  0.4033
  936MOL0     H26313   9.981   7.270   5.722 -0.5713 -1.4913 -0.3267
  936MOL0     H26314   9.908   7.529   5.678 -0.2492  1.5578  0.7010
  936MOL0     H26315  10.079   7.551   5.627  1.7584 -2.5877 -0.0585
  936MOL0     H26316  10.147   7.481   5.856  0.4530  0.7716 -2.7784
  936MOL0     H26317   9.975   7.428   5.881 -3.2617  1.0806 -2.5976
  936MOL0     H26318  10.088   7.701   5.842  0.6064 -1.7093 -1.4173
  936MOL0     H26319  10.028   7.641   6.001 -2.0551 -4.9521  1.3440
  936MOL0     H26320  10.035   7.885   5.791  0.6163 -1.1997  3.6466
  936MOL0     H26321   9.968   8.222   5.719  1.1008 -0.9378 -1.2196
  936MOL0     H26322   9.965   8.185   5.899  1.5311 -0.7111  0.8301
  936MOL0     H26323  10.077   8.101   5.783  0.3126  0.7447  1.6334
  936MOL0     H26324   9.637   8.486   5.821 -0.2352  0.0597 -0.1742
  936MOL0     H26325   9.505   8.658   5.786 -1.0039  0.4693 -0.4033
  936MOL0     H26326   9.344   8.804   5.762  1.1387 -0.3491 -1.6521
  936MOL0     H26327   9.330   8.744   5.598  0.3326  0.1339  0.0354
  936MOL0     H26328   9.096   8.808   5.595  0.5833  0.3048  0.4497
  936MOL0     H26329   9.106   8.875   5.762 -1.3226 -0.9709 -0.3495
  936MOL0     H26330   9.265   9.042   5.698  0.1491  1.5443 -0.5624
  936MOL0     H26331   9.104   9.061   5.627 -1.1586 -2.6682  0.0294
  936MOL0     H26332   9.351   8.983   5.484 -0.4393 -0.8061  1.9858
  936MOL0     H26333   9.195   8.945   5.417 -0.3658 -0.7601  1.4700
  936MOL0     H26334   9.227   9.227   5.528  0.4043  0.2554 -0.2156
  936MOL0     H26335   9.135   9.173   5.393  0.4847  2.5650 -0.2997
  936MOL0     H26336   9.435   9.164   5.393 -0.1771 -1.0539 -0.0705
  936MOL0     H26337   9.322   9.129   5.253 -0.1571 -0.8722  0.4152
  936MOL0     H26338   9.336   9.383   5.411 -1.4253 -0.0970 -0.3937
  936MOL0     H26339   9.265   9.366   5.249 -0.7669  1.0778  1.8363
  936MOL0     H26340   9.486   9.310   5.161 -1.6345 -0.7112  1.5973
  936MOL0     H26341   9.561   9.344   5.315  1.5180 -1.4678 -0.2162
  936MOL0     H26342   9.158   8.395   5.760 -1.2739  3.0873  0.5761
  936MOL0     H26343   9.296   8.203   5.819 -0.4441 -0.4207 -1.1680
  936MOL0     H26344   9.539   7.955   5.816  0.6693  0.4674  2.8045
  936MOL0     H26345   9.635   7.730   5.843 -0.7038  0.3300  3.4475
  936MOL0     H26346  11.301   6.949   5.411  1.0658 -2.1799 -0.2312
  936MOL0     H26347  11.376   7.126   5.570 -1.4964  1.7195  2.0397
  936MOL0     H26348  11.532   7.277   5.880 -0.0459 -3.4410  1.8600
  936MOL0     H26349  11.625   7.470   5.974 -2.5006  3.7095 -1.4137
  936MOL0     H26350  11.442   7.787   6.154 -0.9148 -0.3606 -1.1361
  936MOL0     H26351  11.339   7.688   6.263  0.2795  0.2865  0.1700
  936MOL0     H26352  11.462   7.864   6.387 -1.5976 -1.8354  2.1683
  936MOL0     H26353  11.621   7.789   6.341  0.5628 -1.3545 -0.6924
  936MOL0     H26354  11.563   7.738   6.566  0.3321 -0.3369 -0.5642
  936MOL0     H26355  11.600   7.611   6.457  1.0290  3.2087 -3.8920
  936MOL0     H26356  11.398   7.563   6.614 -0.6266 -2.4205 -1.0935
  936MOL0     H26357  11.374   7.531   6.451  1.7079  0.3647 -1.6835
  936MOL0     H26358  11.108   7.843   6.506  2.5466  1.7786 -1.8698
  936MOL0     H26359  11.307   7.486   6.266  0.5620  0.1832  0.6330
  936MOL0     H26360  11.205   7.305   6.151 -1.1262  2.8076  0.9019
  937MOL0     O26361   1.389   7.585  10.968 -0.2155  0.7003  0.4413
  937MOL0     C26362   1.412   7.666  11.053  0.3144 -0.6198 -0.2620
  937MOL0     O26363   1.330   7.707  11.159 -0.4283 -0.2209  0.0953
  937MOL0     C26364   1.201   7.667  11.162 -0.5177 -0.2488  0.3569
  937MOL0     C26365   1.116   7.634  11.057 -0.1493  0.4484  0.1941
  937MOL0     C26366   0.987   7.597  11.071  0.0685  0.0752  0.2490
  937MOL0     C26367   0.939   7.579  11.198 -0.7312 -0.6685  0.6290
  937MOL0     O26368   0.820   7.524  11.205 -0.5581  0.1990  0.4459
  937MOL0     C26369   0.720   7.619  11.240 -0.0521 -0.0336  0.4024
  937MOL0     C26370   0.599   7.535  11.282 -0.9506  0.2839  0.5334
  937MOL0     C26371   0.495   7.621  11.358 -0.0936  0.0577 -1.0572
  937MOL0     C26372   0.364   7.530  11.386 -1.4634 -0.5285 -0.6285
  937MOL0     C26373   0.268   7.590  11.486  0.0348 -0.4865  0.9164
  937MOL0     C26374   0.143   7.497  11.479 -0.5726 -0.2768 -0.4206
  937MOL0     C26375   0.023   7.564  11.539 -0.2377 -0.2048 -0.7049
  937MOL0     C26376  -0.089   7.462  11.566  0.8956 -0.0429 -0.6281
  937MOL0     N26377  -0.219   7.526  11.572  0.0708 -0.4285 -0.2332
  937MOL0     C26378  -0.262   7.611  11.669 -0.9212 -0.6832  0.1309
  937MOL0     C26379  -0.397   7.620  11.664 -0.4537 -0.1104  1.0445
  937MOL0     C26380  -0.482   7.685  11.771  0.2459  0.2716  0.4879
  937MOL0     C26381  -0.595   7.764  11.708  0.4444 -0.6380 -0.8319
  937MOL0     C26382  -0.701   7.800  11.806  0.1916 -0.3605 -0.6927
  937MOL0     C26383  -0.781   7.917  11.754  0.5350  0.1638 -0.4526
  937MOL0     O26384  -0.877   7.958  11.857  0.1630  0.7448 -0.0146
  937MOL0     C26385  -0.980   8.033  11.823  0.1721 -0.2226 -0.3947
  937MOL0     C26386  -1.080   8.053  11.923  0.2181 -0.1550  0.5586
  937MOL0     C26387  -1.204   8.111  11.901  0.2399  0.0772 -0.1286
  937MOL0     C26388  -1.299   8.120  12.016  0.9670  0.5678  0.6833
  937MOL0     C26389  -1.223   8.161  11.770  0.7205 -0.2505 -0.0231
  937MOL0     C26390  -1.356   8.221  11.729 -0.3538  0.5674 -0.6954
  937MOL0     O26391  -1.371   8.274  11.607 -0.2010 -0.4431  0.7597
  937MOL0     C26392  -1.482   8.347  11.566 -0.9337  0.4644  0.5520
  937MOL0     C26393  -1.553   8.433  11.654  0.4773  0.2022 -0.0265
  937MOL0     C26394  -1.664   8.508  11.607 -0.1499 -0.7723 -0.8818
  937MOL0     C26395  -1.710   8.489  11.477 -0.4150  0.1501  0.3695
  937MOL0     O26396  -1.812   8.566  11.414 -0.5184  0.4021  0.4649
  937MOL0     C26397  -1.895   8.647  11.496 -0.2338  0.3160  0.5599
  937MOL0     C26398  -2.017   8.696  11.415  0.2792 -0.1097  0.1124
  937MOL0     C26399  -2.116   8.793  11.483  0.0178  0.5211 -0.1261
  937MOL0     C26400  -2.252   8.797  11.412 -0.3270 -0.0403  0.1087
  937MOL0     C26401  -2.355   8.865  11.494  0.1031 -0.2110  0.2338
  937MOL0     C26402  -2.405   8.772  11.613 -0.8204 -0.4546  0.3474
  937MOL0     C26403  -2.528   8.843  11.673 -0.4941 -0.4791  0.3314
  937MOL0     C26404  -2.598   8.742  11.762  0.3645  0.5446  0.1117
  937MOL0    Cl26405  -2.750   8.822  11.815  0.1245 -0.3914 -0.0039
  937MOL0     C26406  -1.645   8.399  11.392  0.1874  0.4062 -0.8925
  937MOL0     C26407  -1.533   8.332  11.434  0.3371  0.5120 -0.7653
  937MOL0     O26408  -1.453   8.202  11.802 -0.0270 -0.3214  0.0203
  937MOL0     C26409  -1.128   8.149  11.674  0.0166 -0.6683  0.0866
  937MOL0     C26410  -1.014   8.078  11.698  0.3102 -0.6479 -0.4304
  937MOL0     N26411  -0.436   7.536  11.565 -0.0113  0.4795  0.9286
  937MOL0     N26412  -0.327   7.491  11.504  0.2758  0.6301  0.4243
  937MOL0     C26413   1.016   7.618  11.309 -0.2283 -0.1063  0.9459
  937MOL0     C26414   1.145   7.654  11.293 -0.1030 -0.0777 -0.0877
  937MOL0     C26415   1.552   7.696  11.063 -0.0094 -0.5764 -0.1478
  937MOL0     C26416   1.604   7.735  11.187  0.6240  0.2335  1.0696
  937MOL0     C26417   1.745   7.766  11.197  0.6138  0.6431 -0.5130
  937MOL0     C26418   1.830   7.764  11.093 -0.2038 -0.0123  0.6039
  937MOL0     O26419   1.957   7.796  11.130 -0.3170  0.1878 -0.0675
  937MOL0     C26420   2.050   7.777  11.020 -0.7274 -0.0057 -0.6485
  937MOL0     C26421   2.199   7.801  11.073  0.4046  0.5519 -1.0903
  937MOL0     C26422   2.302   7.735  10.982 -0.3676 -0.6918  0.5953
  937MOL0     C26423   2.447   7.754  11.043  0.4317 -0.2562 -0.4264
  937MOL0     C26424   2.552   7.678  10.969  0.4677  0.0098 -0.5532
  937MOL0     C26425   2.625   7.624  10.892  0.2687  0.6227  0.2227
  937MOL0     C26426   1.772   7.737  10.963 -0.2930 -0.4044 -0.8268
  937MOL0     C26427   1.638   7.698  10.952 -0.6215  0.5557 -0.1340
  937MOL0     H26428   1.152   7.655  10.957 -0.8162  1.8437  0.2216
  937MOL0     H26429   0.918   7.586  10.988  0.0214 -2.0059  0.5140
  937MOL0     H26430   0.750   7.691  11.317 -0.2308  2.1517 -1.4651
  937MOL0     H26431   0.696   7.676  11.149  0.4516 -0.4551  0.0058
  937MOL0     H26432   0.551   7.483  11.198 -0.2381  1.5003 -0.6821
  937MOL0     H26433   0.641   7.454  11.342 -2.6773 -1.4930 -0.5520
  937MOL0     H26434   0.552   7.654  11.446  0.7632  1.8903 -2.2316
  937MOL0     H26435   0.463   7.712  11.306 -2.3170 -1.2570 -2.1082
  937MOL0     H26436   0.319   7.526  11.286 -0.6045  0.8839 -1.1032
  937MOL0     H26437   0.396   7.426  11.398 -0.3178 -0.0803  0.4204
  937MOL0     H26438   0.319   7.599  11.582 -1.4850  1.3279  1.6075
  937MOL0     H26439   0.249   7.692  11.451  1.1536 -0.3636  0.6298
  937MOL0     H26440   0.116   7.457  11.381 -1.5332 -1.0443  0.1362
  937MOL0     H26441   0.177   7.410  11.537  0.3426  0.2937 -0.0654
  937MOL0     H26442   0.048   7.610  11.635  2.8133 -0.6746 -1.1680
  937MOL0     H26443  -0.015   7.637  11.467  0.0294 -0.4187 -1.0660
  937MOL0     H26444  -0.068   7.399  11.652  0.3546 -1.2550 -1.3568
  937MOL0     H26445  -0.093   7.397  11.478 -1.3342  1.8101 -2.0449
  937MOL0     H26446  -0.197   7.651  11.747 -0.0855  1.3469 -1.5074
  937MOL0     H26447  -0.531   7.604  11.825  2.4314 -1.3865  0.1029
  937MOL0     H26448  -0.419   7.747  11.836 -2.0788  4.2737 -0.6784
  937MOL0     H26449  -0.640   7.722  11.617  1.0349 -3.3391  0.0255
  937MOL0     H26450  -0.553   7.860  11.678 -2.7961  1.1595 -0.0041
  937MOL0     H26451  -0.645   7.826  11.897  1.4897 -0.2462 -1.4897
  937MOL0     H26452  -0.770   7.716  11.819 -0.1130 -0.0781 -0.4618
  937MOL0     H26453  -0.837   7.893  11.664  2.1697 -1.2816 -1.1367
  937MOL0     H26454  -0.707   7.996  11.736  3.0725 -1.7840  0.8760
  937MOL0     H26455  -1.056   7.999  12.014 -1.2191 -0.2442  0.9145
  937MOL0     H26456  -1.346   8.218  12.015  2.4666  1.3625 -2.0158
  937MOL0     H26457  -1.379   8.047  12.000 -4.3422  5.5258  1.2563
  937MOL0     H26458  -1.251   8.103  12.113  0.2302  1.3241  1.1921
  937MOL0     H26459  -1.512   8.442  11.755 -0.1318 -0.9543  0.3436
  937MOL0     H26460  -1.716   8.577  11.672 -0.6859 -2.4324  0.5268
  937MOL0     H26461  -1.930   8.588  11.582 -0.4700 -0.8370 -0.2957
  937MOL0     H26462  -1.848   8.738  11.533 -0.3627  0.4631  0.3588
  937MOL0     H26463  -1.987   8.740  11.319  1.4769 -0.3307  0.3778
  937MOL0     H26464  -2.072   8.606  11.388  2.5279 -1.4385 -0.2643
  937MOL0     H26465  -2.074   8.894  11.487  0.2915  0.3927  0.3258
  937MOL0     H26466  -2.108   8.760  11.587 -2.1270  0.1591 -0.0410
  937MOL0     H26467  -2.231   8.855  11.322  3.0073 -2.1692 -0.6570
  937MOL0     H26468  -2.299   8.707  11.373  0.0933 -0.2116  0.0004
  937MOL0     H26469  -2.434   8.883  11.420  1.2001 -2.0833 -1.4792
  937MOL0     H26470  -2.326   8.965  11.529 -0.6410  0.1537 -0.1688
  937MOL0     H26471  -2.423   8.669  11.582  0.5210 -1.1596  1.7812
  937MOL0     H26472  -2.324   8.774  11.686 -0.5505 -0.9769  0.0615
  937MOL0     H26473  -2.593   8.880  11.593 -0.9097  2.1263  1.7252
  937MOL0     H26474  -2.493   8.927  11.735  0.1970  0.1612 -0.9078
  937MOL0     H26475  -2.534   8.722  11.849 -0.0684 -1.1071  0.0838
  937MOL0     H26476  -2.606   8.647  11.708  2.7435 -0.0289  0.6685
  937MOL0     H26477  -1.682   8.375  11.293  0.6118 -0.4966 -0.8401
  937MOL0     H26478  -1.476   8.260  11.375  0.3702  0.7241 -0.9963
  937MOL0     H26479  -1.128   8.193  11.574  4.1267 -0.9101 -0.2043
  937MOL0     H26480  -0.938   8.067  11.622  2.6805  0.6261  1.5858
  937MOL0     H26481   0.981   7.591  11.408 -1.8464 -0.3310  0.3408
  937MOL0     H26482   1.203   7.668  11.384  2.0062 -1.4777 -1.1392
  937MOL0     H26483   1.543   7.734  11.277 -0.0370 -1.0359  0.6337
  937MOL0     H26484   1.790   7.787  11.293  2.6322 -1.4489 -0.9052
  937MOL0     H26485   2.040   7.681  10.970  1.0213 -1.3136  1.3095
  937MOL0     H26486   2.027   7.854  10.946 -2.1774  0.8658  0.6536
  937MOL0     H26487   2.189   7.747  11.168 -3.8211 -0.6680 -2.0152
  937MOL0     H26488   2.220   7.907  11.091 -0.6917  0.8814 -1.6304
  937MOL0     H26489   2.297   7.791  10.888  0.0829  0.8775  1.4658
  937MOL0     H26490   2.282   7.631  10.956  0.5678 -1.1106  1.4878
  937MOL0     H26491   2.455   7.713  11.144  0.3092  2.6591  0.8736
  937MOL0     H26492   2.477   7.859  11.053 -0.7501 -0.1028  2.5511
  937MOL0     H26493   2.698   7.589  10.822 -1.6964  0.8106 -2.0438
  937MOL0     H26494   1.828   7.738  10.870 -0.4759  0.9865 -0.9491
  937MOL0     H26495   1.582   7.679  10.860  0.2081  0.0764 -0.5494
  938MOL0     O26496   2.314   2.929   0.621  1.2593 -0.3900  0.8364
  938MOL0     C26497   2.373   2.827   0.571  1.1772 -0.1897  0.2060
  938MOL0     O26498   2.313   2.708   0.539  0.2985  0.2815  0.1500
  938MOL0     C26499   2.186   2.677   0.585 -0.2667  0.3616 -0.1511
  938MOL0     C26500   2.163   2.593   0.700 -0.2490 -0.0444  0.1441
  938MOL0     C26501   2.034   2.587   0.757 -0.6118 -0.0063 -0.5818
  938MOL0     C26502   1.923   2.653   0.701 -0.1385 -0.7384  0.0825
  938MOL0     O26503   1.800   2.652   0.761  0.4388  0.1920 -0.2874
  938MOL0     C26504   1.791   2.610   0.899  0.1257 -0.4724 -0.2452
  938MOL0     C26505   1.639   2.641   0.953 -0.1118 -0.0813  0.9002
  938MOL0     C26506   1.525   2.602   0.851  0.9379 -0.1376  0.2875
  938MOL0     C26507   1.394   2.630   0.923  0.6171  0.2166  0.3420
  938MOL0     C26508   1.278   2.591   0.843  0.2130  0.6127 -0.1357
  938MOL0     C26509   1.138   2.621   0.910  0.1579 -0.8491  0.3029
  938MOL0     C26510   1.030   2.528   0.857  0.4126 -0.8526  0.2157
  938MOL0     C26511   0.912   2.540   0.959 -0.7303  0.1635  0.2369
  938MOL0     N26512   0.791   2.465   0.909  1.0282  0.1282 -0.2964
  938MOL0     C26513   0.670   2.516   0.866  0.6600 -0.2782 -0.7180
  938MOL0     C26514   0.600   2.414   0.831  0.2663  0.0509  0.0880
  938MOL0     C26515   0.470   2.426   0.758  0.7895  0.0370 -0.2993
  938MOL0     C26516   0.500   2.498   0.622  0.0553  0.0943 -0.0105
  938MOL0     C26517   0.377   2.521   0.529  0.0007  0.2021 -0.5750
  938MOL0     C26518   0.284   2.631   0.585  0.0409 -0.2205  0.3637
  938MOL0     O26519   0.205   2.597   0.698 -0.1173 -0.5891  0.3644
  938MOL0     C26520   0.096   2.519   0.687 -0.4386 -0.0417  0.2474
  938MOL0     C26521   0.059   2.462   0.809  0.3036 -0.2163  0.0098
  938MOL0     C26522  -0.066   2.400   0.835 -0.4607  0.0691  0.5771
  938MOL0     C26523  -0.076   2.336   0.972 -0.0873  0.3468  0.0989
  938MOL0     C26524  -0.149   2.402   0.723  0.2199  0.0983  0.0019
  938MOL0     C26525  -0.274   2.322   0.730  0.2803  0.0588  0.4980
  938MOL0     O26526  -0.322   2.271   0.615  0.0363  0.6283  0.0672
  938MOL0     C26527  -0.447   2.220   0.627 -0.0728 -1.3731  0.7734
  938MOL0     C26528  -0.553   2.304   0.647  0.7929 -0.6142  1.1627
  938MOL0     C26529  -0.684   2.257   0.652  0.2426  0.3043 -0.5784
  938MOL0     C26530  -0.709   2.118   0.639  0.6157 -0.1821  0.5901
  938MOL0     O26531  -0.844   2.081   0.649  0.1087  0.1865 -0.8123
  938MOL0     C26532  -0.871   1.942   0.690 -0.3600  0.0077 -0.5739
  938MOL0     C26533  -0.996   1.966   0.768  0.6541  0.1246 -0.3205
  938MOL0     C26534  -0.975   2.004   0.915 -0.1747 -0.1396  0.3698
  938MOL0     C26535  -1.102   2.013   0.993 -0.8320  0.5875  0.7460
  938MOL0     C26536  -1.085   2.076   1.129  0.1305 -0.4807 -0.0407
  938MOL0     C26537  -1.080   2.229   1.126  0.5071  0.2423  0.0944
  938MOL0     C26538  -1.097   2.290   1.260 -0.2730  0.1588 -0.1045
  938MOL0     C26539  -1.103   2.437   1.239  0.2382 -0.8249 -0.7639
  938MOL0    Cl26540  -1.143   2.512   1.396 -0.0246  0.6866 -0.0253
  938MOL0     C26541  -0.605   2.027   0.614  1.8587 -0.2693 -0.5333
  938MOL0     C26542  -0.473   2.082   0.606  0.1105  0.8698 -0.8882
  938MOL0     O26543  -0.325   2.305   0.838 -0.7601 -0.5961 -0.1804
  938MOL0     C26544  -0.112   2.456   0.597 -0.1074 -1.3350  0.0910
  938MOL0     C26545   0.015   2.512   0.578 -0.1760  0.4025  0.0340
  938MOL0     N26546   0.677   2.297   0.857 -0.2842  0.0831  0.1383
  938MOL0     N26547   0.789   2.335   0.901 -0.2966  0.2169 -0.8053
  938MOL0     C26548   1.949   2.726   0.582  0.8222 -0.6085  0.0950
  938MOL0     C26549   2.077   2.734   0.525  0.0010  0.2589 -0.0966
  938MOL0     C26550   2.519   2.842   0.542  0.1831 -0.0173 -0.1385
  938MOL0     C26551   2.599   2.738   0.506  0.2729  0.6819  0.4837
  938MOL0     C26552   2.738   2.749   0.493  0.1317 -0.1808 -0.0773
  938MOL0     C26553   2.803   2.872   0.505  0.1437  0.3817 -0.8616
  938MOL0     O26554   2.940   2.876   0.495 -0.0932 -0.1560 -0.2168
  938MOL0     C26555   3.004   2.786   0.409 -0.5542  0.3500  0.9857
  938MOL0     C26556   3.148   2.847   0.386  0.6809  0.8351 -0.2666
  938MOL0     C26557   3.232   2.877   0.510  0.1693  0.2894  0.4048
  938MOL0     C26558   3.333   2.989   0.475  0.2417  1.4061  0.1459
  938MOL0     C26559   3.442   2.936   0.381  0.4918 -0.0001  0.5581
  938MOL0     C26560   3.521   2.890   0.308 -0.1960  0.3366  0.4031
  938MOL0     C26561   2.728   2.981   0.548 -0.5697 -0.3828  0.6042
  938MOL0     C26562   2.586   2.971   0.559 -0.0372  0.1429  0.2136
  938MOL0     H26563   2.253   2.545   0.737  0.9539  2.6617  1.0327
  938MOL0     H26564   2.028   2.532   0.851 -0.2493 -0.5336 -0.8587
  938MOL0     H26565   1.816   2.504   0.903 -0.4124 -0.5896 -0.0300
  938MOL0     H26566   1.847   2.673   0.968 -0.7551  0.6160 -0.4904
  938MOL0     H26567   1.632   2.589   1.049  1.3750 -3.1365 -0.5021
  938MOL0     H26568   1.628   2.745   0.984 -0.7933  0.4805 -1.0670
  938MOL0     H26569   1.534   2.644   0.750  2.3775  2.9062  1.5599
  938MOL0     H26570   1.527   2.493   0.842  1.1795 -0.4416  3.2879
  938MOL0     H26571   1.401   2.580   1.019 -1.9646  1.5359  1.3321
  938MOL0     H26572   1.382   2.736   0.948 -1.8411 -0.0254  0.4662
  938MOL0     H26573   1.283   2.636   0.743  0.3271 -0.5219 -0.6473
  938MOL0     H26574   1.294   2.485   0.825  1.2109  1.0363 -2.1612
  938MOL0     H26575   1.151   2.610   1.018  0.2946 -1.5942  0.2180
  938MOL0     H26576   1.115   2.726   0.888 -0.4434 -1.1915 -0.8068
  938MOL0     H26577   1.005   2.565   0.758 -0.2921  1.1574  1.0866
  938MOL0     H26578   1.056   2.422   0.860  0.9665 -0.7069  1.8728
  938MOL0     H26579   0.876   2.643   0.971 -0.4864  0.8151 -3.3348
  938MOL0     H26580   0.944   2.499   1.055  1.3128 -1.2407 -0.9672
  938MOL0     H26581   0.648   2.620   0.843  0.0738 -0.1356  0.4118
  938MOL0     H26582   0.417   2.330   0.752 -0.3059  0.3780  2.5088
  938MOL0     H26583   0.407   2.484   0.825  2.9616 -0.7669  2.6420
  938MOL0     H26584   0.565   2.430   0.565 -0.0179 -1.7124  1.9316
  938MOL0     H26585   0.555   2.592   0.635 -1.3679  0.8897  0.5006
  938MOL0     H26586   0.316   2.431   0.511  0.5451 -0.3669  0.3190
  938MOL0     H26587   0.422   2.550   0.434  1.1481 -0.4756 -0.2596
  938MOL0     H26588   0.219   2.670   0.506  0.9669  3.8788  1.4292
  938MOL0     H26589   0.342   2.719   0.614  1.0251 -1.1191  1.2002
  938MOL0     H26590   0.130   2.462   0.891 -1.3288  0.8694  1.5116
  938MOL0     H26591  -0.124   2.238   0.967 -1.5748  1.1230 -1.6941
  938MOL0     H26592   0.020   2.321   1.022 -0.1013  0.7325  0.2464
  938MOL0     H26593  -0.128   2.407   1.038  0.7027  0.4077  0.6772
  938MOL0     H26594  -0.539   2.411   0.660  0.8261 -0.2189 -1.4682
  938MOL0     H26595  -0.772   2.319   0.664 -0.2416  0.1055 -2.6895
  938MOL0     H26596  -0.899   1.877   0.606  0.3721  1.2163 -1.7933
  938MOL0     H26597  -0.797   1.895   0.756  1.6686  3.5184 -0.0863
  938MOL0     H26598  -1.038   2.056   0.722  3.1089  1.5344  0.0237
  938MOL0     H26599  -1.051   1.871   0.763  1.2677 -0.1878 -2.8843
  938MOL0     H26600  -0.925   2.100   0.928 -0.3009 -0.1326  0.8430
  938MOL0     H26601  -0.913   1.925   0.959  1.2103  0.9732  0.4997
  938MOL0     H26602  -1.170   2.067   0.926  1.1343 -0.3889 -2.2215
  938MOL0     H26603  -1.141   1.911   0.996 -0.1323  0.3170  0.7345
  938MOL0     H26604  -0.993   2.035   1.171  1.1232  2.7534  1.1778
  938MOL0     H26605  -1.171   2.049   1.191  0.0294  0.9557  0.4727
  938MOL0     H26606  -0.988   2.255   1.073 -0.3244 -2.2711 -2.9012
  938MOL0     H26607  -1.158   2.261   1.057  0.5287  0.3280  0.1100
  938MOL0     H26608  -1.002   2.270   1.310 -1.2978 -0.4492  1.6902
  938MOL0     H26609  -1.182   2.250   1.317  0.2957 -1.6613 -0.4616
  938MOL0     H26610  -1.188   2.465   1.177  0.1132  1.7893  0.4486
  938MOL0     H26611  -1.007   2.471   1.200 -0.1035 -0.7179 -1.5236
  938MOL0     H26612  -0.627   1.924   0.588  1.2888  0.2763 -2.3711
  938MOL0     H26613  -0.397   2.012   0.573 -0.4150 -0.8543  1.3220
  938MOL0     H26614  -0.168   2.449   0.504 -1.4513 -0.9280  0.8548
  938MOL0     H26615   0.044   2.543   0.478 -1.9415  0.8412 -0.3712
  938MOL0     H26616   1.870   2.782   0.533  1.4437 -2.1009 -2.8486
  938MOL0     H26617   2.098   2.797   0.439 -0.0721 -0.6705 -0.8131
  938MOL0     H26618   2.560   2.636   0.508  1.2778  0.2802  0.2409
  938MOL0     H26619   2.793   2.656   0.490  1.6696  0.6049  1.6991
  938MOL0     H26620   3.022   2.683   0.442  1.4718  0.3903  0.1837
  938MOL0     H26621   2.959   2.788   0.310  0.2190  1.6034  0.6363
  938MOL0     H26622   3.156   2.929   0.314  0.2123  1.1878  0.0762
  938MOL0     H26623   3.211   2.779   0.328  0.7374 -1.9092  2.7932
  938MOL0     H26624   3.275   2.781   0.538  1.6047 -0.5982 -3.9833
  938MOL0     H26625   3.174   2.915   0.595 -0.8945 -0.9532  0.2584
  938MOL0     H26626   3.380   3.026   0.566  0.0112 -0.9157  1.2953
  938MOL0     H26627   3.276   3.069   0.426 -2.8042  0.6349  2.1294
  938MOL0     H26628   3.591   2.845   0.241  1.1074 -0.4631  2.2164
  938MOL0     H26629   2.768   3.079   0.573 -3.9943  1.2561  0.3042
  938MOL0     H26630   2.533   3.058   0.595  0.5672 -0.4693  2.8054
  939MOL0     O26631   7.266   2.950   8.417  0.3724 -0.2901 -0.3028
  939MOL0     C26632   7.240   3.068   8.441 -0.6751 -0.3780 -0.6674
  939MOL0     O26633   7.133   3.141   8.398  0.2313  0.3080  0.2646
  939MOL0     C26634   7.031   3.090   8.322 -0.5740 -0.8610  0.2918
  939MOL0     C26635   7.008   2.956   8.273 -0.1633  0.4178  0.5006
  939MOL0     C26636   6.898   2.929   8.197 -0.3317  0.7567 -0.6012
  939MOL0     C26637   6.823   3.032   8.143 -0.5271  0.6464 -0.4823
  939MOL0     O26638   6.734   2.998   8.044 -0.3445 -0.2745  0.7385
  939MOL0     C26639   6.704   3.102   7.946 -0.4717 -0.3560  0.4213
  939MOL0     C26640   6.637   3.038   7.829  0.5615  0.0392  0.2501
  939MOL0     C26641   6.673   2.890   7.798 -0.2652 -0.3751 -0.6254
  939MOL0     C26642   6.568   2.842   7.704 -0.6136 -0.2211 -0.3890
  939MOL0     C26643   6.608   2.701   7.656 -0.2629  0.5194  0.1637
  939MOL0     C26644   6.529   2.645   7.529  0.4324 -1.1398  0.1640
  939MOL0     C26645   6.589   2.522   7.467  0.1963 -0.5582 -0.0597
  939MOL0     C26646   6.511   2.476   7.348  0.2748  0.5753 -0.2739
  939MOL0     N26647   6.365   2.439   7.376  0.1371  0.4411 -0.0689
  939MOL0     C26648   6.333   2.346   7.468 -0.0096  0.0691  0.3417
  939MOL0     C26649   6.196   2.353   7.473  0.6915  0.3234  0.3127
  939MOL0     C26650   6.116   2.276   7.575 -0.3757  0.5341  0.5868
  939MOL0     C26651   6.165   2.307   7.718  0.3200  0.2668  0.4169
  939MOL0     C26652   6.058   2.272   7.827 -0.1390 -0.6440  0.2958
  939MOL0     C26653   5.954   2.374   7.846  0.2234  0.9113  0.5711
  939MOL0     O26654   5.833   2.341   7.764 -0.1814 -0.0920 -0.0605
  939MOL0     C26655   5.729   2.428   7.767  0.1481  0.4081  0.3353
  939MOL0     C26656   5.729   2.541   7.856 -0.0762 -0.7681 -0.8700
  939MOL0     C26657   5.615   2.632   7.851  0.3578 -0.5938 -0.1063
  939MOL0     C26658   5.617   2.752   7.946  0.3470  0.6930  0.3529
  939MOL0     C26659   5.513   2.607   7.760  0.7947  0.6528  0.8328
  939MOL0     C26660   5.386   2.689   7.745 -0.4623  0.2884 -0.0184
  939MOL0     O26661   5.301   2.661   7.645 -0.4954 -0.0111 -0.2082
  939MOL0     C26662   5.169   2.701   7.649 -0.6125  0.1725  0.3363
  939MOL0     C26663   5.105   2.715   7.527  0.8332  0.1895  1.0438
  939MOL0     C26664   4.966   2.767   7.525  0.6270 -0.1408 -0.6801
  939MOL0     C26665   4.906   2.810   7.646  0.0834 -0.3299  0.1879
  939MOL0     O26666   4.791   2.880   7.651  0.2509  0.2442  0.6099
  939MOL0     C26667   4.714   2.911   7.534  0.5448 -0.4319  0.9063
  939MOL0     C26668   4.775   3.026   7.452  0.1533  0.4740 -0.0204
  939MOL0     C26669   4.752   3.165   7.508 -0.7746  0.6318 -0.3583
  939MOL0     C26670   4.798   3.278   7.415 -0.5669  0.2330  0.7319
  939MOL0     C26671   4.698   3.389   7.437 -0.2633 -0.0086  0.4076
  939MOL0     C26672   4.729   3.487   7.331 -0.2303 -0.5445  1.1001
  939MOL0     C26673   4.627   3.599   7.337 -0.4339  0.3758 -0.0381
  939MOL0     C26674   4.659   3.709   7.239  0.5544 -0.5307  0.1024
  939MOL0    Cl26675   4.682   3.651   7.076  0.3067 -0.1247 -0.6696
  939MOL0     C26676   4.971   2.782   7.762  0.2765 -0.4001  0.4993
  939MOL0     C26677   5.094   2.735   7.765  0.1740 -0.0551 -0.9124
  939MOL0     O26678   5.364   2.775   7.828  0.1033 -0.1506 -0.1811
  939MOL0     C26679   5.518   2.485   7.687 -0.2966 -0.4765 -0.2051
  939MOL0     C26680   5.624   2.400   7.687 -0.4395 -0.4296 -0.0955
  939MOL0     N26681   6.156   2.457   7.388  0.7159  0.1630 -0.1832
  939MOL0     N26682   6.260   2.517   7.334 -0.2334 -0.2618 -0.6694
  939MOL0     C26683   6.848   3.163   8.194  0.3254  0.3125  0.9862
  939MOL0     C26684   6.955   3.197   8.280  0.3583  0.6813  0.0523
  939MOL0     C26685   7.336   3.134   8.537 -0.2442 -0.0324  0.7125
  939MOL0     C26686   7.343   3.274   8.552 -0.1088 -0.7108 -0.1487
  939MOL0     C26687   7.432   3.333   8.643  0.5017  0.5207  0.0192
  939MOL0     C26688   7.521   3.246   8.718 -0.6762  0.0774 -0.0843
  939MOL0     O26689   7.602   3.313   8.804  0.3252  0.4627 -0.0912
  939MOL0     C26690   7.707   3.251   8.876 -0.2079  0.7506 -0.6039
  939MOL0     C26691   7.784   3.345   8.973  0.5757 -0.4642  0.2590
  939MOL0     C26692   7.831   3.474   8.902 -0.6508  0.5115  0.2138
  939MOL0     C26693   7.949   3.540   8.959 -0.1493  0.2473  0.7163
  939MOL0     C26694   8.020   3.609   8.849 -0.3859  0.6223  0.7725
  939MOL0     C26695   8.114   3.646   8.784  0.3990  0.3008 -0.1881
  939MOL0     C26696   7.517   3.110   8.699  0.2133 -0.0101 -0.4694
  939MOL0     C26697   7.429   3.052   8.610  1.1402  0.6683  0.4268
  939MOL0     H26698   7.073   2.873   8.298 -0.1878  0.6777  1.4548
  939MOL0     H26699   6.868   2.830   8.162 -0.5457 -0.8133  3.5373
  939MOL0     H26700   6.655   3.188   7.992  1.5992  2.1174 -1.6584
  939MOL0     H26701   6.804   3.138   7.920 -1.1750  1.5668  0.2730
  939MOL0     H26702   6.530   3.037   7.852  0.4448  0.3828 -0.2763
  939MOL0     H26703   6.651   3.105   7.743 -1.6303  0.8214  0.4286
  939MOL0     H26704   6.768   2.877   7.746 -0.1726  0.7113 -0.7692
  939MOL0     H26705   6.660   2.824   7.884 -2.0279  0.6742 -0.0187
  939MOL0     H26706   6.469   2.827   7.749 -0.6963 -2.6837 -1.2713
  939MOL0     H26707   6.548   2.907   7.618 -1.3589 -1.2769 -1.0339
  939MOL0     H26708   6.708   2.703   7.610 -1.1387 -3.1010 -2.3287
  939MOL0     H26709   6.604   2.624   7.733 -3.2835 -0.8171 -1.1793
  939MOL0     H26710   6.424   2.630   7.557  0.0345  1.5536  0.4123
  939MOL0     H26711   6.525   2.729   7.459 -3.7203  0.1198  1.5544
  939MOL0     H26712   6.689   2.551   7.434  0.3775 -0.2758  0.7299
  939MOL0     H26713   6.604   2.441   7.538 -0.5309 -0.7431 -0.1036
  939MOL0     H26714   6.558   2.385   7.309  0.6459 -0.4224  2.2877
  939MOL0     H26715   6.520   2.555   7.273  1.1823  3.2416  2.4006
  939MOL0     H26716   6.401   2.277   7.517  1.3517 -0.6060 -2.3223
  939MOL0     H26717   6.011   2.306   7.568 -0.7779 -1.1161 -2.8372
  939MOL0     H26718   6.117   2.169   7.551  0.8758  1.1171 -2.4613
  939MOL0     H26719   6.197   2.412   7.728 -0.5946  0.6760 -0.7286
  939MOL0     H26720   6.256   2.250   7.737 -0.9795 -1.4068  2.0488
  939MOL0     H26721   6.105   2.259   7.924 -0.2454  0.2273  0.4723
  939MOL0     H26722   6.013   2.176   7.799 -1.1945 -0.2461  0.5692
  939MOL0     H26723   5.990   2.475   7.825 -0.8652  1.9359  3.2373
  939MOL0     H26724   5.915   2.376   7.948  0.4728  0.5110  0.6777
  939MOL0     H26725   5.814   2.563   7.921 -0.3905 -0.8880 -0.4128
  939MOL0     H26726   5.719   2.768   7.984  0.9757  3.0022 -1.9537
  939MOL0     H26727   5.591   2.847   7.898 -0.8796 -0.6845 -1.8771
  939MOL0     H26728   5.544   2.726   8.023 -0.1419 -0.5991 -0.5175
  939MOL0     H26729   5.152   2.701   7.431 -2.5270  3.3355 -1.3270
  939MOL0     H26730   4.921   2.774   7.427  1.3444 -0.4298 -1.0404
  939MOL0     H26731   4.701   2.825   7.468  2.8966 -0.6639  0.6619
  939MOL0     H26732   4.616   2.943   7.571  0.0324 -0.4681 -0.3433
  939MOL0     H26733   4.883   3.012   7.445  0.2914  0.1461  2.1003
  939MOL0     H26734   4.728   3.032   7.353 -0.0719  1.2639  0.1238
  939MOL0     H26735   4.812   3.187   7.597  0.8939 -0.6932 -1.0899
  939MOL0     H26736   4.645   3.163   7.532 -0.4025 -1.8995  1.5772
  939MOL0     H26737   4.899   3.314   7.439  0.2833 -2.2068  1.1235
  939MOL0     H26738   4.794   3.245   7.311 -0.3054  0.1953  0.7338
  939MOL0     H26739   4.713   3.433   7.536 -0.9015 -1.4459  1.1733
  939MOL0     H26740   4.596   3.350   7.427 -0.7630  1.7406 -2.6720
  939MOL0     H26741   4.829   3.527   7.349  0.0420 -0.2542 -0.8371
  939MOL0     H26742   4.723   3.443   7.231  1.2704 -1.5293  1.4248
  939MOL0     H26743   4.637   3.639   7.438  2.5020  0.0736 -0.1480
  939MOL0     H26744   4.526   3.561   7.316 -1.4298  2.7223  0.2082
  939MOL0     H26745   4.731   3.784   7.274 -1.2033  0.1724  2.5648
  939MOL0     H26746   4.569   3.771   7.231 -0.5545 -1.6349  2.7116
  939MOL0     H26747   4.929   2.809   7.859 -0.8865 -0.3212 -0.0128
  939MOL0     H26748   5.127   2.704   7.864  0.6064 -1.4398 -1.4562
  939MOL0     H26749   5.426   2.454   7.639  1.2429 -1.8303 -2.5290
  939MOL0     H26750   5.629   2.306   7.632 -0.2240 -1.7455  2.0738
  939MOL0     H26751   6.773   3.235   8.163 -1.2404 -0.9494  1.6927
  939MOL0     H26752   6.985   3.298   8.304 -1.7976  1.9216 -2.1168
  939MOL0     H26753   7.292   3.336   8.479  1.0193  1.7516  1.0270
  939MOL0     H26754   7.439   3.440   8.631 -0.0661  0.3417 -2.3105
  939MOL0     H26755   7.668   3.164   8.930  2.5536  0.1633  0.6444
  939MOL0     H26756   7.774   3.209   8.800  1.1421 -1.9417  1.8606
  939MOL0     H26757   7.868   3.286   9.012 -1.0102 -2.0029  1.5447
  939MOL0     H26758   7.719   3.376   9.056  2.2248 -0.3421  1.5678
  939MOL0     H26759   7.741   3.536   8.906 -0.2995  0.9503  2.2342
  939MOL0     H26760   7.866   3.447   8.801 -0.5203  1.3542  0.0291
  939MOL0     H26761   8.017   3.463   8.996  0.0123 -1.0921 -2.0529
  939MOL0     H26762   7.919   3.607   9.040  0.1556 -0.2366  1.2397
  939MOL0     H26763   8.200   3.680   8.730  0.7976  0.9040  0.8021
  939MOL0     H26764   7.581   3.047   8.761  1.2182  0.7943 -0.6526
  939MOL0     H26765   7.433   2.947   8.581  0.2323  1.5815 -3.5344
  940MOL0     O26766   0.687   0.502   8.235  0.0652  0.2988  0.4716
  940MOL0     C26767   0.806   0.464   8.245  0.1233  0.4941 -1.0747
  940MOL0     O26768   0.851   0.357   8.321  0.5461  0.0874  1.0829
  940MOL0     C26769   0.766   0.277   8.388  0.1899  0.3952  0.1091
  940MOL0     C26770   0.772   0.147   8.346  0.1004  0.0854  0.6225
  940MOL0     C26771   0.686   0.055   8.406  0.4787 -0.2006 -0.1482
  940MOL0     C26772   0.613   0.092   8.522 -0.1829 -0.0292 -0.1641
  940MOL0     O26773   0.531  -0.004   8.582  0.2521  0.2190 -0.1062
  940MOL0     C26774   0.438   0.024   8.689 -0.4901 -0.7170  0.3978
  940MOL0     C26775   0.376  -0.110   8.730  0.1257 -0.0193 -0.5019
  940MOL0     C26776   0.273  -0.153   8.627 -0.3437 -0.1232  0.4298
  940MOL0     C26777   0.223  -0.299   8.627  0.1682 -0.5457 -0.3773
  940MOL0     C26778   0.095  -0.338   8.548 -0.3622  0.3412  0.3533
  940MOL0     C26779  -0.040  -0.270   8.600  0.3686 -0.2488 -0.5296
  940MOL0     C26780  -0.170  -0.346   8.558 -0.0420 -0.1974  0.3368
  940MOL0     C26781  -0.219  -0.325   8.412 -0.6950 -0.2504  0.3061
  940MOL0     N26782  -0.336  -0.409   8.375 -0.8400 -0.0321 -0.2272
  940MOL0     C26783  -0.449  -0.357   8.324  0.5439 -0.4899 -0.2166
  940MOL0     C26784  -0.521  -0.462   8.279 -0.5578 -0.6461  0.1325
  940MOL0     C26785  -0.663  -0.431   8.222 -0.7693  0.7314 -0.2157
  940MOL0     C26786  -0.765  -0.541   8.263  0.2908  0.7292  0.1553
  940MOL0     C26787  -0.888  -0.525   8.175  0.0363  0.1557 -0.0259
  940MOL0     C26788  -1.012  -0.472   8.241  0.0177  0.5513  0.5891
  940MOL0     O26789  -1.124  -0.513   8.162 -0.0775  1.0867  0.3181
  940MOL0     C26790  -1.246  -0.507   8.214 -0.3024 -0.4387  0.1902
  940MOL0     C26791  -1.276  -0.477   8.347  0.3443  0.1751 -0.9892
  940MOL0     C26792  -1.414  -0.493   8.402 -0.5271  0.4363  0.6358
  940MOL0     C26793  -1.439  -0.455   8.539  0.3980 -0.6682  0.7806
  940MOL0     C26794  -1.519  -0.542   8.310 -0.4408 -0.1356 -0.2797
  940MOL0     C26795  -1.665  -0.544   8.338  0.4302 -0.3004 -0.6536
  940MOL0     O26796  -1.701  -0.519   8.471  0.0052  0.0494  0.1874
  940MOL0     C26797  -1.830  -0.484   8.507 -0.1388  0.3966 -0.0088
  940MOL0     C26798  -1.842  -0.397   8.616 -0.1127  0.9725  0.3103
  940MOL0     C26799  -1.972  -0.355   8.657  0.1692 -0.4169 -0.3631
  940MOL0     C26800  -2.085  -0.395   8.584  0.4882 -0.3257 -0.0351
  940MOL0     O26801  -2.203  -0.355   8.650  0.5255  0.1387 -0.0003
  940MOL0     C26802  -2.322  -0.393   8.586  0.8393 -0.8027  0.0119
  940MOL0     C26803  -2.443  -0.363   8.674 -0.9361  0.0621  0.2853
  940MOL0     C26804  -2.566  -0.392   8.593 -0.3181 -0.7287 -0.5938
  940MOL0     C26805  -2.693  -0.333   8.655 -0.2805  0.4521  0.5265
  940MOL0     C26806  -2.830  -0.381   8.604  0.4699  0.1466 -0.5173
  940MOL0     C26807  -2.851  -0.530   8.618 -0.0999 -0.2233 -0.2857
  940MOL0     C26808  -2.982  -0.596   8.595  0.8045  0.4391 -0.1652
  940MOL0     C26809  -3.022  -0.595   8.446 -0.0135 -0.1791 -0.2415
  940MOL0    Cl26810  -2.893  -0.694   8.352  0.1509  0.1036 -0.0802
  940MOL0     C26811  -2.074  -0.481   8.476 -0.8176 -0.8950 -0.6818
  940MOL0     C26812  -1.949  -0.527   8.441 -0.1089  0.1108 -0.3983
  940MOL0     O26813  -1.746  -0.566   8.246  0.1920 -0.6520 -1.1561
  940MOL0     C26814  -1.480  -0.556   8.180 -0.3344  0.3750  0.5806
  940MOL0     C26815  -1.349  -0.537   8.134 -0.1032  0.7640  0.4834
  940MOL0     N26816  -0.453  -0.578   8.299 -1.0880  0.0729  0.4815
  940MOL0     N26817  -0.341  -0.547   8.353 -0.8274  0.4163  0.3465
  940MOL0     C26818   0.615   0.222   8.570  0.8195 -0.3442  0.2918
  940MOL0     C26819   0.696   0.316   8.504 -0.3052 -0.5323  0.9603
  940MOL0     C26820   0.916   0.542   8.185 -0.0509  0.5329  1.3166
  940MOL0     C26821   0.878   0.654   8.108 -0.4275  0.3722  0.3217
  940MOL0     C26822   0.983   0.736   8.064 -0.1060 -0.0770 -0.3641
  940MOL0     C26823   1.122   0.707   8.087 -0.1527  0.6444  0.2281
  940MOL0     O26824   1.234   0.782   8.054  0.3193 -0.0101 -0.0851
  940MOL0     C26825   1.219   0.911   7.986 -1.0613  0.0403  0.1675
  940MOL0     C26826   1.347   0.991   8.010  0.0470 -0.1749  0.4186
  940MOL0     C26827   1.392   1.009   8.156 -0.3638  0.7958  0.3180
  940MOL0     C26828   1.536   1.072   8.170  0.6454  0.0795 -0.5599
  940MOL0     C26829   1.638   0.981   8.114  0.1168  0.4127 -0.7312
  940MOL0     C26830   1.694   0.894   8.062 -0.1092  0.2460 -1.3594
  940MOL0     C26831   1.157   0.587   8.158 -0.0925 -0.2639 -0.4085
  940MOL0     C26832   1.056   0.506   8.208  1.3845  1.0313 -0.1568
  940MOL0     H26833   0.845   0.114   8.273  1.3910 -1.1188  2.3571
  940MOL0     H26834   0.681  -0.044   8.362  1.8382 -0.3288 -0.0396
  940MOL0     H26835   0.506   0.059   8.768 -0.8950 -0.2021  0.5253
  940MOL0     H26836   0.369   0.102   8.657  1.1738  0.7290  0.1831
  940MOL0     H26837   0.451  -0.189   8.738 -1.4228 -1.4260  0.6284
  940MOL0     H26838   0.321  -0.097   8.824 -1.5181 -0.1483 -1.4094
  940MOL0     H26839   0.189  -0.083   8.632  0.1982  0.4564  1.9596
  940MOL0     H26840   0.330  -0.137   8.535  4.6213 -1.6817  2.8645
  940MOL0     H26841   0.312  -0.347   8.586  1.0580 -0.9132  1.8552
  940MOL0     H26842   0.220  -0.322   8.733 -2.3136 -0.7892 -0.4505
  940MOL0     H26843   0.109  -0.320   8.441 -1.9874  1.4032  0.2908
  940MOL0     H26844   0.079  -0.447   8.545  0.0128  0.2844  0.3815
  940MOL0     H26845  -0.049  -0.273   8.709  1.4868  1.7015 -0.3338
  940MOL0     H26846  -0.041  -0.165   8.570  1.5074 -0.1713 -0.3640
  940MOL0     H26847  -0.144  -0.452   8.568  1.0865 -0.1772 -1.7171
  940MOL0     H26848  -0.253  -0.327   8.626 -0.0621 -5.1897  2.1163
  940MOL0     H26849  -0.129  -0.342   8.353  1.0293  2.8879  1.8342
  940MOL0     H26850  -0.247  -0.220   8.401  0.5517  0.2502  1.5849
  940MOL0     H26851  -0.494  -0.258   8.330  2.1470  0.1693  2.1073
  940MOL0     H26852  -0.704  -0.335   8.251 -1.3297  0.5543 -0.3960
  940MOL0     H26853  -0.647  -0.430   8.113 -0.4039 -2.0019 -0.2693
  940MOL0     H26854  -0.788  -0.521   8.368 -3.1454 -0.4210 -0.2797
  940MOL0     H26855  -0.730  -0.644   8.251 -1.8458  0.0713 -0.7829
  940MOL0     H26856  -0.906  -0.630   8.150  1.3678 -0.9141  3.0112
  940MOL0     H26857  -0.865  -0.466   8.086 -0.2043  2.2503  1.2254
  940MOL0     H26858  -0.999  -0.364   8.253  0.8350  0.6447 -0.8989
  940MOL0     H26859  -1.021  -0.516   8.340 -4.5492  1.3929  0.7476
  940MOL0     H26860  -1.196  -0.431   8.403  1.9574 -0.5063 -2.6241
  940MOL0     H26861  -1.482  -0.356   8.555  1.8465 -0.0469  1.0037
  940MOL0     H26862  -1.502  -0.528   8.589 -1.1977 -0.3574 -0.6792
  940MOL0     H26863  -1.343  -0.443   8.589 -0.3783  1.5451  1.8823
  940MOL0     H26864  -1.757  -0.351   8.665  1.6190  1.0262 -2.5722
  940MOL0     H26865  -1.985  -0.307   8.753  2.0542  0.1053 -0.3405
  940MOL0     H26866  -2.320  -0.337   8.492 -0.4447  1.6335  1.3373
  940MOL0     H26867  -2.326  -0.501   8.566  0.1257 -0.4922 -1.6848
  940MOL0     H26868  -2.448  -0.413   8.771 -2.0613  0.6457  0.5386
  940MOL0     H26869  -2.447  -0.255   8.692 -0.8282 -0.0094  0.7579
  940MOL0     H26870  -2.574  -0.501   8.585 -1.3084 -0.7164  0.0955
  940MOL0     H26871  -2.549  -0.351   8.493  0.4891 -1.2207 -0.6767
  940MOL0     H26872  -2.686  -0.355   8.762  0.0884  2.0997  0.8713
  940MOL0     H26873  -2.690  -0.224   8.642 -1.1497  0.4552  0.2931
  940MOL0     H26874  -2.832  -0.354   8.498  0.6492  0.6028 -0.4074
  940MOL0     H26875  -2.908  -0.327   8.658  0.1703  0.1558 -0.9622
  940MOL0     H26876  -2.787  -0.585   8.549  0.6496  1.0680 -0.6562
  940MOL0     H26877  -2.810  -0.556   8.717 -1.1885 -1.1991 -0.0703
  940MOL0     H26878  -3.060  -0.554   8.658  0.6418 -0.0223 -0.0558
  940MOL0     H26879  -2.975  -0.698   8.634 -0.5508 -0.6214 -2.4750
  940MOL0     H26880  -3.020  -0.492   8.408 -1.3058 -0.1000 -0.1138
  940MOL0     H26881  -3.126  -0.627   8.432 -0.1114  0.0006  0.0699
  940MOL0     H26882  -2.166  -0.514   8.429 -1.4352  0.9718 -0.8569
  940MOL0     H26883  -1.939  -0.598   8.359 -1.4891  1.5884 -1.9398
  940MOL0     H26884  -1.543  -0.584   8.095  1.3643  1.1410 -1.0147
  940MOL0     H26885  -1.330  -0.556   8.029 -1.1302 -1.1777  0.6058
  940MOL0     H26886   0.552   0.260   8.649 -1.0570  1.8705 -2.0890
  940MOL0     H26887   0.710   0.417   8.540  1.3719 -0.2214 -0.4590
  940MOL0     H26888   0.774   0.676   8.085 -0.3986  0.2816  0.0984
  940MOL0     H26889   0.976   0.833   8.016  0.9409  0.5573  0.7341
  940MOL0     H26890   1.192   0.896   7.881 -0.2368 -1.3593  0.1170
  940MOL0     H26891   1.129   0.964   8.017 -0.5852  0.1317  1.4604
  940MOL0     H26892   1.341   1.092   7.968  0.1535 -0.3620 -0.0584
  940MOL0     H26893   1.430   0.948   7.953 -2.2215 -2.8728 -1.0963
  940MOL0     H26894   1.376   0.915   8.210 -2.7909  1.7617  1.4366
  940MOL0     H26895   1.326   1.083   8.202  0.3202  1.8521 -0.3658
  940MOL0     H26896   1.563   1.098   8.273 -1.0073  2.6083 -0.6908
  940MOL0     H26897   1.546   1.165   8.114 -0.4329  0.1604 -0.6358
  940MOL0     H26898   1.755   0.809   8.038  0.1214  0.3803 -1.2566
  940MOL0     H26899   1.259   0.565   8.188 -0.6642  0.8284  2.6758
  940MOL0     H26900   1.080   0.416   8.265 -1.0009 -0.5639 -1.5037
  941MOL0     O26901   2.174   4.861   4.979 -0.0772 -0.2208  0.1661
  941MOL0     C26902   2.226   4.849   4.869  0.1346  0.0607  0.3246
  941MOL0     O26903   2.160   4.805   4.759 -0.0699  0.3321 -0.0685
  941MOL0     C26904   2.034   4.765   4.756  0.2112  0.1989 -0.7394
  941MOL0     C26905   1.994   4.637   4.749 -0.1724 -0.1317 -0.7909
  941MOL0     C26906   1.857   4.614   4.742 -0.3134  0.0914 -0.2348
  941MOL0     C26907   1.758   4.709   4.747 -0.0487 -1.5119  0.1708
  941MOL0     O26908   1.624   4.668   4.750  0.9611 -0.2004 -0.4957
  941MOL0     C26909   1.510   4.756   4.727  0.1199  0.5076  0.1529
  941MOL0     C26910   1.415   4.670   4.649  0.2728  0.2322 -0.1045
  941MOL0     C26911   1.275   4.726   4.621 -1.0868  0.0941 -0.1688
  941MOL0     C26912   1.180   4.680   4.735 -0.1978 -0.2198 -0.7772
  941MOL0     C26913   1.035   4.737   4.696 -0.0204  0.5133  0.6135
  941MOL0     C26914   0.931   4.672   4.783 -0.3445 -0.6229  0.5992
  941MOL0     C26915   0.801   4.752   4.768  0.3740  0.0048 -0.3709
  941MOL0     C26916   0.705   4.697   4.664  0.1439 -0.8483  0.2222
  941MOL0     N26917   0.593   4.784   4.657  0.0777 -0.0950 -0.2157
  941MOL0     C26918   0.583   4.916   4.611  0.0454 -0.9094 -0.1814
  941MOL0     C26919   0.451   4.944   4.625  0.3542 -0.4822 -0.5379
  941MOL0     C26920   0.387   5.070   4.569  0.0939  0.6803  0.2421
  941MOL0     C26921   0.375   5.174   4.675 -0.0855  0.6806 -0.5545
  941MOL0     C26922   0.239   5.189   4.747  0.1985  0.2439  0.3388
  941MOL0     C26923   0.197   5.070   4.826 -0.3834  0.0186 -0.0719
  941MOL0     O26924   0.081   5.095   4.897  0.4126 -0.1071 -0.6343
  941MOL0     C26925  -0.036   5.129   4.822  0.2568 -0.4428  0.6015
  941MOL0     C26926  -0.130   5.205   4.901  0.8474  0.5132  0.0056
  941MOL0     C26927  -0.267   5.207   4.860 -1.0046  0.2745 -0.2387
  941MOL0     C26928  -0.372   5.246   4.969 -0.4226  0.5505  1.0825
  941MOL0     C26929  -0.298   5.160   4.731  0.3277  0.0176 -0.6786
  941MOL0     C26930  -0.433   5.180   4.668 -0.3819 -0.2882 -0.8162
  941MOL0     O26931  -0.506   5.298   4.697  0.4818 -0.2523 -0.6694
  941MOL0     C26932  -0.627   5.302   4.627 -0.6367  0.0225  0.3213
  941MOL0     C26933  -0.752   5.314   4.686  0.9477 -0.8187 -0.4264
  941MOL0     C26934  -0.872   5.320   4.611  0.8063 -0.0187  0.2283
  941MOL0     C26935  -0.863   5.333   4.474 -0.2913  0.6010  0.3901
  941MOL0     O26936  -0.970   5.350   4.396 -0.2121  0.0816 -0.1593
  941MOL0     C26937  -0.957   5.368   4.255  0.6570 -0.1578  0.5675
  941MOL0     C26938  -1.095   5.420   4.211  0.3268 -0.2778  0.3473
  941MOL0     C26939  -1.096   5.449   4.058  0.4260  0.8817 -0.2801
  941MOL0     C26940  -1.227   5.482   3.989 -0.1377  0.1686  0.7162
  941MOL0     C26941  -1.234   5.456   3.833 -0.1475 -0.0525 -0.2149
  941MOL0     C26942  -1.118   5.502   3.751 -0.1342 -0.2616  0.4946
  941MOL0     C26943  -1.103   5.657   3.734  0.4850  0.1948 -0.3535
  941MOL0     C26944  -1.172   5.709   3.605 -0.1568  0.7796  0.2131
  941MOL0    Cl26945  -1.171   5.891   3.592 -0.2029  0.1803  0.0289
  941MOL0     C26946  -0.734   5.328   4.411 -0.5337  0.0239 -0.2038
  941MOL0     C26947  -0.623   5.320   4.489  0.0174  1.1351  0.2918
  941MOL0     O26948  -0.468   5.082   4.605 -0.3982  0.2257 -0.2845
  941MOL0     C26949  -0.195   5.098   4.648  0.8170 -0.8989  0.9401
  941MOL0     C26950  -0.065   5.081   4.692 -0.6275  0.1532 -0.2971
  941MOL0     N26951   0.385   4.831   4.663 -0.2877 -0.4530  0.6115
  941MOL0     N26952   0.469   4.735   4.680  0.2059 -0.0526 -0.0706
  941MOL0     C26953   1.803   4.839   4.737  0.3067 -0.2350  1.1622
  941MOL0     C26954   1.939   4.865   4.756 -0.4229 -0.3237  0.1884
  941MOL0     C26955   2.375   4.862   4.851 -0.4610  0.7913  0.5585
  941MOL0     C26956   2.429   4.852   4.724 -0.1559 -0.4305 -1.1536
  941MOL0     C26957   2.564   4.877   4.717  0.0219 -1.2619 -0.4193
  941MOL0     C26958   2.654   4.905   4.827  0.3693  0.1672  0.7221
  941MOL0     O26959   2.790   4.919   4.811 -0.0161  0.2518  0.6357
  941MOL0     C26960   2.848   4.904   4.681  0.1347  0.2520 -0.6689
  941MOL0     C26961   3.001   4.895   4.692  0.6650  0.4947 -0.8266
  941MOL0     C26962   3.074   4.907   4.565 -0.4338 -0.0433  0.0851
  941MOL0     C26963   3.068   5.046   4.505  0.4264 -0.0348 -0.7914
  941MOL0     C26964   3.183   5.079   4.424  1.1355 -0.3030  0.0562
  941MOL0     C26965   3.271   5.099   4.346  0.5244  0.2849 -0.8443
  941MOL0     C26966   2.595   4.922   4.953 -0.0795 -0.7874  0.2214
  941MOL0     C26967   2.457   4.893   4.963  0.2222 -0.0642  0.9523
  941MOL0     H26968   2.063   4.556   4.729  0.4777  0.4695 -0.9967
  941MOL0     H26969   1.820   4.512   4.738  1.7435 -0.7745 -5.1903
  941MOL0     H26970   1.462   4.777   4.823 -3.0019 -5.8730  0.4984
  941MOL0     H26971   1.528   4.841   4.661 -1.5293  0.5540 -0.2847
  941MOL0     H26972   1.459   4.649   4.551 -0.0831  0.8692 -0.4061
  941MOL0     H26973   1.403   4.573   4.698  1.8164  1.2438  2.4887
  941MOL0     H26974   1.278   4.836   4.615  2.0226  0.2217  2.0081
  941MOL0     H26975   1.246   4.684   4.524  1.2355 -2.3239  0.0763
  941MOL0     H26976   1.180   4.571   4.735  0.3687 -0.2313  0.2159
  941MOL0     H26977   1.214   4.712   4.834 -0.9297 -0.5463 -0.4208
  941MOL0     H26978   1.028   4.841   4.727 -0.7087  0.2312  1.4365
  941MOL0     H26979   1.016   4.731   4.588  0.3588  0.2106  0.5609
  941MOL0     H26980   0.917   4.564   4.770  3.6780 -1.2736  0.6634
  941MOL0     H26981   0.963   4.687   4.887 -1.2790 -0.7606  0.9212
  941MOL0     H26982   0.749   4.753   4.864  0.3343  2.8268 -0.3269
  941MOL0     H26983   0.826   4.854   4.737  1.3250  0.0233  0.4109
  941MOL0     H26984   0.680   4.592   4.682  1.7863 -1.4603 -0.8410
  941MOL0     H26985   0.747   4.713   4.565 -0.1398  0.1114  0.2431
  941MOL0     H26986   0.669   4.974   4.577  1.9129 -3.0016  0.6913
  941MOL0     H26987   0.455   5.099   4.489  0.6865  0.2111  0.5694
  941MOL0     H26988   0.286   5.051   4.531  0.1834  2.1277 -0.7907
  941MOL0     H26989   0.391   5.269   4.624 -0.8217  2.4930  2.3795
  941MOL0     H26990   0.463   5.161   4.738  1.6108 -2.1967 -3.2188
  941MOL0     H26991   0.162   5.216   4.674  1.9749  1.5231 -1.1663
  941MOL0     H26992   0.243   5.284   4.802  3.4794  0.8310 -0.6669
  941MOL0     H26993   0.277   5.044   4.895  0.2479 -0.1556 -0.8469
  941MOL0     H26994   0.180   4.985   4.759  0.3345  0.1425 -0.4240
  941MOL0     H26995  -0.108   5.249   4.998  0.2766  0.6516  0.0768
  941MOL0     H26996  -0.433   5.156   4.981  1.9315 -1.6901 -1.8552
  941MOL0     H26997  -0.316   5.265   5.061  0.8463  0.5426  0.3372
  941MOL0     H26998  -0.425   5.333   4.929 -1.1744 -0.9992 -1.5464
  941MOL0     H26999  -0.769   5.322   4.793 -0.0438 -0.8926 -0.5673
  941MOL0     H27000  -0.969   5.321   4.661 -0.2946  3.4953 -1.6210
  941MOL0     H27001  -0.894   5.455   4.230 -0.8507  1.8296  3.1890
  941MOL0     H27002  -0.922   5.281   4.199 -0.3771  0.6463 -1.4397
  941MOL0     H27003  -1.173   5.348   4.240  0.8417 -0.6387  0.8683
  941MOL0     H27004  -1.117   5.510   4.268  1.6089 -0.3121  0.9373
  941MOL0     H27005  -1.054   5.357   4.017  0.2378 -0.2296  1.9259
  941MOL0     H27006  -1.026   5.532   4.048  0.5550  1.0433  1.6273
  941MOL0     H27007  -1.305   5.418   4.033  0.9286 -0.5571  1.6221
  941MOL0     H27008  -1.265   5.581   4.016 -3.5386 -0.1222 -2.2888
  941MOL0     H27009  -1.322   5.500   3.786 -0.0579 -1.4933 -1.8405
  941MOL0     H27010  -1.237   5.348   3.817 -1.7391  0.2261 -2.1221
  941MOL0     H27011  -1.030   5.445   3.783 -1.2326 -1.8384  0.8577
  941MOL0     H27012  -1.142   5.472   3.649  1.5183  0.2975 -0.0683
  941MOL0     H27013  -0.996   5.679   3.729  0.4512  0.5373  0.3968
  941MOL0     H27014  -1.124   5.706   3.829  1.7459  1.2389 -0.5899
  941MOL0     H27015  -1.271   5.662   3.608  0.1892  0.0163 -0.1015
  941MOL0     H27016  -1.118   5.663   3.522  0.8683 -1.4792  2.0013
  941MOL0     H27017  -0.726   5.337   4.303  0.3454  2.4387 -0.0081
  941MOL0     H27018  -0.526   5.314   4.440 -1.1490 -1.1669 -1.9946
  941MOL0     H27019  -0.225   5.059   4.551  0.5470  1.5852 -0.0425
  941MOL0     H27020  -0.002   5.018   4.630 -1.8017 -0.0066 -1.3606
  941MOL0     H27021   1.734   4.922   4.728  3.9638  3.3994  3.3279
  941MOL0     H27022   1.973   4.964   4.781  0.4638 -0.0672 -1.8312
  941MOL0     H27023   2.370   4.821   4.639 -0.9449  0.2137 -0.8597
  941MOL0     H27024   2.607   4.882   4.617  0.1229 -1.1468 -0.3696
  941MOL0     H27025   2.798   4.816   4.638  0.3138 -1.0849  1.6726
  941MOL0     H27026   2.813   4.996   4.634 -1.4199 -0.4452 -0.9293
  941MOL0     H27027   3.020   4.804   4.749 -2.0099 -0.2931 -1.0835
  941MOL0     H27028   3.042   4.977   4.752  0.3646  1.4761 -1.9190
  941MOL0     H27029   3.049   4.828   4.495 -0.8355 -2.2930  2.5929
  941MOL0     H27030   3.175   4.882   4.600 -1.0299 -0.0946  1.8838
  941MOL0     H27031   3.045   5.118   4.584 -2.6116 -2.3346  0.6376
  941MOL0     H27032   2.978   5.056   4.443  1.0284  3.4836 -1.3133
  941MOL0     H27033   3.340   5.126   4.269  0.1046  4.1257 -0.1056
  941MOL0     H27034   2.655   4.944   5.041 -1.4238  1.0672  0.7316
  941MOL0     H27035   2.414   4.889   5.063 -2.7648  0.5329 -0.1822
  942MOL0     O27036   5.468   6.433   7.330  0.2962  0.3571  0.4776
  942MOL0     C27037   5.512   6.545   7.371  0.8046  0.0760 -0.2580
  942MOL0     O27038   5.444   6.630   7.460 -0.5264 -1.3575  0.4692
  942MOL0     C27039   5.327   6.589   7.500 -0.0840  0.5626  0.0242
  942MOL0     C27040   5.317   6.494   7.600 -0.1469 -0.8905  0.2000
  942MOL0     C27041   5.196   6.435   7.629  0.5046 -0.0383  0.0948
  942MOL0     C27042   5.079   6.470   7.556 -0.1653  0.6936 -0.0205
  942MOL0     O27043   4.949   6.425   7.581 -0.6550 -0.5425 -0.1473
  942MOL0     C27044   4.925   6.374   7.705  0.7457 -0.3390 -0.3061
  942MOL0     C27045   4.764   6.338   7.709 -0.1774 -0.8953  0.0148
  942MOL0     C27046   4.677   6.463   7.697  0.5667 -0.2035 -0.1465
  942MOL0     C27047   4.531   6.435   7.687  0.0400  0.1380 -0.5872
  942MOL0     C27048   4.439   6.558   7.707  0.2001 -0.3430 -0.2482
  942MOL0     C27049   4.438   6.594   7.857  0.1668 -0.7843 -0.1812
  942MOL0     C27050   4.311   6.668   7.905  0.3827 -0.1152 -0.6095
  942MOL0     C27051   4.342   6.714   8.043 -0.1195  0.0656  0.5636
  942MOL0     N27052   4.237   6.790   8.104  0.3334 -0.5429  0.4902
  942MOL0     C27053   4.117   6.824   8.050 -0.0270  0.4089  0.0446
  942MOL0     C27054   4.068   6.913   8.135 -0.5683 -0.3135 -0.0565
  942MOL0     C27055   3.957   7.002   8.097  0.1319  0.2862 -0.1012
  942MOL0     C27056   3.848   7.015   8.203 -0.0566 -0.7956  0.0449
  942MOL0     C27057   3.758   7.126   8.158 -0.7338 -0.6873  0.1637
  942MOL0     C27058   3.635   7.130   8.247 -0.4148 -0.0433  0.0641
  942MOL0     O27059   3.552   7.236   8.198  0.0052 -0.4816 -0.3225
  942MOL0     C27060   3.426   7.243   8.238  0.4868  0.2187 -0.4236
  942MOL0     C27061   3.333   7.314   8.165  0.3728 -0.0165  0.2384
  942MOL0     C27062   3.196   7.320   8.192  0.4242 -0.6905 -0.4868
  942MOL0     C27063   3.111   7.411   8.110 -0.4953 -0.4024 -0.3831
  942MOL0     C27064   3.145   7.251   8.309 -0.0503 -0.8126 -0.2675
  942MOL0     C27065   3.006   7.281   8.363 -0.2572  0.2618  0.0724
  942MOL0     O27066   2.963   7.191   8.460  0.3757  1.0332 -0.0024
  942MOL0     C27067   2.841   7.207   8.521 -0.0841 -0.9067  0.1718
  942MOL0     C27068   2.747   7.104   8.536 -0.2670 -0.1004  0.0823
  942MOL0     C27069   2.627   7.124   8.610 -0.0667 -0.4663 -0.7766
  942MOL0     C27070   2.608   7.247   8.672 -0.0278  0.0098 -0.7318
  942MOL0     O27071   2.482   7.260   8.729 -0.8628 -0.4145 -0.3365
  942MOL0     C27072   2.433   7.384   8.772  0.3732 -0.6195  0.6504
  942MOL0     C27073   2.296   7.366   8.813 -0.5573  0.7361 -0.3118
  942MOL0     C27074   2.205   7.325   8.690 -0.1680  0.8533 -1.0798
  942MOL0     C27075   2.060   7.354   8.726 -0.2045 -0.2232 -0.0933
  942MOL0     C27076   1.971   7.304   8.612  0.4219  0.0629  0.0916
  942MOL0     C27077   1.833   7.295   8.669 -0.1679 -0.3182 -0.0328
  942MOL0     C27078   1.734   7.234   8.568  0.8876 -0.1016 -0.5231
  942MOL0     C27079   1.758   7.082   8.568  0.6395  0.3043 -0.6887
  942MOL0    Cl27080   1.710   6.994   8.722  0.0847 -0.1204 -0.1348
  942MOL0     C27081   2.705   7.342   8.672 -0.8183 -0.5375  0.6528
  942MOL0     C27082   2.822   7.319   8.596 -0.7156 -0.0720 -0.5742
  942MOL0     O27083   2.946   7.380   8.321  0.0057 -0.7664 -0.0537
  942MOL0     C27084   3.237   7.188   8.387 -0.3318 -0.0470 -0.0208
  942MOL0     C27085   3.373   7.185   8.353  0.8593 -0.0250  0.1849
  942MOL0     N27086   4.146   6.916   8.258  0.3764  0.0868  0.7380
  942MOL0     N27087   4.253   6.840   8.232  0.7239  0.3380  0.3394
  942MOL0     C27088   5.084   6.573   7.459  0.3794 -0.0106  0.6649
  942MOL0     C27089   5.210   6.632   7.431 -0.7687 -0.4100  0.1543
  942MOL0     C27090   5.643   6.597   7.330  0.4448  0.4906  0.5529
  942MOL0     C27091   5.706   6.703   7.401  0.2737 -0.4218  0.3358
  942MOL0     C27092   5.839   6.757   7.374 -0.0932  0.2965 -0.1655
  942MOL0     C27093   5.911   6.684   7.283 -0.2309 -0.0282  0.6594
  942MOL0     O27094   6.047   6.714   7.257  0.2444  0.3138 -0.3633
  942MOL0     C27095   6.102   6.822   7.335 -0.0541 -0.6017 -0.4053
  942MOL0     C27096   6.244   6.855   7.287 -0.2639  0.3058  0.5814
  942MOL0     C27097   6.353   6.747   7.311  0.7063 -0.1202 -0.1917
  942MOL0     C27098   6.480   6.793   7.243  0.1036 -0.6878 -0.1809
  942MOL0     C27099   6.461   6.776   7.103 -0.7478  0.2593 -0.4132
  942MOL0     C27100   6.438   6.739   6.993  0.2794  0.2823 -0.1327
  942MOL0     C27101   5.850   6.579   7.199 -0.3085  0.5407 -0.1956
  942MOL0     C27102   5.713   6.539   7.222  0.2901  0.0736 -0.1742
  942MOL0     H27103   5.396   6.463   7.668  1.1853 -2.4480 -1.9311
  942MOL0     H27104   5.192   6.365   7.712 -1.1365 -0.8407 -0.6136
  942MOL0     H27105   4.982   6.285   7.730  1.3650  0.8719  3.1892
  942MOL0     H27106   4.947   6.448   7.784 -2.5921  2.0696 -1.3793
  942MOL0     H27107   4.746   6.256   7.639 -1.3782 -1.0652  0.5103
  942MOL0     H27108   4.747   6.297   7.809  0.0691 -1.0967 -0.0264
  942MOL0     H27109   4.693   6.519   7.790 -1.9416  0.0189  0.2095
  942MOL0     H27110   4.711   6.519   7.610 -0.2464  1.2948  0.4699
  942MOL0     H27111   4.500   6.401   7.588 -0.2017 -1.3879 -0.0197
  942MOL0     H27112   4.506   6.367   7.769 -0.6586  2.4371  1.2145
  942MOL0     H27113   4.472   6.638   7.640  1.2283 -1.5167 -1.2104
  942MOL0     H27114   4.341   6.521   7.677  0.4271 -2.2486  1.1237
  942MOL0     H27115   4.462   6.509   7.921  1.3817 -1.3062 -1.2913
  942MOL0     H27116   4.524   6.661   7.869  0.1144 -0.3674 -1.9003
  942MOL0     H27117   4.285   6.745   7.831 -2.1094 -0.3943 -0.1089
  942MOL0     H27118   4.229   6.596   7.900  0.1914  0.0146  0.6011
  942MOL0     H27119   4.434   6.772   8.052  0.5713 -1.0810  1.1830
  942MOL0     H27120   4.356   6.630   8.112  0.1353 -3.7131 -3.6480
  942MOL0     H27121   4.097   6.799   7.946  5.2605 -0.5704 -1.0247
  942MOL0     H27122   4.010   7.092   8.066 -0.1276 -0.0149 -1.5277
  942MOL0     H27123   3.913   6.953   8.009 -0.7593  0.2753  0.3379
  942MOL0     H27124   3.882   7.037   8.304 -2.9064  1.0977  0.7297
  942MOL0     H27125   3.788   6.923   8.203  1.0264 -1.5477 -1.6230
  942MOL0     H27126   3.732   7.117   8.052  1.8782  4.6543 -1.2965
  942MOL0     H27127   3.811   7.221   8.172 -1.1103 -0.1361 -1.7701
  942MOL0     H27128   3.652   7.153   8.353 -0.5953 -0.6580  0.2354
  942MOL0     H27129   3.592   7.030   8.237  1.7765 -1.3100  2.2097
  942MOL0     H27130   3.379   7.363   8.081 -2.3729  0.9238 -0.8255
  942MOL0     H27131   3.083   7.495   8.174 -0.0455 -0.3800 -0.2115
  942MOL0     H27132   3.169   7.450   8.026 -1.6226 -0.1733 -1.0870
  942MOL0     H27133   3.029   7.351   8.069 -1.2426  0.4347 -0.1664
  942MOL0     H27134   2.773   7.005   8.498  1.8921 -0.0408  1.2509
  942MOL0     H27135   2.559   7.041   8.617  1.0297 -1.4613 -1.4665
  942MOL0     H27136   2.494   7.426   8.852  1.7313  0.9218 -1.1157
  942MOL0     H27137   2.448   7.458   8.694  1.1924 -0.1397  1.2377
  942MOL0     H27138   2.283   7.288   8.889  0.8690 -0.9810 -1.7438
  942MOL0     H27139   2.259   7.465   8.842 -0.5467  1.8335 -3.6462
  942MOL0     H27140   2.219   7.218   8.674  3.5758  1.3111 -1.7663
  942MOL0     H27141   2.242   7.382   8.604  0.0954  1.3747 -0.6295
  942MOL0     H27142   2.026   7.311   8.821 -3.3459  1.6657 -0.2213
  942MOL0     H27143   2.035   7.459   8.747  0.4205 -0.1947  0.5510
  942MOL0     H27144   2.012   7.210   8.572  0.7300  0.7933 -1.3845
  942MOL0     H27145   1.975   7.375   8.529 -1.2079  0.9058  0.6912
  942MOL0     H27146   1.825   7.239   8.763  2.1314  1.2746  1.1995
  942MOL0     H27147   1.808   7.400   8.688 -0.7422 -0.6661  1.1957
  942MOL0     H27148   1.760   7.269   8.468 -1.5661  1.1203 -0.8168
  942MOL0     H27149   1.633   7.267   8.592  1.9126  2.0422  1.1437
  942MOL0     H27150   1.864   7.067   8.543  0.5190 -2.3734  0.0572
  942MOL0     H27151   1.696   7.035   8.491 -0.0175  0.2565 -0.1447
  942MOL0     H27152   2.697   7.428   8.738  2.4371 -0.6915  1.4246
  942MOL0     H27153   2.909   7.385   8.594  0.0712 -1.0855 -1.8604
  942MOL0     H27154   3.205   7.136   8.477 -0.0760  0.5356  0.4171
  942MOL0     H27155   3.441   7.135   8.421  0.1648  0.6010  1.3746
  942MOL0     H27156   4.989   6.608   7.420 -0.8392 -1.6372  1.9916
  942MOL0     H27157   5.241   6.712   7.364  1.6097 -0.7320  0.7886
  942MOL0     H27158   5.668   6.750   7.491 -2.2430  1.2509 -1.4648
  942MOL0     H27159   5.863   6.844   7.434 -1.3174  0.9388 -0.5870
  942MOL0     H27160   6.038   6.911   7.335  2.4087  1.3124  0.0485
  942MOL0     H27161   6.102   6.798   7.442  0.1560  1.9942  0.2446
  942MOL0     H27162   6.273   6.943   7.346 -1.7919  1.9330 -0.9504
  942MOL0     H27163   6.238   6.889   7.183  0.1166  1.7906  1.0100
  942MOL0     H27164   6.336   6.649   7.265 -0.3964 -1.5608  3.0104
  942MOL0     H27165   6.376   6.729   7.417  2.4391  1.1840 -0.3046
  942MOL0     H27166   6.566   6.737   7.281  1.6558 -0.0970 -2.5910
  942MOL0     H27167   6.501   6.897   7.267  0.1738 -0.6881 -0.2412
  942MOL0     H27168   6.413   6.706   6.895 -0.2596 -0.8620  0.3756
  942MOL0     H27169   5.903   6.525   7.121 -1.8965 -0.2490 -0.7747
  942MOL0     H27170   5.668   6.477   7.146  1.4611  1.1618 -1.8116
  943MOL0     O27171   8.765   9.081   6.131 -0.1553  0.6673  0.2015
  943MOL0     C27172   8.770   9.158   6.035 -0.5093 -0.1211 -0.1563
  943MOL0     O27173   8.655   9.194   5.958  0.2162  0.3520  0.2161
  943MOL0     C27174   8.551   9.107   5.982  0.2745  0.1657 -0.2073
  943MOL0     C27175   8.458   9.146   6.081  0.6327 -0.6358 -0.1139
  943MOL0     C27176   8.338   9.073   6.086  0.2110 -0.6198 -0.0604
  943MOL0     C27177   8.321   8.954   6.009 -0.5667  0.0752  0.3107
  943MOL0     O27178   8.208   8.882   6.000 -0.0065 -0.5269 -0.2358
  943MOL0     C27179   8.107   8.898   6.100  0.2993  0.2684 -0.2284
  943MOL0     C27180   7.977   8.813   6.069  0.2058  0.0931  0.0380
  943MOL0     C27181   7.897   8.889   5.966  1.1758 -0.8951 -0.1073
  943MOL0     C27182   7.790   8.795   5.900  0.2942 -0.0463  0.2820
  943MOL0     C27183   7.685   8.863   5.820 -0.0730 -0.0422  0.4285
  943MOL0     C27184   7.741   8.941   5.696 -0.5117  0.8306  0.3677
  943MOL0     C27185   7.636   9.032   5.637 -0.4735 -0.6980 -0.0334
  943MOL0     C27186   7.520   8.941   5.578 -0.0768  0.0658  0.8013
  943MOL0     N27187   7.418   9.032   5.526  0.0137  0.2978 -0.2307
  943MOL0     C27188   7.319   9.079   5.602  0.3657  0.7346  0.2974
  943MOL0     C27189   7.244   9.149   5.515 -0.0956 -0.2544 -0.6644
  943MOL0     C27190   7.109   9.218   5.545  0.0024 -0.7217 -0.1084
  943MOL0     C27191   7.033   9.117   5.631  0.8938  0.1099  0.2328
  943MOL0     C27192   6.877   9.096   5.606  0.7739  0.1621  0.5802
  943MOL0     C27193   6.812   8.976   5.677  0.0195 -0.6457  0.2709
  943MOL0     O27194   6.848   8.994   5.817 -0.1339  0.0717 -0.5174
  943MOL0     C27195   6.816   8.886   5.892 -0.5797 -0.3386 -0.3237
  943MOL0     C27196   6.774   8.764   5.845 -0.1370  1.4239  0.6983
  943MOL0     C27197   6.750   8.654   5.932 -0.2061 -1.0068  1.2830
  943MOL0     C27198   6.702   8.533   5.860 -0.0188  0.3761 -0.4468
  943MOL0     C27199   6.756   8.672   6.072  0.3944 -1.4846 -0.1625
  943MOL0     C27200   6.722   8.567   6.167  0.5637 -0.3809 -0.5850
  943MOL0     O27201   6.774   8.568   6.293 -0.1874 -0.0840  0.5193
  943MOL0     C27202   6.912   8.572   6.289  0.7526 -0.1443  0.4868
  943MOL0     C27203   6.993   8.473   6.226  0.1245 -0.1978  0.0477
  943MOL0     C27204   7.133   8.488   6.235  0.3966 -0.1673  0.0262
  943MOL0     C27205   7.193   8.602   6.302  0.5537  0.5349  0.1901
  943MOL0     O27206   7.322   8.611   6.322 -0.9112 -1.0313  1.1222
  943MOL0     C27207   7.404   8.605   6.207  0.5626  0.4762 -0.4469
  943MOL0     C27208   7.548   8.617   6.250  0.2886 -0.2414 -0.0345
  943MOL0     C27209   7.601   8.501   6.337  0.1395  0.7410  0.1199
  943MOL0     C27210   7.743   8.528   6.384 -0.1213 -0.4873  0.4882
  943MOL0     C27211   7.813   8.403   6.446  0.3460  0.3488  0.1631
  943MOL0     C27212   7.956   8.444   6.483  0.9941  0.9183  0.2119
  943MOL0     C27213   8.046   8.334   6.537 -0.3692 -0.3969 -0.0558
  943MOL0     C27214   8.098   8.251   6.417  0.0098  0.1954 -0.3604
  943MOL0    Cl27215   8.278   8.224   6.435  0.4748 -0.0278 -0.3814
  943MOL0     C27216   7.105   8.687   6.364  0.6035  0.1087 -1.4691
  943MOL0     C27217   6.971   8.679   6.359  1.2560  0.6336  0.7873
  943MOL0     O27218   6.621   8.499   6.139  0.0016  0.5200  0.0143
  943MOL0     C27219   6.802   8.801   6.122  0.1921  0.7985  0.9814
  943MOL0     C27220   6.833   8.899   6.032 -0.2064  0.7393  0.3028
  943MOL0     N27221   7.301   9.154   5.386  0.4873  0.1111 -0.0007
  943MOL0     N27222   7.410   9.078   5.399  0.7281 -0.3366  0.4110
  943MOL0     C27223   8.427   8.915   5.920 -0.1876 -0.2368  0.3028
  943MOL0     C27224   8.537   8.997   5.899 -0.3395  0.4415 -0.5496
  943MOL0     C27225   8.898   9.224   6.006  0.0086 -0.4065 -0.2875
  943MOL0     C27226   8.910   9.341   5.933  0.7304 -0.8560  0.0612
  943MOL0     C27227   9.035   9.401   5.899  0.7747  0.1121 -0.7612
  943MOL0     C27228   9.144   9.318   5.919 -1.2967  0.7564  0.3454
  943MOL0     O27229   9.268   9.360   5.884 -0.0853  0.9093  0.2007
  943MOL0     C27230   9.296   9.471   5.788 -0.1152 -0.6668  0.1593
  943MOL0     C27231   9.404   9.450   5.684 -0.1955 -0.3495 -0.2743
  943MOL0     C27232   9.550   9.422   5.743 -1.1025  0.0210 -0.5521
  943MOL0     C27233   9.639   9.354   5.636  0.1083  0.7162 -0.7085
  943MOL0     C27234   9.614   9.202   5.618  0.1367  0.1973 -0.3775
  943MOL0     C27235   9.582   9.087   5.600 -1.3297  0.2199 -0.7702
  943MOL0     C27236   9.141   9.194   5.995  0.7117  0.2621 -0.0120
  943MOL0     C27237   9.014   9.150   6.039 -0.3192 -0.2794  0.3087
  943MOL0     H27238   8.475   9.231   6.147 -0.8943 -0.3567 -0.0458
  943MOL0     H27239   8.249   9.109   6.136 -0.6477  1.6798 -2.9721
  943MOL0     H27240   8.142   8.870   6.200 -2.4075 -2.4108  0.1431
  943MOL0     H27241   8.073   9.001   6.098 -0.1139  0.1678 -2.9577
  943MOL0     H27242   7.995   8.710   6.036  2.9821  0.8236 -1.0499
  943MOL0     H27243   7.917   8.811   6.160  0.4407  2.0179  0.2729
  943MOL0     H27244   7.847   8.975   6.011  0.2715 -0.9184 -1.0559
  943MOL0     H27245   7.974   8.922   5.896  0.7199 -2.6149 -1.5061
  943MOL0     H27246   7.832   8.709   5.847  2.1790  0.1921  1.2982
  943MOL0     H27247   7.729   8.760   5.983 -1.3118  2.9113  0.4841
  943MOL0     H27248   7.629   8.774   5.788  1.9276 -0.3794 -2.6397
  943MOL0     H27249   7.623   8.924   5.886  0.4876 -0.0763  0.9857
  943MOL0     H27250   7.822   9.005   5.732  0.2265 -0.0203  0.2495
  943MOL0     H27251   7.767   8.879   5.610  0.6230  0.8269  0.7024
  943MOL0     H27252   7.599   9.103   5.712 -0.1886 -0.3849 -0.1851
  943MOL0     H27253   7.685   9.096   5.563  0.7937 -1.5959 -0.0131
  943MOL0     H27254   7.474   8.870   5.648 -1.0018  0.3393  0.4892
  943MOL0     H27255   7.552   8.883   5.491 -1.9433 -0.1317  0.2026
  943MOL0     H27256   7.310   9.047   5.705  4.1901 -0.8425  0.2876
  943MOL0     H27257   7.125   9.317   5.588 -1.0370  0.1472 -1.6180
  943MOL0     H27258   7.063   9.241   5.448  1.3585  1.0138 -0.3904
  943MOL0     H27259   7.048   9.138   5.737  0.9192 -0.7387  0.4073
  943MOL0     H27260   7.068   9.015   5.614 -2.6274 -0.8596 -2.5176
  943MOL0     H27261   6.870   9.082   5.498 -3.2647  2.2837  0.3441
  943MOL0     H27262   6.823   9.191   5.618  1.9271  1.7150 -4.1918
  943MOL0     H27263   6.852   8.887   5.627  1.5556 -0.0116  0.3099
  943MOL0     H27264   6.705   8.993   5.663  0.1106  1.4795  1.7810
  943MOL0     H27265   6.768   8.748   5.738 -1.3876 -2.9171  1.2084
  943MOL0     H27266   6.592   8.531   5.862 -0.0508  1.4705  0.9930
  943MOL0     H27267   6.733   8.531   5.755 -0.4300  1.6539 -0.6178
  943MOL0     H27268   6.743   8.451   5.919 -1.7686  1.5715  2.7030
  943MOL0     H27269   6.954   8.391   6.166 -0.6324  2.5928 -3.5686
  943MOL0     H27270   7.187   8.415   6.175 -1.8377 -0.6787 -1.4915
  943MOL0     H27271   7.385   8.528   6.132  2.2815  0.5402 -0.9923
  943MOL0     H27272   7.391   8.696   6.147 -0.6574  0.1150 -0.7460
  943MOL0     H27273   7.603   8.613   6.155  2.0473 -3.3782  0.9669
  943MOL0     H27274   7.557   8.710   6.307  0.0553 -1.3629  1.9251
  943MOL0     H27275   7.596   8.402   6.290 -0.2038 -0.3698  2.3970
  943MOL0     H27276   7.537   8.493   6.425 -1.0852  0.2211 -0.7960
  943MOL0     H27277   7.800   8.561   6.296  0.1547  0.8469  1.1311
  943MOL0     H27278   7.743   8.611   6.456  3.6611 -0.7658  1.0069
  943MOL0     H27279   7.836   8.325   6.373 -0.3542  0.2137  0.0813
  943MOL0     H27280   7.752   8.358   6.525  0.2477  1.0792  0.5143
  943MOL0     H27281   8.002   8.490   6.395 -0.6613  4.2511  0.9241
  943MOL0     H27282   7.936   8.519   6.560 -0.1872 -1.0338  1.9101
  943MOL0     H27283   8.000   8.278   6.618 -2.1729  0.0528 -0.7180
  943MOL0     H27284   8.131   8.379   6.590  1.5690 -2.4955 -1.2257
  943MOL0     H27285   8.077   8.288   6.316  0.9466 -0.8894 -0.9691
  943MOL0     H27286   8.050   8.153   6.419  0.9192 -0.2580  2.0603
  943MOL0     H27287   7.131   8.766   6.434  0.9750 -1.9410  0.8563
  943MOL0     H27288   6.918   8.761   6.407  0.5668  1.1056 -0.7176
  943MOL0     H27289   6.795   8.835   6.225 -2.2811 -0.9985  1.5131
  943MOL0     H27290   6.883   8.981   6.082  1.1488 -0.0675  0.3324
  943MOL0     H27291   8.417   8.825   5.860 -0.1762 -0.9489  1.3486
  943MOL0     H27292   8.613   8.975   5.825 -0.4358 -1.3671 -0.1689
  943MOL0     H27293   8.822   9.398   5.909 -0.1529 -1.7241  1.1362
  943MOL0     H27294   9.034   9.497   5.850 -3.8995  1.3475  1.2535
  943MOL0     H27295   9.204   9.493   5.733 -1.0851  1.1950  2.3969
  943MOL0     H27296   9.311   9.566   5.840 -3.1050  0.1635 -0.2993
  943MOL0     H27297   9.403   9.528   5.608 -3.2727 -2.1173 -2.2564
  943MOL0     H27298   9.367   9.367   5.624 -0.1091 -0.7975  0.2772
  943MOL0     H27299   9.543   9.356   5.830  1.9235 -2.0387 -1.7116
  943MOL0     H27300   9.606   9.514   5.765  1.7591 -1.8551  0.5082
  943MOL0     H27301   9.744   9.368   5.664  0.5498 -1.3049 -1.1930
  943MOL0     H27302   9.627   9.405   5.540 -0.5495 -1.1433 -1.6696
  943MOL0     H27303   9.564   8.983   5.582 -1.0431  0.0095  0.1170
  943MOL0     H27304   9.230   9.134   6.008  0.1914 -0.5891 -0.2358
  943MOL0     H27305   9.009   9.054   6.087  0.5688 -0.5971 -0.2236
  944MOL0     O27306   6.862  10.773   1.510 -0.2395  0.5598  0.2693
  944MOL0     C27307   6.885  10.811   1.625  0.4254 -0.7623  0.5844
  944MOL0     O27308   6.786  10.860   1.717 -0.0925  0.2961  0.1176
  944MOL0     C27309   6.662  10.876   1.675 -0.2340  0.9062  0.0921
  944MOL0     C27310   6.627  10.950   1.556 -0.5912 -0.2588 -0.5280
  944MOL0     C27311   6.496  10.981   1.532  0.2688  0.5742 -0.5901
  944MOL0     C27312   6.389  10.944   1.621 -0.4017  0.5519  0.3221
  944MOL0     O27313   6.261  10.980   1.586  0.3349  0.0379  0.5555
  944MOL0     C27314   6.158  10.983   1.690 -0.0629  0.1740  0.7176
  944MOL0     C27315   6.016  11.021   1.638  0.9577 -0.3533  0.0230
  944MOL0     C27316   6.012  11.165   1.575 -0.0705  0.1531 -0.0794
  944MOL0     C27317   5.868  11.188   1.525  0.5258 -0.1958  0.5904
  944MOL0     C27318   5.752  11.188   1.629  0.3895 -1.2050 -0.4190
  944MOL0     C27319   5.609  11.223   1.575 -0.0523 -0.0937 -0.0197
  944MOL0     C27320   5.597  11.366   1.514  0.3169 -0.2077  0.3387
  944MOL0     C27321   5.457  11.418   1.505 -0.3947 -0.8207 -0.9559
  944MOL0     N27322   5.374  11.340   1.417  0.1497  0.3935 -0.5949
  944MOL0     C27323   5.382  11.349   1.278 -0.1019 -0.1483 -0.5843
  944MOL0     C27324   5.262  11.296   1.241 -0.0701  0.1664 -0.1718
  944MOL0     C27325   5.213  11.288   1.100 -0.4845 -0.0763 -0.9828
  944MOL0     C27326   5.275  11.182   1.012  0.6186  0.3809  0.3475
  944MOL0     C27327   5.239  11.039   1.056 -0.0429  0.6737  0.3064
  944MOL0     C27328   5.098  10.991   1.038 -0.3655  0.0234  0.2065
  944MOL0     O27329   5.043  11.014   0.910 -0.6208 -0.0678 -0.0970
  944MOL0     C27330   4.924  10.947   0.880  0.4222  0.0559  0.7798
  944MOL0     C27331   4.836  10.885   0.968  0.7394 -1.2958 -0.3612
  944MOL0     C27332   4.712  10.830   0.928  0.0728  0.0252 -1.2005
  944MOL0     C27333   4.635  10.765   1.037  0.0698 -0.0979  0.4647
  944MOL0     C27334   4.672  10.847   0.792 -0.4811 -0.1288 -0.6659
  944MOL0     C27335   4.543  10.798   0.730 -0.1931 -0.2265 -0.6429
  944MOL0     O27336   4.438  10.791   0.819  1.4638  0.4520 -0.1295
  944MOL0     C27337   4.316  10.754   0.774  0.2595 -0.1437 -0.6236
  944MOL0     C27338   4.237  10.817   0.679 -0.0986  0.2242  0.0453
  944MOL0     C27339   4.115  10.772   0.641  0.2758  0.3612  0.0044
  944MOL0     C27340   4.068  10.646   0.693 -0.7288  0.0035  0.4716
  944MOL0     O27341   3.948  10.588   0.664 -0.7176 -0.4153  0.0613
  944MOL0     C27342   3.860  10.655   0.567  0.3779  0.1694  0.8697
  944MOL0     C27343   3.734  10.562   0.548  0.6525  0.3022  0.7215
  944MOL0     C27344   3.612  10.645   0.498 -0.1570 -0.9511 -0.4371
  944MOL0     C27345   3.632  10.716   0.356 -0.4834  0.4491 -0.0595
  944MOL0     C27346   3.501  10.781   0.317  0.6916 -0.0252 -0.1116
  944MOL0     C27347   3.519  10.901   0.224 -0.4736  0.0185 -0.2194
  944MOL0     C27348   3.397  10.975   0.189 -0.6284 -0.3118 -0.5345
  944MOL0     C27349   3.402  11.017   0.043 -0.4527  0.4069  0.6042
  944MOL0    Cl27350   3.488  11.173   0.015  0.5251 -0.0459  0.2940
  944MOL0     C27351   4.153  10.574   0.779 -0.1764  0.2660 -0.3959
  944MOL0     C27352   4.268  10.634   0.822 -0.6003  0.9207  0.2199
  944MOL0     O27353   4.539  10.764   0.616 -0.3900  0.5596 -0.1716
  944MOL0     C27354   4.769  10.898   0.701  0.4390 -0.1814 -0.4921
  944MOL0     C27355   4.890  10.951   0.748 -0.0415 -0.4206 -0.3641
  944MOL0     N27356   5.182  11.266   1.345 -0.4733  0.7446  0.0276
  944MOL0     N27357   5.256  11.279   1.454 -0.0372 -0.8040  0.0233
  944MOL0     C27358   6.427  10.866   1.738  0.6444 -0.3514  0.2603
  944MOL0     C27359   6.558  10.834   1.769 -0.3136  0.5385 -0.2008
  944MOL0     C27360   7.023  10.801   1.669  0.3524  0.4892 -0.7156
  944MOL0     C27361   7.122  10.722   1.610  0.3574 -0.6421 -0.8710
  944MOL0     C27362   7.254  10.717   1.654 -0.1916 -0.8989 -0.6120
  944MOL0     C27363   7.287  10.776   1.777  0.1630 -0.4341  0.1969
  944MOL0     O27364   7.416  10.774   1.822 -0.9373  0.6418  0.4791
  944MOL0     C27365   7.458  10.826   1.949 -0.1777  0.1460  0.1770
  944MOL0     C27366   7.614  10.816   1.988  0.3967 -0.1281 -0.3270
  944MOL0     C27367   7.651  10.668   1.980  0.1554 -0.6500 -0.0763
  944MOL0     C27368   7.784  10.637   2.059  0.1718 -0.8498 -0.8008
  944MOL0     C27369   7.754  10.652   2.206 -0.1853 -1.0743 -0.4127
  944MOL0     C27370   7.750  10.661   2.324  0.5356  0.4336 -0.2757
  944MOL0     C27371   7.181  10.838   1.850  0.9650 -0.3684 -0.4150
  944MOL0     C27372   7.059  10.849   1.798  0.6082 -0.2216 -0.4384
  944MOL0     H27373   6.712  10.986   1.500 -0.3024  1.5534  0.9849
  944MOL0     H27374   6.478  11.037   1.441  1.2581  2.1223  0.1335
  944MOL0     H27375   6.152  10.891   1.749  0.9926 -1.3678 -1.4642
  944MOL0     H27376   6.189  11.061   1.761 -1.0957  4.7895 -3.3828
  944MOL0     H27377   5.984  10.949   1.562  1.6388 -0.9237  0.2677
  944MOL0     H27378   5.953  11.013   1.727  0.9607 -2.7670 -0.1232
  944MOL0     H27379   6.040  11.240   1.650 -1.5171  0.7893 -0.1523
  944MOL0     H27380   6.082  11.173   1.491  1.7313  2.8789  1.5042
  944MOL0     H27381   5.870  11.280   1.466  0.9908 -1.3774 -1.3438
  944MOL0     H27382   5.849  11.108   1.452 -0.0321  1.2796 -0.9387
  944MOL0     H27383   5.748  11.107   1.702 -0.2941  1.1584  2.3791
  944MOL0     H27384   5.784  11.274   1.689 -0.2508 -0.7842 -0.6645
  944MOL0     H27385   5.598  11.144   1.500 -1.2078 -1.5685  1.6337
  944MOL0     H27386   5.536  11.210   1.655 -1.3216  1.1131 -0.9414
  944MOL0     H27387   5.648  11.439   1.579  1.1781  0.4549 -1.0383
  944MOL0     H27388   5.646  11.368   1.416  0.2778  3.5427  0.2594
  944MOL0     H27389   5.454  11.525   1.484 -0.9162 -0.6665 -0.1555
  944MOL0     H27390   5.418  11.406   1.607  3.5939  0.3558  0.9603
  944MOL0     H27391   5.466  11.384   1.218  0.8418 -0.2409  0.6361
  944MOL0     H27392   5.106  11.271   1.119 -0.2645 -0.3846  0.0330
  944MOL0     H27393   5.226  11.390   1.060 -1.2836  0.0868 -0.8431
  944MOL0     H27394   5.382  11.203   1.009  0.8107 -0.6776 -2.0198
  944MOL0     H27395   5.227  11.188   0.914  1.4717  1.0137 -0.0338
  944MOL0     H27396   5.278  11.010   1.154  0.7337 -0.0810 -0.2119
  944MOL0     H27397   5.304  10.971   0.999 -0.4780 -0.7566  1.4744
  944MOL0     H27398   5.024  11.035   1.105 -3.8454 -2.5669 -1.5493
  944MOL0     H27399   5.114  10.884   1.056 -0.4766 -0.2590 -1.2546
  944MOL0     H27400   4.858  10.883   1.074 -0.4808  0.2408 -0.0526
  944MOL0     H27401   4.547  10.819   1.075  0.3479  0.1309  0.7811
  944MOL0     H27402   4.597  10.670   0.999 -2.5881  0.8786  0.4307
  944MOL0     H27403   4.699  10.743   1.123  0.9821 -2.0114 -0.6541
  944MOL0     H27404   4.274  10.904   0.626  0.8115 -0.0127  0.2738
  944MOL0     H27405   4.050  10.838   0.585 -3.8291 -0.0380  3.7465
  944MOL0     H27406   3.832  10.757   0.595  0.6382  0.2750  0.7488
  944MOL0     H27407   3.910  10.658   0.470  1.5379 -1.1579  1.3909
  944MOL0     H27408   3.762  10.488   0.473  0.3448  0.9000 -0.0017
  944MOL0     H27409   3.711  10.507   0.639 -0.0380 -2.0266 -0.7741
  944MOL0     H27410   3.602  10.720   0.576 -0.6957 -0.1968 -1.2082
  944MOL0     H27411   3.524  10.581   0.489  0.2646 -1.2649 -3.4432
  944MOL0     H27412   3.711  10.791   0.367 -1.2722  1.0357  2.2544
  944MOL0     H27413   3.666  10.645   0.280  1.3210  1.6846 -0.4813
  944MOL0     H27414   3.459  10.817   0.411 -0.4008 -2.0085  0.2251
  944MOL0     H27415   3.433  10.707   0.273 -0.2446  1.4201 -1.2002
  944MOL0     H27416   3.574  10.973   0.286 -1.3624  0.9311 -0.4777
  944MOL0     H27417   3.572  10.872   0.132 -0.9692 -1.5415 -0.0494
  944MOL0     H27418   3.381  11.068   0.243  2.4516  0.6022 -0.9728
  944MOL0     H27419   3.306  10.921   0.216 -0.0938 -0.6453  0.6941
  944MOL0     H27420   3.308  11.034  -0.009  0.2696  2.2922 -0.1867
  944MOL0     H27421   3.452  10.943  -0.020  1.3791  0.8804  1.4223
  944MOL0     H27422   4.112  10.480   0.815 -3.5435  1.7706  0.1014
  944MOL0     H27423   4.342  10.574   0.875  0.6657  0.2582 -2.1797
  944MOL0     H27424   4.757  10.915   0.595  2.8511  2.0377 -0.5015
  944MOL0     H27425   4.962  10.996   0.680 -0.6408  0.0693 -0.6798
  944MOL0     H27426   6.353  10.865   1.817  0.6354  1.0830  0.2882
  944MOL0     H27427   6.592  10.785   1.860  0.4543  3.9472  1.5156
  944MOL0     H27428   7.095  10.657   1.527  2.3825 -0.1441 -1.9951
  944MOL0     H27429   7.335  10.673   1.595  0.1990  2.6980 -3.0680
  944MOL0     H27430   7.431  10.931   1.956 -0.4624 -0.0696  4.4665
  944MOL0     H27431   7.407  10.764   2.023  2.1536 -0.8814  1.0537
  944MOL0     H27432   7.621  10.854   2.090  0.5044  1.7182 -0.9902
  944MOL0     H27433   7.682  10.866   1.919 -1.1647  0.4497 -1.5045
  944MOL0     H27434   7.671  10.629   1.880 -1.4126 -0.8631 -0.3446
  944MOL0     H27435   7.580  10.599   2.026 -1.2377  0.6504 -0.1917
  944MOL0     H27436   7.873  10.689   2.025 -0.1983  0.1039 -0.3630
  944MOL0     H27437   7.811  10.532   2.053  0.3487 -0.8518 -0.0974
  944MOL0     H27438   7.736  10.671   2.430 -2.4340  1.0686 -0.6229
  944MOL0     H27439   7.192  10.878   1.951 -1.7153  2.5749 -1.1291
  944MOL0     H27440   6.985  10.902   1.858 -2.7010 -2.3661 -2.2802
  945MOL0     O27441   5.813   5.212   7.547 -0.6571  0.1965  0.6830
  945MOL0     C27442   5.871   5.148   7.456  0.1712  0.6443 -0.7204
  945MOL0     O27443   5.804   5.092   7.346 -0.0691 -0.1554  0.3499
  945MOL0     C27444   5.670   5.115   7.327  0.3845  0.8088 -0.4807
  945MOL0     C27445   5.626   5.093   7.196 -0.8020  0.3925  0.4132
  945MOL0     C27446   5.511   5.129   7.138  0.2673 -1.2141  0.0395
  945MOL0     C27447   5.414   5.190   7.229 -0.4388  0.5596 -0.2096
  945MOL0     O27448   5.292   5.227   7.181 -0.2868  0.7673 -0.6856
  945MOL0     C27449   5.198   5.120   7.165 -0.8009 -0.1046 -0.0998
  945MOL0     C27450   5.071   5.188   7.104  0.7345  0.7222 -0.0390
  945MOL0     C27451   4.989   5.245   7.221  0.0768 -0.4352 -0.5123
  945MOL0     C27452   4.849   5.294   7.171 -0.4605  0.0044 -0.4332
  945MOL0     C27453   4.757   5.178   7.132 -0.1807  0.2579  0.4985
  945MOL0     C27454   4.731   5.063   7.236 -0.3764 -0.1113 -0.0608
  945MOL0     C27455   4.607   4.984   7.191 -0.2321 -0.1212 -0.5303
  945MOL0     C27456   4.622   4.916   7.051 -0.0227 -0.2213  0.3132
  945MOL0     N27457   4.505   4.829   7.035  0.5101  0.3002  0.5224
  945MOL0     C27458   4.416   4.851   6.934  0.2032 -0.2257  0.2586
  945MOL0     C27459   4.325   4.752   6.948 -0.6058 -0.2794  0.3167
  945MOL0     C27460   4.204   4.734   6.873  1.3860  0.9506 -0.2661
  945MOL0     C27461   4.220   4.761   6.723 -0.7371 -0.5241 -0.2758
  945MOL0     C27462   4.094   4.715   6.651 -0.2997  0.5761  0.7462
  945MOL0     C27463   4.061   4.772   6.514  0.3424  0.1573  1.0494
  945MOL0     O27464   3.988   4.898   6.525 -0.2997  0.3708  0.1283
  945MOL0     C27465   3.855   4.897   6.568 -0.3164  1.1941 -0.1808
  945MOL0     C27466   3.811   5.012   6.627  0.1053  0.2669  0.5879
  945MOL0     C27467   3.682   5.029   6.666  0.8565  0.1123  0.1932
  945MOL0     C27468   3.654   5.162   6.727  0.2601  0.9385 -0.3000
  945MOL0     C27469   3.585   4.931   6.631 -0.0343  0.3259 -0.6486
  945MOL0     C27470   3.436   4.939   6.675  0.0019  0.2817 -0.0489
  945MOL0     O27471   3.349   4.845   6.619 -0.5485 -0.3552  0.5038
  945MOL0     C27472   3.210   4.854   6.630  0.0689 -0.1498 -0.1495
  945MOL0     C27473   3.147   4.972   6.629 -0.6880  0.0337 -0.3003
  945MOL0     C27474   3.008   4.984   6.633  0.1410  0.0504  0.3734
  945MOL0     C27475   2.930   4.864   6.635 -0.4488 -0.2799  0.1292
  945MOL0     O27476   2.795   4.878   6.659  0.3191 -0.3606 -0.4926
  945MOL0     C27477   2.717   4.779   6.604  0.1121  0.6911 -0.3557
  945MOL0     C27478   2.571   4.812   6.647  0.0350 -0.7833  0.2664
  945MOL0     C27479   2.474   4.705   6.596 -0.5896 -0.2940  0.2720
  945MOL0     C27480   2.323   4.717   6.621 -0.2081 -0.6166 -0.0733
  945MOL0     C27481   2.263   4.588   6.582  0.1155 -1.1299  0.5812
  945MOL0     C27482   2.125   4.571   6.636 -0.1739  0.2341  0.4807
  945MOL0     C27483   2.053   4.449   6.580  0.9082  0.8164  0.2619
  945MOL0     C27484   2.009   4.466   6.433  0.3637  0.6957 -0.4594
  945MOL0    Cl27485   1.871   4.352   6.382 -0.3291  0.3831 -0.3226
  945MOL0     C27486   2.993   4.742   6.628  0.3916  0.4545  0.5815
  945MOL0     C27487   3.130   4.736   6.624  0.2227  0.3622 -0.0630
  945MOL0     O27488   3.403   5.022   6.762  0.0345  0.6843 -0.1828
  945MOL0     C27489   3.636   4.817   6.564  0.3611  0.7257  0.4630
  945MOL0     C27490   3.768   4.796   6.537  1.3913 -0.5205 -0.4725
  945MOL0     N27491   4.370   4.672   7.055 -0.3284  0.0950  0.8587
  945MOL0     N27492   4.479   4.715   7.105 -0.8240  0.8397 -0.6339
  945MOL0     C27493   5.442   5.201   7.369 -0.2433  0.2260  0.1852
  945MOL0     C27494   5.573   5.168   7.415  0.2134  0.2231  0.2610
  945MOL0     C27495   6.020   5.127   7.451 -0.2010 -0.1400 -0.6689
  945MOL0     C27496   6.079   5.054   7.349 -0.4620  0.7172 -0.3760
  945MOL0     C27497   6.214   5.023   7.338  0.3171 -0.5366  0.0168
  945MOL0     C27498   6.299   5.089   7.433  0.0050 -0.5618  0.2635
  945MOL0     O27499   6.439   5.077   7.428 -0.6967 -0.0233  0.8297
  945MOL0     C27500   6.493   4.947   7.425 -0.9795  0.1344 -0.1969
  945MOL0     C27501   6.612   4.935   7.529 -0.1422 -0.3028  0.0113
  945MOL0     C27502   6.742   5.011   7.491  0.2473 -0.5240  0.3113
  945MOL0     C27503   6.828   5.023   7.614 -0.6972 -0.1193  0.1325
  945MOL0     C27504   6.951   5.098   7.582 -0.1026 -0.1135  0.6766
  945MOL0     C27505   7.052   5.162   7.557  0.0467 -0.5393 -0.1149
  945MOL0     C27506   6.245   5.185   7.528 -0.1902  0.2037 -0.6679
  945MOL0     C27507   6.106   5.194   7.536 -0.1370 -0.0805  0.0557
  945MOL0     H27508   5.696   5.049   7.125  0.1778  1.1600  0.8818
  945MOL0     H27509   5.491   5.123   7.032  0.2291  0.5094 -0.0814
  945MOL0     H27510   5.240   5.049   7.094 -0.5005 -0.2100  0.1796
  945MOL0     H27511   5.172   5.078   7.263  0.7471 -0.7293  0.0678
  945MOL0     H27512   5.093   5.253   7.019  1.6131  0.5248  0.0343
  945MOL0     H27513   5.013   5.106   7.061  0.4156 -0.2414  2.1323
  945MOL0     H27514   4.968   5.177   7.304 -0.9357  0.8411  0.3221
  945MOL0     H27515   5.039   5.332   7.264 -0.5790 -0.0227 -0.5657
  945MOL0     H27516   4.800   5.352   7.249  1.0033 -0.7545  1.1209
  945MOL0     H27517   4.866   5.358   7.084  0.8680  0.7627  0.3420
  945MOL0     H27518   4.661   5.228   7.112  0.2145  0.5605 -0.7374
  945MOL0     H27519   4.779   5.132   7.035 -0.0394 -1.2337  1.2071
  945MOL0     H27520   4.817   4.995   7.242  1.3901  2.0227  0.5032
  945MOL0     H27521   4.717   5.102   7.338  2.6566 -1.1292  0.8518
  945MOL0     H27522   4.587   4.916   7.274 -1.8800  0.6506 -0.2674
  945MOL0     H27523   4.522   5.051   7.181 -2.2406 -2.2519  1.2647
  945MOL0     H27524   4.704   4.845   7.051 -0.4174 -0.7066 -1.0552
  945MOL0     H27525   4.621   4.988   6.968  1.9963  0.6870  1.0320
  945MOL0     H27526   4.412   4.930   6.860  0.6811  0.7561  1.2422
  945MOL0     H27527   4.162   4.635   6.890  1.4590  1.3086  2.4296
  945MOL0     H27528   4.126   4.799   6.913 -0.8483 -2.3960  1.2712
  945MOL0     H27529   4.306   4.700   6.695  0.3701  0.7756  0.1704
  945MOL0     H27530   4.238   4.868   6.711  0.3125 -0.5334  1.0603
  945MOL0     H27531   4.010   4.724   6.720 -0.7029 -4.0150  1.1299
  945MOL0     H27532   4.096   4.609   6.627 -2.0341  0.8103 -0.6657
  945MOL0     H27533   4.011   4.688   6.465  2.2423 -1.5390  1.8633
  945MOL0     H27534   4.150   4.782   6.453 -2.2738  1.9207 -2.8693
  945MOL0     H27535   3.877   5.097   6.641 -0.0107  0.7430 -1.3769
  945MOL0     H27536   3.737   5.233   6.734  1.2568 -0.2180 -0.0305
  945MOL0     H27537   3.579   5.210   6.664 -0.1335 -0.4912 -0.9634
  945MOL0     H27538   3.620   5.153   6.830  0.0517  0.3792 -0.4156
  945MOL0     H27539   3.208   5.062   6.617  0.8200 -1.2325 -3.0633
  945MOL0     H27540   2.964   5.083   6.639 -0.8437 -0.4748  3.5556
  945MOL0     H27541   2.735   4.758   6.499 -0.4518 -1.3508 -0.0911
  945MOL0     H27542   2.741   4.681   6.649  2.2584  0.4091 -1.9762
  945MOL0     H27543   2.560   4.829   6.754 -0.5475  1.4382 -0.0860
  945MOL0     H27544   2.545   4.908   6.599 -1.4914 -0.6960  1.2100
  945MOL0     H27545   2.503   4.606   6.634 -4.1898 -1.9668 -0.9085
  945MOL0     H27546   2.490   4.708   6.488 -1.0961  2.0018  0.2161
  945MOL0     H27547   2.308   4.744   6.726 -1.4717  1.0822 -0.6609
  945MOL0     H27548   2.284   4.794   6.554 -3.6414 -1.8461  0.3301
  945MOL0     H27549   2.319   4.500   6.615 -0.7722 -1.7109  0.5811
  945MOL0     H27550   2.259   4.587   6.473  2.5059  0.6709  0.3818
  945MOL0     H27551   2.134   4.569   6.745  3.7919 -1.7518  0.3141
  945MOL0     H27552   2.064   4.657   6.606 -1.6161 -0.6132  0.9047
  945MOL0     H27553   1.957   4.435   6.631  1.1651  2.5651  1.2711
  945MOL0     H27554   2.106   4.355   6.601  0.1269  0.6631  1.6746
  945MOL0     H27555   2.093   4.444   6.366 -0.3072 -0.8528 -0.8362
  945MOL0     H27556   1.978   4.569   6.415 -0.4770  0.1234 -2.5698
  945MOL0     H27557   2.939   4.649   6.643 -0.5598  1.0388  0.8307
  945MOL0     H27558   3.177   4.638   6.631  2.2196  1.1414 -1.5146
  945MOL0     H27559   3.562   4.740   6.544 -0.7280  1.2093  2.3433
  945MOL0     H27560   3.794   4.705   6.483  4.3559 -0.0549 -0.0168
  945MOL0     H27561   5.372   5.242   7.442 -0.0153  1.7233 -0.4163
  945MOL0     H27562   5.596   5.187   7.519  2.3516 -2.7106  0.4412
  945MOL0     H27563   6.010   5.017   7.274 -1.6663  0.7608  0.6734
  945MOL0     H27564   6.262   4.969   7.257  2.5943 -0.1756  1.0406
  945MOL0     H27565   6.421   4.866   7.441 -1.6734  0.8618  0.4167
  945MOL0     H27566   6.540   4.922   7.329 -1.9223 -3.4525  0.1115
  945MOL0     H27567   6.650   4.833   7.539 -0.9898 -0.7577 -1.0899
  945MOL0     H27568   6.580   4.975   7.626 -2.3834  0.2161 -0.8546
  945MOL0     H27569   6.705   5.113   7.482  0.9643  0.3227  4.5315
  945MOL0     H27570   6.797   4.968   7.407  0.2663 -0.0606  0.0825
  945MOL0     H27571   6.867   4.927   7.650  2.0224  0.7571 -0.1916
  945MOL0     H27572   6.771   5.066   7.697 -0.6306  0.1397  0.0463
  945MOL0     H27573   7.139   5.220   7.535 -0.5705 -0.1717 -1.7332
  945MOL0     H27574   6.319   5.241   7.585  0.0166 -0.9689  0.2559
  945MOL0     H27575   6.065   5.263   7.609  1.0240 -1.8332  2.4994
  946MOL0     O27576   8.983   4.778   0.926  0.0393 -0.6000 -0.4162
  946MOL0     C27577   8.982   4.799   0.803  0.4644  0.6091 -0.7442
  946MOL0     O27578   8.880   4.853   0.724 -0.0903  0.3965  0.2453
  946MOL0     C27579   8.755   4.887   0.770  1.4152 -0.3626  0.2097
  946MOL0     C27580   8.690   4.851   0.893 -0.1260 -0.2572 -0.7742
  946MOL0     C27581   8.559   4.889   0.917 -0.6240  0.3231  0.3592
  946MOL0     C27582   8.498   4.970   0.824 -0.2206  0.5128  0.8281
  946MOL0     O27583   8.380   5.022   0.869  0.7704  0.4523  0.7686
  946MOL0     C27584   8.302   5.098   0.780 -0.8572 -0.5596 -0.0831
  946MOL0     C27585   8.169   5.138   0.838 -0.6767  0.1516 -0.1009
  946MOL0     C27586   8.072   5.021   0.811  0.0385 -0.4082 -0.5004
  946MOL0     C27587   7.933   5.059   0.867 -0.1762 -0.3585 -0.0324
  946MOL0     C27588   7.823   4.979   0.814  0.9941 -0.2040  0.6814
  946MOL0     C27589   7.691   5.024   0.866 -0.3897  0.2162  0.1717
  946MOL0     C27590   7.561   4.944   0.831 -0.6615  0.0328 -0.2948
  946MOL0     C27591   7.438   5.026   0.869 -0.0444  0.0738 -0.0776
  946MOL0     N27592   7.313   4.958   0.821  0.5716  0.2655 -0.4089
  946MOL0     C27593   7.240   4.864   0.900  0.3500 -0.0075 -0.0196
  946MOL0     C27594   7.144   4.829   0.810  1.0188 -0.7714 -0.0050
  946MOL0     C27595   7.028   4.736   0.848 -0.3804  0.2242 -0.3527
  946MOL0     C27596   6.893   4.804   0.830  0.1906 -0.2914  0.4131
  946MOL0     C27597   6.806   4.711   0.748 -0.5819 -1.4998  0.1023
  946MOL0     C27598   6.669   4.770   0.729  0.1722  0.5428 -0.0807
  946MOL0     O27599   6.672   4.896   0.664 -0.1365  0.6858 -0.4130
  946MOL0     C27600   6.567   4.930   0.580 -0.5566  0.3077  0.6092
  946MOL0     C27601   6.443   4.935   0.635 -0.3445 -0.2271 -0.1260
  946MOL0     C27602   6.323   4.970   0.564 -0.6976  0.6357 -0.1856
  946MOL0     C27603   6.195   4.967   0.642  0.0553  0.1648  0.4447
  946MOL0     C27604   6.340   4.996   0.423 -0.4874  0.9543 -0.1830
  946MOL0     C27605   6.227   5.031   0.335  0.3250  0.2724 -0.2952
  946MOL0     O27606   6.257   5.100   0.223  0.4052 -0.6778  0.5065
  946MOL0     C27607   6.165   5.123   0.117 -0.1221 -0.4484  0.3832
  946MOL0     C27608   6.025   5.097   0.115 -0.0437 -0.0973  0.0575
  946MOL0     C27609   5.941   5.117  -0.000 -0.3670  0.2473  0.4041
  946MOL0     C27610   6.002   5.155  -0.120  0.1832  0.1113 -0.3310
  946MOL0     O27611   5.932   5.164  -0.238  0.6582  0.2102  0.8777
  946MOL0     C27612   5.790   5.177  -0.242  0.0723 -0.1651 -0.3070
  946MOL0     C27613   5.731   5.189  -0.383  0.3256 -0.1196 -0.0640
  946MOL0     C27614   5.578   5.209  -0.379  0.2162  0.0887  0.0443
  946MOL0     C27615   5.506   5.184  -0.510  0.5458  0.0469  0.5227
  946MOL0     C27616   5.353   5.214  -0.494  0.1661  0.4239  0.5500
  946MOL0     C27617   5.252   5.158  -0.606  0.0052 -0.3188  0.1777
  946MOL0     C27618   5.103   5.197  -0.561  0.2683 -1.0115  0.7727
  946MOL0     C27619   4.998   5.166  -0.666 -0.5441  0.3443 -0.4034
  946MOL0    Cl27620   5.022   5.278  -0.810  0.1148 -0.1873 -0.2658
  946MOL0     C27621   6.141   5.180  -0.123 -0.1525 -0.8572 -0.4381
  946MOL0     C27622   6.218   5.164  -0.004  0.1628 -0.3126  0.3919
  946MOL0     O27623   6.118   4.981   0.358 -0.0905 -0.1381 -0.6989
  946MOL0     C27624   6.474   5.020   0.376  0.4986 -0.0655  0.4653
  946MOL0     C27625   6.583   4.981   0.452 -0.2529  0.3527 -0.2482
  946MOL0     N27626   7.160   4.881   0.690 -0.6329 -0.6836  1.0597
  946MOL0     N27627   7.265   4.957   0.695  0.0928  0.0598  0.0648
  946MOL0     C27628   8.557   5.006   0.704 -0.1144 -0.1121 -0.0480
  946MOL0     C27629   8.688   4.959   0.681 -0.8717 -0.6366  0.4755
  946MOL0     C27630   9.112   4.775   0.736  0.2734 -0.5227 -0.6399
  946MOL0     C27631   9.120   4.784   0.596 -0.4748  0.4093 -0.6175
  946MOL0     C27632   9.232   4.760   0.525 -0.5696  0.2632  0.6951
  946MOL0     C27633   9.355   4.731   0.592  0.1940 -0.1754  0.9314
  946MOL0     O27634   9.472   4.707   0.516 -0.2924  0.4794  0.4621
  946MOL0     C27635   9.584   4.652   0.584 -0.6205  0.3458  0.6362
  946MOL0     C27636   9.674   4.578   0.479  0.3288  1.1794 -0.2250
  946MOL0     C27637   9.753   4.662   0.375 -0.0494  0.7208  0.3534
  946MOL0     C27638   9.872   4.578   0.320  0.2930 -0.3346 -0.3700
  946MOL0     C27639   9.934   4.635   0.198  1.2708  0.0807  0.3026
  946MOL0     C27640   9.991   4.679   0.102  0.2232 -0.7737  0.0789
  946MOL0     C27641   9.341   4.714   0.736  0.1433 -0.0653 -0.7878
  946MOL0     C27642   9.222   4.739   0.805 -0.4386  0.1463 -0.3255
  946MOL0     H27643   8.747   4.799   0.969  1.1609  4.7013  2.1569
  946MOL0     H27644   8.499   4.855   1.001  0.5828 -1.9539  0.3917
  946MOL0     H27645   8.357   5.186   0.746 -0.0317 -0.8798  0.3962
  946MOL0     H27646   8.284   5.054   0.681  1.3951 -2.2018  0.1702
  946MOL0     H27647   8.178   5.156   0.945 -1.4318  0.3153 -0.0600
  946MOL0     H27648   8.141   5.236   0.797  1.5162 -0.3703 -3.1907
  946MOL0     H27649   8.064   5.005   0.703 -2.2449 -0.9136 -0.2910
  946MOL0     H27650   8.121   4.935   0.857  1.2202 -0.7095 -2.2187
  946MOL0     H27651   7.930   5.053   0.976  4.5992 -0.3186  0.3165
  946MOL0     H27652   7.903   5.163   0.851 -0.2066 -0.3569  0.0337
  946MOL0     H27653   7.828   4.986   0.705  0.3324  0.2764  0.6745
  946MOL0     H27654   7.835   4.873   0.837  3.2510 -0.5863 -1.8009
  946MOL0     H27655   7.705   5.023   0.974 -1.3581  0.6490  0.3141
  946MOL0     H27656   7.676   5.128   0.834  1.5306  0.6934  0.7030
  946MOL0     H27657   7.553   4.936   0.722 -2.2036  1.2420 -0.2978
  946MOL0     H27658   7.552   4.846   0.878  1.5968  0.7124  1.8182
  946MOL0     H27659   7.454   5.127   0.830  2.1742  0.1732  0.9495
  946MOL0     H27660   7.429   5.030   0.978  0.6860 -4.8203  0.3834
  946MOL0     H27661   7.271   4.842   1.002 -0.5105  5.3441  1.7326
  946MOL0     H27662   7.036   4.647   0.784  1.0964  0.4327 -0.5035
  946MOL0     H27663   7.044   4.697   0.949  0.1529 -3.2014 -1.6095
  946MOL0     H27664   6.913   4.893   0.770  1.9134 -1.9242 -1.5753
  946MOL0     H27665   6.848   4.831   0.926  2.3810  1.1152  1.1331
  946MOL0     H27666   6.785   4.618   0.801 -2.1803 -0.2806  1.7273
  946MOL0     H27667   6.843   4.692   0.646  1.6215  2.4159 -0.0021
  946MOL0     H27668   6.607   4.778   0.819 -0.0556 -0.9227 -0.0842
  946MOL0     H27669   6.602   4.703   0.675  0.0295 -0.5367  1.3841
  946MOL0     H27670   6.426   4.908   0.739 -1.5016 -0.1932 -0.2888
  946MOL0     H27671   6.207   4.952   0.749 -1.0117 -0.9192  0.4399
  946MOL0     H27672   6.148   5.062   0.614  2.3044  1.5449  1.1568
  946MOL0     H27673   6.134   4.884   0.603  0.4223  0.5161 -0.9530
  946MOL0     H27674   5.969   5.094   0.208 -2.9688 -1.3171 -1.6096
  946MOL0     H27675   5.835   5.096   0.002 -0.4720  0.8043  0.8089
  946MOL0     H27676   5.753   5.083  -0.200 -0.1632 -0.4544 -1.1428
  946MOL0     H27677   5.751   5.263  -0.187 -1.0993 -0.9270  0.0852
  946MOL0     H27678   5.779   5.279  -0.424 -1.6877  1.6156  1.1500
  946MOL0     H27679   5.757   5.098  -0.438 -0.1342 -0.3102  0.0357
  946MOL0     H27680   5.562   5.307  -0.334  1.6085 -1.2445  3.7902
  946MOL0     H27681   5.531   5.135  -0.313 -4.6473 -0.7529 -3.6963
  946MOL0     H27682   5.554   5.251  -0.582 -0.9950  0.9189  0.2458
  946MOL0     H27683   5.507   5.083  -0.553 -1.4951  0.7286 -1.3349
  946MOL0     H27684   5.345   5.322  -0.479 -2.8427  0.3328  0.2317
  946MOL0     H27685   5.320   5.177  -0.396  0.6101  0.1314  0.5933
  946MOL0     H27686   5.271   5.214  -0.698  1.5779 -2.4039 -0.8321
  946MOL0     H27687   5.262   5.050  -0.613  0.0783 -0.2980 -0.0243
  946MOL0     H27688   5.078   5.298  -0.527 -0.5228 -1.5712  1.9386
  946MOL0     H27689   5.076   5.137  -0.474  1.6334 -0.4921  1.5810
  946MOL0     H27690   4.900   5.168  -0.618 -0.3487  0.8450 -0.0143
  946MOL0     H27691   5.014   5.065  -0.705  0.3019  0.6953 -1.0038
  946MOL0     H27692   6.193   5.216  -0.211  0.3004  1.2841  0.6341
  946MOL0     H27693   6.325   5.173  -0.018  0.2097 -2.5026 -0.9908
  946MOL0     H27694   6.503   5.064   0.281 -1.1390 -2.4540 -1.2471
  946MOL0     H27695   6.686   4.991   0.419  1.0655 -1.3636  2.9525
  946MOL0     H27696   8.517   5.085   0.642 -1.0021  0.7441  1.5596
  946MOL0     H27697   8.744   4.983   0.591  0.9740 -0.6452  1.5762
  946MOL0     H27698   9.032   4.807   0.537 -2.1831 -1.9541  0.8824
  946MOL0     H27699   9.227   4.761   0.417 -3.2001  2.3727  0.7309
  946MOL0     H27700   9.647   4.720   0.641  0.4728 -0.7717  0.8075
  946MOL0     H27701   9.550   4.583   0.663  3.0639 -2.8883 -0.2676
  946MOL0     H27702   9.612   4.506   0.426  0.6345  1.4724 -1.0038
  946MOL0     H27703   9.739   4.516   0.541 -1.8797 -1.9353 -0.8397
  946MOL0     H27704   9.787   4.749   0.432  1.3169  1.6618 -1.7911
  946MOL0     H27705   9.675   4.692   0.305 -0.0383 -0.8162 -0.3481
  946MOL0     H27706   9.844   4.476   0.291 -0.1643  0.2269 -1.9986
  946MOL0     H27707   9.945   4.560   0.400  1.0858  0.1559 -0.9651
  946MOL0     H27708  10.039   4.720   0.015 -1.3646  1.3468  0.1268
  946MOL0     H27709   9.421   4.666   0.792 -0.0733  0.7296  0.2285
  946MOL0     H27710   9.227   4.731   0.913 -1.6459  1.9867 -0.0856
  947MOL0     O27711   6.753   0.783   2.439  0.0535 -0.6852  0.1457
  947MOL0     C27712   6.782   0.903   2.412  0.0034  0.4997  0.1956
  947MOL0     O27713   6.714   0.975   2.322 -0.0144 -0.0066 -0.7963
  947MOL0     C27714   6.612   0.920   2.251  0.0950  0.4489 -0.6524
  947MOL0     C27715   6.499   0.846   2.304  0.6747 -0.1890 -0.4852
  947MOL0     C27716   6.384   0.815   2.224  0.0007 -0.4465 -0.4020
  947MOL0     C27717   6.379   0.862   2.091  0.0221 -0.6533  0.2885
  947MOL0     O27718   6.273   0.850   2.013  0.7871  0.0251 -0.4212
  947MOL0     C27719   6.146   0.820   2.073  1.1488  0.6821  0.7952
  947MOL0     C27720   6.033   0.804   1.958  0.1261  0.1179 -0.5620
  947MOL0     C27721   5.912   0.749   2.034  0.3771  1.3296 -0.2780
  947MOL0     C27722   5.789   0.741   1.944 -0.0134  0.2622 -0.2204
  947MOL0     C27723   5.667   0.688   2.019  0.4714 -0.6727  0.4709
  947MOL0     C27724   5.544   0.684   1.922  0.3378  0.4054 -0.2059
  947MOL0     C27725   5.462   0.555   1.938  0.2050  1.1192 -0.1088
  947MOL0     C27726   5.389   0.529   2.070 -0.2490  0.4669  0.2565
  947MOL0     N27727   5.309   0.644   2.119  0.7926 -0.1340 -0.4957
  947MOL0     C27728   5.180   0.674   2.068  0.3264 -0.0219 -0.4123
  947MOL0     C27729   5.132   0.787   2.132 -0.1175  0.7196  0.4203
  947MOL0     C27730   4.998   0.861   2.129  0.5647  0.4890  0.5036
  947MOL0     C27731   4.884   0.771   2.167 -0.1552  0.2118 -1.0975
  947MOL0     C27732   4.864   0.647   2.074  0.1787  0.0945 -0.2321
  947MOL0     C27733   4.720   0.606   2.065 -0.2616  0.0483  0.2103
  947MOL0     O27734   4.656   0.669   1.958  0.1457 -0.1028  0.1009
  947MOL0     C27735   4.536   0.614   1.923 -0.1608  0.3638  0.6097
  947MOL0     C27736   4.454   0.513   1.987  0.1718  0.2574 -0.3077
  947MOL0     C27737   4.325   0.480   1.939 -0.0241 -0.5186 -0.2720
  947MOL0     C27738   4.244   0.385   2.018 -0.1368 -0.3587  0.4236
  947MOL0     C27739   4.278   0.541   1.814  0.3129  1.0782 -0.1467
  947MOL0     C27740   4.146   0.501   1.750 -0.3599  0.0684  0.4532
  947MOL0     O27741   4.073   0.398   1.803 -1.0018 -0.5434  0.4939
  947MOL0     C27742   3.948   0.360   1.765  0.2162  0.3249  0.3120
  947MOL0     C27743   3.881   0.266   1.842 -0.4584 -0.6070 -0.6919
  947MOL0     C27744   3.756   0.216   1.811  0.0993 -0.0516 -0.1916
  947MOL0     C27745   3.696   0.247   1.693  0.0485  0.9322 -0.1627
  947MOL0     O27746   3.573   0.195   1.670 -0.3030  1.0104 -0.0091
  947MOL0     C27747   3.483   0.263   1.580  0.3361  0.8735  0.2697
  947MOL0     C27748   3.353   0.197   1.598 -0.3044  0.4534  0.3357
  947MOL0     C27749   3.297   0.197   1.731 -0.9774  0.4438 -0.5333
  947MOL0     C27750   3.302   0.332   1.798  0.6678  0.1788  0.5625
  947MOL0     C27751   3.192   0.346   1.906  0.4818 -0.2379  0.9005
  947MOL0     C27752   3.219   0.248   2.020 -0.8280  0.3134  0.5250
  947MOL0     C27753   3.119   0.297   2.134  0.8733 -0.5107 -0.0381
  947MOL0     C27754   3.134   0.227   2.261  0.1798  0.6290 -0.2444
  947MOL0    Cl27755   3.012   0.289   2.365 -0.1844 -0.0928  0.0232
  947MOL0     C27756   3.762   0.335   1.605 -0.0087 -0.3789 -0.8731
  947MOL0     C27757   3.891   0.388   1.639 -0.5139 -0.6048 -0.4435
  947MOL0     O27758   4.115   0.559   1.647  0.2088 -0.9290  0.2561
  947MOL0     C27759   4.362   0.628   1.754 -0.7895  0.4005  0.4092
  947MOL0     C27760   4.489   0.662   1.805  0.3856 -0.5779 -0.4559
  947MOL0     N27761   5.234   0.825   2.221  1.0603 -0.1932 -0.0627
  947MOL0     N27762   5.332   0.741   2.216 -0.4282 -0.0459  0.8666
  947MOL0     C27763   6.495   0.926   2.033 -0.0603 -0.3990 -0.8253
  947MOL0     C27764   6.609   0.957   2.111 -0.4393 -0.3879  0.4514
  947MOL0     C27765   6.905   0.952   2.478 -0.0165  0.1072 -0.6039
  947MOL0     C27766   6.982   0.867   2.550 -1.1530  0.5870  0.1356
  947MOL0     C27767   7.085   0.912   2.632  0.2347 -0.8271  0.5495
  947MOL0     C27768   7.131   1.042   2.632  1.0505  0.2146 -0.2135
  947MOL0     O27769   7.238   1.068   2.717 -0.8151 -0.1087  0.2218
  947MOL0     C27770   7.282   1.206   2.724 -0.1634 -0.2575 -0.0007
  947MOL0     C27771   7.378   1.245   2.842  1.0732  0.6282  0.1671
  947MOL0     C27772   7.526   1.198   2.829 -0.5132  0.5164  0.9242
  947MOL0     C27773   7.621   1.286   2.901  0.0956 -0.2037 -0.4132
  947MOL0     C27774   7.592   1.265   3.046 -0.5565 -0.1837  0.5550
  947MOL0     C27775   7.566   1.265   3.164  1.0012 -0.7502 -0.7109
  947MOL0     C27776   7.055   1.131   2.554 -0.0947 -0.5955  0.1478
  947MOL0     C27777   6.938   1.094   2.482 -0.7991  0.8840  1.0100
  947MOL0     H27778   6.499   0.821   2.409 -0.3458 -1.9257 -0.8605
  947MOL0     H27779   6.301   0.769   2.278  1.4723 -1.7802  0.8179
  947MOL0     H27780   6.149   0.717   2.112  0.4330  0.7531  1.0449
  947MOL0     H27781   6.111   0.884   2.154 -0.6769 -0.8276  1.2725
  947MOL0     H27782   6.008   0.905   1.923  0.1794  0.4646  0.3801
  947MOL0     H27783   6.069   0.752   1.869  3.3360 -0.7958  1.1174
  947MOL0     H27784   5.933   0.644   2.056 -0.1214  1.6089  1.6625
  947MOL0     H27785   5.890   0.815   2.119 -1.6835  1.0447 -0.5234
  947MOL0     H27786   5.765   0.835   1.894  0.2697 -0.7199 -2.3219
  947MOL0     H27787   5.806   0.665   1.867  0.8440  1.6077 -1.4233
  947MOL0     H27788   5.693   0.585   2.045  0.0961 -0.9574 -0.2629
  947MOL0     H27789   5.639   0.746   2.108 -0.6086 -0.2141 -0.1415
  947MOL0     H27790   5.486   0.775   1.939  2.0929  1.0655  3.0747
  947MOL0     H27791   5.587   0.690   1.821 -0.6658  2.0495 -0.5738
  947MOL0     H27792   5.388   0.547   1.857  0.2035 -0.8635  0.0597
  947MOL0     H27793   5.535   0.477   1.916 -0.3911  0.0408  1.5669
  947MOL0     H27794   5.455   0.496   2.151 -4.3576 -2.1403  2.9311
  947MOL0     H27795   5.323   0.446   2.045  0.4222 -0.1838  0.6004
  947MOL0     H27796   5.116   0.620   1.999 -0.7833  2.2557 -1.2892
  947MOL0     H27797   5.013   0.944   2.199  0.2252 -0.0231  1.1932
  947MOL0     H27798   4.980   0.898   2.028 -1.6327 -1.1659  0.2120
  947MOL0     H27799   4.795   0.836   2.168 -0.0141  0.4652  1.0847
  947MOL0     H27800   4.902   0.741   2.271  0.4469 -1.6867 -1.7266
  947MOL0     H27801   4.931   0.563   2.096  0.7165  0.2772 -1.0837
  947MOL0     H27802   4.905   0.680   1.978  3.9821 -1.2864  0.7342
  947MOL0     H27803   4.669   0.622   2.160 -1.1491 -0.3142 -0.1923
  947MOL0     H27804   4.721   0.499   2.042 -2.7048 -0.4280  1.9612
  947MOL0     H27805   4.488   0.460   2.076 -0.8234  2.6642  1.6226
  947MOL0     H27806   4.294   0.379   2.115  0.7962 -0.1186 -0.0243
  947MOL0     H27807   4.142   0.419   2.036 -1.0778 -1.5455 -2.1163
  947MOL0     H27808   4.250   0.293   1.958  1.4499  0.5790 -0.9534
  947MOL0     H27809   3.933   0.239   1.934  0.9429 -0.3614 -1.3916
  947MOL0     H27810   3.718   0.149   1.888  1.1223 -2.8655 -1.9687
  947MOL0     H27811   3.460   0.370   1.589 -0.5832  0.7492 -0.4708
  947MOL0     H27812   3.520   0.240   1.479 -4.1004 -0.3336 -1.3206
  947MOL0     H27813   3.270   0.239   1.540  0.4077  2.2580  0.5698
  947MOL0     H27814   3.364   0.094   1.563  1.6455  0.3822  1.0647
  947MOL0     H27815   3.358   0.125   1.787 -2.8806 -4.0393 -3.5837
  947MOL0     H27816   3.195   0.157   1.738 -0.2962 -1.1213  1.2114
  947MOL0     H27817   3.400   0.344   1.845  1.4176 -2.0657 -0.3075
  947MOL0     H27818   3.286   0.408   1.722  0.0357 -0.1580  0.3439
  947MOL0     H27819   3.093   0.331   1.863  0.0745  1.3526  1.2273
  947MOL0     H27820   3.192   0.447   1.948  0.8319  0.7841 -1.4365
  947MOL0     H27821   3.201   0.144   1.994 -1.0916 -0.4128  3.2694
  947MOL0     H27822   3.326   0.261   2.042 -0.4351 -0.1469 -1.0333
  947MOL0     H27823   3.023   0.274   2.088  1.1093 -1.1250 -0.2283
  947MOL0     H27824   3.132   0.406   2.142  0.5258 -0.3040 -1.8959
  947MOL0     H27825   3.232   0.232   2.309  0.2320 -3.9630  0.6639
  947MOL0     H27826   3.125   0.118   2.248 -3.5982  0.9021 -1.1118
  947MOL0     H27827   3.713   0.362   1.512  0.4672  1.3974 -0.6455
  947MOL0     H27828   3.949   0.440   1.563 -0.8598  0.1898 -0.1807
  947MOL0     H27829   4.333   0.686   1.667  2.7801  1.8668 -0.0063
  947MOL0     H27830   4.524   0.750   1.751 -0.3061  1.6801  2.4540
  947MOL0     H27831   6.481   0.952   1.928 -2.8214 -2.5200 -1.1069
  947MOL0     H27832   6.692   1.013   2.069  0.6726 -2.1481  0.1783
  947MOL0     H27833   6.975   0.759   2.540 -0.4354  0.0634  3.8003
  947MOL0     H27834   7.141   0.836   2.685  1.8726 -1.2384 -1.6048
  947MOL0     H27835   7.329   1.238   2.631  0.2431 -0.6753  0.0633
  947MOL0     H27836   7.200   1.276   2.743  0.9845  0.6534  1.9932
  947MOL0     H27837   7.332   1.203   2.933 -1.0600  3.4297  0.5488
  947MOL0     H27838   7.373   1.354   2.850  4.3982  1.0462 -1.7909
  947MOL0     H27839   7.565   1.206   2.726 -1.2068 -1.6851  0.4519
  947MOL0     H27840   7.534   1.094   2.860  0.5545  0.1374 -0.5114
  947MOL0     H27841   7.606   1.389   2.869 -1.1086  0.1537  1.1409
  947MOL0     H27842   7.718   1.251   2.865  0.1432  1.2963 -1.8491
  947MOL0     H27843   7.547   1.248   3.268  1.6175 -2.7528 -0.8864
  947MOL0     H27844   7.084   1.235   2.546  2.4188 -1.3343 -1.6912
  947MOL0     H27845   6.886   1.174   2.430 -2.8914  0.1722  1.9194
  948MOL0     O27846   7.916   2.332   7.243  0.2873 -0.0675 -0.4281
  948MOL0     C27847   7.926   2.232   7.314  0.3596 -0.4856  0.2401
  948MOL0     O27848   7.828   2.134   7.330 -0.4861  0.0303  0.0701
  948MOL0     C27849   7.704   2.166   7.281 -0.1453  0.6378 -0.0085
  948MOL0     C27850   7.622   2.276   7.315  0.1659  0.0830  1.3570
  948MOL0     C27851   7.495   2.290   7.253  0.8188 -0.0109  0.4525
  948MOL0     C27852   7.449   2.203   7.151  0.1352  0.1125 -0.3974
  948MOL0     O27853   7.328   2.215   7.088 -0.0529 -0.7231  0.4169
  948MOL0     C27854   7.275   2.110   7.004  0.5284  0.4876 -0.3323
  948MOL0     C27855   7.128   2.156   6.982  0.0971  0.2823 -0.2372
  948MOL0     C27856   7.061   2.029   6.925  0.3299  0.4536  0.6857
  948MOL0     C27857   6.927   2.071   6.861 -0.2290  0.2530  0.5371
  948MOL0     C27858   6.827   1.954   6.842 -0.7303 -0.3726  0.4490
  948MOL0     C27859   6.909   1.829   6.793 -0.4652 -0.5971 -0.1753
  948MOL0     C27860   6.809   1.724   6.752  0.5765  1.1316 -0.1689
  948MOL0     C27861   6.858   1.598   6.669  0.1051  0.3689  0.5457
  948MOL0     N27862   6.760   1.486   6.667 -0.4471  0.1297 -0.2073
  948MOL0     C27863   6.720   1.417   6.550  0.4376  0.0369  0.0124
  948MOL0     C27864   6.623   1.338   6.597  0.0572  0.8168 -0.6884
  948MOL0     C27865   6.534   1.263   6.515 -0.0215  0.8029 -1.4278
  948MOL0     C27866   6.479   1.349   6.402  0.4926 -0.2685 -0.2185
  948MOL0     C27867   6.398   1.256   6.312 -0.0813 -0.1726  0.3024
  948MOL0     C27868   6.340   1.334   6.191  0.9708  0.1590  0.1683
  948MOL0     O27869   6.272   1.446   6.233 -0.6912 -0.7331  0.3836
  948MOL0     C27870   6.139   1.439   6.279  0.0019  0.2088  0.2012
  948MOL0     C27871   6.063   1.325   6.295 -0.5282 -0.1081  0.2211
  948MOL0     C27872   5.929   1.338   6.338  0.1610  1.1468 -0.4155
  948MOL0     C27873   5.846   1.207   6.340 -0.4344  0.3213  0.4704
  948MOL0     C27874   5.867   1.461   6.381 -0.0469 -1.0752  0.1925
  948MOL0     C27875   5.735   1.478   6.458 -0.2417  0.3115 -0.2188
  948MOL0     O27876   5.673   1.355   6.492 -0.5639  0.7969  0.3043
  948MOL0     C27877   5.542   1.360   6.530  0.9102  0.2096  0.2373
  948MOL0     C27878   5.433   1.353   6.438 -0.7638 -0.0187 -0.2407
  948MOL0     C27879   5.303   1.371   6.474 -0.3880 -0.3583  0.2201
  948MOL0     C27880   5.266   1.389   6.610  0.6196 -0.7567  0.2429
  948MOL0     O27881   5.127   1.406   6.644  0.5789 -0.1401 -0.0715
  948MOL0     C27882   5.074   1.294   6.728 -0.6520  0.0703 -0.3112
  948MOL0     C27883   5.012   1.184   6.642 -1.3088  0.8661  0.3806
  948MOL0     C27884   4.913   1.104   6.721 -0.8591  0.7434 -0.2402
  948MOL0     C27885   4.775   1.165   6.717  0.3539  0.0718 -0.3498
  948MOL0     C27886   4.678   1.057   6.766  0.1118  0.1559  0.4594
  948MOL0     C27887   4.535   1.108   6.780  0.1042  0.4396 -0.4331
  948MOL0     C27888   4.443   1.002   6.867 -1.3495  0.9318  0.2323
  948MOL0     C27889   4.314   1.064   6.889  0.3870  0.8752  0.0127
  948MOL0    Cl27890   4.237   1.065   6.729  0.0801  0.5351  0.3937
  948MOL0     C27891   5.370   1.398   6.704 -0.5743 -0.9028  0.2788
  948MOL0     C27892   5.509   1.388   6.669  0.1554 -0.2009 -0.1177
  948MOL0     O27893   5.685   1.591   6.477 -0.0642  0.8204 -0.3966
  948MOL0     C27894   5.946   1.570   6.356 -0.0414 -0.2995 -0.2398
  948MOL0     C27895   6.078   1.561   6.304 -0.3293 -0.3669 -0.3754
  948MOL0     N27896   6.599   1.358   6.732 -0.1774 -0.0054 -0.1316
  948MOL0     N27897   6.676   1.451   6.769  0.0898  0.5694 -0.2862
  948MOL0     C27898   7.534   2.093   7.126 -0.0162  0.5450 -0.1246
  948MOL0     C27899   7.651   2.073   7.190 -0.4423  0.5206  0.0226
  948MOL0     C27900   8.041   2.222   7.387 -0.7069 -0.5312 -0.2442
  948MOL0     C27901   8.070   2.105   7.452 -0.1317 -0.2016 -0.4840
  948MOL0     C27902   8.193   2.087   7.523 -0.2439  0.2412  0.0656
  948MOL0     C27903   8.284   2.192   7.540 -0.5798  0.3907 -0.6531
  948MOL0     O27904   8.403   2.167   7.614  0.1851 -0.3068  0.1455
  948MOL0     C27905   8.503   2.258   7.596 -0.2222  0.0956 -0.1211
  948MOL0     C27906   8.491   2.383   7.691 -1.1815  1.3445  0.1462
  948MOL0     C27907   8.531   2.351   7.839  0.3976  0.3188 -0.8085
  948MOL0     C27908   8.522   2.467   7.933 -1.1974 -0.4451  0.9364
  948MOL0     C27909   8.392   2.545   7.926 -0.1336  0.3113 -0.0461
  948MOL0     C27910   8.289   2.612   7.924 -0.3823  0.5826 -0.0314
  948MOL0     C27911   8.250   2.319   7.489  0.3095  0.0534  0.1983
  948MOL0     C27912   8.131   2.330   7.409  0.3788  0.0083  0.2463
  948MOL0     H27913   7.658   2.356   7.379  2.6932 -0.0005  0.1532
  948MOL0     H27914   7.435   2.375   7.283  2.2001  1.1600  0.0251
  948MOL0     H27915   7.321   2.101   6.905 -0.1015  3.4444 -0.9893
  948MOL0     H27916   7.278   2.018   7.063  0.8617  0.1726 -0.8403
  948MOL0     H27917   7.079   2.193   7.072  0.4228  2.1397 -0.7746
  948MOL0     H27918   7.139   2.232   6.904  2.6836  0.1877 -0.0673
  948MOL0     H27919   7.127   1.970   6.861  2.2024 -0.2684  3.1423
  948MOL0     H27920   7.034   1.966   7.010  0.5596 -1.7696 -0.8111
  948MOL0     H27921   6.879   2.145   6.925 -0.7877 -0.1020  0.5397
  948MOL0     H27922   6.944   2.112   6.761 -1.0028 -0.4237  0.1180
  948MOL0     H27923   6.776   1.933   6.937  1.2090  0.5987  1.7789
  948MOL0     H27924   6.749   1.994   6.777 -0.6090 -0.5124  0.2155
  948MOL0     H27925   6.986   1.852   6.719  0.5595 -2.4481  0.2636
  948MOL0     H27926   6.959   1.780   6.877 -2.3985 -0.3006  1.2124
  948MOL0     H27927   6.759   1.698   6.845  0.2129  1.2884 -0.3195
  948MOL0     H27928   6.739   1.775   6.685  2.5097  1.2441 -2.2458
  948MOL0     H27929   6.938   1.547   6.723 -1.3937 -1.7774  0.8523
  948MOL0     H27930   6.886   1.630   6.569 -2.7918  1.6697  0.0613
  948MOL0     H27931   6.763   1.436   6.452 -1.4429  0.2985 -0.8028
  948MOL0     H27932   6.579   1.176   6.466 -0.0892 -1.0376  1.5093
  948MOL0     H27933   6.454   1.221   6.577 -1.0503 -0.1989 -3.3381
  948MOL0     H27934   6.555   1.392   6.336 -1.6163  0.9004 -1.9787
  948MOL0     H27935   6.412   1.425   6.442  0.4928  0.3048 -1.2652
  948MOL0     H27936   6.309   1.220   6.365 -0.3086  0.3763  0.3079
  948MOL0     H27937   6.449   1.167   6.275 -3.0225 -1.1531 -1.8468
  948MOL0     H27938   6.278   1.266   6.131  1.8049 -2.0899  1.7261
  948MOL0     H27939   6.419   1.378   6.130  0.5720  0.1809 -0.3460
  948MOL0     H27940   6.100   1.228   6.266 -1.2248  0.1799 -1.7452
  948MOL0     H27941   5.738   1.212   6.322 -1.2344 -2.0981  3.6931
  948MOL0     H27942   5.871   1.136   6.260  0.9403 -0.2555  1.3703
  948MOL0     H27943   5.847   1.158   6.437 -0.4731 -1.2239 -0.2848
  948MOL0     H27944   5.453   1.346   6.331 -0.7687 -0.0455 -0.2397
  948MOL0     H27945   5.230   1.374   6.394  1.1649 -0.3295 -1.2708
  948MOL0     H27946   5.153   1.264   6.797  0.2596 -2.1182 -2.1644
  948MOL0     H27947   5.002   1.343   6.793  0.7275  1.3029  0.3593
  948MOL0     H27948   4.962   1.226   6.555  0.9084  2.6530 -0.1104
  948MOL0     H27949   5.098   1.126   6.608 -0.5121  3.4570 -2.4349
  948MOL0     H27950   4.948   1.099   6.824 -2.7958 -1.7681  0.3707
  948MOL0     H27951   4.905   0.998   6.695 -0.7832  0.0831  2.2460
  948MOL0     H27952   4.766   1.252   6.783  0.0027 -0.7053  0.6625
  948MOL0     H27953   4.744   1.199   6.618 -1.8895  0.3925  0.3855
  948MOL0     H27954   4.721   1.012   6.857  0.7466 -2.1046 -0.8728
  948MOL0     H27955   4.684   0.982   6.687  1.3787 -1.0769  1.6636
  948MOL0     H27956   4.541   1.204   6.832  1.5590  0.7994 -1.2368
  948MOL0     H27957   4.488   1.129   6.684 -1.4186  0.7292  0.3332
  948MOL0     H27958   4.504   0.985   6.956  1.9053  1.6329 -1.6743
  948MOL0     H27959   4.424   0.911   6.810 -2.3551  1.6044 -0.5416
  948MOL0     H27960   4.321   1.169   6.918 -1.6932  1.2622 -0.7068
  948MOL0     H27961   4.251   1.010   6.961 -0.6220  2.6929  0.5727
  948MOL0     H27962   5.344   1.420   6.807  2.7072 -1.9086  1.4551
  948MOL0     H27963   5.590   1.393   6.741 -0.9812  1.1035  1.1402
  948MOL0     H27964   5.911   1.671   6.375 -1.3934 -0.8255  0.1577
  948MOL0     H27965   6.136   1.652   6.292 -0.4865 -0.2195 -0.0369
  948MOL0     H27966   7.516   2.019   7.049  0.0137 -0.5293  0.8741
  948MOL0     H27967   7.703   1.982   7.160  0.4229  0.7376  0.8033
  948MOL0     H27968   8.001   2.022   7.452 -3.4079  2.3106 -0.3741
  948MOL0     H27969   8.223   1.993   7.567  1.0377 -1.6436 -4.2330
  948MOL0     H27970   8.601   2.210   7.598 -0.5747 -0.6224  0.2858
  948MOL0     H27971   8.497   2.293   7.492 -2.5246  2.1626  0.6293
  948MOL0     H27972   8.388   2.422   7.689 -1.4239  0.6976 -0.2661
  948MOL0     H27973   8.561   2.460   7.657 -1.1001  1.5334  0.7326
  948MOL0     H27974   8.626   2.298   7.843  0.0201 -0.2609  1.2857
  948MOL0     H27975   8.459   2.276   7.875  1.1485 -0.5934 -1.1718
  948MOL0     H27976   8.608   2.525   7.898 -1.0408 -1.6777 -0.8268
  948MOL0     H27977   8.537   2.426   8.033  1.7275 -2.6544 -0.2431
  948MOL0     H27978   8.207   2.681   7.934 -2.5552 -2.0596  1.7766
  948MOL0     H27979   8.316   2.404   7.503  0.8599  0.8872 -5.1836
  948MOL0     H27980   8.107   2.429   7.372  0.9201  0.2133  0.4440
  949MOL0     O27981   4.006   3.463   9.440  1.0119  0.4260  0.1519
  949MOL0     C27982   4.007   3.343   9.412 -0.7262  0.2811 -0.9045
  949MOL0     O27983   3.900   3.261   9.409 -0.0051 -0.2181  0.1074
  949MOL0     C27984   3.771   3.316   9.414 -0.2740 -0.0450  0.3999
  949MOL0     C27985   3.680   3.245   9.490  0.0849 -0.1118 -0.9010
  949MOL0     C27986   3.545   3.285   9.507 -0.3953 -0.7758  0.3476
  949MOL0     C27987   3.497   3.390   9.432 -0.5074 -0.5892 -0.3532
  949MOL0     O27988   3.368   3.414   9.443  0.2444  0.1987  0.4838
  949MOL0     C27989   3.296   3.520   9.372 -0.7340  0.3251 -0.4946
  949MOL0     C27990   3.145   3.495   9.393 -0.0962 -0.4751  1.0484
  949MOL0     C27991   3.088   3.542   9.523  0.3289  0.4130 -0.4734
  949MOL0     C27992   2.956   3.478   9.576 -0.2890 -0.8246  1.3720
  949MOL0     C27993   2.979   3.362   9.668  0.0291  0.0903  0.9033
  949MOL0     C27994   2.852   3.283   9.691  0.3393  0.1536 -0.1206
  949MOL0     C27995   2.870   3.186   9.813  0.0918 -0.4421 -0.0714
  949MOL0     C27996   2.963   3.066   9.784 -0.8349  0.7332 -0.1656
  949MOL0     N27997   2.986   2.984   9.896 -0.4499  0.1976 -1.1953
  949MOL0     C27998   2.892   2.907   9.959 -0.2121 -0.0392 -0.2794
  949MOL0     C27999   2.970   2.836  10.054  0.1899 -0.6767 -0.1631
  949MOL0     C28000   2.906   2.736  10.155  0.3118 -0.1792  0.0786
  949MOL0     C28001   2.810   2.804  10.252 -0.4675 -0.2747 -0.5657
  949MOL0     C28002   2.880   2.910  10.333 -0.1580  0.3361  0.1147
  949MOL0     C28003   3.019   2.871  10.402 -0.0285  0.0191  0.0071
  949MOL0     O28004   3.017   2.737  10.468  0.0572  0.2313  0.6388
  949MOL0     C28005   2.938   2.730  10.576  0.2817  0.8426 -0.9469
  949MOL0     C28006   2.932   2.821  10.677  0.3174 -0.9637  0.2109
  949MOL0     C28007   2.840   2.812  10.777  0.0235 -0.1279 -0.0818
  949MOL0     C28008   2.813   2.948  10.845 -0.1423  0.1780  0.4477
  949MOL0     C28009   2.762   2.698  10.791  0.0214 -0.1260  0.5036
  949MOL0     C28010   2.666   2.678  10.902 -0.3747 -0.0327  0.5484
  949MOL0     O28011   2.570   2.586  10.874  1.2973  0.1287 -0.3434
  949MOL0     C28012   2.461   2.572  10.960 -0.4988  0.2997  0.7063
  949MOL0     C28013   2.330   2.567  10.911 -0.4366  0.0468  0.8180
  949MOL0     C28014   2.227   2.545  10.992  0.4344  0.3208 -0.0783
  949MOL0     C28015   2.230   2.534  11.133  0.3467 -1.3231 -0.0796
  949MOL0     O28016   2.110   2.520  11.201  0.2864  0.1507 -0.0402
  949MOL0     C28017   2.135   2.510  11.342 -0.0690 -0.3594  0.4203
  949MOL0     C28018   2.004   2.460  11.412  0.0470 -0.3160  0.6075
  949MOL0     C28019   1.900   2.579  11.428 -0.6707  0.3879 -0.7326
  949MOL0     C28020   1.784   2.539  11.513  0.1616  0.1031 -0.1533
  949MOL0     C28021   1.683   2.646  11.535 -0.0880  0.3325 -0.1011
  949MOL0     C28022   1.609   2.622  11.665 -0.2788 -0.2281  0.0928
  949MOL0     C28023   1.511   2.745  11.697 -0.3844  1.4600 -0.2860
  949MOL0     C28024   1.576   2.877  11.693  0.1248 -0.2684 -0.2666
  949MOL0    Cl28025   1.464   2.995  11.779  0.2916  0.0896  0.0104
  949MOL0     C28026   2.370   2.535  11.188 -0.1983  0.0533  0.7847
  949MOL0     C28027   2.482   2.555  11.102 -0.2250 -0.6799  0.4391
  949MOL0     O28028   2.673   2.741  11.009 -0.1106  0.3655  0.5543
  949MOL0     C28029   2.767   2.605  10.686 -1.0879 -0.0872  0.8363
  949MOL0     C28030   2.851   2.623  10.578 -0.4026  0.0747  0.9087
  949MOL0     N28031   3.101   2.876  10.045  0.7637 -0.1859  0.0374
  949MOL0     N28032   3.103   2.972   9.959  0.1358 -0.3745 -0.1266
  949MOL0     C28033   3.590   3.458   9.346  0.0668  0.0650  0.1732
  949MOL0     C28034   3.725   3.424   9.345 -0.5303 -0.1601  0.1691
  949MOL0     C28035   4.143   3.281   9.382  0.4336 -0.8286 -0.3289
  949MOL0     C28036   4.262   3.361   9.383 -0.6223  0.1986 -0.6553
  949MOL0     C28037   4.391   3.307   9.357  0.1492 -0.2219  0.7390
  949MOL0     C28038   4.399   3.169   9.314  0.6279 -0.8059 -0.0977
  949MOL0     O28039   4.525   3.107   9.284  0.2200  0.0693 -0.1427
  949MOL0     C28040   4.642   3.195   9.287  0.4474  0.3624 -0.1243
  949MOL0     C28041   4.763   3.111   9.261  0.1334  0.7038 -0.2757
  949MOL0     C28042   4.876   3.197   9.215 -0.1196 -0.0618  0.8798
  949MOL0     C28043   4.998   3.114   9.185  0.5882  1.1093  0.0791
  949MOL0     C28044   5.096   3.186   9.109 -0.7447  0.3757 -0.1629
  949MOL0     C28045   5.173   3.262   9.053  0.3903  0.9616  0.4577
  949MOL0     C28046   4.282   3.091   9.310 -0.7900  0.3008 -0.8790
  949MOL0     C28047   4.157   3.146   9.346 -0.1375 -0.1609  0.1956
  949MOL0     H28048   3.715   3.158   9.546  1.4344  1.0546  0.1384
  949MOL0     H28049   3.471   3.239   9.572 -3.1094  1.0522 -1.2228
  949MOL0     H28050   3.329   3.616   9.412 -0.9436 -0.1575  0.8976
  949MOL0     H28051   3.322   3.508   9.267  1.0870 -2.7563  0.1597
  949MOL0     H28052   3.098   3.557   9.316  2.3615  0.4546  0.2032
  949MOL0     H28053   3.110   3.392   9.382 -2.4113  0.5174 -3.1321
  949MOL0     H28054   3.165   3.547   9.602 -0.4569  0.0199  0.3383
  949MOL0     H28055   3.069   3.649   9.510 -1.3268 -0.0794 -2.4694
  949MOL0     H28056   2.914   3.558   9.638 -0.4674  0.5419 -0.4315
  949MOL0     H28057   2.887   3.455   9.494 -1.5736  1.6457  1.6720
  949MOL0     H28058   3.056   3.297   9.624 -0.8829  0.1686 -0.9167
  949MOL0     H28059   3.022   3.402   9.760  0.1319  0.3163  0.7577
  949MOL0     H28060   2.772   3.353   9.716  0.2667 -0.5197  1.6469
  949MOL0     H28061   2.840   3.215   9.605 -0.8968 -0.8701  0.8213
  949MOL0     H28062   2.918   3.250   9.888  2.2940 -2.1161  0.0415
  949MOL0     H28063   2.766   3.157   9.832 -1.2581  1.3749 -3.6919
  949MOL0     H28064   3.059   3.099   9.744  0.4872  0.3038  2.3899
  949MOL0     H28065   2.928   2.994   9.710  2.2077  0.5928 -1.5987
  949MOL0     H28066   2.787   2.889   9.938 -0.5440 -0.6074  1.6680
  949MOL0     H28067   2.857   2.660  10.094  2.3592  0.3443 -2.3700
  949MOL0     H28068   2.992   2.691  10.205  1.2840  1.6661  0.1682
  949MOL0     H28069   2.779   2.719  10.313  0.1076 -0.1187 -0.0467
  949MOL0     H28070   2.729   2.835  10.185  0.3397  0.9590 -1.0188
  949MOL0     H28071   2.810   2.948  10.408  0.8667  0.9606  0.7783
  949MOL0     H28072   2.904   2.989  10.261  1.3568 -0.4634 -0.2971
  949MOL0     H28073   3.036   2.955  10.471 -1.1409  0.7407 -0.5787
  949MOL0     H28074   3.096   2.876  10.324 -1.1915  0.2173 -1.1495
  949MOL0     H28075   2.998   2.907  10.674 -0.2713 -0.3842  2.0532
  949MOL0     H28076   2.709   2.983  10.841  0.0109  0.6389  0.4941
  949MOL0     H28077   2.843   2.941  10.950  1.8301 -0.1215 -0.0881
  949MOL0     H28078   2.871   3.029  10.801 -1.3766  1.2217  0.6619
  949MOL0     H28079   2.318   2.559  10.804 -2.3165 -0.0980  1.0027
  949MOL0     H28080   2.134   2.531  10.939 -0.6566 -4.1142  2.5564
  949MOL0     H28081   2.212   2.438  11.371 -1.0520 -0.3690  3.3043
  949MOL0     H28082   2.159   2.608  11.386  0.1920  1.1242 -2.7673
  949MOL0     H28083   1.977   2.366  11.364  1.7884  0.1933 -1.5175
  949MOL0     H28084   2.023   2.438  11.518 -2.8509 -0.4261  1.2113
  949MOL0     H28085   1.861   2.617  11.333  2.9738  2.9553 -1.4154
  949MOL0     H28086   1.942   2.663  11.484 -3.0225  0.0008  1.8241
  949MOL0     H28087   1.733   2.454  11.466  0.5133  0.8377 -1.9402
  949MOL0     H28088   1.830   2.509  11.608 -0.0246 -0.3874 -0.2149
  949MOL0     H28089   1.616   2.662  11.451 -0.6095  1.5011  0.5129
  949MOL0     H28090   1.746   2.736  11.538  1.2349 -0.5085 -1.0989
  949MOL0     H28091   1.544   2.535  11.652  1.1708 -1.3838  0.2652
  949MOL0     H28092   1.672   2.595  11.750 -1.5185 -0.5453  0.9393
  949MOL0     H28093   1.475   2.733  11.800  1.4055  1.6052  0.3939
  949MOL0     H28094   1.428   2.751  11.627  0.4400 -0.3744 -1.4879
  949MOL0     H28095   1.600   2.904  11.589  2.0065 -1.1395 -0.1129
  949MOL0     H28096   1.671   2.876  11.748  0.6410 -0.0823 -1.1260
  949MOL0     H28097   2.399   2.531  11.293  1.2626  0.4639  0.4150
  949MOL0     H28098   2.581   2.549  11.147  0.6037  2.9573 -0.6141
  949MOL0     H28099   2.714   2.511  10.690  0.1959 -1.1506 -3.1030
  949MOL0     H28100   2.848   2.551  10.497  3.4070 -0.9765  1.5139
  949MOL0     H28101   3.544   3.519   9.268  0.3395 -0.4924 -0.4372
  949MOL0     H28102   3.795   3.486   9.289  1.3064 -0.2202  2.2978
  949MOL0     H28103   4.260   3.468   9.402  1.2753 -0.0745  1.6254
  949MOL0     H28104   4.482   3.368   9.358  1.2391 -1.6168 -2.1613
  949MOL0     H28105   4.636   3.263   9.202  0.6012  2.2962  1.3393
  949MOL0     H28106   4.663   3.256   9.375  2.0548  1.7370 -1.4099
  949MOL0     H28107   4.739   3.038   9.182  0.0508 -1.6349  1.7801
  949MOL0     H28108   4.783   3.048   9.348 -0.9413 -1.1456 -1.2899
  949MOL0     H28109   4.892   3.273   9.292  0.4753 -0.4056  1.0927
  949MOL0     H28110   4.845   3.247   9.122  0.1024  1.0173  1.3666
  949MOL0     H28111   4.972   3.028   9.122  0.9540  0.0516  1.3368
  949MOL0     H28112   5.031   3.085   9.285 -1.3347  2.0098  1.0241
  949MOL0     H28113   5.245   3.304   8.985  0.9413 -1.3862 -0.4812
  949MOL0     H28114   4.298   2.988   9.280  1.1435  0.4814 -0.6163
  949MOL0     H28115   4.066   3.086   9.338 -1.4698  1.8649 -0.6770
  950MOL0     O28116   6.729  10.991   5.206 -0.4228 -0.0602 -0.1736
  950MOL0     C28117   6.783  10.956   5.106  0.1739 -0.4542 -0.0386
  950MOL0     O28118   6.725  10.940   4.981 -0.3298  0.6477 -0.4612
  950MOL0     C28119   6.591  10.960   4.969  0.0023 -0.3669  0.8368
  950MOL0     C28120   6.542  11.072   4.906 -0.1810 -0.1256  0.0423
  950MOL0     C28121   6.409  11.087   4.881  0.0194  0.4814 -0.9894
  950MOL0     C28122   6.319  10.987   4.921 -0.1337 -0.4845 -0.1625
  950MOL0     O28123   6.186  11.012   4.899 -0.0477 -0.1008 -0.4150
  950MOL0     C28124   6.085  10.957   4.994 -0.8173  0.8586  0.4306
  950MOL0     C28125   5.948  10.994   4.947 -0.2368 -0.3882  0.1340
  950MOL0     C28126   5.841  10.903   5.009 -0.5895 -0.6758  0.5465
  950MOL0     C28127   5.700  10.953   4.999  0.8734  0.1864  0.3149
  950MOL0     C28128   5.597  10.842   5.029 -0.1412  0.2023 -0.7061
  950MOL0     C28129   5.452  10.890   5.012  0.0136  0.3183  0.4887
  950MOL0     C28130   5.357  10.763   4.999 -0.3040  1.4898  0.3094
  950MOL0     C28131   5.238  10.812   4.906  0.4013  0.1030 -0.1100
  950MOL0     N28132   5.160  10.910   4.971 -0.1315  0.0619 -0.2555
  950MOL0     C28133   5.099  10.895   5.085 -0.2883 -0.0079 -0.2161
  950MOL0     C28134   5.002  10.990   5.077  0.0183  0.0781  0.4679
  950MOL0     C28135   4.887  11.026   5.175  0.3532 -0.1079  0.4116
  950MOL0     C28136   4.739  11.009   5.122 -1.1498  0.7235  0.3313
  950MOL0     C28137   4.656  11.083   5.224 -0.3460  0.0700 -1.1099
  950MOL0     C28138   4.505  11.085   5.202 -0.0570 -0.1509  1.1139
  950MOL0     O28139   4.480  11.166   5.078  0.2551 -0.1464 -1.0621
  950MOL0     C28140   4.346  11.206   5.066 -0.5531 -0.2848 -0.5412
  950MOL0     C28141   4.304  11.335   5.094 -0.1685  0.5278  0.8095
  950MOL0     C28142   4.170  11.367   5.088 -0.7711  0.5473  0.4191
  950MOL0     C28143   4.136  11.505   5.117 -0.2887  0.4289 -0.0711
  950MOL0     C28144   4.083  11.274   5.023  0.0736  0.1403  0.6250
  950MOL0     C28145   3.946  11.310   4.996  0.5383 -0.4337  0.6238
  950MOL0     O28146   3.878  11.390   5.084  0.4352  0.5240 -0.1878
  950MOL0     C28147   3.743  11.406   5.059  0.6142  0.4831 -1.1146
  950MOL0     C28148   3.691  11.532   5.090 -0.2074 -0.2387  1.0547
  950MOL0     C28149   3.557  11.559   5.077 -0.7529 -0.4423 -0.4403
  950MOL0     C28150   3.466  11.460   5.031  0.7595 -0.5246  0.6232
  950MOL0     O28151   3.334  11.499   5.039  0.4270  0.0691 -0.0942
  950MOL0     C28152   3.247  11.380   5.033 -0.5099 -0.8579  0.2387
  950MOL0     C28153   3.102  11.412   5.064 -0.5619 -0.4802 -0.4722
  950MOL0     C28154   3.087  11.496   5.190  0.9765 -0.4780  0.5258
  950MOL0     C28155   2.933  11.510   5.207 -0.1759  0.0342 -0.0900
  950MOL0     C28156   2.886  11.602   5.324  0.8874  0.8080  0.3454
  950MOL0     C28157   2.747  11.653   5.291  0.3028 -0.4284  0.2105
  950MOL0     C28158   2.681  11.729   5.414 -0.1822  0.1714  0.5190
  950MOL0     C28159   2.560  11.810   5.375  0.5909  0.0114 -0.3392
  950MOL0    Cl28160   2.422  11.689   5.372  0.0094 -0.3185 -0.0358
  950MOL0     C28161   3.518  11.332   4.993  1.0900 -0.5590  0.3754
  950MOL0     C28162   3.653  11.309   5.008 -0.0515 -0.2421  0.2782
  950MOL0     O28163   3.905  11.267   4.891 -0.6859 -0.5125  0.4100
  950MOL0     C28164   4.135  11.145   4.982  1.2013  0.2091  0.3076
  950MOL0     C28165   4.261  11.112   5.007  0.0187  0.2285 -0.1466
  950MOL0     N28166   5.021  11.060   4.958  0.1444  0.3170  0.2974
  950MOL0     N28167   5.120  11.016   4.898  0.1113 -0.3614 -0.2441
  950MOL0     C28168   6.363  10.871   4.978 -0.6086  0.2291  0.3207
  950MOL0     C28169   6.501  10.856   5.001  0.0199  0.5432  0.2665
  950MOL0     C28170   6.929  10.961   5.109  0.1929 -0.9611 -0.2243
  950MOL0     C28171   7.003  10.968   4.989  0.3338  0.3524 -0.5332
  950MOL0     C28172   7.144  10.977   4.991  0.1691 -0.7003  0.0671
  950MOL0     C28173   7.217  10.978   5.110 -0.7102  1.1599 -0.0797
  950MOL0     O28174   7.351  10.966   5.138 -0.6906  0.0835  0.3319
  950MOL0     C28175   7.444  10.990   5.031  0.4945  0.6470 -0.4522
  950MOL0     C28176   7.582  10.957   5.073  0.0391 -0.3303 -0.5922
  950MOL0     C28177   7.627  11.044   5.196  0.1944  0.2586  0.0342
  950MOL0     C28178   7.777  11.037   5.211  0.8838 -0.1624 -0.6393
  950MOL0     C28179   7.840  10.914   5.248 -0.1796 -1.0435  0.0002
  950MOL0     C28180   7.902  10.814   5.285 -0.8616 -0.1584  0.2103
  950MOL0     C28181   7.145  10.977   5.231  0.0243 -0.8118  0.3392
  950MOL0     C28182   7.008  10.963   5.224  0.2918  0.7262 -0.3403
  950MOL0     H28183   6.617  11.139   4.867  0.0007 -1.0753 -1.3118
  950MOL0     H28184   6.363  11.172   4.831 -0.5509 -0.1451 -1.5479
  950MOL0     H28185   6.095  10.849   5.007 -0.1077  1.1258  2.4661
  950MOL0     H28186   6.108  11.005   5.089  2.3162 -3.0013  1.9151
  950MOL0     H28187   5.928  11.099   4.971 -1.5639 -0.9524  1.6702
  950MOL0     H28188   5.945  10.983   4.838 -0.1520  1.6535 -0.1170
  950MOL0     H28189   5.842  10.805   4.960 -1.9656 -0.8701  0.8569
  950MOL0     H28190   5.871  10.877   5.111  2.5458  0.8022  0.1231
  950MOL0     H28191   5.699  11.023   5.084 -0.2175  0.3152  0.2183
  950MOL0     H28192   5.673  11.009   4.909  0.0856  0.6779  0.8370
  950MOL0     H28193   5.611  10.762   4.957  4.2252 -0.1933  0.3174
  950MOL0     H28194   5.618  10.814   5.133 -1.4336 -1.4282 -0.8485
  950MOL0     H28195   5.425  10.948   5.101  0.6653  1.0419  0.2266
  950MOL0     H28196   5.439  10.952   4.923 -1.0428 -1.1468 -0.4169
  950MOL0     H28197   5.416  10.683   4.954  1.7310  2.7488  0.6138
  950MOL0     H28198   5.322  10.727   5.097 -1.8006 -0.3442 -0.8430
  950MOL0     H28199   5.177  10.727   4.874  0.1658  0.7150 -1.3345
  950MOL0     H28200   5.284  10.856   4.817  2.1814 -0.9121  0.2573
  950MOL0     H28201   5.117  10.831   5.171 -0.6265 -0.5013 -0.5143
  950MOL0     H28202   4.908  10.973   5.268  2.3399 -2.3173 -1.1596
  950MOL0     H28203   4.918  11.128   5.200  3.1585 -0.3322 -1.6209
  950MOL0     H28204   4.716  10.902   5.129 -0.1186  0.4220 -0.5777
  950MOL0     H28205   4.731  11.048   5.020  0.2231 -0.8227 -0.4134
  950MOL0     H28206   4.685  11.188   5.217  2.1055 -0.3563  1.2650
  950MOL0     H28207   4.682  11.043   5.322  1.0478 -0.4275 -1.6693
  950MOL0     H28208   4.451  11.133   5.284  0.3149  2.6118 -0.1314
  950MOL0     H28209   4.464  10.985   5.192  1.7297 -0.8581  0.3638
  950MOL0     H28210   4.362  11.408   5.150  0.2641  1.4141 -0.7401
  950MOL0     H28211   4.108  11.560   5.027  0.4760  0.6367 -0.1856
  950MOL0     H28212   4.043  11.517   5.172 -0.7667 -0.9245 -0.5313
  950MOL0     H28213   4.214  11.547   5.181 -0.7772 -3.4296  3.4935
  950MOL0     H28214   3.748  11.620   5.119  0.5752  0.0378 -1.1048
  950MOL0     H28215   3.525  11.660   5.103  0.3677 -0.4514  1.0863
  950MOL0     H28216   3.244  11.324   4.940  1.1237  0.4498 -0.6573
  950MOL0     H28217   3.271  11.309   5.112 -2.1372 -1.9970 -0.2394
  950MOL0     H28218   3.079  11.477   4.979  2.6555  1.6352  0.0983
  950MOL0     H28219   3.046  11.320   5.080  1.3249 -1.5383  0.4584
  950MOL0     H28220   3.131  11.597   5.189 -1.9709  0.9330  1.2361
  950MOL0     H28221   3.130  11.446   5.278  1.3597 -1.6626 -0.3186
  950MOL0     H28222   2.897  11.546   5.110  2.3939 -2.2912 -2.0707
  950MOL0     H28223   2.896  11.407   5.207  1.4246 -0.6808 -3.3860
  950MOL0     H28224   2.952  11.689   5.322  2.2779 -0.1821 -2.0715
  950MOL0     H28225   2.895  11.554   5.422 -1.1902 -0.0013  0.1859
  950MOL0     H28226   2.753  11.719   5.204  0.9437 -1.8684 -0.8823
  950MOL0     H28227   2.693  11.561   5.267  0.7539 -1.0841  1.5933
  950MOL0     H28228   2.756  11.789   5.464 -1.2664  0.2598  2.1028
  950MOL0     H28229   2.665  11.653   5.491  0.7698  0.6259  1.1830
  950MOL0     H28230   2.563  11.870   5.283  0.2173  0.5551 -0.0071
  950MOL0     H28231   2.546  11.879   5.459 -0.8612  0.3620 -0.8284
  950MOL0     H28232   3.458  11.242   4.978 -0.3988 -0.6964  5.3047
  950MOL0     H28233   3.679  11.207   4.980  0.1901  0.2570 -1.4725
  950MOL0     H28234   4.062  11.080   4.935 -0.4027  3.1632 -1.6159
  950MOL0     H28235   4.310  11.018   4.985  0.9456  0.6378  0.1059
  950MOL0     H28236   6.303  10.784   5.003  1.5996 -1.5031 -0.1124
  950MOL0     H28237   6.523  10.760   5.046 -0.2910 -0.1193 -0.9417
  950MOL0     H28238   6.952  10.969   4.893 -1.2239 -2.0255  0.1657
  950MOL0     H28239   7.194  10.970   4.895  1.0926  1.9581  0.2515
  950MOL0     H28240   7.426  10.936   4.937  2.2427 -2.2821  0.7646
  950MOL0     H28241   7.450  11.098   5.012  0.9517  1.0485  1.7446
  950MOL0     H28242   7.652  10.964   4.989  0.7534 -3.2239 -0.3483
  950MOL0     H28243   7.580  10.856   5.115 -0.9396  1.3786  4.0717
  950MOL0     H28244   7.580  11.016   5.290  1.2807  2.0920  1.2012
  950MOL0     H28245   7.595  11.147   5.178 -0.0253 -0.1365 -2.0488
  950MOL0     H28246   7.804  11.107   5.290  3.0025 -1.2753 -0.2874
  950MOL0     H28247   7.837  11.080   5.130  0.4237  0.2951 -0.7388
  950MOL0     H28248   7.957  10.733   5.329 -1.8938 -1.2554 -0.4498
  950MOL0     H28249   7.206  10.983   5.320  1.0906 -0.3161 -0.4085
  950MOL0     H28250   6.967  10.955   5.324  0.1973 -1.1007 -0.4802
  951MOL0     O28251   8.715   4.940   8.461  1.2547 -0.0071 -0.0164
  951MOL0     C28252   8.733   4.896   8.349 -0.3120 -0.0951 -0.3200
  951MOL0     O28253   8.630   4.872   8.255  0.6764 -0.3898  0.3058
  951MOL0     C28254   8.520   4.947   8.244 -0.4879 -0.4431 -0.2955
  951MOL0     C28255   8.410   4.878   8.193  0.1364 -0.1122  0.7119
  951MOL0     C28256   8.299   4.952   8.152  0.0823 -0.0146  0.6076
  951MOL0     C28257   8.294   5.089   8.154 -0.1317  0.2420 -0.0956
  951MOL0     O28258   8.191   5.149   8.095 -0.2692 -0.3568 -0.2737
  951MOL0     C28259   8.195   5.137   7.951 -0.3594 -0.4646 -0.4144
  951MOL0     C28260   8.073   5.198   7.887  0.6918 -1.0468  0.7493
  951MOL0     C28261   8.051   5.158   7.735 -0.2939  0.2203 -0.2000
  951MOL0     C28262   7.930   5.227   7.678  0.3563  0.1129 -0.5872
  951MOL0     C28263   7.918   5.180   7.526  0.3760 -0.4265 -0.3072
  951MOL0     C28264   7.791   5.247   7.463  0.5731  0.3030  0.3789
  951MOL0     C28265   7.794   5.403   7.463  0.0603  0.1116 -1.0453
  951MOL0     C28266   7.681   5.469   7.377 -0.2705 -0.3583 -0.1151
  951MOL0     N28267   7.572   5.504   7.466  0.0289 -0.0687  0.5034
  951MOL0     C28268   7.457   5.426   7.501  0.1044 -0.2136 -0.1750
  951MOL0     C28269   7.406   5.495   7.611  0.0851  0.2208  0.1980
  951MOL0     C28270   7.276   5.451   7.670  1.3423 -0.0647 -0.3131
  951MOL0     C28271   7.253   5.512   7.806 -0.3692 -0.0446 -0.3036
  951MOL0     C28272   7.110   5.506   7.868 -0.4828 -0.5731 -0.3675
  951MOL0     C28273   7.063   5.369   7.891 -0.0025  0.6454 -0.3319
  951MOL0     O28274   6.946   5.362   7.975  0.0532 -0.2880 -0.1682
  951MOL0     C28275   6.830   5.420   7.928  0.0863 -0.4542 -0.5032
  951MOL0     C28276   6.739   5.450   8.026  0.4941 -0.3764 -0.0257
  951MOL0     C28277   6.612   5.510   8.002 -0.0225  0.4916 -0.0934
  951MOL0     C28278   6.528   5.536   8.125  1.1506 -0.0637  0.3097
  951MOL0     C28279   6.567   5.533   7.874 -0.0695  0.1782  0.2147
  951MOL0     C28280   6.433   5.573   7.831  0.6194 -1.0202 -0.5795
  951MOL0     O28281   6.416   5.582   7.697  0.1957 -0.1263 -0.0025
  951MOL0     C28282   6.294   5.618   7.645 -0.7391 -0.2494 -0.0473
  951MOL0     C28283   6.278   5.736   7.576 -0.1975 -0.6618 -0.5170
  951MOL0     C28284   6.155   5.766   7.510  0.3527  0.3954 -0.2260
  951MOL0     C28285   6.041   5.677   7.523  0.6735 -0.2639  0.0142
  951MOL0     O28286   5.926   5.684   7.453 -0.1055 -0.1298 -0.4562
  951MOL0     C28287   5.863   5.813   7.463  0.0173 -0.1830  0.3898
  951MOL0     C28288   5.743   5.799   7.375  0.1627  0.0510  0.1654
  951MOL0     C28289   5.655   5.916   7.412 -0.6502 -0.5401 -0.6100
  951MOL0     C28290   5.534   5.917   7.327 -0.5036  0.2424 -0.1843
  951MOL0     C28291   5.438   6.024   7.381 -0.3336 -0.3987  0.0200
  951MOL0     C28292   5.299   6.019   7.318 -0.1820 -0.2591 -0.0657
  951MOL0     C28293   5.230   6.145   7.324  1.0250 -0.1737 -0.2691
  951MOL0     C28294   5.084   6.140   7.276 -0.3322  0.2503  0.1799
  951MOL0    Cl28295   4.986   6.046   7.402 -0.0260 -0.5969  0.0604
  951MOL0     C28296   6.058   5.558   7.593  0.2813  0.0765  0.4256
  951MOL0     C28297   6.186   5.525   7.647  0.3255 -0.0247 -0.1536
  951MOL0     O28298   6.339   5.588   7.914  0.0900 -0.0544 -0.0811
  951MOL0     C28299   6.668   5.517   7.773 -0.7271 -0.3655 -0.6494
  951MOL0     C28300   6.798   5.458   7.801 -0.5531  0.0078 -0.6352
  951MOL0     N28301   7.490   5.603   7.643 -0.1825 -1.0661  0.7216
  951MOL0     N28302   7.583   5.601   7.554 -0.5699 -0.3946  0.3093
  951MOL0     C28303   8.404   5.158   8.211 -0.3395  0.2835  0.8201
  951MOL0     C28304   8.522   5.088   8.257 -0.5301  0.4060 -0.0921
  951MOL0     C28305   8.874   4.852   8.328  0.2399  0.1511  0.5228
  951MOL0     C28306   8.969   4.847   8.435 -0.3431  0.6150 -0.7268
  951MOL0     C28307   9.103   4.809   8.416 -0.0241  0.1760 -0.7718
  951MOL0     C28308   9.142   4.782   8.286 -0.6087 -0.0333 -0.0385
  951MOL0     O28309   9.267   4.740   8.252 -0.2783  0.4627  0.0066
  951MOL0     C28310   9.377   4.804   8.316 -0.2400  0.4722 -0.5149
  951MOL0     C28311   9.436   4.714   8.417  0.2134 -0.1481 -0.4668
  951MOL0     C28312   9.506   4.596   8.354 -0.1717 -0.1318  0.1282
  951MOL0     C28313   9.644   4.626   8.313 -0.4771  0.3552  0.6323
  951MOL0     C28314   9.731   4.596   8.426 -0.3758  0.6384  0.5093
  951MOL0     C28315   9.804   4.581   8.522  0.2059  0.0999 -0.1081
  951MOL0     C28316   9.050   4.784   8.180  0.8768  0.6223  0.3162
  951MOL0     C28317   8.916   4.816   8.195  0.5170 -0.1138 -0.4578
  951MOL0     H28318   8.409   4.771   8.180  0.7839 -0.1204  0.7097
  951MOL0     H28319   8.220   4.892   8.108 -0.0327  0.3740  0.2839
  951MOL0     H28320   8.289   5.184   7.920  0.8561 -0.2175  3.1744
  951MOL0     H28321   8.204   5.036   7.912  1.6885 -0.0571 -1.1398
  951MOL0     H28322   7.983   5.165   7.939 -1.0561 -1.3245 -2.2904
  951MOL0     H28323   8.075   5.307   7.894 -0.4037 -0.8765 -1.1014
  951MOL0     H28324   8.135   5.177   7.667 -0.3548 -1.7473 -0.8722
  951MOL0     H28325   8.035   5.050   7.732  2.5395 -0.4472  2.6315
  951MOL0     H28326   7.842   5.201   7.737 -1.7500 -0.3132 -3.6529
  951MOL0     H28327   7.952   5.334   7.686  1.1467 -0.2118  3.5329
  951MOL0     H28328   8.004   5.222   7.472 -0.3429  0.9530 -0.4071
  951MOL0     H28329   7.909   5.071   7.517  3.8226 -0.8288 -0.3479
  951MOL0     H28330   7.787   5.211   7.360 -0.6405  1.8815 -0.1749
  951MOL0     H28331   7.700   5.211   7.512 -0.0674  0.1866 -0.8700
  951MOL0     H28332   7.785   5.435   7.567 -0.9839 -0.1591 -1.0406
  951MOL0     H28333   7.891   5.430   7.421  1.0372  0.7863  1.4337
  951MOL0     H28334   7.649   5.395   7.303 -0.0404 -3.0764  2.3735
  951MOL0     H28335   7.732   5.547   7.319  1.6965 -1.2069  0.3846
  951MOL0     H28336   7.418   5.340   7.447 -1.7788  0.4121  0.0945
  951MOL0     H28337   7.198   5.495   7.607  0.9044 -0.6922 -0.2091
  951MOL0     H28338   7.262   5.343   7.667 -0.3091  0.1481 -1.4926
  951MOL0     H28339   7.276   5.618   7.791 -1.1924 -0.0559 -1.8542
  951MOL0     H28340   7.325   5.472   7.878  3.4854  3.0146 -2.0975
  951MOL0     H28341   7.044   5.556   7.796 -0.6094  0.9267  0.7334
  951MOL0     H28342   7.114   5.570   7.957  1.2435  0.3737 -1.0979
  951MOL0     H28343   7.135   5.314   7.953  3.5238  5.0530 -0.0355
  951MOL0     H28344   7.044   5.312   7.800  1.3092 -3.8208  1.9028
  951MOL0     H28345   6.761   5.442   8.132  3.9828  2.1589 -0.3598
  951MOL0     H28346   6.435   5.482   8.110  0.5545  0.8893  0.4812
  951MOL0     H28347   6.575   5.519   8.223  1.2071  1.4432  0.5829
  951MOL0     H28348   6.512   5.644   8.139 -0.3404 -0.5072  2.6468
  951MOL0     H28349   6.370   5.793   7.571 -1.0910  0.9420  0.4075
  951MOL0     H28350   6.144   5.857   7.453 -0.4073  0.5702  0.1805
  951MOL0     H28351   5.826   5.836   7.563 -2.4506  2.0582 -0.8920
  951MOL0     H28352   5.928   5.896   7.437  0.9598 -1.4617 -1.5891
  951MOL0     H28353   5.770   5.796   7.269  1.2534  1.6323  0.3625
  951MOL0     H28354   5.698   5.704   7.405  0.5804  0.3966  2.0688
  951MOL0     H28355   5.711   6.008   7.398  0.7026 -1.0881  0.9699
  951MOL0     H28356   5.631   5.891   7.516 -2.0944 -0.9756 -1.0234
  951MOL0     H28357   5.551   5.958   7.227  0.7261 -0.0627 -0.1201
  951MOL0     H28358   5.485   5.819   7.325  0.6678 -0.3654 -2.3635
  951MOL0     H28359   5.469   6.128   7.367  1.5852 -0.3481  3.4643
  951MOL0     H28360   5.433   6.010   7.489 -4.0229 -1.0504 -0.1128
  951MOL0     H28361   5.305   6.013   7.209 -1.8942 -2.0261 -0.1238
  951MOL0     H28362   5.248   5.930   7.358  2.1218 -1.1120  1.1183
  951MOL0     H28363   5.280   6.215   7.257  2.0614 -0.1802  0.4745
  951MOL0     H28364   5.231   6.185   7.426 -1.3922 -0.2154 -0.1780
  951MOL0     H28365   5.072   6.100   7.175 -1.4867  1.3319 -0.1267
  951MOL0     H28366   5.047   6.242   7.268  0.0386  0.3089 -0.9367
  951MOL0     H28367   5.974   5.490   7.606  1.3076 -1.0371  1.6067
  951MOL0     H28368   6.201   5.429   7.696  1.2516 -0.0184 -0.3986
  951MOL0     H28369   6.656   5.548   7.670  0.9630 -0.5051 -0.9139
  951MOL0     H28370   6.863   5.454   7.714 -3.2668  0.0407 -2.7871
  951MOL0     H28371   8.396   5.266   8.203  0.2457  0.2971  0.3479
  951MOL0     H28372   8.608   5.145   8.290  1.9658 -2.3239 -1.4967
  951MOL0     H28373   8.936   4.857   8.538  2.4358  3.6683  0.0067
  951MOL0     H28374   9.168   4.795   8.501 -1.1898  1.2454  0.3397
  951MOL0     H28375   9.451   4.847   8.248  2.4924  3.7484  3.9899
  951MOL0     H28376   9.348   4.890   8.378  2.7554  0.5162  1.0083
  951MOL0     H28377   9.357   4.675   8.481 -0.8181  4.0745  1.1559
  951MOL0     H28378   9.510   4.767   8.477 -0.7922 -1.1499  1.7616
  951MOL0     H28379   9.452   4.571   8.262 -1.1512 -0.5351  0.8022
  951MOL0     H28380   9.491   4.515   8.426 -1.3926  0.5264  0.6484
  951MOL0     H28381   9.663   4.723   8.265 -1.0721  0.7258  1.1218
  951MOL0     H28382   9.668   4.552   8.237 -0.7680  1.5768 -0.7092
  951MOL0     H28383   9.871   4.581   8.606 -0.9833 -1.2601  0.8936
  951MOL0     H28384   9.077   4.757   8.078 -0.6411 -1.9925  0.5209
  951MOL0     H28385   8.839   4.827   8.119  0.6680 -3.4080 -1.2366
  952MOL0     O28386  10.473   9.788   0.889  0.1147 -0.9293 -0.2579
  952MOL0     C28387  10.489   9.825   0.775  0.1145  0.5555 -1.0582
  952MOL0     O28388  10.395   9.837   0.685  0.4320 -0.3474 -0.1485
  952MOL0     C28389  10.265   9.840   0.711  0.0526  0.6038  0.2590
  952MOL0     C28390  10.195   9.730   0.766 -0.8157 -0.5633 -0.5656
  952MOL0     C28391  10.066   9.740   0.801 -0.6446 -0.3927 -0.2999
  952MOL0     C28392  10.005   9.868   0.796 -0.0774 -0.7842  0.0273
  952MOL0     O28393   9.873   9.853   0.827 -0.1360  0.5305  0.4601
  952MOL0     C28394   9.800   9.972   0.861 -0.1307 -0.5786 -0.1439
  952MOL0     C28395   9.656   9.923   0.904 -0.2283 -0.1246  0.1604
  952MOL0     C28396   9.559  10.035   0.934 -0.6229 -0.2002 -0.2279
  952MOL0     C28397   9.418   9.984   0.965  0.0407 -0.2021  0.0081
  952MOL0     C28398   9.326  10.095   1.023  0.5497  0.1734  0.3439
  952MOL0     C28399   9.198  10.042   1.091  0.1978  0.7646  0.0206
  952MOL0     C28400   9.150  10.143   1.202  0.1654  0.8522 -0.1437
  952MOL0     C28401   9.027  10.098   1.282 -0.1648 -0.1958 -0.1084
  952MOL0     N28402   8.909  10.060   1.206  0.7198  0.6014 -0.4332
  952MOL0     C28403   8.895   9.938   1.141  0.0866 -0.6249  0.1226
  952MOL0     C28404   8.777   9.943   1.089  0.0527 -0.3305 -0.0760
  952MOL0     C28405   8.705   9.823   1.022 -0.2230  0.1589 -0.4732
  952MOL0     C28406   8.659   9.863   0.878  0.2514 -0.8028 -1.4473
  952MOL0     C28407   8.595   9.745   0.804 -0.3102  0.3716 -0.1244
  952MOL0     C28408   8.452   9.716   0.843 -0.9186 -0.1826  1.3337
  952MOL0     O28409   8.370   9.806   0.773  0.0764 -0.0592 -0.0956
  952MOL0     C28410   8.251   9.819   0.833  0.9621 -0.0396  0.4407
  952MOL0     C28411   8.205   9.945   0.862  0.0601  0.1352 -0.0800
  952MOL0     C28412   8.085   9.971   0.926  0.2263  0.1074  0.4401
  952MOL0     C28413   8.065  10.117   0.968 -0.7588  0.2158  0.8049
  952MOL0     C28414   7.997   9.862   0.949  0.9323  0.2036 -0.6302
  952MOL0     C28415   7.856   9.870   1.008 -0.2142 -0.7455  0.4127
  952MOL0     O28416   7.808   9.994   1.041 -0.2901  0.8904  0.0811
  952MOL0     C28417   7.681   9.989   1.097  1.3316  0.0978  0.1346
  952MOL0     C28418   7.575  10.014   1.010 -0.4214 -0.5703 -0.5008
  952MOL0     C28419   7.447  10.035   1.063  1.1263  0.5832 -0.2395
  952MOL0     C28420   7.419  10.010   1.197 -0.0668  0.9507  0.1753
  952MOL0     O28421   7.287  10.030   1.242 -0.0125  0.7620  0.5249
  952MOL0     C28422   7.257   9.987   1.372 -0.4071 -0.0446 -0.3491
  952MOL0     C28423   7.109  10.004   1.412 -0.0524  0.8703  0.3729
  952MOL0     C28424   7.012   9.903   1.352 -0.3894 -0.5263 -0.2149
  952MOL0     C28425   7.035   9.762   1.411  0.2687  0.2382 -0.4114
  952MOL0     C28426   6.928   9.666   1.366  0.8969  0.3354  0.0665
  952MOL0     C28427   6.797   9.704   1.432  1.3014 -0.0321  0.2772
  952MOL0     C28428   6.693   9.584   1.432 -0.2468  0.1164  0.2363
  952MOL0     C28429   6.563   9.632   1.490  0.0894 -0.4953 -0.3240
  952MOL0    Cl28430   6.463   9.491   1.529  0.3773 -0.0544  0.0563
  952MOL0     C28431   7.525   9.969   1.282 -1.0313 -0.0830  0.1899
  952MOL0     C28432   7.657   9.963   1.231 -0.2935  0.0987  0.0913
  952MOL0     O28433   7.787   9.768   0.994 -0.0991  0.1390  0.3080
  952MOL0     C28434   8.045   9.728   0.919 -0.3033  0.1282 -0.5508
  952MOL0     C28435   8.163   9.710   0.853 -0.1742 -0.0425  0.4934
  952MOL0     N28436   8.709  10.055   1.123  0.2535 -0.0561 -0.3443
  952MOL0     N28437   8.790  10.132   1.186  0.2825  0.4744 -1.0741
  952MOL0     C28438  10.071   9.982   0.745  0.4189  1.3654 -0.2069
  952MOL0     C28439  10.199   9.966   0.694  0.1200 -0.1927  0.0267
  952MOL0     C28440  10.629   9.830   0.714 -0.5439  0.7094  0.4490
  952MOL0     C28441  10.733   9.748   0.768 -0.1448 -0.3515  0.0992
  952MOL0     C28442  10.864   9.763   0.717 -0.3158 -0.8978  0.0612
  952MOL0     C28443  10.893   9.834   0.601 -0.0890 -0.2657  0.1328
  952MOL0     O28444  11.007   9.826   0.532  0.1080 -0.7158  0.7114
  952MOL0     C28445  11.110   9.730   0.571 -0.2239  0.0705 -0.2115
  952MOL0     C28446  11.217   9.725   0.456 -0.6828  0.3865  0.2677
  952MOL0     C28447  11.141   9.734   0.313 -0.5604 -0.1047  0.2197
  952MOL0     C28448  11.038   9.616   0.306 -0.5830 -1.0517 -0.2531
  952MOL0     C28449  10.973   9.590   0.179 -0.2389 -0.7604 -0.2767
  952MOL0     C28450  10.911   9.550   0.086 -0.0816 -0.2403 -0.6855
  952MOL0     C28451  10.791   9.912   0.548 -0.7462 -0.3197 -0.1628
  952MOL0     C28452  10.663   9.913   0.601  0.9903 -0.1291  0.5475
  952MOL0     H28453  10.247   9.637   0.783 -1.7718 -1.0632 -0.3318
  952MOL0     H28454  10.012   9.655   0.838  1.3257 -1.1263  1.0592
  952MOL0     H28455   9.847  10.015   0.950  0.6845 -2.5046  0.4033
  952MOL0     H28456   9.790  10.036   0.774 -1.7512  0.8799  1.0375
  952MOL0     H28457   9.602   9.867   0.827  0.0923 -0.0116 -0.1454
  952MOL0     H28458   9.663   9.860   0.993  5.0848  1.7703  1.4877
  952MOL0     H28459   9.599  10.103   1.010 -2.7332 -0.5704  1.2781
  952MOL0     H28460   9.547  10.101   0.847  0.0084 -0.6281 -0.6485
  952MOL0     H28461   9.363   9.952   0.876 -0.8563  1.2330  0.0101
  952MOL0     H28462   9.438   9.901   1.033  1.1677 -0.0214 -0.0943
  952MOL0     H28463   9.382  10.153   1.097  1.7537  0.5116 -0.7829
  952MOL0     H28464   9.290  10.160   0.942 -1.9892 -0.6204  0.7510
  952MOL0     H28465   9.111  10.031   1.026 -1.6225 -0.0358  2.4635
  952MOL0     H28466   9.220   9.953   1.151  1.4966  0.2846 -1.1106
  952MOL0     H28467   9.230  10.156   1.275 -1.2353 -0.1149  1.6376
  952MOL0     H28468   9.121  10.237   1.154 -1.2249 -0.6960 -2.5638
  952MOL0     H28469   8.996  10.174   1.355  0.0848  0.7518 -0.9710
  952MOL0     H28470   9.072  10.015   1.338 -1.7567 -1.1008 -0.1168
  952MOL0     H28471   8.962   9.853   1.132  0.8174  0.0127 -0.4595
  952MOL0     H28472   8.773   9.738   1.011 -0.9290 -0.6772  1.2907
  952MOL0     H28473   8.617   9.785   1.075 -0.1999  1.1237  0.2908
  952MOL0     H28474   8.734   9.919   0.823 -1.7930  3.1540 -0.5819
  952MOL0     H28475   8.580   9.934   0.905  2.9313  1.6982  0.3821
  952MOL0     H28476   8.660   9.658   0.817 -0.2670  0.4286  0.0432
  952MOL0     H28477   8.601   9.781   0.701  0.8878  1.6755  0.3654
  952MOL0     H28478   8.442   9.727   0.952  0.5310 -2.2726  1.7383
  952MOL0     H28479   8.430   9.613   0.816 -0.3105  0.1140 -0.4253
  952MOL0     H28480   8.275  10.023   0.833 -0.6150  1.4266  1.6148
  952MOL0     H28481   8.156  10.172   0.993 -0.5120 -0.9675  2.7554
  952MOL0     H28482   8.032  10.163   0.874  0.4594 -1.4342 -0.4817
  952MOL0     H28483   7.999  10.132   1.054 -1.8113 -3.3687  0.7659
  952MOL0     H28484   7.606  10.033   0.908  0.2618 -1.6357 -0.5034
  952MOL0     H28485   7.365  10.063   0.997 -2.5899 -3.7483  1.9251
  952MOL0     H28486   7.302   9.889   1.391 -0.7976 -0.0515  0.6160
  952MOL0     H28487   7.305  10.058   1.439  0.5265 -0.1317 -0.9200
  952MOL0     H28488   7.103  10.004   1.521  0.3303 -1.9606  0.4468
  952MOL0     H28489   7.072  10.106   1.395 -0.4743  0.4686 -1.3403
  952MOL0     H28490   7.025   9.911   1.244  1.6261 -2.0577 -0.1584
  952MOL0     H28491   6.911   9.935   1.380  0.0900 -0.5580  1.6699
  952MOL0     H28492   7.132   9.721   1.378  0.6797  0.1831  0.8239
  952MOL0     H28493   7.036   9.754   1.520 -0.1586  3.8523 -0.0358
  952MOL0     H28494   6.944   9.560   1.388 -1.1134 -0.6707 -2.6622
  952MOL0     H28495   6.911   9.678   1.258 -1.0326 -0.5124  0.2221
  952MOL0     H28496   6.808   9.751   1.530  0.6664 -0.5854  0.6224
  952MOL0     H28497   6.760   9.785   1.369  0.3684 -0.3947  0.3457
  952MOL0     H28498   6.732   9.506   1.498  0.5445  1.5250  1.4872
  952MOL0     H28499   6.672   9.541   1.334 -0.1133  1.2260 -0.2970
  952MOL0     H28500   6.503   9.694   1.422  1.1575  2.2690  1.1078
  952MOL0     H28501   6.574   9.689   1.583 -0.5420  2.2058 -1.7946
  952MOL0     H28502   7.514   9.952   1.389 -1.0523 -4.0550 -0.2707
  952MOL0     H28503   7.743   9.939   1.291  0.9787  1.0171 -1.2757
  952MOL0     H28504   7.982   9.641   0.938  1.3499 -0.9436  0.3156
  952MOL0     H28505   8.197   9.613   0.821  2.0197  1.3926 -1.8870
  952MOL0     H28506  10.011  10.072   0.733  0.7848  1.8841  1.4595
  952MOL0     H28507  10.264  10.037   0.644  0.3368  0.3092  0.9940
  952MOL0     H28508  10.729   9.691   0.860 -1.5826  0.9920  0.9216
  952MOL0     H28509  10.946   9.716   0.769  1.5792 -0.3300 -2.2243
  952MOL0     H28510  11.155   9.756   0.668 -0.9789 -0.9597  0.4337
  952MOL0     H28511  11.074   9.628   0.585 -1.3436  0.5146  0.2910
  952MOL0     H28512  11.277   9.634   0.461 -0.2460  0.6934  0.5885
  952MOL0     H28513  11.299   9.797   0.460  1.5828 -2.0455  0.0483
  952MOL0     H28514  11.212   9.723   0.230 -0.2597  1.2337  0.2804
  952MOL0     H28515  11.091   9.830   0.297 -2.1474 -0.8213  0.7043
  952MOL0     H28516  10.961   9.641   0.379 -0.2020 -0.1368 -0.1567
  952MOL0     H28517  11.076   9.521   0.344 -1.0969 -0.2192  2.6002
  952MOL0     H28518  10.842   9.521   0.009 -0.1118  2.5910 -1.8715
  952MOL0     H28519  10.819   9.962   0.456  2.4077 -1.4676  0.0760
  952MOL0     H28520  10.592   9.986   0.564 -0.4684  0.8095  4.6198
  953MOL0     O28521   5.542   7.803   8.931 -0.0658  0.2163  0.3677
  953MOL0     C28522   5.603   7.699   8.932  0.4415  0.2928 -0.1582
  953MOL0     O28523   5.541   7.578   8.963 -0.1120 -0.0512  0.1453
  953MOL0     C28524   5.423   7.563   9.037 -0.2140  0.5158 -0.3301
  953MOL0     C28525   5.319   7.656   9.078  0.0957 -0.2327 -0.1818
  953MOL0     C28526   5.209   7.608   9.150 -0.5505 -0.3005  0.7793
  953MOL0     C28527   5.191   7.471   9.173  0.1287  0.7851  0.4908
  953MOL0     O28528   5.087   7.435   9.252  0.4449  0.6906 -0.0959
  953MOL0     C28529   5.099   7.323   9.343  0.3019  0.9054  0.3754
  953MOL0     C28530   5.012   7.211   9.288  0.2464 -0.2387  0.9077
  953MOL0     C28531   4.862   7.245   9.275  0.5408  0.7268  0.0682
  953MOL0     C28532   4.779   7.119   9.240  0.5291 -0.3434 -0.5137
  953MOL0     C28533   4.629   7.167   9.240  0.5531  0.5133  0.6810
  953MOL0     C28534   4.536   7.041   9.198 -0.7652  0.9360  0.7743
  953MOL0     C28535   4.390   7.084   9.180  0.0108  0.3535 -1.0844
  953MOL0     C28536   4.340   7.113   9.040 -0.5749 -0.8569  0.6869
  953MOL0     N28537   4.200   7.133   9.056 -0.0578  0.1401  0.1440
  953MOL0     C28538   4.133   7.252   9.053  0.9109 -0.0393 -0.0473
  953MOL0     C28539   4.007   7.217   9.034 -0.1236 -0.6407  0.0742
  953MOL0     C28540   3.899   7.311   9.002  0.1996 -0.7108 -0.3068
  953MOL0     C28541   3.759   7.253   9.056 -0.1217  0.0883 -0.6821
  953MOL0     C28542   3.764   7.253   9.208 -1.4530  0.2230 -0.6644
  953MOL0     C28543   3.622   7.231   9.257  0.5157  0.3756 -0.8225
  953MOL0     O28544   3.616   7.268   9.399 -0.0437  0.1122  0.1348
  953MOL0     C28545   3.493   7.303   9.450  0.0302  1.0941 -0.5506
  953MOL0     C28546   3.371   7.260   9.395  0.8452 -0.2409 -0.0500
  953MOL0     C28547   3.243   7.290   9.451  0.4378  0.1507 -0.0827
  953MOL0     C28548   3.121   7.233   9.387 -0.3212  0.2896 -0.0098
  953MOL0     C28549   3.239   7.369   9.574  0.5321  0.3794 -0.5745
  953MOL0     C28550   3.113   7.410   9.647  0.5872 -0.1475 -0.2231
  953MOL0     O28551   3.129   7.464   9.766 -0.0920  0.9184  0.2038
  953MOL0     C28552   3.031   7.521   9.842  0.1870 -0.2690  1.3528
  953MOL0     C28553   2.969   7.442   9.934  0.0446  0.2798  1.1156
  953MOL0     C28554   2.867   7.497  10.014  0.1702  0.2801  0.1133
  953MOL0     C28555   2.826   7.626  10.000 -0.3249  0.4639 -0.1166
  953MOL0     O28556   2.719   7.673  10.073  0.2628 -0.1546  0.3499
  953MOL0     C28557   2.664   7.599  10.187  0.5886  0.5992  1.0345
  953MOL0     C28558   2.548   7.677  10.238  1.1125 -0.5667 -0.0850
  953MOL0     C28559   2.514   7.646  10.386  0.4673  0.5011  0.0671
  953MOL0     C28560   2.400   7.729  10.455 -0.1711 -0.4519  0.1486
  953MOL0     C28561   2.376   7.674  10.596  0.6286  0.0059 -0.9137
  953MOL0     C28562   2.260   7.570  10.598  0.0162  0.3012  0.1624
  953MOL0     C28563   2.121   7.628  10.561 -0.4438 -0.5819  0.3247
  953MOL0     C28564   2.014   7.531  10.631  0.0875  0.0647  0.2600
  953MOL0    Cl28565   2.035   7.351  10.605  0.2331  0.1605  0.0419
  953MOL0     C28566   2.890   7.709   9.907  0.0717 -0.3127 -0.2389
  953MOL0     C28567   2.994   7.655   9.829 -0.7206  0.0998 -0.3600
  953MOL0     O28568   3.002   7.405   9.593  0.4503  0.4319 -0.4060
  953MOL0     C28569   3.360   7.403   9.625 -0.8217  0.1283 -0.4793
  953MOL0     C28570   3.486   7.363   9.574  0.1432 -0.2945  0.0325
  953MOL0     N28571   4.000   7.079   9.033 -0.7544  0.5919  0.4910
  953MOL0     N28572   4.113   7.027   9.039  0.7603 -0.2647  0.0733
  953MOL0     C28573   5.296   7.374   9.139  0.0994  0.3767  0.0045
  953MOL0     C28574   5.408   7.428   9.077 -0.5712  0.0626 -0.0642
  953MOL0     C28575   5.734   7.700   8.869 -0.1672  0.8178 -0.1568
  953MOL0     C28576   5.775   7.583   8.808 -0.1922  0.7190  0.0341
  953MOL0     C28577   5.902   7.576   8.750 -0.0307  0.6501 -0.0748
  953MOL0     C28578   5.979   7.687   8.735  0.0309 -0.0712 -0.9728
  953MOL0     O28579   6.107   7.666   8.680  0.1724 -1.0341  0.8488
  953MOL0     C28580   6.164   7.792   8.638  0.0749  0.2264  0.5289
  953MOL0     C28581   6.298   7.757   8.562 -0.6799  0.0029 -0.6593
  953MOL0     C28582   6.365   7.875   8.482  0.0123  0.5929 -0.4737
  953MOL0     C28583   6.485   7.833   8.404 -0.4051 -0.1012  0.1858
  953MOL0     C28584   6.573   7.950   8.384 -0.5961  0.2809  0.9843
  953MOL0     C28585   6.652   8.041   8.381 -0.0034 -0.1685  1.0678
  953MOL0     C28586   5.932   7.813   8.786 -0.1905  0.8979  0.3218
  953MOL0     C28587   5.810   7.815   8.848 -1.1809  0.3064  0.5325
  953MOL0     H28588   5.310   7.763   9.061 -0.9701 -0.5655 -1.9190
  953MOL0     H28589   5.132   7.675   9.187 -3.3701 -2.7208 -0.2831
  953MOL0     H28590   5.199   7.290   9.373  0.0891  0.9430  1.1592
  953MOL0     H28591   5.058   7.338   9.444  0.4128 -1.2954  0.8113
  953MOL0     H28592   5.044   7.186   9.187  0.0419 -0.7316  0.9646
  953MOL0     H28593   5.019   7.129   9.360 -0.0665  1.7130  3.3346
  953MOL0     H28594   4.822   7.299   9.360 -0.8295 -0.8731  0.4994
  953MOL0     H28595   4.850   7.308   9.186 -0.3734 -2.6851 -2.4610
  953MOL0     H28596   4.810   7.076   9.145 -1.3303 -0.7295 -0.9794
  953MOL0     H28597   4.785   7.042   9.317  2.3842  0.3752  0.1194
  953MOL0     H28598   4.604   7.196   9.343  0.2014 -3.3197  1.8415
  953MOL0     H28599   4.613   7.250   9.172  0.1423 -1.5854 -1.9389
  953MOL0     H28600   4.577   6.996   9.108  1.2432  1.4631  1.3846
  953MOL0     H28601   4.540   6.963   9.275  2.7932 -2.8965 -2.8040
  953MOL0     H28602   4.349   6.985   9.203 -0.3435  0.2307 -2.1868
  953MOL0     H28603   4.372   7.162   9.255  1.8967  2.9136 -3.1411
  953MOL0     H28604   4.377   7.028   8.982 -0.1921  0.5579 -1.2384
  953MOL0     H28605   4.387   7.200   8.993  0.8971 -2.4246 -0.8670
  953MOL0     H28606   4.169   7.355   9.054  0.3224  0.1707  0.1303
  953MOL0     H28607   3.914   7.411   9.044 -1.1298 -0.7666  0.3647
  953MOL0     H28608   3.899   7.335   8.896 -3.1418  2.6946  0.2338
  953MOL0     H28609   3.750   7.152   9.015  3.8953 -1.2967  1.3306
  953MOL0     H28610   3.666   7.298   9.020 -0.9855 -0.2564  0.9888
  953MOL0     H28611   3.791   7.350   9.250  0.4684  0.2574 -1.8753
  953MOL0     H28612   3.824   7.169   9.245 -1.7051  0.5759  0.6129
  953MOL0     H28613   3.591   7.126   9.250 -1.5496  0.8396  0.4876
  953MOL0     H28614   3.541   7.287   9.210 -2.9796 -1.2550  2.6874
  953MOL0     H28615   3.375   7.203   9.303 -2.8931  0.3427 -0.7484
  953MOL0     H28616   3.142   7.168   9.302 -0.1743  1.5182 -0.9312
  953MOL0     H28617   3.055   7.185   9.460 -1.7668  0.7121 -1.0034
  953MOL0     H28618   3.064   7.317   9.347 -0.1678 -0.0446 -0.9537
  953MOL0     H28619   3.012   7.344   9.952  0.6173 -0.6527 -3.9783
  953MOL0     H28620   2.823   7.429  10.086 -1.8601  0.3199 -1.0136
  953MOL0     H28621   2.618   7.506  10.151 -0.1148  0.7738  1.4630
  953MOL0     H28622   2.729   7.568  10.269  0.6036 -0.3046  0.6905
  953MOL0     H28623   2.583   7.780  10.234  1.6927 -0.7882 -2.4133
  953MOL0     H28624   2.460   7.658  10.176  1.1115  0.0461 -0.2767
  953MOL0     H28625   2.606   7.651  10.444 -0.9838  0.8519  2.4350
  953MOL0     H28626   2.483   7.541  10.389 -0.3855  0.7768  1.0670
  953MOL0     H28627   2.424   7.835  10.464 -2.5210  0.1865 -0.5049
  953MOL0     H28628   2.312   7.737  10.391  1.2990  1.6476 -1.7669
  953MOL0     H28629   2.359   7.750  10.673  1.1684 -0.9174  0.1346
  953MOL0     H28630   2.464   7.614  10.622  1.2994  1.3187 -0.0154
  953MOL0     H28631   2.286   7.488  10.531  2.1094  0.8905  0.1862
  953MOL0     H28632   2.253   7.520  10.695  0.9175 -0.2798 -0.0613
  953MOL0     H28633   2.115   7.629  10.452 -0.8983 -0.3433  0.3483
  953MOL0     H28634   2.110   7.728  10.605 -0.7223 -1.3126  1.9864
  953MOL0     H28635   1.913   7.545  10.589 -0.6429 -1.2752  1.4804
  953MOL0     H28636   2.004   7.549  10.738  1.6607  1.5967  0.1903
  953MOL0     H28637   2.856   7.812   9.901 -0.2152 -0.4018 -0.1327
  953MOL0     H28638   3.051   7.715   9.759  2.7380  0.2450  2.3444
  953MOL0     H28639   3.367   7.452   9.721 -0.7125 -2.3634  0.8616
  953MOL0     H28640   3.574   7.392   9.631 -1.6758 -0.7199  3.3089
  953MOL0     H28641   5.279   7.267   9.149  0.0412  0.4356  0.5791
  953MOL0     H28642   5.484   7.352   9.063 -2.3228 -1.8348  0.2564
  953MOL0     H28643   5.714   7.493   8.802  1.1356 -0.1406 -1.6770
  953MOL0     H28644   5.933   7.481   8.710 -0.3842  0.7487 -0.6084
  953MOL0     H28645   6.094   7.845   8.574 -0.7896 -1.5378 -0.0354
  953MOL0     H28646   6.184   7.854   8.726  1.2542  0.2063  0.2875
  953MOL0     H28647   6.292   7.682   8.483  2.6312  2.6950 -3.8645
  953MOL0     H28648   6.365   7.717   8.639 -1.5785 -2.3655 -1.0387
  953MOL0     H28649   6.394   7.948   8.559  2.0655 -1.3812  0.7421
  953MOL0     H28650   6.289   7.923   8.420  0.9007  1.6505 -0.7799
  953MOL0     H28651   6.461   7.800   8.302  1.5987 -0.7640 -0.1127
  953MOL0     H28652   6.545   7.760   8.459  0.9322  1.3437  0.7512
  953MOL0     H28653   6.715   8.126   8.392 -0.9136  0.4815  1.4006
  953MOL0     H28654   5.989   7.906   8.787  1.3860  0.0052 -1.4029
  953MOL0     H28655   5.785   7.908   8.900 -0.6163 -0.7165  2.7623
  954MOL0     O28656   7.674   6.390  10.145  0.3710 -0.1048 -0.2841
  954MOL0     C28657   7.775   6.437  10.097 -1.0010 -0.3017  0.4001
  954MOL0     O28658   7.780   6.513   9.977  0.2666  0.4042  0.5133
  954MOL0     C28659   7.660   6.541   9.916  0.4095  0.0668  0.3929
  954MOL0     C28660   7.550   6.585   9.993 -0.0130 -0.3155  0.9522
  954MOL0     C28661   7.427   6.600   9.931  0.1702 -0.8502  0.0985
  954MOL0     C28662   7.419   6.592   9.790 -0.4241  0.5797 -0.3992
  954MOL0     O28663   7.299   6.609   9.717  0.0991  0.2258  0.2576
  954MOL0     C28664   7.178   6.643   9.781 -0.2294 -0.0178  0.2262
  954MOL0     C28665   7.060   6.689   9.687 -1.1731  1.1493  0.2014
  954MOL0     C28666   7.013   6.587   9.596 -0.1502  0.6055  0.8857
  954MOL0     C28667   6.874   6.631   9.556  0.8924  0.0984 -0.0507
  954MOL0     C28668   6.800   6.537   9.451 -0.2410 -0.5219 -0.2891
  954MOL0     C28669   6.695   6.612   9.369  0.4822 -0.5927 -0.1992
  954MOL0     C28670   6.573   6.646   9.466  0.4052 -0.6062  0.2003
  954MOL0     C28671   6.457   6.693   9.380 -0.0140 -0.4294 -0.3491
  954MOL0     N28672   6.382   6.574   9.335 -0.2679 -0.3340  0.0159
  954MOL0     C28673   6.292   6.502   9.404 -0.2441  0.4265 -0.4370
  954MOL0     C28674   6.228   6.431   9.310  0.5880  0.3829 -0.2544
  954MOL0     C28675   6.116   6.333   9.329 -0.8795  0.0546 -0.0906
  954MOL0     C28676   5.999   6.380   9.246  1.1493  0.4404  0.1300
  954MOL0     C28677   5.897   6.272   9.253 -0.0562  0.3127  0.0091
  954MOL0     C28678   5.780   6.326   9.170  0.4117 -0.1755  0.2648
  954MOL0     O28679   5.681   6.228   9.187 -0.1073  0.0087 -0.3424
  954MOL0     C28680   5.574   6.229   9.102 -0.0393  0.4524 -0.8292
  954MOL0     C28681   5.537   6.328   9.017  0.8573 -0.1284 -0.0432
  954MOL0     C28682   5.421   6.320   8.937  0.5022 -0.1666  0.2362
  954MOL0     C28683   5.422   6.427   8.824  0.1320 -0.5693 -0.0338
  954MOL0     C28684   5.328   6.216   8.957  0.9533 -0.3936  0.0225
  954MOL0     C28685   5.203   6.204   8.879 -0.6209  0.7631 -0.2830
  954MOL0     O28686   5.148   6.081   8.876  0.1751 -0.0645 -0.0637
  954MOL0     C28687   5.015   6.070   8.841  0.3953  0.2610 -0.2689
  954MOL0     C28688   4.985   5.971   8.746  0.3414  0.0863 -0.3463
  954MOL0     C28689   4.856   5.965   8.696 -0.0949 -0.0683 -0.1515
  954MOL0     C28690   4.748   6.040   8.749 -0.2620  0.0975  0.1081
  954MOL0     O28691   4.629   6.026   8.685 -0.2327  0.2321  0.5584
  954MOL0     C28692   4.509   6.071   8.758 -0.0605  0.3833  0.4390
  954MOL0     C28693   4.382   6.045   8.684 -0.2225 -0.3172  0.0419
  954MOL0     C28694   4.360   5.898   8.652 -0.5970  0.8720  0.1104
  954MOL0     C28695   4.306   5.817   8.772  0.6409  0.0973  0.2570
  954MOL0     C28696   4.282   5.672   8.745  0.3327  0.3247 -0.6748
  954MOL0     C28697   4.207   5.593   8.853  0.2537  0.4428  0.1004
  954MOL0     C28698   4.168   5.458   8.782 -0.3825  0.1522 -0.1967
  954MOL0     C28699   4.055   5.459   8.688 -0.1613 -0.5389  0.0391
  954MOL0    Cl28700   4.038   5.307   8.590 -0.1870 -0.0741  0.2118
  954MOL0     C28701   4.776   6.115   8.866  0.0098 -0.1038  0.9519
  954MOL0     C28702   4.910   6.134   8.907 -0.7283  0.2188  0.3261
  954MOL0     O28703   5.158   6.302   8.822 -0.3286 -0.5417  0.2797
  954MOL0     C28704   5.358   6.119   9.057 -0.4238 -0.3773  0.2037
  954MOL0     C28705   5.480   6.135   9.127  0.2794  0.0912  0.7624
  954MOL0     N28706   6.291   6.444   9.189 -0.4584  0.7153  0.6448
  954MOL0     N28707   6.373   6.539   9.205 -0.0948 -0.1043 -0.2170
  954MOL0     C28708   7.530   6.557   9.714 -0.1036  0.0695 -0.0238
  954MOL0     C28709   7.652   6.525   9.775 -1.0712 -0.0030  1.1519
  954MOL0     C28710   7.897   6.425  10.172  0.4063  0.1648 -0.1786
  954MOL0     C28711   7.901   6.361  10.294  0.5529 -0.1419 -0.0939
  954MOL0     C28712   8.023   6.353  10.374  0.6282 -0.1286 -0.2680
  954MOL0     C28713   8.142   6.408  10.320  0.3547 -0.2136  0.2361
  954MOL0     O28714   8.262   6.417  10.387  0.3564 -0.3354  0.1095
  954MOL0     C28715   8.283   6.346  10.505 -0.1993  0.4994  0.2484
  954MOL0     C28716   8.437   6.345  10.540  0.3854 -0.1532 -0.2478
  954MOL0     C28717   8.460   6.278  10.678  0.5456  0.0860 -0.1570
  954MOL0     C28718   8.607   6.264  10.705  0.5210 -0.2318  0.9081
  954MOL0     C28719   8.631   6.177  10.824  0.8807  0.1304  0.3631
  954MOL0     C28720   8.655   6.120  10.928  0.1034 -0.0323  0.1704
  954MOL0     C28721   8.130   6.482  10.198  0.0428  0.5693  0.1237
  954MOL0     C28722   8.012   6.487  10.129  0.2072  0.5572 -0.0417
  954MOL0     H28723   7.554   6.583  10.102  2.7849  0.6480  0.9676
  954MOL0     H28724   7.346   6.622   9.999  0.3485 -0.5396  0.2103
  954MOL0     H28725   7.149   6.559   9.844 -1.7699  1.7242  1.9858
  954MOL0     H28726   7.204   6.727   9.846  2.9203  1.1640 -2.2682
  954MOL0     H28727   6.979   6.723   9.753 -1.0511 -2.7424  2.6614
  954MOL0     H28728   7.100   6.772   9.628 -2.7774  1.6099 -0.2972
  954MOL0     H28729   7.066   6.577   9.501  1.5845  0.6398  1.8184
  954MOL0     H28730   7.014   6.485   9.638 -0.3920  0.8585  1.5244
  954MOL0     H28731   6.817   6.643   9.648  1.9942  0.9179  0.5454
  954MOL0     H28732   6.879   6.734   9.520 -4.1254  1.0086  1.0713
  954MOL0     H28733   6.882   6.504   9.387  1.4224  1.2376  0.8148
  954MOL0     H28734   6.756   6.453   9.505 -1.2802  1.3703  2.0271
  954MOL0     H28735   6.738   6.703   9.326 -0.6366 -0.3956 -0.9414
  954MOL0     H28736   6.656   6.544   9.293 -3.0506 -0.2110  1.1047
  954MOL0     H28737   6.545   6.551   9.513  3.2760 -0.9712  1.3906
  954MOL0     H28738   6.604   6.713   9.547 -1.3629 -0.2870  0.6612
  954MOL0     H28739   6.483   6.744   9.287  1.2971 -0.8999 -0.2620
  954MOL0     H28740   6.393   6.754   9.444  0.9712 -1.2811  1.5514
  954MOL0     H28741   6.269   6.503   9.511 -0.2605  2.0946 -0.4164
  954MOL0     H28742   6.149   6.233   9.300 -2.1886 -2.0271  4.6458
  954MOL0     H28743   6.087   6.323   9.434 -1.8362 -0.0683 -0.3606
  954MOL0     H28744   6.024   6.399   9.142  0.0235  1.0659 -0.0496
  954MOL0     H28745   5.960   6.475   9.286 -2.0654 -0.7202  0.0242
  954MOL0     H28746   5.866   6.254   9.356  1.7909  0.1440  0.5740
  954MOL0     H28747   5.939   6.180   9.210  3.1735  1.5406  0.2698
  954MOL0     H28748   5.817   6.347   9.069  2.4111 -1.8630  0.6064
  954MOL0     H28749   5.742   6.420   9.213 -0.9809 -0.7954  0.4487
  954MOL0     H28750   5.602   6.414   9.004  2.0578 -1.1053 -0.8429
  954MOL0     H28751   5.349   6.502   8.854 -1.2998 -1.2796 -1.5586
  954MOL0     H28752   5.519   6.471   8.799  0.1815 -0.5436  0.1972
  954MOL0     H28753   5.383   6.379   8.734  1.5299 -3.8702  0.9758
  954MOL0     H28754   5.072   5.920   8.705  1.5654  1.3090  0.6225
  954MOL0     H28755   4.844   5.891   8.617  1.5128 -3.7932  2.7996
  954MOL0     H28756   4.508   6.025   8.857  0.4798  1.2015  0.8451
  954MOL0     H28757   4.525   6.180   8.756  1.6220  0.1528 -1.3632
  954MOL0     H28758   4.305   6.081   8.753  0.9553 -0.9479  1.7529
  954MOL0     H28759   4.366   6.114   8.600 -1.0319  1.5598  1.6430
  954MOL0     H28760   4.455   5.850   8.624  0.2502  1.8810  1.1575
  954MOL0     H28761   4.293   5.883   8.567 -0.6633  1.6858  0.0168
  954MOL0     H28762   4.381   5.831   8.851  1.6036  1.1962 -0.8135
  954MOL0     H28763   4.207   5.858   8.795  0.2746 -0.5381 -0.1450
  954MOL0     H28764   4.383   5.636   8.730  0.7199 -0.2966  2.5472
  954MOL0     H28765   4.227   5.669   8.651 -1.8462  0.3634  0.5278
  954MOL0     H28766   4.262   5.575   8.946  0.9405 -1.2343 -0.5979
  954MOL0     H28767   4.117   5.643   8.890 -0.2012 -0.1439 -0.1897
  954MOL0     H28768   4.148   5.373   8.849 -0.1312 -0.1485 -0.4994
  954MOL0     H28769   4.255   5.430   8.722 -0.1141  0.3406  0.0965
  954MOL0     H28770   4.065   5.539   8.614 -1.7250  0.8616  1.2608
  954MOL0     H28771   3.967   5.491   8.745 -1.5762 -0.8644 -1.8617
  954MOL0     H28772   4.699   6.170   8.919 -2.2511 -1.2575 -0.9753
  954MOL0     H28773   4.946   6.209   8.976  2.7847 -1.0129 -0.0006
  954MOL0     H28774   5.293   6.033   9.065 -1.5311  0.5046  0.9703
  954MOL0     H28775   5.508   6.061   9.201  1.3762 -0.5940 -0.3133
  954MOL0     H28776   7.517   6.559   9.606 -1.0736  3.0134  0.0515
  954MOL0     H28777   7.747   6.502   9.728 -0.6054  0.4879  1.8287
  954MOL0     H28778   7.814   6.312  10.336  0.8762  0.0703  0.8556
  954MOL0     H28779   8.011   6.297  10.466 -3.0512  0.2386 -0.3423
  954MOL0     H28780   8.252   6.390  10.600 -1.4384 -0.0866  0.1322
  954MOL0     H28781   8.245   6.244  10.497  0.3627  0.3030  0.0627
  954MOL0     H28782   8.457   6.452  10.549 -0.2671 -0.0935  0.6227
  954MOL0     H28783   8.498   6.299  10.462  2.4555 -0.0084  1.2068
  954MOL0     H28784   8.395   6.191  10.693  0.0059  0.7768  1.9364
  954MOL0     H28785   8.430   6.352  10.753  2.1671  2.2188 -1.5117
  954MOL0     H28786   8.650   6.363  10.724  1.3663 -1.0450  3.7996
  954MOL0     H28787   8.653   6.224  10.615  0.4762  1.1957  0.2160
  954MOL0     H28788   8.693   6.066  11.012  0.7762  0.0450 -0.0783
  954MOL0     H28789   8.212   6.547  10.169 -1.4034  1.9495 -1.0508
  954MOL0     H28790   8.002   6.548  10.040  1.3234 -1.5603 -1.6776
  955MOL0     O28791   8.722   5.460   8.131 -0.3816  0.2727  0.6231
  955MOL0     C28792   8.782   5.360   8.086 -0.3746 -0.3118 -0.2521
  955MOL0     O28793   8.750   5.284   7.975 -0.4726 -0.0049  0.4223
  955MOL0     C28794   8.647   5.303   7.881  0.4213 -0.1996  0.4599
  955MOL0     C28795   8.526   5.345   7.924 -0.2086  0.3834  0.2940
  955MOL0     C28796   8.422   5.372   7.831  1.4142 -0.0329  0.1233
  955MOL0     C28797   8.437   5.363   7.691  0.0577  0.2617 -0.4374
  955MOL0     O28798   8.345   5.399   7.603 -0.0865 -0.8706  0.1455
  955MOL0     C28799   8.343   5.541   7.581  0.0960  1.0663  0.1664
  955MOL0     C28800   8.200   5.596   7.566 -0.1050  0.8508  0.4261
  955MOL0     C28801   8.204   5.727   7.502  0.1757 -0.1850  0.3593
  955MOL0     C28802   8.059   5.780   7.480 -0.0243  0.6384  0.1839
  955MOL0     C28803   8.049   5.918   7.397  0.3460  0.6852  0.4644
  955MOL0     C28804   8.133   5.919   7.269 -0.6309 -0.0865 -0.0442
  955MOL0     C28805   8.080   5.832   7.158  0.1743 -0.3404  0.0135
  955MOL0     C28806   8.181   5.811   7.048 -0.3034  0.4368 -0.2900
  955MOL0     N28807   8.118   5.723   6.948  0.2029  0.5415  0.0869
  955MOL0     C28808   8.193   5.624   6.906 -0.3236  0.4545  0.8216
  955MOL0     C28809   8.115   5.562   6.810 -0.1962  0.4855 -0.7072
  955MOL0     C28810   8.164   5.458   6.720 -0.0341 -0.2133  0.0944
  955MOL0     C28811   8.059   5.411   6.615  0.6870  1.2942 -0.7936
  955MOL0     C28812   7.930   5.351   6.668 -0.9701 -0.0140 -0.3585
  955MOL0     C28813   7.856   5.273   6.558 -0.3901 -0.4028 -0.8823
  955MOL0     O28814   7.784   5.357   6.468  0.0381  0.3323  0.6489
  955MOL0     C28815   7.652   5.375   6.495  0.0884  0.2651 -0.4419
  955MOL0     C28816   7.581   5.413   6.383  0.1068  1.0742  0.2438
  955MOL0     C28817   7.446   5.423   6.381  0.5547  0.0236 -0.7810
  955MOL0     C28818   7.395   5.476   6.255 -0.2764  0.1287  0.1229
  955MOL0     C28819   7.372   5.377   6.493  0.1530 -0.0620 -0.3827
  955MOL0     C28820   7.229   5.381   6.498  0.3145 -0.8182 -0.1566
  955MOL0     O28821   7.179   5.445   6.613 -0.2860  0.5310 -0.1434
  955MOL0     C28822   7.055   5.429   6.667 -0.2676 -0.6687 -0.0459
  955MOL0     C28823   7.024   5.523   6.763 -0.2803  0.4760  0.1992
  955MOL0     C28824   6.902   5.519   6.824 -0.7799  0.6072 -0.5073
  955MOL0     C28825   6.803   5.416   6.798 -0.3597  0.5191 -0.2140
  955MOL0     O28826   6.674   5.422   6.842 -0.0128 -0.8924 -0.2698
  955MOL0     C28827   6.618   5.540   6.904 -0.3514  0.0671  0.3125
  955MOL0     C28828   6.466   5.523   6.922 -0.0207  0.0401  0.1824
  955MOL0     C28829   6.401   5.606   6.799 -0.7084  0.8755 -0.8047
  955MOL0     C28830   6.253   5.571   6.792 -0.3315 -0.0355 -0.2448
  955MOL0     C28831   6.180   5.640   6.682  0.4529  0.3411  0.0729
  955MOL0     C28832   6.030   5.610   6.687 -0.0451 -0.7322 -0.6525
  955MOL0     C28833   5.953   5.711   6.596  0.2373 -0.2852  0.2041
  955MOL0     C28834   5.809   5.677   6.564 -0.5327 -0.6411 -0.1706
  955MOL0    Cl28835   5.674   5.774   6.623 -0.5999 -0.4615 -0.4052
  955MOL0     C28836   6.843   5.316   6.708 -0.0101 -0.7372 -0.3672
  955MOL0     C28837   6.969   5.318   6.650  0.6767  0.6673 -0.2513
  955MOL0     O28838   7.161   5.341   6.403 -0.4185  0.1988  0.0230
  955MOL0     C28839   7.440   5.330   6.607 -0.6561 -0.7728 -0.2130
  955MOL0     C28840   7.584   5.341   6.616  0.8303 -0.2511  1.2407
  955MOL0     N28841   7.989   5.628   6.803 -0.5637 -0.5096 -0.0476
  955MOL0     N28842   7.996   5.729   6.889  0.2754 -0.1336 -0.4258
  955MOL0     C28843   8.555   5.311   7.647  0.4817 -0.5536 -0.7735
  955MOL0     C28844   8.660   5.279   7.741 -0.2130  0.6073  0.0830
  955MOL0     C28845   8.898   5.309   8.168  0.5831  0.0144  0.5599
  955MOL0     C28846   8.975   5.199   8.124 -0.2806  0.0266 -0.3702
  955MOL0     C28847   9.090   5.150   8.192  1.1830  0.3408  0.1946
  955MOL0     C28848   9.116   5.207   8.317 -0.1635 -0.9240 -0.0949
  955MOL0     O28849   9.226   5.151   8.382  0.6178  0.1518 -0.2754
  955MOL0     C28850   9.288   5.241   8.475  0.1182 -0.6421  0.4915
  955MOL0     C28851   9.420   5.179   8.525  0.8615 -0.2998  0.1842
  955MOL0     C28852   9.540   5.152   8.427 -0.1473 -0.2569  0.1408
  955MOL0     C28853   9.641   5.057   8.497 -0.7796 -0.7339  0.5048
  955MOL0     C28854   9.736   5.018   8.397 -0.4045 -0.1174  1.3196
  955MOL0     C28855   9.809   4.965   8.313 -0.2877 -0.3972  0.6193
  955MOL0     C28856   9.032   5.313   8.362 -0.4472 -0.1876  0.2192
  955MOL0     C28857   8.932   5.368   8.281  0.6692 -0.4897  0.4742
  955MOL0     H28858   8.495   5.348   8.028  1.8187  2.0865  0.9279
  955MOL0     H28859   8.333   5.422   7.866 -0.5644 -3.6271  0.7400
  955MOL0     H28860   8.391   5.590   7.666  0.1369 -0.4978  1.0743
  955MOL0     H28861   8.400   5.578   7.495  1.1321  0.3021  0.5007
  955MOL0     H28862   8.150   5.525   7.498  0.3861  1.5136 -0.6521
  955MOL0     H28863   8.145   5.598   7.661  1.6413 -1.0032  1.5364
  955MOL0     H28864   8.252   5.799   7.569  1.1227  0.5387 -1.0502
  955MOL0     H28865   8.253   5.728   7.404 -1.2541  1.4367 -0.4037
  955MOL0     H28866   8.010   5.698   7.426 -0.5841 -0.5066  2.3122
  955MOL0     H28867   8.005   5.780   7.575 -1.1728 -0.4365 -0.4381
  955MOL0     H28868   7.949   5.947   7.363  0.8021  3.9062  1.5323
  955MOL0     H28869   8.081   6.001   7.460 -0.1985  1.3740 -0.1436
  955MOL0     H28870   8.141   6.025   7.244 -1.6759  0.8803  3.2196
  955MOL0     H28871   8.237   5.897   7.293 -0.1858 -0.0493 -1.7633
  955MOL0     H28872   8.060   5.735   7.203  0.8266 -1.1096 -1.3153
  955MOL0     H28873   7.982   5.868   7.123 -0.2815 -0.9731  0.6217
  955MOL0     H28874   8.270   5.758   7.083 -0.9320  0.1256  0.8769
  955MOL0     H28875   8.218   5.904   7.005  2.4118 -1.5794 -2.7835
  955MOL0     H28876   8.298   5.613   6.931 -0.2934  0.4166  0.6771
  955MOL0     H28877   8.237   5.515   6.663  0.0544 -0.4221 -0.0008
  955MOL0     H28878   8.199   5.376   6.783  1.2889  1.3032  1.4022
  955MOL0     H28879   8.107   5.346   6.541  0.2782 -0.1888  0.1841
  955MOL0     H28880   8.020   5.489   6.548 -2.8463 -0.7436 -1.3590
  955MOL0     H28881   7.865   5.430   6.707 -1.7591 -1.3790  1.2630
  955MOL0     H28882   7.959   5.287   6.752  0.9520 -0.7306 -1.4985
  955MOL0     H28883   7.790   5.201   6.608 -0.8313  1.4125  1.3416
  955MOL0     H28884   7.916   5.211   6.491 -0.5702 -1.9384  0.2942
  955MOL0     H28885   7.629   5.428   6.286  0.8426 -0.0719  0.4145
  955MOL0     H28886   7.448   5.421   6.176 -0.4006  0.2707 -0.0573
  955MOL0     H28887   7.287   5.471   6.241 -0.5426 -0.6492  2.1000
  955MOL0     H28888   7.415   5.582   6.237  1.9076  0.2262  2.4905
  955MOL0     H28889   7.093   5.602   6.791  0.4210  0.1580 -0.5525
  955MOL0     H28890   6.877   5.603   6.888  2.8565 -1.2015  3.8045
  955MOL0     H28891   6.660   5.547   7.005 -1.0985  0.2254  0.6251
  955MOL0     H28892   6.647   5.633   6.853 -0.3372  0.6331  1.3303
  955MOL0     H28893   6.443   5.417   6.920 -2.7080  0.5643  0.1675
  955MOL0     H28894   6.435   5.568   7.017 -0.8715 -0.0837 -0.0365
  955MOL0     H28895   6.456   5.573   6.710 -3.5824 -0.5225 -2.1944
  955MOL0     H28896   6.411   5.714   6.810  1.8639  0.5625  0.8905
  955MOL0     H28897   6.240   5.463   6.797 -0.7850  0.0759  1.9911
  955MOL0     H28898   6.209   5.603   6.887  0.4923 -2.2427  0.9364
  955MOL0     H28899   6.218   5.604   6.586  0.5054 -0.9036  0.5387
  955MOL0     H28900   6.181   5.749   6.691 -4.3434  0.5150  1.4010
  955MOL0     H28901   6.004   5.507   6.658 -1.5327 -0.1094 -1.6598
  955MOL0     H28902   5.979   5.628   6.782 -2.0435 -0.2968 -1.7510
  955MOL0     H28903   6.003   5.718   6.498  0.1367 -1.8921  0.0125
  955MOL0     H28904   5.944   5.810   6.641 -1.5543 -0.6031  0.5970
  955MOL0     H28905   5.788   5.575   6.597  1.5592 -0.9836  0.2684
  955MOL0     H28906   5.794   5.679   6.456 -3.8576 -0.2934  0.1848
  955MOL0     H28907   6.786   5.229   6.676 -0.0087 -1.1943  0.8122
  955MOL0     H28908   7.003   5.247   6.575  1.3083  2.7631 -2.0480
  955MOL0     H28909   7.378   5.292   6.688  0.5074 -0.2042  0.9920
  955MOL0     H28910   7.632   5.308   6.708  1.1908 -1.4972  0.6255
  955MOL0     H28911   8.569   5.312   7.539 -0.4790  0.9497 -0.9057
  955MOL0     H28912   8.764   5.256   7.716 -0.2383  0.5421  0.0371
  955MOL0     H28913   8.937   5.145   8.039  1.7109  1.2630 -2.1504
  955MOL0     H28914   9.148   5.067   8.153 -1.2034 -0.0078 -2.9684
  955MOL0     H28915   9.322   5.331   8.422  0.6490 -1.0949  0.0505
  955MOL0     H28916   9.225   5.275   8.557  0.8694  1.8490  0.1148
  955MOL0     H28917   9.382   5.090   8.576 -2.3352  0.3031 -0.9248
  955MOL0     H28918   9.466   5.250   8.594  3.7315 -0.9927 -0.8332
  955MOL0     H28919   9.581   5.243   8.383  0.4878 -0.8244 -0.4496
  955MOL0     H28920   9.499   5.099   8.341 -1.0977 -2.1889  1.7073
  955MOL0     H28921   9.592   4.967   8.534 -1.7549  0.5346  2.4670
  955MOL0     H28922   9.685   5.109   8.582  0.7054 -0.8045 -0.1907
  955MOL0     H28923   9.880   4.927   8.242  0.4474  0.5993  0.8091
  955MOL0     H28924   9.044   5.372   8.453 -3.0993 -2.6371  2.3265
  955MOL0     H28925   8.884   5.455   8.324 -4.1766 -2.1479 -1.0029
  956MOL0     O28926   3.977  10.766   9.601 -0.5200  0.1716 -0.9879
  956MOL0     C28927   3.968  10.663   9.666  0.1274  0.5708 -0.5232
  956MOL0     O28928   3.850  10.601   9.686 -0.1178  0.0837  0.5342
  956MOL0     C28929   3.735  10.672   9.650  0.0380 -0.3486  0.2774
  956MOL0     C28930   3.697  10.692   9.514 -0.0040 -0.0666  0.2483
  956MOL0     C28931   3.581  10.755   9.471 -0.3182 -0.3081  1.1035
  956MOL0     C28932   3.487  10.781   9.571 -0.6246  0.9210  0.2019
  956MOL0     O28933   3.365  10.838   9.549 -0.8069  0.2122  0.1027
  956MOL0     C28934   3.338  10.885   9.424 -0.4218 -0.2291  0.4823
  956MOL0     C28935   3.198  10.942   9.417 -0.3570 -0.2372  0.3552
  956MOL0     C28936   3.161  11.028   9.293 -0.0631  0.4673  0.7382
  956MOL0     C28937   3.004  11.052   9.288 -0.8502  0.3064  0.0934
  956MOL0     C28938   2.973  11.175   9.201 -0.7537  0.0233 -0.3924
  956MOL0     C28939   2.827  11.189   9.190 -0.2304  0.1957 -0.5425
  956MOL0     C28940   2.793  11.293   9.080 -0.0324  0.1764  0.5201
  956MOL0     C28941   2.648  11.307   9.053 -0.1965 -0.3936 -0.2506
  956MOL0     N28942   2.593  11.197   8.988  0.2389  0.1338 -0.3962
  956MOL0     C28943   2.522  11.090   9.038 -0.0479  0.5940  0.2808
  956MOL0     C28944   2.498  11.003   8.936  0.0021 -0.2089 -0.6239
  956MOL0     C28945   2.430  10.870   8.954  0.3242  0.1295 -0.0286
  956MOL0     C28946   2.287  10.867   8.918  0.5919 -0.8249 -0.2749
  956MOL0     C28947   2.199  10.913   9.037  1.0975  0.4933 -0.4104
  956MOL0     C28948   2.052  10.877   9.017  0.5121  0.5583 -0.2957
  956MOL0     O28949   2.024  10.938   8.889  0.9293  0.2420  0.5523
  956MOL0     C28950   1.930  10.867   8.823 -0.3013  0.6776 -0.4892
  956MOL0     C28951   1.922  10.730   8.808  0.1360  0.2064 -0.5219
  956MOL0     C28952   1.830  10.674   8.726  0.3098 -0.4722  0.0856
  956MOL0     C28953   1.835  10.525   8.694 -0.3117 -1.0306 -0.8084
  956MOL0     C28954   1.723  10.751   8.680  1.1716 -0.6481  0.6024
  956MOL0     C28955   1.593  10.702   8.615  1.2664  0.1851 -0.5353
  956MOL0     O28956   1.519  10.796   8.547  0.2472  0.4161 -0.2631
  956MOL0     C28957   1.394  10.761   8.500 -0.0791  0.3510  0.5005
  956MOL0     C28958   1.350  10.637   8.443 -0.3203  0.0656 -0.0347
  956MOL0     C28959   1.218  10.621   8.394 -0.0455  0.0889 -0.5392
  956MOL0     C28960   1.133  10.728   8.386  0.7294 -0.2281  0.4390
  956MOL0     O28961   0.997  10.733   8.345  0.2926  0.6617 -0.2574
  956MOL0     C28962   0.940  10.608   8.319  1.2302 -0.5552  0.5466
  956MOL0     C28963   0.800  10.643   8.270  0.0912 -0.1298 -0.3094
  956MOL0     C28964   0.711  10.520   8.243 -0.2168 -0.1870  0.1040
  956MOL0     C28965   0.642  10.468   8.369  0.0829  0.1784  0.2448
  956MOL0     C28966   0.563  10.349   8.317  0.3227 -0.1508 -0.2515
  956MOL0     C28967   0.494  10.281   8.433  0.7526 -0.1779  0.4219
  956MOL0     C28968   0.398  10.164   8.383 -0.1152 -0.5132 -0.1329
  956MOL0     C28969   0.483  10.044   8.353  0.5492 -0.5367 -0.0176
  956MOL0    Cl28970   0.380   9.895   8.349 -0.4194  0.5142 -0.3741
  956MOL0     C28971   1.181  10.854   8.427 -0.6005 -0.1993  0.0058
  956MOL0     C28972   1.306  10.867   8.490  0.5048 -0.2117  0.1846
  956MOL0     O28973   1.551  10.590   8.638  0.6291  0.1980 -0.5007
  956MOL0     C28974   1.727  10.889   8.700  0.7749 -0.1576  0.4796
  956MOL0     C28975   1.830  10.950   8.770  0.1372  0.3116  0.1906
  956MOL0     N28976   2.563  11.060   8.820  0.1984  0.2149 -1.1514
  956MOL0     N28977   2.618  11.175   8.852  0.5932 -0.2690 -0.5673
  956MOL0     C28978   3.517  10.768   9.711  0.4067  0.0328 -0.0734
  956MOL0     C28979   3.644  10.724   9.743  0.3815 -0.0425 -0.5629
  956MOL0     C28980   4.095  10.611   9.733  0.1778 -0.1757  0.0903
  956MOL0     C28981   4.208  10.692   9.737 -0.6916 -0.0108  0.4380
  956MOL0     C28982   4.321  10.639   9.800  0.0393 -0.3815  0.1952
  956MOL0     C28983   4.325  10.523   9.871 -0.0108  0.3144  1.2688
  956MOL0     O28984   4.440  10.465   9.915 -0.7466  0.2180 -0.5737
  956MOL0     C28985   4.438  10.436  10.054 -0.2005  0.2705 -0.4034
  956MOL0     C28986   4.570  10.363  10.096  0.1200 -0.2597 -0.6637
  956MOL0     C28987   4.601  10.390  10.246  0.7742 -0.1202 -0.4015
  956MOL0     C28988   4.640  10.535  10.275 -0.2270 -0.0156 -0.2941
  956MOL0     C28989   4.736  10.572  10.378 -0.3919  0.0546 -0.7661
  956MOL0     C28990   4.807  10.605  10.468  0.3228 -0.3383 -0.0732
  956MOL0     C28991   4.211  10.441   9.862 -0.4809 -0.0950 -0.6652
  956MOL0     C28992   4.095  10.487   9.798  0.5620 -0.9356 -0.8376
  956MOL0     H28993   3.760  10.641   9.442 -0.1638 -1.8166  1.2809
  956MOL0     H28994   3.578  10.769   9.364 -0.4934  2.1623  1.3854
  956MOL0     H28995   3.405  10.971   9.407  0.1058 -0.4824  1.2254
  956MOL0     H28996   3.347  10.805   9.351  0.0398 -1.8778  2.2629
  956MOL0     H28997   3.135  10.853   9.426  0.8202 -1.3155 -1.5077
  956MOL0     H28998   3.173  11.009   9.500 -3.8391 -0.5596 -0.3082
  956MOL0     H28999   3.210  11.125   9.306 -1.6677  1.3911  0.1900
  956MOL0     H29000   3.195  10.981   9.200  0.5182  2.8563 -0.3347
  956MOL0     H29001   2.958  10.963   9.245  0.7647 -2.2287  3.1481
  956MOL0     H29002   2.961  11.073   9.387  1.4027  0.2267  1.1499
  956MOL0     H29003   3.009  11.264   9.254 -2.3159  0.1411  0.5247
  956MOL0     H29004   3.029  11.166   9.107 -1.7228 -0.0651 -0.9755
  956MOL0     H29005   2.780  11.092   9.169 -0.0129 -0.4111  1.5721
  956MOL0     H29006   2.780  11.216   9.285  0.7928  2.8281 -0.7228
  956MOL0     H29007   2.822  11.393   9.117  0.0713 -0.6593  2.8834
  956MOL0     H29008   2.842  11.268   8.986  0.7546  0.3795  0.8666
  956MOL0     H29009   2.625  11.396   8.993 -1.7751 -0.5467  0.0798
  956MOL0     H29010   2.609  11.318   9.154  1.0709  0.0505  0.2069
  956MOL0     H29011   2.491  11.066   9.140  1.4254 -1.3997  0.3052
  956MOL0     H29012   2.478  10.791   8.896 -0.8530 -0.9479  0.4082
  956MOL0     H29013   2.436  10.838   9.059 -0.1392 -1.0536 -0.3435
  956MOL0     H29014   2.244  10.773   8.884 -4.0821 -0.6452  4.0138
  956MOL0     H29015   2.281  10.939   8.836  1.4891  0.7082  0.9297
  956MOL0     H29016   2.213  11.021   9.052  1.0518  0.4111  0.2801
  956MOL0     H29017   2.229  10.862   9.129 -4.1477  0.0596  1.4425
  956MOL0     H29018   1.982  10.915   9.092 -1.8617 -1.2461 -1.4686
  956MOL0     H29019   2.028  10.770   9.025 -0.3920  0.9001  2.4330
  956MOL0     H29020   2.000  10.663   8.842 -0.4238  0.2440  0.9431
  956MOL0     H29021   1.756  10.468   8.743 -0.6781 -0.5436 -0.8206
  956MOL0     H29022   1.811  10.514   8.588  2.0615  1.9286 -1.8201
  956MOL0     H29023   1.930  10.481   8.724 -0.6863 -2.3759 -1.5267
  956MOL0     H29024   1.415  10.550   8.453  0.7379  0.8059 -0.3610
  956MOL0     H29025   1.188  10.519   8.371 -0.3846  0.5470 -2.3398
  956MOL0     H29026   0.983  10.549   8.238 -0.2214  2.0981 -2.3885
  956MOL0     H29027   0.927  10.553   8.412 -1.0993  0.3167  0.8059
  956MOL0     H29028   0.746  10.709   8.339 -1.2903 -0.0692 -1.4002
  956MOL0     H29029   0.810  10.699   8.176  2.5863 -0.2568 -0.2053
  956MOL0     H29030   0.773  10.440   8.200  1.3054 -0.6478  2.8743
  956MOL0     H29031   0.623  10.544   8.184  0.4921  2.1975 -0.1200
  956MOL0     H29032   0.712  10.430   8.444  0.4110 -0.0993 -0.1948
  956MOL0     H29033   0.579  10.543   8.418 -2.3609 -0.6248 -1.4783
  956MOL0     H29034   0.629  10.285   8.259 -1.5660 -0.7565 -1.8217
  956MOL0     H29035   0.486  10.379   8.245  1.0297 -0.2886 -1.0817
  956MOL0     H29036   0.570  10.245   8.503  0.9441 -1.4750 -0.4074
  956MOL0     H29037   0.438  10.362   8.480  2.4541  0.8898  0.6828
  956MOL0     H29038   0.343  10.188   8.291  0.3252 -1.0340 -0.5434
  956MOL0     H29039   0.329  10.140   8.464 -0.0635  0.0251  0.0743
  956MOL0     H29040   0.559  10.053   8.431 -0.0436  2.7734  0.3562
  956MOL0     H29041   0.520  10.055   8.250 -1.1612  0.3717 -0.5727
  956MOL0     H29042   1.109  10.934   8.411 -0.7043  0.3370  2.7684
  956MOL0     H29043   1.331  10.965   8.531 -1.3398  0.8632 -1.1099
  956MOL0     H29044   1.653  10.959   8.663  1.7173  0.1608 -0.8758
  956MOL0     H29045   1.830  11.058   8.779 -1.1899  0.5492 -1.7619
  956MOL0     H29046   3.456  10.805   9.793 -2.6750 -0.9775 -1.7381
  956MOL0     H29047   3.678  10.722   9.846 -1.7776  1.1129  0.2223
  956MOL0     H29048   4.211  10.788   9.687 -0.2419  0.2772  1.0102
  956MOL0     H29049   4.405  10.707   9.793  0.6277 -1.2386 -2.3397
  956MOL0     H29050   4.416  10.529  10.106 -0.1054  0.5865 -0.9208
  956MOL0     H29051   4.353  10.374  10.082 -1.3235  2.3033  0.8756
  956MOL0     H29052   4.654  10.400  10.036  2.9514 -0.1705  3.0115
  956MOL0     H29053   4.565  10.255  10.079  0.7444 -0.1044 -1.9807
  956MOL0     H29054   4.675  10.329  10.299 -0.4966  0.7710  2.6486
  956MOL0     H29055   4.510  10.356  10.296  0.9588 -1.5994 -1.0296
  956MOL0     H29056   4.552  10.599  10.289 -1.2720 -1.6388  0.8555
  956MOL0     H29057   4.689  10.573  10.184  3.2705 -2.5916  0.3132
  956MOL0     H29058   4.879  10.631  10.543  1.3261  0.7527 -1.3584
  956MOL0     H29059   4.212  10.340   9.902 -0.9644  0.4736  0.8666
  956MOL0     H29060   4.007  10.423   9.804  2.1506 -3.1381  3.7773
  957MOL0     O29061   9.115  11.184   1.031  0.2764  0.2022  0.2176
  957MOL0     C29062   9.168  11.081   1.079 -0.1543  0.0544  1.0272
  957MOL0     O29063   9.117  11.014   1.183  0.7132 -0.3724  0.9276
  957MOL0     C29064   8.985  11.040   1.220 -0.0381  0.5705 -0.0462
  957MOL0     C29065   8.882  11.008   1.129  0.0195 -0.4393  0.0819
  957MOL0     C29066   8.746  11.017   1.169  0.3236 -0.0782  0.1533
  957MOL0     C29067   8.710  11.070   1.293  0.3037  0.2184  0.0222
  957MOL0     O29068   8.586  11.083   1.346  0.2987 -1.3205 -0.6250
  957MOL0     C29069   8.488  10.992   1.307 -0.2625  0.1910  0.5577
  957MOL0     C29070   8.381  10.978   1.407  0.0594 -0.4430  0.3540
  957MOL0     C29071   8.299  11.105   1.426 -0.2975  0.1032  0.6503
  957MOL0     C29072   8.176  11.085   1.509  0.2764 -0.6904 -0.1106
  957MOL0     C29073   8.114  11.226   1.535  0.0615  0.3905 -0.1108
  957MOL0     C29074   8.052  11.284   1.414  0.6963 -0.9189  0.1807
  957MOL0     C29075   7.965  11.414   1.450  0.2698  0.0002  0.3199
  957MOL0     C29076   8.050  11.537   1.493 -0.8194  0.4275 -0.1976
  957MOL0     N29077   7.979  11.659   1.454 -0.5025  0.6196  0.8371
  957MOL0     C29078   7.897  11.736   1.533  0.0375  0.3135 -0.3481
  957MOL0     C29079   7.858  11.835   1.455 -0.4301 -0.0390  0.0634
  957MOL0     C29080   7.750  11.943   1.481  0.8763 -0.3157  0.6753
  957MOL0     C29081   7.619  11.886   1.412  0.4902 -0.2294  0.3141
  957MOL0     C29082   7.493  11.974   1.444 -0.1333 -0.0422 -0.3100
  957MOL0     C29083   7.508  12.131   1.403 -0.5225  0.4978 -0.3053
  957MOL0     O29084   7.477  12.218   1.510 -1.0642 -0.4180 -0.1712
  957MOL0     C29085   7.550  12.214   1.623 -0.6125  0.5191  0.5540
  957MOL0     C29086   7.484  12.188   1.735  0.3039  0.3784 -0.9712
  957MOL0     C29087   7.548  12.182   1.863  0.5005 -0.1527  0.1204
  957MOL0     C29088   7.455  12.165   1.979 -0.7148 -0.3190  0.4354
  957MOL0     C29089   7.685  12.212   1.873 -0.3014  0.1601  0.5387
  957MOL0     C29090   7.760  12.201   1.995 -0.5124 -0.4404  0.9354
  957MOL0     O29091   7.894  12.195   1.982 -0.0734  0.3485  0.3028
  957MOL0     C29092   7.971  12.162   2.093  0.6864  0.3668  0.0006
  957MOL0     C29093   8.023  12.031   2.097  0.0027  0.5727 -0.2757
  957MOL0     C29094   8.110  11.988   2.198  0.0554 -0.8345  0.1503
  957MOL0     C29095   8.149  12.081   2.304  0.2269 -0.0482  0.5028
  957MOL0     O29096   8.236  12.058   2.410 -0.1285 -0.2378 -0.3702
  957MOL0     C29097   8.253  11.921   2.446  0.7889  0.2572 -0.8845
  957MOL0     C29098   8.321  11.911   2.582 -0.4119  0.1875 -0.1474
  957MOL0     C29099   8.360  11.762   2.618 -0.2019 -0.2474 -0.3795
  957MOL0     C29100   8.442  11.779   2.755 -0.2813 -0.1734  0.4325
  957MOL0     C29101   8.456  11.632   2.813  0.1292 -0.1921  0.1192
  957MOL0     C29102   8.545  11.626   2.937 -1.6733  0.8378 -0.6519
  957MOL0     C29103   8.691  11.644   2.906 -0.3023  0.7817  0.1370
  957MOL0     C29104   8.765  11.673   3.041 -0.1010  0.3667  0.4488
  957MOL0    Cl29105   8.946  11.652   3.019  0.2199 -0.2257 -0.4349
  957MOL0     C29106   8.086  12.210   2.301 -0.0265  0.2211 -0.6436
  957MOL0     C29107   8.003  12.255   2.196  0.3025  0.7773  0.2268
  957MOL0     O29108   7.701  12.194   2.099 -0.0693 -0.1548 -0.2970
  957MOL0     C29109   7.760  12.250   1.752  0.2765 -0.4782 -0.2893
  957MOL0     C29110   7.685  12.249   1.628 -0.5098 -0.2680  0.0199
  957MOL0     N29111   7.926  11.825   1.331  0.6692  0.1051 -0.4023
  957MOL0     N29112   8.001  11.715   1.331  0.5432 -0.1062  0.1721
  957MOL0     C29113   8.806  11.115   1.375  0.0012  0.1615  0.7394
  957MOL0     C29114   8.942  11.098   1.346 -0.2559  0.2299 -0.1179
  957MOL0     C29115   9.298  11.040   1.036  0.0330 -0.3858 -0.1432
  957MOL0     C29116   9.383  11.129   0.965 -0.3879 -0.0200 -0.1895
  957MOL0     C29117   9.517  11.092   0.940  0.1458  0.1173  0.3988
  957MOL0     C29118   9.568  10.969   0.981  0.2330 -0.3582  0.1264
  957MOL0     O29119   9.686  10.921   0.940 -0.2166 -0.5221 -0.1044
  957MOL0     C29120   9.759  10.820   1.009 -0.0776 -0.1421 -0.1756
  957MOL0     C29121   9.905  10.800   0.954 -0.0486  0.4602 -0.2120
  957MOL0     C29122   9.900  10.764   0.807  0.5660  0.6562 -0.5836
  957MOL0     C29123  10.044  10.735   0.753  2.0076 -0.6525 -0.8376
  957MOL0     C29124  10.115  10.624   0.819  0.4149  0.3489  0.0477
  957MOL0     C29125  10.180  10.535   0.881  0.5214 -0.8473 -0.6199
  957MOL0     C29126   9.477  10.888   1.047  0.2967  0.5904  0.5598
  957MOL0     C29127   9.348  10.920   1.075  0.4209  0.4978 -0.5695
  957MOL0     H29128   8.911  10.969   1.032  1.3595  1.1837 -0.2087
  957MOL0     H29129   8.662  10.983   1.110 -0.6860 -1.8203  2.4400
  957MOL0     H29130   8.444  11.020   1.212  0.6902 -1.0732 -0.2990
  957MOL0     H29131   8.545  10.898   1.300  1.4412  1.2937 -3.0667
  957MOL0     H29132   8.316  10.900   1.366  0.0342 -0.6653  0.8020
  957MOL0     H29133   8.419  10.949   1.506 -2.8918 -0.8746  1.4921
  957MOL0     H29134   8.351  11.190   1.472  1.1787 -0.4945  0.1555
  957MOL0     H29135   8.273  11.141   1.326 -3.2851 -4.5487 -0.5332
  957MOL0     H29136   8.105  11.016   1.462  0.3002 -1.2775  0.6932
  957MOL0     H29137   8.203  11.041   1.605 -0.6924 -1.6156 -0.2409
  957MOL0     H29138   8.037  11.216   1.612  0.5904  0.0468  0.3830
  957MOL0     H29139   8.188  11.301   1.565  0.2369  1.5968 -3.1569
  957MOL0     H29140   8.129  11.321   1.346  1.2216 -0.6468  0.9087
  957MOL0     H29141   7.985  11.217   1.360 -0.2107  1.0322 -1.2342
  957MOL0     H29142   7.903  11.427   1.360 -0.2172 -3.9391 -0.0811
  957MOL0     H29143   7.889  11.378   1.521  0.4107 -0.3730  0.2857
  957MOL0     H29144   8.148  11.534   1.443 -0.1457  1.4439  0.9983
  957MOL0     H29145   8.077  11.532   1.599  1.8520 -2.4866 -0.8573
  957MOL0     H29146   7.879  11.706   1.636  5.0038 -1.8271  0.1935
  957MOL0     H29147   7.721  11.963   1.585  1.6182  2.3681  0.4252
  957MOL0     H29148   7.776  12.043   1.445  0.3437 -0.1051  0.8715
  957MOL0     H29149   7.598  11.792   1.463 -0.1916 -0.0357  0.4006
  957MOL0     H29150   7.631  11.871   1.304  1.3408 -0.5997  0.4468
  957MOL0     H29151   7.486  11.967   1.553  0.6315 -0.0082 -0.2570
  957MOL0     H29152   7.395  11.944   1.405 -1.1003  2.1345  0.2562
  957MOL0     H29153   7.445  12.137   1.314 -0.3713  2.8757 -0.3045
  957MOL0     H29154   7.607  12.162   1.369 -1.1079  2.4718 -0.3222
  957MOL0     H29155   7.377  12.173   1.721  0.3155  0.9290 -1.6594
  957MOL0     H29156   7.446  12.250   2.047 -0.5084 -0.4640  0.6482
  957MOL0     H29157   7.352  12.141   1.951 -0.3482  1.4005 -2.8253
  957MOL0     H29158   7.490  12.082   2.041 -0.1883 -2.5308 -2.5873
  957MOL0     H29159   7.993  11.963   2.019  0.2426 -2.9078  2.4356
  957MOL0     H29160   8.159  11.893   2.179  0.1908 -1.3283  2.6170
  957MOL0     H29161   8.156  11.870   2.444  0.0922  1.1827  2.4633
  957MOL0     H29162   8.324  11.867   2.383  2.3529  0.0496  0.9666
  957MOL0     H29163   8.407  11.979   2.581  0.3021 -0.6846  0.0216
  957MOL0     H29164   8.253  11.953   2.657 -0.9186  0.3457 -0.6867
  957MOL0     H29165   8.410  11.710   2.536 -1.6160  0.7636 -1.9367
  957MOL0     H29166   8.269  11.713   2.654 -0.5042  1.3933  1.2733
  957MOL0     H29167   8.540  11.822   2.736 -0.9229  1.4076  0.5794
  957MOL0     H29168   8.397  11.846   2.829  0.3994  1.6512 -0.7263
  957MOL0     H29169   8.492  11.559   2.740 -0.6420 -2.4456  1.8415
  957MOL0     H29170   8.355  11.598   2.840 -1.5097  3.2961 -1.0445
  957MOL0     H29171   8.518  11.697   3.016  2.2463 -0.3558  2.1082
  957MOL0     H29172   8.522  11.528   2.980  0.3883  0.5468 -0.1054
  957MOL0     H29173   8.710  11.725   2.835 -1.1692 -0.1448 -1.1978
  957MOL0     H29174   8.720  11.547   2.865  1.9159  0.6470  1.7853
  957MOL0     H29175   8.735  11.597   3.114  1.3417 -1.2027 -0.5176
  957MOL0     H29176   8.744  11.778   3.066 -0.7214  0.9184 -2.1154
  957MOL0     H29177   8.112  12.281   2.378 -2.0201 -0.1998  0.4772
  957MOL0     H29178   7.962  12.356   2.191 -1.3712  0.0900 -0.5621
  957MOL0     H29179   7.865  12.276   1.755  0.1595  0.0323  2.5138
  957MOL0     H29180   7.741  12.276   1.539 -1.7457  0.3737 -0.5841
  957MOL0     H29181   8.784  11.156   1.473 -0.6147 -0.6897  0.9636
  957MOL0     H29182   9.018  11.125   1.419 -0.9036 -0.2935  0.7737
  957MOL0     H29183   9.350  11.229   0.940  1.1189  0.2588 -1.2061
  957MOL0     H29184   9.585  11.166   0.899 -1.4534  1.2694 -0.2716
  957MOL0     H29185   9.768  10.852   1.113  1.6176 -1.4581  0.1158
  957MOL0     H29186   9.714  10.721   1.007  0.6760 -0.4827 -0.9306
  957MOL0     H29187   9.955  10.718   1.005  1.5000  1.2964 -0.3149
  957MOL0     H29188   9.947  10.900   0.967 -0.0144  0.7548 -2.1945
  957MOL0     H29189   9.853  10.837   0.741 -0.6193 -0.9705 -1.5900
  957MOL0     H29190   9.838  10.677   0.786 -0.2240  1.6389 -2.6007
  957MOL0     H29191  10.094  10.830   0.776 -2.4473  1.4583  1.3734
  957MOL0     H29192  10.044  10.722   0.644 -1.3753 -0.1831 -1.0175
  957MOL0     H29193  10.244  10.475   0.943  1.1604  0.3371 -0.0898
  957MOL0     H29194   9.517  10.789   1.065  3.0328  1.7405  1.4096
  957MOL0     H29195   9.289  10.849   1.133  0.9972  0.9300  0.5883
  958MOL0     O29196   3.522   7.655   1.256  0.0706  0.0862  0.3723
  958MOL0     C29197   3.587   7.744   1.308 -0.1897  0.6381  0.0689
  958MOL0     O29198   3.543   7.869   1.353  0.2253  0.0108  0.3500
  958MOL0     C29199   3.409   7.904   1.339 -0.1563  0.1025  1.5349
  958MOL0     C29200   3.344   7.929   1.220  0.2130  0.5154 -0.6474
  958MOL0     C29201   3.208   7.960   1.228  0.0621  0.4977 -0.1018
  958MOL0     C29202   3.144   7.987   1.357  0.0723  0.0419  0.5514
  958MOL0     O29203   3.014   8.033   1.359  0.5003 -0.6967 -0.1703
  958MOL0     C29204   2.934   8.036   1.247 -0.5316 -0.4223 -0.8072
  958MOL0     C29205   2.798   8.084   1.297 -0.6153  1.0722 -0.6380
  958MOL0     C29206   2.739   7.972   1.374 -0.0799  0.5460 -1.0827
  958MOL0     C29207   2.589   8.000   1.396  0.9677  0.0478 -0.1065
  958MOL0     C29208   2.523   7.888   1.470 -1.1077 -0.0516  0.7202
  958MOL0     C29209   2.378   7.924   1.489  1.1648 -0.8009 -0.3477
  958MOL0     C29210   2.300   7.819   1.569  0.0793 -0.5334  0.3719
  958MOL0     C29211   2.149   7.837   1.564 -0.0058  0.0531  0.3389
  958MOL0     N29212   2.109   7.967   1.616 -0.4226 -0.2257 -0.9356
  958MOL0     C29213   2.049   7.984   1.737  0.1785  0.3679  1.0299
  958MOL0     C29214   2.012   8.119   1.746 -0.0907  0.1585  0.0509
  958MOL0     C29215   1.933   8.179   1.855 -0.1917 -0.1726  0.5575
  958MOL0     C29216   1.980   8.315   1.893  0.0693 -0.3461 -0.3967
  958MOL0     C29217   1.919   8.417   1.791  0.4988 -0.0598 -0.1213
  958MOL0     C29218   1.776   8.463   1.823 -0.6318  0.0918  0.3903
  958MOL0     O29219   1.712   8.538   1.720 -0.5333  0.1370  0.5774
  958MOL0     C29220   1.577   8.551   1.718 -0.5105 -0.5857  0.3792
  958MOL0     C29221   1.496   8.513   1.826 -0.7185 -0.3879 -0.4942
  958MOL0     C29222   1.361   8.537   1.818 -0.7473  0.5466  0.5068
  958MOL0     C29223   1.275   8.513   1.946 -0.1349 -0.4095 -1.2622
  958MOL0     C29224   1.302   8.574   1.687  0.0745  0.7335 -0.2987
  958MOL0     C29225   1.156   8.575   1.664  0.3421  0.3385 -0.2858
  958MOL0     O29226   1.102   8.632   1.551  0.2024 -0.0615 -0.4205
  958MOL0     C29227   0.965   8.613   1.527 -0.1161  0.2614 -1.1937
  958MOL0     C29228   0.917   8.495   1.457 -0.2154  0.0782 -1.1266
  958MOL0     C29229   0.785   8.487   1.419 -0.2114  0.6399 -0.0125
  958MOL0     C29230   0.694   8.592   1.459 -0.4357 -0.6264 -0.4828
  958MOL0     O29231   0.558   8.590   1.427 -0.1531 -0.6119 -0.7679
  958MOL0     C29232   0.489   8.481   1.364 -0.0168 -0.0430 -0.2328
  958MOL0     C29233   0.436   8.518   1.229 -0.6889  0.4106  0.1045
  958MOL0     C29234   0.321   8.626   1.240  0.7925  0.0906 -0.3025
  958MOL0     C29235   0.192   8.558   1.292 -0.2751  0.2822  0.3792
  958MOL0     C29236   0.071   8.647   1.257  0.7325 -0.0765 -0.1735
  958MOL0     C29237   0.086   8.801   1.272  0.3507  0.8239  0.2249
  958MOL0     C29238  -0.053   8.873   1.268 -0.3447  0.0508 -0.6423
  958MOL0     C29239  -0.121   8.869   1.140 -1.0270 -0.0205  0.1980
  958MOL0    Cl29240  -0.037   8.965   1.008 -0.3056  0.2749  0.2402
  958MOL0     C29241   0.741   8.702   1.534 -0.2786 -0.4380 -0.1504
  958MOL0     C29242   0.878   8.712   1.569  0.1449  0.3388 -0.3584
  958MOL0     O29243   1.092   8.494   1.736  0.1073 -0.2494  0.0429
  958MOL0     C29244   1.394   8.613   1.584  0.3120  1.2632  0.5141
  958MOL0     C29245   1.531   8.604   1.602 -0.1584 -0.5287 -0.5062
  958MOL0     N29246   2.065   8.184   1.631  0.0891  0.0661 -0.1351
  958MOL0     N29247   2.109   8.087   1.548 -0.2932 -0.6548 -1.1079
  958MOL0     C29248   3.219   7.969   1.471  0.6688 -0.4916 -0.4858
  958MOL0     C29249   3.347   7.918   1.463  0.3172  0.0138 -0.0606
  958MOL0     C29250   3.733   7.717   1.341 -0.3067  0.3528 -0.3987
  958MOL0     C29251   3.796   7.792   1.448  0.0977  0.2861  0.0598
  958MOL0     C29252   3.934   7.800   1.463  0.4943  0.9411  0.4594
  958MOL0     C29253   4.016   7.719   1.381  0.5558 -0.0911 -0.3312
  958MOL0     O29254   4.152   7.709   1.388 -0.1952  0.2966  0.3615
  958MOL0     C29255   4.223   7.774   1.499 -0.3248  0.8502 -0.1336
  958MOL0     C29256   4.370   7.773   1.468 -0.1033 -0.1066  1.5182
  958MOL0     C29257   4.414   7.886   1.368 -0.8907  0.1732  0.7092
  958MOL0     C29258   4.560   7.913   1.363 -0.8652 -0.0283  0.8835
  958MOL0     C29259   4.629   7.794   1.296 -0.0605  1.1262 -0.3267
  958MOL0     C29260   4.697   7.698   1.252 -0.3449 -0.4135 -0.3448
  958MOL0     C29261   3.956   7.630   1.290  0.8852 -1.0225 -0.3796
  958MOL0     C29262   3.815   7.625   1.270 -0.0163 -0.4377  0.4510
  958MOL0     H29263   3.387   7.904   1.124 -1.5879  0.5748 -1.5166
  958MOL0     H29264   3.145   7.962   1.140 -1.9226 -0.6655  1.2157
  958MOL0     H29265   2.972   8.091   1.160 -0.8350 -2.9256 -2.6680
  958MOL0     H29266   2.922   7.933   1.211  1.0575 -0.5952 -0.9178
  958MOL0     H29267   2.793   8.169   1.366 -3.4433 -0.8502  1.8146
  958MOL0     H29268   2.741   8.110   1.208 -0.3504  0.2969 -1.0426
  958MOL0     H29269   2.749   7.880   1.315  2.6131  0.9687 -1.3980
  958MOL0     H29270   2.792   7.958   1.468 -3.2136 -0.9407  0.6257
  958MOL0     H29271   2.574   8.095   1.449  0.7012  0.4836 -0.9363
  958MOL0     H29272   2.533   8.010   1.302  0.2009  0.0005  0.3348
  958MOL0     H29273   2.524   7.790   1.422  1.0005 -0.5040  1.5742
  958MOL0     H29274   2.582   7.868   1.560  1.3948  0.8400 -0.6090
  958MOL0     H29275   2.382   8.021   1.541  2.8896 -0.9448 -0.1295
  958MOL0     H29276   2.332   7.936   1.391  0.5103  0.6182  0.0986
  958MOL0     H29277   2.324   7.721   1.527 -0.3806 -0.5484  0.1328
  958MOL0     H29278   2.334   7.817   1.673  0.4980  0.9107  0.2881
  958MOL0     H29279   2.102   7.762   1.628  0.6685 -0.1975  0.5491
  958MOL0     H29280   2.115   7.818   1.462 -2.7502  0.1668  1.1729
  958MOL0     H29281   2.023   7.908   1.810  0.9631 -0.6936  0.2288
  958MOL0     H29282   1.827   8.182   1.828  0.1659 -2.8552 -1.5877
  958MOL0     H29283   1.946   8.111   1.940 -1.7257  0.0577  0.9985
  958MOL0     H29284   2.089   8.320   1.897  0.0181  1.7457 -0.5945
  958MOL0     H29285   1.937   8.336   1.991 -0.0138 -0.1042 -0.4833
  958MOL0     H29286   1.902   8.368   1.695  0.7684 -1.3327  0.4692
  958MOL0     H29287   1.986   8.503   1.783 -0.2505  0.4713 -0.8293
  958MOL0     H29288   1.768   8.540   1.900 -0.1896  1.2183 -0.6518
  958MOL0     H29289   1.733   8.372   1.866 -2.5210  1.4106  1.4275
  958MOL0     H29290   1.529   8.470   1.920 -1.1814 -2.9321 -1.4148
  958MOL0     H29291   1.231   8.413   1.940 -1.1345  0.0391 -1.6654
  958MOL0     H29292   1.338   8.516   2.035 -1.6728 -3.5573  0.0803
  958MOL0     H29293   1.198   8.590   1.959  2.5784  2.4804 -1.2399
  958MOL0     H29294   0.994   8.425   1.427  0.7253  0.5883 -0.0494
  958MOL0     H29295   0.749   8.406   1.357 -0.7017 -0.0364  1.1258
  958MOL0     H29296   0.555   8.394   1.359 -0.1388 -0.3651  2.3874
  958MOL0     H29297   0.407   8.445   1.427  0.1920 -0.6961 -0.3313
  958MOL0     H29298   0.518   8.555   1.167 -0.4811  1.2892  0.8703
  958MOL0     H29299   0.405   8.429   1.173 -0.9501  0.8934 -0.5284
  958MOL0     H29300   0.308   8.657   1.136  1.9376  0.5307 -0.3240
  958MOL0     H29301   0.338   8.720   1.293  0.1591  0.3765 -0.6024
  958MOL0     H29302   0.185   8.465   1.234  2.5810  1.1298 -1.5649
  958MOL0     H29303   0.201   8.531   1.397  2.7758  2.0773  0.6867
  958MOL0     H29304  -0.010   8.599   1.313  0.8323 -0.2945 -0.2139
  958MOL0     H29305   0.042   8.628   1.153  1.1077  0.8033 -0.4499
  958MOL0     H29306   0.137   8.818   1.367  3.6090  0.2786 -1.3063
  958MOL0     H29307   0.145   8.833   1.186 -0.5520 -2.7081 -1.9165
  958MOL0     H29308  -0.034   8.977   1.293 -1.3253 -0.0077  0.4379
  958MOL0     H29309  -0.119   8.835   1.347  2.3442 -0.4680  1.5121
  958MOL0     H29310  -0.227   8.896   1.153 -0.5693  1.0169  2.3233
  958MOL0     H29311  -0.130   8.766   1.103  2.6213 -1.2024  2.1367
  958MOL0     H29312   0.672   8.782   1.558 -0.0395  0.2441 -1.6409
  958MOL0     H29313   0.914   8.801   1.620 -3.4239  0.7705  1.7509
  958MOL0     H29314   1.365   8.642   1.483 -1.5346 -2.2352 -0.1160
  958MOL0     H29315   1.608   8.635   1.533 -0.1270  0.4391 -0.0610
  958MOL0     H29316   3.172   7.992   1.566  0.6106  1.4501 -0.9546
  958MOL0     H29317   3.406   7.912   1.555  2.3366 -0.1008 -1.2987
  958MOL0     H29318   3.726   7.855   1.503 -0.9815  0.6383 -1.6549
  958MOL0     H29319   3.975   7.865   1.540  1.9113  1.4252 -0.6495
  958MOL0     H29320   4.191   7.876   1.522  2.3509  1.7935 -0.2277
  958MOL0     H29321   4.214   7.715   1.591  3.1651  0.1797 -0.0581
  958MOL0     H29322   4.401   7.676   1.429 -1.5685 -0.3426  0.8946
  958MOL0     H29323   4.426   7.787   1.561  0.3957 -0.9526  1.3601
  958MOL0     H29324   4.363   7.979   1.397 -3.4480 -0.2903 -1.8742
  958MOL0     H29325   4.380   7.864   1.267 -1.8080  1.2311  0.7691
  958MOL0     H29326   4.598   7.936   1.463  0.4305  1.4454  0.0926
  958MOL0     H29327   4.586   7.991   1.291 -0.5741 -1.2530 -0.3836
  958MOL0     H29328   4.741   7.613   1.202 -1.5511 -0.7697 -0.8323
  958MOL0     H29329   4.010   7.566   1.220 -0.2090 -1.5503 -0.7731
  958MOL0     H29330   3.760   7.569   1.195 -2.7176 -0.6577  2.4729
  959MOL0     O29331   0.724   5.264   7.626  0.0561  0.8487 -0.3170
  959MOL0     C29332   0.752   5.382   7.599  0.6894  0.1570  0.0203
  959MOL0     O29333   0.673   5.496   7.626  0.2660  0.0660  0.4410
  959MOL0     C29334   0.549   5.485   7.663  0.6057 -0.8860  0.3966
  959MOL0     C29335   0.489   5.391   7.752  0.0273  0.1481  0.3135
  959MOL0     C29336   0.360   5.415   7.805  0.4030 -0.1567 -0.0805
  959MOL0     C29337   0.288   5.526   7.768  0.2625 -0.3097  0.4117
  959MOL0     O29338   0.166   5.548   7.821 -0.0091 -0.8385 -0.2414
  959MOL0     C29339   0.134   5.676   7.859  0.3949 -0.3420 -0.1594
  959MOL0     C29340   0.049   5.689   7.986  1.4978  0.2471  0.5712
  959MOL0     C29341  -0.070   5.584   7.994 -0.1658 -0.2344  0.4446
  959MOL0     C29342  -0.166   5.575   7.877  0.2607  0.2089 -0.1311
  959MOL0     C29343  -0.282   5.488   7.916  1.2386 -0.7833 -0.4531
  959MOL0     C29344  -0.394   5.507   7.818  0.3640  0.6784 -0.0630
  959MOL0     C29345  -0.510   5.409   7.855 -0.1603 -0.3466  0.2614
  959MOL0     C29346  -0.624   5.430   7.746  0.4247 -0.3467  0.0620
  959MOL0     N29347  -0.690   5.558   7.750 -0.4681  0.2481  0.7498
  959MOL0     C29348  -0.668   5.664   7.672 -0.2193  0.8145 -0.1128
  959MOL0     C29349  -0.758   5.753   7.717  0.0012  0.6822 -0.2289
  959MOL0     C29350  -0.802   5.877   7.644 -0.4714  0.1391 -0.2922
  959MOL0     C29351  -0.823   5.861   7.496 -0.1321  0.7141 -0.5894
  959MOL0     C29352  -0.857   5.990   7.430  0.9593 -0.1652  0.3529
  959MOL0     C29353  -0.857   5.980   7.269  0.2297  0.5123  0.7447
  959MOL0     O29354  -0.958   5.880   7.239  0.4074 -0.2225  0.3163
  959MOL0     C29355  -1.087   5.920   7.227  0.4087  0.3632 -0.0821
  959MOL0     C29356  -1.128   6.048   7.179 -1.0973 -0.0185  0.3313
  959MOL0     C29357  -1.264   6.077   7.187  0.2154 -0.2622  0.4103
  959MOL0     C29358  -1.294   6.218   7.156  0.0497 -0.1942  0.3955
  959MOL0     C29359  -1.364   5.972   7.200  0.5499 -1.0386 -0.2167
  959MOL0     C29360  -1.510   6.002   7.195  0.1401  0.3225 -0.1782
  959MOL0     O29361  -1.558   6.125   7.231 -0.1733  0.1337  0.0955
  959MOL0     C29362  -1.688   6.155   7.245  0.1368  0.4868  0.0061
  959MOL0     C29363  -1.715   6.288   7.242  0.5148  0.5526 -0.0944
  959MOL0     C29364  -1.842   6.351   7.248 -0.5749  0.4065 -0.5239
  959MOL0     C29365  -1.954   6.271   7.276  0.8332  0.5700  0.1952
  959MOL0     O29366  -2.074   6.321   7.295  0.5598 -0.4526 -0.5852
  959MOL0     C29367  -2.087   6.443   7.375  0.9340  0.9801 -0.4939
  959MOL0     C29368  -2.091   6.411   7.524 -0.1230 -0.2675  0.4784
  959MOL0     C29369  -1.964   6.355   7.592 -0.1617 -0.2795  0.2139
  959MOL0     C29370  -1.862   6.463   7.610  0.3090 -0.0681 -0.4252
  959MOL0     C29371  -1.729   6.416   7.660  0.9883  0.2279  0.2177
  959MOL0     C29372  -1.641   6.387   7.542 -0.2462 -0.6876  0.5221
  959MOL0     C29373  -1.499   6.329   7.578 -0.2450 -0.3627 -0.0880
  959MOL0     C29374  -1.495   6.192   7.653 -0.3255  0.4077  0.0348
  959MOL0    Cl29375  -1.589   6.064   7.572 -0.7246 -0.2722 -0.1944
  959MOL0     C29376  -1.932   6.130   7.281  0.2939 -0.1272  0.6051
  959MOL0     C29377  -1.802   6.071   7.256  0.0698  0.5840  0.1180
  959MOL0     O29378  -1.579   5.904   7.170 -0.0558 -0.2548 -0.4908
  959MOL0     C29379  -1.317   5.846   7.220 -0.5304  1.2133  0.0750
  959MOL0     C29380  -1.182   5.820   7.243 -0.5152  0.8042 -0.2690
  959MOL0     N29381  -0.836   5.692   7.817  0.2577 -0.3351  0.0051
  959MOL0     N29382  -0.784   5.581   7.841 -0.4484  0.0330 -0.2848
  959MOL0     C29383   0.345   5.619   7.678  0.1143  0.7287 -0.0148
  959MOL0     C29384   0.480   5.601   7.626 -0.6942  0.5015  0.1224
  959MOL0     C29385   0.868   5.407   7.519  0.8246 -0.0979 -0.3016
  959MOL0     C29386   0.943   5.298   7.461  0.8572 -0.3186  0.6497
  959MOL0     C29387   1.067   5.335   7.401 -0.5816 -1.3775  1.4425
  959MOL0     C29388   1.108   5.470   7.369 -0.1576 -0.3536 -0.5638
  959MOL0     O29389   1.227   5.499   7.312 -1.6589 -0.2663 -0.0631
  959MOL0     C29390   1.247   5.437   7.185 -0.0169 -0.1423 -1.1180
  959MOL0     C29391   1.372   5.477   7.112  0.6511 -0.2433  0.2221
  959MOL0     C29392   1.376   5.638   7.092 -0.0884  0.6899  0.3716
  959MOL0     C29393   1.489   5.684   7.002 -0.0438  0.1714 -0.5829
  959MOL0     C29394   1.479   5.828   7.021  0.3955 -1.0809 -0.2411
  959MOL0     C29395   1.481   5.950   7.038 -0.0901  0.2055 -0.1607
  959MOL0     C29396   1.028   5.570   7.415  0.1017  0.0212 -0.0804
  959MOL0     C29397   0.910   5.540   7.486 -0.0539  0.4031 -0.9114
  959MOL0     H29398   0.538   5.299   7.783  1.7764 -0.0993 -2.7934
  959MOL0     H29399   0.320   5.339   7.871  0.8280  0.3706  0.8122
  959MOL0     H29400   0.221   5.742   7.858 -0.6444  1.0784 -1.1470
  959MOL0     H29401   0.076   5.723   7.778  1.0642 -0.1183 -0.5197
  959MOL0     H29402   0.104   5.691   8.080  2.2671 -0.8895  0.1733
  959MOL0     H29403  -0.004   5.784   7.976  0.2935 -0.2289  2.1672
  959MOL0     H29404  -0.032   5.482   8.009 -1.8940 -0.8627  0.6825
  959MOL0     H29405  -0.127   5.607   8.083 -0.3097 -0.8473  0.5143
  959MOL0     H29406  -0.199   5.670   7.833 -0.4613 -0.4632 -1.0660
  959MOL0     H29407  -0.117   5.518   7.798 -0.9284 -1.0108 -0.0207
  959MOL0     H29408  -0.255   5.384   7.932  0.1654 -0.9754  0.1864
  959MOL0     H29409  -0.312   5.514   8.018 -1.5816  0.0202 -1.4050
  959MOL0     H29410  -0.426   5.611   7.817  1.9796  1.2577 -2.8908
  959MOL0     H29411  -0.363   5.476   7.718 -2.2528 -1.5966 -0.2717
  959MOL0     H29412  -0.484   5.304   7.866 -0.7265 -0.6993 -1.5038
  959MOL0     H29413  -0.558   5.435   7.950 -2.4574 -1.3267 -0.5438
  959MOL0     H29414  -0.699   5.351   7.751  0.3612 -0.5983 -2.9729
  959MOL0     H29415  -0.582   5.408   7.647  1.5570 -0.1155  0.4695
  959MOL0     H29416  -0.617   5.660   7.576 -2.4870 -0.3373 -1.3603
  959MOL0     H29417  -0.892   5.922   7.686 -1.2194 -0.1178 -1.5576
  959MOL0     H29418  -0.722   5.949   7.663 -0.8076  0.0777  1.4912
  959MOL0     H29419  -0.906   5.791   7.480 -1.0057  1.6309 -0.2119
  959MOL0     H29420  -0.730   5.817   7.461  1.5901  3.2230  0.5337
  959MOL0     H29421  -0.790   6.073   7.455  0.8249  0.0984 -0.1393
  959MOL0     H29422  -0.960   6.018   7.456  0.3562 -0.6355 -1.3829
  959MOL0     H29423  -0.759   5.967   7.222 -0.1454  0.6854 -0.1112
  959MOL0     H29424  -0.880   6.074   7.218 -1.3083 -0.6218 -0.7886
  959MOL0     H29425  -1.059   6.130   7.164  0.3942 -1.2966 -0.0030
  959MOL0     H29426  -1.366   6.264   7.225  1.0282 -0.0555  1.3651
  959MOL0     H29427  -1.211   6.290   7.154 -0.5145  0.7642  3.9115
  959MOL0     H29428  -1.359   6.220   7.069 -1.6969  2.6613  1.6131
  959MOL0     H29429  -1.623   6.344   7.228  0.5142  0.8527  1.0000
  959MOL0     H29430  -1.857   6.457   7.228  0.4280  0.5655 -0.4462
  959MOL0     H29431  -2.016   6.524   7.355  0.4937  1.9265  1.5112
  959MOL0     H29432  -2.186   6.476   7.343 -0.7172 -1.8788  1.1910
  959MOL0     H29433  -2.124   6.507   7.564 -0.6266 -0.2923  0.1295
  959MOL0     H29434  -2.164   6.331   7.539  2.0153 -2.5002 -0.2994
  959MOL0     H29435  -1.942   6.265   7.534  2.3340  1.2196 -1.3651
  959MOL0     H29436  -1.993   6.334   7.695  1.5318  3.8479  1.7369
  959MOL0     H29437  -1.858   6.517   7.515 -0.3011  2.6294  0.9850
  959MOL0     H29438  -1.898   6.537   7.683  3.1550  0.6963  0.3168
  959MOL0     H29439  -1.734   6.339   7.737  4.0818  3.2260  3.8749
  959MOL0     H29440  -1.675   6.491   7.720 -1.2402 -0.3842  3.2242
  959MOL0     H29441  -1.692   6.320   7.472 -0.7659  1.0674 -0.8695
  959MOL0     H29442  -1.623   6.484   7.494 -2.1081  0.4743  2.0326
  959MOL0     H29443  -1.441   6.403   7.636 -2.4505  0.4015  1.2957
  959MOL0     H29444  -1.440   6.304   7.490  0.4210 -1.9303  0.7723
  959MOL0     H29445  -1.537   6.200   7.754  0.4654  0.7055  0.3448
  959MOL0     H29446  -1.391   6.159   7.644 -1.6589 -3.7634 -5.0353
  959MOL0     H29447  -2.025   6.076   7.298 -0.3244  0.3229 -1.1287
  959MOL0     H29448  -1.798   5.963   7.260  2.5015  0.6126 -0.1974
  959MOL0     H29449  -1.387   5.766   7.241 -2.3907  2.1789 -2.0847
  959MOL0     H29450  -1.158   5.717   7.269 -0.2910  0.2751 -2.4210
  959MOL0     H29451   0.287   5.701   7.638  0.5458  0.8399 -0.4281
  959MOL0     H29452   0.528   5.684   7.574  0.1716 -1.5127 -2.5115
  959MOL0     H29453   0.910   5.195   7.476 -0.7501  0.3470  2.0673
  959MOL0     H29454   1.140   5.259   7.373 -1.4303 -1.1500 -1.7883
  959MOL0     H29455   1.262   5.331   7.210  0.2949  0.4495  1.4737
  959MOL0     H29456   1.162   5.458   7.120  0.7002  0.0319 -2.0210
  959MOL0     H29457   1.367   5.426   7.016 -0.6098  1.8912 -0.9423
  959MOL0     H29458   1.451   5.437   7.176 -1.2985  0.4770  3.3109
  959MOL0     H29459   1.388   5.674   7.194 -1.4387  2.7816 -0.1396
  959MOL0     H29460   1.279   5.661   7.047 -0.7206  0.5869  1.6612
  959MOL0     H29461   1.461   5.662   6.899 -2.0945  1.1660 -0.3044
  959MOL0     H29462   1.583   5.655   7.049 -0.8632  1.1656  1.8404
  959MOL0     H29463   1.508   6.053   7.050  2.8657 -0.4372 -0.5554
  959MOL0     H29464   1.061   5.672   7.396 -2.0674  0.6668 -0.6751
  959MOL0     H29465   0.855   5.626   7.521  1.8690  1.6911 -0.9296
  960MOL0     O29466   5.261   1.417   2.121 -0.2243  0.0741 -0.2354
  960MOL0     C29467   5.278   1.539   2.141 -0.2619 -0.5439 -0.0725
  960MOL0     O29468   5.179   1.624   2.174  0.0677 -0.2863 -0.3437
  960MOL0     C29469   5.055   1.600   2.129  0.6004 -0.1841  0.3206
  960MOL0     C29470   5.034   1.561   1.995  0.5812  0.0686  0.5928
  960MOL0     C29471   4.898   1.529   1.945 -0.1001  0.6542 -0.2219
  960MOL0     C29472   4.794   1.527   2.038  0.2026  0.4560 -0.3406
  960MOL0     O29473   4.671   1.502   1.989  0.3219  0.2936  0.1698
  960MOL0     C29474   4.567   1.585   2.035 -0.4812 -0.4640  0.6912
  960MOL0     C29475   4.435   1.548   1.972 -0.8491 -0.4941  0.3914
  960MOL0     C29476   4.416   1.606   1.829  0.4634 -0.3083  0.0734
  960MOL0     C29477   4.275   1.567   1.779  1.0658 -0.1067  0.3305
  960MOL0     C29478   4.244   1.620   1.643 -0.0225 -1.4272  0.2483
  960MOL0     C29479   4.105   1.601   1.589  0.2393  0.0330 -0.2723
  960MOL0     C29480   4.056   1.459   1.575 -0.3761 -0.6260  0.2224
  960MOL0     C29481   3.925   1.456   1.486 -0.6466 -0.1424  0.0791
  960MOL0     N29482   3.801   1.401   1.547 -0.1514 -0.8443 -0.0079
  960MOL0     C29483   3.722   1.473   1.629  0.5854 -0.1576  0.1356
  960MOL0     C29484   3.620   1.389   1.663 -0.6919  0.0639 -0.2701
  960MOL0     C29485   3.505   1.419   1.762  0.0106 -0.5479  0.6976
  960MOL0     C29486   3.365   1.403   1.693 -0.2369 -1.1262 -0.0752
  960MOL0     C29487   3.334   1.532   1.610  0.7938  0.2877 -0.2794
  960MOL0     C29488   3.186   1.532   1.579 -0.1333 -0.3962  0.4963
  960MOL0     O29489   3.111   1.569   1.702 -0.3464  0.2521  0.4167
  960MOL0     C29490   2.979   1.541   1.703 -0.5985 -0.0280  0.8705
  960MOL0     C29491   2.918   1.512   1.824 -0.3586  0.0004 -0.3815
  960MOL0     C29492   2.779   1.476   1.833  1.1927 -1.0973  0.5744
  960MOL0     C29493   2.721   1.433   1.966 -0.3420  0.6660 -0.6077
  960MOL0     C29494   2.699   1.487   1.714  0.3612 -0.1579 -0.0559
  960MOL0     C29495   2.552   1.457   1.713 -0.8668  0.3825 -0.9832
  960MOL0     O29496   2.485   1.478   1.829  0.3282 -0.1513 -0.0054
  960MOL0     C29497   2.355   1.449   1.828 -0.0038  0.4548 -0.1089
  960MOL0     C29498   2.256   1.532   1.765 -0.7346  0.2433  0.4813
  960MOL0     C29499   2.122   1.492   1.761  0.0941 -0.8506  0.2777
  960MOL0     C29500   2.080   1.380   1.837  0.4262 -0.3994  0.0864
  960MOL0     O29501   1.943   1.372   1.845 -0.6182  0.1681  0.1089
  960MOL0     C29502   1.885   1.242   1.835  0.0767 -0.0714 -1.0144
  960MOL0     C29503   1.742   1.276   1.797 -1.4921  0.1474 -0.0001
  960MOL0     C29504   1.651   1.156   1.796  0.6248 -0.1640  0.0693
  960MOL0     C29505   1.523   1.177   1.713  0.5265 -0.4109  0.5750
  960MOL0     C29506   1.438   1.053   1.697 -0.4582  0.0340  0.5689
  960MOL0     C29507   1.308   1.076   1.608  1.0289  0.3638 -0.8066
  960MOL0     C29508   1.191   1.150   1.670 -0.2582  0.2299  0.3262
  960MOL0     C29509   1.065   1.093   1.610 -0.1809 -0.8909  0.4078
  960MOL0    Cl29510   1.068   1.116   1.426  0.0496 -0.0947  0.1517
  960MOL0     C29511   2.174   1.308   1.912  0.3625  0.0586  0.5437
  960MOL0     C29512   2.309   1.335   1.897 -0.1989 -0.0946  0.3060
  960MOL0     O29513   2.506   1.421   1.607  0.5115 -0.1235  0.0758
  960MOL0     C29514   2.765   1.509   1.592 -0.2293  0.6090 -0.1576
  960MOL0     C29515   2.898   1.533   1.583  0.1485 -0.7484 -1.5834
  960MOL0     N29516   3.636   1.267   1.594  0.4128  0.6147  0.0103
  960MOL0     N29517   3.745   1.283   1.524 -0.9144 -0.0321  0.9942
  960MOL0     C29518   4.824   1.542   2.173  0.1860 -0.2709 -0.2423
  960MOL0     C29519   4.954   1.579   2.220  0.5077  0.5932 -0.1310
  960MOL0     C29520   5.425   1.587   2.155  0.4940  1.1814  0.4712
  960MOL0     C29521   5.455   1.713   2.205  0.6283  0.0272 -0.7971
  960MOL0     C29522   5.584   1.768   2.205  0.7421 -0.5367 -0.0539
  960MOL0     C29523   5.681   1.686   2.150  0.0702 -0.1141  0.2644
  960MOL0     O29524   5.812   1.741   2.160  0.3553 -0.3510  0.1419
  960MOL0     C29525   5.891   1.687   2.268  0.1117 -0.0151  0.2142
  960MOL0     C29526   5.980   1.799   2.323  0.2007 -0.1009 -0.4329
  960MOL0     C29527   6.066   1.873   2.220  0.6315  0.9035  0.1327
  960MOL0     C29528   6.153   1.765   2.146  0.9105 -0.7302 -0.5129
  960MOL0     C29529   6.217   1.825   2.029  0.5630 -0.0705  0.6053
  960MOL0     C29530   6.266   1.875   1.929 -0.5116 -0.4117 -0.3656
  960MOL0     C29531   5.661   1.552   2.125 -0.9491  0.8869 -0.3309
  960MOL0     C29532   5.535   1.507   2.114  0.5867 -1.1219  0.0349
  960MOL0     H29533   5.122   1.562   1.931  2.5158 -2.2423  2.9792
  960MOL0     H29534   4.872   1.499   1.844  1.1682  1.5313 -0.8256
  960MOL0     H29535   4.548   1.566   2.141 -1.9074  1.6858  0.8763
  960MOL0     H29536   4.594   1.691   2.028  0.0632 -0.7240 -3.7562
  960MOL0     H29537   4.426   1.440   1.965 -0.8968 -0.3882 -1.9963
  960MOL0     H29538   4.347   1.584   2.026 -1.6468 -1.3868 -0.2948
  960MOL0     H29539   4.426   1.715   1.840 -1.3117  0.0299 -1.2348
  960MOL0     H29540   4.488   1.556   1.764  1.9320  2.5002 -0.6424
  960MOL0     H29541   4.278   1.459   1.761  0.0402  0.1173 -1.3688
  960MOL0     H29542   4.199   1.595   1.852  0.3594 -1.5547  0.1839
  960MOL0     H29543   4.267   1.727   1.650 -1.2861 -0.9834 -1.5380
  960MOL0     H29544   4.310   1.579   1.566 -1.8282 -3.2946 -0.3784
  960MOL0     H29545   4.041   1.655   1.659 -0.0685  0.1385 -0.6254
  960MOL0     H29546   4.098   1.659   1.496  1.3205  0.9950  0.2201
  960MOL0     H29547   4.133   1.392   1.534  0.3315 -0.5473  1.3954
  960MOL0     H29548   4.041   1.427   1.678  0.4587  1.4302  1.0329
  960MOL0     H29549   3.939   1.396   1.395  0.8656  1.0470 -0.5110
  960MOL0     H29550   3.901   1.557   1.450 -2.2612 -0.9512 -1.2519
  960MOL0     H29551   3.732   1.577   1.658 -2.0976  0.7081 -1.5566
  960MOL0     H29552   3.510   1.360   1.854 -1.3155  0.7663  1.6474
  960MOL0     H29553   3.505   1.519   1.807 -4.2189 -0.3106  0.6239
  960MOL0     H29554   3.286   1.384   1.767 -2.3222 -0.3337 -1.9925
  960MOL0     H29555   3.359   1.316   1.628 -0.5443 -0.4712 -0.9347
  960MOL0     H29556   3.394   1.516   1.520  3.2824 -0.0572  1.3601
  960MOL0     H29557   3.368   1.617   1.669  1.2995 -2.9899  4.8119
  960MOL0     H29558   3.170   1.437   1.529  0.0204  1.3264 -3.1046
  960MOL0     H29559   3.175   1.603   1.497  2.1556 -0.6010 -0.0417
  960MOL0     H29560   2.982   1.521   1.911 -2.0217 -2.0473  1.1883
  960MOL0     H29561   2.797   1.414   2.042 -0.0253  1.2998 -0.7608
  960MOL0     H29562   2.663   1.515   2.011 -1.0177  0.0825 -0.3787
  960MOL0     H29563   2.649   1.350   1.962 -0.0644  0.4721 -3.0919
  960MOL0     H29564   2.281   1.623   1.713 -3.9664  0.8115 -0.3236
  960MOL0     H29565   2.052   1.547   1.700  1.8032  1.6393  0.3996
  960MOL0     H29566   1.929   1.175   1.760 -0.2431 -0.4546 -0.8630
  960MOL0     H29567   1.887   1.197   1.934 -2.5091  0.4772 -0.6353
  960MOL0     H29568   1.697   1.351   1.862  0.3399 -0.6557  2.3227
  960MOL0     H29569   1.747   1.329   1.701 -2.1130  0.1848 -0.0139
  960MOL0     H29570   1.625   1.123   1.897  1.7766  2.8272  1.4691
  960MOL0     H29571   1.708   1.080   1.741  1.9400 -1.6506  3.2379
  960MOL0     H29572   1.459   1.261   1.743 -0.7590 -0.7385 -1.1160
  960MOL0     H29573   1.543   1.207   1.610  1.1689 -2.5526  0.0397
  960MOL0     H29574   1.420   1.007   1.795  1.1718  0.1459  0.9650
  960MOL0     H29575   1.503   0.978   1.650 -0.9867 -0.9943  1.4199
  960MOL0     H29576   1.336   1.114   1.509  2.5830  1.1559 -0.0998
  960MOL0     H29577   1.279   0.973   1.586  0.5204  0.3054  0.0773
  960MOL0     H29578   1.188   1.258   1.655  0.1330  0.4186  1.4863
  960MOL0     H29579   1.177   1.126   1.776  1.2223 -1.7029  0.1426
  960MOL0     H29580   0.976   1.143   1.649 -1.0134  0.9182 -3.2856
  960MOL0     H29581   1.053   0.985   1.623 -0.1374 -0.7363  1.8643
  960MOL0     H29582   2.140   1.230   1.979  1.1496  0.4273  1.3942
  960MOL0     H29583   2.395   1.282   1.938  1.4240 -0.0968 -2.7852
  960MOL0     H29584   2.710   1.517   1.499  2.1140  0.8117 -1.6064
  960MOL0     H29585   2.957   1.565   1.498  1.5484 -2.3923 -1.2960
  960MOL0     H29586   4.735   1.536   2.235  1.0146  0.1560  1.0367
  960MOL0     H29587   4.957   1.592   2.328 -3.9595  1.0999  0.1441
  960MOL0     H29588   5.364   1.759   2.241  0.9221 -0.1995  0.2585
  960MOL0     H29589   5.598   1.870   2.240 -1.1201  0.1699 -1.2188
  960MOL0     H29590   5.826   1.656   2.350  0.0248  0.5721  0.3706
  960MOL0     H29591   5.953   1.601   2.242 -0.0121  0.2856 -1.1955
  960MOL0     H29592   6.045   1.764   2.404 -0.1943 -0.1698 -0.1407
  960MOL0     H29593   5.918   1.879   2.365  0.7257  0.3341 -0.4728
  960MOL0     H29594   6.114   1.948   2.283 -2.0399 -0.1973  3.8024
  960MOL0     H29595   5.992   1.922   2.156 -1.4771 -2.1888 -0.0207
  960MOL0     H29596   6.099   1.679   2.104  0.2877  0.4078 -2.1647
  960MOL0     H29597   6.222   1.738   2.226 -0.2668  0.7718  1.0968
  960MOL0     H29598   6.306   1.923   1.842 -1.9381 -0.7246 -1.2143
  960MOL0     H29599   5.740   1.484   2.094 -2.1449 -0.2844 -0.8824
  960MOL0     H29600   5.517   1.404   2.083 -1.4245 -1.0888  0.9413
  961MOL0     O29601   0.952   4.575   7.173 -0.1879 -0.7700  0.1147
  961MOL0     C29602   0.976   4.469   7.224 -0.4302  0.3780  0.2870
  961MOL0     O29603   0.897   4.393   7.301  0.2007  0.1587  0.2736
  961MOL0     C29604   0.763   4.415   7.304 -0.2977 -0.1621 -0.2193
  961MOL0     C29605   0.699   4.473   7.413 -0.4530 -0.5762 -0.6311
  961MOL0     C29606   0.556   4.478   7.413 -0.2207 -0.8331 -0.3789
  961MOL0     C29607   0.479   4.429   7.307  0.2533 -0.2415 -0.0291
  961MOL0     O29608   0.339   4.442   7.327  0.0775  0.3074 -0.0128
  961MOL0     C29609   0.249   4.347   7.267 -0.6699 -1.5675 -0.2954
  961MOL0     C29610   0.121   4.362   7.352 -0.8392 -0.2897 -0.1931
  961MOL0     C29611   0.034   4.244   7.326 -0.2928 -0.7042 -0.2547
  961MOL0     C29612  -0.044   4.268   7.189 -0.3657 -0.1673 -1.0773
  961MOL0     C29613  -0.178   4.193   7.189  0.0722 -0.1080  0.1906
  961MOL0     C29614  -0.280   4.243   7.082  0.7030  0.6741 -0.3046
  961MOL0     C29615  -0.386   4.135   7.054  0.6597 -0.4665 -0.0591
  961MOL0     C29616  -0.457   4.188   6.924 -0.4074  0.7208  0.3565
  961MOL0     N29617  -0.552   4.088   6.880  0.4079  0.7081  0.2625
  961MOL0     C29618  -0.575   4.074   6.746 -0.0568  0.0676  0.0054
  961MOL0     C29619  -0.687   4.007   6.730  0.5039 -0.2100 -0.4618
  961MOL0     C29620  -0.749   3.995   6.599 -0.0672  0.3358 -0.2463
  961MOL0     C29621  -0.875   3.920   6.594  0.4611  0.0913 -0.2523
  961MOL0     C29622  -0.994   4.004   6.651 -0.3660  0.3918  0.6701
  961MOL0     C29623  -1.130   3.948   6.593 -0.0724  0.0494 -0.8777
  961MOL0     O29624  -1.217   4.060   6.586 -0.0116  0.5436 -0.3178
  961MOL0     C29625  -1.348   4.029   6.558 -0.0625  0.0012 -0.1401
  961MOL0     C29626  -1.405   3.906   6.504 -0.3760  0.0898 -0.4111
  961MOL0     C29627  -1.544   3.886   6.470 -0.3070  0.1395 -0.2046
  961MOL0     C29628  -1.576   3.753   6.404 -0.4069  0.5509  0.8079
  961MOL0     C29629  -1.632   3.989   6.506  0.2411 -0.9939 -0.1659
  961MOL0     C29630  -1.780   3.985   6.477  0.1839 -0.2279  0.2571
  961MOL0     O29631  -1.822   3.888   6.392  0.2935  0.7711  0.1965
  961MOL0     C29632  -1.953   3.894   6.348 -0.5448 -0.1526 -0.8118
  961MOL0     C29633  -2.017   3.993   6.280 -0.2053  0.5128  0.2910
  961MOL0     C29634  -2.145   3.972   6.227 -0.6424  0.0883 -0.8012
  961MOL0     C29635  -2.219   3.856   6.245  0.1790 -0.7045 -0.2008
  961MOL0     O29636  -2.344   3.848   6.186 -0.0330  0.9238  0.6450
  961MOL0     C29637  -2.415   3.725   6.218 -0.5651 -0.1510 -0.1101
  961MOL0     C29638  -2.543   3.722   6.133 -0.2607 -0.2540  0.1835
  961MOL0     C29639  -2.517   3.708   5.989  0.2852  0.9047 -0.1125
  961MOL0     C29640  -2.654   3.704   5.905 -0.7497 -0.0328  0.6773
  961MOL0     C29641  -2.628   3.658   5.757  0.1672 -0.1982 -0.8458
  961MOL0     C29642  -2.767   3.638   5.691 -0.4851  0.8342 -0.1126
  961MOL0     C29643  -2.764   3.626   5.537  0.3011 -0.0014 -0.5626
  961MOL0     C29644  -2.892   3.564   5.482  0.3033  1.4747 -0.6460
  961MOL0    Cl29645  -2.906   3.382   5.527  0.2695  0.3066  0.0735
  961MOL0     C29646  -2.151   3.758   6.325  0.5068 -0.8133 -0.1359
  961MOL0     C29647  -2.025   3.784   6.378  0.0004  0.5297 -0.3678
  961MOL0     O29648  -1.847   4.084   6.513 -0.2221  0.3019 -0.2661
  961MOL0     C29649  -1.577   4.108   6.559  1.0293  0.0221  0.0207
  961MOL0     C29650  -1.446   4.132   6.575  0.1072  0.2479 -0.0445
  961MOL0     N29651  -0.737   3.980   6.858 -0.1484  0.4738 -0.1839
  961MOL0     N29652  -0.653   4.026   6.947  0.3025  0.6119 -0.9410
  961MOL0     C29653   0.546   4.376   7.200  0.7624  0.0483 -0.0916
  961MOL0     C29654   0.684   4.372   7.195  0.0180 -0.2397  0.5004
  961MOL0     C29655   1.108   4.409   7.184  0.3829  0.3232  0.5999
  961MOL0     C29656   1.181   4.452   7.070 -0.6883  0.9988 -0.2766
  961MOL0     C29657   1.314   4.406   7.053  0.2779 -0.5879 -0.3577
  961MOL0     C29658   1.374   4.317   7.141  0.8908  0.0059  0.0472
  961MOL0     O29659   1.503   4.280   7.130 -0.9592  0.7163  0.5117
  961MOL0     C29660   1.522   4.192   7.019 -0.1185 -0.2044  0.1913
  961MOL0     C29661   1.660   4.217   6.961 -0.1957 -0.5158  0.0586
  961MOL0     C29662   1.697   4.367   6.937 -0.0544 -0.2665  0.2828
  961MOL0     C29663   1.849   4.385   6.920  0.5270 -0.1127 -0.6829
  961MOL0     C29664   1.891   4.523   6.910 -0.3907 -0.9174 -0.5829
  961MOL0     C29665   1.939   4.636   6.909 -1.1569 -0.3330  0.0881
  961MOL0     C29666   1.297   4.260   7.247 -0.0060  0.0546 -0.4884
  961MOL0     C29667   1.162   4.302   7.260  0.3797 -0.8968 -0.7023
  961MOL0     H29668   0.757   4.508   7.498  0.5560 -1.1855 -1.0460
  961MOL0     H29669   0.509   4.523   7.500 -0.2352  0.6340 -1.1192
  961MOL0     H29670   0.234   4.379   7.163  1.3554 -1.0497 -0.4633
  961MOL0     H29671   0.285   4.244   7.277 -2.4847 -2.3634 -1.3076
  961MOL0     H29672   0.156   4.356   7.456  0.3576  1.4876 -0.4602
  961MOL0     H29673   0.067   4.454   7.330  0.1182 -0.0174 -1.5162
  961MOL0     H29674   0.089   4.149   7.326  1.1819  0.0794  1.6909
  961MOL0     H29675  -0.033   4.235   7.411  0.6731 -0.6071  0.5318
  961MOL0     H29676  -0.063   4.375   7.179  1.8317  0.4138  0.1822
  961MOL0     H29677   0.015   4.231   7.105  1.3832 -1.4832  0.6096
  961MOL0     H29678  -0.163   4.088   7.160 -3.6173 -0.4730 -0.8483
  961MOL0     H29679  -0.236   4.202   7.280 -0.3809 -0.1181 -0.0946
  961MOL0     H29680  -0.329   4.334   7.118 -0.4250  0.4838 -1.3054
  961MOL0     H29681  -0.226   4.274   6.993  1.9791 -2.5764 -0.8046
  961MOL0     H29682  -0.344   4.035   7.042  1.5697  0.0678 -1.7633
  961MOL0     H29683  -0.449   4.135   7.143  2.3609  1.7961  1.2617
  961MOL0     H29684  -0.383   4.206   6.846  0.5814 -1.1094  0.8056
  961MOL0     H29685  -0.516   4.278   6.945 -3.7861 -0.7778 -1.8619
  961MOL0     H29686  -0.519   4.120   6.665 -1.1584 -0.6003 -1.1726
  961MOL0     H29687  -0.759   4.096   6.558  2.9001  1.5604  1.6304
  961MOL0     H29688  -0.671   3.939   6.547 -0.1098  1.2312 -1.3119
  961MOL0     H29689  -0.881   3.823   6.644 -1.8313  0.4462  0.2801
  961MOL0     H29690  -0.906   3.908   6.490 -1.8491  3.0989 -0.0530
  961MOL0     H29691  -0.984   4.106   6.613 -0.1007 -0.1575 -0.7986
  961MOL0     H29692  -1.001   4.025   6.758 -1.0235  1.0314  0.5104
  961MOL0     H29693  -1.170   3.875   6.665 -0.0520  0.3848 -0.5241
  961MOL0     H29694  -1.112   3.891   6.501  3.3994 -0.5571  0.0400
  961MOL0     H29695  -1.334   3.826   6.487 -1.8311 -1.4087  0.3124
  961MOL0     H29696  -1.598   3.770   6.298  1.1711 -1.8549 -0.0008
  961MOL0     H29697  -1.491   3.684   6.401 -2.0515 -1.5679 -1.2094
  961MOL0     H29698  -1.653   3.691   6.451 -1.7693  0.5607 -1.2696
  961MOL0     H29699  -1.957   4.081   6.260  0.2885  0.1594  0.2132
  961MOL0     H29700  -2.182   4.062   6.179  0.7212  1.1774  0.1331
  961MOL0     H29701  -2.350   3.640   6.196  1.6882  1.3449  0.3871
  961MOL0     H29702  -2.431   3.713   6.326 -0.6181 -1.1526 -0.2148
  961MOL0     H29703  -2.597   3.631   6.160  1.4189 -1.8316 -1.5106
  961MOL0     H29704  -2.593   3.816   6.157 -3.9320 -1.1823 -2.7649
  961MOL0     H29705  -2.450   3.623   5.971  0.7941  0.9416  1.4152
  961MOL0     H29706  -2.477   3.800   5.946  0.6638  1.4324  1.3265
  961MOL0     H29707  -2.719   3.627   5.948 -0.4278 -0.7199 -0.0299
  961MOL0     H29708  -2.689   3.807   5.908 -0.4932  0.2159 -1.9908
  961MOL0     H29709  -2.567   3.569   5.740 -3.3236 -2.7802 -0.9677
  961MOL0     H29710  -2.580   3.738   5.700  4.6896 -2.5288 -0.8175
  961MOL0     H29711  -2.810   3.543   5.721 -1.8940  1.1177 -1.1112
  961MOL0     H29712  -2.829   3.721   5.726 -1.3075  0.3486 -0.3887
  961MOL0     H29713  -2.679   3.578   5.489  2.5870  1.7579  1.4696
  961MOL0     H29714  -2.761   3.732   5.510 -0.4088  0.6666  1.7757
  961MOL0     H29715  -2.899   3.572   5.373  3.6343 -1.9914 -1.3422
  961MOL0     H29716  -2.987   3.597   5.525  0.0954 -1.8659  1.8561
  961MOL0     H29717  -2.185   3.656   6.343 -0.7726 -0.5282 -0.8052
  961MOL0     H29718  -1.974   3.702   6.429 -1.2162  0.1708  0.3217
  961MOL0     H29719  -1.640   4.195   6.575  2.5306  1.4939 -1.6011
  961MOL0     H29720  -1.411   4.234   6.591 -1.5996  1.0183 -0.9533
  961MOL0     H29721   0.492   4.327   7.121  0.2687  0.4771 -0.0241
  961MOL0     H29722   0.744   4.335   7.113  2.7836  3.5838  0.5316
  961MOL0     H29723   1.147   4.534   7.008  0.4348  0.2193 -1.9902
  961MOL0     H29724   1.375   4.459   6.980 -1.0497  3.0439  0.9510
  961MOL0     H29725   1.524   4.091   7.061  3.3044 -1.2063 -1.8837
  961MOL0     H29726   1.444   4.201   6.943  1.0548 -0.7105 -1.1482
  961MOL0     H29727   1.660   4.152   6.874 -0.9439 -0.4593  0.0063
  961MOL0     H29728   1.729   4.177   7.037  0.0646 -0.4047 -0.1194
  961MOL0     H29729   1.658   4.426   7.020  0.6036  0.5723  0.0003
  961MOL0     H29730   1.656   4.410   6.845  2.0501 -0.1202 -0.6517
  961MOL0     H29731   1.886   4.325   6.837  2.3387  0.1444 -0.1111
  961MOL0     H29732   1.888   4.344   7.014 -0.6236  2.7986  1.2004
  961MOL0     H29733   1.980   4.735   6.917  0.6795 -0.9515 -1.0797
  961MOL0     H29734   1.343   4.181   7.306  0.9728  0.5130 -0.6201
  961MOL0     H29735   1.102   4.257   7.339  1.2571  2.2840  2.0122
  962MOL0     O29736   2.179   4.513   8.507  0.3652  0.0381 -0.1810
  962MOL0     C29737   2.188   4.624   8.456 -0.7122  1.1331 -0.0364
  962MOL0     O29738   2.092   4.685   8.395  0.3602 -0.3123 -0.2843
  962MOL0     C29739   1.960   4.637   8.406  0.1206  0.0859 -0.6094
  962MOL0     C29740   1.872   4.687   8.496  0.5707 -0.5435  0.1994
  962MOL0     C29741   1.741   4.637   8.509  1.2565 -0.4838  0.0217
  962MOL0     C29742   1.699   4.530   8.425  0.4771  0.3968 -0.2245
  962MOL0     O29743   1.571   4.473   8.429 -0.1432 -0.1673  0.1257
  962MOL0     C29744   1.474   4.531   8.519 -0.7194  0.0171  0.4443
  962MOL0     C29745   1.356   4.432   8.513  0.0909 -0.7496  0.0475
  962MOL0     C29746   1.232   4.500   8.574  0.1981 -0.2201  0.2007
  962MOL0     C29747   1.264   4.556   8.717  0.2336 -0.1669 -0.2312
  962MOL0     C29748   1.137   4.585   8.799 -0.0648  1.0940 -0.5847
  962MOL0     C29749   1.052   4.689   8.728  0.4198 -0.1618  0.5311
  962MOL0     C29750   0.925   4.710   8.802 -0.2337  0.1014 -0.5393
  962MOL0     C29751   0.791   4.648   8.747  0.4246 -0.5425  0.0134
  962MOL0     N29752   0.670   4.697   8.808  0.5505  0.2469 -1.0157
  962MOL0     C29753   0.574   4.624   8.868 -0.2483 -0.7878 -0.0084
  962MOL0     C29754   0.475   4.711   8.896 -0.2794  0.1004 -0.7987
  962MOL0     C29755   0.342   4.672   8.958 -0.1611 -0.1249  1.1182
  962MOL0     C29756   0.318   4.721   9.096  0.2035  0.4010 -0.3663
  962MOL0     C29757   0.165   4.727   9.124 -0.1038 -1.1147  0.2334
  962MOL0     C29758   0.144   4.816   9.249  0.3415  0.3897  0.5117
  962MOL0     O29759   0.005   4.816   9.272 -0.1205 -0.1751  0.2961
  962MOL0     C29760  -0.054   4.914   9.348  0.1626  0.9580  0.1858
  962MOL0     C29761   0.005   5.006   9.425  0.0438  0.1533  0.4975
  962MOL0     C29762  -0.071   5.101   9.499  0.1439 -0.1142 -0.9353
  962MOL0     C29763   0.017   5.193   9.588 -0.5863 -0.5869  0.0179
  962MOL0     C29764  -0.212   5.108   9.482  0.8470 -1.2299 -0.5916
  962MOL0     C29765  -0.307   5.201   9.551 -0.1996 -0.4538 -0.6209
  962MOL0     O29766  -0.444   5.211   9.493  0.0472  0.1219 -0.5281
  962MOL0     C29767  -0.515   5.324   9.543 -0.0876  0.2366  0.0722
  962MOL0     C29768  -0.633   5.296   9.611  1.2812 -0.4909  0.5099
  962MOL0     C29769  -0.709   5.405   9.662  0.2216 -0.0836  0.2580
  962MOL0     C29770  -0.677   5.540   9.634  0.0511  0.0152 -0.4644
  962MOL0     O29771  -0.761   5.636   9.692 -0.6448  0.6303  0.2883
  962MOL0     C29772  -0.754   5.771   9.654 -0.0333  0.3777  0.1127
  962MOL0     C29773  -0.864   5.834   9.743  0.4449  0.0379  0.2480
  962MOL0     C29774  -1.009   5.802   9.697  0.6155  0.4590  0.7515
  962MOL0     C29775  -1.106   5.895   9.768  0.5405 -0.1783  0.2661
  962MOL0     C29776  -1.255   5.860   9.748 -0.1866 -0.2367 -0.7503
  962MOL0     C29777  -1.316   5.868   9.611 -1.3495  0.6672 -0.1008
  962MOL0     C29778  -1.305   6.014   9.565  0.7763 -0.0486  0.2843
  962MOL0     C29779  -1.374   6.054   9.438  1.3035 -0.1127  0.4314
  962MOL0    Cl29780  -1.346   6.241   9.418 -0.1404 -0.0286  0.1446
  962MOL0     C29781  -0.549   5.563   9.587  1.3073 -0.5099  0.8266
  962MOL0     C29782  -0.474   5.456   9.535  0.0847  0.1331 -0.3453
  962MOL0     O29783  -0.264   5.262   9.647 -0.0964 -0.0264  0.0864
  962MOL0     C29784  -0.272   5.014   9.399 -0.0729 -0.0031  0.0850
  962MOL0     C29785  -0.193   4.925   9.329 -0.7055  0.3606  0.1696
  962MOL0     N29786   0.525   4.845   8.871 -0.1117  0.2916 -0.3613
  962MOL0     N29787   0.650   4.829   8.828 -0.3484 -0.1922 -0.4019
  962MOL0     C29788   1.779   4.485   8.322 -0.1884 -0.2386 -0.0026
  962MOL0     C29789   1.911   4.538   8.318 -0.4869  0.1391  0.3651
  962MOL0     C29790   2.320   4.689   8.440 -0.3603  0.3572 -0.0987
  962MOL0     C29791   2.329   4.828   8.435 -0.2355 -0.3881 -0.3848
  962MOL0     C29792   2.458   4.891   8.426 -0.2529  0.1129  0.0273
  962MOL0     C29793   2.580   4.815   8.434  0.3583 -0.6101 -0.0610
  962MOL0     O29794   2.702   4.876   8.427  0.1170  0.2330 -0.1573
  962MOL0     C29795   2.719   4.939   8.299  0.2458  0.9914  0.9332
  962MOL0     C29796   2.870   4.954   8.253 -0.0511  0.2180 -0.4370
  962MOL0     C29797   2.932   4.815   8.261  0.8803 -0.2671  0.0444
  962MOL0     C29798   3.077   4.811   8.221 -0.3047  0.5077 -0.3822
  962MOL0     C29799   3.163   4.874   8.317 -0.4040 -0.5515  0.4047
  962MOL0     C29800   3.225   4.942   8.403  0.2975  0.8627  0.2570
  962MOL0     C29801   2.571   4.677   8.418  0.6358 -0.3641  0.0235
  962MOL0     C29802   2.442   4.616   8.432  0.6310 -0.0403  0.1409
  962MOL0     H29803   1.899   4.773   8.557  1.7307 -0.9020  0.2137
  962MOL0     H29804   1.673   4.695   8.571  1.1198 -0.1345 -0.4513
  962MOL0     H29805   1.515   4.527   8.620  1.9241 -0.5720 -0.5850
  962MOL0     H29806   1.440   4.627   8.477  1.3200  0.6598  0.1773
  962MOL0     H29807   1.332   4.405   8.410  2.6806 -1.6748 -0.3969
  962MOL0     H29808   1.390   4.344   8.569  1.2290  1.1887  2.6261
  962MOL0     H29809   1.210   4.586   8.510  2.0533  1.0048  1.0978
  962MOL0     H29810   1.147   4.432   8.570 -2.1277  2.1758  3.2873
  962MOL0     H29811   1.321   4.485   8.776 -2.6560 -2.1818  0.2917
  962MOL0     H29812   1.329   4.643   8.701  3.6765 -2.6453 -0.8370
  962MOL0     H29813   1.076   4.497   8.818  2.1817 -0.0137  2.3776
  962MOL0     H29814   1.166   4.615   8.901 -1.7486 -4.0277  1.7414
  962MOL0     H29815   1.103   4.785   8.716 -0.7986  0.3373 -0.9838
  962MOL0     H29816   1.021   4.656   8.629 -1.8091  1.7594  0.4893
  962MOL0     H29817   0.937   4.679   8.906 -0.8267  1.4585 -0.0332
  962MOL0     H29818   0.912   4.819   8.805 -0.3451  0.1318 -1.5324
  962MOL0     H29819   0.792   4.540   8.763 -1.3850 -0.7571 -0.9924
  962MOL0     H29820   0.784   4.676   8.641  0.4210  2.8112  0.7968
  962MOL0     H29821   0.580   4.516   8.883 -0.4870 -0.5136  2.5580
  962MOL0     H29822   0.267   4.714   8.889  0.1318 -0.6793  0.4447
  962MOL0     H29823   0.340   4.562   8.958  2.7769 -0.4285 -3.0032
  962MOL0     H29824   0.365   4.816   9.122  2.1208 -1.0137  1.6557
  962MOL0     H29825   0.370   4.655   9.165  2.8669  0.9267 -1.7173
  962MOL0     H29826   0.129   4.628   9.156  3.0275 -2.8068 -1.0154
  962MOL0     H29827   0.111   4.768   9.038  1.0792  0.3119  0.1277
  962MOL0     H29828   0.183   4.917   9.233 -0.4584  0.3801 -1.9703
  962MOL0     H29829   0.192   4.770   9.336 -2.8949  1.2770  2.9869
  962MOL0     H29830   0.108   4.988   9.453 -0.5195 -1.3431  1.7253
  962MOL0     H29831   0.041   5.280   9.527  1.5020 -0.8354  0.4032
  962MOL0     H29832  -0.037   5.226   9.678  1.0691 -0.8441  1.1670
  962MOL0     H29833   0.110   5.158   9.635 -1.3828 -0.8444  1.4654
  962MOL0     H29834  -0.661   5.192   9.621 -2.6567  0.3107 -0.7280
  962MOL0     H29835  -0.800   5.386   9.717 -0.3445  0.3634 -0.5039
  962MOL0     H29836  -0.658   5.812   9.687  0.8822  0.3168 -2.3116
  962MOL0     H29837  -0.778   5.788   9.549 -0.0820 -0.1101  0.0449
  962MOL0     H29838  -0.847   5.798   9.845 -0.1649 -3.4448 -0.7527
  962MOL0     H29839  -0.846   5.942   9.739 -2.6380  0.6530  0.5588
  962MOL0     H29840  -1.036   5.699   9.723 -0.5867  1.1015  2.1835
  962MOL0     H29841  -1.021   5.812   9.589  0.7464  2.3443  0.8862
  962MOL0     H29842  -1.084   5.886   9.875  2.4720  3.7704  0.3560
  962MOL0     H29843  -1.083   5.997   9.735 -0.5861 -0.2535 -0.8230
  962MOL0     H29844  -1.319   5.924   9.809  0.1971 -0.1810 -0.4024
  962MOL0     H29845  -1.261   5.755   9.779  1.8322 -0.4572 -0.9784
  962MOL0     H29846  -1.259   5.806   9.541  1.7847  0.2945  2.5050
  962MOL0     H29847  -1.421   5.838   9.610 -1.5625  1.3360  0.7345
  962MOL0     H29848  -1.201   6.047   9.557  0.3286  0.9690 -2.8559
  962MOL0     H29849  -1.353   6.076   9.642 -1.7481 -0.3145 -0.9806
  962MOL0     H29850  -1.478   6.023   9.448  0.5037  2.3637  0.4380
  962MOL0     H29851  -1.314   6.006   9.360  1.1514 -0.3410  0.4541
  962MOL0     H29852  -0.513   5.659   9.553  3.2706 -1.8025 -1.0404
  962MOL0     H29853  -0.382   5.466   9.479 -0.1101 -0.6120 -0.8164
  962MOL0     H29854  -0.377   5.016   9.373 -0.1166 -0.8985  0.1346
  962MOL0     H29855  -0.228   4.854   9.255  1.0576 -0.9016  0.4845
  962MOL0     H29856   1.752   4.394   8.268 -2.5491  0.5992 -0.3823
  962MOL0     H29857   1.988   4.487   8.260 -0.7677 -3.0874  2.5541
  962MOL0     H29858   2.247   4.897   8.421  0.3580  0.5630  0.7010
  962MOL0     H29859   2.460   5.000   8.419  0.8154  0.1790  1.0735
  962MOL0     H29860   2.680   4.883   8.213  1.9491  2.1765 -0.6984
  962MOL0     H29861   2.673   5.038   8.303  0.0246  0.9879 -0.7343
  962MOL0     H29862   2.923   5.023   8.319  2.2002 -2.6638  0.9703
  962MOL0     H29863   2.866   4.987   8.148 -1.3084  1.0197 -0.1672
  962MOL0     H29864   2.882   4.746   8.193  2.3446 -2.7689  1.3427
  962MOL0     H29865   2.909   4.767   8.357  0.5301  0.8598  0.5390
  962MOL0     H29866   3.091   4.861   8.125  0.3020  2.7210  0.7976
  962MOL0     H29867   3.111   4.708   8.202  0.5476  1.0502 -2.0157
  962MOL0     H29868   3.292   4.984   8.475  0.9394 -2.1688  1.5748
  962MOL0     H29869   2.657   4.612   8.404 -0.6247 -1.8246 -1.3096
  962MOL0     H29870   2.428   4.509   8.435 -1.2806  0.1236 -0.9057
  963MOL0     O29871   9.085   3.897   0.609  0.1692 -0.1636 -0.1863
  963MOL0     C29872   9.101   3.798   0.547 -0.3496  0.2373  0.7465
  963MOL0     O29873   8.999   3.719   0.495  0.1704 -0.5229 -0.1413
  963MOL0     C29874   8.874   3.766   0.516  0.1812 -0.5973 -0.0447
  963MOL0     C29875   8.819   3.833   0.408 -0.3800 -0.2936 -0.6475
  963MOL0     C29876   8.698   3.898   0.410  1.0629 -0.3133  0.8677
  963MOL0     C29877   8.616   3.891   0.517  0.4361  0.2004  0.3247
  963MOL0     O29878   8.495   3.954   0.528  0.1187 -0.8882 -0.5190
  963MOL0     C29879   8.421   3.979   0.408 -0.8704 -0.9133 -0.1983
  963MOL0     C29880   8.287   4.015   0.455 -1.0196 -0.0448 -0.4338
  963MOL0     C29881   8.177   4.007   0.344  0.0150  0.3326 -0.0628
  963MOL0     C29882   8.038   4.001   0.405  0.0832 -0.0146 -0.0255
  963MOL0     C29883   7.939   3.992   0.294  0.6413 -0.2090  0.2203
  963MOL0     C29884   7.785   3.983   0.336 -0.0278 -0.3147 -0.5178
  963MOL0     C29885   7.735   4.115   0.383 -0.4354  0.4725  0.1778
  963MOL0     C29886   7.600   4.120   0.440  0.6866  0.3552  0.1659
  963MOL0     N29887   7.497   4.079   0.345 -0.4585 -0.5383 -0.3581
  963MOL0     C29888   7.433   4.173   0.263  0.5553  0.2138  0.8958
  963MOL0     C29889   7.351   4.091   0.188 -0.0061 -0.0173 -0.1655
  963MOL0     C29890   7.229   4.142   0.112  0.0082 -0.1549  0.2429
  963MOL0     C29891   7.239   4.082  -0.037 -0.0704  0.5061  0.4689
  963MOL0     C29892   7.214   4.196  -0.153 -0.5089  0.2835  0.8734
  963MOL0     C29893   7.241   4.140  -0.290 -0.1604 -0.4719  0.1639
  963MOL0     O29894   7.163   4.020  -0.294  0.0032  0.4170 -0.1945
  963MOL0     C29895   7.065   4.015  -0.390 -0.1823  0.2112 -0.4244
  963MOL0     C29896   7.077   3.916  -0.488 -1.0417  0.0350 -0.5934
  963MOL0     C29897   6.980   3.902  -0.582 -0.2560 -0.0561 -0.2710
  963MOL0     C29898   6.999   3.798  -0.691  0.1476  0.2164  0.3730
  963MOL0     C29899   6.852   3.964  -0.564  0.5267 -0.3808 -0.2662
  963MOL0     C29900   6.736   3.946  -0.652 -0.2382 -0.5004  0.7302
  963MOL0     O29901   6.618   4.004  -0.610 -0.2796 -0.1243  0.0108
  963MOL0     C29902   6.502   4.008  -0.676 -0.1497  0.4670 -0.1342
  963MOL0     C29903   6.397   4.058  -0.601  0.8703  0.2811  0.3095
  963MOL0     C29904   6.263   4.054  -0.648  0.6089 -0.1400 -0.0241
  963MOL0     C29905   6.239   4.016  -0.782  0.6574  0.0523 -0.1872
  963MOL0     O29906   6.113   4.008  -0.841  0.3947 -0.3319 -0.3454
  963MOL0     C29907   6.005   4.057  -0.759  0.3351 -0.2593 -0.4715
  963MOL0     C29908   5.892   4.058  -0.858  0.2234  0.4618  0.1031
  963MOL0     C29909   5.855   3.934  -0.928 -0.3924 -0.2643 -0.1510
  963MOL0     C29910   5.767   3.975  -1.048 -0.5135 -0.4211  0.0102
  963MOL0     C29911   5.685   3.853  -1.091 -0.2154  0.9595 -0.1919
  963MOL0     C29912   5.557   3.838  -0.995 -0.7262  0.2546  0.9933
  963MOL0     C29913   5.472   3.742  -1.066  0.7247 -0.0917  0.0142
  963MOL0     C29914   5.357   3.707  -0.973 -0.0753 -0.0456  0.5030
  963MOL0    Cl29915   5.266   3.564  -1.032 -0.2194 -0.3599  0.0262
  963MOL0     C29916   6.345   3.977  -0.864 -0.5933 -0.2680  0.4572
  963MOL0     C29917   6.479   3.975  -0.810  0.8088 -0.6403 -0.0145
  963MOL0     O29918   6.750   3.893  -0.762 -0.1056  0.2706  0.5560
  963MOL0     C29919   6.847   4.066  -0.460  0.5898 -0.7348  1.1171
  963MOL0     C29920   6.947   4.093  -0.373 -0.1902  0.2279 -0.5297
  963MOL0     N29921   7.379   3.959   0.221 -0.9740  0.4849 -0.4756
  963MOL0     N29922   7.461   3.952   0.309 -0.3975  0.7697  0.4672
  963MOL0     C29923   8.671   3.832   0.639  0.1705  0.1782 -0.2173
  963MOL0     C29924   8.797   3.764   0.633 -0.3045 -0.2060  0.5420
  963MOL0     C29925   9.236   3.746   0.524  0.5457  0.3013 -0.1542
  963MOL0     C29926   9.343   3.781   0.609  0.1642 -0.2243  1.0480
  963MOL0     C29927   9.472   3.732   0.588 -1.0486  0.4258  0.3342
  963MOL0     C29928   9.496   3.636   0.482 -0.6441 -0.5643  0.1571
  963MOL0     O29929   9.622   3.576   0.461  0.0224 -1.0690 -0.0741
  963MOL0     C29930   9.727   3.611   0.561  0.0629  0.4075  0.4956
  963MOL0     C29931   9.706   3.539   0.693 -0.8840 -0.7572  0.1145
  963MOL0     C29932   9.677   3.386   0.678  0.1316  0.4374  0.3030
  963MOL0     C29933   9.780   3.305   0.601 -0.4705  0.1035  0.3308
  963MOL0     C29934   9.736   3.164   0.605  0.6063 -0.1311 -0.5315
  963MOL0     C29935   9.685   3.053   0.604  0.0762 -0.0332 -0.6158
  963MOL0     C29936   9.396   3.601   0.400  0.0424  0.0917  0.1264
  963MOL0     C29937   9.267   3.661   0.416  0.0492 -0.4326 -0.2789
  963MOL0     H29938   8.867   3.823   0.311  1.8701  0.4112  0.3222
  963MOL0     H29939   8.663   3.942   0.317  1.2657  2.1806  1.9032
  963MOL0     H29940   8.466   4.054   0.342 -1.1353 -0.0823  0.5362
  963MOL0     H29941   8.405   3.884   0.357 -1.2267  0.4209 -2.7024
  963MOL0     H29942   8.257   3.947   0.536 -0.4464  0.1821 -0.0191
  963MOL0     H29943   8.294   4.118   0.492  1.5630  0.3666 -1.8216
  963MOL0     H29944   8.184   4.099   0.284 -0.2212 -0.4665 -1.3606
  963MOL0     H29945   8.193   3.922   0.277 -0.2933  2.0412 -2.4322
  963MOL0     H29946   8.027   3.915   0.471 -0.5165 -0.1103 -0.2451
  963MOL0     H29947   8.021   4.096   0.456 -2.5623 -0.3799 -0.0621
  963MOL0     H29948   7.952   4.082   0.233  1.1926 -1.5898 -1.8234
  963MOL0     H29949   7.961   3.907   0.229  3.0677  2.0186 -2.1308
  963MOL0     H29950   7.727   3.961   0.245 -2.3167  5.9106 -1.0615
  963MOL0     H29951   7.771   3.909   0.415 -1.6922 -0.7339 -1.1554
  963MOL0     H29952   7.812   4.153   0.451  0.5757  2.3775 -1.9100
  963MOL0     H29953   7.733   4.187   0.301 -2.8993  0.1496 -0.1264
  963MOL0     H29954   7.580   4.219   0.483 -0.8847 -1.2432  3.5005
  963MOL0     H29955   7.591   4.051   0.524 -1.2052 -0.7221 -0.8491
  963MOL0     H29956   7.421   4.280   0.274  0.0366 -0.0418  3.3805
  963MOL0     H29957   7.129   4.120   0.151 -0.8883 -0.1831 -1.9303
  963MOL0     H29958   7.229   4.251   0.101 -0.6864 -0.3966 -3.4038
  963MOL0     H29959   7.183   3.990  -0.056 -1.8079  1.8287 -1.0680
  963MOL0     H29960   7.342   4.050  -0.058  0.2958  1.8851  0.0845
  963MOL0     H29961   7.284   4.278  -0.134  0.5046 -0.2270 -0.4886
  963MOL0     H29962   7.112   4.235  -0.150  0.1970  2.3629 -0.3476
  963MOL0     H29963   7.348   4.118  -0.298  0.2154  1.1033  0.6703
  963MOL0     H29964   7.220   4.211  -0.371  1.6855 -0.1255 -0.0517
  963MOL0     H29965   7.178   3.879  -0.501 -0.8044  0.8558 -1.2192
  963MOL0     H29966   7.107   3.782  -0.691  0.3116  1.2997  0.8397
  963MOL0     H29967   6.936   3.708  -0.681 -0.4566  0.4600 -0.9596
  963MOL0     H29968   6.975   3.837  -0.790 -1.7651 -1.3918  0.1284
  963MOL0     H29969   6.418   4.093  -0.501 -0.2913  0.4316  0.5116
  963MOL0     H29970   6.182   4.080  -0.579 -1.7726  0.6504 -2.9062
  963MOL0     H29971   5.982   3.990  -0.676 -0.1961 -0.0675 -0.4628
  963MOL0     H29972   6.022   4.159  -0.723 -0.8733  1.3991 -4.0470
  963MOL0     H29973   5.810   4.110  -0.807 -0.2183 -1.5486  1.5977
  963MOL0     H29974   5.929   4.134  -0.926  2.3791  0.9371  1.6856
  963MOL0     H29975   5.808   3.870  -0.853  1.8851 -2.0491 -0.1505
  963MOL0     H29976   5.937   3.870  -0.959  0.5945  1.1484 -0.5311
  963MOL0     H29977   5.700   4.060  -1.034 -0.7312 -0.0912 -2.4489
  963MOL0     H29978   5.841   3.994  -1.127  1.4737 -1.9525  1.3898
  963MOL0     H29979   5.745   3.763  -1.075  0.9941  1.8061  0.1844
  963MOL0     H29980   5.661   3.859  -1.198 -2.2509  0.5825  0.1889
  963MOL0     H29981   5.597   3.810  -0.897  0.6346  1.1988  0.7514
  963MOL0     H29982   5.514   3.937  -0.977  0.3337  0.8931  0.1608
  963MOL0     H29983   5.527   3.648  -1.078 -1.4972 -1.1624 -2.7866
  963MOL0     H29984   5.444   3.772  -1.167  2.1773  0.1819 -0.3304
  963MOL0     H29985   5.297   3.798  -0.961  1.3973  0.8042  1.8930
  963MOL0     H29986   5.400   3.674  -0.878  1.6524 -0.8014 -0.5064
  963MOL0     H29987   6.329   3.965  -0.970  0.1496  3.5051 -0.2281
  963MOL0     H29988   6.551   3.950  -0.888 -0.5541 -1.8656 -0.9170
  963MOL0     H29989   6.757   4.126  -0.457 -1.0853 -3.0817  1.1593
  963MOL0     H29990   6.937   4.170  -0.298 -2.3743  0.2588 -0.8048
  963MOL0     H29991   8.610   3.841   0.727  0.5320  1.7722 -0.0948
  963MOL0     H29992   8.848   3.714   0.716 -0.7195  0.2307  1.0654
  963MOL0     H29993   9.325   3.844   0.695  2.8498 -0.0535  1.5686
  963MOL0     H29994   9.544   3.767   0.661  1.0044 -0.1498 -1.3182
  963MOL0     H29995   9.822   3.578   0.517 -1.5424 -2.5069 -1.1012
  963MOL0     H29996   9.734   3.719   0.578 -2.8927  0.7431  0.1773
  963MOL0     H29997   9.628   3.587   0.754  0.4685  2.9008 -0.7475
  963MOL0     H29998   9.802   3.550   0.746  1.2321  1.0983 -3.6996
  963MOL0     H29999   9.582   3.367   0.626  0.2945  0.7936 -0.1193
  963MOL0     H30000   9.669   3.332   0.773 -1.0264 -1.5961 -0.8742
  963MOL0     H30001   9.878   3.324   0.644 -0.7039  2.3523 -0.0140
  963MOL0     H30002   9.790   3.338   0.497  0.0382 -1.5457 -0.1728
  963MOL0     H30003   9.650   2.953   0.587 -0.1127 -0.0910  0.0777
  963MOL0     H30004   9.433   3.536   0.322 -1.3546 -2.6474  1.5866
  963MOL0     H30005   9.186   3.633   0.348 -2.8812 -1.5803  3.3324
  964MOL0     O30006   7.825   3.386   1.044  0.2627 -0.4626 -0.1306
  964MOL0     C30007   7.866   3.300   0.965 -0.7497  1.0470 -0.0765
  964MOL0     O30008   7.791   3.217   0.889  0.0891  0.6405 -0.2651
  964MOL0     C30009   7.655   3.210   0.916 -0.3693 -0.2455  0.5723
  964MOL0     C30010   7.563   3.275   0.828  0.0574 -0.3290  0.4127
  964MOL0     C30011   7.424   3.269   0.846 -0.4762 -0.1281 -0.0980
  964MOL0     C30012   7.375   3.202   0.957 -0.0450 -0.1675 -0.0248
  964MOL0     O30013   7.248   3.189   0.994  0.1293  0.0288 -0.2044
  964MOL0     C30014   7.143   3.256   0.921 -0.1844  0.0163  0.1769
  964MOL0     C30015   7.035   3.280   1.029  0.0334 -0.6029 -0.4050
  964MOL0     C30016   6.955   3.151   1.067  0.1488 -0.4494  0.3590
  964MOL0     C30017   6.871   3.107   0.948 -1.0877 -0.1019 -0.1800
  964MOL0     C30018   6.781   2.995   0.980  0.1044 -0.1873 -0.4891
  964MOL0     C30019   6.733   2.922   0.853  0.0545 -0.8849 -1.2214
  964MOL0     C30020   6.647   2.796   0.881  0.3672  0.1065  0.0904
  964MOL0     C30021   6.515   2.800   0.807 -0.6350  0.4535  0.0846
  964MOL0     N30022   6.432   2.920   0.812  0.3240 -0.4685 -0.2235
  964MOL0     C30023   6.363   2.964   0.694  0.1718 -0.4981  0.5082
  964MOL0     C30024   6.304   3.077   0.736  0.0724 -0.3634 -0.8745
  964MOL0     C30025   6.212   3.157   0.658 -0.3903 -0.0831  0.0259
  964MOL0     C30026   6.069   3.167   0.712 -0.4625 -0.3215 -0.1804
  964MOL0     C30027   5.978   3.234   0.609 -0.6727  0.2681 -0.0598
  964MOL0     C30028   5.832   3.210   0.651 -0.1473  0.3087 -0.2147
  964MOL0     O30029   5.762   3.297   0.566 -0.6754  1.0009  0.0096
  964MOL0     C30030   5.623   3.305   0.591 -1.3048 -0.0703  0.7212
  964MOL0     C30031   5.564   3.420   0.552  0.7590 -0.3770 -0.0505
  964MOL0     C30032   5.426   3.439   0.536 -0.3292  0.5562  0.8987
  964MOL0     C30033   5.378   3.572   0.486 -0.3173 -0.0367  0.4379
  964MOL0     C30034   5.341   3.334   0.578  0.2313  0.0643  0.5421
  964MOL0     C30035   5.193   3.336   0.558 -0.4373 -0.0873 -0.8069
  964MOL0     O30036   5.143   3.225   0.491 -0.3224  0.3939  0.4774
  964MOL0     C30037   5.007   3.215   0.467 -0.1513 -0.2139  0.3016
  964MOL0     C30038   4.915   3.196   0.571  0.4690 -0.4860 -1.1144
  964MOL0     C30039   4.778   3.173   0.538  0.2776 -0.3094  0.6706
  964MOL0     C30040   4.744   3.157   0.398  0.3303 -0.0714 -0.2812
  964MOL0     O30041   4.617   3.148   0.349  0.1986 -0.2137  0.3472
  964MOL0     C30042   4.509   3.151   0.435  1.2462 -0.2446 -0.3815
  964MOL0     C30043   4.464   3.024   0.505 -0.7638 -0.0691 -0.2777
  964MOL0     C30044   4.312   3.012   0.501  0.7919 -0.0738 -0.2759
  964MOL0     C30045   4.238   3.119   0.588 -0.5504  0.2335  0.3432
  964MOL0     C30046   4.096   3.111   0.630  0.4474  0.9312 -0.3249
  964MOL0     C30047   3.992   3.124   0.514 -0.1573  0.6003 -0.6967
  964MOL0     C30048   3.996   3.254   0.437  0.9938 -0.0234  0.0646
  964MOL0     C30049   4.001   3.380   0.528 -0.1089 -0.3010 -0.6805
  964MOL0    Cl30050   3.935   3.513   0.442 -0.3486  0.3256  0.5064
  964MOL0     C30051   4.841   3.169   0.302  0.0773  1.1593  0.0671
  964MOL0     C30052   4.975   3.201   0.335 -0.1402 -0.4653 -0.0519
  964MOL0     O30053   5.126   3.429   0.607  0.4117  0.3039  0.1996
  964MOL0     C30054   5.400   3.221   0.635 -0.3452  1.1958  1.1816
  964MOL0     C30055   5.541   3.209   0.635  0.4790 -0.4685 -0.6311
  964MOL0     N30056   6.335   3.102   0.874 -0.3430 -0.5447 -0.4450
  964MOL0     N30057   6.412   3.013   0.911 -0.3546 -0.0510 -0.4386
  964MOL0     C30058   7.465   3.138   1.048  0.2624  0.4411  0.3198
  964MOL0     C30059   7.602   3.137   1.024  0.5730 -0.2425  0.6144
  964MOL0     C30060   8.010   3.296   0.943 -0.4447 -0.4849  0.3404
  964MOL0     C30061   8.075   3.197   0.864  0.4095  0.5506 -0.2135
  964MOL0     C30062   8.216   3.181   0.865  0.0428 -0.1246  0.7514
  964MOL0     C30063   8.290   3.266   0.948  0.0276 -0.7041  0.2190
  964MOL0     O30064   8.432   3.252   0.953 -0.3250  0.1464  0.2496
  964MOL0     C30065   8.519   3.317   1.046  0.3953 -0.7065 -0.5452
  964MOL0     C30066   8.623   3.229   1.102  0.4470 -0.3362 -0.7768
  964MOL0     C30067   8.711   3.171   0.996 -0.8760 -0.9183 -0.0397
  964MOL0     C30068   8.804   3.060   1.051 -0.3570 -0.9910  0.2292
  964MOL0     C30069   8.884   2.992   0.956 -0.8406 -0.8552  0.2114
  964MOL0     C30070   8.933   2.935   0.863 -0.7084 -1.1603  0.4738
  964MOL0     C30071   8.232   3.373   1.022  0.0628 -0.4764 -0.6165
  964MOL0     C30072   8.088   3.384   1.023 -0.4018 -0.3196 -0.8498
  964MOL0     H30073   7.605   3.337   0.750  0.8788 -0.0923  1.0230
  964MOL0     H30074   7.376   3.336   0.776  1.2876  1.9925  0.6096
  964MOL0     H30075   7.178   3.356   0.893  0.0360  0.0229  0.4769
  964MOL0     H30076   7.103   3.219   0.826 -0.7051  1.8880 -0.3911
  964MOL0     H30077   7.079   3.320   1.121 -1.8489 -2.5342  1.4522
  964MOL0     H30078   6.962   3.348   0.984  1.4055  0.2700 -1.3965
  964MOL0     H30079   7.023   3.072   1.101  0.7198 -0.2128 -0.2158
  964MOL0     H30080   6.891   3.166   1.155  0.2794  0.2998  0.3321
  964MOL0     H30081   6.821   3.196   0.910  1.3688  1.5303  0.1685
  964MOL0     H30082   6.946   3.069   0.878  2.2334  0.6252  2.6949
  964MOL0     H30083   6.822   2.927   1.056 -2.1072 -1.3645 -0.2730
  964MOL0     H30084   6.692   3.033   1.031  1.9801  2.1928  1.2744
  964MOL0     H30085   6.683   3.001   0.797  0.0795  0.3339  0.3860
  964MOL0     H30086   6.821   2.898   0.792  0.4570  0.9512 -1.4185
  964MOL0     H30087   6.700   2.703   0.858  0.5238  0.4569 -0.9774
  964MOL0     H30088   6.621   2.775   0.986  0.3066  1.4611  0.3555
  964MOL0     H30089   6.458   2.712   0.837 -2.9020  1.5513 -0.7582
  964MOL0     H30090   6.542   2.782   0.702 -1.5433 -0.3810 -0.0253
  964MOL0     H30091   6.349   2.922   0.595 -0.2435 -0.3779  0.5135
  964MOL0     H30092   6.253   3.259   0.653  0.6186 -0.5008 -0.7420
  964MOL0     H30093   6.220   3.123   0.554  1.9973  1.7097 -0.4829
  964MOL0     H30094   6.062   3.222   0.806 -0.1232 -0.0099 -0.3353
  964MOL0     H30095   6.034   3.065   0.732 -2.7854  0.0979 -1.7807
  964MOL0     H30096   5.998   3.186   0.513  0.2761  1.1165 -0.3000
  964MOL0     H30097   6.004   3.340   0.605 -0.6282  0.3226  1.2606
  964MOL0     H30098   5.815   3.236   0.756  1.0396  0.1083  0.0405
  964MOL0     H30099   5.806   3.104   0.647 -0.6235  0.4552 -1.4207
  964MOL0     H30100   5.620   3.511   0.532 -1.1137  1.1338  1.1579
  964MOL0     H30101   5.296   3.569   0.414  0.2452 -0.7058 -0.1960
  964MOL0     H30102   5.334   3.624   0.571 -3.9997 -1.7162 -0.2675
  964MOL0     H30103   5.468   3.622   0.448  1.0709  0.1959  3.6953
  964MOL0     H30104   4.930   3.180   0.677 -0.4568 -1.4479 -1.1124
  964MOL0     H30105   4.701   3.175   0.614  0.4830 -1.6278  0.9522
  964MOL0     H30106   4.524   3.222   0.516  0.8295  0.3811 -0.8398
  964MOL0     H30107   4.425   3.186   0.375  3.2251  0.7279 -2.7863
  964MOL0     H30108   4.514   2.940   0.456 -0.7479 -0.9043  1.1211
  964MOL0     H30109   4.501   3.036   0.607 -3.1511  2.2731  0.4480
  964MOL0     H30110   4.290   2.917   0.549 -1.2946  1.0058  1.0783
  964MOL0     H30111   4.266   3.004   0.402  1.7342 -0.6370 -0.6815
  964MOL0     H30112   4.289   3.134   0.684  0.3180  2.0551 -0.3370
  964MOL0     H30113   4.236   3.215   0.535 -3.1085  0.8803  1.4692
  964MOL0     H30114   4.070   3.184   0.707 -0.5411 -1.2704  1.5471
  964MOL0     H30115   4.085   3.009   0.669 -3.7953  1.2959 -0.0732
  964MOL0     H30116   4.008   3.047   0.438  0.0040  0.4306 -0.4941
  964MOL0     H30117   3.890   3.106   0.549  0.3971 -1.5855 -0.0486
  964MOL0     H30118   3.902   3.253   0.380 -0.5649 -2.1531  2.4623
  964MOL0     H30119   4.075   3.254   0.361 -0.6552 -3.0079 -1.8663
  964MOL0     H30120   4.104   3.391   0.565  1.2394 -0.8038 -3.9860
  964MOL0     H30121   3.944   3.366   0.620 -2.8982  1.6728 -1.9787
  964MOL0     H30122   4.803   3.157   0.201  0.7286  3.0451 -0.4502
  964MOL0     H30123   5.059   3.197   0.267 -0.6879 -1.7935 -0.6634
  964MOL0     H30124   5.337   3.148   0.684 -1.4069  1.9087  0.9023
  964MOL0     H30125   5.576   3.120   0.685 -0.9415 -0.1435  1.0314
  964MOL0     H30126   7.425   3.084   1.133  1.8935 -0.9282  0.2744
  964MOL0     H30127   7.674   3.090   1.089 -0.3719 -1.1007  1.0680
  964MOL0     H30128   8.024   3.119   0.808  1.4905 -0.6786  0.4414
  964MOL0     H30129   8.246   3.094   0.808  0.0242 -0.3507  1.0822
  964MOL0     H30130   8.557   3.403   0.990  1.5516 -1.1305 -0.4422
  964MOL0     H30131   8.468   3.353   1.136  0.8299 -2.6166  0.5172
  964MOL0     H30132   8.579   3.151   1.164 -1.6739  2.0446  0.9280
  964MOL0     H30133   8.683   3.291   1.170 -0.2826  0.6743 -1.0294
  964MOL0     H30134   8.760   3.256   0.947 -1.5013  0.1492  1.1126
  964MOL0     H30135   8.646   3.131   0.918 -0.0993 -1.2311 -0.5453
  964MOL0     H30136   8.736   2.990   1.101 -0.6824 -0.1238  1.0176
  964MOL0     H30137   8.870   3.101   1.128 -2.3793  2.4823  0.2715
  964MOL0     H30138   8.988   2.897   0.778  1.6973  4.0052 -0.6989
  964MOL0     H30139   8.292   3.440   1.083  1.2075 -1.6849 -0.3653
  964MOL0     H30140   8.043   3.464   1.081  1.0229 -0.5875  0.7186
  965MOL0     O30141  10.517  10.758   4.962  0.1276 -0.6697  0.0777
  965MOL0     C30142  10.558  10.870   4.959 -0.6452  0.1650 -1.2903
  965MOL0     O30143  10.488  10.977   4.995 -0.4469 -0.4025 -0.4558
  965MOL0     C30144  10.353  10.974   5.018 -1.0120 -0.5403 -0.3564
  965MOL0     C30145  10.301  11.086   5.083 -0.5100  0.0646  0.2691
  965MOL0     C30146  10.164  11.107   5.098 -0.1660 -0.2972 -0.9917
  965MOL0     C30147  10.076  11.009   5.058  0.4765  0.0211  0.2035
  965MOL0     O30148   9.941  11.012   5.075  0.1221  0.2858  0.5458
  965MOL0     C30149   9.879  11.092   5.181 -0.1858 -0.3852  0.4109
  965MOL0     C30150   9.736  11.135   5.147  0.2148  0.0489 -1.0214
  965MOL0     C30151   9.646  11.020   5.125  0.4351  0.3839 -0.1566
  965MOL0     C30152   9.512  11.080   5.084  0.6439  0.4818 -0.8755
  965MOL0     C30153   9.390  10.989   5.095 -0.2702  0.5781  0.8832
  965MOL0     C30154   9.258  11.065   5.044 -0.0296 -0.5870 -0.2737
  965MOL0     C30155   9.136  10.981   5.059  0.7427 -0.9698  0.0800
  965MOL0     C30156   9.126  10.876   4.958 -0.8039 -0.0484 -0.4209
  965MOL0     N30157   8.995  10.803   4.954  0.6791  0.2758  0.0593
  965MOL0     C30158   8.948  10.709   5.046  0.3838 -0.8176 -0.1144
  965MOL0     C30159   8.818  10.690   5.009  0.0063 -0.1756 -0.5807
  965MOL0     C30160   8.707  10.622   5.087  0.4127  0.6835  0.4322
  965MOL0     C30161   8.699  10.492   5.009  0.1227  0.8969 -0.1271
  965MOL0     C30162   8.607  10.383   5.082 -0.3586  0.3333 -0.0401
  965MOL0     C30163   8.459  10.414   5.081 -0.2167  0.6559 -0.2316
  965MOL0     O30164   8.405  10.306   5.159  0.6686 -0.5391 -0.8285
  965MOL0     C30165   8.270  10.308   5.188  0.5287 -0.4703 -0.2064
  965MOL0     C30166   8.220  10.214   5.278 -0.1951  0.2822  0.3022
  965MOL0     C30167   8.086  10.214   5.311  0.9932 -0.2077 -0.4219
  965MOL0     C30168   8.047  10.102   5.415  0.6342 -0.8173  0.5816
  965MOL0     C30169   7.988  10.321   5.271 -0.1169  0.3735 -0.0229
  965MOL0     C30170   7.848  10.337   5.319  0.2619  0.4896 -0.0261
  965MOL0     O30171   7.773  10.417   5.235 -0.7158 -0.0746 -0.1552
  965MOL0     C30172   7.643  10.448   5.269 -0.1408  0.3312  0.5441
  965MOL0     C30173   7.606  10.582   5.265  0.5132  0.7128  0.1884
  965MOL0     C30174   7.468  10.606   5.289 -0.0315  0.1296  0.6019
  965MOL0     C30175   7.372  10.509   5.323 -0.2919 -0.8369 -0.1391
  965MOL0     O30176   7.235  10.534   5.350 -0.5904 -0.0964  0.4758
  965MOL0     C30177   7.200  10.662   5.395  0.2288 -0.4818 -1.0773
  965MOL0     C30178   7.065  10.646   5.460  0.2804  0.0802  0.0997
  965MOL0     C30179   6.955  10.648   5.361  0.5751  0.6023 -0.3092
  965MOL0     C30180   6.826  10.634   5.440  0.3656  0.6288  0.9145
  965MOL0     C30181   6.705  10.630   5.342 -0.0252 -0.0741 -0.5178
  965MOL0     C30182   6.567  10.616   5.412  0.2769 -0.3357 -0.0846
  965MOL0     C30183   6.522  10.751   5.459 -0.0238 -0.0447 -0.1981
  965MOL0     C30184   6.375  10.761   5.505 -0.0210  0.0886  0.2568
  965MOL0    Cl30185   6.347  10.657   5.648 -0.1219  0.0068  0.2062
  965MOL0     C30186   7.417  10.376   5.323 -0.2928 -0.1114  0.7017
  965MOL0     C30187   7.551  10.342   5.288  0.7229 -0.7597  0.4826
  965MOL0     O30188   7.802  10.285   5.424 -0.2101  0.1731  0.6340
  965MOL0     C30189   8.052  10.419   5.192  0.4632 -0.6103 -0.4130
  965MOL0     C30190   8.193  10.408   5.146  0.7717 -0.6817 -0.6900
  965MOL0     N30191   8.792  10.763   4.896  0.1493 -0.4952  0.3228
  965MOL0     N30192   8.903  10.820   4.859 -0.2923 -0.1716  0.3849
  965MOL0     C30193  10.122  10.895   4.998 -0.1084 -0.2219 -0.3725
  965MOL0     C30194  10.261  10.879   4.982  0.1473 -0.0779  0.0126
  965MOL0     C30195  10.693  10.898   4.903  0.9672 -0.3522 -0.5357
  965MOL0     C30196  10.768  10.798   4.843 -0.1994 -0.7991  0.2008
  965MOL0     C30197  10.897  10.824   4.792  0.1220 -0.0921  0.3388
  965MOL0     C30198  10.946  10.954   4.793 -0.3959  0.0838 -0.2576
  965MOL0     O30199  11.076  10.972   4.749 -0.6741  0.5470  0.3065
  965MOL0     C30200  11.164  11.091   4.767  0.0899  1.2317 -0.3105
  965MOL0     C30201  11.212  11.094   4.915  0.4776  0.4101 -0.0514
  965MOL0     C30202  11.326  11.189   4.954  0.4921  0.3808 -0.7906
  965MOL0     C30203  11.431  11.124   5.047 -0.2171  0.1050  0.3466
  965MOL0     C30204  11.500  11.018   4.969 -0.6869 -0.2633 -0.2043
  965MOL0     C30205  11.552  10.914   4.941  0.5801  0.0500 -0.9543
  965MOL0     C30206  10.878  11.050   4.850  0.3160 -0.2541 -0.0499
  965MOL0     C30207  10.754  11.022   4.910 -0.2082 -0.3173 -0.8202
  965MOL0     H30208  10.370  11.165   5.111  0.5995 -0.4978 -0.7947
  965MOL0     H30209  10.121  11.198   5.138  1.0526 -0.2634  0.3350
  965MOL0     H30210   9.885  11.042   5.278 -1.5667 -1.7637 -0.1753
  965MOL0     H30211   9.930  11.187   5.196 -0.7378 -0.0832  0.3905
  965MOL0     H30212   9.703  11.194   5.234  1.7035 -0.0596 -0.3646
  965MOL0     H30213   9.742  11.198   5.058  2.1978  2.9606  0.9891
  965MOL0     H30214   9.682  10.959   5.041 -3.0079 -2.3670  0.1162
  965MOL0     H30215   9.636  10.945   5.204 -2.2370 -0.6605 -1.3769
  965MOL0     H30216   9.493  11.168   5.147 -0.4771  1.4119 -2.4474
  965MOL0     H30217   9.522  11.111   4.980  0.0150 -0.7910 -1.3320
  965MOL0     H30218   9.408  10.910   5.022 -3.6882  0.8731 -0.4822
  965MOL0     H30219   9.373  10.945   5.193 -0.5553 -0.3298  0.4370
  965MOL0     H30220   9.247  11.143   5.119 -0.2328 -2.2868  1.5537
  965MOL0     H30221   9.259  11.098   4.940  2.1956 -1.8835 -0.7346
  965MOL0     H30222   9.139  10.936   5.159  0.6016 -1.0388  0.0530
  965MOL0     H30223   9.045  11.041   5.047  0.9410 -0.8473 -0.8881
  965MOL0     H30224   9.212  10.811   4.976 -0.0184  1.6294  2.6173
  965MOL0     H30225   9.138  10.932   4.866 -0.8904  1.2010  0.3060
  965MOL0     H30226   9.005  10.679   5.133  0.5237  0.7707  0.3860
  965MOL0     H30227   8.741  10.602   5.189 -1.3783 -1.6186  0.6724
  965MOL0     H30228   8.617  10.683   5.085  0.4862  0.8666 -2.8302
  965MOL0     H30229   8.795  10.446   4.985  0.0748  0.6193  0.2085
  965MOL0     H30230   8.651  10.526   4.916  1.0499  3.5769  0.2719
  965MOL0     H30231   8.635  10.373   5.187 -0.4970 -0.3949 -0.0694
  965MOL0     H30232   8.624  10.287   5.032  0.2507  0.1749  0.4659
  965MOL0     H30233   8.413  10.413   4.981 -2.5971  1.8102  0.7601
  965MOL0     H30234   8.446  10.510   5.133  0.9649  1.9154 -2.1530
  965MOL0     H30235   8.286  10.138   5.320 -2.4369 -2.3610 -0.6257
  965MOL0     H30236   7.986  10.034   5.354 -2.4390  1.6997  0.5910
  965MOL0     H30237   8.133  10.047   5.455  0.3514 -1.7267 -0.0136
  965MOL0     H30238   7.978  10.132   5.495 -0.7944  0.5587 -1.0964
  965MOL0     H30239   7.670  10.664   5.234 -1.5368  2.1124 -0.5637
  965MOL0     H30240   7.440  10.710   5.277 -0.4873  0.0702  1.0893
  965MOL0     H30241   7.275  10.687   5.472 -1.6007 -2.1957  1.4265
  965MOL0     H30242   7.198  10.731   5.310  1.3544  2.0885  0.8267
  965MOL0     H30243   7.071  10.559   5.527 -0.9871 -0.4753 -0.4855
  965MOL0     H30244   7.062  10.729   5.531  3.3662  0.4711 -0.0662
  965MOL0     H30245   6.963  10.568   5.287  1.2650 -0.4311  0.8613
  965MOL0     H30246   6.945  10.736   5.296  1.2227 -1.2963 -3.1534
  965MOL0     H30247   6.825  10.536   5.489  0.1571 -0.0730 -0.4712
  965MOL0     H30248   6.823  10.714   5.516 -1.7655  0.6084  0.9303
  965MOL0     H30249   6.718  10.550   5.268  1.9141  1.1101 -1.5459
  965MOL0     H30250   6.708  10.720   5.281 -1.6576  1.3234  1.3371
  965MOL0     H30251   6.497  10.594   5.330 -0.0794 -0.3649  0.2236
  965MOL0     H30252   6.573  10.539   5.489 -0.3483  1.0835  1.4322
  965MOL0     H30253   6.520  10.820   5.375 -2.0770  1.6115  1.1429
  965MOL0     H30254   6.588  10.792   5.537 -1.0874  0.7058  0.3198
  965MOL0     H30255   6.314  10.712   5.428 -0.5744 -0.5624  1.0962
  965MOL0     H30256   6.347  10.866   5.512 -3.2369 -0.7828  3.2361
  965MOL0     H30257   7.346  10.304   5.363 -3.6095  1.1979 -2.2988
  965MOL0     H30258   7.572  10.235   5.286 -0.2244 -1.0289  2.4503
  965MOL0     H30259   7.996  10.508   5.165  0.9785  0.5743  2.1581
  965MOL0     H30260   8.240  10.495   5.101 -2.0387  1.8817  0.9302
  965MOL0     H30261  10.058  10.816   4.961 -1.8726  0.5511  0.9145
  965MOL0     H30262  10.294  10.789   4.930 -0.1847 -0.7375  0.9091
  965MOL0     H30263  10.721  10.705   4.812  0.1116 -0.6932 -0.6179
  965MOL0     H30264  10.950  10.750   4.732 -1.3103  0.7415 -2.1248
  965MOL0     H30265  11.254  11.090   4.706  1.2797 -2.0247  1.2498
  965MOL0     H30266  11.110  11.181   4.736  2.1308  2.5896 -0.0499
  965MOL0     H30267  11.249  10.992   4.933  3.4191  1.3602 -0.1982
  965MOL0     H30268  11.122  11.118   4.972  0.4664  1.8302 -0.6337
  965MOL0     H30269  11.286  11.280   4.998  1.7219 -0.0995  1.4662
  965MOL0     H30270  11.387  11.228   4.872  1.2147  0.6546 -0.1388
  965MOL0     H30271  11.386  11.085   5.139  0.5401 -1.0494  0.2364
  965MOL0     H30272  11.502  11.206   5.062  0.5858 -0.3524 -0.8440
  965MOL0     H30273  11.601  10.821   4.920  2.6175  1.0873 -0.9492
  965MOL0     H30274  10.923  11.148   4.856  1.8326 -0.6567 -3.0911
  965MOL0     H30275  10.704  11.099   4.968  2.6652 -1.1444  3.1696
  966MOL0     O30276   6.455   1.161   1.165 -0.3347 -0.4316 -0.0457
  966MOL0     C30277   6.460   1.079   1.074 -0.1293  0.3198  0.1746
  966MOL0     O30278   6.375   1.069   0.967  0.1058 -0.6305 -0.4034
  966MOL0     C30279   6.253   1.138   0.968  0.4075  0.2395 -0.3217
  966MOL0     C30280   6.157   1.157   1.078  0.9751  0.1103 -0.5484
  966MOL0     C30281   6.034   1.217   1.040 -0.2279  0.1912  1.1333
  966MOL0     C30282   6.005   1.271   0.905  0.0588 -0.2773  0.4965
  966MOL0     O30283   5.887   1.343   0.885 -0.1426 -0.3001  0.6863
  966MOL0     C30284   5.850   1.378   0.745  0.0494  0.8049 -0.2678
  966MOL0     C30285   5.711   1.445   0.745 -0.4295 -0.1810  0.1924
  966MOL0     C30286   5.664   1.450   0.604  0.4588 -0.6224  0.6490
  966MOL0     C30287   5.529   1.516   0.605 -0.3593 -0.5239  0.1058
  966MOL0     C30288   5.454   1.514   0.470 -0.1685  0.2595 -0.4055
  966MOL0     C30289   5.324   1.603   0.462 -0.5501 -0.4660  0.3332
  966MOL0     C30290   5.205   1.548   0.549  0.5261 -0.5017  0.7249
  966MOL0     C30291   5.074   1.621   0.498 -0.2152  0.5556  0.3020
  966MOL0     N30292   4.950   1.569   0.554 -0.1985  0.1229 -0.0319
  966MOL0     C30293   4.930   1.474   0.647 -0.2075 -0.3492 -0.7084
  966MOL0     C30294   4.800   1.484   0.690 -0.2139  0.2097 -0.1354
  966MOL0     C30295   4.731   1.388   0.784  0.1340  0.4610 -0.1382
  966MOL0     C30296   4.582   1.422   0.792  0.7104  0.3988 -0.3612
  966MOL0     C30297   4.523   1.317   0.887 -0.6974  0.7857  0.5792
  966MOL0     C30298   4.390   1.347   0.941 -0.0727 -0.2954 -0.2756
  966MOL0     O30299   4.393   1.452   1.046  0.4229  0.3779  0.2516
  966MOL0     C30300   4.274   1.517   1.083 -0.5769 -0.4095  0.0062
  966MOL0     C30301   4.145   1.499   1.026  0.3133 -0.9137 -0.0593
  966MOL0     C30302   4.038   1.585   1.072  1.0142  0.0833 -0.4561
  966MOL0     C30303   3.890   1.552   1.017 -0.8238 -1.4371 -0.0274
  966MOL0     C30304   4.056   1.687   1.168 -0.0691 -0.1109 -0.1120
  966MOL0     C30305   3.950   1.753   1.235 -0.0636  0.1758  0.0009
  966MOL0     O30306   3.986   1.879   1.281 -0.5827  0.3805 -0.3676
  966MOL0     C30307   3.893   1.954   1.350 -0.4595  0.5297  0.0672
  966MOL0     C30308   3.761   1.964   1.305 -0.8140 -0.6205  0.3283
  966MOL0     C30309   3.678   2.050   1.379 -0.5163  0.4795  0.2250
  966MOL0     C30310   3.710   2.106   1.499  0.1497 -0.2457 -0.7413
  966MOL0     O30311   3.619   2.193   1.555  0.7480  0.7138 -1.0282
  966MOL0     C30312   3.593   2.155   1.689  0.2250  0.3251 -0.4558
  966MOL0     C30313   3.483   2.229   1.750  0.6687  0.2524  0.4527
  966MOL0     C30314   3.346   2.198   1.685  0.9513  0.0926 -0.1427
  966MOL0     C30315   3.230   2.255   1.760  0.0864  0.0195  0.6619
  966MOL0     C30316   3.101   2.265   1.673 -0.6140 -0.2226 -0.2974
  966MOL0     C30317   2.980   2.290   1.766 -0.0665 -0.3544  0.1020
  966MOL0     C30318   2.855   2.299   1.677  0.6645  0.6184 -0.6432
  966MOL0     C30319   2.730   2.322   1.771  0.7318  0.3789  0.4038
  966MOL0    Cl30320   2.576   2.356   1.689  0.0975 -0.0282 -0.5606
  966MOL0     C30321   3.844   2.099   1.543  0.3092  0.5247  0.1038
  966MOL0     C30322   3.938   2.031   1.461 -1.0373  0.0288  0.6352
  966MOL0     O30323   3.839   1.703   1.249 -0.1543 -0.2666 -0.0741
  966MOL0     C30324   4.189   1.700   1.224 -0.5829  0.3394  1.1143
  966MOL0     C30325   4.292   1.621   1.179 -0.0504 -0.8033  0.1139
  966MOL0     N30326   4.746   1.582   0.614  0.4691  0.5432  0.3278
  966MOL0     N30327   4.833   1.636   0.541  0.0951 -0.2947 -0.4559
  966MOL0     C30328   6.101   1.239   0.799  0.2249 -0.6302  0.4859
  966MOL0     C30329   6.217   1.165   0.836 -0.1542 -0.8233 -0.5444
  966MOL0     C30330   6.580   0.995   1.055 -0.4461 -0.2256 -0.2616
  966MOL0     C30331   6.590   0.893   0.949 -0.4675 -0.1233 -0.4602
  966MOL0     C30332   6.719   0.834   0.912 -1.1222 -0.1871 -0.0018
  966MOL0     C30333   6.823   0.862   1.001  0.2450  0.0385  0.4778
  966MOL0     O30334   6.938   0.795   0.974 -0.0175 -1.0900 -0.9045
  966MOL0     C30335   7.042   0.794   1.071  0.4579 -0.1016  0.1433
  966MOL0     C30336   7.126   0.673   1.032 -0.0008 -0.1697  0.4622
  966MOL0     C30337   7.239   0.665   1.133 -0.5121  0.2401 -0.3951
  966MOL0     C30338   7.315   0.534   1.106 -0.4017  0.1363  0.5380
  966MOL0     C30339   7.369   0.522   0.962  0.2357 -1.0016  0.2164
  966MOL0     C30340   7.399   0.490   0.846 -0.4323  0.3526  0.1331
  966MOL0     C30341   6.809   0.948   1.115 -0.3195  1.0450  0.1133
  966MOL0     C30342   6.692   1.016   1.142  0.3016  0.3719  0.4687
  966MOL0     H30343   6.176   1.130   1.182  0.7933  0.4853 -0.4165
  966MOL0     H30344   5.966   1.235   1.123  0.6204  1.6956  1.5341
  966MOL0     H30345   5.930   1.436   0.697  1.5228  2.2893  3.6048
  966MOL0     H30346   5.848   1.278   0.701 -1.0612  0.6136  0.1949
  966MOL0     H30347   5.642   1.379   0.798 -0.8418 -0.3227 -0.5112
  966MOL0     H30348   5.725   1.548   0.779 -2.1671  0.9063 -2.1058
  966MOL0     H30349   5.728   1.513   0.541 -2.7196  2.1659 -0.0543
  966MOL0     H30350   5.663   1.346   0.572 -1.3076 -0.7374  0.9946
  966MOL0     H30351   5.467   1.455   0.671  0.4591  0.1896  1.5943
  966MOL0     H30352   5.543   1.621   0.635 -0.1094 -0.5257  0.0007
  966MOL0     H30353   5.533   1.553   0.404  0.5508 -0.2765  0.1188
  966MOL0     H30354   5.433   1.408   0.452 -0.0636 -0.3618  2.6849
  966MOL0     H30355   5.345   1.707   0.488  2.0744 -0.9050  0.2512
  966MOL0     H30356   5.298   1.602   0.356  3.0859 -1.9602 -0.6928
  966MOL0     H30357   5.198   1.440   0.535 -1.0873 -0.2860 -0.3455
  966MOL0     H30358   5.218   1.578   0.653 -2.4731 -0.6384  1.2350
  966MOL0     H30359   5.060   1.623   0.389  1.2076 -1.5738  0.0256
  966MOL0     H30360   5.075   1.728   0.517 -2.2281  1.9274 -5.2251
  966MOL0     H30361   5.007   1.417   0.696 -1.8827 -1.3344  0.8838
  966MOL0     H30362   4.736   1.285   0.750  0.6007  0.6345 -0.6041
  966MOL0     H30363   4.780   1.390   0.882  1.4643  1.2546 -0.7965
  966MOL0     H30364   4.531   1.415   0.696 -0.8296 -1.9746  0.5262
  966MOL0     H30365   4.572   1.525   0.828  2.8596 -0.3587  2.8235
  966MOL0     H30366   4.573   1.300   0.983 -1.5556 -2.6626  0.5314
  966MOL0     H30367   4.516   1.226   0.826 -3.9897  0.3632  1.3967
  966MOL0     H30368   4.346   1.253   0.977 -0.4293  0.2547  0.7554
  966MOL0     H30369   4.327   1.394   0.865 -0.3225 -0.7462 -0.3492
  966MOL0     H30370   4.135   1.424   0.948  0.6639 -2.9967  1.7968
  966MOL0     H30371   3.900   1.469   0.946  1.8804  0.3338 -1.9469
  966MOL0     H30372   3.821   1.519   1.094  0.0909 -0.0384  1.4469
  966MOL0     H30373   3.851   1.640   0.963 -0.8854  0.3771  2.7835
  966MOL0     H30374   3.725   1.923   1.211  0.6531  0.7027 -0.8613
  966MOL0     H30375   3.581   2.064   1.332 -0.8067 -2.2513 -0.1909
  966MOL0     H30376   3.576   2.047   1.693 -1.0682  0.4865 -1.1792
  966MOL0     H30377   3.680   2.167   1.755  1.4888 -1.3843 -1.7223
  966MOL0     H30378   3.475   2.204   1.856  0.0583  1.4735  0.7238
  966MOL0     H30379   3.505   2.336   1.747 -0.6225  0.5707  1.2633
  966MOL0     H30380   3.321   2.091   1.684  0.6859  0.1558 -0.2992
  966MOL0     H30381   3.348   2.236   1.582 -1.8415  2.3593  0.5174
  966MOL0     H30382   3.195   2.194   1.844 -1.0907  0.0210  0.2002
  966MOL0     H30383   3.240   2.360   1.789 -0.9820  1.3038 -3.0944
  966MOL0     H30384   3.090   2.179   1.606 -0.9824 -1.8985  1.8126
  966MOL0     H30385   3.122   2.355   1.614 -0.3385  0.0532  0.2103
  966MOL0     H30386   2.958   2.215   1.842  2.8457 -1.4204  0.0063
  966MOL0     H30387   2.983   2.390   1.810 -2.4209  0.5869 -1.6362
  966MOL0     H30388   2.837   2.212   1.613 -1.0600  0.0384  0.5601
  966MOL0     H30389   2.858   2.384   1.608  1.1640  2.4265  1.5049
  966MOL0     H30390   2.760   2.411   1.828 -0.0217  2.6077 -2.4507
  966MOL0     H30391   2.724   2.237   1.840  0.2920  0.2529  0.2128
  966MOL0     H30392   3.881   2.155   1.627  1.6461  0.1785 -0.2277
  966MOL0     H30393   4.041   2.026   1.493  0.4682  1.0492 -3.3909
  966MOL0     H30394   4.204   1.779   1.298 -3.5383  0.6135  1.5720
  966MOL0     H30395   4.397   1.628   1.208  0.1606  0.1338 -0.8083
  966MOL0     H30396   6.093   1.261   0.693  1.1116  1.5673  0.8192
  966MOL0     H30397   6.299   1.150   0.767  2.2864 -2.2877  2.4645
  966MOL0     H30398   6.508   0.864   0.883 -0.9401  0.2187 -0.0346
  966MOL0     H30399   6.723   0.764   0.830  3.3328  0.3454 -0.4871
  966MOL0     H30400   7.096   0.888   1.065  2.6452 -1.2958  0.0037
  966MOL0     H30401   6.999   0.786   1.171  0.6277  1.7683  0.3859
  966MOL0     H30402   7.170   0.708   0.938 -0.1832 -0.9768  0.0718
  966MOL0     H30403   7.063   0.584   1.027 -1.6584  0.9894 -0.0874
  966MOL0     H30404   7.200   0.657   1.235 -1.8062  0.7359 -0.8345
  966MOL0     H30405   7.299   0.757   1.134 -1.0821  0.6468  2.2829
  966MOL0     H30406   7.239   0.458   1.126 -2.4313  2.7036  3.6222
  966MOL0     H30407   7.390   0.511   1.181  0.1056 -0.4594 -0.1312
  966MOL0     H30408   7.423   0.464   0.745 -1.3906  2.0395 -0.5833
  966MOL0     H30409   6.889   0.959   1.187  0.9250 -0.6931 -0.9450
  966MOL0     H30410   6.682   1.082   1.228  0.4303  0.1472  0.6593
  967MOL0     O30411  10.789   8.191   7.338 -0.0477 -0.5646  0.3095
  967MOL0     C30412  10.782   8.084   7.279  1.0530  0.4132  0.0475
  967MOL0     O30413  10.668   8.010   7.268  0.0198 -0.4966 -0.4190
  967MOL0     C30414  10.554   8.073   7.316 -0.5758 -0.1594  1.1587
  967MOL0     C30415  10.509   8.201   7.270  0.1765  0.5012  0.1671
  967MOL0     C30416  10.378   8.243   7.309  0.2033 -0.7185 -0.0381
  967MOL0     C30417  10.298   8.168   7.402 -0.2296  0.0876  0.6768
  967MOL0     O30418  10.167   8.200   7.438 -0.2486  0.7960 -0.3076
  967MOL0     C30419  10.096   8.301   7.375  0.2433  0.7489  0.0196
  967MOL0     C30420   9.950   8.255   7.355  0.8182  1.2364  0.4589
  967MOL0     C30421   9.866   8.249   7.488 -0.2292 -0.4413 -0.3737
  967MOL0     C30422   9.807   8.387   7.520 -0.0068  0.8781  0.6369
  967MOL0     C30423   9.693   8.384   7.628  0.4546 -0.0532 -0.3448
  967MOL0     C30424   9.751   8.355   7.770 -0.4469  0.3728 -0.0726
  967MOL0     C30425   9.645   8.285   7.867  0.6256  0.2868  0.5283
  967MOL0     C30426   9.679   8.316   8.007  0.7588  0.3114 -0.1189
  967MOL0     N30427   9.594   8.256   8.110 -0.3602 -0.2230  0.6563
  967MOL0     C30428   9.641   8.256   8.240  0.2842  0.2834 -0.0932
  967MOL0     C30429   9.539   8.209   8.314 -0.1020  0.3494  0.2364
  967MOL0     C30430   9.533   8.173   8.456 -0.4548  0.3144  0.1264
  967MOL0     C30431   9.409   8.218   8.532  0.5198  0.3934  0.7773
  967MOL0     C30432   9.278   8.156   8.490  0.2615  1.0297  0.0908
  967MOL0     C30433   9.164   8.196   8.556  0.4081  0.8773  0.4082
  967MOL0     O30434   9.054   8.106   8.531  0.1111 -0.0516  0.2305
  967MOL0     C30435   8.938   8.127   8.605 -0.5644  0.6901 -0.1460
  967MOL0     C30436   8.824   8.054   8.567 -0.1277  0.1769  0.6537
  967MOL0     C30437   8.697   8.075   8.620 -0.1749 -0.5498  0.3540
  967MOL0     C30438   8.575   8.013   8.559 -0.7707 -0.1072 -0.2369
  967MOL0     C30439   8.682   8.175   8.728 -0.4739 -0.5951  0.1554
  967MOL0     C30440   8.544   8.201   8.785  0.0819 -0.0014 -0.6200
  967MOL0     O30441   8.446   8.104   8.769  0.5521 -0.4625 -0.6305
  967MOL0     C30442   8.323   8.115   8.829  0.5963 -0.6923 -0.4568
  967MOL0     C30443   8.244   8.229   8.868 -0.3132 -0.6201  0.6638
  967MOL0     C30444   8.108   8.214   8.909  0.2907  0.5340  0.3058
  967MOL0     C30445   8.047   8.088   8.925 -0.5890  0.4886 -0.3683
  967MOL0     O30446   7.914   8.076   8.958  0.1910 -0.1715 -0.3042
  967MOL0     C30447   7.859   7.949   9.005  0.0841  0.0708 -0.0701
  967MOL0     C30448   7.721   7.972   9.065 -0.2408  0.5420  0.1980
  967MOL0     C30449   7.729   8.059   9.194 -0.1370  0.1926  1.0542
  967MOL0     C30450   7.597   8.119   9.235  0.6222  0.3407  0.6665
  967MOL0     C30451   7.593   8.207   9.367  0.2152  0.1996 -0.1814
  967MOL0     C30452   7.659   8.136   9.492 -0.4509 -0.2964 -0.4285
  967MOL0     C30453   7.635   8.211   9.623 -0.4393  0.4191 -0.8654
  967MOL0     C30454   7.678   8.364   9.633 -0.3690 -0.9221  0.0746
  967MOL0    Cl30455   7.844   8.375   9.577  0.1346 -0.3326 -0.2898
  967MOL0     C30456   8.126   7.980   8.912 -0.5113 -0.4120  0.5607
  967MOL0     C30457   8.259   7.989   8.859  0.2608  0.3770  0.6846
  967MOL0     O30458   8.541   8.294   8.870  0.8504  0.6950 -0.1016
  967MOL0     C30459   8.797   8.244   8.772 -0.5063 -0.6677 -0.6142
  967MOL0     C30460   8.927   8.218   8.711 -0.3412 -0.1270 -0.3276
  967MOL0     N30461   9.427   8.207   8.227  0.4638 -0.9467  0.4426
  967MOL0     N30462   9.457   8.242   8.110  0.0647  0.1295  0.5484
  967MOL0     C30463  10.346   8.041   7.440 -0.4282  0.0751  0.0656
  967MOL0     C30464  10.471   7.998   7.404  0.0154  0.2354  0.3059
  967MOL0     C30465  10.904   8.032   7.222 -0.0164 -0.4284 -0.6930
  967MOL0     C30466  10.914   7.912   7.168 -0.8037 -0.3243 -0.0017
  967MOL0     C30467  11.029   7.866   7.099 -0.3731  0.5755 -0.3529
  967MOL0     C30468  11.146   7.944   7.099 -0.1594 -0.7265 -0.5781
  967MOL0     O30469  11.270   7.903   7.055  0.2973 -0.3345 -0.3438
  967MOL0     C30470  11.303   7.764   7.027  0.1822  0.3015  0.4246
  967MOL0     C30471  11.324   7.754   6.873 -0.1108 -0.1389  0.0287
  967MOL0     C30472  11.430   7.849   6.822 -0.0288 -0.2731  0.5989
  967MOL0     C30473  11.570   7.824   6.874 -0.8898  0.2249 -0.4567
  967MOL0     C30474  11.615   7.683   6.853 -0.1546 -1.1047  0.3848
  967MOL0     C30475  11.641   7.570   6.823 -0.1202  0.6323  0.3564
  967MOL0     C30476  11.135   8.074   7.151 -0.3352  0.5245 -0.5433
  967MOL0     C30477  11.021   8.112   7.219  0.6527 -0.3169  0.5276
  967MOL0     H30478  10.573   8.265   7.211  1.0307 -0.3770  0.1097
  967MOL0     H30479  10.352   8.342   7.271  0.6191 -0.8894 -0.7891
  967MOL0     H30480  10.103   8.390   7.438 -0.9291  0.9045 -0.0485
  967MOL0     H30481  10.140   8.326   7.278 -1.4629 -0.4385 -1.1223
  967MOL0     H30482   9.910   8.320   7.276  1.7310  1.0463 -0.1686
  967MOL0     H30483   9.942   8.156   7.309  1.1271  1.5356 -0.2550
  967MOL0     H30484   9.785   8.177   7.475 -0.6399 -0.2082  0.7503
  967MOL0     H30485   9.928   8.213   7.571  2.4391  0.1441 -1.9780
  967MOL0     H30486   9.885   8.457   7.549 -0.9437  1.5871  1.5273
  967MOL0     H30487   9.771   8.437   7.430  0.1560  1.3301  0.8223
  967MOL0     H30488   9.625   8.470   7.631 -1.8485 -1.7924  0.2392
  967MOL0     H30489   9.627   8.299   7.612  0.6047 -0.0938 -0.7408
  967MOL0     H30490   9.837   8.287   7.759 -0.6313 -0.1585  1.5659
  967MOL0     H30491   9.783   8.449   7.815  0.9615 -0.1779  0.1421
  967MOL0     H30492   9.546   8.329   7.858 -1.3513 -3.8513 -0.4645
  967MOL0     H30493   9.640   8.178   7.843 -0.7192  0.9834 -2.7535
  967MOL0     H30494   9.673   8.425   8.010  3.0431  0.4687  0.5852
  967MOL0     H30495   9.783   8.284   8.021  0.2507 -1.5939 -0.3641
  967MOL0     H30496   9.745   8.267   8.266  0.6924 -1.7710 -0.6534
  967MOL0     H30497   9.535   8.064   8.455  0.0652  0.2966  1.2655
  967MOL0     H30498   9.626   8.199   8.508  0.3064  0.0944 -1.0864
  967MOL0     H30499   9.406   8.327   8.523 -1.7211  0.2025 -2.4139
  967MOL0     H30500   9.431   8.192   8.636  2.5238 -0.7678  0.1245
  967MOL0     H30501   9.292   8.048   8.499  3.5673  1.3943  0.6054
  967MOL0     H30502   9.258   8.184   8.386 -1.8758  1.9553  0.6971
  967MOL0     H30503   9.128   8.292   8.516  1.6294  1.4701  0.6689
  967MOL0     H30504   9.189   8.197   8.662  0.3837 -1.7975  0.5091
  967MOL0     H30505   8.837   7.982   8.486 -0.5683  0.2733  0.4938
  967MOL0     H30506   8.618   7.957   8.476  0.5809  1.6266 -0.7633
  967MOL0     H30507   8.520   7.941   8.620 -0.5386 -0.6284 -0.6395
  967MOL0     H30508   8.508   8.081   8.505  2.4812  0.9266 -3.4018
  967MOL0     H30509   8.275   8.332   8.860  2.6986 -1.4292  0.7136
  967MOL0     H30510   8.043   8.299   8.929 -0.3565  0.1030  0.0692
  967MOL0     H30511   7.844   7.884   8.918  1.7933  0.6435 -0.8430
  967MOL0     H30512   7.921   7.907   9.085 -1.3009 -0.2822  0.8663
  967MOL0     H30513   7.651   8.020   8.996  1.7136 -0.4150 -2.5979
  967MOL0     H30514   7.697   7.867   9.089  1.6300 -0.1851 -0.9363
  967MOL0     H30515   7.802   8.139   9.178 -0.2408 -0.0783 -1.0890
  967MOL0     H30516   7.757   7.994   9.277 -1.1888 -1.5141  0.1206
  967MOL0     H30517   7.551   8.178   9.156  0.9857 -0.4101 -0.1217
  967MOL0     H30518   7.525   8.042   9.264 -1.2852  1.7017 -0.2114
  967MOL0     H30519   7.489   8.238   9.382  0.0997  1.1008 -2.3801
  967MOL0     H30520   7.654   8.297   9.353 -0.8124  0.8357 -0.6973
  967MOL0     H30521   7.628   8.032   9.504 -0.0130 -0.3800 -0.0111
  967MOL0     H30522   7.768   8.139   9.489 -0.4170 -0.0654  0.7689
  967MOL0     H30523   7.690   8.158   9.702  1.3933  0.8239 -1.8165
  967MOL0     H30524   7.528   8.216   9.645 -0.5078  4.0647 -1.3512
  967MOL0     H30525   7.682   8.410   9.732  1.0974  4.7955 -2.2452
  967MOL0     H30526   7.602   8.420   9.578 -1.5109 -0.7771  1.7261
  967MOL0     H30527   8.100   7.877   8.933  0.3984 -0.9195 -0.6495
  967MOL0     H30528   8.318   7.900   8.840 -0.2477  0.2544 -0.4385
  967MOL0     H30529   8.780   8.311   8.855 -0.2134 -0.5412 -0.6566
  967MOL0     H30530   9.015   8.267   8.752  0.2304 -1.7530  0.5053
  967MOL0     H30531  10.274   7.983   7.496 -2.0638  1.1462 -0.8505
  967MOL0     H30532  10.503   7.904   7.447  0.5277  0.6457  0.8374
  967MOL0     H30533  10.831   7.844   7.186  0.1077 -1.2464  0.7709
  967MOL0     H30534  11.030   7.766   7.058 -0.3027  0.2611  0.3994
  967MOL0     H30535  11.398   7.742   7.077  0.3202 -0.6790 -0.2365
  967MOL0     H30536  11.235   7.685   7.060  2.5681 -2.4316 -0.6861
  967MOL0     H30537  11.229   7.768   6.820  0.0006 -2.3420 -0.8714
  967MOL0     H30538  11.355   7.651   6.854  0.4214  0.1723 -0.8308
  967MOL0     H30539  11.393   7.947   6.855 -1.7211  0.0473 -1.9883
  967MOL0     H30540  11.435   7.849   6.713 -0.6288  2.5127  0.4878
  967MOL0     H30541  11.588   7.845   6.979  1.1546  1.0768 -0.9414
  967MOL0     H30542  11.643   7.891   6.829  0.7261 -0.2886  1.2831
  967MOL0     H30543  11.658   7.468   6.793 -0.2333  0.7341 -0.0487
  967MOL0     H30544  11.218   8.143   7.140 -1.8029  2.7263  1.2452
  967MOL0     H30545  11.018   8.218   7.242 -0.7567 -0.1048 -0.4802
  968MOL0     O30546   6.233   6.240  10.466  0.2497  0.2037 -0.0594
  968MOL0     C30547   6.305   6.143  10.453 -0.5802 -0.4759  0.0463
  968MOL0     O30548   6.269   6.025  10.397  0.3893 -0.3541  0.2404
  968MOL0     C30549   6.136   6.012  10.344  0.3153  1.2331  0.6178
  968MOL0     C30550   6.022   6.058  10.403 -0.7335 -0.2459 -0.4395
  968MOL0     C30551   5.894   6.036  10.336 -0.2319  0.3582  0.1128
  968MOL0     C30552   5.888   5.975  10.208 -0.1520  0.0879  0.6510
  968MOL0     O30553   5.777   5.969  10.128  0.7446 -0.5446 -0.3413
  968MOL0     C30554   5.654   5.992  10.187 -0.6779  0.0023  0.5196
  968MOL0     C30555   5.552   5.983  10.080  1.0466  0.3596 -0.3052
  968MOL0     C30556   5.424   5.948  10.148  0.5558 -0.3704  0.0003
  968MOL0     C30557   5.302   5.927  10.057  0.0681 -0.1007  0.9121
  968MOL0     C30558   5.170   5.923  10.128 -1.1611 -0.8511  0.0215
  968MOL0     C30559   5.045   5.887  10.053 -0.0518 -0.6532  0.7621
  968MOL0     C30560   4.930   5.855  10.140  0.0572 -0.1864 -0.8604
  968MOL0     C30561   4.797   5.862  10.062  0.0827  0.4209 -0.3185
  968MOL0     N30562   4.686   5.832  10.151 -0.0025 -0.2435  0.2984
  968MOL0     C30563   4.572   5.766  10.122 -0.1029 -0.0163 -0.1123
  968MOL0     C30564   4.491   5.793  10.229  0.1601  1.0188  0.2929
  968MOL0     C30565   4.352   5.734  10.239  0.9438  0.4918 -0.5574
  968MOL0     C30566   4.250   5.852  10.248  0.0845 -0.5702  0.4798
  968MOL0     C30567   4.111   5.791  10.263  0.2073  1.0063  0.0646
  968MOL0     C30568   4.003   5.899  10.275 -0.8708  0.1318 -0.7445
  968MOL0     O30569   3.875   5.853  10.221 -0.3453  0.5549 -0.3533
  968MOL0     C30570   3.758   5.914  10.256  0.0149  0.1512 -0.4489
  968MOL0     C30571   3.737   6.026  10.346  0.3316 -0.1835  0.3786
  968MOL0     C30572   3.615   6.080  10.371  0.5766 -0.4007 -0.5119
  968MOL0     C30573   3.609   6.196  10.469 -0.6248  0.7147 -0.0212
  968MOL0     C30574   3.498   6.033  10.310 -1.0668  0.1664  0.7653
  968MOL0     C30575   3.354   6.080  10.322 -0.3361  0.2038 -0.2381
  968MOL0     O30576   3.257   6.039  10.235  0.2422  0.2559  0.2300
  968MOL0     C30577   3.122   6.081  10.237  0.5638 -0.4646 -0.4898
  968MOL0     C30578   3.053   6.102  10.120  0.1198 -0.1939 -0.1231
  968MOL0     C30579   2.921   6.134  10.131 -0.0774  0.5485  0.0123
  968MOL0     C30580   2.848   6.129  10.252 -0.0984  1.1472  0.2961
  968MOL0     O30581   2.714   6.148  10.255 -0.0622  0.3280 -0.5094
  968MOL0     C30582   2.669   6.270  10.196 -0.4344  0.0754  0.2945
  968MOL0     C30583   2.535   6.310  10.247  0.3165  0.6073 -0.3256
  968MOL0     C30584   2.434   6.195  10.219  0.6150 -0.0346 -1.0752
  968MOL0     C30585   2.303   6.204  10.304  0.7411  0.1059 -0.6633
  968MOL0     C30586   2.218   6.325  10.270  0.5546  0.1726 -0.2751
  968MOL0     C30587   2.093   6.330  10.364  0.2806  0.4776 -0.4794
  968MOL0     C30588   2.001   6.443  10.325 -0.1992  0.2720  0.8757
  968MOL0     C30589   1.871   6.426  10.393  0.0439 -0.2758 -0.7872
  968MOL0    Cl30590   1.778   6.582  10.368  0.4592 -0.7703  0.1269
  968MOL0     C30591   2.915   6.090  10.367  0.0507  0.1541 -0.2791
  968MOL0     C30592   3.055   6.071  10.360 -0.5840 -0.1175  0.4436
  968MOL0     O30593   3.328   6.158  10.419 -0.5252 -0.1998  0.0189
  968MOL0     C30594   3.512   5.922  10.218 -0.8254 -0.5316  0.1816
  968MOL0     C30595   3.640   5.870  10.195  0.0333 -0.0658  0.0261
  968MOL0     N30596   4.548   5.879  10.318 -0.3962  0.0111  0.8368
  968MOL0     N30597   4.663   5.906  10.264  0.4240  0.3972  0.8957
  968MOL0     C30598   6.003   5.927  10.157 -0.3711  0.8437 -0.5735
  968MOL0     C30599   6.124   5.942  10.225 -1.2025  1.1860  0.3199
  968MOL0     C30600   6.445   6.149  10.511 -0.6975  0.8680  0.4535
  968MOL0     C30601   6.532   6.047  10.526  0.2662  0.6949 -0.4415
  968MOL0     C30602   6.653   6.059  10.587  0.3474 -0.0683 -0.3854
  968MOL0     C30603   6.695   6.182  10.632 -0.5756  0.6243 -0.7646
  968MOL0     O30604   6.812   6.196  10.701 -0.0070  0.3063 -0.1681
  968MOL0     C30605   6.909   6.093  10.705  0.2840  0.9611  0.4654
  968MOL0     C30606   7.033   6.130  10.782  0.3288  0.7407  0.5455
  968MOL0     C30607   7.013   6.189  10.922 -0.9881 -0.2282 -0.0642
  968MOL0     C30608   7.154   6.220  10.987  0.1609  0.1454 -0.3336
  968MOL0     C30609   7.224   6.092  11.015  0.7057  0.0925 -0.0978
  968MOL0     C30610   7.282   5.987  11.024 -0.1144  0.2455 -0.1184
  968MOL0     C30611   6.616   6.283  10.608  0.2486 -0.5874  0.4676
  968MOL0     C30612   6.491   6.270  10.551 -0.0363  0.5080  0.1135
  968MOL0     H30613   6.023   6.108  10.499 -0.8772 -0.7677 -0.1612
  968MOL0     H30614   5.808   6.082  10.382  0.6386  4.5437 -1.9973
  968MOL0     H30615   5.646   5.927  10.274  1.5722  1.8413  2.2299
  968MOL0     H30616   5.655   6.092  10.230  1.7640 -0.4947  1.7851
  968MOL0     H30617   5.538   6.071  10.017 -1.1476  0.3409  0.0833
  968MOL0     H30618   5.575   5.898  10.015  1.2851  0.4221 -0.3004
  968MOL0     H30619   5.435   5.855  10.206 -1.5551 -0.1177  0.9160
  968MOL0     H30620   5.405   6.021  10.227  0.8460 -0.4606  0.1556
  968MOL0     H30621   5.307   6.006   9.982  0.1115 -3.1306 -2.5618
  968MOL0     H30622   5.316   5.829  10.009 -1.3113 -0.3876  1.0620
  968MOL0     H30623   5.178   5.845  10.205 -0.6373 -2.0594 -1.2017
  968MOL0     H30624   5.162   6.019  10.179  1.0374 -1.0299  0.8350
  968MOL0     H30625   5.014   5.975   9.995  0.7758 -1.0261 -0.2910
  968MOL0     H30626   5.071   5.800   9.991  1.4521  0.1347  0.2111
  968MOL0     H30627   4.933   5.761  10.195  0.8987  0.4675  0.2619
  968MOL0     H30628   4.922   5.939  10.211 -1.1605  1.2875 -2.6468
  968MOL0     H30629   4.793   5.790   9.980 -1.0278 -0.9900  0.9316
  968MOL0     H30630   4.777   5.963  10.025 -3.8410  0.4633  1.4273
  968MOL0     H30631   4.537   5.714  10.034  0.8243  0.8297 -0.9975
  968MOL0     H30632   4.323   5.679  10.149  0.2882 -0.8444  0.4200
  968MOL0     H30633   4.342   5.659  10.318  1.2612 -2.5791 -3.1992
  968MOL0     H30634   4.254   5.926  10.169 -2.2778  1.5141  2.1473
  968MOL0     H30635   4.278   5.908  10.338  1.5032 -0.8803  0.2406
  968MOL0     H30636   4.112   5.723  10.349 -0.1898  0.5451 -0.2982
  968MOL0     H30637   4.079   5.736  10.175 -3.4074  2.0058  0.5935
  968MOL0     H30638   4.033   5.989  10.221  0.4685  0.6684  0.8166
  968MOL0     H30639   3.989   5.910  10.383  0.9919 -2.2872 -0.1796
  968MOL0     H30640   3.828   6.058  10.396  1.2287 -1.5291 -0.3254
  968MOL0     H30641   3.705   6.211  10.519 -1.0088  0.8701  0.6784
  968MOL0     H30642   3.583   6.286  10.412  1.3121  0.6974 -1.0064
  968MOL0     H30643   3.528   6.178  10.540 -1.6381 -0.1853 -1.3355
  968MOL0     H30644   3.108   6.106  10.026  1.3142  2.2520  0.6170
  968MOL0     H30645   2.864   6.163  10.043 -1.9807 -3.3199 -0.2430
  968MOL0     H30646   2.746   6.347  10.205 -1.3864  1.1065 -0.2591
  968MOL0     H30647   2.650   6.267  10.088 -1.6436  1.0143  0.4594
  968MOL0     H30648   2.564   6.320  10.352  1.8564 -0.6064 -0.6074
  968MOL0     H30649   2.502   6.406  10.206 -2.3890  0.5635  1.4846
  968MOL0     H30650   2.466   6.091  10.236 -1.9393 -1.1319 -2.3615
  968MOL0     H30651   2.397   6.205  10.117 -2.1612 -3.7334 -0.6662
  968MOL0     H30652   2.240   6.115  10.293  0.9456  0.1741 -2.9482
  968MOL0     H30653   2.326   6.205  10.411  0.3146  0.9886 -0.5653
  968MOL0     H30654   2.185   6.320  10.166 -1.6603  2.9697  0.1495
  968MOL0     H30655   2.265   6.421  10.291 -0.4380  0.4279  0.9170
  968MOL0     H30656   2.037   6.241  10.333  0.6470  0.5688 -1.4356
  968MOL0     H30657   2.124   6.319  10.468  0.5357 -1.5706 -0.7231
  968MOL0     H30658   1.990   6.447  10.216 -1.4802  0.8689  1.0173
  968MOL0     H30659   2.052   6.537  10.350 -0.5907  1.1344 -1.2915
  968MOL0     H30660   1.893   6.408  10.499 -0.5934  2.6371 -0.0760
  968MOL0     H30661   1.818   6.340  10.352  1.8582 -1.8688  0.0322
  968MOL0     H30662   2.854   6.093  10.456 -1.9356 -0.1639 -1.5727
  968MOL0     H30663   3.111   6.062  10.452 -0.7358 -1.3764  0.4292
  968MOL0     H30664   3.432   5.869  10.167 -0.4794 -1.8303  0.9104
  968MOL0     H30665   3.654   5.787  10.126  2.1515 -1.6709  2.1843
  968MOL0     H30666   5.990   5.877  10.062 -1.9324  0.4246 -0.1817
  968MOL0     H30667   6.213   5.897  10.182 -0.5876  1.7837  0.9518
  968MOL0     H30668   6.503   5.948  10.493 -1.0983  1.9172 -3.3262
  968MOL0     H30669   6.712   5.969  10.597  1.1924  0.5585  0.4674
  968MOL0     H30670   6.865   6.002  10.748  1.0287  0.9554  1.2417
  968MOL0     H30671   6.947   6.064  10.607  1.8254  0.9344  1.0459
  968MOL0     H30672   7.098   6.196  10.723  1.6721 -0.1466  0.9754
  968MOL0     H30673   7.078   6.030  10.786 -0.3176  0.3253 -1.5017
  968MOL0     H30674   6.957   6.114  10.980 -1.3234 -2.3181 -2.9053
  968MOL0     H30675   6.951   6.279  10.923 -1.1128 -0.2780  1.8731
  968MOL0     H30676   7.142   6.266  11.085  1.8011 -0.7809  0.3256
  968MOL0     H30677   7.215   6.288  10.927 -0.8432  0.9115 -0.5173
  968MOL0     H30678   7.332   5.895  11.044  0.1298  0.6840  1.3607
  968MOL0     H30679   6.639   6.386  10.636  0.8564  0.2336 -2.6801
  968MOL0     H30680   6.423   6.354  10.567 -0.3774 -0.2131  3.1678
  969MOL0     O30681   4.961   4.628  10.048  0.0534  1.2976  0.5069
  969MOL0     C30682   4.964   4.539  10.131  0.7114  0.8410  0.6755
  969MOL0     O30683   4.862   4.449  10.145  0.5823  0.4248 -0.5910
  969MOL0     C30684   4.751   4.451  10.057  0.2677  0.0106  0.6092
  969MOL0     C30685   4.625   4.482  10.093  0.5881 -0.4707  0.4146
  969MOL0     C30686   4.515   4.497  10.002 -0.6024  0.1362 -1.0933
  969MOL0     C30687   4.543   4.491   9.860  0.5446 -0.6115  0.0483
  969MOL0     O30688   4.434   4.515   9.774 -0.0177 -0.1496 -0.3249
  969MOL0     C30689   4.448   4.499   9.631  0.4136  0.8599  0.4232
  969MOL0     C30690   4.313   4.515   9.566  0.9641 -0.0716  0.3951
  969MOL0     C30691   4.245   4.648   9.592  0.7106  0.0813 -0.3276
  969MOL0     C30692   4.109   4.648   9.518 -0.0097  0.0742  0.0784
  969MOL0     C30693   4.029   4.780   9.538  0.0260 -1.0767 -0.2709
  969MOL0     C30694   3.874   4.766   9.504  0.7708 -0.0798  0.2699
  969MOL0     C30695   3.794   4.877   9.560  0.6516  0.1210  0.5283
  969MOL0     C30696   3.842   5.021   9.511  0.0241  0.2889 -0.9354
  969MOL0     N30697   3.843   5.048   9.369  0.2968 -0.3144  0.4983
  969MOL0     C30698   3.932   5.121   9.293  0.1762  0.1761 -0.3337
  969MOL0     C30699   3.864   5.162   9.176 -0.3817 -0.0691 -0.6250
  969MOL0     C30700   3.919   5.232   9.052  0.0213 -0.4627  0.0265
  969MOL0     C30701   3.851   5.365   9.018 -0.8953 -0.4950  0.5926
  969MOL0     C30702   3.729   5.344   8.922 -0.2604 -0.0321  0.8907
  969MOL0     C30703   3.665   5.476   8.872 -0.3462  0.3037  0.6402
  969MOL0     O30704   3.606   5.546   8.979 -0.5220 -0.0688  0.2540
  969MOL0     C30705   3.481   5.506   9.012  0.2629 -0.5430 -0.1835
  969MOL0     C30706   3.454   5.443   9.129  0.3064  1.1476 -0.0792
  969MOL0     C30707   3.331   5.390   9.158 -0.3280  0.3011 -0.7625
  969MOL0     C30708   3.318   5.320   9.294 -0.2262  0.2868  0.4022
  969MOL0     C30709   3.231   5.400   9.067 -0.7296  0.1401  0.1130
  969MOL0     C30710   3.092   5.357   9.099  0.1336  0.5261 -0.3790
  969MOL0     O30711   3.074   5.255   9.185  0.1659 -0.5784  0.4447
  969MOL0     C30712   2.963   5.250   9.259 -0.0008 -0.7953 -0.0315
  969MOL0     C30713   2.839   5.235   9.196 -0.0536 -0.7675  0.2503
  969MOL0     C30714   2.730   5.205   9.271 -0.3905  0.4775  0.6453
  969MOL0     C30715   2.734   5.195   9.409  0.4495 -0.2512 -0.2824
  969MOL0     O30716   2.628   5.174   9.494  0.2477 -0.0158 -0.0139
  969MOL0     C30717   2.516   5.118   9.428  0.0334  0.6284  0.6585
  969MOL0     C30718   2.415   5.076   9.529  0.8587 -0.1745 -0.6602
  969MOL0     C30719   2.345   5.200   9.581  0.4416 -0.1793  0.1560
  969MOL0     C30720   2.237   5.154   9.681  0.1343 -0.1712 -0.3995
  969MOL0     C30721   2.188   5.259   9.781  0.0516  0.8194 -0.1112
  969MOL0     C30722   2.083   5.200   9.880  0.2158  0.6352 -0.3842
  969MOL0     C30723   2.147   5.095   9.974  0.0087 -0.5034  0.6824
  969MOL0     C30724   2.073   5.067  10.105  0.0210 -0.2318  0.1261
  969MOL0    Cl30725   1.931   4.982  10.070  0.2333  0.0637  0.2778
  969MOL0     C30726   2.861   5.214   9.470  0.7972 -0.6674  1.0990
  969MOL0     C30727   2.973   5.240   9.394 -0.1452  0.2431 -0.1065
  969MOL0     O30728   3.004   5.428   9.047  1.0945 -0.3255 -0.1681
  969MOL0     C30729   3.248   5.476   8.950  0.0952 -0.7368  0.0457
  969MOL0     C30730   3.378   5.518   8.919  0.6901 -0.0577  0.4803
  969MOL0     N30731   3.732   5.101   9.179 -0.3403 -0.3869  0.1884
  969MOL0     N30732   3.721   5.049   9.296  0.2288 -0.2839  0.2502
  969MOL0     C30733   4.671   4.463   9.824 -0.2634 -1.0989  0.1938
  969MOL0     C30734   4.770   4.440   9.919 -0.0201 -0.8425 -0.2387
  969MOL0     C30735   5.079   4.540  10.223  0.2974  0.8477 -0.1965
  969MOL0     C30736   5.079   4.459  10.337  0.4661  0.0314  0.1105
  969MOL0     C30737   5.190   4.447  10.416  0.5105 -0.0897  0.2467
  969MOL0     C30738   5.306   4.528  10.393  0.2260 -0.2608  0.7038
  969MOL0     O30739   5.426   4.531  10.464  0.4564  0.5370 -0.0630
  969MOL0     C30740   5.449   4.429  10.551  0.4434  0.9179 -1.4630
  969MOL0     C30741   5.595   4.396  10.576 -0.3065 -0.1941  0.6549
  969MOL0     C30742   5.627   4.310  10.704  0.1819  0.0506 -0.2258
  969MOL0     C30743   5.768   4.274  10.743 -0.3551  0.2851  0.1040
  969MOL0     C30744   5.844   4.397  10.770 -0.8767 -0.1225 -0.2239
  969MOL0     C30745   5.913   4.490  10.806  0.2312  0.3152  0.2930
  969MOL0     C30746   5.294   4.620  10.291 -0.0298  0.0315 -1.0078
  969MOL0     C30747   5.185   4.627  10.201 -0.5245 -0.1012 -0.5162
  969MOL0     H30748   4.610   4.490  10.200  2.8979 -0.1119  0.7585
  969MOL0     H30749   4.416   4.520  10.040 -0.0446 -2.1977  2.1894
  969MOL0     H30750   4.508   4.575   9.581 -0.9245  2.3731  1.0202
  969MOL0     H30751   4.480   4.398   9.603 -0.8435  0.6399 -0.2885
  969MOL0     H30752   4.327   4.499   9.458  0.0722 -2.7356  0.5943
  969MOL0     H30753   4.247   4.436   9.604  1.0788 -0.3002  0.1257
  969MOL0     H30754   4.234   4.667   9.699  0.7304 -2.1321  0.1092
  969MOL0     H30755   4.302   4.729   9.546  0.8504 -0.1227 -0.5156
  969MOL0     H30756   4.125   4.638   9.411 -0.2604  1.6520 -0.1261
  969MOL0     H30757   4.052   4.561   9.551  2.0804 -1.8056 -1.0018
  969MOL0     H30758   4.042   4.807   9.643  0.2116  0.8458 -0.7506
  969MOL0     H30759   4.075   4.868   9.492  0.5788 -2.2108 -1.9894
  969MOL0     H30760   3.860   4.751   9.396 -0.6144 -4.6294  0.8773
  969MOL0     H30761   3.837   4.675   9.552  1.0597 -0.0401  0.5688
  969MOL0     H30762   3.692   4.851   9.532  0.8018 -0.6895  0.7272
  969MOL0     H30763   3.801   4.872   9.669  3.5103  0.7082  0.4434
  969MOL0     H30764   3.944   5.036   9.548  0.7188  0.8343 -2.9618
  969MOL0     H30765   3.774   5.090   9.564 -1.2716 -1.1655 -0.6263
  969MOL0     H30766   4.035   5.138   9.324 -0.0699  0.0563  0.5621
  969MOL0     H30767   4.022   5.264   9.073  1.2212 -2.5077 -2.2348
  969MOL0     H30768   3.923   5.163   8.968 -0.4092 -1.4624  0.8075
  969MOL0     H30769   3.925   5.431   8.973  0.9717 -1.9701  1.3499
  969MOL0     H30770   3.822   5.421   9.107  0.9248 -1.4855  1.8803
  969MOL0     H30771   3.652   5.287   8.975 -1.3476 -0.0802 -0.7105
  969MOL0     H30772   3.770   5.288   8.837 -0.3093  0.0897  0.7874
  969MOL0     H30773   3.602   5.458   8.785  2.4917 -3.8661 -0.8475
  969MOL0     H30774   3.741   5.545   8.833 -0.5062 -0.4445 -1.0943
  969MOL0     H30775   3.532   5.433   9.203  1.2634  0.2654 -1.1649
  969MOL0     H30776   3.415   5.300   9.338 -0.6669  1.2698  1.8944
  969MOL0     H30777   3.256   5.379   9.363 -2.4778  0.4098 -1.5871
  969MOL0     H30778   3.272   5.224   9.270  1.2974 -0.1203 -1.0428
  969MOL0     H30779   2.832   5.256   9.090  0.6405  0.5211  0.4329
  969MOL0     H30780   2.632   5.189   9.225 -0.4085 -1.5325  1.2950
  969MOL0     H30781   2.466   5.195   9.368 -0.7153  0.4122  0.9983
  969MOL0     H30782   2.540   5.037   9.359 -2.2470  1.3977 -1.2046
  969MOL0     H30783   2.332   5.024   9.479 -0.1154 -0.2622  0.9858
  969MOL0     H30784   2.465   5.019   9.608 -0.9637  0.6875  1.2204
  969MOL0     H30785   2.292   5.263   9.508 -2.1256 -1.8847  0.4149
  969MOL0     H30786   2.421   5.253   9.639  0.6940 -1.0143  0.5998
  969MOL0     H30787   2.151   5.111   9.629 -1.0530 -1.9612  2.7420
  969MOL0     H30788   2.274   5.072   9.743 -0.0677  0.6378  0.8233
  969MOL0     H30789   2.150   5.343   9.722 -1.8895  0.5764  0.7179
  969MOL0     H30790   2.272   5.303   9.837 -0.1564  0.6994  0.3004
  969MOL0     H30791   2.037   5.275   9.945  0.7101 -0.9390  1.9316
  969MOL0     H30792   2.002   5.151   9.825 -0.4931  2.9838 -1.5777
  969MOL0     H30793   2.253   5.116   9.990  0.4307 -1.8886 -0.1188
  969MOL0     H30794   2.145   4.998   9.923 -3.5934  0.4382 -1.2867
  969MOL0     H30795   2.039   5.155  10.160 -0.2423  2.0368 -3.3428
  969MOL0     H30796   2.146   5.017  10.170  1.6835 -0.5733 -1.8911
  969MOL0     H30797   2.855   5.226   9.578 -1.4102  1.2917  0.8449
  969MOL0     H30798   3.071   5.252   9.438 -0.0549 -2.3304  0.5607
  969MOL0     H30799   3.172   5.476   8.873  0.1861 -1.2581 -0.0473
  969MOL0     H30800   3.392   5.558   8.819 -2.7099 -0.6698 -0.3694
  969MOL0     H30801   4.698   4.434   9.724 -1.7580 -0.8628 -0.3073
  969MOL0     H30802   4.869   4.427   9.877  0.1895  2.0367 -0.7978
  969MOL0     H30803   4.993   4.394  10.348 -1.5935  2.5363 -0.2414
  969MOL0     H30804   5.191   4.377  10.499  0.0793 -1.2033 -0.6682
  969MOL0     H30805   5.405   4.447  10.650  1.1615 -4.2942  0.0723
  969MOL0     H30806   5.400   4.337  10.519  0.2236  1.0958 -1.6471
  969MOL0     H30807   5.651   4.489  10.588 -0.2228 -0.0177 -0.9280
  969MOL0     H30808   5.641   4.351  10.488 -2.5030 -0.3403 -0.4662
  969MOL0     H30809   5.575   4.214  10.706  1.1151 -0.5058  2.3835
  969MOL0     H30810   5.594   4.365  10.793  1.1866 -0.4693  0.4982
  969MOL0     H30811   5.810   4.212  10.663 -1.8100  2.3707 -2.3939
  969MOL0     H30812   5.777   4.216  10.836  1.6422  0.5121  0.1118
  969MOL0     H30813   5.978   4.569  10.837 -0.4366  0.7036  0.7059
  969MOL0     H30814   5.380   4.684  10.272  0.1091 -0.3201 -1.6113
  969MOL0     H30815   5.178   4.700  10.120 -3.6338 -1.5236 -1.6930
  970MOL0     O30816   0.735   7.049   6.019  0.7290 -0.7722  0.0947
  970MOL0     C30817   0.636   7.112   6.051 -1.2212 -0.3586  0.4902
  970MOL0     O30818   0.511   7.074   6.026  0.1590  1.4435 -0.1445
  970MOL0     C30819   0.486   6.954   5.968  0.1458 -0.2058  0.3535
  970MOL0     C30820   0.415   6.958   5.854  0.1932  0.1675  0.4199
  970MOL0     C30821   0.381   6.837   5.786 -0.0996  0.2742  0.5394
  970MOL0     C30822   0.410   6.717   5.850 -1.0220  0.0624 -0.3576
  970MOL0     O30823   0.395   6.587   5.793  0.2564 -0.5827 -0.1129
  970MOL0     C30824   0.401   6.577   5.649 -0.9092  0.0529 -0.5693
  970MOL0     C30825   0.264   6.561   5.580  0.9078  0.7067 -0.9555
  970MOL0     C30826   0.207   6.431   5.637 -0.7922  0.2339 -0.4008
  970MOL0     C30827   0.056   6.426   5.609 -0.9078  0.9180  0.3252
  970MOL0     C30828  -0.009   6.297   5.664  0.3342 -0.2511  0.0571
  970MOL0     C30829  -0.165   6.301   5.647  0.6659 -0.2603 -0.4439
  970MOL0     C30830  -0.231   6.181   5.706  0.0948  0.4108 -0.9613
  970MOL0     C30831  -0.369   6.153   5.634  0.4862 -0.4752  0.0227
  970MOL0     N30832  -0.446   6.283   5.622 -0.1437  0.1234 -0.2791
  970MOL0     C30833  -0.476   6.357   5.729  0.6912 -0.0650 -0.5560
  970MOL0     C30834  -0.542   6.465   5.677 -0.3440 -0.7631  0.0431
  970MOL0     C30835  -0.595   6.584   5.750  0.1200  0.2703 -0.2944
  970MOL0     C30836  -0.741   6.582   5.697 -0.4296 -0.6850  0.4221
  970MOL0     C30837  -0.817   6.691   5.775 -0.3226  0.7022 -0.7273
  970MOL0     C30838  -0.962   6.704   5.715 -0.0479  0.2650 -0.3012
  970MOL0     O30839  -1.032   6.809   5.783  0.0802 -0.1785 -0.0309
  970MOL0     C30840  -1.158   6.832   5.733 -0.2866 -0.0330  0.3605
  970MOL0     C30841  -1.245   6.888   5.833 -0.5747  0.5323  0.8061
  970MOL0     C30842  -1.381   6.900   5.817  0.5617  0.3616 -0.4339
  970MOL0     C30843  -1.466   6.955   5.933 -0.4781 -0.0175  0.6498
  970MOL0     C30844  -1.437   6.856   5.687  0.1028  0.3447 -0.1196
  970MOL0     C30845  -1.581   6.862   5.661  0.3006 -0.5504 -0.7422
  970MOL0     O30846  -1.659   6.958   5.724  0.1923 -1.1573 -0.2152
  970MOL0     C30847  -1.789   6.947   5.711 -0.2652  0.1502  0.1324
  970MOL0     C30848  -1.859   6.856   5.791 -0.3879  0.6796 -0.4935
  970MOL0     C30849  -2.005   6.848   5.766 -0.2589 -0.2971  0.5705
  970MOL0     C30850  -2.062   6.920   5.655  0.0151 -0.2825  0.3447
  970MOL0     O30851  -2.181   6.896   5.591  0.3696 -0.3935 -0.0022
  970MOL0     C30852  -2.260   6.785   5.627 -0.2930 -0.1121  0.0672
  970MOL0     C30853  -2.394   6.797   5.552 -0.3667  0.0063 -0.7545
  970MOL0     C30854  -2.490   6.681   5.590 -0.2126 -0.1379 -0.0114
  970MOL0     C30855  -2.609   6.695   5.491  0.2554 -0.3286 -0.5077
  970MOL0     C30856  -2.720   6.613   5.546 -0.0916 -0.1073 -0.3666
  970MOL0     C30857  -2.855   6.651   5.491  0.2046  0.1416 -0.0393
  970MOL0     C30858  -2.966   6.570   5.558  0.6358 -0.7748  0.4523
  970MOL0     C30859  -3.102   6.579   5.494  0.6797 -0.2727  0.9452
  970MOL0    Cl30860  -3.171   6.735   5.523 -0.1470  0.3083  0.3112
  970MOL0     C30861  -1.984   7.017   5.594  1.0437 -0.2171 -0.4119
  970MOL0     C30862  -1.850   7.023   5.607  0.3420  0.1483  0.0005
  970MOL0     O30863  -1.624   6.785   5.575 -0.1862  0.0450 -0.3485
  970MOL0     C30864  -1.356   6.803   5.588 -0.5317  1.1239  0.4163
  970MOL0     C30865  -1.215   6.788   5.612  0.5821 -0.9381  0.2692
  970MOL0     N30866  -0.547   6.450   5.538  0.0579 -0.5932  0.5157
  970MOL0     N30867  -0.491   6.336   5.508  0.3247  0.0054 -0.5441
  970MOL0     C30868   0.481   6.718   5.975  0.2251  0.1739  0.6547
  970MOL0     C30869   0.522   6.836   6.033  0.1044  0.4401 -0.1693
  970MOL0     C30870   0.656   7.249   6.105  0.4524 -1.3871  0.1968
  970MOL0     C30871   0.551   7.338   6.132  0.6641  0.2765 -0.2482
  970MOL0     C30872   0.566   7.463   6.181  0.0905  0.5198  0.1531
  970MOL0     C30873   0.689   7.506   6.208 -0.0511 -0.3718  0.4154
  970MOL0     O30874   0.714   7.626   6.268 -0.7357  0.2786  0.2262
  970MOL0     C30875   0.611   7.695   6.333  0.7770  0.0395  0.1243
  970MOL0     C30876   0.670   7.769   6.455 -0.0078 -0.1306 -0.9492
  970MOL0     C30877   0.552   7.852   6.530  0.1476 -0.5770  0.2546
  970MOL0     C30878   0.605   7.941   6.644 -0.4160 -0.0402 -0.1784
  970MOL0     C30879   0.671   7.860   6.744  0.1250 -0.9106 -1.3181
  970MOL0     C30880   0.715   7.782   6.833  0.1999 -0.4131  0.9030
  970MOL0     C30881   0.805   7.432   6.174  0.8880  0.3083 -0.3286
  970MOL0     C30882   0.783   7.302   6.113  0.1784  0.3186  0.5363
  970MOL0     H30883   0.390   7.056   5.815  2.6086  0.8341  0.4233
  970MOL0     H30884   0.329   6.840   5.691  1.4261  1.3089 -0.3055
  970MOL0     H30885   0.442   6.673   5.617 -0.2784 -0.1070 -0.2479
  970MOL0     H30886   0.469   6.500   5.611 -1.1053 -0.3775 -0.0565
  970MOL0     H30887   0.190   6.637   5.606 -3.4918 -3.1602 -0.8385
  970MOL0     H30888   0.273   6.564   5.471 -3.0942 -1.6476 -1.5435
  970MOL0     H30889   0.251   6.348   5.580 -2.9524 -1.2814  0.0305
  970MOL0     H30890   0.225   6.409   5.743 -1.5630 -1.1374 -0.5282
  970MOL0     H30891   0.012   6.514   5.654  0.0932  1.9890 -0.6975
  970MOL0     H30892   0.041   6.436   5.501  0.2441  2.1679  0.2534
  970MOL0     H30893   0.042   6.212   5.617  2.6319  0.9223  0.2631
  970MOL0     H30894  -0.003   6.276   5.771 -0.0112 -1.7668 -0.1973
  970MOL0     H30895  -0.206   6.396   5.683 -1.5209 -0.6545 -1.7071
  970MOL0     H30896  -0.184   6.307   5.540  3.2793  0.3709 -0.9408
  970MOL0     H30897  -0.168   6.093   5.690 -1.1490 -0.2224 -2.6699
  970MOL0     H30898  -0.250   6.195   5.812 -1.9259 -2.9461 -0.7486
  970MOL0     H30899  -0.427   6.080   5.691 -1.5440  0.6387 -0.5095
  970MOL0     H30900  -0.355   6.118   5.531  1.7887 -0.5434  0.2087
  970MOL0     H30901  -0.444   6.350   5.833  0.7830  2.0359 -0.3942
  970MOL0     H30902  -0.591   6.574   5.859  0.4918  0.5300 -0.2842
  970MOL0     H30903  -0.522   6.662   5.729  3.1549 -2.5219 -0.9142
  970MOL0     H30904  -0.785   6.482   5.696  4.1057 -2.9698 -2.1937
  970MOL0     H30905  -0.753   6.603   5.590  0.2080 -0.4333  0.3937
  970MOL0     H30906  -0.775   6.791   5.762 -2.3881  1.5174 -1.5056
  970MOL0     H30907  -0.813   6.668   5.882  2.2507  3.9488  0.0154
  970MOL0     H30908  -1.015   6.610   5.730 -2.9517  1.5296 -1.8596
  970MOL0     H30909  -0.956   6.722   5.608  2.9892  2.4313  0.1151
  970MOL0     H30910  -1.186   6.916   5.920 -0.3002  1.3967  0.3543
  970MOL0     H30911  -1.500   7.055   5.908  2.1815  1.2733  1.7309
  970MOL0     H30912  -1.546   6.882   5.950 -0.5292 -0.1064  0.0490
  970MOL0     H30913  -1.402   6.963   6.021  1.3878  0.0012 -0.6460
  970MOL0     H30914  -1.819   6.786   5.864  0.8531  1.3456 -0.5056
  970MOL0     H30915  -2.060   6.774   5.823  0.8051 -0.6124  1.2224
  970MOL0     H30916  -2.216   6.692   5.591  0.7873 -0.4501  2.1225
  970MOL0     H30917  -2.265   6.779   5.736  3.4107 -0.7746  0.3171
  970MOL0     H30918  -2.444   6.888   5.584 -2.0139 -1.1726  0.1688
  970MOL0     H30919  -2.379   6.803   5.444 -1.7049 -0.6689 -1.0011
  970MOL0     H30920  -2.509   6.699   5.697 -0.1095  1.4319 -0.2359
  970MOL0     H30921  -2.429   6.591   5.576  0.9294  0.4624  0.9468
  970MOL0     H30922  -2.638   6.800   5.478  2.2026  0.3117 -0.1258
  970MOL0     H30923  -2.586   6.664   5.389 -1.2144  0.9242 -1.2526
  970MOL0     H30924  -2.728   6.634   5.653  0.6222 -1.5451 -0.0138
  970MOL0     H30925  -2.707   6.506   5.528 -0.1119  0.1493 -2.1386
  970MOL0     H30926  -2.880   6.751   5.526 -1.7648 -1.0498  2.2118
  970MOL0     H30927  -2.857   6.632   5.383 -1.6958  0.8889 -0.1762
  970MOL0     H30928  -2.968   6.603   5.663  0.5047  2.6628 -0.4972
  970MOL0     H30929  -2.941   6.464   5.554  0.2190 -0.9312  1.5102
  970MOL0     H30930  -3.174   6.517   5.548  0.1254 -0.4311  0.0595
  970MOL0     H30931  -3.100   6.554   5.387  0.5402 -0.6618  1.0323
  970MOL0     H30932  -2.039   7.075   5.520 -0.0340 -0.1764  0.4055
  970MOL0     H30933  -1.785   7.097   5.561  0.4935  1.1570  1.7330
  970MOL0     H30934  -1.405   6.762   5.500 -0.8930  3.1406 -0.3948
  970MOL0     H30935  -1.159   6.743   5.531 -0.9223 -0.7152 -0.9258
  970MOL0     H30936   0.497   6.625   6.029  0.9163 -0.3917 -0.4955
  970MOL0     H30937   0.585   6.828   6.121 -1.9955 -1.3973  1.2420
  970MOL0     H30938   0.457   7.292   6.106 -0.6031  1.4460  1.9704
  970MOL0     H30939   0.475   7.519   6.201  0.0364  0.9176 -1.0920
  970MOL0     H30940   0.547   7.753   6.267 -0.5382 -0.8492  0.5750
  970MOL0     H30941   0.546   7.623   6.384  0.2784 -0.1809 -0.8171
  970MOL0     H30942   0.751   7.837   6.428 -1.9398  1.8367 -2.1466
  970MOL0     H30943   0.704   7.691   6.523 -1.9673 -1.3879 -1.3370
  970MOL0     H30944   0.476   7.781   6.560 -0.7398  0.3202  0.1766
  970MOL0     H30945   0.499   7.919   6.462 -4.0177 -0.0541  3.5794
  970MOL0     H30946   0.516   7.997   6.676  1.2962  3.1687 -0.6138
  970MOL0     H30947   0.675   8.015   6.603 -1.2810  0.3317 -1.0349
  970MOL0     H30948   0.782   7.724   6.893  1.6383  0.2110 -0.0469
  970MOL0     H30949   0.908   7.463   6.190  1.1310 -1.0687  1.0478
  970MOL0     H30950   0.859   7.246   6.060  1.7041  4.4928 -2.2322
  971MOL0     O30951   5.014   1.182   9.845 -0.4481 -0.4741  0.9634
  971MOL0     C30952   5.112   1.222   9.908  0.3726  0.5433 -0.7830
  971MOL0     O30953   5.115   1.345   9.976 -0.5958 -0.0952 -0.9637
  971MOL0     C30954   5.020   1.435   9.946  0.4259 -0.1412  0.0051
  971MOL0     C30955   4.978   1.463   9.816 -0.7167 -0.0135  0.2266
  971MOL0     C30956   4.880   1.567   9.795 -0.1822  0.0952  0.1076
  971MOL0     C30957   4.841   1.646   9.901  0.0156  0.5716  0.0731
  971MOL0     O30958   4.753   1.748   9.887  0.4054 -0.1966  0.1975
  971MOL0     C30959   4.715   1.801   9.761 -0.3391 -0.7877  0.4288
  971MOL0     C30960   4.635   1.921   9.792  1.0196  0.2014  0.4569
  971MOL0     C30961   4.484   1.894   9.804 -0.6162 -0.2580  0.8274
  971MOL0     C30962   4.448   1.815   9.928 -0.2982  0.1984 -1.2088
  971MOL0     C30963   4.298   1.843   9.959 -1.2021  0.2824 -0.1018
  971MOL0     C30964   4.246   1.731  10.053  0.5172 -0.1320 -0.1188
  971MOL0     C30965   4.096   1.758  10.088 -0.6695  0.1032 -0.1155
  971MOL0     C30966   4.031   1.668  10.194  0.1850  0.4383 -0.8403
  971MOL0     N30967   3.893   1.691  10.222  1.0945  0.2362  0.3691
  971MOL0     C30968   3.788   1.604  10.187 -0.2735  0.3424  0.1644
  971MOL0     C30969   3.677   1.666  10.241  0.2134  0.9033  0.6870
  971MOL0     C30970   3.530   1.613  10.249 -0.5808  0.0701 -0.0354
  971MOL0     C30971   3.494   1.583  10.396  0.5577  0.9472  0.6369
  971MOL0     C30972   3.380   1.474  10.382 -0.3348 -0.3292 -0.2413
  971MOL0     C30973   3.332   1.414  10.515  0.1494 -0.2115  0.7006
  971MOL0     O30974   3.289   1.517  10.597  0.3282 -0.4040  0.0471
  971MOL0     C30975   3.159   1.549  10.594  0.2560  0.2065 -1.2494
  971MOL0     C30976   3.125   1.627  10.706 -0.0984  0.8661  0.9006
  971MOL0     C30977   2.992   1.674  10.722 -0.1613  0.5035 -0.5798
  971MOL0     C30978   2.960   1.759  10.846  0.4242  0.5881 -0.1851
  971MOL0     C30979   2.896   1.630  10.629  0.4250 -0.4129 -0.4206
  971MOL0     C30980   2.745   1.667  10.642  0.3140  0.4818  0.3348
  971MOL0     O30981   2.681   1.651  10.525  0.8176  0.3954  0.2178
  971MOL0     C30982   2.537   1.645  10.517 -0.6669  0.0491 -1.0198
  971MOL0     C30983   2.451   1.655  10.626 -0.3945  0.6979  0.6776
  971MOL0     C30984   2.314   1.640  10.611  0.1348 -0.4184 -0.9965
  971MOL0     C30985   2.256   1.616  10.491 -0.6890  0.0344  0.2819
  971MOL0     O30986   2.124   1.610  10.493  0.2160 -0.1327 -0.1376
  971MOL0     C30987   2.052   1.598  10.372  0.7983  0.5251  0.2851
  971MOL0     C30988   1.899   1.597  10.396 -0.2434  0.2636 -0.1163
  971MOL0     C30989   1.820   1.594  10.267 -1.3118 -0.0692  0.5418
  971MOL0     C30990   1.675   1.642  10.286 -0.5704  0.1145 -0.5593
  971MOL0     C30991   1.592   1.631  10.165  0.6960  0.1899 -0.0094
  971MOL0     C30992   1.445   1.644  10.193  0.2537 -0.2259 -0.7612
  971MOL0     C30993   1.362   1.664  10.062  0.9275 -0.6395 -0.9102
  971MOL0     C30994   1.334   1.533   9.992  0.6059  0.8715  1.0958
  971MOL0    Cl30995   1.202   1.432  10.059  0.1625 -0.1923  0.0729
  971MOL0     C30996   2.344   1.609  10.376 -0.6096 -0.0899  0.4870
  971MOL0     C30997   2.488   1.622  10.393 -0.0791 -0.6847  0.1099
  971MOL0     O30998   2.703   1.723  10.747  0.5245  0.5775  0.8607
  971MOL0     C30999   2.936   1.541  10.529  0.1573 -0.1601  0.3426
  971MOL0     C31000   3.068   1.503  10.505  0.0888 -0.1352 -0.6035
  971MOL0     N31001   3.715   1.787  10.300 -0.0244 -0.6650 -0.7459
  971MOL0     N31002   3.841   1.793  10.296  0.0534  0.1439 -0.5289
  971MOL0     C31003   4.873   1.613  10.027  0.1979 -0.6725 -0.4380
  971MOL0     C31004   4.964   1.510  10.051 -0.4274  0.5964  0.0510
  971MOL0     C31005   5.226   1.128   9.928 -0.0663 -0.0681  0.2494
  971MOL0     C31006   5.235   1.016   9.845  0.5457 -0.9643  0.3397
  971MOL0     C31007   5.351   0.941   9.854 -0.5070 -0.4664  0.5226
  971MOL0     C31008   5.452   0.969   9.952  0.7804  0.1361 -1.0041
  971MOL0     O31009   5.554   0.876   9.973 -0.9505 -0.6670  0.0489
  971MOL0     C31010   5.616   0.882  10.100 -0.1756  0.4265 -0.0082
  971MOL0     C31011   5.719   0.772  10.116  0.3566 -0.5411 -0.2901
  971MOL0     C31012   5.670   0.628  10.100  0.7215  0.2382  0.1024
  971MOL0     C31013   5.770   0.528  10.159  1.6744 -0.5344  0.3355
  971MOL0     C31014   5.903   0.519  10.100 -0.5877  0.3292 -0.2093
  971MOL0     C31015   6.013   0.494  10.055 -1.1976 -0.1276 -0.8068
  971MOL0     C31016   5.436   1.084  10.031  0.2079 -0.1169 -0.9177
  971MOL0     C31017   5.325   1.165  10.021 -0.1576  0.7445 -0.1599
  971MOL0     H31018   5.015   1.396   9.739  0.1675 -0.6988  1.2276
  971MOL0     H31019   4.857   1.592   9.691 -2.2891 -0.4862  0.3959
  971MOL0     H31020   4.811   1.814   9.709 -0.0045 -2.9286  0.4464
  971MOL0     H31021   4.657   1.725   9.708 -0.0942  0.0354 -1.0840
  971MOL0     H31022   4.675   1.979   9.876  0.8184  0.9734  0.0283
  971MOL0     H31023   4.655   1.991   9.711  2.8169  2.4371  2.6804
  971MOL0     H31024   4.432   1.990   9.810  0.4040  0.1855  3.6409
  971MOL0     H31025   4.450   1.834   9.718 -0.6332  2.5789 -1.2917
  971MOL0     H31026   4.472   1.711   9.907  1.2264 -0.2564  2.1278
  971MOL0     H31027   4.511   1.839  10.015 -2.4374 -0.5622  0.6553
  971MOL0     H31028   4.287   1.935  10.017 -2.3457  0.2513 -0.2499
  971MOL0     H31029   4.241   1.850   9.867  0.1765  0.7596 -0.9419
  971MOL0     H31030   4.256   1.630  10.014 -2.1311 -1.4189  2.2051
  971MOL0     H31031   4.308   1.737  10.143 -0.1566  1.1429  0.2840
  971MOL0     H31032   4.093   1.863  10.120 -0.0301 -0.6334  2.6475
  971MOL0     H31033   4.048   1.746   9.991 -1.2875  0.8646  0.0935
  971MOL0     H31034   4.086   1.664  10.288 -1.1868 -3.7001  0.0214
  971MOL0     H31035   4.043   1.565  10.158 -0.8229  0.4562 -1.2853
  971MOL0     H31036   3.808   1.509  10.140 -2.6913 -1.0652  1.7649
  971MOL0     H31037   3.471   1.695  10.207 -1.1090 -0.5225 -0.4625
  971MOL0     H31038   3.530   1.526  10.183  2.1458  0.6820 -0.9551
  971MOL0     H31039   3.456   1.679  10.433 -1.6867  1.4970 -2.6227
  971MOL0     H31040   3.584   1.543  10.443 -0.7515 -2.8033  0.3720
  971MOL0     H31041   3.423   1.391  10.325  0.6335 -1.1425  1.5960
  971MOL0     H31042   3.293   1.512  10.327  1.5128  2.9707 -1.1438
  971MOL0     H31043   3.427   1.377  10.553  0.5103  2.2550  2.4459
  971MOL0     H31044   3.256   1.336  10.504 -0.6294  0.6628 -0.4138
  971MOL0     H31045   3.215   1.659  10.758  0.5446  1.7487 -0.6992
  971MOL0     H31046   2.897   1.706  10.918  2.2891  0.5293  1.4731
  971MOL0     H31047   3.057   1.790  10.885  0.7439  2.1273 -2.0341
  971MOL0     H31048   2.902   1.846  10.815 -1.8230 -1.4092 -1.9810
  971MOL0     H31049   2.480   1.656  10.731 -1.7820 -1.1759  1.1501
  971MOL0     H31050   2.246   1.652  10.695  0.1912  1.1766 -1.1416
  971MOL0     H31051   2.077   1.691  10.320  1.0320  0.3462  0.0771
  971MOL0     H31052   2.082   1.507  10.321 -1.1463 -0.7944  1.3619
  971MOL0     H31053   1.866   1.510  10.454  1.1394 -1.2832 -1.5078
  971MOL0     H31054   1.884   1.690  10.452  0.5383  0.0462  0.4637
  971MOL0     H31055   1.824   1.494  10.223 -0.1520  0.2643 -0.1530
  971MOL0     H31056   1.872   1.667  10.204  0.6540  1.6197  3.8325
  971MOL0     H31057   1.622   1.578  10.356 -2.1365 -0.2629 -2.0180
  971MOL0     H31058   1.679   1.748  10.314  1.0874 -0.3315  1.1039
  971MOL0     H31059   1.609   1.539  10.109  0.3650  0.5081 -0.6457
  971MOL0     H31060   1.623   1.711  10.096 -0.1543  0.4394 -0.1172
  971MOL0     H31061   1.398   1.564  10.252 -0.3776  0.0245 -0.9176
  971MOL0     H31062   1.438   1.731  10.259 -5.1792 -2.3419  2.1009
  971MOL0     H31063   1.400   1.748  10.002  0.8666 -0.7039 -1.0385
  971MOL0     H31064   1.264   1.704  10.088  1.8017  2.2504 -1.6476
  971MOL0     H31065   1.424   1.470   9.988  0.4639  0.7144  0.0424
  971MOL0     H31066   1.315   1.564   9.889 -0.4138  1.1096  1.3402
  971MOL0     H31067   2.307   1.588  10.276  0.2139  2.2669 -0.3913
  971MOL0     H31068   2.561   1.618  10.314 -0.9164 -1.6968 -0.6456
  971MOL0     H31069   2.857   1.515  10.460 -0.4375  1.7113  0.2502
  971MOL0     H31070   3.097   1.443  10.420  1.8830  0.5916 -0.5287
  971MOL0     H31071   4.849   1.675  10.113  2.7807  0.8990 -0.7496
  971MOL0     H31072   5.012   1.502  10.148 -0.9616 -1.3759  0.2015
  971MOL0     H31073   5.171   0.990   9.761  0.1816  2.5041 -0.6051
  971MOL0     H31074   5.370   0.857   9.788  0.6274 -0.0303  0.2845
  971MOL0     H31075   5.673   0.975  10.107  1.0007 -0.2374 -0.4385
  971MOL0     H31076   5.542   0.877  10.179 -1.0901 -0.6415 -0.9024
  971MOL0     H31077   5.761   0.787  10.216 -3.0123  0.9973  1.0430
  971MOL0     H31078   5.804   0.783  10.048  0.4711 -4.3391 -0.9927
  971MOL0     H31079   5.662   0.594   9.996 -1.8791 -1.3053  0.7103
  971MOL0     H31080   5.569   0.615  10.139  1.0292 -0.4799  0.6796
  971MOL0     H31081   5.729   0.427  10.148 -0.6639  0.1865  1.7058
  971MOL0     H31082   5.764   0.546  10.267 -1.3463  0.6197  0.0553
  971MOL0     H31083   6.108   0.472  10.011 -0.9576 -2.7727  0.7776
  971MOL0     H31084   5.502   1.101  10.115 -1.6434 -0.3082  0.6657
  971MOL0     H31085   5.325   1.252  10.086 -1.3037  1.2576 -0.8225
  972MOL0     O31086   8.105   6.954  10.958 -0.1573  0.4251  0.7027
  972MOL0     C31087   8.117   6.899  11.067  0.8284  0.7927  0.4340
  972MOL0     O31088   8.038   6.802  11.117  0.0652 -1.0285 -0.5548
  972MOL0     C31089   7.908   6.790  11.069  0.1123 -0.4917  0.2756
  972MOL0     C31090   7.826   6.893  11.030  1.1541  0.1437  0.9470
  972MOL0     C31091   7.695   6.870  10.986 -0.4073  0.2609  0.5943
  972MOL0     C31092   7.652   6.738  10.980  0.2895  0.2068  0.2921
  972MOL0     O31093   7.526   6.700  10.944  0.0977 -0.8522 -1.0000
  972MOL0     C31094   7.456   6.786  10.856  0.4585  0.1491  0.0266
  972MOL0     C31095   7.319   6.729  10.810 -0.2549 -0.1290 -0.2861
  972MOL0     C31096   7.212   6.723  10.917 -0.4923  0.1647  0.7955
  972MOL0     C31097   7.073   6.683  10.871  0.0672 -0.7049  0.6786
  972MOL0     C31098   6.983   6.709  10.993 -0.1708  0.9220 -0.1978
  972MOL0     C31099   6.829   6.683  10.967 -0.4076 -0.2092 -0.1750
  972MOL0     C31100   6.752   6.704  11.099  0.2632 -0.6517 -0.2680
  972MOL0     C31101   6.790   6.832  11.164  1.0735  0.8223 -0.4345
  972MOL0     N31102   6.782   6.945  11.069  0.0572  0.1434 -0.9846
  972MOL0     C31103   6.672   6.978  10.997 -0.0000 -1.3807  0.1398
  972MOL0     C31104   6.701   7.097  10.937 -0.8512  0.2309  0.0412
  972MOL0     C31105   6.617   7.171  10.839  0.1238 -0.5551 -0.3128
  972MOL0     C31106   6.499   7.231  10.901 -0.1844  0.6273  0.4037
  972MOL0     C31107   6.546   7.340  11.004 -0.4187  0.0127  0.6211
  972MOL0     C31108   6.431   7.394  11.087 -0.2807 -0.4083 -0.3958
  972MOL0     O31109   6.339   7.456  11.000  0.1506 -0.0811 -0.4262
  972MOL0     C31110   6.206   7.459  11.039 -0.5071 -0.1279  0.8131
  972MOL0     C31111   6.163   7.437  11.169  0.5418  0.8294 -0.5759
  972MOL0     C31112   6.029   7.443  11.201  0.3297  0.7418  0.3194
  972MOL0     C31113   6.004   7.451  11.351  0.4855 -0.2671  0.6881
  972MOL0     C31114   5.926   7.451  11.095 -0.2424 -0.1755 -0.6001
  972MOL0     C31115   5.778   7.458  11.124  0.1595  0.3087 -0.0073
  972MOL0     O31116   5.694   7.436  11.023 -0.0200  0.6230  0.2739
  972MOL0     C31117   5.560   7.441  11.055 -0.1581  0.2689  1.0070
  972MOL0     C31118   5.469   7.516  10.981 -0.0225  0.4097 -0.9572
  972MOL0     C31119   5.333   7.514  11.010 -1.1832 -0.1949 -0.4315
  972MOL0     C31120   5.287   7.419  11.101  0.1943  0.1550 -0.6130
  972MOL0     O31121   5.155   7.415  11.135  0.8465  0.5964 -0.2176
  972MOL0     C31122   5.058   7.442  11.034  0.1467  0.2615 -0.1046
  972MOL0     C31123   4.940   7.347  11.062 -0.6385  0.3523  0.9722
  972MOL0     C31124   4.888   7.336  11.205 -0.0952 -0.2738  0.2744
  972MOL0     C31125   4.850   7.476  11.258 -0.0582  0.2298  0.2277
  972MOL0     C31126   4.748   7.478  11.381  0.1104 -0.0797 -0.0938
  972MOL0     C31127   4.618   7.408  11.362  0.2502 -0.0532 -0.4109
  972MOL0     C31128   4.515   7.473  11.460  0.9742  0.9649  0.4294
  972MOL0     C31129   4.375   7.420  11.407 -1.3914  0.2045 -0.7251
  972MOL0    Cl31130   4.341   7.498  11.260  0.0436  0.4107  0.4318
  972MOL0     C31131   5.371   7.345  11.181 -0.6994 -0.1341  0.2618
  972MOL0     C31132   5.510   7.357  11.153  0.0791 -0.3143 -0.5796
  972MOL0     O31133   5.740   7.495  11.238 -0.0712 -0.5559 -0.0181
  972MOL0     C31134   5.974   7.458  10.968 -0.9911 -0.3711 -0.1316
  972MOL0     C31135   6.114   7.469  10.940 -0.4504 -0.7739  0.4893
  972MOL0     N31136   6.824   7.141  10.982 -0.1396  0.3972 -0.4151
  972MOL0     N31137   6.877   7.051  11.062  0.2307  0.4737 -0.1672
  972MOL0     C31138   7.734   6.635  11.029  0.1875 -0.5550  0.1411
  972MOL0     C31139   7.863   6.657  11.073  0.6437  0.0564  0.4793
  972MOL0     C31140   8.241   6.935  11.142 -0.3020  0.5082  0.0315
  972MOL0     C31141   8.281   6.870  11.260 -0.1176  0.7359  0.3298
  972MOL0     C31142   8.397   6.905  11.328 -0.4041 -0.1279  0.7918
  972MOL0     C31143   8.479   7.016  11.282  0.3519  0.0168 -0.2933
  972MOL0     O31144   8.593   7.036  11.363  0.2834  0.5482 -0.1566
  972MOL0     C31145   8.677   7.150  11.361 -0.4212 -0.9876  0.1908
  972MOL0     C31146   8.798   7.115  11.270  0.0557  0.3126 -0.2817
  972MOL0     C31147   8.781   7.148  11.117  0.2679  0.7501 -0.0126
  972MOL0     C31148   8.792   7.298  11.115  0.0761 -0.0118  0.3732
  972MOL0     C31149   8.758   7.355  10.984 -0.1561 -0.1364 -0.1628
  972MOL0     C31150   8.730   7.401  10.871  0.3211  0.0829 -0.1059
  972MOL0     C31151   8.433   7.092  11.168 -0.4654  0.5901 -0.0500
  972MOL0     C31152   8.325   7.043  11.094 -1.2775  0.0815  0.3609
  972MOL0     H31153   7.868   6.991  11.050  1.7580  0.0987 -0.0801
  972MOL0     H31154   7.627   6.950  10.959 -2.0286 -1.8258 -2.0439
  972MOL0     H31155   7.436   6.880  10.908  0.4597  0.0849  0.1445
  972MOL0     H31156   7.528   6.805  10.776 -0.0784 -0.3950 -0.5897
  972MOL0     H31157   7.291   6.788  10.722  0.0532 -2.0930 -1.7547
  972MOL0     H31158   7.333   6.627  10.774  0.4043 -0.8887  1.9347
  972MOL0     H31159   7.248   6.652  10.993 -1.5488  0.6685  1.7868
  972MOL0     H31160   7.197   6.817  10.971  0.1222 -0.8774  2.8988
  972MOL0     H31161   7.035   6.745  10.788  1.4300 -3.0838 -1.8949
  972MOL0     H31162   7.068   6.581  10.833  0.6638 -0.7961  0.8410
  972MOL0     H31163   7.020   6.652  11.079 -2.8476 -0.2636  0.2840
  972MOL0     H31164   6.993   6.813  11.026 -1.3945  0.9160  0.2457
  972MOL0     H31165   6.784   6.745  10.889  0.8384 -0.5830 -1.2278
  972MOL0     H31166   6.816   6.576  10.948 -2.9390 -0.2113  1.0577
  972MOL0     H31167   6.643   6.692  11.094 -0.0037  1.6139 -1.1437
  972MOL0     H31168   6.777   6.624  11.169  0.5630 -2.0610 -1.9231
  972MOL0     H31169   6.888   6.820  11.212  1.0327 -2.2495 -0.9135
  972MOL0     H31170   6.710   6.848  11.236  0.7967  1.4931 -0.8824
  972MOL0     H31171   6.590   6.912  10.972  0.4159 -2.1058  0.6176
  972MOL0     H31172   6.679   7.250  10.796  1.8523 -1.3864  0.5270
  972MOL0     H31173   6.585   7.104  10.759  0.1978 -0.2808 -0.5699
  972MOL0     H31174   6.439   7.151  10.944  1.0368 -0.9674 -0.7705
  972MOL0     H31175   6.438   7.279  10.824 -0.5311  1.7550  1.3394
  972MOL0     H31176   6.594   7.418  10.944  1.6659  0.4164  2.6905
  972MOL0     H31177   6.624   7.297  11.067  0.5649  0.1489 -0.4706
  972MOL0     H31178   6.470   7.464  11.161 -0.1126  1.0861 -1.8406
  972MOL0     H31179   6.382   7.311  11.139 -0.9781 -0.8241 -1.6598
  972MOL0     H31180   6.234   7.426  11.251 -0.0876  0.2010 -0.1072
  972MOL0     H31181   5.902   7.416  11.373 -0.3261  0.3095 -1.7489
  972MOL0     H31182   6.076   7.388  11.403  0.3614 -0.1865  0.9564
  972MOL0     H31183   6.014   7.553  11.387  0.4267  0.0425 -0.1487
  972MOL0     H31184   5.487   7.568  10.887 -3.7774 -1.3802 -2.8959
  972MOL0     H31185   5.264   7.583  10.963 -1.7460 -0.8484 -0.5988
  972MOL0     H31186   5.014   7.541  11.049  0.0410  0.0026  1.4603
  972MOL0     H31187   5.105   7.432  10.935  1.2363 -0.6599  0.4882
  972MOL0     H31188   4.860   7.366  10.990  0.0339 -0.1505  0.0597
  972MOL0     H31189   4.975   7.246  11.037  1.0762  1.0521  0.3865
  972MOL0     H31190   4.967   7.302  11.273  0.8751  0.6508 -0.3470
  972MOL0     H31191   4.811   7.258  11.208  0.8703 -1.3379 -1.2566
  972MOL0     H31192   4.938   7.523  11.302  0.8294 -0.8392 -0.3544
  972MOL0     H31193   4.819   7.542  11.177 -1.0920  1.5234  1.6020
  972MOL0     H31194   4.728   7.581  11.412 -0.0038  0.0442 -0.5639
  972MOL0     H31195   4.806   7.430  11.460 -0.3640 -0.6561 -0.0836
  972MOL0     H31196   4.591   7.427  11.257  2.9256 -1.7754 -1.5091
  972MOL0     H31197   4.625   7.301  11.385 -1.6729  0.1915  1.6377
  972MOL0     H31198   4.512   7.582  11.456  0.4206  0.9132 -2.0385
  972MOL0     H31199   4.542   7.442  11.561 -0.2471  2.2624  1.1976
  972MOL0     H31200   4.291   7.435  11.475 -0.3861 -0.5925  0.7647
  972MOL0     H31201   4.395   7.313  11.397 -0.0176  0.3601  0.0764
  972MOL0     H31202   5.345   7.276  11.261 -0.8467 -1.7363 -1.1119
  972MOL0     H31203   5.579   7.300  11.214 -0.3108 -1.7599 -1.4277
  972MOL0     H31204   5.905   7.470  10.885 -0.0453 -0.3418 -0.9327
  972MOL0     H31205   6.141   7.467  10.835  0.7281 -2.4054  0.7764
  972MOL0     H31206   7.690   6.536  11.028  0.4771 -0.7143 -1.8907
  972MOL0     H31207   7.925   6.574  11.104  0.1068 -0.6845 -0.3710
  972MOL0     H31208   8.216   6.789  11.294  0.6380  0.0988  0.3039
  972MOL0     H31209   8.435   6.852  11.415  3.0319  0.9803  0.1353
  972MOL0     H31210   8.620   7.236  11.324  1.0424  0.5426  1.3468
  972MOL0     H31211   8.708   7.171  11.463 -1.4781 -2.1027  0.7693
  972MOL0     H31212   8.813   7.007  11.277  0.7669  0.4506  0.5172
  972MOL0     H31213   8.892   7.159  11.305  0.1599 -0.9021  1.0538
  972MOL0     H31214   8.689   7.117  11.068  1.3607 -1.3513 -0.8730
  972MOL0     H31215   8.862   7.097  11.063  0.0700  1.3792 -0.9245
  972MOL0     H31216   8.898   7.319  11.137 -0.0846  1.5339 -0.2186
  972MOL0     H31217   8.724   7.346  11.186  0.4577  1.1375 -0.0113
  972MOL0     H31218   8.698   7.439  10.777 -0.7025 -0.2956  0.0763
  972MOL0     H31219   8.492   7.179  11.142 -0.1019  0.2357 -0.4068
  972MOL0     H31220   8.307   7.106  11.008  1.3111  1.6136  0.8186
  973MOL0     O31221   2.011   2.587   3.239 -0.1537 -0.2750  0.5120
  973MOL0     C31222   2.094   2.662   3.194 -0.1682  0.7241  0.0067
  973MOL0     O31223   2.075   2.797   3.184  0.7719 -0.3012  0.1311
  973MOL0     C31224   1.953   2.851   3.195  0.5929 -0.5688  0.3859
  973MOL0     C31225   1.857   2.885   3.095  0.0160 -0.3564 -0.1003
  973MOL0     C31226   1.729   2.938   3.131 -0.4216  0.4984  0.1748
  973MOL0     C31227   1.702   2.976   3.268 -0.4394  0.4066  0.1578
  973MOL0     O31228   1.568   3.005   3.294 -0.1211 -0.3251  0.3613
  973MOL0     C31229   1.533   3.036   3.432  0.5711 -0.4510 -0.2318
  973MOL0     C31230   1.507   2.903   3.506 -0.8761 -0.3623  0.3394
  973MOL0     C31231   1.366   2.857   3.473  0.9738 -0.4907  0.0924
  973MOL0     C31232   1.334   2.747   3.569 -0.0177  0.2197  0.1784
  973MOL0     C31233   1.219   2.661   3.517  0.4104  0.0596 -0.1422
  973MOL0     C31234   1.076   2.726   3.516 -0.2400  0.2890  0.0863
  973MOL0     C31235   0.971   2.634   3.468  0.3165 -0.4506  0.7655
  973MOL0     C31236   0.828   2.685   3.440  1.0311 -0.6595 -0.1281
  973MOL0     N31237   0.725   2.663   3.546  0.1852 -0.0566 -0.6384
  973MOL0     C31238   0.599   2.687   3.537 -0.1880  0.0041  0.1255
  973MOL0     C31239   0.534   2.617   3.635 -0.1434 -0.3258 -0.2929
  973MOL0     C31240   0.383   2.604   3.636  0.1716 -0.1817  0.1015
  973MOL0     C31241   0.311   2.545   3.755  0.5676  0.2785 -0.1864
  973MOL0     C31242   0.159   2.561   3.740  0.6138  0.3728  0.9297
  973MOL0     C31243   0.080   2.462   3.837 -0.4651  0.0429 -0.4889
  973MOL0     O31244   0.089   2.519   3.973 -0.5522 -0.6221 -0.5187
  973MOL0     C31245   0.003   2.622   4.009 -0.1634 -0.2714  0.3397
  973MOL0     C31246   0.050   2.720   4.102 -0.5598 -0.9223  0.5445
  973MOL0     C31247  -0.033   2.832   4.134  0.0758  0.0888 -0.9428
  973MOL0     C31248   0.014   2.942   4.231 -0.0521  0.3769  0.2449
  973MOL0     C31249  -0.165   2.843   4.080 -0.0397  0.0830 -0.6380
  973MOL0     C31250  -0.253   2.951   4.122 -0.8608 -0.3701 -0.5549
  973MOL0     O31251  -0.279   2.955   4.251 -0.0074  0.1332  0.7358
  973MOL0     C31252  -0.398   3.014   4.286  0.0670  0.4424  0.5044
  973MOL0     C31253  -0.504   2.938   4.337  0.4021 -0.1374  0.9024
  973MOL0     C31254  -0.617   3.005   4.398 -0.4188  0.2586  0.7156
  973MOL0     C31255  -0.623   3.146   4.402 -0.8293  0.5120 -0.0476
  973MOL0     O31256  -0.742   3.203   4.435  0.6719  0.1373  0.1246
  973MOL0     C31257  -0.824   3.255   4.328 -0.5652 -0.2202  1.5103
  973MOL0     C31258  -0.870   3.148   4.227 -0.1343  0.1055 -0.1860
  973MOL0     C31259  -0.772   3.135   4.112 -0.0401 -0.1670  0.5285
  973MOL0     C31260  -0.754   3.000   4.050  0.6450  0.1492 -0.5512
  973MOL0     C31261  -0.697   2.989   3.913 -0.7797  0.0678  0.2321
  973MOL0     C31262  -0.705   2.851   3.845 -0.6709  0.0189  0.0694
  973MOL0     C31263  -0.597   2.752   3.887 -0.6064 -0.6245 -0.1578
  973MOL0     C31264  -0.548   2.657   3.774 -0.4557 -0.4104 -0.0477
  973MOL0    Cl31265  -0.483   2.498   3.832  0.3176 -0.0163 -0.3960
  973MOL0     C31266  -0.522   3.217   4.347  1.3247  0.0710 -0.1634
  973MOL0     C31267  -0.415   3.154   4.283 -0.2421 -1.1583  0.6049
  973MOL0     O31268  -0.305   3.022   4.036  0.5967  0.0829  0.2470
  973MOL0     C31269  -0.212   2.732   4.002  0.4417 -0.4058 -0.5806
  973MOL0     C31270  -0.132   2.628   3.965 -0.3753  0.5050  0.9074
  973MOL0     N31271   0.629   2.539   3.705  0.3700 -0.2388  0.7557
  973MOL0     N31272   0.743   2.566   3.642  0.1186  1.1740  0.0615
  973MOL0     C31273   1.806   2.945   3.362  0.2203  0.1087  0.0167
  973MOL0     C31274   1.924   2.886   3.331 -0.2444  0.1288  0.5096
  973MOL0     C31275   2.213   2.602   3.148 -0.5294  0.8648 -0.7094
  973MOL0     C31276   2.329   2.673   3.129  0.9667 -0.5221 -0.2637
  973MOL0     C31277   2.453   2.612   3.106 -0.2411 -0.2362 -0.7715
  973MOL0     C31278   2.465   2.469   3.107 -0.2750 -0.2287 -0.6314
  973MOL0     O31279   2.580   2.409   3.116 -0.2182  0.2470 -0.1184
  973MOL0     C31280   2.660   2.403   2.991  0.1924  0.3299 -1.2355
  973MOL0     C31281   2.603   2.292   2.899  0.1976  0.2667  0.7851
  973MOL0     C31282   2.710   2.221   2.824  0.3694  0.2589 -0.2866
  973MOL0     C31283   2.668   2.132   2.707 -0.2250  0.0401  0.4995
  973MOL0     C31284   2.791   2.103   2.632 -0.4453 -0.3995 -0.5515
  973MOL0     C31285   2.883   2.070   2.560  0.0827  0.3176 -0.4911
  973MOL0     C31286   2.344   2.397   3.129 -0.5816  0.5251  0.2770
  973MOL0     C31287   2.220   2.457   3.150  0.3883 -0.5340  0.4762
  973MOL0     H31288   1.881   2.857   2.993 -3.4082 -0.2465 -1.0640
  973MOL0     H31289   1.650   2.950   3.057 -0.4875  1.5233  0.3922
  973MOL0     H31290   1.614   3.091   3.481  2.1166 -1.7998 -1.1527
  973MOL0     H31291   1.441   3.096   3.429  0.3389 -0.7845  0.1973
  973MOL0     H31292   1.580   2.825   3.483 -0.7083 -0.3850  0.9164
  973MOL0     H31293   1.515   2.916   3.615  0.1147  1.4587  0.0915
  973MOL0     H31294   1.295   2.938   3.493  1.7754  0.3187 -0.2933
  973MOL0     H31295   1.344   2.816   3.374 -2.2825 -1.6194  1.1333
  973MOL0     H31296   1.417   2.677   3.565 -0.5302 -0.3399 -0.9359
  973MOL0     H31297   1.329   2.786   3.672 -2.3288 -0.4368  0.3761
  973MOL0     H31298   1.248   2.611   3.424 -1.1169 -2.8512  0.8165
  973MOL0     H31299   1.210   2.577   3.586 -0.4488 -0.9614 -1.4478
  973MOL0     H31300   1.049   2.764   3.615 -0.5356  1.5324 -0.4518
  973MOL0     H31301   1.076   2.817   3.456 -2.8647  2.9396  3.6464
  973MOL0     H31302   1.013   2.588   3.378 -2.5308 -1.7975  0.0121
  973MOL0     H31303   0.972   2.559   3.547 -0.5625 -1.2621  0.0253
  973MOL0     H31304   0.791   2.632   3.352 -2.1738  2.0085 -0.5930
  973MOL0     H31305   0.848   2.790   3.415  3.5886 -0.8609  0.7651
  973MOL0     H31306   0.544   2.744   3.463  0.7463  1.8593  0.8010
  973MOL0     H31307   0.354   2.708   3.616  2.4345  0.2375 -1.3677
  973MOL0     H31308   0.353   2.547   3.548  0.0333 -0.5317  0.3759
  973MOL0     H31309   0.356   2.582   3.848  2.9216 -2.5486 -0.0644
  973MOL0     H31310   0.335   2.439   3.762  1.0605  0.2939 -1.4006
  973MOL0     H31311   0.139   2.550   3.633  5.0719  1.3398 -0.2163
  973MOL0     H31312   0.120   2.662   3.758  0.7152  0.9023 -1.5412
  973MOL0     H31313   0.129   2.364   3.832 -1.0865 -0.2343 -1.6547
  973MOL0     H31314  -0.024   2.465   3.803 -1.3869  3.1091  2.0856
  973MOL0     H31315   0.151   2.706   4.137 -0.0048  0.6155 -0.3765
  973MOL0     H31316   0.121   2.923   4.243 -0.2875 -0.4383  1.2838
  973MOL0     H31317  -0.005   3.037   4.180 -0.3501  0.3164  0.2386
  973MOL0     H31318  -0.028   2.940   4.332  1.1891  2.2768  0.8451
  973MOL0     H31319  -0.489   2.832   4.321  1.1549  0.0317  0.4451
  973MOL0     H31320  -0.710   2.953   4.413 -0.5976 -0.2113 -1.6037
  973MOL0     H31321  -0.911   3.311   4.365 -1.0774  1.1370 -1.4967
  973MOL0     H31322  -0.769   3.336   4.280  1.1789 -0.6074  2.7593
  973MOL0     H31323  -0.891   3.060   4.289 -0.8843  0.7446  0.4837
  973MOL0     H31324  -0.966   3.189   4.196 -0.2842  0.2824  0.4966
  973MOL0     H31325  -0.671   3.167   4.139  1.3033 -2.0821 -1.8051
  973MOL0     H31326  -0.809   3.204   4.035 -2.1604 -1.9141 -0.1462
  973MOL0     H31327  -0.698   2.937   4.119 -0.2804 -1.5321 -1.2763
  973MOL0     H31328  -0.853   2.953   4.051 -1.1527  3.5853 -0.3519
  973MOL0     H31329  -0.595   3.029   3.913 -0.5568 -0.4824  0.3347
  973MOL0     H31330  -0.751   3.060   3.850 -1.0890 -0.5013 -0.1605
  973MOL0     H31331  -0.797   2.802   3.879  0.9790 -2.1363  1.7119
  973MOL0     H31332  -0.714   2.863   3.737 -0.9382  0.9955  0.1917
  973MOL0     H31333  -0.626   2.701   3.980  1.3172  1.4021  1.6433
  973MOL0     H31334  -0.512   2.813   3.917 -1.1095  0.1882 -0.3371
  973MOL0     H31335  -0.472   2.700   3.709  1.7543 -1.2706  1.8375
  973MOL0     H31336  -0.636   2.638   3.712  0.9663 -0.5246 -2.1148
  973MOL0     H31337  -0.535   3.325   4.353  0.3521 -0.0787  0.7305
  973MOL0     H31338  -0.329   3.213   4.254  1.2213 -2.5572  1.9070
  973MOL0     H31339  -0.316   2.734   3.971 -0.0704 -0.6669  1.0552
  973MOL0     H31340  -0.177   2.559   3.894  0.1785  1.4834 -0.4535
  973MOL0     H31341   1.791   2.982   3.463  4.0569  1.2065  0.3759
  973MOL0     H31342   2.001   2.854   3.400  0.4323 -1.2245 -0.7988
  973MOL0     H31343   2.335   2.781   3.139  2.2236 -0.5919 -0.0655
  973MOL0     H31344   2.539   2.678   3.099 -0.4722  0.1914  0.2561
  973MOL0     H31345   2.670   2.495   2.933  1.4170  0.1358 -1.3657
  973MOL0     H31346   2.756   2.358   3.017  0.4247  1.7555  0.5538
  973MOL0     H31347   2.542   2.344   2.825  1.4621 -0.3639 -0.7654
  973MOL0     H31348   2.534   2.234   2.960 -0.3677  1.3274  1.1785
  973MOL0     H31349   2.743   2.144   2.895 -1.5231 -0.0199  0.3415
  973MOL0     H31350   2.791   2.289   2.794 -0.5358  0.4560 -2.4760
  973MOL0     H31351   2.593   2.196   2.659  0.5988  4.5907  4.5369
  973MOL0     H31352   2.631   2.038   2.747 -1.2683 -0.7826 -2.1864
  973MOL0     H31353   2.959   2.045   2.489  1.6326  2.2775  0.3594
  973MOL0     H31354   2.359   2.289   3.130  1.5633  0.6795  4.5447
  973MOL0     H31355   2.135   2.389   3.158  1.0965 -1.6387 -0.8770
  974MOL0     O31356   7.049   4.065   8.895  0.1170 -0.0353  0.3787
  974MOL0     C31357   7.106   4.177   8.904 -0.1856 -0.0841  0.8644
  974MOL0     O31358   7.045   4.303   8.907 -0.7669 -0.4793  0.9522
  974MOL0     C31359   6.909   4.326   8.904  0.6595  0.3208  0.4436
  974MOL0     C31360   6.871   4.446   8.949  0.8313  0.7330 -0.5675
  974MOL0     C31361   6.736   4.487   8.945  0.5645  0.6918 -0.0826
  974MOL0     C31362   6.638   4.409   8.881  0.8870  0.8754  0.1628
  974MOL0     O31363   6.516   4.465   8.862 -0.0683  0.1725 -0.3227
  974MOL0     C31364   6.391   4.385   8.860 -0.2605 -0.4329 -0.5972
  974MOL0     C31365   6.321   4.385   8.728  0.5902 -0.1981  0.1554
  974MOL0     C31366   6.195   4.301   8.725 -0.0581 -0.0773 -0.7954
  974MOL0     C31367   6.141   4.282   8.583  0.0159 -0.3292 -0.5740
  974MOL0     C31368   5.995   4.301   8.564 -0.4431  0.0613 -0.5087
  974MOL0     C31369   5.951   4.279   8.415 -0.4436  0.5171  0.3529
  974MOL0     C31370   5.805   4.306   8.383 -0.4021 -0.4649 -0.3507
  974MOL0     C31371   5.778   4.457   8.357  0.7943  0.2133 -0.3659
  974MOL0     N31372   5.636   4.481   8.339 -0.1923 -0.6567  0.0654
  974MOL0     C31373   5.566   4.595   8.356 -0.4700  0.0522  0.3527
  974MOL0     C31374   5.445   4.571   8.304 -0.0297  0.0856  0.5010
  974MOL0     C31375   5.332   4.668   8.300  0.0401 -0.2372 -0.0066
  974MOL0     C31376   5.236   4.651   8.417  0.9299 -0.4141 -0.2311
  974MOL0     C31377   5.134   4.763   8.430 -1.2170  0.5613  0.5103
  974MOL0     C31378   5.027   4.753   8.330  0.2497  0.1462 -0.2101
  974MOL0     O31379   4.955   4.623   8.346 -0.4347 -0.4859 -1.4629
  974MOL0     C31380   4.832   4.606   8.294 -0.1594  0.5916  0.0648
  974MOL0     C31381   4.766   4.699   8.221  0.4022 -0.8621 -0.5019
  974MOL0     C31382   4.638   4.672   8.159 -0.0982 -0.6997  0.1955
  974MOL0     C31383   4.577   4.777   8.061  0.2628 -0.0798 -0.0982
  974MOL0     C31384   4.576   4.550   8.187 -0.1177 -0.3718  0.1139
  974MOL0     C31385   4.443   4.517   8.124 -0.8810 -0.4279  0.3392
  974MOL0     O31386   4.329   4.589   8.176 -0.1594  0.9358  0.0026
  974MOL0     C31387   4.210   4.548   8.134  0.2933  0.0299  0.0772
  974MOL0     C31388   4.146   4.429   8.180  0.8403  0.5915  0.0157
  974MOL0     C31389   4.029   4.391   8.117 -0.3054  0.4453 -0.1840
  974MOL0     C31390   3.965   4.460   8.014 -0.4848  0.3947 -0.1170
  974MOL0     O31391   3.855   4.415   7.949 -0.1110  0.6040  0.4132
  974MOL0     C31392   3.728   4.460   7.985  0.5814  0.1164  0.0797
  974MOL0     C31393   3.674   4.400   8.116  0.4842  0.0751  0.1185
  974MOL0     C31394   3.523   4.395   8.143  0.4293  0.8818 -1.8060
  974MOL0     C31395   3.461   4.536   8.129  0.5250 -0.2057 -1.5682
  974MOL0     C31396   3.315   4.521   8.167  0.1056  0.3418  0.3393
  974MOL0     C31397   3.286   4.499   8.310  0.3280 -0.9338 -0.0924
  974MOL0     C31398   3.141   4.455   8.332 -0.2683  0.8852  0.5628
  974MOL0     C31399   3.098   4.449   8.476  0.2579 -0.1694  0.0049
  974MOL0    Cl31400   3.182   4.327   8.568  0.5575 -0.1894 -0.1619
  974MOL0     C31401   4.024   4.583   7.975 -1.0575 -0.5038  0.3421
  974MOL0     C31402   4.144   4.629   8.035  0.2121 -0.0175  0.4759
  974MOL0     O31403   4.436   4.424   8.039  0.4564  0.0798  0.4993
  974MOL0     C31404   4.646   4.452   8.265  0.9824  0.0425  0.1335
  974MOL0     C31405   4.775   4.478   8.312 -0.6750 -0.7054  0.0326
  974MOL0     N31406   5.438   4.446   8.247  0.2471  0.1703  0.9133
  974MOL0     N31407   5.557   4.392   8.266 -0.1794 -0.0704  0.4354
  974MOL0     C31408   6.681   4.278   8.833  0.5286 -0.8931 -0.5802
  974MOL0     C31409   6.816   4.245   8.840  0.2506  0.6620 -1.3375
  974MOL0     C31410   7.253   4.179   8.909 -0.2711  0.2577 -0.2016
  974MOL0     C31411   7.326   4.057   8.896  0.7246  0.0418 -0.8713
  974MOL0     C31412   7.460   4.055   8.873  0.4602 -0.0089  0.0844
  974MOL0     C31413   7.532   4.182   8.869  0.9567  0.5917 -0.3108
  974MOL0     O31414   7.665   4.192   8.835  0.2430  0.2189 -0.2538
  974MOL0     C31415   7.728   4.072   8.780  0.0481  0.1426 -0.6366
  974MOL0     C31416   7.781   3.980   8.898  0.3644  0.8618 -0.7639
  974MOL0     C31417   7.852   4.058   9.009 -0.0475  0.6356 -0.4325
  974MOL0     C31418   7.973   4.134   8.974  0.3055  0.5420 -0.4546
  974MOL0     C31419   8.091   4.055   8.942 -0.0045 -0.3122 -0.0033
  974MOL0     C31420   8.204   4.017   8.921 -0.0615 -0.3848 -0.0849
  974MOL0     C31421   7.465   4.304   8.895  0.4530  0.0238  1.8040
  974MOL0     C31422   7.326   4.305   8.899  0.0764  0.9251 -0.8237
  974MOL0     H31423   6.951   4.512   8.983  0.2687  0.8957  0.4758
  974MOL0     H31424   6.698   4.581   8.984  1.0742  1.1351 -0.6163
  974MOL0     H31425   6.423   4.283   8.886  1.4875 -0.1600 -1.5237
  974MOL0     H31426   6.329   4.434   8.935  2.3585  0.0152  1.4265
  974MOL0     H31427   6.291   4.484   8.693 -1.4566 -0.7777  0.1420
  974MOL0     H31428   6.389   4.350   8.650  1.6051  1.8722  0.0502
  974MOL0     H31429   6.218   4.203   8.767  1.0654 -0.1672 -1.5731
  974MOL0     H31430   6.117   4.339   8.791  0.7266 -1.1189  0.8062
  974MOL0     H31431   6.188   4.355   8.516 -1.5060  1.4765  0.2441
  974MOL0     H31432   6.175   4.183   8.550 -0.4228 -0.4462 -0.6787
  974MOL0     H31433   5.940   4.237   8.635  2.5370  0.8093  2.7507
  974MOL0     H31434   5.967   4.399   8.602 -3.8631 -1.9192  2.7865
  974MOL0     H31435   6.011   4.344   8.350 -0.7589 -0.1135 -0.5957
  974MOL0     H31436   5.975   4.175   8.389  1.3658  0.9829 -0.0002
  974MOL0     H31437   5.789   4.251   8.289  2.6540 -0.1612 -1.1593
  974MOL0     H31438   5.734   4.268   8.457 -0.3530 -2.1462 -1.1322
  974MOL0     H31439   5.827   4.488   8.264 -0.1837 -0.5427 -1.1657
  974MOL0     H31440   5.810   4.511   8.446 -1.0544  0.0881  0.4327
  974MOL0     H31441   5.592   4.687   8.406  1.9457 -0.5176  0.2664
  974MOL0     H31442   5.379   4.767   8.299 -1.0306  0.2879 -1.4820
  974MOL0     H31443   5.281   4.655   8.204  0.3961 -0.2741 -0.1943
  974MOL0     H31444   5.293   4.661   8.510 -1.8280  1.4371  1.3940
  974MOL0     H31445   5.181   4.557   8.414  0.1928  0.0061 -0.1905
  974MOL0     H31446   5.182   4.861   8.431  1.1075 -0.4717 -1.0495
  974MOL0     H31447   5.085   4.747   8.526 -0.6036 -1.4252  0.5339
  974MOL0     H31448   5.081   4.763   8.235  2.7037 -1.4350  0.9099
  974MOL0     H31449   4.968   4.844   8.343  1.2469  0.6679  0.9368
  974MOL0     H31450   4.810   4.796   8.197  0.2997 -1.1907 -2.1252
  974MOL0     H31451   4.648   4.809   7.984 -2.3009  0.5968 -2.3715
  974MOL0     H31452   4.490   4.726   8.018  0.7385 -1.8094  0.9365
  974MOL0     H31453   4.537   4.863   8.117 -0.1195 -2.5693  3.8088
  974MOL0     H31454   4.180   4.357   8.254 -3.1066 -0.1251  1.4427
  974MOL0     H31455   3.990   4.293   8.144 -0.9821  0.6623 -0.3525
  974MOL0     H31456   3.747   4.567   7.992 -2.6395  0.9497 -1.8898
  974MOL0     H31457   3.659   4.432   7.906  0.4950  4.0596 -1.4710
  974MOL0     H31458   3.712   4.297   8.114  1.2507  0.2641  2.0469
  974MOL0     H31459   3.719   4.436   8.209 -1.0812  0.6985  0.6752
  974MOL0     H31460   3.518   4.367   8.248 -0.7272 -2.4301 -2.5924
  974MOL0     H31461   3.462   4.321   8.089 -1.4089  0.7216  0.3763
  974MOL0     H31462   3.500   4.605   8.204 -0.1284 -1.7705  0.3043
  974MOL0     H31463   3.476   4.586   8.033  0.6954 -0.8584 -1.8896
  974MOL0     H31464   3.267   4.448   8.101  0.7568  0.0187  0.2101
  974MOL0     H31465   3.275   4.620   8.145 -1.3623 -0.0848  0.9863
  974MOL0     H31466   3.358   4.427   8.350 -0.0730 -2.0439 -1.3000
  974MOL0     H31467   3.297   4.589   8.372  0.1831 -2.6816  2.6884
  974MOL0     H31468   3.145   4.358   8.282 -0.3448 -0.0934  2.3485
  974MOL0     H31469   3.079   4.521   8.270  1.4741  1.9604 -0.0975
  974MOL0     H31470   2.990   4.438   8.484  0.2241  0.7557  1.0339
  974MOL0     H31471   3.125   4.537   8.535  2.8994 -1.6116  1.1475
  974MOL0     H31472   3.988   4.643   7.892  3.5196  2.4150  0.0840
  974MOL0     H31473   4.179   4.727   8.005 -1.0295  1.3135  3.0647
  974MOL0     H31474   4.596   4.359   8.294 -0.2047  0.4396 -0.5707
  974MOL0     H31475   4.841   4.408   8.364 -0.5737 -1.2495 -0.8063
  974MOL0     H31476   6.612   4.209   8.786 -1.0547  0.8123 -0.8939
  974MOL0     H31477   6.843   4.144   8.811 -0.7902 -0.4472  1.2707
  974MOL0     H31478   7.267   3.966   8.893 -0.1529  0.4347  1.8241
  974MOL0     H31479   7.509   3.962   8.845 -0.1658 -0.0630 -0.8776
  974MOL0     H31480   7.651   4.013   8.729 -2.3668  0.3108  2.5059
  974MOL0     H31481   7.816   4.096   8.720  1.8800 -2.6028  0.7605
  974MOL0     H31482   7.847   3.902   8.861 -2.3595 -2.4738  0.8278
  974MOL0     H31483   7.701   3.924   8.947  1.3790  0.0427 -0.0160
  974MOL0     H31484   7.880   3.993   9.092  2.7593  1.0426 -0.9571
  974MOL0     H31485   7.783   4.131   9.053  0.4365  0.1340  1.1888
  974MOL0     H31486   7.992   4.180   9.071 -2.7854 -1.3973  1.2491
  974MOL0     H31487   7.949   4.204   8.894 -0.8805  1.4411  0.6448
  974MOL0     H31488   8.309   3.996   8.910  0.6649  1.6105  2.0607
  974MOL0     H31489   7.525   4.394   8.905 -2.2770  1.7698  3.6502
  974MOL0     H31490   7.276   4.400   8.918 -0.0120  1.2860 -2.6824
  975MOL0     O31491   4.084   2.834   7.175  0.1827  0.4151 -0.7403
  975MOL0     C31492   4.044   2.759   7.270 -0.1681 -0.5780 -0.3548
  975MOL0     O31493   3.984   2.804   7.383 -0.2749 -0.1431 -0.0022
  975MOL0     C31494   3.944   2.934   7.402 -0.3133 -0.6528 -1.2486
  975MOL0     C31495   3.936   2.976   7.531 -0.5587  0.0069 -0.3062
  975MOL0     C31496   3.890   3.100   7.555 -0.0001 -0.7905 -0.6966
  975MOL0     C31497   3.851   3.185   7.455 -1.1621  0.3446 -0.0376
  975MOL0     O31498   3.796   3.305   7.493 -0.0888  0.0207 -0.0226
  975MOL0     C31499   3.734   3.394   7.400 -0.0801  0.0011 -0.5490
  975MOL0     C31500   3.701   3.535   7.457 -0.2805 -0.3200  0.9203
  975MOL0     C31501   3.834   3.595   7.517  0.4105 -0.2943 -0.3554
  975MOL0     C31502   3.819   3.742   7.568  0.0826  1.4292  0.8973
  975MOL0     C31503   3.748   3.746   7.694 -0.9104  0.2891  1.2351
  975MOL0     C31504   3.718   3.874   7.760 -0.1896  0.1736 -0.4751
  975MOL0     C31505   3.667   3.868   7.903 -0.0379  0.5367  0.8182
  975MOL0     C31506   3.644   4.012   7.949 -0.2752  0.6425 -0.6251
  975MOL0     N31507   3.609   4.013   8.094 -0.0940  0.0760  0.3730
  975MOL0     C31508   3.486   4.044   8.152  0.2221 -0.6776 -0.7494
  975MOL0     C31509   3.505   4.045   8.285  0.1968 -0.2010 -0.3281
  975MOL0     C31510   3.403   4.077   8.399  1.1951 -0.1051  1.0760
  975MOL0     C31511   3.264   4.008   8.374 -0.6670 -0.2160  0.0716
  975MOL0     C31512   3.277   3.857   8.377 -0.0271 -0.3865 -1.2325
  975MOL0     C31513   3.142   3.788   8.347 -0.2529  0.1896 -0.1236
  975MOL0     O31514   3.067   3.804   8.468  0.4790 -0.2964  0.3475
  975MOL0     C31515   2.945   3.745   8.471  0.0692 -0.0458 -0.4705
  975MOL0     C31516   2.936   3.608   8.496 -0.0357  1.3543  0.4857
  975MOL0     C31517   2.801   3.558   8.503 -0.4070  0.1219 -0.2926
  975MOL0     C31518   2.795   3.407   8.500 -0.2067 -0.8202  0.9942
  975MOL0     C31519   2.681   3.638   8.500  0.1227 -0.0682  0.5143
  975MOL0     C31520   2.537   3.590   8.518 -0.3173  0.3869  0.4155
  975MOL0     O31521   2.447   3.692   8.512  0.2285  0.3705 -0.0889
  975MOL0     C31522   2.320   3.649   8.517  0.4191  0.1581  0.0989
  975MOL0     C31523   2.260   3.625   8.645 -0.8075  0.7762  0.1030
  975MOL0     C31524   2.124   3.583   8.650  0.4740 -1.2452 -0.9420
  975MOL0     C31525   2.035   3.586   8.537  0.4727  0.3427 -0.6228
  975MOL0     O31526   1.899   3.564   8.555  0.7345  0.0415  0.5690
  975MOL0     C31527   1.824   3.552   8.435 -0.0510  0.6298  0.5051
  975MOL0     C31528   1.668   3.518   8.457 -0.0551 -0.3025 -0.5929
  975MOL0     C31529   1.582   3.620   8.379 -0.2719 -0.0566  0.4821
  975MOL0     C31530   1.435   3.571   8.393 -1.0509 -0.1966 -0.4686
  975MOL0     C31531   1.342   3.665   8.327 -1.0292 -0.0502 -0.6731
  975MOL0     C31532   1.197   3.617   8.324  0.7057  0.1937 -0.4631
  975MOL0     C31533   1.111   3.704   8.224 -0.5961  1.2985  0.1993
  975MOL0     C31534   1.054   3.828   8.281 -0.6594 -0.3981 -0.1784
  975MOL0    Cl31535   0.945   3.894   8.160 -0.0544 -0.3935 -0.1373
  975MOL0     C31536   2.103   3.614   8.423  0.6818  0.1386 -0.0678
  975MOL0     C31537   2.241   3.647   8.412 -0.7026  0.1428  0.6860
  975MOL0     O31538   2.506   3.472   8.533 -0.5541  0.7464 -0.2356
  975MOL0     C31539   2.701   3.775   8.485  0.0304  0.2615 -0.8374
  975MOL0     C31540   2.828   3.822   8.465 -0.4945  0.1778 -0.1162
  975MOL0     N31541   3.631   3.997   8.310 -0.3693  0.0499  0.4575
  975MOL0     N31542   3.696   3.988   8.193  0.0355  0.5568 -0.4980
  975MOL0     C31543   3.846   3.148   7.324  0.0092  0.3693  0.1033
  975MOL0     C31544   3.903   3.024   7.296  0.4394 -0.4335  0.2788
  975MOL0     C31545   4.061   2.613   7.255  0.2768 -1.0510 -0.0257
  975MOL0     C31546   3.971   2.534   7.329 -0.0723  0.5127  0.2753
  975MOL0     C31547   3.984   2.387   7.313  0.8671  0.3640 -0.2270
  975MOL0     C31548   4.073   2.324   7.228  0.5320 -0.5316 -0.0936
  975MOL0     O31549   4.060   2.190   7.216 -0.1614 -0.1181  0.0447
  975MOL0     C31550   4.176   2.118   7.201 -0.3031 -0.5742 -0.4136
  975MOL0     C31551   4.140   1.968   7.196 -0.1474 -0.2754 -1.0258
  975MOL0     C31552   4.051   1.951   7.062 -0.3813 -0.2526 -0.0546
  975MOL0     C31553   4.024   1.808   7.038  0.5420  0.5519 -0.4491
  975MOL0     C31554   3.923   1.805   6.933 -0.2671 -0.5305 -0.9504
  975MOL0     C31555   3.853   1.819   6.834 -0.9092 -0.0617  0.9049
  975MOL0     C31556   4.152   2.416   7.151  0.2621  0.5759  0.2452
  975MOL0     C31557   4.146   2.556   7.167 -0.2252 -0.8086 -0.0052
  975MOL0     H31558   3.965   2.920   7.619 -0.3124  2.8386  1.5617
  975MOL0     H31559   3.869   3.131   7.657  2.2762  0.8728 -0.6637
  975MOL0     H31560   3.804   3.416   7.318  0.1497  3.3131  0.3934
  975MOL0     H31561   3.642   3.354   7.357 -0.6512  0.7358 -0.0235
  975MOL0     H31562   3.669   3.601   7.376 -0.3985  1.6331  2.4745
  975MOL0     H31563   3.616   3.530   7.525 -0.5042 -3.5474  0.6010
  975MOL0     H31564   3.858   3.527   7.599 -0.4298  1.1684  1.1515
  975MOL0     H31565   3.920   3.589   7.449  0.8321  0.4785  0.0826
  975MOL0     H31566   3.921   3.780   7.557  0.5302 -0.3512 -2.1247
  975MOL0     H31567   3.763   3.802   7.496  2.8569  0.8267 -1.9800
  975MOL0     H31568   3.646   3.711   7.673 -0.5272  0.3516 -0.9178
  975MOL0     H31569   3.808   3.686   7.763  0.2132 -0.9373 -0.7462
  975MOL0     H31570   3.802   3.942   7.745  0.0769 -0.1397 -0.4032
  975MOL0     H31571   3.636   3.916   7.700  0.0659 -2.3036 -2.7352
  975MOL0     H31572   3.576   3.808   7.912  1.9712 -3.1152 -1.0370
  975MOL0     H31573   3.746   3.825   7.965 -0.7900 -0.9510  0.7908
  975MOL0     H31574   3.566   4.061   7.890  0.5666  1.2922 -1.2260
  975MOL0     H31575   3.736   4.070   7.936 -0.0838  0.2914 -0.8733
  975MOL0     H31576   3.396   4.073   8.098  0.7486 -0.0121 -1.3018
  975MOL0     H31577   3.436   4.064   8.503 -0.2695 -2.9814  1.2912
  975MOL0     H31578   3.381   4.184   8.393 -1.5138 -0.4055  3.3255
  975MOL0     H31579   3.216   4.037   8.280 -1.4281 -1.4956  0.0325
  975MOL0     H31580   3.200   4.041   8.456  3.1110  1.2524  2.6898
  975MOL0     H31581   3.310   3.812   8.471 -0.3984  0.0722 -0.8770
  975MOL0     H31582   3.352   3.824   8.304  0.6965 -1.9854  0.1750
  975MOL0     H31583   3.156   3.686   8.311  2.5046  1.2747 -2.5015
  975MOL0     H31584   3.085   3.843   8.272 -0.0341  3.1992  1.7361
  975MOL0     H31585   3.022   3.542   8.504  0.4445  1.8350 -0.5600
  975MOL0     H31586   2.770   3.369   8.600 -0.7753 -2.0589  0.3976
  975MOL0     H31587   2.721   3.394   8.420 -0.5269  0.4310  1.0612
  975MOL0     H31588   2.890   3.363   8.468  0.1397 -0.0039  0.8753
  975MOL0     H31589   2.323   3.616   8.733  0.4467 -0.1248 -0.8643
  975MOL0     H31590   2.077   3.547   8.742  2.7585 -1.3576  0.2473
  975MOL0     H31591   1.820   3.643   8.375  1.4243  0.7635  0.5724
  975MOL0     H31592   1.874   3.475   8.376  1.0224  1.3325  0.4463
  975MOL0     H31593   1.656   3.419   8.411  0.0211  0.4294 -2.2704
  975MOL0     H31594   1.632   3.519   8.560  0.3701 -0.8776 -0.4279
  975MOL0     H31595   1.614   3.621   8.275  1.3742  1.2889  0.9556
  975MOL0     H31596   1.587   3.723   8.416  0.3480  0.3691 -0.7167
  975MOL0     H31597   1.423   3.471   8.351 -1.9567 -1.3251  2.2432
  975MOL0     H31598   1.411   3.563   8.499  2.6037 -0.9547  0.4423
  975MOL0     H31599   1.379   3.669   8.224 -0.0750 -0.3507 -0.3581
  975MOL0     H31600   1.349   3.762   8.377  3.2356 -0.4761  0.0039
  975MOL0     H31601   1.189   3.514   8.288  2.0156 -0.8007  1.9418
  975MOL0     H31602   1.161   3.614   8.427  0.7461 -2.7324 -0.4678
  975MOL0     H31603   1.025   3.640   8.202  0.4248 -0.0254 -0.0617
  975MOL0     H31604   1.167   3.728   8.132 -0.5030  0.1028 -0.0686
  975MOL0     H31605   1.136   3.901   8.290 -1.0272 -0.2678  3.7419
  975MOL0     H31606   1.004   3.806   8.375 -0.0873  0.9252  0.4604
  975MOL0     H31607   2.046   3.620   8.331  1.0790 -2.1735 -0.5479
  975MOL0     H31608   2.285   3.662   8.314 -0.2511 -2.4284  0.4333
  975MOL0     H31609   2.620   3.847   8.482  1.3478  1.8676  0.1555
  975MOL0     H31610   2.841   3.926   8.434 -0.0932  1.2093  3.1176
  975MOL0     H31611   3.796   3.201   7.244 -0.4855 -1.6650 -0.9824
  975MOL0     H31612   3.907   2.996   7.191  2.5315  0.2810  0.1081
  975MOL0     H31613   3.893   2.567   7.397 -1.1015  1.3814 -1.2422
  975MOL0     H31614   3.919   2.322   7.370  1.3187  1.1086  1.1985
  975MOL0     H31615   4.235   2.147   7.113  0.7686  0.2228  0.5282
  975MOL0     H31616   4.245   2.150   7.280  0.4405 -3.6168  0.2985
  975MOL0     H31617   4.089   1.946   7.291  1.2923 -1.1146 -0.4225
  975MOL0     H31618   4.223   1.897   7.195  0.2552  0.1599  0.2416
  975MOL0     H31619   4.106   1.987   6.974 -1.2710 -4.1230 -2.3991
  975MOL0     H31620   3.955   2.001   7.078 -0.1848 -0.0994  0.6572
  975MOL0     H31621   3.983   1.775   7.134 -1.4249  1.8513 -0.7744
  975MOL0     H31622   4.112   1.750   7.010 -0.3580 -1.0336 -0.1618
  975MOL0     H31623   3.803   1.841   6.742 -3.2957 -0.3707  2.0482
  975MOL0     H31624   4.225   2.372   7.084 -0.5183  0.1063 -0.3157
  975MOL0     H31625   4.209   2.613   7.100 -0.6496  3.0631  2.5692
  976MOL0     O31626   9.447   4.549  11.181  0.0395  0.7498 -0.8985
  976MOL0     C31627   9.413   4.479  11.275  0.4269  0.3872  0.3995
  976MOL0     O31628   9.484   4.358  11.318  0.3526 -0.2389  0.4293
  976MOL0     C31629   9.603   4.321  11.262  0.2864 -0.5098 -0.3199
  976MOL0     C31630   9.609   4.235  11.148  0.0996  0.1283 -0.7566
  976MOL0     C31631   9.731   4.198  11.084 -0.0458  0.2265 -0.8323
  976MOL0     C31632   9.851   4.232  11.146  0.5277 -0.5128  1.2832
  976MOL0     O31633   9.975   4.196  11.086  0.6478  0.9000 -0.4895
  976MOL0     C31634  10.000   4.180  10.948 -0.0939 -0.4676  0.7745
  976MOL0     C31635   9.999   4.034  10.905  0.4366 -0.1650 -0.1863
  976MOL0     C31636  10.062   4.007  10.769 -0.1712 -0.2817 -0.1139
  976MOL0     C31637   9.969   4.063  10.657 -0.1864 -0.4352  0.4629
  976MOL0     C31638  10.013   4.015  10.520  1.0476 -0.7253  0.6591
  976MOL0     C31639   9.939   4.107  10.421 -0.5981  0.2405 -0.2097
  976MOL0     C31640   9.964   4.078  10.269 -1.0852  0.4760  0.1287
  976MOL0     C31641   9.896   4.180  10.172  0.6422  0.0500 -0.3500
  976MOL0     N31642   9.750   4.178  10.189  0.2300  0.0333  0.4170
  976MOL0     C31643   9.664   4.094  10.127  0.5951  0.1281  0.9656
  976MOL0     C31644   9.540   4.133  10.156  0.1205 -0.3981  0.6648
  976MOL0     C31645   9.414   4.067  10.112  0.3812 -0.6200  0.3902
  976MOL0     C31646   9.301   4.171  10.074 -1.1336  0.5716  0.3360
  976MOL0     C31647   9.169   4.094  10.115 -0.8498 -0.1878  0.6498
  976MOL0     C31648   9.045   4.185  10.086 -0.9404  0.2917 -0.5779
  976MOL0     O31649   8.926   4.134  10.156 -0.2666 -0.5088  0.4898
  976MOL0     C31650   8.797   4.189  10.139  0.2035 -0.1788 -0.5560
  976MOL0     C31651   8.719   4.159  10.251 -0.1525  0.5499  0.4608
  976MOL0     C31652   8.582   4.191  10.253  0.1907  0.5655  0.2585
  976MOL0     C31653   8.510   4.152  10.378  0.3453 -0.9088 -0.3178
  976MOL0     C31654   8.527   4.272  10.155 -0.2032  0.8603  0.0409
  976MOL0     C31655   8.381   4.309  10.158  0.0616  0.0723  0.0514
  976MOL0     O31656   8.354   4.385  10.044  0.1228 -0.3148  0.8392
  976MOL0     C31657   8.229   4.439  10.029  0.3135 -0.8284 -0.8588
  976MOL0     C31658   8.202   4.555  10.094  0.4666  0.3306  0.2947
  976MOL0     C31659   8.079   4.618  10.088 -0.0137 -0.4832 -0.4152
  976MOL0     C31660   7.970   4.560  10.014 -0.6483  0.2635  0.5713
  976MOL0     O31661   7.849   4.628  10.003 -0.4696  0.1852  0.0715
  976MOL0     C31662   7.725   4.555   9.991  0.5568 -0.1941  0.7669
  976MOL0     C31663   7.607   4.644  10.035  0.2895 -0.7117 -0.6574
  976MOL0     C31664   7.478   4.567  10.011 -0.5052 -0.0798  0.0111
  976MOL0     C31665   7.363   4.645  10.076  0.2482 -0.9420  0.3426
  976MOL0     C31666   7.224   4.575  10.056 -0.9961 -0.1643  0.6508
  976MOL0     C31667   7.102   4.676  10.080 -0.1024  0.6361  0.3034
  976MOL0     C31668   6.961   4.611  10.063 -0.2165  0.2503  0.1583
  976MOL0     C31669   6.839   4.693  10.115  0.3393  0.1707 -0.4398
  976MOL0    Cl31670   6.832   4.841  10.024  0.2606 -0.0653  0.0620
  976MOL0     C31671   7.994   4.443   9.942 -0.6111  0.6353  0.2596
  976MOL0     C31672   8.120   4.382   9.955  0.2338  0.8067  0.5024
  976MOL0     O31673   8.303   4.280  10.248  0.0874  0.2010 -0.1407
  976MOL0     C31674   8.612   4.305  10.043 -0.3188  0.0861  0.5793
  976MOL0     C31675   8.750   4.273  10.041 -0.2223 -0.1458 -0.3928
  976MOL0     N31676   9.544   4.248  10.230  0.0520 -0.0905  0.3066
  976MOL0     N31677   9.673   4.275  10.256  0.8415 -0.0821  0.6282
  976MOL0     C31678   9.846   4.305  11.269 -0.0509  0.1741 -0.1810
  976MOL0     C31679   9.724   4.355  11.323 -0.8907  0.7518 -0.0512
  976MOL0     C31680   9.305   4.526  11.372 -0.6343  0.2976 -0.4805
  976MOL0     C31681   9.279   4.453  11.489 -0.2326  0.0236  0.2777
  976MOL0     C31682   9.165   4.492  11.563  0.4107 -0.0397  0.1807
  976MOL0     C31683   9.065   4.587  11.514  0.0059  0.0057 -0.0295
  976MOL0     O31684   8.953   4.613  11.591 -0.9621 -0.1671 -0.0455
  976MOL0     C31685   8.849   4.692  11.538  0.8640  0.6702 -0.2516
  976MOL0     C31686   8.735   4.692  11.643  0.7844 -0.2281 -0.7063
  976MOL0     C31687   8.612   4.771  11.593  0.7681 -0.4915  0.3066
  976MOL0     C31688   8.485   4.781  11.676 -0.4663 -0.0895  0.9530
  976MOL0     C31689   8.364   4.820  11.611 -1.5577  0.1710  0.0926
  976MOL0     C31690   8.267   4.858  11.553  0.5583 -0.1471  1.0613
  976MOL0     C31691   9.096   4.646  11.391  0.1943 -0.1067 -0.7410
  976MOL0     C31692   9.213   4.624  11.322 -0.2538 -0.0583  0.4587
  976MOL0     H31693   9.515   4.217  11.097 -0.3073 -0.0343  0.0311
  976MOL0     H31694   9.719   4.137  10.995 -2.2893 -2.0436  0.9081
  976MOL0     H31695   9.925   4.239  10.894  0.0940 -1.7763 -1.0038
  976MOL0     H31696  10.094   4.229  10.923 -2.2543  3.0991 -1.1661
  976MOL0     H31697  10.077   3.995  10.971  0.3769 -1.3794 -0.7938
  976MOL0     H31698   9.901   3.986  10.914  0.3696  0.3290  2.7566
  976MOL0     H31699  10.161   4.054  10.762 -0.3246 -0.0715 -1.0452
  976MOL0     H31700  10.082   3.900  10.756 -0.1848 -0.3962  0.7850
  976MOL0     H31701   9.864   4.039  10.671 -0.4717  0.5449  0.0875
  976MOL0     H31702   9.982   4.172  10.661  1.0852 -0.5927  1.5523
  976MOL0     H31703  10.120   4.035  10.506  0.9801  0.8299  2.1562
  976MOL0     H31704   9.996   3.907  10.509 -1.5977 -0.5934  2.5414
  976MOL0     H31705   9.831   4.109  10.432 -0.5159  0.2703  0.6374
  976MOL0     H31706   9.982   4.206  10.440  1.8991 -0.6949 -0.5250
  976MOL0     H31707  10.071   4.080  10.249 -1.2268  1.8526 -0.6324
  976MOL0     H31708   9.932   3.979  10.234 -0.9245  1.1210 -1.9981
  976MOL0     H31709   9.924   4.158  10.069  2.4308 -1.1526  0.3522
  976MOL0     H31710   9.916   4.285  10.195  0.5223 -0.0387  0.1739
  976MOL0     H31711   9.698   4.011  10.066  3.7439  1.8558  0.0990
  976MOL0     H31712   9.433   4.001  10.027  2.8669  1.2649 -0.6445
  976MOL0     H31713   9.395   4.010  10.204  1.4237  0.9880  1.6492
  976MOL0     H31714   9.300   4.180   9.965 -1.8891  1.7245  0.4204
  976MOL0     H31715   9.315   4.268  10.123  1.0050 -0.4624  1.9194
  976MOL0     H31716   9.172   4.068  10.221  1.4577  2.1163  1.2478
  976MOL0     H31717   9.162   4.007  10.048 -1.4998  0.8502 -0.6739
  976MOL0     H31718   9.028   4.201   9.979 -2.9982 -1.9329 -0.6752
  976MOL0     H31719   9.059   4.285  10.128 -1.1050  0.1188 -0.1043
  976MOL0     H31720   8.757   4.088  10.324  0.6599  0.1278 -0.3493
  976MOL0     H31721   8.423   4.090  10.355 -1.6969  1.4383  0.5365
  976MOL0     H31722   8.577   4.097  10.445  1.6685  0.8923 -0.0661
  976MOL0     H31723   8.477   4.238  10.438  3.2305 -1.5069  2.4238
  976MOL0     H31724   8.282   4.612  10.139 -0.2398  1.3219  0.3318
  976MOL0     H31725   8.062   4.702  10.155  0.5631 -0.8806  0.2515
  976MOL0     H31726   7.709   4.542   9.884  0.5010  1.5835  0.5335
  976MOL0     H31727   7.733   4.463  10.050 -1.2187 -0.7218  0.2269
  976MOL0     H31728   7.604   4.673  10.140 -1.6242 -0.1070 -0.8486
  976MOL0     H31729   7.606   4.728   9.965 -5.4051 -2.0448 -2.7118
  976MOL0     H31730   7.489   4.463  10.043  1.3151 -0.2870 -1.1077
  976MOL0     H31731   7.457   4.565   9.903  2.3155  2.5597 -0.7291
  976MOL0     H31732   7.374   4.655  10.185  0.1790  0.2309  0.2592
  976MOL0     H31733   7.350   4.743  10.029 -0.4897 -0.9426  0.5319
  976MOL0     H31734   7.226   4.488  10.123  1.7882 -0.9379 -0.2661
  976MOL0     H31735   7.211   4.527   9.959  0.3627 -1.0787  0.8900
  976MOL0     H31736   7.108   4.723  10.179 -1.9964 -0.5045  1.0333
  976MOL0     H31737   7.114   4.755  10.006 -3.6526  3.6195  2.5334
  976MOL0     H31738   6.958   4.521  10.125 -0.5368 -0.3217 -0.6652
  976MOL0     H31739   6.940   4.577   9.961 -1.4230  2.4708 -0.4004
  976MOL0     H31740   6.851   4.717  10.221 -2.7270  1.0234 -0.1807
  976MOL0     H31741   6.753   4.626  10.100 -0.3958  0.8184  0.7886
  976MOL0     H31742   7.917   4.404   9.877 -2.7011  0.6468  2.5791
  976MOL0     H31743   8.126   4.288   9.901 -1.9354  0.0054  1.5326
  976MOL0     H31744   8.560   4.343   9.956 -1.0195 -2.3647 -0.1617
  976MOL0     H31745   8.813   4.299   9.957 -0.2918 -0.1366 -0.4425
  976MOL0     H31746   9.930   4.325  11.335  0.0602  0.1866 -0.3274
  976MOL0     H31747   9.727   4.411  11.416 -0.0610  0.1852  0.2617
  976MOL0     H31748   9.349   4.380  11.528  1.5610  1.2736 -0.4822
  976MOL0     H31749   9.143   4.453  11.662  0.0199  2.1909  1.0177
  976MOL0     H31750   8.867   4.796  11.507  0.4886  0.0166 -2.8872
  976MOL0     H31751   8.830   4.641  11.443 -0.1343  1.5744 -0.5656
  976MOL0     H31752   8.757   4.743  11.737  2.0285  0.7888 -1.5024
  976MOL0     H31753   8.702   4.588  11.654  1.2223 -0.1143  2.6973
  976MOL0     H31754   8.584   4.734  11.494 -1.7623  2.2831 -0.1669
  976MOL0     H31755   8.644   4.873  11.570  1.2915 -0.6441  0.3464
  976MOL0     H31756   8.505   4.850  11.758 -2.7619 -1.6241  2.9456
  976MOL0     H31757   8.451   4.690  11.725 -0.4921 -0.1562  0.8125
  976MOL0     H31758   8.186   4.897  11.494  2.6932 -0.3962 -2.3138
  976MOL0     H31759   9.033   4.724  11.348  1.0632  1.9294  1.4482
  976MOL0     H31760   9.226   4.679  11.229  0.1620  1.4201  1.3563
  977MOL0     O31761   9.015   1.222  11.077 -0.5467  0.1765 -0.8507
  977MOL0     C31762   9.066   1.138  11.004  0.5376  0.1484 -0.2195
  977MOL0     O31763   9.005   1.066  10.909  0.4346 -0.3073 -0.0648
  977MOL0     C31764   8.873   1.088  10.870 -0.5708 -0.1985 -0.5250
  977MOL0     C31765   8.847   1.087  10.731 -0.2226 -1.0723  1.2522
  977MOL0     C31766   8.720   1.126  10.678 -1.1265 -0.0202 -0.1936
  977MOL0     C31767   8.617   1.136  10.768 -0.6953 -0.6558  0.2080
  977MOL0     O31768   8.487   1.163  10.722 -0.2547  0.1568 -0.2915
  977MOL0     C31769   8.369   1.163  10.803 -0.5791  0.3284 -0.8048
  977MOL0     C31770   8.238   1.177  10.718 -0.6566 -0.2547  0.2446
  977MOL0     C31771   8.127   1.101  10.789  0.8939 -0.5211 -0.8272
  977MOL0     C31772   7.989   1.126  10.728 -0.2308 -0.0803 -0.0369
  977MOL0     C31773   7.864   1.061  10.795 -0.6829  0.0557 -0.3723
  977MOL0     C31774   7.859   0.913  10.782 -0.0287 -0.1501 -0.6851
  977MOL0     C31775   7.838   0.855  10.631  0.7483  0.1220 -0.1482
  977MOL0     C31776   7.786   0.703  10.636  0.0215  0.0559 -0.1023
  977MOL0     N31777   7.647   0.711  10.682  0.4205 -0.6270  0.6964
  977MOL0     C31778   7.543   0.760  10.598 -1.1373  0.5330 -0.1316
  977MOL0     C31779   7.439   0.726  10.660  0.6624 -0.9392 -0.3083
  977MOL0     C31780   7.304   0.761  10.622  0.6989  0.1683 -0.5298
  977MOL0     C31781   7.184   0.690  10.694  0.4347 -0.5500 -0.0050
  977MOL0     C31782   7.036   0.721  10.666 -0.4794  0.5720  0.3461
  977MOL0     C31783   6.996   0.677  10.525 -0.4062  0.8659 -0.0111
  977MOL0     O31784   6.855   0.658  10.519 -0.0658 -0.2652  0.0538
  977MOL0     C31785   6.771   0.766  10.507  0.1152  0.8410  0.0153
  977MOL0     C31786   6.633   0.733  10.538  0.4652  0.2902 -0.3346
  977MOL0     C31787   6.531   0.819  10.508  0.8829 -0.1130  0.0068
  977MOL0     C31788   6.389   0.767  10.528 -1.2696 -0.4426  0.3982
  977MOL0     C31789   6.556   0.950  10.463  0.0190  0.7600 -0.4801
  977MOL0     C31790   6.449   1.050  10.423 -0.0179 -0.1328  0.1673
  977MOL0     O31791   6.488   1.174  10.381  0.3645  0.4695  0.0938
  977MOL0     C31792   6.400   1.257  10.318 -0.2171 -0.8680 -0.4386
  977MOL0     C31793   6.424   1.287  10.190  0.1534 -0.1925 -0.3457
  977MOL0     C31794   6.337   1.379  10.128 -0.0594  0.2060 -0.5530
  977MOL0     C31795   6.249   1.466  10.201  0.5655  0.8318 -0.0216
  977MOL0     O31796   6.183   1.571  10.144  0.0470 -0.0526  0.1582
  977MOL0     C31797   6.179   1.581   9.998 -0.1805  0.8560 -0.5765
  977MOL0     C31798   6.113   1.698   9.939 -0.3448  0.1269  0.0413
  977MOL0     C31799   5.964   1.713   9.977 -0.1313 -0.0983  0.6399
  977MOL0     C31800   5.911   1.851   9.918 -0.2852  0.4277 -0.5420
  977MOL0     C31801   5.764   1.863   9.956 -0.1856 -0.0669 -0.6049
  977MOL0     C31802   5.700   1.985   9.896  0.3218 -0.0166 -0.5673
  977MOL0     C31803   5.748   2.120   9.952 -0.5367 -0.5339  0.6470
  977MOL0     C31804   5.681   2.147  10.091  0.6166 -0.3141 -0.7682
  977MOL0    Cl31805   5.492   2.109  10.097  0.1573  0.1885  0.6537
  977MOL0     C31806   6.233   1.434  10.334 -0.6118 -0.1969 -0.6396
  977MOL0     C31807   6.304   1.325  10.389  0.4169 -0.5689  0.2382
  977MOL0     O31808   6.334   1.015  10.438  0.0044  0.3777  0.6014
  977MOL0     C31809   6.696   0.987  10.449  0.1265 -0.2868  0.2006
  977MOL0     C31810   6.797   0.893  10.470  0.1844  0.3674  0.5149
  977MOL0     N31811   7.468   0.678  10.789  0.0176  0.0235  0.2100
  977MOL0     N31812   7.596   0.659  10.795 -0.8769  1.0479 -0.2522
  977MOL0     C31813   8.642   1.130  10.906  0.0548  0.8493  0.2919
  977MOL0     C31814   8.768   1.106  10.954 -1.0434  0.9674 -0.3487
  977MOL0     C31815   9.213   1.118  11.012 -0.2042  0.1744 -0.0272
  977MOL0     C31816   9.294   1.192  11.104 -0.0651  0.2039  0.5204
  977MOL0     C31817   9.435   1.181  11.093  0.0259  0.5310 -0.1969
  977MOL0     C31818   9.494   1.097  10.991 -0.1259  1.1662 -0.1205
  977MOL0     O31819   9.629   1.072  10.968  1.0941  0.1194  0.4020
  977MOL0     C31820   9.673   0.950  11.021 -0.6890 -0.0119 -0.7042
  977MOL0     C31821   9.816   0.948  10.953 -0.2918  0.4200 -0.0595
  977MOL0     C31822   9.897   0.827  10.975 -0.0676  0.3324 -0.9359
  977MOL0     C31823  10.044   0.831  10.937  0.9428  0.2179 -0.0375
  977MOL0     C31824  10.115   0.711  10.985 -0.2630  0.8906  0.1808
  977MOL0     C31825  10.204   0.632  11.021  0.2820 -0.2296 -0.0434
  977MOL0     C31826   9.406   1.023  10.911 -0.3295  0.1628 -0.3163
  977MOL0     C31827   9.267   1.021  10.922 -0.1746  1.0291 -1.1888
  977MOL0     H31828   8.934   1.074  10.667  0.1115 -0.8350  1.6591
  977MOL0     H31829   8.718   1.133  10.569 -0.4317  1.2046 -0.1446
  977MOL0     H31830   8.369   1.071  10.862  0.8616  0.9843  0.2767
  977MOL0     H31831   8.362   1.247  10.873 -2.2214  0.1370 -0.7117
  977MOL0     H31832   8.215   1.282  10.697  1.0671  0.0073 -0.4681
  977MOL0     H31833   8.263   1.137  10.620  2.8219  0.5893  0.6606
  977MOL0     H31834   8.144   0.993  10.797  1.7227 -0.3017  1.0790
  977MOL0     H31835   8.127   1.131  10.895  1.0712 -2.6173 -0.1833
  977MOL0     H31836   7.983   1.235  10.726  1.3164  0.0246 -1.5172
  977MOL0     H31837   7.989   1.094  10.624 -0.0348  0.1949 -0.1225
  977MOL0     H31838   7.865   1.079  10.903 -1.5196  0.3897 -0.4149
  977MOL0     H31839   7.779   1.106  10.744 -0.6518  0.4392 -0.0955
  977MOL0     H31840   7.950   0.873  10.826 -0.3833 -1.8710 -1.4428
  977MOL0     H31841   7.774   0.870  10.836  1.4960 -4.4237 -1.3209
  977MOL0     H31842   7.760   0.907  10.576 -1.1302  0.2631  2.4543
  977MOL0     H31843   7.935   0.863  10.581  1.2325  0.5571  0.8257
  977MOL0     H31844   7.850   0.636  10.695  2.4428  0.1465 -2.4336
  977MOL0     H31845   7.790   0.665  10.534  0.0582  0.0676 -0.1049
  977MOL0     H31846   7.554   0.804  10.499 -2.5232 -0.0038 -0.5454
  977MOL0     H31847   7.294   0.870  10.611 -0.2756 -0.0199 -1.7897
  977MOL0     H31848   7.290   0.729  10.519  1.3034 -1.0640 -0.2399
  977MOL0     H31849   7.192   0.715  10.800 -0.4276  2.2890 -0.5344
  977MOL0     H31850   7.185   0.582  10.677 -1.7572 -0.6170 -0.0195
  977MOL0     H31851   7.015   0.827  10.686 -2.7907  0.8148 -2.6368
  977MOL0     H31852   6.987   0.660  10.742  0.7387  1.8535  2.2407
  977MOL0     H31853   7.040   0.578  10.505 -0.7268 -0.3854  4.2900
  977MOL0     H31854   7.044   0.742  10.452  4.3560  0.5698  2.4188
  977MOL0     H31855   6.608   0.632  10.568  0.1131  0.0290 -1.4398
  977MOL0     H31856   6.354   0.808  10.623  1.4741  1.6827  0.6585
  977MOL0     H31857   6.329   0.798  10.442 -0.0832 -0.7771 -0.5777
  977MOL0     H31858   6.390   0.659  10.542  4.3476 -0.5502  1.8096
  977MOL0     H31859   6.499   1.235  10.132 -0.8696 -0.7517 -1.2140
  977MOL0     H31860   6.372   1.398  10.027 -1.5536  0.7181 -1.0002
  977MOL0     H31861   6.283   1.581   9.966  0.1838  0.3240  0.5349
  977MOL0     H31862   6.136   1.494   9.946  0.4483  1.3812 -2.0193
  977MOL0     H31863   6.165   1.785   9.982 -3.0276  3.1530 -2.3678
  977MOL0     H31864   6.132   1.702   9.832  1.6085 -0.7813  0.3100
  977MOL0     H31865   5.954   1.714  10.086 -1.6648  0.5647  0.5196
  977MOL0     H31866   5.911   1.626   9.939 -0.7748  0.5561  0.0045
  977MOL0     H31867   5.965   1.930   9.970 -1.3390  1.3711 -0.8475
  977MOL0     H31868   5.916   1.851   9.809  2.0609 -3.1858 -0.6245
  977MOL0     H31869   5.754   1.849  10.064  2.1660  2.3515  0.0339
  977MOL0     H31870   5.717   1.770   9.920 -0.8620  0.2876 -0.6524
  977MOL0     H31871   5.711   1.981   9.787 -1.0089  4.0014 -1.0081
  977MOL0     H31872   5.595   1.975   9.923  0.3075 -0.3897 -0.7461
  977MOL0     H31873   5.713   2.201   9.888 -0.7404 -1.5475 -0.5791
  977MOL0     H31874   5.857   2.124   9.962 -0.0050 -2.3512 -2.7394
  977MOL0     H31875   5.699   2.253  10.113  2.1240 -0.8661  0.9138
  977MOL0     H31876   5.724   2.085  10.170 -2.1327 -1.6861 -0.2559
  977MOL0     H31877   6.164   1.495  10.392  1.6441  2.8129 -0.8728
  977MOL0     H31878   6.297   1.299  10.494  1.6708  1.7792  0.9797
  977MOL0     H31879   6.710   1.092  10.424  0.2302 -0.6506 -1.4220
  977MOL0     H31880   6.899   0.922  10.448 -0.2286  1.9964  0.6477
  977MOL0     H31881   8.559   1.138  10.977 -0.1501  2.5183 -0.1104
  977MOL0     H31882   8.780   1.105  11.062  0.2208  1.1556 -0.4698
  977MOL0     H31883   9.257   1.269  11.171 -3.0425 -0.0298 -0.7082
  977MOL0     H31884   9.493   1.242  11.162 -0.9904  1.9664 -0.5458
  977MOL0     H31885   9.688   0.946  11.130 -0.6520 -2.2234 -0.7482
  977MOL0     H31886   9.619   0.861  10.987 -0.0911  0.0309 -1.7879
  977MOL0     H31887   9.876   1.030  10.992  2.7459 -0.6394 -2.1312
  977MOL0     H31888   9.804   0.973  10.847  3.8795  1.9208 -0.3329
  977MOL0     H31889   9.853   0.741  10.924  1.7030 -0.9140 -0.4396
  977MOL0     H31890   9.900   0.804  11.082  0.5823 -0.1845 -1.0587
  977MOL0     H31891  10.081   0.928  10.973 -2.3880  0.2807  3.8027
  977MOL0     H31892  10.059   0.823  10.828 -0.8223 -3.1178 -0.1472
  977MOL0     H31893  10.271   0.552  11.050  1.8492  0.3519 -1.8454
  977MOL0     H31894   9.460   0.965  10.837  2.7128 -0.3283  2.0699
  977MOL0     H31895   9.203   0.961  10.858 -0.4762 -1.8346  1.6075
  978MOL0     O31896  11.132   2.556   8.550  0.0514  0.5324  0.7085
  978MOL0     C31897  11.241   2.511   8.520 -0.3647  0.0053 -0.7025
  978MOL0     O31898  11.263   2.383   8.475  0.4630 -0.0635  0.3060
  978MOL0     C31899  11.160   2.297   8.436  0.1090  0.4750 -0.1959
  978MOL0     C31900  11.037   2.326   8.371  0.5372 -0.6689  0.4390
  978MOL0     C31901  10.941   2.227   8.336  0.0108 -0.2085  0.4949
  978MOL0     C31902  10.968   2.090   8.369  0.3339 -0.7857 -0.2349
  978MOL0     O31903  10.871   1.983   8.367 -0.7242 -0.6619 -0.1725
  978MOL0     C31904  10.756   2.002   8.286 -0.0217  0.2243  0.5211
  978MOL0     C31905  10.681   1.869   8.294 -0.2074  0.2792 -0.8351
  978MOL0     C31906  10.555   1.870   8.208  0.4784  0.1138 -0.5736
  978MOL0     C31907  10.510   1.719   8.194 -0.5658  0.6514 -0.6969
  978MOL0     C31908  10.374   1.691   8.139  0.4411 -0.2966 -0.1489
  978MOL0     C31909  10.260   1.747   8.214  0.3076  0.1489 -0.5776
  978MOL0     C31910  10.129   1.732   8.134  0.3831  1.1523  0.4777
  978MOL0     C31911  10.005   1.793   8.195  0.7178  0.7574 -0.3768
  978MOL0     N31912   9.945   1.713   8.304  0.3235 -0.6509 -0.3515
  978MOL0     C31913   9.826   1.649   8.304 -0.7679 -0.1326 -0.1339
  978MOL0     C31914   9.820   1.605   8.425 -0.8095  0.0566 -0.9237
  978MOL0     C31915   9.710   1.516   8.473  0.2645 -0.1543 -0.1410
  978MOL0     C31916   9.585   1.598   8.483  0.7381 -0.2119 -0.3886
  978MOL0     C31917   9.467   1.513   8.529 -0.4986 -0.3146  0.8734
  978MOL0     C31918   9.325   1.576   8.518 -0.0109 -0.2318  0.0742
  978MOL0     O31919   9.287   1.597   8.384  0.7393  0.3244  0.0271
  978MOL0     C31920   9.149   1.623   8.368  0.3533 -0.7749  0.6507
  978MOL0     C31921   9.108   1.599   8.235  0.1535  0.7735  0.0046
  978MOL0     C31922   8.970   1.606   8.197  0.0616 -0.3998  0.5470
  978MOL0     C31923   8.926   1.563   8.056 -0.4288  0.6500 -0.9969
  978MOL0     C31924   8.877   1.653   8.290  0.3015 -0.8661  0.3539
  978MOL0     C31925   8.736   1.691   8.253 -0.8742  0.8525 -1.2610
  978MOL0     O31926   8.695   1.687   8.128 -0.6744  0.3995 -0.0654
  978MOL0     C31927   8.574   1.741   8.096 -0.0753 -1.1044 -0.5644
  978MOL0     C31928   8.466   1.664   8.055  1.1384  0.4041 -0.2376
  978MOL0     C31929   8.353   1.723   8.007  0.0855  0.2422  0.0433
  978MOL0     C31930   8.336   1.867   8.011  0.1054  0.7406  0.1034
  978MOL0     O31931   8.222   1.916   7.942 -0.3732  0.4343 -0.3238
  978MOL0     C31932   8.209   2.050   7.925 -0.4584 -0.1843 -0.4573
  978MOL0     C31933   8.089   2.086   7.836 -0.2686  0.4345 -0.3734
  978MOL0     C31934   7.955   2.039   7.891  0.0328  0.1958 -0.6228
  978MOL0     C31935   7.887   1.921   7.822 -0.3093 -0.3617  0.1767
  978MOL0     C31936   7.800   1.841   7.919 -0.4421  0.2867 -0.2566
  978MOL0     C31937   7.691   1.775   7.837  0.1908  0.5702 -0.0553
  978MOL0     C31938   7.580   1.708   7.912 -0.3195  0.2442  0.1087
  978MOL0     C31939   7.448   1.717   7.827  0.3080 -0.3871 -0.1308
  978MOL0    Cl31940   7.324   1.636   7.916  0.0738  0.4339 -0.1096
  978MOL0     C31941   8.439   1.947   8.065  0.2830  0.0299  0.6437
  978MOL0     C31942   8.552   1.881   8.113 -0.2600  0.8529  0.6062
  978MOL0     O31943   8.660   1.711   8.352 -0.0333 -0.5738  0.0611
  978MOL0     C31944   8.925   1.686   8.418 -0.7521 -0.4910  0.0909
  978MOL0     C31945   9.061   1.674   8.460  1.3705 -0.0382 -0.6790
  978MOL0     N31946   9.933   1.632   8.498  0.1700 -0.3993 -0.0807
  978MOL0     N31947  10.004   1.703   8.423  0.0346  0.4521  0.2015
  978MOL0     C31948  11.088   2.055   8.427 -0.9568  0.6193 -0.7789
  978MOL0     C31949  11.180   2.157   8.454  0.1772 -0.6180 -0.1731
  978MOL0     C31950  11.358   2.597   8.551  0.4137  0.7476  0.0377
  978MOL0     C31951  11.484   2.528   8.561  0.0088 -0.2091  0.3359
  978MOL0     C31952  11.609   2.588   8.588  0.0427 -0.0326 -0.2309
  978MOL0     C31953  11.609   2.726   8.601 -0.0539 -0.0394  0.2242
  978MOL0     O31954  11.722   2.797   8.615 -0.6680  0.4337 -0.7038
  978MOL0     C31955  11.781   2.769   8.753 -0.0331 -0.1345 -0.0415
  978MOL0     C31956  11.885   2.872   8.764 -0.4604 -0.1283  0.2914
  978MOL0     C31957  12.005   2.869   8.653  0.6829 -0.0690 -0.5874
  978MOL0     C31958  12.084   2.992   8.642 -0.8374 -0.5604 -0.0600
  978MOL0     C31959  12.010   3.105   8.580  0.1649 -0.0789  0.3828
  978MOL0     C31960  11.956   3.203   8.537  0.6118 -0.9896 -0.2047
  978MOL0     C31961  11.485   2.796   8.579  0.0722  0.3623 -0.2961
  978MOL0     C31962  11.355   2.737   8.559 -1.2282 -0.2756 -0.4546
  978MOL0     H31963  11.009   2.429   8.350  1.2455 -0.7591 -1.0944
  978MOL0     H31964  10.848   2.243   8.283 -1.2586 -1.4681  2.2623
  978MOL0     H31965  10.688   2.074   8.334  0.9521  1.4262  0.1420
  978MOL0     H31966  10.766   2.019   8.178 -2.1109 -0.5844  0.1568
  978MOL0     H31967  10.749   1.790   8.262  0.8594  0.7646  0.1641
  978MOL0     H31968  10.667   1.863   8.402  0.8444  1.6605 -0.5980
  978MOL0     H31969  10.482   1.923   8.269  1.7157  1.8035 -0.4777
  978MOL0     H31970  10.562   1.916   8.108  2.0595 -0.4461 -0.7460
  978MOL0     H31971  10.582   1.664   8.134  0.0892 -1.0789  1.5625
  978MOL0     H31972  10.514   1.670   8.291  1.3430  0.8582 -0.6298
  978MOL0     H31973  10.363   1.729   8.037 -0.4395 -0.0800  0.0120
  978MOL0     H31974  10.358   1.582   8.138 -2.2078  0.0089 -2.0714
  978MOL0     H31975  10.252   1.692   8.309  0.2255  0.0036 -0.6683
  978MOL0     H31976  10.276   1.853   8.233  1.6417  0.3034 -2.3288
  978MOL0     H31977  10.142   1.792   8.043  0.7734  1.3997  0.6937
  978MOL0     H31978  10.112   1.628   8.104 -1.3269  0.8861  2.2076
  978MOL0     H31979   9.927   1.821   8.123 -0.1856  0.1391  0.3247
  978MOL0     H31980  10.033   1.887   8.243 -2.2046  2.4748 -1.7315
  978MOL0     H31981   9.756   1.638   8.221  0.7877  1.0209 -1.6794
  978MOL0     H31982   9.687   1.427   8.415 -1.0480  0.8547 -1.2211
  978MOL0     H31983   9.741   1.495   8.576 -1.9434 -1.0818  0.3742
  978MOL0     H31984   9.568   1.636   8.381  2.6589  2.6110  0.2108
  978MOL0     H31985   9.600   1.674   8.560  1.7148  1.5504 -2.2314
  978MOL0     H31986   9.490   1.491   8.634  0.4114 -1.5372  0.4516
  978MOL0     H31987   9.458   1.421   8.471 -0.4200  0.3658 -0.2389
  978MOL0     H31988   9.314   1.668   8.576 -4.9349 -0.2891 -0.3961
  978MOL0     H31989   9.259   1.503   8.565 -0.5456  0.8583  1.0871
  978MOL0     H31990   9.171   1.555   8.159 -0.7979  1.4343 -1.2130
  978MOL0     H31991   8.846   1.489   8.061 -0.1003  0.0295 -3.6830
  978MOL0     H31992   8.901   1.643   7.987  1.4899  1.8932 -0.3479
  978MOL0     H31993   9.007   1.504   8.012 -2.7917 -1.7614 -2.3425
  978MOL0     H31994   8.475   1.556   8.050 -0.8464  0.1732  0.3802
  978MOL0     H31995   8.276   1.665   7.957  2.2768 -1.2634 -1.7534
  978MOL0     H31996   8.203   2.090   8.026  1.6884 -1.9274  0.4265
  978MOL0     H31997   8.303   2.089   7.885  1.5041 -2.9190  1.2240
  978MOL0     H31998   8.088   2.191   7.805  0.1762  0.2842 -0.9084
  978MOL0     H31999   8.098   2.020   7.749 -2.1405  0.9057 -0.9941
  978MOL0     H32000   7.881   2.120   7.894 -3.2654 -2.4785 -2.2719
  978MOL0     H32001   7.965   2.008   7.995 -0.2332  1.9808 -0.0250
  978MOL0     H32002   7.823   1.945   7.737  0.9541 -1.2828 -1.0783
  978MOL0     H32003   7.961   1.852   7.782  0.3054 -0.0529  0.7659
  978MOL0     H32004   7.751   1.902   7.995 -1.5511 -2.5364  1.4650
  978MOL0     H32005   7.861   1.778   7.986 -1.1427  0.3422  0.4441
  978MOL0     H32006   7.643   1.848   7.771 -0.0649  2.1683  1.8106
  978MOL0     H32007   7.733   1.700   7.769 -0.4704  0.2174 -0.0793
  978MOL0     H32008   7.581   1.747   8.014  0.6774 -1.8544  0.9768
  978MOL0     H32009   7.588   1.599   7.927  1.6369  0.1809 -1.0697
  978MOL0     H32010   7.470   1.670   7.731  4.1121 -0.8016  0.7987
  978MOL0     H32011   7.424   1.820   7.801  1.9697 -0.4163 -1.9576
  978MOL0     H32012   8.435   2.055   8.079 -0.3204  0.1678 -0.4777
  978MOL0     H32013   8.629   1.940   8.163 -0.5495  0.2408  1.8277
  978MOL0     H32014   8.857   1.729   8.491 -1.2721  0.5998 -0.9939
  978MOL0     H32015   9.096   1.703   8.559 -0.0810  2.3540 -0.7987
  978MOL0     H32016  11.100   1.949   8.445 -1.1984  0.4466 -1.5949
  978MOL0     H32017  11.278   2.133   8.494 -0.6119  2.9652  4.8130
  978MOL0     H32018  11.494   2.421   8.553  0.6051 -0.1708  0.4928
  978MOL0     H32019  11.699   2.528   8.600 -0.3456 -1.4176 -3.3281
  978MOL0     H32020  11.715   2.783   8.839  0.4743 -1.0187  0.5116
  978MOL0     H32021  11.824   2.669   8.760 -0.4404 -0.4909 -2.0771
  978MOL0     H32022  11.936   2.848   8.858 -1.7502 -2.0451  0.5548
  978MOL0     H32023  11.843   2.972   8.755  1.7239  0.6639 -1.9687
  978MOL0     H32024  11.974   2.843   8.552  2.7445 -1.1473 -1.0097
  978MOL0     H32025  12.077   2.794   8.690 -0.8135 -0.7464  1.1414
  978MOL0     H32026  12.184   2.980   8.601  0.9038  2.1550  2.9738
  978MOL0     H32027  12.108   3.034   8.740  1.9529 -3.8599  0.8647
  978MOL0     H32028  11.911   3.294   8.502  1.4210 -0.0605  1.0966
  978MOL0     H32029  11.488   2.905   8.583  0.2974  0.3228  1.4858
  978MOL0     H32030  11.262   2.784   8.531 -1.2388  0.7080  1.1189
  979MOL0     O32031   2.718   9.291   0.288 -0.4902 -0.4805  0.0486
  979MOL0     C32032   2.768   9.186   0.320 -0.7059  0.3333  0.4828
  979MOL0     O32033   2.704   9.064   0.331 -0.5284 -0.1105  0.9691
  979MOL0     C32034   2.571   9.045   0.308  0.0007 -0.1393 -0.1607
  979MOL0     C32035   2.510   8.916   0.329  0.2027 -0.2521 -0.0946
  979MOL0     C32036   2.372   8.883   0.318  0.1549 -0.2517  0.4250
  979MOL0     C32037   2.288   8.975   0.259  0.0402  0.4357 -0.0884
  979MOL0     O32038   2.162   8.927   0.245  0.2282 -0.4816 -0.1627
  979MOL0     C32039   2.057   9.020   0.254 -0.2585 -0.2604 -0.1237
  979MOL0     C32040   1.927   8.958   0.300  0.1573  0.6128  0.7495
  979MOL0     C32041   1.865   8.862   0.196 -0.5395  0.7842 -0.1793
  979MOL0     C32042   1.743   8.799   0.255  0.2914 -0.4387 -0.0649
  979MOL0     C32043   1.679   8.704   0.159 -0.8459  0.9097 -0.0020
  979MOL0     C32044   1.556   8.634   0.222 -0.0789 -0.0237 -0.3783
  979MOL0     C32045   1.451   8.605   0.112 -0.5317  0.0737  0.0602
  979MOL0     C32046   1.340   8.517   0.156  0.1549  0.3024 -0.3511
  979MOL0     N32047   1.236   8.490   0.060 -0.1417  0.0497  0.2346
  979MOL0     C32048   1.140   8.570   0.020  0.0074 -0.0490 -1.0929
  979MOL0     C32049   1.098   8.521  -0.098 -0.6150  0.5775  0.4375
  979MOL0     C32050   0.998   8.588  -0.185  0.0288  0.6057  0.5747
  979MOL0     C32051   0.892   8.490  -0.248  0.3079 -0.2733 -0.1838
  979MOL0     C32052   0.784   8.567  -0.327 -0.0776 -0.0142  0.1920
  979MOL0     C32053   0.653   8.490  -0.338  0.2738 -0.2916  0.3187
  979MOL0     O32054   0.577   8.544  -0.445  0.7180 -0.5080  0.2694
  979MOL0     C32055   0.459   8.485  -0.481  0.9668  0.2370  0.0727
  979MOL0     C32056   0.387   8.521  -0.594  0.3053 -0.0622  0.5371
  979MOL0     C32057   0.272   8.456  -0.633 -0.2226  0.5931  0.1739
  979MOL0     C32058   0.200   8.513  -0.755  0.2733 -0.3822  0.4582
  979MOL0     C32059   0.216   8.350  -0.556 -0.0997 -0.1153 -0.6572
  979MOL0     C32060   0.080   8.302  -0.571  0.7178 -0.2682 -0.0308
  979MOL0     O32061   0.006   8.262  -0.456 -0.4565  0.3405  0.0121
  979MOL0     C32062  -0.119   8.212  -0.478  1.1375 -0.1961 -0.6696
  979MOL0     C32063  -0.238   8.283  -0.457  1.1974 -0.0003  0.0090
  979MOL0     C32064  -0.359   8.221  -0.470  0.4632 -0.1282  0.6907
  979MOL0     C32065  -0.376   8.088  -0.510 -0.3396  0.1876 -0.0324
  979MOL0     O32066  -0.496   8.035  -0.543 -0.0004 -0.6047 -0.6415
  979MOL0     C32067  -0.614   8.121  -0.546  0.1012  0.3648 -0.0955
  979MOL0     C32068  -0.724   8.063  -0.625  0.6526  0.6192 -1.0679
  979MOL0     C32069  -0.673   8.030  -0.765 -0.0413 -0.9191 -0.5680
  979MOL0     C32070  -0.777   7.935  -0.825  0.8394 -0.3878  0.1672
  979MOL0     C32071  -0.748   7.879  -0.961  0.0145  0.1777  0.3121
  979MOL0     C32072  -0.866   7.817  -1.033 -0.2516  0.2092  0.4980
  979MOL0     C32073  -0.902   7.909  -1.156 -0.2787  0.1030  0.2454
  979MOL0     C32074  -1.005   7.844  -1.249  0.1201 -0.5057  0.1266
  979MOL0    Cl32075  -1.155   7.823  -1.160 -0.0853  0.2130  0.1514
  979MOL0     C32076  -0.254   8.013  -0.533 -0.0371 -0.5840 -0.2826
  979MOL0     C32077  -0.132   8.081  -0.512 -0.7697  1.1234 -0.5795
  979MOL0     O32078   0.053   8.267  -0.687 -0.0601  0.1119 -0.4964
  979MOL0     C32079   0.300   8.301  -0.458  0.5990  0.5841  0.4575
  979MOL0     C32080   0.413   8.371  -0.420  0.7518 -0.6220 -1.1150
  979MOL0     N32081   1.172   8.408  -0.130  0.1104  0.2299  0.6421
  979MOL0     N32082   1.266   8.389  -0.036  0.9608  0.0978 -0.1376
  979MOL0     C32083   2.338   9.101   0.226 -0.5731 -0.8971 -0.3374
  979MOL0     C32084   2.476   9.136   0.254  0.0150  0.5399  0.0131
  979MOL0     C32085   2.915   9.186   0.348  0.0774 -0.7793  0.4097
  979MOL0     C32086   2.999   9.296   0.298  0.1906  0.0220 -0.4120
  979MOL0     C32087   3.133   9.293   0.322  0.4525 -0.1356 -0.2707
  979MOL0     C32088   3.194   9.179   0.384  0.3992 -0.6752 -0.5204
  979MOL0     O32089   3.330   9.192   0.381 -0.4307 -0.1575  0.0583
  979MOL0     C32090   3.394   9.096   0.469  0.3971  0.0329 -0.9306
  979MOL0     C32091   3.523   9.139   0.533 -0.1667 -1.2348 -0.1405
  979MOL0     C32092   3.639   9.148   0.436  0.1950  1.0419  0.1258
  979MOL0     C32093   3.746   9.212   0.509  0.1767 -0.1995 -0.6224
  979MOL0     C32094   3.879   9.185   0.451 -0.0913 -0.0261  0.0482
  979MOL0     C32095   4.000   9.158   0.421 -0.1670  0.5367  0.3092
  979MOL0     C32096   3.114   9.063   0.419 -0.3402 -0.2066 -0.0231
  979MOL0     C32097   2.980   9.071   0.399  0.0305 -0.2106  0.2912
  979MOL0     H32098   2.577   8.836   0.358 -0.1486 -0.1879  0.9517
  979MOL0     H32099   2.323   8.795   0.357 -0.2624 -0.1759  0.0728
  979MOL0     H32100   2.074   9.100   0.327 -2.7808  0.0508  0.2137
  979MOL0     H32101   2.039   9.060   0.154 -2.3792 -0.8697 -0.0287
  979MOL0     H32102   1.953   8.892   0.384  0.9007  0.1930  0.1966
  979MOL0     H32103   1.852   9.035   0.324 -1.9919 -0.2351 -2.6265
  979MOL0     H32104   1.831   8.910   0.104 -3.0830  1.3181  0.9455
  979MOL0     H32105   1.937   8.781   0.180 -0.5118  0.7569  0.0768
  979MOL0     H32106   1.769   8.742   0.345  0.5744  1.1236  0.8874
  979MOL0     H32107   1.671   8.876   0.286 -0.4036 -1.3865  0.7195
  979MOL0     H32108   1.650   8.769   0.076 -0.5406  0.6007 -0.3544
  979MOL0     H32109   1.748   8.628   0.121  0.0916  1.2506  0.9809
  979MOL0     H32110   1.583   8.544   0.278  1.6705  0.7513  0.0927
  979MOL0     H32111   1.507   8.704   0.290 -0.4702 -0.3931 -0.2770
  979MOL0     H32112   1.407   8.700   0.081 -2.3253  0.5217  3.5090
  979MOL0     H32113   1.499   8.556   0.027 -0.6268 -1.0497  0.6301
  979MOL0     H32114   1.309   8.566   0.249  0.9783 -2.7598  1.6741
  979MOL0     H32115   1.370   8.418   0.192  0.9984  0.3882 -0.7996
  979MOL0     H32116   1.124   8.667   0.067  2.7291 -0.2794  0.5447
  979MOL0     H32117   0.954   8.675  -0.135  1.8815  1.5809  0.5771
  979MOL0     H32118   1.051   8.636  -0.267 -2.6152  2.4633 -0.1587
  979MOL0     H32119   0.841   8.441  -0.165  0.1976  0.0807 -0.0426
  979MOL0     H32120   0.949   8.424  -0.314 -1.7290  0.0520 -2.3917
  979MOL0     H32121   0.825   8.597  -0.424 -2.5713 -1.5467 -1.4344
  979MOL0     H32122   0.761   8.660  -0.275  0.2280 -1.0471  2.2873
  979MOL0     H32123   0.591   8.500  -0.248  1.6964  1.4431  1.1491
  979MOL0     H32124   0.674   8.386  -0.366 -0.9207 -0.4890  0.1177
  979MOL0     H32125   0.418   8.596  -0.665  2.7239 -2.7899 -1.5221
  979MOL0     H32126   0.094   8.515  -0.728 -0.3115  2.0247 -1.5845
  979MOL0     H32127   0.227   8.617  -0.773 -1.5168  0.3923  1.9620
  979MOL0     H32128   0.210   8.455  -0.848  2.5882  2.6665 -1.3883
  979MOL0     H32129  -0.228   8.382  -0.414  1.3955 -0.5666  1.3229
  979MOL0     H32130  -0.448   8.279  -0.447  1.1333  0.7953  0.9879
  979MOL0     H32131  -0.661   8.132  -0.447  0.2356  0.5502 -0.0521
  979MOL0     H32132  -0.597   8.223  -0.582  1.1580  0.3683  0.3868
  979MOL0     H32133  -0.762   7.974  -0.574  0.1622  0.9638 -0.8268
  979MOL0     H32134  -0.803   8.138  -0.632 -0.5554 -0.1168  2.6085
  979MOL0     H32135  -0.570   7.991  -0.765  0.9098  1.1805  2.7267
  979MOL0     H32136  -0.675   8.123  -0.823 -0.4871  1.0460  2.3662
  979MOL0     H32137  -0.790   7.850  -0.758  0.9068  2.1227  3.6534
  979MOL0     H32138  -0.873   7.987  -0.822  1.2207  0.2922  2.2854
  979MOL0     H32139  -0.659   7.816  -0.951 -0.9547 -1.4201 -0.7179
  979MOL0     H32140  -0.713   7.963  -1.023 -3.5082  0.3999 -1.6247
  979MOL0     H32141  -0.841   7.720  -1.078 -2.6761 -0.4567  0.4697
  979MOL0     H32142  -0.943   7.785  -0.962 -1.6739  1.7278 -0.3070
  979MOL0     H32143  -0.815   7.911  -1.221 -0.2358 -2.8511  0.0725
  979MOL0     H32144  -0.937   8.009  -1.128 -0.3843  0.2529 -0.4025
  979MOL0     H32145  -0.956   7.752  -1.282  2.6937  1.0324 -0.6725
  979MOL0     H32146  -1.026   7.910  -1.334  3.5625 -1.7233 -1.8779
  979MOL0     H32147  -0.259   7.911  -0.569  1.6441 -1.3135  1.3943
  979MOL0     H32148  -0.037   8.032  -0.530 -0.0044  1.7340  1.5234
  979MOL0     H32149   0.265   8.219  -0.396 -0.1787  0.4758 -0.1202
  979MOL0     H32150   0.461   8.328  -0.333 -2.4908 -1.4577  0.4017
  979MOL0     H32151   2.269   9.175   0.187  0.6960 -0.0603 -1.0722
  979MOL0     H32152   2.522   9.225   0.213  0.9511 -0.3965 -1.0448
  979MOL0     H32153   2.964   9.375   0.234  1.7278  1.7654  0.7928
  979MOL0     H32154   3.198   9.371   0.284  0.5243 -0.0383  0.0505
  979MOL0     H32155   3.330   9.094   0.558  1.3340  0.0775 -0.2484
  979MOL0     H32156   3.385   8.997   0.423  1.4615  0.4488 -2.0701
  979MOL0     H32157   3.552   9.075   0.617 -4.3780 -0.9007  1.8438
  979MOL0     H32158   3.500   9.237   0.575 -2.6207 -1.1631 -1.4744
  979MOL0     H32159   3.607   9.217   0.357  2.3956  1.9831 -0.0004
  979MOL0     H32160   3.675   9.052   0.399 -1.1929  0.3969  0.3628
  979MOL0     H32161   3.743   9.183   0.615 -2.8204  2.2837  0.1115
  979MOL0     H32162   3.736   9.320   0.502  0.0269 -0.3229 -2.7147
  979MOL0     H32163   4.105   9.142   0.413  0.1070  2.5136 -0.4419
  979MOL0     H32164   3.159   8.970   0.453  1.9293  0.3365 -1.2757
  979MOL0     H32165   2.916   8.987   0.423  1.7921 -1.1020  2.1137
  980MOL0     O32166   3.565   6.444   0.990 -0.2765 -0.0128 -0.2667
  980MOL0     C32167   3.485   6.371   1.042  0.5150  0.9657 -0.0702
  980MOL0     O32168   3.374   6.315   0.982  1.1317  0.2114  0.4192
  980MOL0     C32169   3.360   6.341   0.847  0.5320 -0.4750  0.5565
  980MOL0     C32170   3.280   6.450   0.817 -1.0243 -1.2582  0.1320
  980MOL0     C32171   3.247   6.478   0.685  0.2950 -1.1214 -1.5891
  980MOL0     C32172   3.300   6.404   0.586 -0.2784  0.1519 -0.2696
  980MOL0     O32173   3.289   6.419   0.451 -0.2815 -0.0289  0.7213
  980MOL0     C32174   3.204   6.520   0.401 -0.7037  0.2363 -0.4211
  980MOL0     C32175   3.205   6.510   0.245  0.3000  0.2404 -0.0722
  980MOL0     C32176   3.103   6.593   0.181  0.3056  0.1846  0.3307
  980MOL0     C32177   3.063   6.534   0.035 -0.5325 -0.4500  0.5875
  980MOL0     C32178   2.991   6.646  -0.040  0.2218  0.5911 -0.4979
  980MOL0     C32179   2.978   6.626  -0.191  0.5519  0.0013 -0.5595
  980MOL0     C32180   2.878   6.506  -0.229  0.0746  1.1265 -0.3359
  980MOL0     C32181   2.734   6.515  -0.178 -1.0784  0.1739 -0.7132
  980MOL0     N32182   2.659   6.621  -0.248 -0.6592  0.0232 -0.2619
  980MOL0     C32183   2.684   6.660  -0.379  0.1788  1.4490 -0.3812
  980MOL0     C32184   2.567   6.726  -0.414 -0.4734  0.9264 -0.2267
  980MOL0     C32185   2.529   6.782  -0.547 -0.2483  0.7201 -0.2289
  980MOL0     C32186   2.591   6.919  -0.566 -0.2080  0.4435 -0.3515
  980MOL0     C32187   2.566   7.037  -0.469  0.3538  0.3239  0.8857
  980MOL0     C32188   2.416   7.064  -0.455 -0.1859 -0.2122  0.4928
  980MOL0     O32189   2.352   7.103  -0.584 -0.7951 -0.7325 -0.3300
  980MOL0     C32190   2.224   7.066  -0.609 -0.2455 -0.4114  0.4639
  980MOL0     C32191   2.186   7.060  -0.744  0.1606 -0.3383  0.8116
  980MOL0     C32192   2.050   7.013  -0.786  0.5367  0.2177  0.7656
  980MOL0     C32193   2.015   7.005  -0.938 -0.4659 -0.7749 -0.1796
  980MOL0     C32194   1.957   6.988  -0.687 -0.0180  1.0436 -0.4878
  980MOL0     C32195   1.818   6.926  -0.704 -0.1707 -0.1069  0.1472
  980MOL0     O32196   1.737   6.924  -0.590 -0.2097 -0.4890 -0.3037
  980MOL0     C32197   1.625   6.844  -0.568  0.5452 -0.1806  0.2398
  980MOL0     C32198   1.522   6.884  -0.479 -0.0411  1.0846 -1.1103
  980MOL0     C32199   1.419   6.803  -0.437 -0.1219 -0.2809  0.0987
  980MOL0     C32200   1.410   6.673  -0.491  0.3610  0.4623 -0.4295
  980MOL0     O32201   1.310   6.580  -0.472 -0.2081  0.1220 -0.1237
  980MOL0     C32202   1.237   6.595  -0.355  0.1105  0.8337  0.4847
  980MOL0     C32203   1.156   6.468  -0.332 -0.8201  0.5799  0.1865
  980MOL0     C32204   1.026   6.489  -0.267 -0.1829  0.2541  0.5267
  980MOL0     C32205   0.939   6.363  -0.279 -0.2819  0.3327  0.0463
  980MOL0     C32206   0.800   6.402  -0.229  0.1379  0.1335  0.2160
  980MOL0     C32207   0.703   6.288  -0.233  0.1171 -0.1877  0.5561
  980MOL0     C32208   0.575   6.325  -0.160  0.5218  0.1592  0.2425
  980MOL0     C32209   0.588   6.322  -0.009  0.0199  0.5632 -0.0084
  980MOL0    Cl32210   0.657   6.171   0.064  0.0130 -0.1528 -0.0619
  980MOL0     C32211   1.506   6.628  -0.583 -0.1194  0.0607  0.3649
  980MOL0     C32212   1.613   6.709  -0.624  0.7244  0.4747 -0.2760
  980MOL0     O32213   1.793   6.866  -0.809 -0.5638 -0.1060  0.2476
  980MOL0     C32214   1.997   7.007  -0.551  0.1775 -0.0800  0.0742
  980MOL0     C32215   2.126   7.040  -0.511  0.3014 -0.3634 -0.5921
  980MOL0     N32216   2.485   6.736  -0.307  0.5390  0.0354  0.5768
  980MOL0     N32217   2.542   6.678  -0.202 -0.4454 -0.0266  0.0324
  980MOL0     C32218   3.389   6.300   0.622 -0.3125  0.0417  0.6823
  980MOL0     C32219   3.419   6.266   0.749 -0.2964  0.3440  0.9753
  980MOL0     C32220   3.510   6.330   1.178  0.0936 -1.0566  0.7546
  980MOL0     C32221   3.408   6.264   1.248 -1.1858 -0.3812 -0.4141
  980MOL0     C32222   3.436   6.221   1.376 -0.3051 -0.4004  0.0492
  980MOL0     C32223   3.556   6.233   1.434  1.0897 -0.2973  0.6389
  980MOL0     O32224   3.556   6.169   1.559 -0.0565 -0.1329  0.5040
  980MOL0     C32225   3.680   6.132   1.627 -0.4570  0.3485  0.2843
  980MOL0     C32226   3.770   6.033   1.554  0.2882  0.5458 -1.1958
  980MOL0     C32227   3.913   6.018   1.617 -0.3871  0.1796 -0.2872
  980MOL0     C32228   4.014   5.994   1.511 -0.9971  0.1823  0.5225
  980MOL0     C32229   4.151   6.016   1.566  0.0373 -0.3654 -0.0452
  980MOL0     C32230   4.254   6.055   1.617 -0.4067 -0.0769  1.2329
  980MOL0     C32231   3.654   6.302   1.367  0.1201  0.3582 -0.0227
  980MOL0     C32232   3.635   6.358   1.239 -0.2720  0.0349 -0.7613
  980MOL0     H32233   3.254   6.516   0.900  0.4972 -1.2255  0.6176
  980MOL0     H32234   3.180   6.560   0.664 -1.2749 -1.5786  1.0668
  980MOL0     H32235   3.099   6.500   0.426 -0.0663 -2.6148  0.3225
  980MOL0     H32236   3.238   6.618   0.434  0.6533 -1.5487  4.2901
  980MOL0     H32237   3.305   6.528   0.206 -0.3862 -0.9078 -2.5891
  980MOL0     H32238   3.193   6.407   0.210  2.2473  0.5466 -1.8019
  980MOL0     H32239   3.008   6.593   0.234  1.1270 -2.4948  1.9543
  980MOL0     H32240   3.136   6.698   0.180 -3.0231  1.3467  1.1873
  980MOL0     H32241   3.152   6.502  -0.020 -1.8005 -2.4943 -0.3510
  980MOL0     H32242   3.001   6.446   0.047  3.0072 -3.3522 -0.4894
  980MOL0     H32243   2.896   6.681   0.002 -0.4823 -1.6092 -0.1651
  980MOL0     H32244   3.062   6.728  -0.023 -0.8319  1.1662  1.5114
  980MOL0     H32245   2.947   6.722  -0.234  1.3446 -0.1983 -1.6114
  980MOL0     H32246   3.076   6.606  -0.234  0.4753  0.1712 -0.8152
  980MOL0     H32247   2.870   6.475  -0.334 -0.0171  1.1172 -0.3268
  980MOL0     H32248   2.913   6.416  -0.178  0.8420  1.5488 -0.1084
  980MOL0     H32249   2.735   6.534  -0.070  1.7644 -0.4314 -0.5556
  980MOL0     H32250   2.675   6.424  -0.188  0.9017 -1.1645 -0.8190
  980MOL0     H32251   2.761   6.638  -0.452  0.3448  3.2246 -0.7897
  980MOL0     H32252   2.562   6.712  -0.624 -3.5934  0.5067 -1.6367
  980MOL0     H32253   2.420   6.786  -0.549 -0.4905 -2.7576 -0.1359
  980MOL0     H32254   2.559   6.949  -0.666  1.5320 -5.2423 -3.0784
  980MOL0     H32255   2.696   6.889  -0.558 -0.2043  1.0570  3.7973
  980MOL0     H32256   2.630   7.122  -0.496  2.5074 -0.7296  2.3490
  980MOL0     H32257   2.599   7.012  -0.368 -0.6675  0.6829  1.3213
  980MOL0     H32258   2.406   7.145  -0.382  2.6345  0.0274  0.7402
  980MOL0     H32259   2.380   6.967  -0.419  1.9907 -0.7416  1.4196
  980MOL0     H32260   2.252   7.079  -0.829 -0.6353 -3.2995 -0.5935
  980MOL0     H32261   1.926   7.064  -0.960 -1.9014 -1.3276  3.4477
  980MOL0     H32262   2.104   7.027  -0.999 -0.4809  1.8094  0.6105
  980MOL0     H32263   1.991   6.908  -0.981 -0.8471  0.5437 -3.1730
  980MOL0     H32264   1.545   6.977  -0.428 -0.7793  0.4231  0.5085
  980MOL0     H32265   1.357   6.835  -0.354  1.7473  0.5232  1.2391
  980MOL0     H32266   1.310   6.612  -0.275  1.9415 -0.2772 -0.9073
  980MOL0     H32267   1.179   6.688  -0.362 -0.7157  0.2028 -2.1353
  980MOL0     H32268   1.145   6.414  -0.427 -2.3749 -0.8072  1.0938
  980MOL0     H32269   1.218   6.411  -0.262 -0.3517 -0.7747 -1.2785
  980MOL0     H32270   0.979   6.569  -0.326  1.1763  1.1156  0.5682
  980MOL0     H32271   1.032   6.518  -0.161 -1.5863  1.6427  0.2666
  980MOL0     H32272   0.946   6.325  -0.382 -1.4247 -3.0656  1.1068
  980MOL0     H32273   0.983   6.282  -0.220 -0.3347  1.0063  1.0174
  980MOL0     H32274   0.763   6.494  -0.275 -0.0518 -0.2343 -0.3819
  980MOL0     H32275   0.820   6.422  -0.124 -0.6925 -0.3575  0.4734
  980MOL0     H32276   0.678   6.260  -0.336  0.3645  0.2992  0.3602
  980MOL0     H32277   0.758   6.206  -0.187 -0.7633 -0.4132  1.2214
  980MOL0     H32278   0.510   6.241  -0.185  0.7273 -0.6189  2.1744
  980MOL0     H32279   0.543   6.428  -0.177  0.6715  0.3580  1.1103
  980MOL0     H32280   0.487   6.344   0.026 -0.8780 -0.5387 -1.7288
  980MOL0     H32281   0.648   6.401   0.035  0.3053 -0.9228  2.4597
  980MOL0     H32282   1.483   6.530  -0.622 -0.8712  0.4188 -0.1036
  980MOL0     H32283   1.689   6.671  -0.690  0.2844  2.2066 -1.8841
  980MOL0     H32284   1.933   6.989  -0.465 -0.3089  1.5007  0.0726
  980MOL0     H32285   2.145   7.046  -0.405 -1.6319 -0.1051 -0.2199
  980MOL0     H32286   3.424   6.250   0.533  0.8459  4.3590 -1.5331
  980MOL0     H32287   3.485   6.182   0.764 -0.6021  0.3082  2.1482
  980MOL0     H32288   3.313   6.236   1.202 -1.6820 -0.9144  0.8957
  980MOL0     H32289   3.352   6.165   1.416  1.0158 -1.2312  1.8564
  980MOL0     H32290   3.737   6.224   1.641  1.6599 -0.7984 -0.3433
  980MOL0     H32291   3.650   6.077   1.717  0.4114 -2.2461 -0.9170
  980MOL0     H32292   3.762   6.079   1.455 -4.8499  2.1732 -0.3360
  980MOL0     H32293   3.722   5.935   1.544  0.5614  0.0464  1.5964
  980MOL0     H32294   3.915   5.924   1.674 -1.4122  0.4711  0.2538
  980MOL0     H32295   3.939   6.095   1.690 -1.2212  1.1471 -0.9867
  980MOL0     H32296   4.004   6.067   1.430 -0.8869  2.2512  2.2716
  980MOL0     H32297   3.989   5.896   1.471 -0.5296  0.6337 -0.9301
  980MOL0     H32298   4.344   6.105   1.648 -0.0262  1.2148 -1.6612
  980MOL0     H32299   3.748   6.312   1.422  0.3496  0.1533 -0.3767
  980MOL0     H32300   3.716   6.410   1.188 -0.4193  0.6979 -0.3374
  981MOL0     O32301   9.819   7.731   4.884 -0.2428  0.1829  0.0605
  981MOL0     C32302   9.838   7.618   4.921 -0.6089 -0.5470  0.6136
  981MOL0     O32303   9.750   7.517   4.918 -0.3892 -0.1739  0.0418
  981MOL0     C32304   9.629   7.520   4.855 -0.3909 -0.2429  0.2345
  981MOL0     C32305   9.618   7.541   4.720 -0.0547 -0.8195  0.1922
  981MOL0     C32306   9.498   7.494   4.655  0.0093 -0.2050 -0.0332
  981MOL0     C32307   9.391   7.438   4.722 -0.3646  0.4490  0.0276
  981MOL0     O32308   9.279   7.399   4.648 -0.3618  0.6419  0.2678
  981MOL0     C32309   9.165   7.355   4.729 -0.1393  0.5754  0.1990
  981MOL0     C32310   9.045   7.346   4.636 -0.0385 -0.6641  0.0022
  981MOL0     C32311   8.906   7.335   4.701 -0.3819  0.0606 -0.1124
  981MOL0     C32312   8.897   7.197   4.766 -0.2594  0.7582  0.1909
  981MOL0     C32313   8.749   7.148   4.795  0.1390  0.1852  0.3209
  981MOL0     C32314   8.672   7.221   4.900 -0.0316 -0.4181 -1.1373
  981MOL0     C32315   8.541   7.146   4.938  0.3050 -0.2152 -0.3890
  981MOL0     C32316   8.476   7.233   5.050  0.6203  0.0143 -0.5380
  981MOL0     N32317   8.429   7.360   5.001 -0.0823  0.1451 -0.1379
  981MOL0     C32318   8.310   7.371   4.931 -0.5884 -0.4855  0.6165
  981MOL0     C32319   8.285   7.508   4.924  0.6834 -0.7656 -0.2967
  981MOL0     C32320   8.172   7.591   4.848  0.1883  0.0971  0.9365
  981MOL0     C32321   8.033   7.545   4.913 -0.1696  0.8849  1.7943
  981MOL0     C32322   8.025   7.618   5.047  0.5095 -0.1658  0.3562
  981MOL0     C32323   7.886   7.597   5.106  0.6274 -0.7078 -0.2286
  981MOL0     O32324   7.787   7.671   5.028  0.3188 -0.6256 -0.5484
  981MOL0     C32325   7.661   7.623   5.049  0.5305 -0.7247  0.2283
  981MOL0     C32326   7.593   7.657   5.167  0.1845  0.1480  0.2863
  981MOL0     C32327   7.468   7.601   5.201 -0.1258  0.1174  0.5771
  981MOL0     C32328   7.406   7.627   5.340  0.0716 -0.1990  0.5700
  981MOL0     C32329   7.395   7.534   5.096 -0.3930  0.0846  0.7401
  981MOL0     C32330   7.257   7.479   5.112  0.3715 -0.0689 -0.3160
  981MOL0     O32331   7.212   7.400   5.008 -0.3794 -0.7484 -0.3259
  981MOL0     C32332   7.078   7.372   4.982 -0.5868  0.0187 -0.9845
  981MOL0     C32333   7.047   7.313   4.861 -0.3102 -0.1155 -0.1953
  981MOL0     C32334   6.916   7.289   4.814 -0.1656  0.5488 -0.0025
  981MOL0     C32335   6.807   7.315   4.900  0.1507  0.7300 -0.8744
  981MOL0     O32336   6.676   7.287   4.871 -0.5401 -0.3891 -0.0463
  981MOL0     C32337   6.626   7.358   4.759  0.6481  0.2688  0.4315
  981MOL0     C32338   6.481   7.304   4.725 -0.2832  0.4189  0.5678
  981MOL0     C32339   6.476   7.161   4.677  0.4508  0.2295  0.1210
  981MOL0     C32340   6.332   7.109   4.650 -0.6807  0.3802 -1.0089
  981MOL0     C32341   6.252   7.194   4.556 -0.0868  0.3947 -0.0654
  981MOL0     C32342   6.119   7.118   4.526 -0.3138 -0.3658 -0.1627
  981MOL0     C32343   6.000   7.196   4.455 -0.5151  0.3340  0.0961
  981MOL0     C32344   5.875   7.108   4.456  0.1913 -0.0934 -0.8444
  981MOL0    Cl32345   5.752   7.161   4.345 -0.1010 -0.1665 -0.1506
  981MOL0     C32346   6.838   7.362   5.037  0.2960 -0.6113  0.2514
  981MOL0     C32347   6.972   7.385   5.073 -0.5151 -0.7382  0.0383
  981MOL0     O32348   7.193   7.513   5.209 -0.3001  0.0667  0.0835
  981MOL0     C32349   7.465   7.501   4.975  0.5100  1.3566  0.8407
  981MOL0     C32350   7.595   7.540   4.954  0.3138  0.4309  0.4124
  981MOL0     N32351   8.392   7.570   4.997 -0.2993  0.3059  0.2648
  981MOL0     N32352   8.481   7.487   5.032 -0.1198  0.6642 -0.9199
  981MOL0     C32353   9.396   7.432   4.865  1.0909 -0.7897 -0.0191
  981MOL0     C32354   9.516   7.468   4.929 -0.0222 -0.3714  0.2287
  981MOL0     C32355   9.955   7.603   5.014  0.4098  0.4252 -0.0192
  981MOL0     C32356   9.961   7.499   5.093 -0.0799  0.1097  0.2508
  981MOL0     C32357  10.068   7.476   5.186  0.7416 -0.1385  0.5154
  981MOL0     C32358  10.181   7.558   5.175 -0.9441  0.7430  1.4067
  981MOL0     O32359  10.287   7.519   5.250  0.2414  0.0030  0.1114
  981MOL0     C32360  10.418   7.552   5.207  0.5003 -0.8471  0.3261
  981MOL0     C32361  10.468   7.439   5.123 -0.1140  0.1391  0.1883
  981MOL0     C32362  10.448   7.300   5.189  0.4370  0.4403 -0.4107
  981MOL0     C32363  10.536   7.196   5.115  0.0389  0.5281 -0.3810
  981MOL0     C32364  10.673   7.187   5.168  0.3922 -0.2907  0.9419
  981MOL0     C32365  10.790   7.205   5.202  0.4584  0.8712  0.3339
  981MOL0     C32366  10.179   7.669   5.087 -0.1094 -0.6161  0.4437
  981MOL0     C32367  10.065   7.691   5.010  0.3234 -0.6194 -0.2419
  981MOL0     H32368   9.703   7.579   4.664  0.6126 -3.1589 -0.4996
  981MOL0     H32369   9.483   7.503   4.548  0.4644 -3.3842 -0.4440
  981MOL0     H32370   9.182   7.259   4.778  0.0709  0.4840 -0.0495
  981MOL0     H32371   9.149   7.421   4.814  4.6529 -0.2574  2.1028
  981MOL0     H32372   9.042   7.438   4.578  2.1254 -0.8644 -0.5164
  981MOL0     H32373   9.072   7.262   4.572  0.7896 -0.2397 -0.2231
  981MOL0     H32374   8.909   7.418   4.772  2.8177  1.1606 -1.3603
  981MOL0     H32375   8.822   7.350   4.632  0.3729  0.9949 -0.8557
  981MOL0     H32376   8.949   7.126   4.701 -1.9847 -0.0251 -0.3735
  981MOL0     H32377   8.951   7.190   4.861  1.1809  0.4840 -0.6186
  981MOL0     H32378   8.682   7.166   4.710 -1.8402  0.2908  1.8560
  981MOL0     H32379   8.765   7.044   4.825 -0.4061 -0.3376 -1.0803
  981MOL0     H32380   8.736   7.230   4.989 -1.8158  0.5373  0.0990
  981MOL0     H32381   8.645   7.319   4.859  1.0866 -0.7586 -2.7949
  981MOL0     H32382   8.472   7.139   4.853 -0.4893  0.2446  0.2046
  981MOL0     H32383   8.565   7.042   4.961 -0.9242  0.2346  3.6296
  981MOL0     H32384   8.542   7.251   5.136  1.3997 -4.7234  0.1143
  981MOL0     H32385   8.397   7.168   5.087  0.3281 -0.4168 -1.8754
  981MOL0     H32386   8.252   7.296   4.878 -1.7105 -1.0071  2.4893
  981MOL0     H32387   8.177   7.700   4.850  0.8570  0.0615  2.2669
  981MOL0     H32388   8.183   7.561   4.744 -0.4409 -0.3647  0.9994
  981MOL0     H32389   8.020   7.438   4.930 -0.9385  0.1910 -2.2769
  981MOL0     H32390   7.950   7.575   4.849  0.3705 -2.1260 -0.5270
  981MOL0     H32391   8.040   7.725   5.032 -2.3223  0.0807 -1.5731
  981MOL0     H32392   8.095   7.575   5.119  0.2400 -0.0716  0.6743
  981MOL0     H32393   7.886   7.644   5.205  1.5427  2.1140 -1.4768
  981MOL0     H32394   7.881   7.488   5.105  1.7965 -0.7791 -1.4499
  981MOL0     H32395   7.650   7.712   5.241  1.8678 -1.7771  0.4881
  981MOL0     H32396   7.332   7.707   5.340  1.8414  1.5203  0.5778
  981MOL0     H32397   7.354   7.537   5.376  2.1948 -1.8023 -0.1070
  981MOL0     H32398   7.480   7.660   5.414  0.1658  1.5754 -0.2759
  981MOL0     H32399   7.133   7.288   4.799  2.4544 -1.4826  3.7360
  981MOL0     H32400   6.906   7.258   4.710  0.1283  0.0703  0.1087
  981MOL0     H32401   6.606   7.462   4.786 -1.7185  0.4574 -1.6275
  981MOL0     H32402   6.690   7.358   4.671 -0.5848 -1.1354 -0.5144
  981MOL0     H32403   6.420   7.310   4.815 -2.1534  1.5212 -0.7058
  981MOL0     H32404   6.440   7.369   4.647  0.7554 -0.8952 -1.1419
  981MOL0     H32405   6.518   7.108   4.763 -0.8083  1.0804  1.2971
  981MOL0     H32406   6.539   7.150   4.587  0.6702  1.7795  0.0477
  981MOL0     H32407   6.347   7.008   4.611  3.7607  0.5660 -0.2993
  981MOL0     H32408   6.265   7.103   4.736 -2.4799 -1.7196 -2.4294
  981MOL0     H32409   6.305   7.219   4.464  0.2922  0.3744  0.1485
  981MOL0     H32410   6.213   7.279   4.612  0.8462  0.4669  0.4830
  981MOL0     H32411   6.139   7.023   4.475 -1.9914  0.9472 -3.6511
  981MOL0     H32412   6.073   7.093   4.621 -0.2392  3.0658  0.9117
  981MOL0     H32413   6.023   7.209   4.349 -1.9736  0.9976 -0.1751
  981MOL0     H32414   5.986   7.294   4.501  1.0432  0.4057  0.4559
  981MOL0     H32415   5.830   7.115   4.556 -0.4662  2.0945 -1.2315
  981MOL0     H32416   5.900   7.005   4.431 -0.7535 -0.1927 -1.4297
  981MOL0     H32417   6.760   7.386   5.108  0.5467 -0.2432  0.4047
  981MOL0     H32418   6.984   7.398   5.180 -1.7286 -0.2478  0.1385
  981MOL0     H32419   7.418   7.442   4.897 -0.4551  1.8529  1.0320
  981MOL0     H32420   7.648   7.516   4.863  0.9383  2.5261  0.1568
  981MOL0     H32421   9.330   7.374   4.929 -0.8703  0.5136 -0.7564
  981MOL0     H32422   9.534   7.438   5.032 -3.8249  0.1585  1.1896
  981MOL0     H32423   9.886   7.421   5.088 -0.4188  0.4251  0.4363
  981MOL0     H32424  10.076   7.389   5.249  0.7113 -1.3870 -1.1384
  981MOL0     H32425  10.425   7.651   5.161 -1.7732 -0.1727  1.2726
  981MOL0     H32426  10.486   7.568   5.291  2.2182  3.2498 -1.5381
  981MOL0     H32427  10.574   7.459   5.105 -0.5416  1.3336 -1.1655
  981MOL0     H32428  10.413   7.454   5.030 -0.7918  0.9029  0.6894
  981MOL0     H32429  10.343   7.268   5.187  0.4181  0.4393 -3.1564
  981MOL0     H32430  10.475   7.300   5.295  0.3285 -2.1836 -0.3100
  981MOL0     H32431  10.518   7.212   5.008  0.4971  1.7235 -0.2867
  981MOL0     H32432  10.495   7.099   5.144  1.2901 -0.2494 -1.0720
  981MOL0     H32433  10.891   7.218   5.234  0.7883  2.2025 -1.1506
  981MOL0     H32434  10.257   7.744   5.078  0.2152 -1.1395 -1.4680
  981MOL0     H32435  10.060   7.780   4.948 -0.4574  0.2120  0.9707
  982MOL0     O32436   9.241   4.778   9.572 -0.5322  0.7220  0.6352
  982MOL0     C32437   9.318   4.816   9.660  0.7629  0.0637  0.2782
  982MOL0     O32438   9.284   4.902   9.759  0.0525  0.6648 -0.3120
  982MOL0     C32439   9.167   4.964   9.759  0.5977 -0.5255  0.1859
  982MOL0     C32440   9.046   4.898   9.774  0.4348  0.3789 -0.4853
  982MOL0     C32441   8.921   4.964   9.756 -0.1372 -0.1237 -0.0745
  982MOL0     C32442   8.914   5.096   9.728  0.0188 -1.1386  0.2843
  982MOL0     O32443   8.804   5.166   9.727 -0.8626 -0.8155  0.1142
  982MOL0     C32444   8.679   5.099   9.721  0.4556 -0.8697  0.5280
  982MOL0     C32445   8.563   5.210   9.714 -0.3689 -0.2187  0.6528
  982MOL0     C32446   8.436   5.129   9.690  0.1600  0.1754  0.5227
  982MOL0     C32447   8.305   5.215   9.678  0.3984 -0.4022 -0.1297
  982MOL0     C32448   8.189   5.117   9.669  0.8291 -0.5908 -0.2949
  982MOL0     C32449   8.063   5.199   9.690 -0.2697  0.1467  0.8966
  982MOL0     C32450   7.941   5.110   9.676  0.0448  0.0506 -0.3350
  982MOL0     C32451   7.821   5.190   9.727 -0.8934 -0.6770  0.9236
  982MOL0     N32452   7.699   5.113   9.743 -1.0329  1.0934  0.1078
  982MOL0     C32453   7.652   5.061   9.866 -0.3073 -0.2140  0.1597
  982MOL0     C32454   7.521   5.039   9.843  0.2155 -0.1615  1.1785
  982MOL0     C32455   7.417   4.996   9.945 -0.6751 -0.6506 -0.2151
  982MOL0     C32456   7.361   5.108  10.028  0.4831  0.1542 -0.0808
  982MOL0     C32457   7.233   5.063  10.104 -0.3053 -0.5311  0.1707
  982MOL0     C32458   7.180   5.149  10.218 -0.5816 -0.8447 -0.5897
  982MOL0     O32459   7.109   5.265  10.179 -0.0879 -0.8288 -0.2103
  982MOL0     C32460   6.985   5.256  10.131 -0.4580  0.4773 -0.1190
  982MOL0     C32461   6.936   5.374  10.070  0.3452 -0.0016  0.2387
  982MOL0     C32462   6.802   5.380  10.025  0.2825  0.1048  0.7506
  982MOL0     C32463   6.760   5.504   9.940  0.1715 -0.1750 -0.2557
  982MOL0     C32464   6.723   5.267  10.038  0.2419  0.1128  0.6515
  982MOL0     C32465   6.596   5.261   9.971  0.2403  0.0013  0.1867
  982MOL0     O32466   6.583   5.294   9.834  0.2104  0.1549 -1.1345
  982MOL0     C32467   6.475   5.240   9.764 -0.2819  0.1771  0.0860
  982MOL0     C32468   6.376   5.324   9.710  0.3712 -0.4613 -0.0935
  982MOL0     C32469   6.273   5.272   9.633  0.4501  0.1004  0.9565
  982MOL0     C32470   6.264   5.134   9.608 -0.2577 -0.5458 -0.5077
  982MOL0     O32471   6.169   5.080   9.528  0.3182 -0.3826 -0.0923
  982MOL0     C32472   6.063   5.167   9.481  0.5446 -0.0215 -0.3088
  982MOL0     C32473   5.958   5.084   9.405  0.7870 -0.0995  0.5556
  982MOL0     C32474   5.840   5.184   9.386 -0.5590 -0.6793  0.1662
  982MOL0     C32475   5.731   5.118   9.303 -0.5250 -0.1048 -0.7826
  982MOL0     C32476   5.625   5.031   9.387 -0.0553  0.1722  0.9675
  982MOL0     C32477   5.485   5.027   9.311  0.4257  0.3771  0.2055
  982MOL0     C32478   5.416   4.899   9.331  0.1730  0.3180 -0.3183
  982MOL0     C32479   5.288   4.921   9.246  0.5716  1.1255 -0.3267
  982MOL0    Cl32480   5.173   4.774   9.264 -0.3418 -0.2078  0.2470
  982MOL0     C32481   6.354   5.045   9.666 -0.5613 -0.1320 -0.6386
  982MOL0     C32482   6.462   5.097   9.743 -0.4641  0.3750 -0.8957
  982MOL0     O32483   6.508   5.198  10.031 -0.6108  0.3521  0.1674
  982MOL0     C32484   6.771   5.151  10.092 -0.4819 -0.6255 -0.2375
  982MOL0     C32485   6.896   5.142  10.138 -0.7268 -0.4763  0.1710
  982MOL0     N32486   7.486   5.083   9.715 -0.3553 -0.4754  0.5219
  982MOL0     N32487   7.590   5.127   9.658 -0.6243 -0.0717 -0.1845
  982MOL0     C32488   9.036   5.163   9.705  0.2764 -0.3340 -0.3841
  982MOL0     C32489   9.163   5.093   9.723  0.5684 -0.3405  0.5077
  982MOL0     C32490   9.454   4.781   9.638  0.3606 -0.5273  0.6899
  982MOL0     C32491   9.501   4.729   9.517 -0.0695  0.8630 -0.1301
  982MOL0     C32492   9.634   4.705   9.504 -1.1516 -0.6007  0.8068
  982MOL0     C32493   9.730   4.736   9.599  1.2795 -0.4094  0.0852
  982MOL0     O32494   9.853   4.703   9.565 -0.5998  0.2294 -0.7248
  982MOL0     C32495   9.953   4.718   9.661 -0.6034  0.1960  0.9349
  982MOL0     C32496  10.072   4.622   9.638  0.1624 -1.0226 -0.1168
  982MOL0     C32497  10.179   4.638   9.742  0.1924 -0.6257  0.1722
  982MOL0     C32498  10.301   4.566   9.699  0.6363  0.1725 -0.9053
  982MOL0     C32499  10.292   4.419   9.730 -0.6666  0.3107 -0.4694
  982MOL0     C32500  10.276   4.295   9.737  0.5286 -0.2663 -0.2867
  982MOL0     C32501   9.683   4.778   9.721 -0.5337 -0.0674  0.2351
  982MOL0     C32502   9.545   4.795   9.741  0.1669  0.0808  0.1981
  982MOL0     H32503   9.044   4.791   9.794 -0.2258 -0.1844 -3.1284
  982MOL0     H32504   8.832   4.914   9.792 -0.3285 -0.0546 -0.4417
  982MOL0     H32505   8.675   5.044   9.627 -0.5136 -0.4382  0.2993
  982MOL0     H32506   8.658   5.031   9.804  1.7024 -0.8414  0.8802
  982MOL0     H32507   8.563   5.276   9.801  0.3683  2.7529 -1.4217
  982MOL0     H32508   8.584   5.271   9.625 -0.3341 -2.2131 -0.7764
  982MOL0     H32509   8.458   5.089   9.591  2.3663  0.4721  0.8259
  982MOL0     H32510   8.425   5.045   9.759 -1.0336 -0.0205  0.1182
  982MOL0     H32511   8.282   5.285   9.759 -1.8053 -0.7056 -0.4242
  982MOL0     H32512   8.309   5.273   9.585 -0.4335  2.6814  1.6135
  982MOL0     H32513   8.180   5.067   9.572 -0.8900 -0.9753  0.0248
  982MOL0     H32514   8.195   5.046   9.752 -0.0742  1.1832  1.3877
  982MOL0     H32515   8.074   5.245   9.788  0.9576  1.4625  0.1797
  982MOL0     H32516   8.049   5.272   9.610 -1.1325 -0.1307  0.7895
  982MOL0     H32517   7.927   5.084   9.571 -0.6282 -1.2316  0.0455
  982MOL0     H32518   7.955   5.015   9.729 -3.0631  0.0593  0.6861
  982MOL0     H32519   7.811   5.273   9.656  3.0249 -0.3822  0.4648
  982MOL0     H32520   7.845   5.245   9.818  1.6357 -1.7729  1.0013
  982MOL0     H32521   7.707   5.050   9.959  1.1863  1.5700 -0.4434
  982MOL0     H32522   7.339   4.937   9.895 -0.6560 -0.8924  0.0384
  982MOL0     H32523   7.472   4.934  10.017  0.6560  1.0209  0.2578
  982MOL0     H32524   7.347   5.191   9.958  1.7623  1.2085  0.8836
  982MOL0     H32525   7.439   5.142  10.096  2.4036  0.0662 -2.1172
  982MOL0     H32526   7.263   4.966  10.144  2.4464 -0.7210 -1.9863
  982MOL0     H32527   7.157   5.034  10.031 -0.2868 -2.8854  0.9951
  982MOL0     H32528   7.268   5.183  10.273 -0.6943 -1.9544  0.3009
  982MOL0     H32529   7.126   5.088  10.291  0.1673 -0.3867  0.3626
  982MOL0     H32530   7.002   5.459  10.062 -1.4892  1.3282 -1.9744
  982MOL0     H32531   6.815   5.596   9.964 -0.5290  0.6035 -1.5668
  982MOL0     H32532   6.795   5.474   9.841  2.7309  0.7291  0.2828
  982MOL0     H32533   6.654   5.528   9.942 -0.4223 -2.5223  1.7834
  982MOL0     H32534   6.398   5.430   9.716  3.1705 -1.0269  1.2872
  982MOL0     H32535   6.210   5.352   9.595  2.1084  1.1431  0.2712
  982MOL0     H32536   6.008   5.215   9.563 -2.8019 -2.9447 -0.5549
  982MOL0     H32537   6.109   5.239   9.413  0.7938 -0.1627 -0.2886
  982MOL0     H32538   6.000   5.061   9.307 -0.8219  3.3255 -1.1384
  982MOL0     H32539   5.927   4.997   9.463  2.3591 -0.6401  0.6223
  982MOL0     H32540   5.871   5.279   9.341  1.6246 -0.5119  1.8793
  982MOL0     H32541   5.801   5.222   9.481  1.4634  0.2722  0.6633
  982MOL0     H32542   5.680   5.196   9.245 -2.8580 -2.8082 -2.6817
  982MOL0     H32543   5.779   5.061   9.223  0.0437  1.2427 -1.4282
  982MOL0     H32544   5.608   5.077   9.484  1.5052 -0.8120  1.7613
  982MOL0     H32545   5.658   4.928   9.407 -1.2626 -0.3160  0.5411
  982MOL0     H32546   5.435   5.120   9.342  0.2516  0.6331 -0.8189
  982MOL0     H32547   5.507   5.031   9.204 -2.3144 -0.3010 -0.4619
  982MOL0     H32548   5.393   4.874   9.435 -2.3362 -2.2895 -1.3620
  982MOL0     H32549   5.461   4.815   9.276  0.0882 -0.0526  0.1753
  982MOL0     H32550   5.317   4.924   9.140 -1.9949 -1.8341 -1.2551
  982MOL0     H32551   5.228   5.001   9.290 -0.1493 -0.7710  2.3534
  982MOL0     H32552   6.349   4.938   9.648  0.5801 -0.5444  1.2364
  982MOL0     H32553   6.533   5.032   9.792  0.5620  2.3468  0.3796
  982MOL0     H32554   6.702   5.069  10.109 -1.4565  0.0376 -0.8629
  982MOL0     H32555   6.924   5.052  10.192 -2.2419 -0.8814  0.3058
  982MOL0     H32556   9.047   5.268   9.680  0.9734 -0.3767 -0.2748
  982MOL0     H32557   9.259   5.142   9.710  1.4446 -1.8122  1.2471
  982MOL0     H32558   9.431   4.708   9.437  1.0212  0.5160 -1.0206
  982MOL0     H32559   9.677   4.665   9.413 -0.3155  1.5031  0.2451
  982MOL0     H32560   9.991   4.821   9.664 -2.7151  1.0467  0.3756
  982MOL0     H32561   9.921   4.688   9.762 -1.6925  0.9893  0.8532
  982MOL0     H32562  10.114   4.633   9.538  3.0439 -0.3717  1.0380
  982MOL0     H32563  10.036   4.521   9.658  3.6329 -2.6506 -1.1908
  982MOL0     H32564  10.146   4.595   9.837  1.2950 -2.6566 -0.3130
  982MOL0     H32565  10.199   4.744   9.755 -3.6290  0.2243  0.4414
  982MOL0     H32566  10.390   4.616   9.740  0.6944 -0.9978  0.4802
  982MOL0     H32567  10.310   4.584   9.592  1.9299  0.8566 -0.7045
  982MOL0     H32568  10.259   4.192   9.758 -0.0706 -0.2931 -0.8820
  982MOL0     H32569   9.748   4.803   9.803  1.2977 -0.1593 -1.1311
  982MOL0     H32570   9.514   4.849   9.831 -2.0771 -2.0295  0.8203
  983MOL0     O32571   1.044   6.646   3.815 -0.6016  0.2864 -0.3748
  983MOL0     C32572   1.034   6.764   3.830 -0.1528 -0.7887  0.3905
  983MOL0     O32573   0.925   6.842   3.790 -0.4758 -0.0768 -0.1198
  983MOL0     C32574   0.827   6.782   3.721 -0.0344 -1.5173  0.8029
  983MOL0     C32575   0.773   6.858   3.609  0.2535  0.3514  0.0739
  983MOL0     C32576   0.662   6.811   3.541  0.1371  0.4262  0.1364
  983MOL0     C32577   0.601   6.691   3.582  0.4645  0.1174  0.6246
  983MOL0     O32578   0.469   6.664   3.540  0.5095 -0.3716 -0.1801
  983MOL0     C32579   0.384   6.562   3.591 -1.0761  0.0007 -0.0581
  983MOL0     C32580   0.249   6.600   3.520 -0.0982 -0.2938 -0.2882
  983MOL0     C32581   0.240   6.545   3.376  0.2706 -0.8893  0.0062
  983MOL0     C32582   0.181   6.400   3.377 -0.4563 -0.9100 -0.0810
  983MOL0     C32583   0.029   6.394   3.397 -0.1492  0.6921 -0.1938
  983MOL0     C32584  -0.047   6.441   3.278 -0.3742 -0.4322 -0.5337
  983MOL0     C32585  -0.200   6.440   3.307 -0.0347 -0.3447  0.5092
  983MOL0     C32586  -0.256   6.527   3.178  1.1795  0.2676  0.2912
  983MOL0     N32587  -0.410   6.525   3.183 -0.0017 -0.3527 -0.2296
  983MOL0     C32588  -0.491   6.625   3.236 -0.5132  0.0464 -0.5750
  983MOL0     C32589  -0.604   6.565   3.239 -0.4661 -0.6163  0.9645
  983MOL0     C32590  -0.745   6.629   3.272 -0.4575 -0.5824 -0.4729
  983MOL0     C32591  -0.844   6.588   3.172  0.0749  0.2825  0.7051
  983MOL0     C32592  -0.978   6.663   3.196 -0.1085  0.0042 -0.1718
  983MOL0     C32593  -1.092   6.611   3.106  0.0945 -0.3033  0.2223
  983MOL0     O32594  -1.218   6.665   3.146  0.0684 -0.2086 -0.0698
  983MOL0     C32595  -1.335   6.614   3.091  0.1553 -0.0620  0.6726
  983MOL0     C32596  -1.450   6.651   3.158  0.3590 -0.2609  0.9647
  983MOL0     C32597  -1.571   6.634   3.102  0.1733 -0.3615 -0.5211
  983MOL0     C32598  -1.690   6.677   3.181  0.1700  0.2926  0.5051
  983MOL0     C32599  -1.589   6.565   2.976  0.4534 -0.0652  0.4040
  983MOL0     C32600  -1.722   6.540   2.920  0.2565  0.2478  0.2287
  983MOL0     O32601  -1.837   6.531   3.001 -0.5264 -0.1673  0.1652
  983MOL0     C32602  -1.960   6.496   2.955  0.3732  0.0489  0.4429
  983MOL0     C32603  -2.014   6.512   2.824  0.2541  0.3402 -0.0971
  983MOL0     C32604  -2.151   6.480   2.806  0.0530  0.2507 -0.4976
  983MOL0     C32605  -2.237   6.434   2.913 -0.5916  0.5735 -0.2995
  983MOL0     O32606  -2.367   6.408   2.892  0.5646 -0.5888 -0.4548
  983MOL0     C32607  -2.433   6.510   2.813 -0.3082 -0.5225  0.5688
  983MOL0     C32608  -2.532   6.575   2.919 -0.4857  0.1209  0.0621
  983MOL0     C32609  -2.647   6.484   2.929  0.5279  0.0036  0.6452
  983MOL0     C32610  -2.734   6.533   3.040  0.0856 -0.1476  0.2295
  983MOL0     C32611  -2.847   6.437   3.070  1.1143  0.6080 -0.0576
  983MOL0     C32612  -2.960   6.422   2.956  0.5040  0.5586  0.0162
  983MOL0     C32613  -3.051   6.306   2.984  0.0005 -0.4989 -0.7236
  983MOL0     C32614  -2.987   6.167   2.960 -0.6235  0.4595  0.0507
  983MOL0    Cl32615  -3.087   6.047   3.035  0.0530 -0.2751 -0.0563
  983MOL0     C32616  -2.182   6.421   3.043  0.7463  0.1910  0.8352
  983MOL0     C32617  -2.047   6.457   3.057 -0.0667 -0.1725 -0.6909
  983MOL0     O32618  -1.722   6.511   2.802 -0.1690 -0.0989  0.6253
  983MOL0     C32619  -1.470   6.530   2.898  0.2761 -1.2842 -0.9232
  983MOL0     C32620  -1.345   6.558   2.958 -0.1907  0.7053 -0.2104
  983MOL0     N32621  -0.592   6.435   3.190  0.1581  0.3936 -0.0719
  983MOL0     N32622  -0.476   6.417   3.148 -0.1431 -0.4618 -0.4976
  983MOL0     C32623   0.661   6.609   3.685 -0.5319 -0.4684  0.1168
  983MOL0     C32624   0.767   6.659   3.756  0.5031  0.0671  0.2897
  983MOL0     C32625   1.160   6.837   3.872  0.1239 -0.5306 -0.5919
  983MOL0     C32626   1.177   6.977   3.863  0.1060  0.3534  0.4235
  983MOL0     C32627   1.295   7.031   3.920 -0.8032  0.3669 -0.2813
  983MOL0     C32628   1.411   6.958   3.960  0.2553  0.7160 -0.2196
  983MOL0     O32629   1.523   7.028   3.993  0.2591  0.1319  0.4675
  983MOL0     C32630   1.623   6.944   4.057 -0.0119  0.6706 -0.4022
  983MOL0     C32631   1.741   7.031   4.063 -0.2639  1.0703  0.5091
  983MOL0     C32632   1.727   7.165   4.139 -0.2949 -0.6595  0.0938
  983MOL0     C32633   1.842   7.269   4.139 -0.2073  0.4630 -1.0871
  983MOL0     C32634   1.942   7.234   4.240 -1.1575 -0.8072  0.0160
  983MOL0     C32635   2.026   7.214   4.326  0.2958  0.3336 -0.6274
  983MOL0     C32636   1.393   6.821   3.962  0.2897  1.2319 -0.3326
  983MOL0     C32637   1.267   6.763   3.929 -0.2714  0.0715 -0.0204
  983MOL0     H32638   0.810   6.956   3.579  2.6994 -0.9984 -1.6834
  983MOL0     H32639   0.614   6.871   3.464 -0.0810 -0.3918 -0.3776
  983MOL0     H32640   0.426   6.465   3.565  0.0129  0.4976 -0.2083
  983MOL0     H32641   0.373   6.563   3.700  2.0813 -0.4801  0.3392
  983MOL0     H32642   0.170   6.555   3.582  0.9351  1.5551  2.5790
  983MOL0     H32643   0.241   6.709   3.526 -1.5688 -0.3998  0.1334
  983MOL0     H32644   0.167   6.613   3.333  2.3817  0.8099 -1.0804
  983MOL0     H32645   0.335   6.548   3.322  1.0643 -1.6903  1.2973
  983MOL0     H32646   0.213   6.349   3.286 -1.8592  1.4211 -1.9897
  983MOL0     H32647   0.241   6.356   3.458 -1.3362  0.0837  1.1511
  983MOL0     H32648  -0.006   6.292   3.416 -1.9628  1.0170 -1.5779
  983MOL0     H32649  -0.002   6.450   3.486 -1.3283 -0.6295  0.2638
  983MOL0     H32650  -0.007   6.535   3.241 -0.3878 -0.4770 -0.6603
  983MOL0     H32651  -0.030   6.364   3.203  0.4747 -0.7703 -0.0031
  983MOL0     H32652  -0.234   6.337   3.314  0.3201 -0.5119 -0.1396
  983MOL0     H32653  -0.238   6.502   3.388  0.5473  1.8971 -0.8280
  983MOL0     H32654  -0.227   6.489   3.079 -0.8103 -1.0030  0.1286
  983MOL0     H32655  -0.226   6.632   3.185 -1.7977  1.1035  2.0901
  983MOL0     H32656  -0.472   6.730   3.257 -1.2767 -0.0657  0.7726
  983MOL0     H32657  -0.774   6.600   3.373 -0.1337 -1.7903 -0.7124
  983MOL0     H32658  -0.728   6.737   3.275 -2.2368 -0.2079 -2.0467
  983MOL0     H32659  -0.857   6.480   3.173  1.4164  0.1034  1.1793
  983MOL0     H32660  -0.796   6.616   3.078  0.9301 -2.8631  0.0957
  983MOL0     H32661  -0.959   6.769   3.176 -2.1473  0.3268 -0.6349
  983MOL0     H32662  -1.010   6.651   3.300 -1.0211 -1.1395 -0.5590
  983MOL0     H32663  -1.093   6.502   3.116 -2.0760 -0.1983  2.1288
  983MOL0     H32664  -1.063   6.645   3.006 -0.0822  0.0729  0.2958
  983MOL0     H32665  -1.436   6.710   3.248 -0.6390  0.0065  0.9600
  983MOL0     H32666  -1.649   6.737   3.263 -3.4950  2.0767  1.2065
  983MOL0     H32667  -1.760   6.745   3.130 -0.1017  1.6847  2.6222
  983MOL0     H32668  -1.747   6.591   3.216  2.1646 -2.5701 -2.6860
  983MOL0     H32669  -1.955   6.550   2.741  0.6678  1.8209  0.8299
  983MOL0     H32670  -2.189   6.509   2.708  2.2523 -0.1460 -1.5366
  983MOL0     H32671  -2.364   6.589   2.782 -0.9269 -0.6837 -1.3411
  983MOL0     H32672  -2.479   6.478   2.719  1.3042 -0.4006 -0.3009
  983MOL0     H32673  -2.487   6.590   3.017 -0.0420 -2.4718  0.3196
  983MOL0     H32674  -2.558   6.676   2.885 -0.9449  0.3236  0.9813
  983MOL0     H32675  -2.614   6.382   2.949 -1.5799 -1.0176 -0.7489
  983MOL0     H32676  -2.702   6.487   2.834 -1.3672  1.8203  1.6892
  983MOL0     H32677  -2.680   6.537   3.135  1.5873 -1.9858 -0.4710
  983MOL0     H32678  -2.774   6.634   3.031  3.9802  1.5560  0.2753
  983MOL0     H32679  -2.896   6.478   3.159  2.1934  1.1562  0.3066
  983MOL0     H32680  -2.803   6.341   3.096 -1.0439 -0.8010 -1.3174
  983MOL0     H32681  -3.016   6.516   2.948 -0.8475 -0.3019 -0.9990
  983MOL0     H32682  -2.916   6.411   2.856 -2.5221 -0.9572 -1.2702
  983MOL0     H32683  -3.139   6.309   2.919  0.3973  0.2684 -1.2381
  983MOL0     H32684  -3.089   6.311   3.086 -1.1277  0.3627 -1.1593
  983MOL0     H32685  -2.883   6.160   2.995 -0.5220 -0.8359 -0.4322
  983MOL0     H32686  -2.992   6.144   2.854 -2.6394  0.8437  0.0326
  983MOL0     H32687  -2.240   6.394   3.131  0.5408  2.7713  1.5612
  983MOL0     H32688  -2.005   6.461   3.157 -0.2276  1.7747 -0.6536
  983MOL0     H32689  -1.479   6.495   2.796 -0.1594  1.4551 -1.9150
  983MOL0     H32690  -1.255   6.552   2.897 -0.1859  2.0334 -0.3696
  983MOL0     H32691   0.614   6.515   3.712 -1.9649  0.4902  1.1090
  983MOL0     H32692   0.810   6.606   3.840  3.0403  2.0591  0.4015
  983MOL0     H32693   1.096   7.039   3.826 -0.7245 -0.8899  0.1243
  983MOL0     H32694   1.323   7.135   3.934  2.9240 -0.5223 -0.0576
  983MOL0     H32695   1.597   6.905   4.156 -0.5249 -2.1825 -1.5517
  983MOL0     H32696   1.643   6.857   3.994 -4.1253 -0.6863 -0.1164
  983MOL0     H32697   1.765   7.066   3.962 -1.1744  0.0192 -0.1036
  983MOL0     H32698   1.830   6.979   4.100  0.8788  1.0996 -1.9694
  983MOL0     H32699   1.692   7.152   4.242 -1.2638  2.1971  0.2383
  983MOL0     H32700   1.659   7.235   4.088  0.5035  3.8258  4.4556
  983MOL0     H32701   1.806   7.369   4.164  0.2132  0.9307 -2.3076
  983MOL0     H32702   1.880   7.264   4.037 -2.1624 -0.6095 -1.8054
  983MOL0     H32703   2.101   7.212   4.403 -0.8335  2.5633  0.6276
  983MOL0     H32704   1.469   6.749   3.992 -1.0197  1.1566  3.3993
  983MOL0     H32705   1.259   6.655   3.933  2.8752 -0.2236  1.2599
  984MOL0     O32706   2.671   3.224   3.465 -0.6465 -0.1763 -0.1266
  984MOL0     C32707   2.758   3.211   3.375  0.3881  0.0305  0.2577
  984MOL0     O32708   2.729   3.175   3.243  0.1921 -0.1127  0.6426
  984MOL0     C32709   2.594   3.198   3.210 -0.2801 -0.2465  0.3743
  984MOL0     C32710   2.561   3.331   3.175  0.2207 -0.0849  0.0944
  984MOL0     C32711   2.433   3.373   3.146  0.9755 -0.4261  0.0700
  984MOL0     C32712   2.330   3.281   3.160  0.0486 -0.0656  0.5833
  984MOL0     O32713   2.199   3.330   3.132  0.0778 -0.0539  0.0775
  984MOL0     C32714   2.088   3.239   3.140  1.0454  1.2396  0.5518
  984MOL0     C32715   1.962   3.276   3.054  1.0091 -0.2293  0.3015
  984MOL0     C32716   1.825   3.282   3.133  0.6520 -0.5589  0.1741
  984MOL0     C32717   1.708   3.313   3.043  0.1262 -0.8091  0.7213
  984MOL0     C32718   1.595   3.388   3.131 -0.2858  0.8883 -0.5890
  984MOL0     C32719   1.476   3.444   3.048 -0.2856  0.3057  0.2914
  984MOL0     C32720   1.376   3.529   3.125 -0.7258 -0.5351  0.7943
  984MOL0     C32721   1.311   3.437   3.229 -0.4367 -0.3484  0.3902
  984MOL0     N32722   1.164   3.445   3.224 -0.1615 -0.3297 -0.5454
  984MOL0     C32723   1.076   3.533   3.288 -0.0486  0.5027  0.3819
  984MOL0     C32724   0.950   3.488   3.259  0.5837  0.1033  0.7946
  984MOL0     C32725   0.818   3.543   3.315  0.0829  0.2129  0.3149
  984MOL0     C32726   0.735   3.432   3.376 -0.3508 -0.4174 -0.3972
  984MOL0     C32727   0.621   3.488   3.452 -0.3201  0.6543  0.3715
  984MOL0     C32728   0.499   3.503   3.353  0.5235 -0.0131  0.2107
  984MOL0     O32729   0.391   3.566   3.425  1.1276 -0.2156 -0.6247
  984MOL0     C32730   0.271   3.530   3.364 -0.8053  0.2757 -0.3041
  984MOL0     C32731   0.198   3.426   3.410 -0.1467 -0.0274  0.0433
  984MOL0     C32732   0.071   3.397   3.352  0.4462  0.1592  0.1161
  984MOL0     C32733  -0.027   3.301   3.432  0.0085  0.0882  0.1093
  984MOL0     C32734   0.030   3.462   3.231 -0.3465 -0.1396  0.6825
  984MOL0     C32735  -0.086   3.432   3.150 -0.1423  0.7469 -0.5135
  984MOL0     O32736  -0.194   3.355   3.206 -0.2838 -0.3837 -0.1482
  984MOL0     C32737  -0.297   3.302   3.136  0.1310  0.1056 -0.5130
  984MOL0     C32738  -0.302   3.270   3.000 -1.0359  0.0103 -0.2494
  984MOL0     C32739  -0.417   3.223   2.934 -0.5170 -0.4420  0.3300
  984MOL0     C32740  -0.524   3.188   3.006  0.0768  0.4459 -0.6376
  984MOL0     O32741  -0.629   3.123   2.940  0.3987  0.6658 -0.4706
  984MOL0     C32742  -0.721   3.045   3.019  1.0997 -1.1367 -0.0290
  984MOL0     C32743  -0.830   2.993   2.920  0.6082 -0.2315 -0.1145
  984MOL0     C32744  -0.789   2.904   2.803 -0.6577  0.1774 -0.3746
  984MOL0     C32745  -0.906   2.873   2.701 -0.3769 -0.4930 -0.0856
  984MOL0     C32746  -0.862   2.777   2.595  0.4601 -0.2618  1.2059
  984MOL0     C32747  -0.836   2.634   2.629 -0.4165  0.3916 -0.9220
  984MOL0     C32748  -0.960   2.547   2.610  0.3452 -0.0522  0.9638
  984MOL0     C32749  -0.908   2.401   2.607  0.2652  0.1137  0.4518
  984MOL0    Cl32750  -0.838   2.343   2.755  0.0420  0.0383 -0.0960
  984MOL0     C32751  -0.518   3.211   3.147 -0.2742  0.0144 -0.0611
  984MOL0     C32752  -0.406   3.260   3.209  0.1912  0.8774  0.2190
  984MOL0     O32753  -0.073   3.458   3.034  0.5954 -0.5328  0.2071
  984MOL0     C32754   0.114   3.561   3.183  0.5128 -0.0718 -0.4043
  984MOL0     C32755   0.223   3.596   3.255 -1.1907  0.4096  0.2195
  984MOL0     N32756   0.964   3.370   3.189  0.3904 -0.0305 -0.5719
  984MOL0     N32757   1.088   3.346   3.167  0.2831 -0.3946 -0.2413
  984MOL0     C32758   2.353   3.146   3.199 -0.7122  0.2525  0.2179
  984MOL0     C32759   2.488   3.104   3.225  0.4712 -0.5116  0.2833
  984MOL0     C32760   2.899   3.233   3.412 -0.7347 -0.0961 -0.4969
  984MOL0     C32761   2.998   3.220   3.314  0.1871  0.2327 -0.5207
  984MOL0     C32762   3.131   3.248   3.336  0.4187  0.4919  0.0776
  984MOL0     C32763   3.169   3.282   3.471  0.7698 -0.2147  0.0506
  984MOL0     O32764   3.298   3.303   3.500  0.0247  0.0743 -0.2997
  984MOL0     C32765   3.335   3.341   3.635  0.5977  0.8025 -0.6652
  984MOL0     C32766   3.493   3.341   3.641 -0.7261 -0.4556 -0.3594
  984MOL0     C32767   3.547   3.191   3.630  0.2020  0.6888 -0.2233
  984MOL0     C32768   3.694   3.183   3.579  0.1593 -0.4053  0.6305
  984MOL0     C32769   3.769   3.050   3.588 -0.2612 -0.8162  0.1107
  984MOL0     C32770   3.825   2.941   3.582 -0.0034 -0.5103 -0.0485
  984MOL0     C32771   3.068   3.292   3.568 -0.1529 -0.8091  0.0769
  984MOL0     C32772   2.931   3.277   3.536  0.7611  0.6442 -0.6962
  984MOL0     H32773   2.642   3.403   3.170  1.4897 -1.4776 -0.3088
  984MOL0     H32774   2.408   3.473   3.111 -1.1755 -0.8002  0.3701
  984MOL0     H32775   2.117   3.149   3.084  0.6082  2.2982 -1.4637
  984MOL0     H32776   2.055   3.218   3.242  0.6414 -0.7492  0.0641
  984MOL0     H32777   1.975   3.371   3.000  2.8504 -0.4391  0.3045
  984MOL0     H32778   1.946   3.198   2.980  0.7242  0.3851 -0.2982
  984MOL0     H32779   1.807   3.192   3.193  1.1073 -1.3047 -0.7778
  984MOL0     H32780   1.833   3.365   3.203  1.1812 -0.1439 -0.3730
  984MOL0     H32781   1.744   3.379   2.963  0.2444 -2.3970 -0.5803
  984MOL0     H32782   1.668   3.230   2.984 -0.8856  0.1025  0.0828
  984MOL0     H32783   1.555   3.321   3.208 -3.5724  3.2102 -0.0839
  984MOL0     H32784   1.636   3.481   3.172 -1.6445  1.9232 -1.4937
  984MOL0     H32785   1.513   3.502   2.963 -1.2085  0.7523  0.1836
  984MOL0     H32786   1.423   3.360   3.001  0.5577 -0.8144  1.2837
  984MOL0     H32787   1.420   3.619   3.167 -1.7401  0.0237  0.6870
  984MOL0     H32788   1.300   3.558   3.051  0.7330 -0.5915 -0.7942
  984MOL0     H32789   1.359   3.476   3.319  0.4383 -1.1715  0.2991
  984MOL0     H32790   1.346   3.333   3.229  2.4473  0.5120 -0.2952
  984MOL0     H32791   1.096   3.622   3.347  2.3093  0.9134 -0.9148
  984MOL0     H32792   0.851   3.616   3.389  1.7143  0.1043 -0.2824
  984MOL0     H32793   0.755   3.600   3.246 -1.6129  1.3687  2.6569
  984MOL0     H32794   0.795   3.376   3.448  1.3127  2.1782  0.3884
  984MOL0     H32795   0.693   3.368   3.298 -0.9089  0.3670 -0.7595
  984MOL0     H32796   0.650   3.584   3.496 -0.9741 -0.3504  3.1844
  984MOL0     H32797   0.593   3.420   3.533  2.0653  0.1535  0.8584
  984MOL0     H32798   0.470   3.406   3.313 -1.4398  1.3168 -1.8260
  984MOL0     H32799   0.531   3.564   3.268 -1.0943  1.2269  0.4427
  984MOL0     H32800   0.237   3.375   3.498 -0.1934 -0.7062 -0.3275
  984MOL0     H32801  -0.037   3.202   3.386  1.5637 -0.1887  0.2898
  984MOL0     H32802   0.017   3.281   3.530  0.2919  1.5069  0.2862
  984MOL0     H32803  -0.122   3.351   3.449 -0.0189  0.5161 -1.2542
  984MOL0     H32804  -0.216   3.282   2.934  0.0024 -4.1647  0.0738
  984MOL0     H32805  -0.415   3.210   2.826 -0.3320  3.1406 -0.2124
  984MOL0     H32806  -0.666   2.972   3.080  1.4775  0.6427  1.8813
  984MOL0     H32807  -0.768   3.114   3.090 -0.2540 -0.9088 -1.1104
  984MOL0     H32808  -0.905   2.942   2.980  1.0320 -1.5348 -0.6664
  984MOL0     H32809  -0.874   3.083   2.875  2.7230  2.5012  2.8492
  984MOL0     H32810  -0.751   2.808   2.840  0.9278 -0.1548 -2.6598
  984MOL0     H32811  -0.719   2.964   2.744 -3.2434  0.6422 -3.1879
  984MOL0     H32812  -1.001   2.830   2.734 -1.1542  0.0410 -1.5327
  984MOL0     H32813  -0.918   2.961   2.637  2.9395  0.2577  0.1431
  984MOL0     H32814  -0.771   2.818   2.550 -1.3267  1.8045 -0.8011
  984MOL0     H32815  -0.931   2.778   2.511  0.5799 -1.6384  1.0724
  984MOL0     H32816  -0.746   2.613   2.571  0.9179 -0.6789  1.3784
  984MOL0     H32817  -0.799   2.625   2.732  0.8229 -0.8927 -1.4514
  984MOL0     H32818  -1.025   2.583   2.530 -0.7503  0.5855  2.0858
  984MOL0     H32819  -1.029   2.567   2.693 -1.0715 -0.2366 -0.1406
  984MOL0     H32820  -0.842   2.395   2.520  1.8608  2.3840  1.3931
  984MOL0     H32821  -1.003   2.349   2.593 -0.9896  2.3686 -0.0147
  984MOL0     H32822  -0.595   3.183   3.218 -0.2147  1.8035  0.7695
  984MOL0     H32823  -0.413   3.286   3.314 -0.7907  0.0686  0.3719
  984MOL0     H32824   0.083   3.618   3.096  0.0320 -0.4075 -0.4559
  984MOL0     H32825   0.286   3.680   3.226  0.2008 -0.5299  0.3966
  984MOL0     H32826   2.274   3.074   3.215  2.5410 -3.5945  0.6103
  984MOL0     H32827   2.500   2.998   3.245 -0.7640 -0.7831 -0.3085
  984MOL0     H32828   2.967   3.205   3.211 -0.0685  0.4344 -0.4748
  984MOL0     H32829   3.200   3.218   3.257 -1.3035  0.1219 -1.3475
  984MOL0     H32830   3.296   3.442   3.650  1.2311  1.0352 -0.5564
  984MOL0     H32831   3.299   3.274   3.713  2.3469  0.9575  0.3229
  984MOL0     H32832   3.524   3.376   3.739 -0.4150 -1.7135  0.0111
  984MOL0     H32833   3.542   3.408   3.570  0.4911 -0.1431  0.7464
  984MOL0     H32834   3.485   3.127   3.568 -0.1724 -0.1564  0.9924
  984MOL0     H32835   3.557   3.133   3.723  1.1685 -1.2003 -1.4481
  984MOL0     H32836   3.750   3.258   3.636 -1.5987 -0.8989  3.1683
  984MOL0     H32837   3.691   3.211   3.473 -1.2365 -2.9344 -0.0728
  984MOL0     H32838   3.874   2.847   3.577  0.6763 -0.2088  0.7581
  984MOL0     H32839   3.085   3.312   3.673 -0.0339  0.3674 -0.1553
  984MOL0     H32840   2.855   3.307   3.608  0.8111  0.5941 -0.6220
  985MOL0     O32841  11.215   1.343   5.174 -0.4226  0.2618  0.4145
  985MOL0     C32842  11.273   1.435   5.228 -0.5059  0.7108 -0.8494
  985MOL0     O32843  11.230   1.501   5.348 -0.5743  0.0302  0.4038
  985MOL0     C32844  11.116   1.459   5.405  0.0331 -0.0455 -0.4519
  985MOL0     C32845  10.989   1.499   5.353 -0.3647 -0.3140  0.4283
  985MOL0     C32846  10.868   1.462   5.414  0.0867  0.7197 -0.2864
  985MOL0     C32847  10.864   1.397   5.538 -0.8457 -0.4123  0.5294
  985MOL0     O32848  10.743   1.351   5.586  0.2543 -0.1032 -0.1073
  985MOL0     C32849  10.753   1.316   5.726  0.1487  0.0609  0.3536
  985MOL0     C32850  10.611   1.294   5.770 -0.1420 -0.7401  0.4854
  985MOL0     C32851  10.551   1.161   5.730  0.8890 -0.0507 -0.7707
  985MOL0     C32852  10.400   1.169   5.758 -0.4338  0.2886  0.2114
  985MOL0     C32853  10.318   1.052   5.703  1.2173 -0.2212  0.1961
  985MOL0     C32854  10.336   1.045   5.550  0.7181 -0.2110  0.3224
  985MOL0     C32855  10.240   0.934   5.506  0.1807 -0.1067 -0.2995
  985MOL0     C32856  10.259   0.920   5.359  0.1864 -0.0729 -0.0172
  985MOL0     N32857  10.181   0.809   5.298 -0.1281 -0.5985  0.1175
  985MOL0     C32858  10.049   0.812   5.265  0.4276 -0.3378  0.5289
  985MOL0     C32859  10.023   0.695   5.197  0.4516 -0.5809  0.2795
  985MOL0     C32860   9.900   0.640   5.139  0.2092 -0.3493  0.0548
  985MOL0     C32861   9.782   0.717   5.193  0.0592 -0.1771  0.3161
  985MOL0     C32862   9.651   0.642   5.163  0.2473 -0.2134  0.4034
  985MOL0     C32863   9.536   0.727   5.219 -0.5051 -1.0168 -0.2416
  985MOL0     O32864   9.501   0.809   5.116 -0.7420  0.4437 -1.5033
  985MOL0     C32865   9.455   0.939   5.148 -0.0672  0.3649 -0.1566
  985MOL0     C32866   9.512   1.022   5.248  0.3646 -0.1148  0.4591
  985MOL0     C32867   9.458   1.153   5.267 -0.3588  0.0467  0.2101
  985MOL0     C32868   9.527   1.226   5.388 -0.3123 -0.0644  0.9637
  985MOL0     C32869   9.348   1.195   5.187 -0.0941 -0.7400 -0.1065
  985MOL0     C32870   9.282   1.331   5.210  0.5643 -0.2100  0.1288
  985MOL0     O32871   9.178   1.350   5.124 -0.0919 -0.2379  0.5248
  985MOL0     C32872   9.096   1.464   5.123  0.6662  0.3396 -0.1825
  985MOL0     C32873   8.986   1.466   5.203  0.3297  0.7550 -0.7529
  985MOL0     C32874   8.893   1.572   5.204  0.2667  0.2730  0.0721
  985MOL0     C32875   8.922   1.682   5.128 -0.0568  0.2974 -0.3105
  985MOL0     O32876   8.847   1.801   5.123  0.3280  0.6929  0.4536
  985MOL0     C32877   8.747   1.831   5.220  0.4767  0.0657  0.0840
  985MOL0     C32878   8.695   1.983   5.212  0.1775  0.0923 -0.7222
  985MOL0     C32879   8.800   2.086   5.254  0.1648 -0.4377 -0.5107
  985MOL0     C32880   8.739   2.233   5.256  0.4264  0.7101  0.1404
  985MOL0     C32881   8.850   2.329   5.243 -0.6995 -0.3557 -0.1099
  985MOL0     C32882   8.902   2.351   5.103 -0.2030  0.2986  0.1328
  985MOL0     C32883   8.995   2.481   5.094  0.1052  0.2172  0.3389
  985MOL0     C32884   9.113   2.491   5.208 -0.6333 -0.2606  0.4993
  985MOL0    Cl32885   9.250   2.381   5.193  0.6744  0.1573 -0.2774
  985MOL0     C32886   9.032   1.686   5.049 -0.0728 -0.1353 -0.3026
  985MOL0     C32887   9.117   1.578   5.044  0.1586  0.3932 -0.2956
  985MOL0     O32888   9.327   1.414   5.283 -0.1904 -0.1700  0.2011
  985MOL0     C32889   9.300   1.115   5.086  0.1099  0.4437 -0.6251
  985MOL0     C32890   9.357   0.988   5.068  0.2375 -0.1272  0.2561
  985MOL0     N32891  10.144   0.624   5.182 -0.6140  0.2295  0.3023
  985MOL0     N32892  10.236   0.694   5.236  0.0818 -0.2446  0.6071
  985MOL0     C32893  10.991   1.381   5.603  0.7034  0.5999 -0.2540
  985MOL0     C32894  11.115   1.410   5.532  0.0514  0.0030 -0.2514
  985MOL0     C32895  11.392   1.476   5.164 -0.9770  0.6078 -0.3726
  985MOL0     C32896  11.483   1.558   5.238  0.3484 -0.5744 -0.0378
  985MOL0     C32897  11.598   1.599   5.177 -0.1043 -0.0569 -0.2311
  985MOL0     C32898  11.623   1.578   5.041 -0.3382  0.2933  0.7714
  985MOL0     O32899  11.736   1.636   4.979 -0.1699 -0.2726 -0.9964
  985MOL0     C32900  11.760   1.631   4.836  0.1882  0.0023 -0.0467
  985MOL0     C32901  11.667   1.728   4.755  0.4524  0.0924  0.5775
  985MOL0     C32902  11.682   1.726   4.603  0.2042 -0.2063 -1.0197
  985MOL0     C32903  11.645   1.595   4.536 -0.3547 -0.1735 -0.5647
  985MOL0     C32904  11.500   1.560   4.542  0.1122 -1.3992  0.2986
  985MOL0     C32905  11.380   1.547   4.562  0.1404 -0.3128  0.0126
  985MOL0     C32906  11.531   1.504   4.963 -0.6959  0.6995 -0.9607
  985MOL0     C32907  11.416   1.451   5.026 -0.7783 -0.8929 -0.0739
  985MOL0     H32908  10.990   1.547   5.256 -1.6036  0.1372  0.6297
  985MOL0     H32909  10.779   1.498   5.362 -0.6237 -1.0677 -0.3706
  985MOL0     H32910  10.804   1.219   5.735  0.7385  0.0546 -2.3633
  985MOL0     H32911  10.810   1.391   5.782 -1.4390  2.3628 -0.9551
  985MOL0     H32912  10.607   1.316   5.877  1.2001  5.2310 -0.3131
  985MOL0     H32913  10.549   1.378   5.737  3.3780  2.5657  1.5444
  985MOL0     H32914  10.559   1.139   5.623 -1.0868 -0.7441 -0.8266
  985MOL0     H32915  10.606   1.082   5.782 -0.8823 -0.8339  0.0166
  985MOL0     H32916  10.383   1.168   5.866 -1.4501 -1.9244  0.0801
  985MOL0     H32917  10.351   1.262   5.727 -1.5170  0.1779  1.4630
  985MOL0     H32918  10.351   0.954   5.739 -2.5084 -1.5698  0.3130
  985MOL0     H32919  10.213   1.067   5.730  1.3770 -2.0178  2.0120
  985MOL0     H32920  10.323   1.140   5.498 -0.2386 -0.0756  0.7727
  985MOL0     H32921  10.438   1.007   5.542  0.2618 -1.2766 -0.8664
  985MOL0     H32922  10.263   0.843   5.563  1.3062 -0.1590 -0.8106
  985MOL0     H32923  10.136   0.953   5.533 -0.0590 -1.2098 -0.3885
  985MOL0     H32924  10.367   0.905   5.350  0.8302  3.6831 -0.0852
  985MOL0     H32925  10.231   1.013   5.310 -0.2443 -0.7416 -1.0792
  985MOL0     H32926   9.973   0.886   5.289  0.8961  0.0361  0.8798
  985MOL0     H32927   9.903   0.648   5.030  0.0112  2.9302  0.2075
  985MOL0     H32928   9.900   0.535   5.170  3.8032 -0.0224  1.6208
  985MOL0     H32929   9.775   0.814   5.142  1.4109 -1.6383 -2.9017
  985MOL0     H32930   9.788   0.743   5.299  2.5389 -0.2596  0.2755
  985MOL0     H32931   9.655   0.543   5.210  2.4478 -0.6959 -0.6322
  985MOL0     H32932   9.631   0.630   5.056  0.6756  1.2401  0.1414
  985MOL0     H32933   9.569   0.780   5.309 -2.9099 -1.5602  1.0730
  985MOL0     H32934   9.449   0.667   5.250 -0.0057 -1.6276 -0.0170
  985MOL0     H32935   9.597   0.988   5.306  0.3717  1.0378  1.1640
  985MOL0     H32936   9.445   1.272   5.444 -2.0963 -0.5979 -1.0644
  985MOL0     H32937   9.585   1.163   5.456  2.2247  1.1031  0.0145
  985MOL0     H32938   9.598   1.300   5.350 -0.4135 -0.0247  0.8528
  985MOL0     H32939   8.967   1.378   5.264  1.9099 -0.4247 -1.8383
  985MOL0     H32940   8.802   1.573   5.262  1.4126 -0.7716  1.9699
  985MOL0     H32941   8.656   1.772   5.210  0.8103 -0.7541  1.5040
  985MOL0     H32942   8.788   1.813   5.320  0.6743  4.0658  0.9006
  985MOL0     H32943   8.658   2.006   5.112 -1.7328 -1.7970 -0.5444
  985MOL0     H32944   8.615   1.997   5.286  1.4414 -1.4700  1.0598
  985MOL0     H32945   8.885   2.074   5.187  0.5389  0.0321 -0.1217
  985MOL0     H32946   8.828   2.065   5.357  1.4103  0.5268 -0.6351
  985MOL0     H32947   8.678   2.245   5.166  1.4064 -1.6051 -0.9008
  985MOL0     H32948   8.679   2.248   5.346  1.5502 -2.1498  1.4866
  985MOL0     H32949   8.927   2.298   5.315 -3.3704  1.6879  4.0652
  985MOL0     H32950   8.819   2.423   5.289 -0.8905 -1.1602  1.5248
  985MOL0     H32951   8.965   2.266   5.077 -2.3573 -0.9073 -1.4622
  985MOL0     H32952   8.819   2.355   5.031 -0.9513 -2.2107  0.7743
  985MOL0     H32953   8.932   2.569   5.109 -0.1603  0.1947 -0.5826
  985MOL0     H32954   9.037   2.489   4.993 -1.9074 -1.4919 -0.7104
  985MOL0     H32955   9.078   2.491   5.312  1.7953  0.2692  1.3986
  985MOL0     H32956   9.159   2.585   5.180 -0.7736 -1.0135 -2.5554
  985MOL0     H32957   9.051   1.774   4.987  0.2199  0.8627  1.1595
  985MOL0     H32958   9.210   1.570   4.989 -0.3364 -2.0457 -0.9035
  985MOL0     H32959   9.215   1.141   5.023 -1.6714 -3.0149  0.0829
  985MOL0     H32960   9.326   0.927   4.984  0.6727 -0.7711  0.5545
  985MOL0     H32961  10.990   1.332   5.699 -3.7939  1.5035  0.3894
  985MOL0     H32962  11.207   1.401   5.589 -1.1094  0.5181  1.8416
  985MOL0     H32963  11.475   1.588   5.342  3.0961 -0.7509  0.2794
  985MOL0     H32964  11.661   1.677   5.220 -0.8429 -0.1576  1.1053
  985MOL0     H32965  11.868   1.646   4.830  0.6823 -1.7548  2.7598
  985MOL0     H32966  11.754   1.532   4.790  1.6734  0.9090 -2.3789
  985MOL0     H32967  11.682   1.831   4.790  0.4877 -0.3985  2.0820
  985MOL0     H32968  11.566   1.690   4.775 -0.2244  1.2451 -0.4658
  985MOL0     H32969  11.790   1.744   4.599 -0.2516  3.0544 -1.1181
  985MOL0     H32970  11.637   1.816   4.562  0.7053  1.3181  1.5255
  985MOL0     H32971  11.710   1.517   4.575  0.0385  0.5844  0.3352
  985MOL0     H32972  11.671   1.600   4.430  1.2026 -0.7252 -0.2260
  985MOL0     H32973  11.274   1.542   4.578 -0.0922  2.8998  0.0387
  985MOL0     H32974  11.552   1.465   4.864 -1.9144 -1.3206 -0.4703
  985MOL0     H32975  11.341   1.398   4.969 -1.4906 -0.4565  0.4406
  986MOL0     O32976   2.229   6.595   5.661  0.7389  1.4588 -0.0724
  986MOL0     C32977   2.264   6.683   5.735  1.2114  0.0852  0.0855
  986MOL0     O32978   2.202   6.736   5.846 -0.6438  0.0443 -0.7474
  986MOL0     C32979   2.070   6.692   5.865 -0.8290 -0.4842 -0.3172
  986MOL0     C32980   1.973   6.715   5.771 -0.4869  0.7584 -0.3835
  986MOL0     C32981   1.839   6.695   5.797  0.0918  0.9866  0.1115
  986MOL0     C32982   1.800   6.639   5.916  0.0077 -0.0649  0.6798
  986MOL0     O32983   1.672   6.600   5.926  0.1158  0.6280  0.3857
  986MOL0     C32984   1.626   6.523   6.040 -0.9452 -0.4563  0.0943
  986MOL0     C32985   1.477   6.493   6.023  0.4295  0.0338  0.3278
  986MOL0     C32986   1.381   6.605   6.010  0.0817 -0.3179 -0.0339
  986MOL0     C32987   1.354   6.675   6.151  0.8818 -0.0966 -0.5412
  986MOL0     C32988   1.237   6.770   6.147  0.7201 -0.5830 -0.4004
  986MOL0     C32989   1.211   6.826   6.283 -0.1914 -0.6142 -0.3912
  986MOL0     C32990   1.149   6.972   6.282 -0.2172  0.1430 -0.6408
  986MOL0     C32991   1.016   6.965   6.202  0.0277  0.6055 -0.1451
  986MOL0     N32992   0.895   6.963   6.285 -0.3379 -0.1379  0.1596
  986MOL0     C32993   0.838   7.068   6.349 -0.1816  0.1436 -0.1780
  986MOL0     C32994   0.734   7.015   6.422  0.1560 -0.3203  1.3645
  986MOL0     C32995   0.657   7.105   6.513  0.9612  0.1655  0.3862
  986MOL0     C32996   0.560   7.210   6.456  0.7210 -0.0250 -0.4655
  986MOL0     C32997   0.443   7.153   6.370 -0.2103 -1.1066  0.0983
  986MOL0     C32998   0.374   7.035   6.429  0.3438 -0.4960  0.8287
  986MOL0     O32999   0.309   7.051   6.562 -0.0424  0.6704  0.2340
  986MOL0     C33000   0.196   7.125   6.576  0.2110 -0.1860 -0.3342
  986MOL0     C33001   0.177   7.182   6.704  0.2498 -0.8000  1.0263
  986MOL0     C33002   0.075   7.269   6.725 -0.0155 -0.1124 -0.0199
  986MOL0     C33003   0.060   7.313   6.868  0.7387 -0.4152 -0.2464
  986MOL0     C33004  -0.022   7.284   6.623  0.5765  0.2647 -0.3236
  986MOL0     C33005  -0.144   7.365   6.644  0.4311  1.1900 -0.8804
  986MOL0     O33006  -0.136   7.479   6.727 -0.0312 -0.5601  0.6421
  986MOL0     C33007  -0.253   7.528   6.775 -0.1097  0.7824  0.2202
  986MOL0     C33008  -0.344   7.581   6.685 -0.0399  0.4875  0.2142
  986MOL0     C33009  -0.465   7.637   6.720 -0.0959  0.5567  0.0914
  986MOL0     C33010  -0.495   7.634   6.857  0.0822 -0.0325 -0.6202
  986MOL0     O33011  -0.612   7.680   6.904  0.6349  0.1333  0.3263
  986MOL0     C33012  -0.666   7.806   6.857 -0.4243  0.4396 -0.6509
  986MOL0     C33013  -0.780   7.873   6.947 -0.0323  0.0942  0.0226
  986MOL0     C33014  -0.903   7.788   6.965 -0.7266 -0.2446 -0.2276
  986MOL0     C33015  -1.000   7.861   7.065 -0.4003 -0.4460  0.3778
  986MOL0     C33016  -1.128   7.781   7.100  0.2187  0.6257 -0.5346
  986MOL0     C33017  -1.100   7.659   7.191 -0.1576 -0.1020 -0.1388
  986MOL0     C33018  -1.043   7.701   7.325  0.8390  0.5628  0.2466
  986MOL0     C33019  -1.051   7.588   7.424  0.4077 -0.2867  0.5003
  986MOL0    Cl33020  -1.020   7.656   7.589  0.1451 -0.1709 -0.2977
  986MOL0     C33021  -0.410   7.577   6.949 -0.0649  0.2639  0.0435
  986MOL0     C33022  -0.288   7.518   6.905  0.3678 -0.3298  0.2650
  986MOL0     O33023  -0.248   7.321   6.587 -0.6250 -0.5538  0.3244
  986MOL0     C33024   0.009   7.242   6.493  0.6626 -0.9001  0.4046
  986MOL0     C33025   0.121   7.165   6.468  0.0208 -0.7161  0.1621
  986MOL0     N33026   0.732   6.882   6.390 -0.3605 -0.2238 -0.6983
  986MOL0     N33027   0.833   6.849   6.313  0.1672  0.2450 -0.0107
  986MOL0     C33028   1.895   6.632   6.023  0.6081  0.7007 -0.6328
  986MOL0     C33029   2.031   6.649   5.989  0.2432  0.7952  0.7016
  986MOL0     C33030   2.408   6.737   5.725  0.8805  1.3464  1.0315
  986MOL0     C33031   2.487   6.683   5.619 -0.3155 -0.0578 -0.2008
  986MOL0     C33032   2.621   6.721   5.598 -0.1636  0.8424 -0.6763
  986MOL0     C33033   2.678   6.827   5.669 -0.9457  0.1883 -1.2121
  986MOL0     O33034   2.816   6.861   5.652 -0.0603  0.2133 -0.1729
  986MOL0     C33035   2.852   6.988   5.716  0.5444 -0.0868 -0.2287
  986MOL0     C33036   2.965   7.070   5.638 -0.8838 -0.2066 -0.2927
  986MOL0     C33037   3.104   6.991   5.626  0.1387  0.4749  0.5518
  986MOL0     C33038   3.133   6.893   5.742  0.1252 -0.1767  0.1339
  986MOL0     C33039   3.272   6.854   5.746  0.4520  0.4446 -0.0996
  986MOL0     C33040   3.392   6.814   5.750 -0.1974  0.1597  0.1382
  986MOL0     C33041   2.596   6.884   5.770 -0.1148  0.4104  0.9380
  986MOL0     C33042   2.467   6.839   5.797  0.0150  0.8082 -0.9534
  986MOL0     H33043   1.996   6.770   5.681 -1.8746 -0.9439 -1.8737
  986MOL0     H33044   1.767   6.732   5.724  1.9063  2.8165 -0.8654
  986MOL0     H33045   1.674   6.425   6.044 -1.0256 -0.6260 -2.0366
  986MOL0     H33046   1.639   6.586   6.128  0.5013 -0.2937 -0.2188
  986MOL0     H33047   1.478   6.424   5.938 -0.0030 -1.2228  1.3020
  986MOL0     H33048   1.441   6.437   6.110 -1.5674 -0.6887 -0.8979
  986MOL0     H33049   1.405   6.686   5.940 -0.8357  1.6879  1.8290
  986MOL0     H33050   1.293   6.561   5.964 -1.7915  3.4545 -0.4937
  986MOL0     H33051   1.328   6.605   6.230 -3.2532  1.0611 -0.6542
  986MOL0     H33052   1.444   6.723   6.191  0.4030  0.4987 -0.1610
  986MOL0     H33053   1.263   6.846   6.073  0.9164  0.5442  0.7834
  986MOL0     H33054   1.143   6.719   6.122 -2.6221  5.3529 -1.8070
  986MOL0     H33055   1.149   6.758   6.343 -1.1275  0.9442  0.4851
  986MOL0     H33056   1.306   6.830   6.337 -1.5834  1.5105  2.1349
  986MOL0     H33057   1.124   7.016   6.379  0.7780  2.1745 -1.2377
  986MOL0     H33058   1.221   7.038   6.232 -0.4057  1.2574  0.5176
  986MOL0     H33059   0.998   6.878   6.138 -0.6443 -0.2764  1.1986
  986MOL0     H33060   1.015   7.061   6.149  2.1452  0.5266 -0.4073
  986MOL0     H33061   0.866   7.172   6.342  1.1191 -0.2096 -0.6200
  986MOL0     H33062   0.599   7.043   6.582 -0.4271  0.4519 -0.4895
  986MOL0     H33063   0.732   7.160   6.571  1.3729 -0.7815  0.7961
  986MOL0     H33064   0.611   7.296   6.411  1.5729 -1.3239 -2.1217
  986MOL0     H33065   0.511   7.253   6.544 -0.8297  1.3258 -1.9058
  986MOL0     H33066   0.478   7.132   6.268 -0.1975  3.1526 -0.9332
  986MOL0     H33067   0.377   7.237   6.350  2.5427  1.3272  0.5976
  986MOL0     H33068   0.445   6.952   6.429  0.2782 -0.5554 -0.0047
  986MOL0     H33069   0.299   7.002   6.357  2.7042 -2.0577 -1.0538
  986MOL0     H33070   0.262   7.168   6.770  1.6315  0.1423 -0.4863
  986MOL0     H33071  -0.042   7.296   6.903 -0.5977  1.6284 -2.7797
  986MOL0     H33072   0.128   7.261   6.935  0.0967 -0.8228  0.0937
  986MOL0     H33073   0.072   7.421   6.878 -0.5362 -0.1237 -1.5345
  986MOL0     H33074  -0.319   7.591   6.580 -1.6418 -2.5656 -0.5930
  986MOL0     H33075  -0.531   7.666   6.640 -0.8268  0.0382  0.4911
  986MOL0     H33076  -0.583   7.876   6.860  0.4117 -0.5294 -0.4726
  986MOL0     H33077  -0.704   7.776   6.758 -2.3288 -1.7309  0.6309
  986MOL0     H33078  -0.732   7.888   7.044 -1.3247 -3.8126  1.4806
  986MOL0     H33079  -0.808   7.968   6.900 -1.4698 -0.9425 -1.3036
  986MOL0     H33080  -0.875   7.690   7.005 -2.3024 -0.2286  0.9914
  986MOL0     H33081  -0.950   7.778   6.867 -0.6948 -0.1702 -0.2504
  986MOL0     H33082  -0.946   7.886   7.157  0.7984 -0.7917 -0.2092
  986MOL0     H33083  -1.029   7.956   7.020  0.6561 -0.6084 -0.6920
  986MOL0     H33084  -1.170   7.752   7.004 -3.7068  2.2597  0.4863
  986MOL0     H33085  -1.202   7.839   7.156 -0.0677 -2.2726  2.4069
  986MOL0     H33086  -1.196   7.606   7.202 -0.0592 -0.3515 -0.4802
  986MOL0     H33087  -1.022   7.603   7.139 -0.2016  2.8891 -3.8758
  986MOL0     H33088  -1.105   7.784   7.360 -1.4535  1.1493 -4.4825
  986MOL0     H33089  -0.939   7.734   7.316  1.2164 -0.8396 -0.9622
  986MOL0     H33090  -0.982   7.505   7.407  1.7830  1.0443 -0.6180
  986MOL0     H33091  -1.151   7.544   7.426  0.8328 -1.3217 -0.2685
  986MOL0     H33092  -0.438   7.555   7.051 -1.2371 -1.4428 -0.5999
  986MOL0     H33093  -0.232   7.468   6.984  0.1784 -0.9458  0.0109
  986MOL0     H33094  -0.061   7.259   6.412 -1.1384 -1.6369  1.7587
  986MOL0     H33095   0.123   7.137   6.363  0.6402 -1.1123  0.2764
  986MOL0     H33096   1.872   6.602   6.124 -0.3190 -1.2275 -1.3577
  986MOL0     H33097   2.110   6.656   6.063  2.5592  3.1497 -1.7350
  986MOL0     H33098   2.460   6.606   5.547  3.6267 -0.6513 -1.3115
  986MOL0     H33099   2.684   6.679   5.520 -1.3187  0.4134 -1.3905
  986MOL0     H33100   2.767   7.055   5.729 -0.2471 -0.4326 -2.9132
  986MOL0     H33101   2.894   6.964   5.814  1.8495 -2.1020 -1.1942
  986MOL0     H33102   2.983   7.162   5.694 -0.2106 -0.7528  0.4105
  986MOL0     H33103   2.939   7.092   5.533  2.1071 -0.7671 -1.2449
  986MOL0     H33104   3.181   7.068   5.621 -1.2288  1.9977  1.9070
  986MOL0     H33105   3.114   6.931   5.535 -0.4483 -0.7327  1.2535
  986MOL0     H33106   3.083   6.797   5.729 -0.6800 -0.1999  2.7720
  986MOL0     H33107   3.106   6.941   5.837 -0.8542  1.1594 -0.7945
  986MOL0     H33108   3.494   6.784   5.764 -0.1838 -1.0075 -1.9908
  986MOL0     H33109   2.627   6.960   5.842 -1.3899  1.7670  0.1203
  986MOL0     H33110   2.429   6.875   5.892  1.1475 -2.8052  1.0652
  987MOL0     O33111   9.492  10.401   1.307 -0.4694 -0.3817 -0.5553
  987MOL0     C33112   9.585  10.486   1.300  0.1651  0.4157  0.3457
  987MOL0     O33113   9.570  10.619   1.344  0.5269 -0.7832 -0.3283
  987MOL0     C33114   9.452  10.668   1.395 -0.0088  0.0918 -0.0504
  987MOL0     C33115   9.416  10.802   1.375 -0.9117  0.0978  0.0653
  987MOL0     C33116   9.304  10.853   1.437 -0.1815 -0.7514 -0.6270
  987MOL0     C33117   9.225  10.781   1.527  0.6862  0.2737  0.4340
  987MOL0     O33118   9.105  10.837   1.573  0.1239 -0.0750  0.1975
  987MOL0     C33119   9.095  10.818   1.715 -0.5332 -0.2142 -0.2494
  987MOL0     C33120   9.012  10.927   1.769  0.0416 -0.0951 -0.4665
  987MOL0     C33121   8.875  10.939   1.708 -0.1821  0.2667  0.1988
  987MOL0     C33122   8.757  10.866   1.783  0.0271  1.0639  0.2840
  987MOL0     C33123   8.632  10.918   1.721  0.2611  0.0970 -0.2374
  987MOL0     C33124   8.505  10.846   1.767  0.9784  0.0063  0.4150
  987MOL0     C33125   8.491  10.717   1.682 -0.8913  0.2581  0.0315
  987MOL0     C33126   8.393  10.620   1.735 -0.1086  0.7167 -0.6120
  987MOL0     N33127   8.257  10.676   1.744  0.3380 -0.5764  0.6551
  987MOL0     C33128   8.168  10.690   1.640 -1.1898 -0.1270 -0.5765
  987MOL0     C33129   8.068  10.764   1.696 -0.0082 -0.0632 -0.3245
  987MOL0     C33130   7.936  10.795   1.623 -0.0972  0.6211  0.1845
  987MOL0     C33131   7.846  10.894   1.694 -0.3949 -0.0738 -0.5505
  987MOL0     C33132   7.706  10.888   1.632  0.4704 -0.5303 -0.1439
  987MOL0     C33133   7.711  10.941   1.483  0.2958  0.2335 -0.5705
  987MOL0     O33134   7.726  11.083   1.490 -0.2418  0.3991 -0.2661
  987MOL0     C33135   7.610  11.145   1.468 -0.5749  0.3001 -0.4093
  987MOL0     C33136   7.620  11.281   1.430 -0.3226  0.1943  0.6275
  987MOL0     C33137   7.518  11.372   1.445  0.3266  0.0283  0.3123
  987MOL0     C33138   7.555  11.518   1.419  0.7556  0.4646 -0.7443
  987MOL0     C33139   7.390  11.331   1.469  0.0622  0.3263 -0.1514
  987MOL0     C33140   7.272  11.413   1.470  0.6358 -0.4326 -0.4405
  987MOL0     O33141   7.268  11.516   1.385  0.1119  0.0756  0.3300
  987MOL0     C33142   7.152  11.592   1.365 -0.9636  0.0237 -1.2605
  987MOL0     C33143   7.139  11.704   1.443 -0.0323 -1.0115  0.1057
  987MOL0     C33144   7.034  11.797   1.427 -0.1206  0.6740 -0.0094
  987MOL0     C33145   6.928  11.769   1.346 -0.3144 -0.8897  0.0942
  987MOL0     O33146   6.833  11.866   1.342 -0.3282 -0.3048 -0.3600
  987MOL0     C33147   6.717  11.824   1.268 -0.1836  0.6311 -0.0574
  987MOL0     C33148   6.614  11.929   1.299 -0.1194  0.2412 -0.5933
  987MOL0     C33149   6.493  11.911   1.213 -0.0841 -0.4117  0.9133
  987MOL0     C33150   6.400  12.030   1.233  1.0613  0.3112 -0.0275
  987MOL0     C33151   6.287  12.042   1.129  0.6732 -0.2305  0.5700
  987MOL0     C33152   6.209  11.899   1.115 -0.2758 -0.6713 -0.1571
  987MOL0     C33153   6.068  11.917   1.063 -0.3795  0.8565 -0.1908
  987MOL0     C33154   5.982  11.790   1.096 -0.2436 -0.0876 -0.0144
  987MOL0    Cl33155   6.062  11.644   1.042 -0.1354 -0.2328  0.4481
  987MOL0     C33156   6.933  11.639   1.275  0.2993  0.0305  0.4740
  987MOL0     C33157   7.048  11.557   1.281  0.1030  1.3724 -0.1400
  987MOL0     O33158   7.178  11.390   1.553 -0.4842 -0.1404  0.4315
  987MOL0     C33159   7.376  11.195   1.493 -0.7130  0.1507  0.1166
  987MOL0     C33160   7.481  11.098   1.494  0.5711 -0.4573  0.1514
  987MOL0     N33161   8.094  10.779   1.835 -0.0994  0.5794  0.5766
  987MOL0     N33162   8.205  10.728   1.860  0.2285  0.0691 -0.5749
  987MOL0     C33163   9.264  10.649   1.550  1.0016 -0.6153  0.5628
  987MOL0     C33164   9.367  10.593   1.476  0.3267 -0.3217 -0.1247
  987MOL0     C33165   9.722  10.446   1.241  0.6467  0.7214 -0.8634
  987MOL0     C33166   9.734  10.314   1.189  0.0990  0.9558  0.0958
  987MOL0     C33167   9.854  10.271   1.133 -0.2693 -0.5103 -0.6267
  987MOL0     C33168   9.967  10.358   1.133  0.4363  0.2059 -0.0257
  987MOL0     O33169  10.088  10.316   1.088  0.1834 -0.1980 -0.3850
  987MOL0     C33170  10.115  10.187   1.032  0.0452  0.0063 -0.8044
  987MOL0     C33171  10.263  10.165   1.007  0.2700 -0.3595  0.2701
  987MOL0     C33172  10.341  10.229   1.121  0.9140  0.1716  0.0348
  987MOL0     C33173  10.478  10.167   1.132  0.1419  0.3755  0.4941
  987MOL0     C33174  10.562  10.193   1.009  0.5707 -0.2429  0.0546
  987MOL0     C33175  10.638  10.223   0.911  0.4720  0.3932 -0.2228
  987MOL0     C33176   9.949  10.489   1.188  0.7965  0.5265 -0.0312
  987MOL0     C33177   9.829  10.526   1.248 -0.3396 -0.4164 -0.3264
  987MOL0     H33178   9.485  10.866   1.321  1.2738  0.3713  2.9999
  987MOL0     H33179   9.281  10.957   1.416  0.5568 -0.5156 -0.2831
  987MOL0     H33180   9.047  10.724   1.742  1.1378 -0.6719  1.3184
  987MOL0     H33181   9.189  10.823   1.771 -1.0306 -0.0027  0.5795
  987MOL0     H33182   9.007  10.905   1.876 -2.0579 -4.1218 -1.2180
  987MOL0     H33183   9.072  11.018   1.760  0.2629 -0.0399  1.2489
  987MOL0     H33184   8.854  11.046   1.696 -0.5165  0.0984 -0.8545
  987MOL0     H33185   8.869  10.904   1.605  2.0402  1.4358 -0.3733
  987MOL0     H33186   8.770  10.758   1.768 -1.7487  0.8810 -0.1630
  987MOL0     H33187   8.752  10.879   1.891  2.9105 -0.4530  0.7271
  987MOL0     H33188   8.628  11.022   1.753  0.5041  0.2014 -0.5416
  987MOL0     H33189   8.632  10.920   1.612 -0.4950  1.0177 -0.2402
  987MOL0     H33190   8.518  10.820   1.872  0.5800 -0.9920  0.2209
  987MOL0     H33191   8.412  10.900   1.746  1.5590  1.0643  0.4720
  987MOL0     H33192   8.468  10.744   1.578  1.7422 -0.1791 -0.7521
  987MOL0     H33193   8.583  10.660   1.698 -1.9323 -1.2786  0.8162
  987MOL0     H33194   8.423  10.586   1.835 -1.3985 -2.5233 -1.1879
  987MOL0     H33195   8.406  10.526   1.681  1.1839 -0.0614  0.9721
  987MOL0     H33196   8.188  10.653   1.539 -0.6698  0.7688 -0.8111
  987MOL0     H33197   7.971  10.814   1.521  1.9973  1.3736  1.0058
  987MOL0     H33198   7.883  10.699   1.610 -0.0483  0.7058 -0.7047
  987MOL0     H33199   7.887  10.995   1.692  2.7142 -1.1292  1.5884
  987MOL0     H33200   7.846  10.854   1.796  2.0368 -3.8819 -1.8131
  987MOL0     H33201   7.635  10.946   1.691  0.5991  0.2889 -0.7701
  987MOL0     H33202   7.669  10.785   1.628  0.0202 -0.3430 -3.2951
  987MOL0     H33203   7.628  10.906   1.422  0.6918 -2.4665  0.3050
  987MOL0     H33204   7.794  10.894   1.429 -0.0524 -1.6261  0.4506
  987MOL0     H33205   7.719  11.319   1.405 -0.7751  2.2876  1.8269
  987MOL0     H33206   7.596  11.507   1.318  2.3377 -0.5240 -0.0205
  987MOL0     H33207   7.472  11.589   1.424 -0.2006 -0.7057  0.5626
  987MOL0     H33208   7.627  11.557   1.492  0.8151 -0.7893 -0.1147
  987MOL0     H33209   7.214  11.729   1.516 -0.2356  2.4792 -0.7042
  987MOL0     H33210   7.020  11.884   1.491 -3.5261 -0.1732  0.6472
  987MOL0     H33211   6.732  11.814   1.161  0.0409  0.9950 -0.0616
  987MOL0     H33212   6.683  11.726   1.303  0.8175 -0.6695 -2.5056
  987MOL0     H33213   6.575  11.907   1.399 -1.0389 -2.7972 -1.4965
  987MOL0     H33214   6.661  12.027   1.295  1.8169 -0.6612 -1.2605
  987MOL0     H33215   6.442  11.819   1.244 -2.3816 -0.7523 -3.1639
  987MOL0     H33216   6.521  11.912   1.107  0.9739  0.8216  1.1827
  987MOL0     H33217   6.365  12.021   1.336  2.7154  0.0347  0.5302
  987MOL0     H33218   6.460  12.121   1.220 -0.5857  1.4787  0.2162
  987MOL0     H33219   6.313  12.085   1.032 -3.2167  0.8535 -0.1796
  987MOL0     H33220   6.212  12.109   1.172 -0.0310  0.8859 -2.1742
  987MOL0     H33221   6.265  11.841   1.041  2.2022  3.9765 -2.3792
  987MOL0     H33222   6.199  11.863   1.218 -2.4375  1.3343  0.4130
  987MOL0     H33223   6.064  11.929   0.954  1.0047 -0.2419 -0.3886
  987MOL0     H33224   6.029  12.010   1.106 -1.5356  0.5130 -0.4679
  987MOL0     H33225   5.889  11.799   1.037 -2.0533 -2.1661  2.3141
  987MOL0     H33226   5.948  11.791   1.200 -1.3464  0.0097 -0.3536
  987MOL0     H33227   6.851  11.602   1.213  1.1562 -0.6189 -0.2974
  987MOL0     H33228   7.060  11.472   1.215  0.7387  2.0217 -0.8879
  987MOL0     H33229   7.279  11.156   1.523 -1.2200  0.7135 -0.7561
  987MOL0     H33230   7.451  10.997   1.517  0.4305 -0.5065 -0.2327
  987MOL0     H33231   9.211  10.580   1.616 -2.0952 -0.6461 -1.7052
  987MOL0     H33232   9.386  10.487   1.491  0.0537 -1.0717 -4.0795
  987MOL0     H33233   9.650  10.247   1.172  1.5794 -1.5531  1.9275
  987MOL0     H33234   9.860  10.175   1.083  0.3781 -1.5234  1.2681
  987MOL0     H33235  10.079  10.121   1.112 -2.8169  2.4017  0.0700
  987MOL0     H33236  10.059  10.166   0.940  0.1015 -3.7742 -0.1357
  987MOL0     H33237  10.289  10.212   0.912  2.8025 -0.8888  0.6421
  987MOL0     H33238  10.292  10.060   0.994 -0.1317 -0.3022 -1.3793
  987MOL0     H33239  10.296  10.204   1.217 -1.4402  2.7408 -0.2944
  987MOL0     H33240  10.347  10.337   1.112  0.8872  0.1198 -0.7262
  987MOL0     H33241  10.464  10.061   1.156 -1.0597  0.8509  2.0184
  987MOL0     H33242  10.527  10.217   1.216 -1.6039 -0.2567  1.9477
  987MOL0     H33243  10.688  10.252   0.821  3.1137 -1.6568  0.4527
  987MOL0     H33244  10.036  10.553   1.185  0.2705  1.2795  0.4640
  987MOL0     H33245   9.824  10.630   1.278 -0.0835 -0.7030  0.7312
  988MOL0     O33246   9.420   4.808   4.506  0.5016 -0.0363  0.1448
  988MOL0     C33247   9.508   4.830   4.579  0.0331  0.0929 -0.6636
  988MOL0     O33248   9.497   4.875   4.709  0.0782 -0.1478  0.0304
  988MOL0     C33249   9.366   4.896   4.753 -0.8960 -0.6296  1.1269
  988MOL0     C33250   9.326   5.015   4.811  0.2966  0.1862 -0.2799
  988MOL0     C33251   9.201   5.035   4.874  0.7737  0.3854 -0.3081
  988MOL0     C33252   9.109   4.929   4.872 -0.4339 -0.6415 -0.5694
  988MOL0     O33253   8.985   4.957   4.920  0.4150  0.4149  0.0058
  988MOL0     C33254   8.888   4.853   4.930  0.6421 -0.5028 -0.5909
  988MOL0     C33255   8.746   4.915   4.972  0.6941  0.3377 -0.5348
  988MOL0     C33256   8.628   4.818   4.967  0.1000  0.1847 -0.7710
  988MOL0     C33257   8.493   4.898   4.962  0.0885 -0.3776  0.0015
  988MOL0     C33258   8.378   4.801   4.982  0.7804 -0.3272 -0.1775
  988MOL0     C33259   8.236   4.864   4.972 -0.3456 -0.5357 -0.7997
  988MOL0     C33260   8.137   4.748   4.972 -0.3073  0.9324  0.0647
  988MOL0     C33261   8.001   4.801   4.930 -0.3669 -0.1270  1.1108
  988MOL0     N33262   7.949   4.882   5.040  0.3808 -0.0529 -0.2746
  988MOL0     C33263   7.915   4.834   5.166 -0.4637  0.8584 -0.1770
  988MOL0     C33264   7.858   4.938   5.227  1.0916 -0.3293  0.1687
  988MOL0     C33265   7.792   4.936   5.360  0.1721  0.2833  1.2683
  988MOL0     C33266   7.685   4.829   5.365  0.3058 -0.2183  0.2265
  988MOL0     C33267   7.582   4.828   5.251 -0.2256  0.5800 -0.2919
  988MOL0     C33268   7.531   4.687   5.226 -0.2981 -0.5744 -0.2765
  988MOL0     O33269   7.429   4.691   5.131 -0.3003 -0.0651 -0.3803
  988MOL0     C33270   7.297   4.685   5.170  0.1541  0.6626  0.3897
  988MOL0     C33271   7.202   4.677   5.064 -0.3038  0.1131 -0.7565
  988MOL0     C33272   7.067   4.681   5.105  0.0026 -0.0947 -0.0277
  988MOL0     C33273   6.972   4.656   4.997 -0.0499  1.0972 -0.8705
  988MOL0     C33274   7.019   4.666   5.239  0.3254 -0.8672  0.8707
  988MOL0     C33275   6.874   4.658   5.287 -0.2423  0.8783  0.0085
  988MOL0     O33276   6.779   4.594   5.200 -0.7344  0.4315 -0.6763
  988MOL0     C33277   6.658   4.571   5.258 -1.2587 -0.4071 -0.1712
  988MOL0     C33278   6.552   4.662   5.252  0.7735  0.3216  0.0771
  988MOL0     C33279   6.422   4.627   5.287  0.1477  0.6645 -0.2628
  988MOL0     C33280   6.391   4.494   5.319  0.8479  0.6782  0.7121
  988MOL0     O33281   6.261   4.466   5.348 -0.7844  0.9232 -0.2023
  988MOL0     C33282   6.222   4.322   5.343  0.7733  0.1995 -0.4389
  988MOL0     C33283   6.062   4.324   5.346  1.0176  0.0211  0.0186
  988MOL0     C33284   5.997   4.411   5.454  0.4681  0.0567  0.6013
  988MOL0     C33285   5.850   4.370   5.465 -0.5172  0.3174  0.0834
  988MOL0     C33286   5.771   4.475   5.551  0.6129  0.0616 -1.1383
  988MOL0     C33287   5.627   4.461   5.548  0.4327  0.0944 -0.5494
  988MOL0     C33288   5.570   4.325   5.594  0.5440 -0.1399 -0.1034
  988MOL0     C33289   5.632   4.278   5.721  0.0023  0.0533  0.0027
  988MOL0    Cl33290   5.576   4.121   5.769 -0.2555  0.1464 -0.1935
  988MOL0     C33291   6.494   4.401   5.329  0.3923 -0.0667  0.1426
  988MOL0     C33292   6.627   4.437   5.296 -0.2654  0.4052  0.3940
  988MOL0     O33293   6.851   4.687   5.404  1.3163 -0.2394 -0.6000
  988MOL0     C33294   7.119   4.669   5.333  0.1717  0.4254 -0.1114
  988MOL0     C33295   7.255   4.682   5.300  0.1642  0.5439  0.9707
  988MOL0     N33296   7.849   5.046   5.137  0.0635 -0.5969  0.4984
  988MOL0     N33297   7.919   5.010   5.032 -0.5010  0.2532 -0.3936
  988MOL0     C33298   9.155   4.803   4.824  0.6161  0.1355  0.3703
  988MOL0     C33299   9.277   4.793   4.766  0.1639  0.5223 -0.1991
  988MOL0     C33300   9.646   4.808   4.532 -0.1024  0.4047 -0.2222
  988MOL0     C33301   9.765   4.833   4.607  0.4012  0.1090  0.4924
  988MOL0     C33302   9.891   4.822   4.548 -0.0483 -0.0043 -0.4742
  988MOL0     C33303   9.903   4.762   4.420 -0.0627  0.3826  0.0393
  988MOL0     O33304  10.019   4.731   4.355 -0.7271 -0.4913  0.2042
  988MOL0     C33305  10.142   4.723   4.429  0.8069 -0.1169 -0.0792
  988MOL0     C33306  10.257   4.679   4.343 -0.3164  0.1845 -0.4319
  988MOL0     C33307  10.388   4.677   4.420 -0.1605 -0.2008  0.0876
  988MOL0     C33308  10.498   4.599   4.357  0.8298  0.1350  0.4308
  988MOL0     C33309  10.512   4.646   4.222 -0.0379 -0.7675  0.2056
  988MOL0     C33310  10.532   4.720   4.123 -0.3292  0.6587 -0.1448
  988MOL0     C33311   9.789   4.738   4.338  0.4375  0.3472  0.7157
  988MOL0     C33312   9.665   4.767   4.396 -0.1283 -0.8201  0.2112
  988MOL0     H33313   9.391   5.102   4.813  0.8195 -0.2081  0.4657
  988MOL0     H33314   9.182   5.138   4.902 -0.4008  0.7277 -2.1582
  988MOL0     H33315   8.869   4.812   4.830  2.2788 -0.8324 -0.7960
  988MOL0     H33316   8.912   4.773   5.001 -1.7946 -1.0550 -0.3075
  988MOL0     H33317   8.758   4.967   5.068 -0.2881  2.1232 -1.3425
  988MOL0     H33318   8.713   4.999   4.911 -2.3058 -0.1655  0.2581
  988MOL0     H33319   8.629   4.762   4.873 -1.7081  0.5769 -1.0440
  988MOL0     H33320   8.631   4.759   5.059  2.6255 -0.0967 -0.9628
  988MOL0     H33321   8.501   4.975   5.040  2.3702 -1.6896  1.1775
  988MOL0     H33322   8.482   4.946   4.865 -1.4922 -1.4693 -0.3999
  988MOL0     H33323   8.390   4.720   4.910  1.5196  0.9242 -1.5272
  988MOL0     H33324   8.391   4.764   5.084 -0.7289 -0.0256  0.1446
  988MOL0     H33325   8.222   4.930   5.057 -0.1006 -1.5355  0.0430
  988MOL0     H33326   8.213   4.930   4.888 -0.7521  1.1843  0.6095
  988MOL0     H33327   8.163   4.666   4.905  0.9864  0.5419  1.0053
  988MOL0     H33328   8.131   4.704   5.072  2.5876 -0.5437 -0.3018
  988MOL0     H33329   7.935   4.713   4.925 -1.3478  0.4090  3.2965
  988MOL0     H33330   8.015   4.847   4.832  3.1544 -2.2860  0.4248
  988MOL0     H33331   7.926   4.730   5.198 -2.5974  0.3793 -0.8606
  988MOL0     H33332   7.869   4.925   5.436  0.2934  0.4273  1.1664
  988MOL0     H33333   7.754   5.039   5.365  1.2082  0.7293  0.4654
  988MOL0     H33334   7.627   4.829   5.458  0.0589  0.5748  0.0800
  988MOL0     H33335   7.738   4.735   5.351 -1.7832 -1.4988  0.5748
  988MOL0     H33336   7.631   4.861   5.160 -0.0420  0.7853 -0.1206
  988MOL0     H33337   7.492   4.888   5.269 -0.0391  0.0356  3.2218
  988MOL0     H33338   7.497   4.646   5.322 -4.2074  0.2920 -1.0974
  988MOL0     H33339   7.608   4.625   5.180 -0.0820  0.1741 -0.9318
  988MOL0     H33340   7.241   4.686   4.964 -0.3116 -4.5396 -1.3725
  988MOL0     H33341   6.934   4.554   5.000 -1.0185  1.4817  0.9349
  988MOL0     H33342   6.886   4.723   5.010 -0.2432  0.5338  0.9930
  988MOL0     H33343   7.008   4.662   4.894 -0.3198 -0.4506 -1.0753
  988MOL0     H33344   6.579   4.763   5.221  0.3370  0.3073 -0.3647
  988MOL0     H33345   6.334   4.691   5.290 -1.7281 -1.7764 -0.1700
  988MOL0     H33346   6.260   4.273   5.253 -0.5479 -1.0042 -0.3764
  988MOL0     H33347   6.252   4.264   5.430  0.1646 -2.3019 -1.7962
  988MOL0     H33348   6.025   4.370   5.253  1.0974 -0.4464 -0.2487
  988MOL0     H33349   6.026   4.223   5.368  0.6695  0.3989  1.2093
  988MOL0     H33350   5.999   4.518   5.433 -0.4816  0.3627  1.9360
  988MOL0     H33351   6.051   4.382   5.544 -1.9787 -0.4605  1.9991
  988MOL0     H33352   5.801   4.355   5.369  0.5248  0.4032 -0.4722
  988MOL0     H33353   5.857   4.277   5.522  0.5598  1.2709  1.5925
  988MOL0     H33354   5.790   4.575   5.510  2.2441  0.6196  0.8300
  988MOL0     H33355   5.801   4.478   5.656 -1.3265 -1.5603 -0.4741
  988MOL0     H33356   5.584   4.554   5.588 -1.2922 -0.5354 -0.8663
  988MOL0     H33357   5.590   4.470   5.446 -0.6967 -0.0856 -0.1678
  988MOL0     H33358   5.586   4.260   5.508  0.6370  0.2168 -0.3613
  988MOL0     H33359   5.463   4.339   5.611  0.7778  1.7736  0.1054
  988MOL0     H33360   5.613   4.350   5.801 -0.4810  4.2284 -3.4786
  988MOL0     H33361   5.740   4.262   5.708  0.2539 -0.5168  2.3241
  988MOL0     H33362   6.473   4.301   5.366  1.6575 -0.6936 -0.7580
  988MOL0     H33363   6.700   4.357   5.307 -0.3238  0.0357 -1.5108
  988MOL0     H33364   7.089   4.685   5.436 -1.0904 -0.5687 -0.2949
  988MOL0     H33365   7.325   4.698   5.382 -0.4217 -0.3656  1.6743
  988MOL0     H33366   9.085   4.721   4.833  0.3309  0.3955  0.5205
  988MOL0     H33367   9.296   4.691   4.734 -0.8358 -1.3062  4.3632
  988MOL0     H33368   9.741   4.867   4.707  1.2365  3.1895 -0.2629
  988MOL0     H33369   9.987   4.845   4.593  0.6755 -0.1863 -1.8612
  988MOL0     H33370  10.164   4.823   4.467  3.7602 -0.9149  0.5665
  988MOL0     H33371  10.131   4.653   4.512  0.8759 -1.9785 -1.5893
  988MOL0     H33372  10.261   4.741   4.253  0.8737 -0.3525 -0.7656
  988MOL0     H33373  10.228   4.580   4.306 -0.3780 -0.3372  0.9647
  988MOL0     H33374  10.372   4.627   4.516  0.1536 -5.0222 -2.0833
  988MOL0     H33375  10.413   4.781   4.441  0.9587 -0.5990  0.8221
  988MOL0     H33376  10.455   4.498   4.359 -1.2315  0.9840  1.6461
  988MOL0     H33377  10.590   4.601   4.416  0.7551 -1.5216  0.6536
  988MOL0     H33378  10.549   4.785   4.040 -1.9631  2.0984  0.6033
  988MOL0     H33379   9.806   4.704   4.236 -2.2871  0.5197  0.1250
  988MOL0     H33380   9.577   4.770   4.332  0.3018  0.9235 -0.3569
  989MOL0     O33381  11.234   5.949  10.281 -0.1537 -0.1161  0.4011
  989MOL0     C33382  11.208   5.898  10.170  0.2036 -1.2244 -1.0126
  989MOL0     O33383  11.303   5.863  10.084  0.9876  0.3590  0.6131
  989MOL0     C33384  11.435   5.843  10.123 -0.0530 -0.3831 -0.5885
  989MOL0     C33385  11.531   5.864  10.025  0.1372  0.5689 -0.2202
  989MOL0     C33386  11.674   5.836  10.043  1.2537  0.0292 -0.0851
  989MOL0     C33387  11.718   5.794  10.166  0.6685  0.3072  0.0953
  989MOL0     O33388  11.850   5.769  10.201  0.4036  0.8269 -0.0599
  989MOL0     C33389  11.947   5.778  10.094 -0.5356  0.7570 -0.5211
  989MOL0     C33390  12.063   5.705  10.149  0.3121  0.7830  0.7120
  989MOL0     C33391  12.185   5.771  10.106 -0.0994  0.9761 -0.2814
  989MOL0     C33392  12.310   5.690  10.144  1.7757  0.0629 -0.7446
  989MOL0     C33393  12.430   5.773  10.138  0.8683 -0.0669  0.9690
  989MOL0     C33394  12.488   5.756   9.997 -0.1288  0.3709  0.0156
  989MOL0     C33395  12.641   5.785   9.982 -0.2432 -0.5120  0.4641
  989MOL0     C33396  12.708   5.916  10.034 -0.5328 -0.4137  0.5143
  989MOL0     N33397  12.688   6.039   9.951  0.1757 -0.3917 -0.2070
  989MOL0     C33398  12.564   6.102   9.933 -0.8245  0.2608 -0.4451
  989MOL0     C33399  12.596   6.218   9.868  0.0925 -0.1382  0.4696
  989MOL0     C33400  12.509   6.329   9.814  1.2294 -1.3508 -0.3015
  989MOL0     C33401  12.397   6.266   9.740 -0.6415  0.1311 -0.1088
  989MOL0     C33402  12.318   6.372   9.666  0.3553  0.1642  0.7166
  989MOL0     C33403  12.212   6.327   9.567 -0.0537  0.6604 -0.9566
  989MOL0     O33404  12.080   6.335   9.633 -1.3052  0.2227  0.9179
  989MOL0     C33405  11.970   6.322   9.561 -0.0728 -0.3343 -0.3998
  989MOL0     C33406  11.959   6.271   9.435 -0.5993 -1.0560 -0.6617
  989MOL0     C33407  11.850   6.279   9.352  0.1632 -0.0213 -0.0043
  989MOL0     C33408  11.867   6.235   9.209 -0.3215 -0.2975  0.9034
  989MOL0     C33409  11.731   6.331   9.407 -0.5210  0.3589  0.6117
  989MOL0     C33410  11.600   6.344   9.342 -0.1070 -0.3186  1.1625
  989MOL0     O33411  11.493   6.401   9.406  0.8564  0.7647 -0.1051
  989MOL0     C33412  11.367   6.376   9.351 -0.2752 -0.1259 -0.2903
  989MOL0     C33413  11.278   6.473   9.321  0.0140  0.5252 -0.6851
  989MOL0     C33414  11.152   6.449   9.275  0.7084 -1.1313 -0.2652
  989MOL0     C33415  11.100   6.317   9.282  0.2819  0.1978 -0.8291
  989MOL0     O33416  10.968   6.283   9.253  0.1466 -0.5430 -0.3141
  989MOL0     C33417  10.876   6.386   9.254 -0.0469 -0.2994 -0.3592
  989MOL0     C33418  10.734   6.320   9.211 -0.4263  0.4780  0.1235
  989MOL0     C33419  10.616   6.416   9.214  0.1702  0.1495 -0.4001
  989MOL0     C33420  10.493   6.330   9.198 -0.3941 -0.2381 -0.2089
  989MOL0     C33421  10.482   6.271   9.063 -0.0581 -0.0305  0.7456
  989MOL0     C33422  10.348   6.197   9.052  0.1058 -0.3810 -0.4913
  989MOL0     C33423  10.341   6.115   8.925 -0.0137  0.1231 -0.9253
  989MOL0     C33424  10.370   6.205   8.800  0.2858 -0.3903 -0.0008
  989MOL0    Cl33425  10.251   6.340   8.799  0.1021  0.0068  0.4548
  989MOL0     C33426  11.188   6.210   9.303  0.4727  0.0313 -0.4786
  989MOL0     C33427  11.320   6.242   9.340 -0.0062 -0.7902 -0.3336
  989MOL0     O33428  11.592   6.286   9.236 -0.2080  0.3362 -0.4360
  989MOL0     C33429  11.732   6.373   9.540 -0.1496  0.1876 -0.4401
  989MOL0     C33430  11.850   6.372   9.614  0.2337 -0.2088  0.4399
  989MOL0     N33431  12.735   6.224   9.865 -0.9890  0.3716 -0.3680
  989MOL0     N33432  12.785   6.115   9.905 -0.2698  0.2282 -0.2900
  989MOL0     C33433  11.623   5.769  10.266  0.3500 -0.5170 -0.0927
  989MOL0     C33434  11.478   5.791  10.245 -0.5753 -0.0157  0.7706
  989MOL0     C33435  11.068   5.897  10.141  0.7107 -0.1020 -0.6380
  989MOL0     C33436  11.018   5.879  10.013 -0.2735 -0.9519  0.2164
  989MOL0     C33437  10.884   5.889   9.980  0.5231  0.1259 -0.3451
  989MOL0     C33438  10.790   5.908  10.075  0.3319  0.0396  0.3625
  989MOL0     O33439  10.660   5.907  10.036  0.0218  0.1265  0.5308
  989MOL0     C33440  10.550   5.883  10.126 -1.0681  0.1275 -0.5119
  989MOL0     C33441  10.467   6.002  10.102  0.4105 -0.8951 -0.4632
  989MOL0     C33442  10.342   6.005  10.195 -0.1056 -0.3329  0.9547
  989MOL0     C33443  10.258   5.874  10.189 -0.1307 -0.1003 -0.5311
  989MOL0     C33444  10.121   5.916  10.235 -1.5754 -0.3217  0.3091
  989MOL0     C33445  10.030   5.985  10.266 -0.2623  0.4457 -0.3483
  989MOL0     C33446  10.831   5.939  10.207 -0.8396 -0.3062 -0.4946
  989MOL0     C33447  10.968   5.938  10.240  0.1911  1.1429 -0.2157
  989MOL0     H33448  11.487   5.908   9.936 -1.5040 -1.9266 -0.7662
  989MOL0     H33449  11.739   5.866   9.961  0.6488  0.3170 -0.4598
  989MOL0     H33450  11.922   5.717  10.007  1.0238 -0.8094  0.0748
  989MOL0     H33451  11.977   5.882  10.073  0.8793  0.3940 -0.4244
  989MOL0     H33452  12.060   5.684  10.256  0.7450  2.3088  1.0478
  989MOL0     H33453  12.071   5.606  10.103  1.8735  2.2234 -2.3813
  989MOL0     H33454  12.178   5.788   9.998  0.8863  0.4615 -0.4371
  989MOL0     H33455  12.182   5.861  10.168 -2.0303  0.8017 -0.0797
  989MOL0     H33456  12.291   5.673  10.251  0.7137  0.0292 -0.9302
  989MOL0     H33457  12.310   5.596  10.087  0.2390  0.9602 -2.3133
  989MOL0     H33458  12.416   5.876  10.171 -0.3010  0.3844 -0.8023
  989MOL0     H33459  12.493   5.720  10.211  0.1210 -1.6027  0.5449
  989MOL0     H33460  12.479   5.652   9.964  0.3088  0.9129 -1.9297
  989MOL0     H33461  12.434   5.814   9.922 -0.0823 -1.0082 -1.1311
  989MOL0     H33462  12.696   5.701  10.025  0.2025  0.0035  0.9129
  989MOL0     H33463  12.655   5.789   9.874  1.2573  0.3668  0.6589
  989MOL0     H33464  12.815   5.900  10.051 -0.3294 -0.1679 -0.4980
  989MOL0     H33465  12.662   5.941  10.130 -1.4342  0.3273 -0.0929
  989MOL0     H33466  12.465   6.063   9.955 -2.0893  3.1752 -0.4592
  989MOL0     H33467  12.466   6.394   9.891  3.4351 -0.7141  0.4712
  989MOL0     H33468  12.561   6.390   9.739 -0.1440  1.4712  0.8737
  989MOL0     H33469  12.330   6.207   9.804  1.7522  0.7051  3.1658
  989MOL0     H33470  12.439   6.197   9.666 -0.4764 -1.2701  1.2250
  989MOL0     H33471  12.386   6.430   9.603  2.4963 -2.6859  0.2627
  989MOL0     H33472  12.279   6.447   9.737 -0.4458  0.9980 -0.5522
  989MOL0     H33473  12.226   6.224   9.534 -0.3103  0.7233 -1.2563
  989MOL0     H33474  12.209   6.388   9.476 -0.2472 -0.9557 -2.0570
  989MOL0     H33475  12.050   6.226   9.396  0.3775 -0.0274  0.3670
  989MOL0     H33476  11.790   6.162   9.186 -2.1597  1.6380  0.6315
  989MOL0     H33477  11.846   6.322   9.146  1.2253 -1.1694 -0.9222
  989MOL0     H33478  11.969   6.197   9.196  0.3452  1.4832  0.6202
  989MOL0     H33479  11.306   6.576   9.340 -0.4956  0.9975 -2.3114
  989MOL0     H33480  11.089   6.535   9.253  2.2500  0.0790 -0.0959
  989MOL0     H33481  10.878   6.428   9.354  1.1956 -0.3377 -0.3562
  989MOL0     H33482  10.914   6.454   9.177  0.4278  2.1681  1.9297
  989MOL0     H33483  10.740   6.273   9.113 -0.1981 -0.9396  0.7950
  989MOL0     H33484  10.707   6.240   9.280 -1.1392  1.9430  1.6422
  989MOL0     H33485  10.621   6.500   9.143 -2.2832 -0.0159 -0.8534
  989MOL0     H33486  10.610   6.466   9.311 -0.7174  1.2470 -0.9898
  989MOL0     H33487  10.479   6.251   9.272 -0.5307 -1.0270 -1.0574
  989MOL0     H33488  10.397   6.383   9.196  0.4881  1.5499  1.5674
  989MOL0     H33489  10.554   6.189   9.057 -0.1015 -0.1992  2.1299
  989MOL0     H33490  10.497   6.345   8.984  2.0371 -0.3116  0.8249
  989MOL0     H33491  10.332   6.132   9.138  1.5722  1.8886  1.6264
  989MOL0     H33492  10.268   6.271   9.040 -1.2337 -1.7955 -0.6090
  989MOL0     H33493  10.238   6.080   8.914 -0.7165  1.9868 -0.6860
  989MOL0     H33494  10.408   6.029   8.916 -1.8460 -1.4748  0.0322
  989MOL0     H33495  10.363   6.158   8.702 -2.5509  2.4384 -1.3301
  989MOL0     H33496  10.472   6.246   8.797 -1.1365  3.6161  0.0424
  989MOL0     H33497  11.149   6.109   9.301 -0.1769  0.2703 -0.1617
  989MOL0     H33498  11.386   6.158   9.356 -1.6214 -2.2196 -0.8534
  989MOL0     H33499  11.641   6.414   9.583 -0.5605 -0.6796 -0.4734
  989MOL0     H33500  11.851   6.407   9.717  2.0848  1.8244 -0.1685
  989MOL0     H33501  11.651   5.732  10.363  0.4740 -3.1605 -1.0746
  989MOL0     H33502  11.409   5.769  10.326 -0.9107 -1.8866  0.0259
  989MOL0     H33503  11.087   5.852   9.933  0.7539  0.6303  0.5156
  989MOL0     H33504  10.853   5.880   9.876 -0.2565 -0.7011 -0.0497
  989MOL0     H33505  10.503   5.785  10.110  0.7024 -0.7864 -0.3376
  989MOL0     H33506  10.590   5.873  10.227 -0.8623  0.6055 -0.5419
  989MOL0     H33507  10.445   6.025   9.998 -2.0517  1.9337  0.5481
  989MOL0     H33508  10.529   6.084  10.140 -1.1844  1.0627 -1.9351
  989MOL0     H33509  10.287   6.096  10.168 -0.9516 -0.0811  3.2533
  989MOL0     H33510  10.375   6.007  10.300  0.5187 -0.3381  0.7597
  989MOL0     H33511  10.305   5.791  10.243  0.6573  1.4826  1.3571
  989MOL0     H33512  10.243   5.840  10.087 -1.7331 -0.8692 -0.0702
  989MOL0     H33513   9.937   6.031  10.293  0.1977 -0.3322  3.0721
  989MOL0     H33514  10.755   5.977  10.275 -1.4249  1.7740 -2.1956
  989MOL0     H33515  11.015   5.971  10.332 -1.2379  2.7332 -0.0133
  990MOL0     O33516   0.237   3.074  10.914  0.0657 -0.0507 -0.5663
  990MOL0     C33517   0.293   3.008  10.998  0.0940 -0.0505 -0.6557
  990MOL0     O33518   0.242   2.890  11.056  0.3195 -0.4916  0.7643
  990MOL0     C33519   0.108   2.867  11.053 -0.0203  0.0006  0.3316
  990MOL0     C33520   0.026   2.967  11.106 -0.0295 -0.4345 -0.3788
  990MOL0     C33521  -0.111   2.967  11.080  0.2615  0.1586  0.5780
  990MOL0     C33522  -0.170   2.859  11.018  0.8076  0.9688  0.2246
  990MOL0     O33523  -0.313   2.857  11.000 -0.4883  0.7930 -0.2835
  990MOL0     C33524  -0.372   2.741  11.057  0.2604  0.6468  0.4744
  990MOL0     C33525  -0.522   2.739  11.033 -0.7345 -0.2428 -1.0435
  990MOL0     C33526  -0.604   2.658  11.132  0.4069  0.1394  0.0383
  990MOL0     C33527  -0.744   2.648  11.078 -0.1320  0.3583  0.3506
  990MOL0     C33528  -0.830   2.572  11.184 -0.6768 -0.0440 -0.2188
  990MOL0     C33529  -0.974   2.567  11.137  0.9400 -1.0487  0.5338
  990MOL0     C33530  -1.062   2.499  11.244  0.2213  0.6891 -0.1446
  990MOL0     C33531  -1.208   2.499  11.198  0.0857  0.3498  0.4633
  990MOL0     N33532  -1.291   2.414  11.280 -0.2552 -0.1096  1.2481
  990MOL0     C33533  -1.374   2.458  11.380 -0.6495  0.4963  0.1976
  990MOL0     C33534  -1.464   2.360  11.397  0.4477 -1.4268  0.0105
  990MOL0     C33535  -1.581   2.371  11.497  0.1519 -0.1971  0.1916
  990MOL0     C33536  -1.719   2.363  11.427 -0.0892 -0.4138  0.1030
  990MOL0     C33537  -1.743   2.491  11.348  0.1915 -0.2051 -0.3887
  990MOL0     C33538  -1.885   2.513  11.300 -0.3295 -0.0676  0.1512
  990MOL0     O33539  -1.929   2.390  11.237 -0.2506 -0.1199  0.0699
  990MOL0     C33540  -2.061   2.367  11.213  0.2018  0.2477  0.4085
  990MOL0     C33541  -2.093   2.239  11.170 -0.8280 -0.2754  1.2480
  990MOL0     C33542  -2.223   2.196  11.153 -0.5015 -0.0047  1.0613
  990MOL0     C33543  -2.241   2.055  11.101 -0.5041  0.5884  0.1517
  990MOL0     C33544  -2.341   2.284  11.180 -0.0685 -0.4993 -0.9192
  990MOL0     C33545  -2.484   2.256  11.160  0.7230 -0.6772 -0.3034
  990MOL0     O33546  -2.520   2.141  11.093 -0.3072 -0.2088  0.1999
  990MOL0     C33547  -2.656   2.114  11.076 -0.8486  0.1986  0.6262
  990MOL0     C33548  -2.765   2.201  11.067 -0.4133  0.0052  0.4907
  990MOL0     C33549  -2.897   2.157  11.055  0.6717 -1.0284 -0.4516
  990MOL0     C33550  -2.922   2.017  11.064 -0.2638  0.3428  0.9425
  990MOL0     O33551  -3.049   1.971  11.050  0.6796  0.8660 -0.7217
  990MOL0     C33552  -3.077   1.845  10.992 -1.0797  0.6243  0.0867
  990MOL0     C33553  -3.227   1.820  10.969 -0.6895 -0.1825  0.3088
  990MOL0     C33554  -3.295   1.933  10.894 -0.1976  0.5922  0.6109
  990MOL0     C33555  -3.439   1.909  10.904 -0.3617  0.7800 -0.2120
  990MOL0     C33556  -3.531   2.014  10.847  0.0076  0.4851 -0.6477
  990MOL0     C33557  -3.674   1.977  10.880 -0.0141  0.2746  0.1605
  990MOL0     C33558  -3.760   2.090  10.832  0.3288 -0.2893 -0.2040
  990MOL0     C33559  -3.780   2.200  10.945  0.0231  0.4670 -0.1141
  990MOL0    Cl33560  -3.875   2.332  10.879  0.0186  0.5044  0.6237
  990MOL0     C33561  -2.810   1.929  11.054  0.7395 -0.7522  0.0653
  990MOL0     C33562  -2.684   1.978  11.057  0.2186  1.2810 -0.4535
  990MOL0     O33563  -2.562   2.340  11.205  0.0096 -0.4984 -0.1845
  990MOL0     C33564  -2.301   2.414  11.226 -0.1350  0.2246  0.3750
  990MOL0     C33565  -2.165   2.455  11.232 -0.0129 -0.3171  0.0262
  990MOL0     N33566  -1.424   2.245  11.328  0.3386 -0.2564 -0.4671
  990MOL0     N33567  -1.309   2.275  11.265  1.6065 -0.0464 -0.3857
  990MOL0     C33568  -0.088   2.756  10.967 -0.3364  0.8126 -0.1154
  990MOL0     C33569   0.053   2.761  10.986 -0.2231 -0.2317  1.5305
  990MOL0     C33570   0.442   3.039  11.027  0.3358 -0.1574 -1.0562
  990MOL0     C33571   0.499   2.979  11.145  0.0144 -0.6516  0.5811
  990MOL0     C33572   0.628   3.006  11.175 -0.3359 -0.6657 -0.2661
  990MOL0     C33573   0.705   3.088  11.098 -0.8434 -0.4061 -0.0103
  990MOL0     O33574   0.836   3.101  11.124 -0.4784 -0.1825 -0.2430
  990MOL0     C33575   0.920   2.986  11.148  0.3669  0.6603  0.2893
  990MOL0     C33576   1.056   3.015  11.076  0.2822 -0.7369 -0.0526
  990MOL0     C33577   1.142   3.124  11.143 -1.0103 -0.3358 -0.8765
  990MOL0     C33578   1.252   3.174  11.047  0.5298  0.2400  0.2488
  990MOL0     C33579   1.350   3.062  11.011 -1.0078 -0.0335 -0.0154
  990MOL0     C33580   1.420   2.968  10.972  0.2278  0.2955  0.3754
  990MOL0     C33581   0.650   3.155  10.987 -0.1038 -0.1441 -0.9012
  990MOL0     C33582   0.514   3.129  10.959  0.5740  0.2167  0.0462
  990MOL0     H33583   0.065   3.055  11.156 -2.5824  2.2935 -2.8444
  990MOL0     H33584  -0.171   3.053  11.109  1.4504  1.1377  0.2442
  990MOL0     H33585  -0.341   2.646  11.012  1.0117  1.0731  0.0614
  990MOL0     H33586  -0.336   2.737  11.160  0.9748  2.1733  0.3147
  990MOL0     H33587  -0.562   2.840  11.039  1.7843  0.7507  2.6746
  990MOL0     H33588  -0.527   2.705  10.929  1.4826 -1.3033 -0.8816
  990MOL0     H33589  -0.551   2.564  11.145  0.0755  0.0283  0.6233
  990MOL0     H33590  -0.613   2.695  11.235  0.1113 -0.7990  0.3550
  990MOL0     H33591  -0.797   2.740  11.053 -2.8643 -0.5635  2.1981
  990MOL0     H33592  -0.749   2.597  10.982 -0.9063  1.4321 -0.1922
  990MOL0     H33593  -0.794   2.471  11.208 -2.3373 -0.4113  0.8391
  990MOL0     H33594  -0.817   2.622  11.281  3.5522 -0.2879 -0.4498
  990MOL0     H33595  -1.012   2.669  11.130  1.0742 -1.0424 -0.1594
  990MOL0     H33596  -0.985   2.505  11.047 -0.5930  1.4793 -1.1467
  990MOL0     H33597  -1.022   2.398  11.259  2.3867  1.2582 -1.6666
  990MOL0     H33598  -1.064   2.554  11.339 -2.1578  1.7497 -0.7397
  990MOL0     H33599  -1.209   2.456  11.098 -2.1385 -1.2450  1.0921
  990MOL0     H33600  -1.234   2.606  11.194  5.8336  2.1663  1.8301
  990MOL0     H33601  -1.380   2.557  11.425  0.2985  0.5633  0.1924
  990MOL0     H33602  -1.572   2.287  11.567 -0.0747 -1.9033 -1.7618
  990MOL0     H33603  -1.575   2.468  11.548 -0.5856 -0.3912  0.6691
  990MOL0     H33604  -1.802   2.364  11.498  1.5258  0.2673  2.0791
  990MOL0     H33605  -1.725   2.281  11.354  1.0699 -0.3260 -0.1199
  990MOL0     H33606  -1.687   2.475  11.256 -0.9775  1.1078 -1.3747
  990MOL0     H33607  -1.717   2.585  11.398 -1.5514 -0.1866  0.5840
  990MOL0     H33608  -1.882   2.599  11.233  0.4225  0.1257  0.4300
  990MOL0     H33609  -1.951   2.530  11.386 -0.5981  0.4596 -0.1547
  990MOL0     H33610  -2.005   2.177  11.156  0.5458  1.8665 -0.2200
  990MOL0     H33611  -2.287   2.071  11.003 -0.1416 -0.2885 -0.1734
  990MOL0     H33612  -2.144   2.007  11.085 -0.2834  1.1396 -0.2005
  990MOL0     H33613  -2.299   2.009  11.181  0.1486  0.4238  0.5405
  990MOL0     H33614  -2.744   2.304  11.041  2.8368 -1.0655 -1.7731
  990MOL0     H33615  -2.987   2.217  11.045  1.1387 -0.1618  0.3996
  990MOL0     H33616  -3.032   1.830  10.893 -2.5379 -1.0192 -0.3792
  990MOL0     H33617  -3.041   1.761  11.052 -2.1683 -0.5962 -0.9125
  990MOL0     H33618  -3.228   1.727  10.912 -3.7441 -0.2286  0.2353
  990MOL0     H33619  -3.277   1.799  11.063 -2.3399  0.5275 -0.3644
  990MOL0     H33620  -3.259   1.925  10.791  2.0403  0.3255  1.3605
  990MOL0     H33621  -3.267   2.031  10.933 -2.2094  0.2307  3.3148
  990MOL0     H33622  -3.459   1.808  10.866 -0.5461  0.8296 -0.2470
  990MOL0     H33623  -3.465   1.901  11.010  0.2757  1.5378  0.0084
  990MOL0     H33624  -3.511   2.011  10.739  1.3678 -2.6941 -0.4236
  990MOL0     H33625  -3.511   2.112  10.891 -2.1276  0.4379  0.5453
  990MOL0     H33626  -3.694   1.880  10.834 -3.1224  1.0806 -0.4292
  990MOL0     H33627  -3.678   1.965  10.989  2.1254  2.4208  0.5774
  990MOL0     H33628  -3.862   2.059  10.806 -0.8505  1.5619  1.8441
  990MOL0     H33629  -3.704   2.133  10.748  1.1556  0.0518  0.5074
  990MOL0     H33630  -3.678   2.229  10.974  0.1320 -1.6953  1.9935
  990MOL0     H33631  -3.836   2.157  11.028  1.8543 -2.3498 -0.2061
  990MOL0     H33632  -2.808   1.820  11.055 -0.0434 -0.7709  1.2195
  990MOL0     H33633  -2.603   1.906  11.052 -0.2309  0.8036 -1.0495
  990MOL0     H33634  -2.371   2.492  11.254 -1.8181  0.1487 -3.0897
  990MOL0     H33635  -2.136   2.554  11.265  0.3768  0.7083 -3.0519
  990MOL0     H33636  -0.133   2.678  10.907  1.6270 -0.8955  0.5107
  990MOL0     H33637   0.121   2.692  10.937  2.6541  2.1807  1.8662
  990MOL0     H33638   0.437   2.913  11.204  1.2099 -3.1813 -0.8592
  990MOL0     H33639   0.679   2.957  11.258  1.2002 -1.9361 -1.8796
  990MOL0     H33640   0.941   2.978  11.255  0.6695 -0.6215  0.1483
  990MOL0     H33641   0.874   2.894  11.112 -2.3981  2.5685 -1.4942
  990MOL0     H33642   1.036   3.037  10.971 -0.8726 -0.2948  0.2480
  990MOL0     H33643   1.119   2.927  11.061  0.9280 -0.1486 -0.9028
  990MOL0     H33644   1.194   3.088  11.232  0.6133  0.2997 -1.5226
  990MOL0     H33645   1.085   3.211  11.178  1.7139  0.7739  1.1830
  990MOL0     H33646   1.306   3.244  11.111 -2.4828  1.4359  1.6699
  990MOL0     H33647   1.213   3.223  10.957 -0.7109  0.0389  0.6618
  990MOL0     H33648   1.484   2.886  10.944  2.1408  1.3721  1.3795
  990MOL0     H33649   0.701   3.223  10.919 -1.4484 -0.5854 -2.4275
  990MOL0     H33650   0.483   3.186  10.873  0.2730 -0.9433 -0.6354
  991MOL0     O33651   8.956   4.775   3.799  0.4469 -0.1142  0.2197
  991MOL0     C33652   8.997   4.829   3.899  0.2554 -0.2383 -0.6539
  991MOL0     O33653   8.923   4.856   4.017 -0.8339  0.5028  0.1280
  991MOL0     C33654   8.787   4.827   4.006 -0.7790  1.1642 -0.1460
  991MOL0     C33655   8.701   4.861   3.902 -0.0245  0.2702 -0.1314
  991MOL0     C33656   8.568   4.826   3.894 -0.3625  0.5478  0.1250
  991MOL0     C33657   8.508   4.761   3.997  0.4594  0.2255  0.0333
  991MOL0     O33658   8.370   4.736   3.986 -0.3264  0.0864  0.0629
  991MOL0     C33659   8.298   4.669   4.087  0.4659 -1.2028 -0.5024
  991MOL0     C33660   8.159   4.641   4.044  0.1409  0.4267 -0.5884
  991MOL0     C33661   8.066   4.756   4.036 -1.2370 -0.3477 -0.1347
  991MOL0     C33662   7.918   4.729   3.991 -0.3869  0.2145  0.5866
  991MOL0     C33663   7.841   4.854   3.949 -0.6705 -0.5793 -0.5205
  991MOL0     C33664   7.720   4.834   3.848  0.0965 -0.8611  0.4107
  991MOL0     C33665   7.611   4.755   3.919 -0.1939  0.0967 -0.4246
  991MOL0     C33666   7.495   4.732   3.819  0.2684  0.8682  0.2577
  991MOL0     N33667   7.372   4.695   3.893 -0.3732  0.2746 -0.1402
  991MOL0     C33668   7.349   4.591   3.980 -0.1419  0.0666  0.2689
  991MOL0     C33669   7.215   4.585   4.005 -0.6397 -0.8791  0.6451
  991MOL0     C33670   7.140   4.488   4.096  0.1339 -0.8790  0.2710
  991MOL0     C33671   7.108   4.547   4.236  0.6376 -0.1352  0.1866
  991MOL0     C33672   7.010   4.666   4.251  0.8470  0.1683  0.1346
  991MOL0     C33673   6.872   4.626   4.219  0.3108  0.5470 -0.0433
  991MOL0     O33674   6.786   4.738   4.204  0.2981 -0.5106  0.2611
  991MOL0     C33675   6.657   4.718   4.163 -0.8036  0.5615 -0.7797
  991MOL0     C33676   6.574   4.827   4.136 -0.2378  0.0174 -1.1778
  991MOL0     C33677   6.444   4.822   4.089 -0.0966  0.3604 -0.4650
  991MOL0     C33678   6.388   4.962   4.052  0.8779  0.1618 -0.7417
  991MOL0     C33679   6.380   4.697   4.093 -0.4975  0.3543  1.0041
  991MOL0     C33680   6.235   4.684   4.070 -0.4584  0.4404  1.1482
  991MOL0     O33681   6.181   4.566   4.113 -0.6573  0.7951  0.5578
  991MOL0     C33682   6.056   4.531   4.065  0.7838  0.0020  0.1680
  991MOL0     C33683   6.046   4.444   3.945  0.4441  0.1587 -0.6812
  991MOL0     C33684   5.911   4.397   3.906 -0.4055 -0.1670 -0.3545
  991MOL0     C33685   5.799   4.420   3.982  0.5156 -0.3495  0.1355
  991MOL0     O33686   5.687   4.343   3.958 -0.1527 -0.5147  0.1648
  991MOL0     C33687   5.560   4.366   4.018  0.1836 -0.9908  0.8146
  991MOL0     C33688   5.468   4.255   3.970  0.3906 -0.9348  0.5211
  991MOL0     C33689   5.328   4.295   4.018 -0.0623  0.3456  0.1304
  991MOL0     C33690   5.237   4.215   3.933  0.7195  0.6499  0.3985
  991MOL0     C33691   5.089   4.223   3.954  0.9083 -0.9668 -0.3353
  991MOL0     C33692   5.041   4.163   4.087 -0.4093 -0.8258  0.3133
  991MOL0     C33693   4.907   4.213   4.132 -0.1097 -0.6867 -0.5282
  991MOL0     C33694   4.882   4.153   4.268 -0.2905 -0.7343 -0.5873
  991MOL0    Cl33695   4.893   3.973   4.273 -0.0696 -0.4141 -0.1035
  991MOL0     C33696   5.811   4.511   4.093 -0.6219  0.0939  1.0498
  991MOL0     C33697   5.934   4.563   4.133 -0.3667  0.1175  0.1952
  991MOL0     O33698   6.177   4.769   3.999 -1.3331  0.4015  0.1064
  991MOL0     C33699   6.453   4.578   4.128 -0.1116 -0.1713 -0.9899
  991MOL0     C33700   6.591   4.590   4.162  0.0164 -0.1682  0.8604
  991MOL0     N33701   7.155   4.680   3.924  0.1088 -1.0154 -1.4295
  991MOL0     N33702   7.248   4.738   3.850  0.2828 -0.1111 -0.2270
  991MOL0     C33703   8.582   4.729   4.108 -0.1321 -0.2025  1.0486
  991MOL0     C33704   8.721   4.763   4.114 -0.4265 -0.7153  0.8158
  991MOL0     C33705   9.134   4.862   3.904 -0.1209 -0.2438  0.0151
  991MOL0     C33706   9.186   4.942   4.011  0.6855  0.7636 -0.5638
  991MOL0     C33707   9.323   4.977   4.010  0.1194  0.8346 -1.2813
  991MOL0     C33708   9.411   4.944   3.905  0.2048  0.4933 -0.9518
  991MOL0     O33709   9.540   4.985   3.921 -0.3506  0.1473 -0.3456
  991MOL0     C33710   9.616   4.997   3.795  0.0096  0.0381  0.2194
  991MOL0     C33711   9.750   5.063   3.817 -0.2155  0.5140 -0.2984
  991MOL0     C33712   9.865   4.986   3.884  0.1828 -0.7086  0.1220
  991MOL0     C33713   9.937   4.893   3.783  1.3330 -0.3247  0.3775
  991MOL0     C33714  10.033   4.814   3.853 -0.2119  0.7953  0.4521
  991MOL0     C33715  10.119   4.753   3.926  0.8959 -0.6073 -0.7639
  991MOL0     C33716   9.365   4.868   3.797  0.1439 -0.2618 -0.4874
  991MOL0     C33717   9.230   4.825   3.798  0.8884 -0.8146 -0.3071
  991MOL0     H33718   8.738   4.923   3.821 -1.1677  1.5058  0.2534
  991MOL0     H33719   8.503   4.834   3.807 -1.2373 -1.3647  0.5572
  991MOL0     H33720   8.354   4.578   4.111  3.4916  0.3964 -1.0189
  991MOL0     H33721   8.308   4.736   4.172  2.1548 -0.9896 -0.8395
  991MOL0     H33722   8.157   4.599   3.943  1.4550  1.8120 -1.2401
  991MOL0     H33723   8.122   4.563   4.111  2.3582 -1.1662 -1.1066
  991MOL0     H33724   8.077   4.801   4.135  4.1316  0.8955 -0.9992
  991MOL0     H33725   8.119   4.821   3.966 -2.2336 -2.4351 -3.0425
  991MOL0     H33726   7.903   4.666   3.903 -0.1435 -0.4048  0.9802
  991MOL0     H33727   7.871   4.673   4.073 -0.0714 -1.6825 -0.4722
  991MOL0     H33728   7.810   4.893   4.046 -0.7588  1.4239 -1.3144
  991MOL0     H33729   7.913   4.923   3.904 -2.2601  1.0365 -0.6742
  991MOL0     H33730   7.685   4.932   3.814  2.2925 -0.4388 -0.8122
  991MOL0     H33731   7.758   4.784   3.759  3.3589  3.1389 -0.7620
  991MOL0     H33732   7.649   4.662   3.963  0.7822  0.8111  0.2886
  991MOL0     H33733   7.587   4.823   4.001 -1.2183 -0.5434 -0.1727
  991MOL0     H33734   7.529   4.648   3.758  1.3185  1.4924 -0.0297
  991MOL0     H33735   7.478   4.821   3.758 -1.1448 -0.2270 -1.0089
  991MOL0     H33736   7.422   4.526   4.028 -0.2807 -1.4959 -1.5032
  991MOL0     H33737   7.044   4.475   4.044  0.1220  0.2421 -0.0097
  991MOL0     H33738   7.190   4.392   4.110 -2.9704 -2.6450  0.0938
  991MOL0     H33739   7.206   4.585   4.267  1.0180 -0.5908 -0.4414
  991MOL0     H33740   7.068   4.473   4.306  0.6322 -0.8886 -0.6008
  991MOL0     H33741   7.039   4.749   4.186 -0.9918  2.6118  2.2294
  991MOL0     H33742   7.014   4.700   4.355 -0.9089 -1.8193  0.9162
  991MOL0     H33743   6.831   4.563   4.299 -1.1556 -1.3274 -2.1312
  991MOL0     H33744   6.881   4.573   4.124  1.8675 -0.2446  0.5011
  991MOL0     H33745   6.623   4.923   4.141  0.7201 -0.4700 -0.9454
  991MOL0     H33746   6.461   5.036   4.086  1.9467 -1.2231  0.1249
  991MOL0     H33747   6.366   4.975   3.946 -2.0468  5.0586  0.1429
  991MOL0     H33748   6.295   4.974   4.107 -1.1664 -1.0566 -3.6876
  991MOL0     H33749   6.128   4.421   3.878  2.1619  1.3788  0.8888
  991MOL0     H33750   5.906   4.331   3.820 -0.4490 -1.9719  0.9770
  991MOL0     H33751   5.559   4.367   4.127  1.5826  0.1563  0.8445
  991MOL0     H33752   5.519   4.458   3.976  0.6176 -0.3032  1.8517
  991MOL0     H33753   5.466   4.243   3.861 -1.4536  1.3222  0.2165
  991MOL0     H33754   5.506   4.160   4.008 -0.5852 -2.1589 -1.4189
  991MOL0     H33755   5.307   4.399   3.994  0.1503  0.1535 -0.9304
  991MOL0     H33756   5.311   4.285   4.126  0.5129 -0.9844  0.1283
  991MOL0     H33757   5.258   4.247   3.831  0.6059  0.9850  0.4769
  991MOL0     H33758   5.265   4.110   3.937  2.3892  1.1100  1.3853
  991MOL0     H33759   5.033   4.164   3.881 -2.1755  0.3122  0.7862
  991MOL0     H33760   5.065   4.330   3.959  2.4735 -0.5793 -0.5972
  991MOL0     H33761   5.038   4.057   4.059 -1.4740 -0.2767 -1.8237
  991MOL0     H33762   5.113   4.183   4.168 -1.0586  2.0004  0.3121
  991MOL0     H33763   4.818   4.197   4.070 -1.6157  3.7940  0.1340
  991MOL0     H33764   4.912   4.322   4.137  3.1298 -0.6513 -2.0067
  991MOL0     H33765   4.787   4.189   4.309  0.0561 -2.4480  1.9756
  991MOL0     H33766   4.960   4.195   4.332 -2.4036 -0.4863  2.0007
  991MOL0     H33767   5.725   4.526   4.157 -1.9714 -0.2483 -0.6103
  991MOL0     H33768   5.933   4.618   4.226  0.4991 -1.6649  1.3345
  991MOL0     H33769   6.400   4.483   4.130 -0.8036  0.1672 -2.0395
  991MOL0     H33770   6.644   4.496   4.169  1.6524  0.2595 -3.1267
  991MOL0     H33771   8.532   4.682   4.191  1.3547  5.4270  5.7745
  991MOL0     H33772   8.781   4.742   4.202  0.3257 -0.2856  0.4206
  991MOL0     H33773   9.126   4.969   4.098  0.9217  1.6431 -0.6676
  991MOL0     H33774   9.363   5.042   4.088  0.5910  0.7401 -1.4394
  991MOL0     H33775   9.639   4.891   3.777  1.8018  0.4821 -0.2682
  991MOL0     H33776   9.559   5.037   3.711 -0.5710 -3.9722 -1.5434
  991MOL0     H33777   9.746   5.153   3.878 -2.4528  0.6624 -0.6055
  991MOL0     H33778   9.790   5.089   3.718 -2.8828  1.4734 -1.2039
  991MOL0     H33779   9.833   4.931   3.974 -1.0275  0.4302  0.4120
  991MOL0     H33780   9.932   5.063   3.923  2.1203 -0.1278 -3.8875
  991MOL0     H33781   9.981   4.945   3.697 -3.9160 -1.5580 -3.5204
  991MOL0     H33782   9.868   4.824   3.735  0.1135  0.3392  1.1165
  991MOL0     H33783  10.189   4.707   3.992 -0.5419 -2.2627 -0.3267
  991MOL0     H33784   9.428   4.831   3.717  0.9844 -2.2599  1.0131
  991MOL0     H33785   9.195   4.779   3.706  3.1412  1.2620 -2.3463
  992MOL0     O33786   1.576   5.332   6.830 -0.4361 -0.8114 -0.3124
  992MOL0     C33787   1.625   5.379   6.729 -0.0565 -0.4770 -0.3340
  992MOL0     O33788   1.581   5.353   6.614 -0.2892 -0.1553 -0.0857
  992MOL0     C33789   1.466   5.278   6.593  0.8138  0.7708 -0.0001
  992MOL0     C33790   1.470   5.187   6.487 -0.9121 -0.7194 -0.1133
  992MOL0     C33791   1.350   5.115   6.459  0.3214 -0.3259 -0.1586
  992MOL0     C33792   1.227   5.146   6.526  0.1500 -0.2492 -0.3599
  992MOL0     O33793   1.109   5.101   6.478 -0.2875 -0.1539 -0.0843
  992MOL0     C33794   0.979   5.132   6.522  0.5312 -0.4701  0.0500
  992MOL0     C33795   0.880   5.053   6.433  1.0535 -0.2325  0.0189
  992MOL0     C33796   0.735   5.084   6.462  0.1721  0.1704  1.1572
  992MOL0     C33797   0.656   5.005   6.354 -0.5300  0.1944 -0.2290
  992MOL0     C33798   0.532   5.073   6.310  0.1650 -0.3781 -0.0377
  992MOL0     C33799   0.443   4.987   6.205 -1.1550 -0.4143  0.6334
  992MOL0     C33800   0.304   5.044   6.173  0.8905  0.5560 -0.0169
  992MOL0     C33801   0.300   5.184   6.134  0.7438 -0.2486 -0.1559
  992MOL0     N33802   0.162   5.245   6.112 -0.4621  0.3367  0.2127
  992MOL0     C33803   0.071   5.177   6.036 -0.5032 -0.0707  0.3867
  992MOL0     C33804  -0.039   5.257   6.036 -0.4753 -0.4151 -0.5520
  992MOL0     C33805  -0.167   5.204   5.975 -0.2415  0.2386 -0.4909
  992MOL0     C33806  -0.268   5.168   6.088 -0.1919  0.1494  0.3562
  992MOL0     C33807  -0.370   5.058   6.051 -0.1434  0.0502 -0.2477
  992MOL0     C33808  -0.462   5.096   5.945  1.0149  1.1053  0.3633
  992MOL0     O33809  -0.528   5.219   5.990  0.3571 -0.4369  0.7738
  992MOL0     C33810  -0.650   5.251   5.927  0.3027  0.3643  0.3917
  992MOL0     C33811  -0.734   5.327   6.009 -0.0111  0.4243 -0.2965
  992MOL0     C33812  -0.856   5.385   5.956 -1.0277 -0.9570  0.3574
  992MOL0     C33813  -0.939   5.473   6.052 -0.1780 -0.2100  0.3974
  992MOL0     C33814  -0.882   5.368   5.825 -0.2041 -0.5657 -0.2368
  992MOL0     C33815  -1.005   5.416   5.754  0.0394 -0.2259 -0.9814
  992MOL0     O33816  -1.000   5.509   5.656  0.0370  0.8792  0.3761
  992MOL0     C33817  -1.104   5.521   5.571  0.3273  0.6599  0.2221
  992MOL0     C33818  -1.186   5.630   5.584  1.0050  0.1275 -0.0856
  992MOL0     C33819  -1.299   5.642   5.499 -0.4481 -0.5945  0.6152
  992MOL0     C33820  -1.331   5.538   5.408 -0.3023 -0.1396  0.1593
  992MOL0     O33821  -1.455   5.538   5.347  0.1974  0.2568  0.0747
  992MOL0     C33822  -1.495   5.658   5.276 -0.5021 -0.0958 -0.5828
  992MOL0     C33823  -1.550   5.625   5.135  0.1167  0.0728 -0.5659
  992MOL0     C33824  -1.703   5.572   5.151 -0.3301  0.2426 -0.7327
  992MOL0     C33825  -1.765   5.528   5.019 -0.6883  0.5650  0.9913
  992MOL0     C33826  -1.811   5.648   4.940  0.3663 -0.3170 -0.2851
  992MOL0     C33827  -1.872   5.603   4.805  0.2648 -0.2674 -0.2391
  992MOL0     C33828  -2.024   5.551   4.825  0.5249  0.7626 -0.4623
  992MOL0     C33829  -2.085   5.492   4.690 -0.1838  0.3580 -0.3363
  992MOL0    Cl33830  -2.061   5.618   4.565  0.6124  0.0576 -0.2776
  992MOL0     C33831  -1.243   5.424   5.402 -0.2273  0.4212 -0.3996
  992MOL0     C33832  -1.127   5.422   5.482  0.2118  0.0415  0.4716
  992MOL0     O33833  -1.110   5.375   5.799 -0.5222 -0.1033  0.3462
  992MOL0     C33834  -0.798   5.289   5.749 -0.9598  0.0631  0.6569
  992MOL0     C33835  -0.689   5.223   5.800  0.2192 -0.2158  0.5462
  992MOL0     N33836  -0.022   5.370   6.113  0.8403 -0.3448  0.1929
  992MOL0     N33837   0.097   5.362   6.158  0.1293  0.4694 -0.6617
  992MOL0     C33838   1.232   5.241   6.627  0.2161 -0.6194 -0.0494
  992MOL0     C33839   1.343   5.311   6.663 -0.4682  0.4558  0.3865
  992MOL0     C33840   1.752   5.459   6.745  0.2583  0.7572  0.1204
  992MOL0     C33841   1.822   5.471   6.867 -0.3128  0.0714  0.2115
  992MOL0     C33842   1.944   5.547   6.872  1.4232 -0.5325  0.6442
  992MOL0     C33843   1.999   5.598   6.753 -0.8270  0.5001 -0.4001
  992MOL0     O33844   2.124   5.663   6.749  0.7152  0.5415 -0.7103
  992MOL0     C33845   2.194   5.688   6.874  0.3604  0.2847  0.3648
  992MOL0     C33846   2.292   5.802   6.845  0.9346 -0.5097 -0.1055
  992MOL0     C33847   2.403   5.780   6.740 -0.4524  0.6815 -0.1827
  992MOL0     C33848   2.505   5.892   6.762 -0.3775  0.0134  0.4180
  992MOL0     C33849   2.615   5.893   6.668  0.0532 -0.0606 -0.2222
  992MOL0     C33850   2.686   5.893   6.572 -0.4946  0.8009 -0.2939
  992MOL0     C33851   1.926   5.583   6.632 -0.3429  0.0394  0.0389
  992MOL0     C33852   1.802   5.516   6.629 -0.3002  0.1297 -0.2234
  992MOL0     H33853   1.568   5.169   6.442  0.4751  1.0153  1.9814
  992MOL0     H33854   1.351   5.041   6.380  1.1044 -2.6266  1.8880
  992MOL0     H33855   0.976   5.097   6.626 -0.3447 -2.8834 -0.7089
  992MOL0     H33856   0.950   5.237   6.513  0.4149 -0.4040  1.0176
  992MOL0     H33857   0.908   5.086   6.333 -0.8619  1.5626  0.0109
  992MOL0     H33858   0.897   4.947   6.450 -2.2804 -0.8954 -0.0761
  992MOL0     H33859   0.713   5.051   6.564  0.0019 -0.1526  1.0165
  992MOL0     H33860   0.704   5.189   6.451 -3.7501 -0.4978  3.8102
  992MOL0     H33861   0.713   5.000   6.260  0.1817  2.2059  0.0492
  992MOL0     H33862   0.646   4.907   6.400  2.8871  0.7873  2.1956
  992MOL0     H33863   0.469   5.076   6.400 -2.5778 -0.3986 -1.8535
  992MOL0     H33864   0.543   5.175   6.273 -1.9533 -0.8178 -2.1645
  992MOL0     H33865   0.503   4.966   6.115  0.3280 -0.7922  1.6707
  992MOL0     H33866   0.435   4.884   6.243  1.7889 -0.8567  0.3272
  992MOL0     H33867   0.263   4.972   6.101 -0.2375  0.3717  0.7994
  992MOL0     H33868   0.248   5.038   6.266  1.7022  0.0420  0.4556
  992MOL0     H33869   0.357   5.195   6.041 -1.9154  0.3446 -1.8207
  992MOL0     H33870   0.349   5.255   6.202 -0.5693  1.5585 -1.0305
  992MOL0     H33871   0.079   5.083   5.981 -0.9544  0.1315 -0.0328
  992MOL0     H33872  -0.219   5.265   5.901 -2.1209 -1.4696 -0.6683
  992MOL0     H33873  -0.140   5.110   5.927 -1.5848 -1.3997  1.7687
  992MOL0     H33874  -0.320   5.255   6.129  1.5463  0.7773  1.3685
  992MOL0     H33875  -0.209   5.140   6.176 -0.0137  0.2182  0.2614
  992MOL0     H33876  -0.426   5.029   6.140 -0.4484  0.4199 -0.3209
  992MOL0     H33877  -0.322   4.962   6.029  2.3706  1.1242  0.1306
  992MOL0     H33878  -0.530   5.015   5.918 -0.0384  2.0426  0.1182
  992MOL0     H33879  -0.390   5.119   5.865  0.5383  1.2043 -0.0436
  992MOL0     H33880  -0.701   5.353   6.109  0.2546  0.4930 -0.4014
  992MOL0     H33881  -0.901   5.447   6.151  2.4754 -0.7809 -0.6638
  992MOL0     H33882  -0.923   5.580   6.031 -1.3987 -0.0893  0.0211
  992MOL0     H33883  -1.045   5.448   6.050 -0.7487  2.0023 -0.1612
  992MOL0     H33884  -1.160   5.707   5.655  1.5395  0.9358 -1.1266
  992MOL0     H33885  -1.362   5.728   5.518  0.6301  0.6540 -1.2283
  992MOL0     H33886  -1.582   5.697   5.330 -0.7838  2.4859 -2.6509
  992MOL0     H33887  -1.413   5.728   5.294  0.3495 -1.4317  0.9276
  992MOL0     H33888  -1.556   5.719   5.080  2.4414  0.5434 -0.1401
  992MOL0     H33889  -1.487   5.551   5.085 -0.2854 -0.2438 -0.6122
  992MOL0     H33890  -1.763   5.649   5.199  0.1115 -1.1352  2.2839
  992MOL0     H33891  -1.702   5.489   5.222 -0.6212  0.8409 -0.0167
  992MOL0     H33892  -1.691   5.473   4.960  1.8726  0.8732  3.6945
  992MOL0     H33893  -1.848   5.459   5.038 -1.3174  1.5702  1.9995
  992MOL0     H33894  -1.733   5.724   4.931  0.8978 -0.6523  1.0839
  992MOL0     H33895  -1.895   5.687   4.998  0.8541  1.2693 -0.5909
  992MOL0     H33896  -1.876   5.683   4.730 -3.7742 -0.3062 -0.2667
  992MOL0     H33897  -1.802   5.530   4.762  0.0720  0.0166 -1.0549
  992MOL0     H33898  -2.090   5.631   4.861  0.7793  1.1579 -0.8763
  992MOL0     H33899  -2.021   5.463   4.890 -0.3450  0.0683 -1.3283
  992MOL0     H33900  -2.193   5.475   4.692 -0.5046  2.2404  0.2689
  992MOL0     H33901  -2.044   5.398   4.652 -3.1591 -1.0111 -0.4132
  992MOL0     H33902  -1.269   5.351   5.327  1.4626 -2.4890  1.6445
  992MOL0     H33903  -1.056   5.340   5.472  1.2648  1.2012 -3.3005
  992MOL0     H33904  -0.832   5.285   5.646 -1.9074 -0.8465  0.9878
  992MOL0     H33905  -0.622   5.184   5.724  0.9125  0.8925  0.5564
  992MOL0     H33906   1.141   5.282   6.669  0.9572 -0.3062  1.3500
  992MOL0     H33907   1.324   5.389   6.737 -0.5141  0.6052  0.2171
  992MOL0     H33908   1.797   5.415   6.956  0.2861 -1.9897 -0.8466
  992MOL0     H33909   1.987   5.565   6.969 -0.3323 -1.6533  1.6819
  992MOL0     H33910   2.133   5.728   6.956  3.9384 -0.1185  3.5276
  992MOL0     H33911   2.235   5.595   6.915 -0.2038 -0.3540 -0.4731
  992MOL0     H33912   2.333   5.838   6.940 -2.4882  0.4172  1.1754
  992MOL0     H33913   2.236   5.886   6.803  0.6831 -0.5073  0.2300
  992MOL0     H33914   2.372   5.782   6.635  0.9224  3.8777 -0.6493
  992MOL0     H33915   2.448   5.682   6.761 -0.6699  0.7235  0.5138
  992MOL0     H33916   2.545   5.884   6.864 -1.3098  0.9059  0.8811
  992MOL0     H33917   2.450   5.986   6.751  1.5262  1.2046  0.5894
  992MOL0     H33918   2.734   5.891   6.476 -1.8253 -1.3364 -0.9963
  992MOL0     H33919   1.966   5.617   6.537  1.4618  0.1094  0.7885
  992MOL0     H33920   1.755   5.500   6.533  0.0622 -0.9246 -0.2376
  993MOL0     O33921   9.245   8.716   2.950 -0.5137 -0.6672  0.1724
  993MOL0     C33922   9.281   8.789   2.859 -0.0271 -0.3019  1.0102
  993MOL0     O33923   9.196   8.860   2.780 -0.3898  0.4705  0.3654
  993MOL0     C33924   9.093   8.793   2.716  0.0995 -0.0083 -0.7186
  993MOL0     C33925   9.053   8.657   2.716 -0.7464  0.2040 -0.2306
  993MOL0     C33926   8.953   8.607   2.643  0.3564 -0.0714 -0.2775
  993MOL0     C33927   8.877   8.687   2.553 -0.3454 -0.2201  0.1848
  993MOL0     O33928   8.769   8.650   2.480  0.1606  0.6190 -0.3220
  993MOL0     C33929   8.724   8.520   2.480 -0.0446 -0.4225 -0.6014
  993MOL0     C33930   8.612   8.520   2.379  0.0014  1.3001 -0.3300
  993MOL0     C33931   8.466   8.524   2.438 -0.3544  0.6486  0.3882
  993MOL0     C33932   8.362   8.465   2.339  0.2313 -0.7709 -0.1061
  993MOL0     C33933   8.339   8.557   2.214 -0.3010  0.1758  0.1001
  993MOL0     C33934   8.209   8.536   2.138 -0.4631  0.1139  0.2987
  993MOL0     C33935   8.088   8.586   2.217  0.3898  0.2109 -0.8394
  993MOL0     C33936   8.094   8.739   2.258  0.3408  0.6300  0.7455
  993MOL0     N33937   7.961   8.792   2.304 -0.9750  0.4994 -0.9195
  993MOL0     C33938   7.885   8.873   2.230  0.6151  0.2245 -0.0128
  993MOL0     C33939   7.798   8.909   2.323 -0.0595 -0.1909  0.5626
  993MOL0     C33940   7.685   9.004   2.302 -0.6094  0.1122  0.3270
  993MOL0     C33941   7.571   8.992   2.407 -0.2694 -0.0112  0.3400
  993MOL0     C33942   7.444   9.078   2.375  0.0587  0.3194  0.5933
  993MOL0     C33943   7.326   9.038   2.467  0.1253 -0.1917  0.0658
  993MOL0     O33944   7.272   8.924   2.400  0.3966  0.6066 -0.4943
  993MOL0     C33945   7.145   8.892   2.438 -0.2592 -0.1282 -0.0317
  993MOL0     C33946   7.075   8.804   2.361 -0.4387  1.1604  0.4143
  993MOL0     C33947   6.944   8.762   2.390  0.4623 -0.1345 -0.3286
  993MOL0     C33948   6.885   8.657   2.296 -1.1038  1.3686  0.0591
  993MOL0     C33949   6.875   8.823   2.499 -0.0299  0.5615 -0.6700
  993MOL0     C33950   6.730   8.791   2.532 -0.0779  0.0506  0.5632
  993MOL0     O33951   6.683   8.846   2.649  0.4593 -0.1804  0.0412
  993MOL0     C33952   6.571   8.783   2.692  0.1110 -0.4502 -0.4079
  993MOL0     C33953   6.441   8.834   2.666  0.5224  0.4382  1.1445
  993MOL0     C33954   6.328   8.755   2.704  0.3233  0.4327  0.5187
  993MOL0     C33955   6.341   8.641   2.778  0.2249 -0.0401  0.0990
  993MOL0     O33956   6.233   8.579   2.840 -0.3851 -0.6073  0.1246
  993MOL0     C33957   6.126   8.548   2.752  0.6465 -0.2669  0.4323
  993MOL0     C33958   6.033   8.455   2.815  1.4275 -0.0993  0.0031
  993MOL0     C33959   5.914   8.526   2.878  0.6405  0.4544  0.4356
  993MOL0     C33960   5.828   8.420   2.954 -0.4153  0.1384 -0.2894
  993MOL0     C33961   5.728   8.498   3.044 -0.3409 -0.1113 -0.0162
  993MOL0     C33962   5.626   8.577   2.965 -1.2315 -0.3220 -0.2156
  993MOL0     C33963   5.507   8.640   3.044  0.0760 -0.2800 -0.8652
  993MOL0     C33964   5.555   8.760   3.125 -1.2505 -0.1810 -0.2912
  993MOL0    Cl33965   5.397   8.831   3.173  0.2111 -0.2403 -0.2652
  993MOL0     C33966   6.469   8.589   2.807  0.8496 -0.3831  0.6960
  993MOL0     C33967   6.587   8.658   2.759  0.1962 -0.6053 -0.6611
  993MOL0     O33968   6.659   8.739   2.440  0.0936 -0.5853 -0.8493
  993MOL0     C33969   6.939   8.918   2.576  0.3367  0.1446  0.0660
  993MOL0     C33970   7.073   8.947   2.544 -0.0232  0.1909 -0.1054
  993MOL0     N33971   7.826   8.851   2.447 -0.0853 -0.8612 -0.4881
  993MOL0     N33972   7.921   8.766   2.429  0.6851 -0.4595 -0.1031
  993MOL0     C33973   8.921   8.822   2.533 -0.9677 -0.3711  0.1887
  993MOL0     C33974   9.023   8.875   2.621 -0.4250 -0.1448 -0.3891
  993MOL0     C33975   9.434   8.814   2.834  0.0026 -0.5299 -0.4110
  993MOL0     C33976   9.523   8.797   2.942  0.5046  0.9046  0.0595
  993MOL0     C33977   9.659   8.823   2.924 -0.0414 -0.2725  0.1807
  993MOL0     C33978   9.709   8.869   2.801 -0.2843 -0.4782  0.2601
  993MOL0     O33979   9.838   8.887   2.768 -0.1857  0.1440 -0.9289
  993MOL0     C33980   9.947   8.892   2.864  1.1512  0.5130  0.2118
  993MOL0     C33981  10.081   8.924   2.811 -0.4965 -0.3433 -1.1985
  993MOL0     C33982  10.134   8.823   2.713 -0.4406  1.2915  0.5010
  993MOL0     C33983  10.134   8.677   2.750 -0.7292 -0.2705 -0.1180
  993MOL0     C33984  10.235   8.657   2.849 -0.8503  0.5905 -0.3234
  993MOL0     C33985  10.338   8.639   2.915 -0.4000 -0.4423 -0.4901
  993MOL0     C33986   9.615   8.888   2.696  0.3215  0.3771  0.2159
  993MOL0     C33987   9.480   8.860   2.714 -0.2098  0.3997 -0.1735
  993MOL0     H33988   9.101   8.593   2.789 -1.1093 -2.9053 -2.5019
  993MOL0     H33989   8.941   8.500   2.661 -0.3105  0.4210  2.7022
  993MOL0     H33990   8.813   8.462   2.454  0.0378 -0.3646 -0.4486
  993MOL0     H33991   8.681   8.481   2.572 -0.7842 -2.3061 -1.6845
  993MOL0     H33992   8.625   8.606   2.312  0.6213  2.5396  1.3233
  993MOL0     H33993   8.631   8.424   2.329  4.1188  0.4932  2.3315
  993MOL0     H33994   8.461   8.473   2.535 -2.6529  2.1873  1.1711
  993MOL0     H33995   8.433   8.626   2.456  0.1256  0.7828  0.5390
  993MOL0     H33996   8.408   8.375   2.298  1.9082  0.7767 -1.8559
  993MOL0     H33997   8.271   8.458   2.400  0.2431  1.9309  0.3584
  993MOL0     H33998   8.346   8.663   2.240 -2.4928  0.0865  1.3078
  993MOL0     H33999   8.421   8.549   2.141  0.0687  1.4793  0.3438
  993MOL0     H34000   8.219   8.594   2.046 -1.5267  1.9086  1.2434
  993MOL0     H34001   8.190   8.432   2.109 -2.1240  0.0863  1.3443
  993MOL0     H34002   7.995   8.564   2.165 -1.5136  1.5022  1.7543
  993MOL0     H34003   8.068   8.522   2.303 -0.7265  0.1770 -1.1181
  993MOL0     H34004   8.120   8.805   2.174 -0.8819  0.5781  0.2979
  993MOL0     H34005   8.174   8.755   2.331  1.1883 -1.5630  0.3765
  993MOL0     H34006   7.892   8.880   2.122 -0.5279 -2.5649 -0.3506
  993MOL0     H34007   7.733   9.102   2.313 -0.0295 -0.3151  1.8057
  993MOL0     H34008   7.652   8.983   2.200 -2.2684  1.2257  0.5979
  993MOL0     H34009   7.613   8.999   2.508 -2.6860  0.8324  1.3583
  993MOL0     H34010   7.536   8.889   2.414 -0.6303  0.2182  3.4303
  993MOL0     H34011   7.416   9.066   2.270 -3.1476 -1.3713  1.5089
  993MOL0     H34012   7.471   9.183   2.389 -1.2081  0.9270 -1.1283
  993MOL0     H34013   7.259   9.125   2.468  0.8226  0.3691 -0.5797
  993MOL0     H34014   7.356   9.022   2.571 -1.3390  0.2023  0.5731
  993MOL0     H34015   7.126   8.752   2.280  0.2679  2.5986 -0.0930
  993MOL0     H34016   6.835   8.697   2.207  2.0973  0.1164 -2.5205
  993MOL0     H34017   6.963   8.609   2.237 -0.6170  1.3286  0.7250
  993MOL0     H34018   6.820   8.585   2.346 -2.1780  1.0891 -1.6360
  993MOL0     H34019   6.419   8.920   2.604  1.8143  0.1005  0.1809
  993MOL0     H34020   6.227   8.795   2.700 -1.2986 -3.3111  0.5936
  993MOL0     H34021   6.071   8.638   2.726 -0.2817 -1.3963 -1.7724
  993MOL0     H34022   6.160   8.501   2.659 -0.1238 -3.1723  1.5168
  993MOL0     H34023   5.984   8.389   2.742 -0.9534  0.7599  0.7215
  993MOL0     H34024   6.082   8.391   2.888 -1.1851  1.8007  3.7538
  993MOL0     H34025   5.869   8.568   2.788  0.9596  0.8454  0.4580
  993MOL0     H34026   5.936   8.608   2.947  5.1941 -1.1215  1.1986
  993MOL0     H34027   5.786   8.349   2.883 -2.1330 -0.1136  0.9256
  993MOL0     H34028   5.891   8.365   3.024  1.2977 -0.8850 -2.5149
  993MOL0     H34029   5.780   8.556   3.120  0.2282  1.1088 -1.2810
  993MOL0     H34030   5.663   8.425   3.093  0.3014 -1.4244 -1.0350
  993MOL0     H34031   5.674   8.666   2.922 -4.5488  1.6052 -0.3112
  993MOL0     H34032   5.582   8.520   2.883  0.0302  0.0726 -1.2024
  993MOL0     H34033   5.469   8.569   3.118  0.3559 -1.0056 -1.4022
  993MOL0     H34034   5.427   8.679   2.981 -1.1908 -1.6503 -0.1798
  993MOL0     H34035   5.616   8.827   3.064 -0.6565  0.0454  0.5299
  993MOL0     H34036   5.616   8.733   3.212  0.4931  0.0018 -1.4166
  993MOL0     H34037   6.472   8.495   2.861  0.6312 -1.1254 -0.5548
  993MOL0     H34038   6.685   8.619   2.784  0.0701  0.1301  1.1167
  993MOL0     H34039   6.897   8.961   2.667  0.8125 -1.1504  0.9232
  993MOL0     H34040   7.124   9.000   2.623  0.8870  1.4491 -1.4768
  993MOL0     H34041   8.867   8.874   2.456 -0.3744  0.3295  0.2287
  993MOL0     H34042   9.034   8.983   2.609 -3.0174  0.1360 -0.7826
  993MOL0     H34043   9.480   8.749   3.030 -0.0448  1.5964  0.1688
  993MOL0     H34044   9.735   8.798   2.997 -1.2613  0.0544  1.6015
  993MOL0     H34045   9.931   8.972   2.936  0.0452 -1.5770  2.4474
  993MOL0     H34046   9.956   8.800   2.923  0.1118  1.9531  2.7455
  993MOL0     H34047  10.151   8.919   2.895 -0.7749 -0.2372 -0.9567
  993MOL0     H34048  10.079   9.025   2.771  0.1336  0.6256  1.0807
  993MOL0     H34049  10.229   8.863   2.674 -0.6047 -0.0953 -1.4373
  993MOL0     H34050  10.063   8.817   2.630  0.5140 -3.5275 -0.2535
  993MOL0     H34051  10.159   8.618   2.662 -1.1819  0.8880 -1.0588
  993MOL0     H34052  10.042   8.633   2.788  0.5490 -1.7662  1.4145
  993MOL0     H34053  10.431   8.638   2.969 -1.7756 -0.3100  1.9969
  993MOL0     H34054   9.650   8.933   2.603  2.1008 -0.3803  0.4851
  993MOL0     H34055   9.411   8.880   2.632 -0.0862 -0.8517 -0.6020
  994MOL0     O34056   1.597   5.310   0.846  0.7295  0.0916  0.2998
  994MOL0     C34057   1.660   5.246   0.933  0.6149  0.2355 -0.4952
  994MOL0     O34058   1.608   5.223   1.047 -0.1525  0.7012  0.5238
  994MOL0     C34059   1.475   5.248   1.070 -0.6150 -0.2125 -0.1997
  994MOL0     C34060   1.383   5.147   1.085  0.2826  0.5131 -0.6877
  994MOL0     C34061   1.250   5.163   1.129  0.1664 -0.1025  1.2260
  994MOL0     C34062   1.211   5.302   1.154 -0.3955 -0.7317 -0.8153
  994MOL0     O34063   1.081   5.319   1.196  0.2487 -0.0386  0.3272
  994MOL0     C34064   1.031   5.445   1.243 -0.0319 -0.0023 -0.3222
  994MOL0     C34065   0.886   5.414   1.275 -0.1450 -0.4980 -0.6053
  994MOL0     C34066   0.865   5.301   1.369  0.5552 -0.4326  0.0584
  994MOL0     C34067   0.712   5.276   1.363 -0.6917  0.5736 -1.2957
  994MOL0     C34068   0.676   5.185   1.487 -0.5091 -0.3150  0.0664
  994MOL0     C34069   0.522   5.153   1.518 -0.7347  0.0216  0.0047
  994MOL0     C34070   0.445   5.287   1.526 -0.0688  0.0167  0.4654
  994MOL0     C34071   0.311   5.277   1.599  0.9661  0.2063  0.1095
  994MOL0     N34072   0.224   5.169   1.568  0.0803  0.8730 -0.5601
  994MOL0     C34073   0.110   5.184   1.485 -0.2468  0.1918 -0.0750
  994MOL0     C34074   0.052   5.061   1.495 -0.2135 -0.2920 -0.1746
  994MOL0     C34075  -0.079   5.029   1.428 -0.0565 -1.5052  0.2170
  994MOL0     C34076  -0.171   4.966   1.532 -0.6840 -0.2839  0.2832
  994MOL0     C34077  -0.205   5.068   1.647 -0.6347  0.6996 -0.8684
  994MOL0     C34078  -0.345   5.036   1.692  0.4580  0.6073  0.4748
  994MOL0     O34079  -0.393   5.089   1.817 -0.3021  0.3891 -0.0060
  994MOL0     C34080  -0.515   5.034   1.875  0.4556 -0.7996  0.5705
  994MOL0     C34081  -0.539   5.069   2.008 -0.5340  0.3824 -0.1167
  994MOL0     C34082  -0.649   5.026   2.074 -0.0153  0.4001  0.8626
  994MOL0     C34083  -0.666   5.070   2.219  0.0269  0.0868  0.2319
  994MOL0     C34084  -0.744   4.936   2.016  0.0500  0.4199  0.3119
  994MOL0     C34085  -0.862   4.875   2.091 -0.6203  0.1975  0.3684
  994MOL0     O34086  -0.934   4.791   2.021 -0.3376  0.4826  0.3482
  994MOL0     C34087  -1.071   4.788   2.055  0.2326 -0.0821  0.3812
  994MOL0     C34088  -1.135   4.903   2.099  0.1591 -0.4412 -0.4592
  994MOL0     C34089  -1.273   4.894   2.126  0.1506 -0.0126  0.0402
  994MOL0     C34090  -1.340   4.770   2.127 -0.7181 -0.0618 -0.0147
  994MOL0     O34091  -1.478   4.751   2.152 -0.6060  0.1885  0.4748
  994MOL0     C34092  -1.569   4.860   2.136 -0.5715  0.8306 -0.7379
  994MOL0     C34093  -1.712   4.811   2.159 -0.3559 -0.5333 -0.5029
  994MOL0     C34094  -1.812   4.919   2.197  0.3534 -0.2024 -0.5641
  994MOL0     C34095  -1.850   5.011   2.077  0.2739  0.1542  1.0474
  994MOL0     C34096  -1.951   5.110   2.119  0.3927 -0.0354 -0.3291
  994MOL0     C34097  -1.989   5.198   2.001 -0.0446 -0.1378 -0.4891
  994MOL0     C34098  -2.071   5.319   2.040  1.0717 -0.3618  0.5927
  994MOL0     C34099  -2.111   5.402   1.911  0.0029 -0.8241 -0.2493
  994MOL0    Cl34100  -1.964   5.460   1.832 -0.1342 -0.0717 -0.4228
  994MOL0     C34101  -1.273   4.660   2.084 -0.4109 -0.2858 -0.3204
  994MOL0     C34102  -1.140   4.672   2.041 -0.3705 -0.1725 -0.1510
  994MOL0     O34103  -0.877   4.904   2.212  0.1153 -0.0027  0.5867
  994MOL0     C34104  -0.718   4.903   1.881 -0.0042 -1.0671 -1.0201
  994MOL0     C34105  -0.616   4.953   1.810  0.2500  0.5493 -1.1807
  994MOL0     N34106   0.126   4.977   1.582  0.1367 -0.3805  0.7301
  994MOL0     N34107   0.226   5.040   1.618  0.2504 -0.2703 -0.6197
  994MOL0     C34108   1.305   5.411   1.131 -0.2811  0.1891 -0.2599
  994MOL0     C34109   1.433   5.374   1.091 -0.3985  0.4410  0.6217
  994MOL0     C34110   1.794   5.171   0.901  0.4603 -0.5895 -0.2886
  994MOL0     C34111   1.849   5.088   0.999  0.6400 -0.1031  0.3975
  994MOL0     C34112   1.959   5.016   0.962  0.1375 -0.2404 -0.5063
  994MOL0     C34113   2.034   5.041   0.843  0.5948 -0.1634 -0.2545
  994MOL0     O34114   2.143   4.961   0.842  0.1311  0.2858  0.1703
  994MOL0     C34115   2.230   4.980   0.730  0.4484 -0.2022  0.0244
  994MOL0     C34116   2.316   4.858   0.710  0.1943  0.3365  0.2392
  994MOL0     C34117   2.419   4.844   0.821  0.1908 -0.2355 -0.1948
  994MOL0     C34118   2.491   4.709   0.822  0.5305 -0.6751  0.0793
  994MOL0     C34119   2.403   4.589   0.829 -0.0494 -0.2722 -0.6621
  994MOL0     C34120   2.319   4.504   0.847  0.0251  0.1426 -0.3240
  994MOL0     C34121   1.982   5.139   0.756 -0.4456  1.2110  0.0361
  994MOL0     C34122   1.868   5.200   0.784  0.0200  0.7954 -0.3083
  994MOL0     H34123   1.409   5.042   1.074 -2.1032 -0.2656  0.3700
  994MOL0     H34124   1.188   5.079   1.159 -1.0094  0.6124  0.8667
  994MOL0     H34125   1.079   5.467   1.339  1.2836 -1.7462 -0.5305
  994MOL0     H34126   1.044   5.523   1.168 -0.1601 -0.7483 -1.1340
  994MOL0     H34127   0.839   5.501   1.321 -1.1686  0.5415 -3.4190
  994MOL0     H34128   0.833   5.400   1.181 -0.2566 -3.6485 -0.1853
  994MOL0     H34129   0.913   5.204   1.355  0.3364 -0.1439 -3.3975
  994MOL0     H34130   0.887   5.328   1.473 -0.7123 -2.7463  1.0025
  994MOL0     H34131   0.660   5.370   1.385 -0.3741  0.4788 -0.0176
  994MOL0     H34132   0.675   5.238   1.268 -1.6457  1.0773 -1.1421
  994MOL0     H34133   0.727   5.091   1.466  2.8188  1.1127  1.0767
  994MOL0     H34134   0.732   5.224   1.572  1.5691 -0.6383 -1.0811
  994MOL0     H34135   0.474   5.102   1.434 -2.1462  1.1006  0.1047
  994MOL0     H34136   0.510   5.088   1.605  1.1886  2.2291  2.0824
  994MOL0     H34137   0.507   5.353   1.588  2.3837 -1.4653 -0.2961
  994MOL0     H34138   0.417   5.339   1.434 -2.2857  2.7104  2.4791
  994MOL0     H34139   0.251   5.367   1.589  0.5816 -0.2488 -2.3694
  994MOL0     H34140   0.341   5.267   1.704 -1.4849  1.5020  0.9990
  994MOL0     H34141   0.068   5.271   1.437  2.2371  0.7605 -1.3868
  994MOL0     H34142  -0.113   5.126   1.389  2.4795  0.2917  2.1303
  994MOL0     H34143  -0.065   4.952   1.352  1.3402 -2.2854  1.2276
  994MOL0     H34144  -0.118   4.881   1.577  0.1217  0.5369  0.9377
  994MOL0     H34145  -0.262   4.943   1.476 -0.8250 -1.0036  0.7949
  994MOL0     H34146  -0.191   5.171   1.613  0.0372  0.7812 -0.3591
  994MOL0     H34147  -0.140   5.049   1.732 -2.6586  2.6531  1.2415
  994MOL0     H34148  -0.358   4.928   1.700  0.8501  0.4282 -1.0484
  994MOL0     H34149  -0.410   5.074   1.612  1.8319 -0.9946 -1.5005
  994MOL0     H34150  -0.463   5.123   2.063  1.0541 -1.9466  0.1440
  994MOL0     H34151  -0.757   5.129   2.232  1.0255  1.4210  1.4324
  994MOL0     H34152  -0.672   4.981   2.282  0.1873  0.3094  0.5573
  994MOL0     H34153  -0.575   5.126   2.241 -1.1271  1.5822  1.4111
  994MOL0     H34154  -1.080   4.994   2.122 -0.3800 -0.4007  0.7523
  994MOL0     H34155  -1.333   4.980   2.152 -1.0961 -0.3656 -1.5493
  994MOL0     H34156  -1.547   4.935   2.213  1.1513 -0.8148  0.4675
  994MOL0     H34157  -1.554   4.910   2.040  0.5100  0.5649 -0.7189
  994MOL0     H34158  -1.754   4.773   2.065 -0.2606 -1.1932 -0.2774
  994MOL0     H34159  -1.713   4.737   2.239  0.4372 -0.0080  0.0027
  994MOL0     H34160  -1.775   4.978   2.281 -1.5219 -0.5721  0.5931
  994MOL0     H34161  -1.899   4.860   2.227 -0.9504  1.7684 -0.2987
  994MOL0     H34162  -1.757   5.056   2.043 -0.0790 -0.4785 -0.8582
  994MOL0     H34163  -1.897   4.954   1.997  0.9622  1.6587 -0.4824
  994MOL0     H34164  -1.912   5.170   2.202 -0.0856  1.1513 -0.9420
  994MOL0     H34165  -2.042   5.057   2.149  1.4041 -0.3084  2.5718
  994MOL0     H34166  -1.897   5.224   1.948  0.6478  1.4425  1.3827
  994MOL0     H34167  -2.052   5.151   1.925 -3.5375  2.0748  0.7944
  994MOL0     H34168  -2.023   5.391   2.108 -2.1447  2.0096  0.5992
  994MOL0     H34169  -2.160   5.280   2.091  1.1475 -0.0099  1.0009
  994MOL0     H34170  -2.180   5.482   1.940  1.7795  0.2813  1.1615
  994MOL0     H34171  -2.158   5.336   1.838 -0.1298  0.5912 -1.4982
  994MOL0     H34172  -1.317   4.560   2.082  0.6917 -0.7979  0.3724
  994MOL0     H34173  -1.094   4.579   2.008 -2.1394 -0.9752 -0.4627
  994MOL0     H34174  -0.793   4.840   1.833 -1.5721 -1.1444  1.3269
  994MOL0     H34175  -0.607   4.918   1.707 -0.4592  1.1779 -1.4599
  994MOL0     H34176   1.267   5.512   1.138  0.7689  0.4905  1.5439
  994MOL0     H34177   1.503   5.456   1.080  1.0779 -0.8908 -0.3708
  994MOL0     H34178   1.800   5.060   1.092  0.6236  0.9167  0.7119
  994MOL0     H34179   2.009   4.951   1.034 -2.2713 -0.0790  1.4132
  994MOL0     H34180   2.180   4.986   0.633 -0.3717  2.5463  0.5376
  994MOL0     H34181   2.295   5.067   0.746  2.8600 -1.9373  0.2430
  994MOL0     H34182   2.369   4.875   0.615  1.5764  4.4603  1.5606
  994MOL0     H34183   2.259   4.764   0.711 -2.4974  1.8601  1.3824
  994MOL0     H34184   2.366   4.855   0.916 -2.7841  1.9221 -1.9463
  994MOL0     H34185   2.499   4.917   0.805  3.8819 -3.6182  0.9751
  994MOL0     H34186   2.556   4.714   0.910 -0.1527  0.6319  0.5263
  994MOL0     H34187   2.546   4.698   0.728  1.4523  0.2077  0.4976
  994MOL0     H34188   2.248   4.425   0.865 -2.4347  2.6646  2.0816
  994MOL0     H34189   2.023   5.151   0.656 -0.7457  0.4221 -0.1970
  994MOL0     H34190   1.818   5.259   0.709 -1.7444 -0.6821 -0.3779
  995MOL0     O34191   9.086   2.203   1.765  0.5187  0.5803 -0.3861
  995MOL0     C34192   9.157   2.226   1.859  0.7097  0.4367  0.5603
  995MOL0     O34193   9.109   2.265   1.985  0.1427 -0.1724 -0.0235
  995MOL0     C34194   8.977   2.242   2.017 -0.3638  0.1423 -0.1026
  995MOL0     C34195   8.902   2.343   2.074 -0.7033  0.0914 -0.5986
  995MOL0     C34196   8.767   2.329   2.086 -0.0020 -0.3506 -0.5092
  995MOL0     C34197   8.687   2.216   2.055 -0.5923 -1.0771 -0.4750
  995MOL0     O34198   8.553   2.190   2.075  0.7248  0.0770  0.2364
  995MOL0     C34199   8.468   2.297   2.055 -0.0341 -0.8272  0.1974
  995MOL0     C34200   8.393   2.266   1.931  0.1376 -0.1462  0.4846
  995MOL0     C34201   8.283   2.372   1.918 -0.8774  0.3418 -0.1887
  995MOL0     C34202   8.262   2.428   1.778 -1.0557 -0.6130 -0.3943
  995MOL0     C34203   8.144   2.536   1.765 -0.2196 -0.0896 -0.4558
  995MOL0     C34204   8.123   2.596   1.624 -0.6549 -0.7771 -0.1276
  995MOL0     C34205   8.038   2.724   1.628  0.0411  0.6049  0.8101
  995MOL0     C34206   7.915   2.728   1.724  0.1531 -0.1602 -1.0197
  995MOL0     N34207   7.822   2.845   1.722  0.2547 -0.0059 -0.2287
  995MOL0     C34208   7.787   2.912   1.609 -1.2805 -0.0254 -0.1029
  995MOL0     C34209   7.719   3.026   1.658  0.0226  0.1477  0.2658
  995MOL0     C34210   7.666   3.142   1.579  0.3723 -0.4294 -0.0896
  995MOL0     C34211   7.771   3.244   1.558 -0.0854 -0.3358 -0.0556
  995MOL0     C34212   7.863   3.228   1.437 -0.1654 -0.2273 -0.0584
  995MOL0     C34213   7.972   3.337   1.419 -0.0369  0.1456  0.5737
  995MOL0     O34214   8.077   3.297   1.335 -0.2733 -1.2069  0.3684
  995MOL0     C34215   8.157   3.196   1.377 -0.6535 -0.1107  0.0504
  995MOL0     C34216   8.212   3.120   1.271 -1.0173 -0.5080 -0.0533
  995MOL0     C34217   8.310   3.017   1.287 -0.2919  0.2952  0.1516
  995MOL0     C34218   8.344   2.936   1.161  1.2723 -0.0897  0.1505
  995MOL0     C34219   8.349   2.978   1.418 -0.5743  0.3846  0.9777
  995MOL0     C34220   8.447   2.878   1.454 -0.5525 -0.1790  0.3186
  995MOL0     O34221   8.496   2.800   1.360  0.2932 -0.2348  0.2418
  995MOL0     C34222   8.605   2.715   1.384 -0.0802 -0.1831 -0.2211
  995MOL0     C34223   8.590   2.591   1.439  0.2956 -0.0176  0.6738
  995MOL0     C34224   8.696   2.506   1.465  0.7045 -0.8875 -0.8626
  995MOL0     C34225   8.826   2.540   1.421 -0.1799 -0.0416  0.6292
  995MOL0     O34226   8.928   2.453   1.451  0.4309  0.1142  0.4835
  995MOL0     C34227   9.050   2.456   1.384 -0.1924  0.1536  0.0709
  995MOL0     C34228   9.114   2.322   1.409  0.6697  0.5587  1.3654
  995MOL0     C34229   9.031   2.207   1.331 -0.7393 -0.3710  0.9708
  995MOL0     C34230   9.029   2.226   1.177 -0.8420 -0.1749  0.5717
  995MOL0     C34231   8.975   2.113   1.095  0.4243  1.4711  0.8255
  995MOL0     C34232   9.028   1.968   1.137  0.5328  0.0713  0.1330
  995MOL0     C34233   8.939   1.892   1.240  0.7520  0.7521 -0.0533
  995MOL0     C34234   8.958   1.737   1.231  0.1173 -0.3940 -0.0456
  995MOL0    Cl34235   9.125   1.679   1.244 -0.6286  0.0017  0.3591
  995MOL0     C34236   8.837   2.667   1.360 -0.1167 -0.0406  0.9267
  995MOL0     C34237   8.729   2.760   1.355 -0.2529  1.1703  0.1586
  995MOL0     O34238   8.460   2.855   1.577  0.2281 -0.1038  0.3544
  995MOL0     C34239   8.303   3.064   1.522  0.6166  0.3532  0.3732
  995MOL0     C34240   8.199   3.165   1.502 -0.3096 -0.6973 -0.1302
  995MOL0     N34241   7.707   3.009   1.798 -0.4494  0.7716 -0.5024
  995MOL0     N34242   7.768   2.901   1.835 -0.2348  0.2238 -0.4781
  995MOL0     C34243   8.767   2.117   2.002 -0.1230 -0.3408  0.6974
  995MOL0     C34244   8.905   2.129   1.983 -0.3803 -0.5240 -0.0186
  995MOL0     C34245   9.299   2.201   1.846  0.4762 -0.1083  0.1106
  995MOL0     C34246   9.390   2.184   1.956  0.3065  0.3478 -0.6886
  995MOL0     C34247   9.527   2.158   1.934  0.3699  0.4710  0.2264
  995MOL0     C34248   9.586   2.158   1.811 -0.4207  0.1821 -0.1460
  995MOL0     O34249   9.722   2.143   1.796  0.0942  0.0030  0.3020
  995MOL0     C34250   9.789   2.149   1.667 -0.6722 -0.3122 -0.0006
  995MOL0     C34251   9.759   2.028   1.577 -0.3029 -0.3366 -0.7470
  995MOL0     C34252   9.822   2.042   1.441  0.0037 -0.5501  0.6911
  995MOL0     C34253   9.792   1.912   1.363  0.0142  0.3804  0.0016
  995MOL0     C34254   9.909   1.842   1.310  0.5686  0.5836  0.2573
  995MOL0     C34255  10.017   1.799   1.274  0.5190  0.2924  0.1830
  995MOL0     C34256   9.498   2.188   1.702  0.3916  0.7237 -0.6761
  995MOL0     C34257   9.358   2.201   1.713  0.3296 -0.0880  0.9820
  995MOL0     H34258   8.945   2.440   2.095 -1.2605 -0.2579  2.5708
  995MOL0     H34259   8.712   2.408   2.137  1.5672  1.1832 -1.1214
  995MOL0     H34260   8.397   2.305   2.137 -0.2211  0.6096 -0.0779
  995MOL0     H34261   8.514   2.396   2.045 -1.6087 -0.0768 -0.0289
  995MOL0     H34262   8.460   2.276   1.845  0.2995  2.3296  0.8037
  995MOL0     H34263   8.342   2.170   1.929 -1.9061  0.8551  1.7382
  995MOL0     H34264   8.187   2.329   1.948  0.0988 -2.2996 -0.6112
  995MOL0     H34265   8.298   2.456   1.985 -1.7028  0.5224 -0.2183
  995MOL0     H34266   8.351   2.483   1.746 -0.2802 -0.9174  1.1286
  995MOL0     H34267   8.252   2.341   1.712  0.8242 -0.8032 -0.4699
  995MOL0     H34268   8.054   2.485   1.802  0.2077 -1.4182 -1.1890
  995MOL0     H34269   8.167   2.621   1.830 -0.5726 -1.6666  1.8847
  995MOL0     H34270   8.218   2.637   1.589 -0.3492 -0.0939  1.4015
  995MOL0     H34271   8.079   2.524   1.554 -1.1679  1.3386 -2.1023
  995MOL0     H34272   8.098   2.812   1.653  0.9734  0.0646  0.5036
  995MOL0     H34273   7.999   2.727   1.525 -3.4348  0.7873  1.9949
  995MOL0     H34274   7.952   2.715   1.826 -0.1340 -3.1272 -1.2077
  995MOL0     H34275   7.849   2.643   1.705 -2.0867 -0.0646  4.5324
  995MOL0     H34276   7.815   2.889   1.506  0.1052 -1.1699  0.4821
  995MOL0     H34277   7.615   3.114   1.487 -1.9897  2.2285  0.2936
  995MOL0     H34278   7.588   3.189   1.640 -2.6486 -0.7011 -3.4225
  995MOL0     H34279   7.836   3.259   1.645 -1.8893  0.1610  1.2534
  995MOL0     H34280   7.726   3.341   1.534  1.3683  0.0287 -1.4872
  995MOL0     H34281   7.813   3.222   1.339  0.1929 -0.9675 -0.2022
  995MOL0     H34282   7.921   3.136   1.451  0.5208 -0.1018 -1.8224
  995MOL0     H34283   8.006   3.355   1.521 -0.5727 -2.1616  1.2219
  995MOL0     H34284   7.929   3.430   1.380  0.8472  1.1947  1.9717
  995MOL0     H34285   8.184   3.154   1.172 -0.1292  0.0816 -0.1110
  995MOL0     H34286   8.289   2.956   1.069  3.3752 -0.9930 -1.3646
  995MOL0     H34287   8.447   2.965   1.140  0.2560  0.9840 -4.4215
  995MOL0     H34288   8.329   2.830   1.183 -0.8959  0.0405 -0.4548
  995MOL0     H34289   8.489   2.566   1.467  0.3830  0.9814  2.0408
  995MOL0     H34290   8.679   2.415   1.521 -1.6653 -0.0625 -0.0969
  995MOL0     H34291   9.033   2.482   1.279 -0.4128  1.3379  0.3948
  995MOL0     H34292   9.112   2.535   1.425 -0.0195  0.7862 -1.3581
  995MOL0     H34293   9.219   2.318   1.378  0.3404 -0.3554  0.2714
  995MOL0     H34294   9.121   2.306   1.517  1.3605  0.2659  1.2799
  995MOL0     H34295   8.930   2.196   1.371 -1.2294 -0.1402 -0.1472
  995MOL0     H34296   9.080   2.113   1.358 -1.4731 -0.4919  1.9219
  995MOL0     H34297   8.966   2.310   1.146  1.7697  1.7181  0.0486
  995MOL0     H34298   9.131   2.238   1.141 -0.9459  1.5331  0.7935
  995MOL0     H34299   8.994   2.127   0.988 -0.4368 -0.3628  0.3940
  995MOL0     H34300   8.868   2.116   1.117 -0.7746  2.6227 -4.0920
  995MOL0     H34301   9.017   1.901   1.051  3.1313  0.4485 -0.5800
  995MOL0     H34302   9.135   1.965   1.162  0.6599  0.9551 -0.2837
  995MOL0     H34303   8.830   1.905   1.232  0.7249  2.8439  2.4973
  995MOL0     H34304   8.960   1.907   1.346  1.2864 -0.9430  0.1225
  995MOL0     H34305   8.907   1.709   1.138  1.9342  0.7528 -1.4742
  995MOL0     H34306   8.906   1.691   1.315 -0.3062  1.5621  0.8235
  995MOL0     H34307   8.933   2.692   1.317 -0.6739 -1.2486 -1.2073
  995MOL0     H34308   8.732   2.853   1.299 -0.5589 -0.1953 -2.2474
  995MOL0     H34309   8.344   3.054   1.622  1.5506 -1.7599 -0.1640
  995MOL0     H34310   8.159   3.226   1.582 -0.2497 -0.0075 -0.6122
  995MOL0     H34311   8.726   2.023   1.966  0.5968  0.0778 -1.3541
  995MOL0     H34312   8.950   2.041   1.939  0.8030  0.3001 -0.4804
  995MOL0     H34313   9.342   2.173   2.053 -1.7045  1.6067 -1.4693
  995MOL0     H34314   9.592   2.137   2.018  0.0185  1.3168  0.7227
  995MOL0     H34315   9.758   2.245   1.625 -1.3644 -1.5158 -2.3691
  995MOL0     H34316   9.898   2.149   1.680 -0.7948  1.7040  1.6344
  995MOL0     H34317   9.650   2.029   1.562 -0.2949  1.5297 -0.8728
  995MOL0     H34318   9.803   1.936   1.618 -1.0209 -1.1006 -1.6458
  995MOL0     H34319   9.932   2.044   1.448  0.0428  1.1995  0.1889
  995MOL0     H34320   9.773   2.130   1.399 -2.9895 -2.8890 -1.1657
  995MOL0     H34321   9.731   1.943   1.278 -0.2610  0.3542  0.1872
  995MOL0     H34322   9.729   1.841   1.419 -1.2283 -1.2046 -3.1596
  995MOL0     H34323  10.108   1.750   1.246  0.8846  1.5245 -0.9216
  995MOL0     H34324   9.546   2.188   1.605  2.2097 -0.1862  0.1745
  995MOL0     H34325   9.291   2.226   1.631 -0.9893  0.4934  2.1906
  996MOL0     O34326  10.458  11.226   3.970 -0.6668  0.1901 -0.3007
  996MOL0     C34327  10.528  11.275   4.059 -1.1770 -0.0233 -0.6236
  996MOL0     O34328  10.500  11.285   4.193  0.4560  0.1665 -0.1508
  996MOL0     C34329  10.377  11.246   4.238  0.5571 -0.4711 -0.3548
  996MOL0     C34330  10.350  11.134   4.320  0.2303  0.4812 -0.2352
  996MOL0     C34331  10.220  11.091   4.363  0.3418 -0.2875  0.5337
  996MOL0     C34332  10.114  11.180   4.338  0.1707 -1.1422 -0.6404
  996MOL0     O34333   9.985  11.165   4.393 -0.1560  0.2719 -0.6692
  996MOL0     C34334   9.986  11.078   4.512 -0.1560  0.0551 -0.1201
  996MOL0     C34335   9.871  11.110   4.613 -0.3753  0.5890  0.4501
  996MOL0     C34336   9.730  11.073   4.538 -0.9416 -0.6916 -0.3160
  996MOL0     C34337   9.599  11.113   4.616 -0.1528  0.2077  0.1618
  996MOL0     C34338   9.480  11.045   4.553 -0.2657  0.3647 -0.4996
  996MOL0     C34339   9.358  11.055   4.657  0.3435 -0.5041  0.6454
  996MOL0     C34340   9.236  10.995   4.589  0.0953  0.3432  0.3143
  996MOL0     C34341   9.153  11.102   4.517  0.7613  0.3883 -1.1935
  996MOL0     N34342   9.022  11.055   4.465 -0.3229  0.6753  0.4441
  996MOL0     C34343   8.932  10.984   4.536 -0.9680  0.6548 -0.3250
  996MOL0     C34344   8.838  10.951   4.446  0.8278  0.2902 -0.3309
  996MOL0     C34345   8.716  10.856   4.473  0.8248  0.4438 -0.5038
  996MOL0     C34346   8.579  10.896   4.426  0.0834 -0.9508  0.6221
  996MOL0     C34347   8.476  10.894   4.531  0.2148 -0.5980  0.1195
  996MOL0     C34348   8.341  10.948   4.485 -0.6005  0.2247 -0.6907
  996MOL0     O34349   8.277  10.840   4.406 -0.2567 -0.6553  0.3360
  996MOL0     C34350   8.153  10.864   4.350 -0.2156  0.0639  0.2081
  996MOL0     C34351   8.100  10.990   4.337  0.0409  0.7088 -0.0985
  996MOL0     C34352   7.975  10.999   4.272 -0.1832 -0.3100 -0.0017
  996MOL0     C34353   7.925  11.136   4.244 -0.2807 -0.1489  0.4971
  996MOL0     C34354   7.900  10.886   4.224 -0.5997  0.1774 -0.1453
  996MOL0     C34355   7.762  10.899   4.164  0.2114  0.7887  0.1686
  996MOL0     O34356   7.677  10.995   4.213  0.2780  0.0344  0.0669
  996MOL0     C34357   7.553  11.015   4.167  0.8075  0.0317 -0.1218
  996MOL0     C34358   7.520  11.140   4.113  0.9923  0.0683  0.1723
  996MOL0     C34359   7.390  11.167   4.076  0.1880 -0.0360 -1.5631
  996MOL0     C34360   7.291  11.071   4.090 -0.2115  0.3291 -0.1050
  996MOL0     O34361   7.166  11.105   4.050 -1.0171  0.1325 -0.2983
  996MOL0     C34362   7.066  11.009   4.002 -0.4036  0.3566 -0.6395
  996MOL0     C34363   6.982  10.949   4.114 -0.0255  0.2051  0.0258
  996MOL0     C34364   6.854  10.870   4.076 -0.7130 -0.2791  0.3206
  996MOL0     C34365   6.733  10.935   4.019  0.6154 -0.2023 -0.5324
  996MOL0     C34366   6.636  10.972   4.127 -0.3680  0.0898  0.0231
  996MOL0     C34367   6.545  11.081   4.085  0.3386  0.3504 -0.7013
  996MOL0     C34368   6.435  11.026   3.989  0.3101 -0.0036  0.4386
  996MOL0     C34369   6.351  11.146   3.944 -0.7829  0.4913 -0.0462
  996MOL0    Cl34370   6.243  11.189   4.086 -0.0784  0.2623 -0.3361
  996MOL0     C34371   7.324  10.942   4.145 -0.4608 -1.0287  0.5856
  996MOL0     C34372   7.453  10.918   4.175  0.2925 -0.1021 -0.9944
  996MOL0     O34373   7.726  10.815   4.077 -0.0028 -0.1044 -0.7005
  996MOL0     C34374   7.964  10.766   4.228 -0.1851  0.1442 -0.2468
  996MOL0     C34375   8.084  10.750   4.299  0.2105 -0.3357  0.6212
  996MOL0     N34376   8.867  11.001   4.327 -1.1739 -0.2960  0.3939
  996MOL0     N34377   8.980  11.066   4.339 -0.4641 -0.1978 -0.0423
  996MOL0     C34378  10.137  11.291   4.261 -0.6151 -0.1049  0.1409
  996MOL0     C34379  10.268  11.333   4.211  0.0273  0.0442 -0.2431
  996MOL0     C34380  10.668  11.306   4.016 -0.6968  0.6287  0.4496
  996MOL0     C34381  10.762  11.363   4.103  0.9345 -0.2929 -1.3243
  996MOL0     C34382  10.887  11.403   4.065  0.4421  0.5817  0.1139
  996MOL0     C34383  10.935  11.366   3.935 -0.5161  0.5716  0.8203
  996MOL0     O34384  11.065  11.385   3.898 -0.1266 -0.2970  0.3039
  996MOL0     C34385  11.150  11.455   3.989 -1.3078 -0.2163  0.5688
  996MOL0     C34386  11.298  11.474   3.943 -0.3169 -0.8363  0.2866
  996MOL0     C34387  11.385  11.346   3.955  0.4519 -0.8109 -0.5034
  996MOL0     C34388  11.531  11.382   3.929  0.0664  0.7612  0.4145
  996MOL0     C34389  11.595  11.452   4.039 -0.5117 -0.3488 -0.6659
  996MOL0     C34390  11.662  11.510   4.127 -0.5735 -0.2849 -0.3055
  996MOL0     C34391  10.852  11.300   3.849 -0.3172  0.1735 -0.3327
  996MOL0     C34392  10.722  11.277   3.886  0.3513  0.6485  0.2675
  996MOL0     H34393  10.437  11.075   4.346  0.3336  0.7474  0.0304
  996MOL0     H34394  10.205  10.996   4.413 -0.1640 -0.9161 -0.7820
  996MOL0     H34395   9.987  10.970   4.492 -0.6592 -0.3824  1.9152
  996MOL0     H34396  10.080  11.082   4.569 -0.0271 -2.4134 -0.0257
  996MOL0     H34397   9.881  11.041   4.697 -2.2076 -0.7313 -0.3251
  996MOL0     H34398   9.871  11.216   4.638 -0.1070  0.7253 -0.1207
  996MOL0     H34399   9.735  11.137   4.448  1.3165 -1.5746 -0.8645
  996MOL0     H34400   9.720  10.970   4.502 -2.9921 -0.9638  0.8757
  996MOL0     H34401   9.613  11.082   4.720 -1.6170 -1.3096 -0.0573
  996MOL0     H34402   9.578  11.220   4.610 -1.0576  0.0233 -0.2110
  996MOL0     H34403   9.456  11.098   4.460 -2.6246  0.3961  0.0655
  996MOL0     H34404   9.493  10.938   4.532 -2.0215  0.1049 -0.4213
  996MOL0     H34405   9.369  10.995   4.748 -1.9716 -0.5291  0.9560
  996MOL0     H34406   9.348  11.159   4.691  0.5374 -0.5890  0.9683
  996MOL0     H34407   9.273  10.915   4.523  0.0655  0.2136  0.4532
  996MOL0     H34408   9.180  10.944   4.668  0.0564  1.0913  0.7744
  996MOL0     H34409   9.220  11.138   4.438  3.2822 -2.2388 -0.4048
  996MOL0     H34410   9.135  11.181   4.590  2.9636 -0.1570  0.0395
  996MOL0     H34411   8.952  10.950   4.637  1.7403  2.1657 -0.2692
  996MOL0     H34412   8.744  10.754   4.445 -0.4285 -0.4997  1.4513
  996MOL0     H34413   8.714  10.854   4.582 -0.2911  0.0542 -0.5129
  996MOL0     H34414   8.548  10.826   4.348  1.4194  0.8922 -1.7204
  996MOL0     H34415   8.590  10.993   4.375 -0.9458 -0.6611  0.9382
  996MOL0     H34416   8.511  10.954   4.615 -0.8987 -1.1326  0.9871
  996MOL0     H34417   8.451  10.799   4.578 -3.0455 -0.0879 -0.3377
  996MOL0     H34418   8.361  11.041   4.431  0.2548  0.0803 -0.6351
  996MOL0     H34419   8.289  10.976   4.578  1.2880  0.3245  0.3939
  996MOL0     H34420   8.135  11.077   4.392 -1.9145  1.9596 -0.7515
  996MOL0     H34421   8.001  11.215   4.249 -1.6218  1.1561  0.8894
  996MOL0     H34422   7.881  11.135   4.144 -0.8143 -1.3517  0.7322
  996MOL0     H34423   7.847  11.166   4.315 -1.9174  1.2506 -1.7576
  996MOL0     H34424   7.591  11.223   4.109 -1.1367  1.9251 -2.5941
  996MOL0     H34425   7.366  11.266   4.038  1.5689  0.5081 -1.1076
  996MOL0     H34426   6.998  11.069   3.941 -0.2219  3.8772  2.3401
  996MOL0     H34427   7.116  10.935   3.938 -1.6867 -0.0229 -1.2305
  996MOL0     H34428   7.050  10.875   4.158  1.2523  2.7426  2.6457
  996MOL0     H34429   6.957  11.025   4.188  0.2957 -1.5957  2.0978
  996MOL0     H34430   6.832  10.803   4.160  0.6020 -0.7332  0.3280
  996MOL0     H34431   6.887  10.805   3.994  1.1179  2.6771 -1.4635
  996MOL0     H34432   6.755  11.026   3.962 -4.4569  0.9414 -1.1538
  996MOL0     H34433   6.689  10.860   3.954 -0.0718  0.0249 -0.3457
  996MOL0     H34434   6.687  11.009   4.217 -0.7481 -0.7329  0.5901
  996MOL0     H34435   6.574  10.887   4.156  0.1210  0.2956  1.8284
  996MOL0     H34436   6.497  11.114   4.178 -3.6282  0.5426 -2.6232
  996MOL0     H34437   6.604  11.165   4.047  1.3206 -0.5242 -1.1595
  996MOL0     H34438   6.378  10.945   4.035  2.4753 -1.8276  0.0979
  996MOL0     H34439   6.489  10.987   3.902  1.0257  0.7434  0.5327
  996MOL0     H34440   6.290  11.125   3.856 -0.3467 -2.2302  0.2260
  996MOL0     H34441   6.411  11.234   3.921 -4.6413  3.9440  1.6736
  996MOL0     H34442   7.251  10.863   4.160 -0.1724 -1.0858  1.8125
  996MOL0     H34443   7.492  10.823   4.209  2.4944  0.5133 -1.6163
  996MOL0     H34444   7.910  10.679   4.193  0.1446 -0.1082 -0.1254
  996MOL0     H34445   8.128  10.651   4.314 -3.9866 -2.4277  0.4109
  996MOL0     H34446  10.044  11.339   4.234 -1.4554 -1.2279  0.9340
  996MOL0     H34447  10.267  11.425   4.153  0.4056 -0.8392 -1.7199
  996MOL0     H34448  10.732  11.376   4.207  2.3331  4.9094 -1.2874
  996MOL0     H34449  10.943  11.469   4.131  0.9253  0.1047  0.1852
  996MOL0     H34450  11.114  11.559   3.989  2.9537  1.5020  2.1008
  996MOL0     H34451  11.151  11.421   4.093  1.1526  0.2963  0.7742
  996MOL0     H34452  11.334  11.560   4.000 -1.5533  0.2417 -0.4969
  996MOL0     H34453  11.300  11.516   3.842 -2.4569  1.7979  1.2134
  996MOL0     H34454  11.344  11.261   3.900 -1.7394 -0.1472 -0.0293
  996MOL0     H34455  11.375  11.319   4.060  1.5662 -1.8904 -0.6668
  996MOL0     H34456  11.539  11.449   3.842  1.4723  2.4680  1.7678
  996MOL0     H34457  11.578  11.285   3.911 -1.4215 -0.0911  0.9480
  996MOL0     H34458  11.725  11.552   4.203  0.2945 -0.4660 -0.8981
  996MOL0     H34459  10.882  11.279   3.747 -0.1962 -1.6341  0.0304
  996MOL0     H34460  10.652  11.226   3.821  0.6274  1.6211 -0.8161
  997MOL0     O34461   7.770   0.903   6.932 -0.6901  0.2870  0.7697
  997MOL0     C34462   7.799   0.786   6.941  0.4416 -0.1547  0.2629
  997MOL0     O34463   7.716   0.682   6.913  0.2373  0.7161  0.0700
  997MOL0     C34464   7.601   0.713   6.849 -0.0252 -0.7358 -0.3708
  997MOL0     C34465   7.595   0.755   6.716  0.1413  0.5664 -0.5418
  997MOL0     C34466   7.476   0.792   6.660 -0.2720  0.1082  0.0426
  997MOL0     C34467   7.361   0.787   6.736 -0.3383 -0.0795  0.8899
  997MOL0     O34468   7.230   0.818   6.690 -0.1238  0.0715  0.0420
  997MOL0     C34469   7.202   0.893   6.565 -0.2491 -0.2909  0.4641
  997MOL0     C34470   7.148   0.796   6.463  0.4506  1.7006 -0.0753
  997MOL0     C34471   7.015   0.742   6.509 -0.6966  0.1525  0.5743
  997MOL0     C34472   6.923   0.667   6.413 -1.0860  0.0406  1.2877
  997MOL0     C34473   6.997   0.546   6.344 -0.4571  0.7012  0.9586
  997MOL0     C34474   6.905   0.474   6.244 -0.2886  0.0511 -0.0761
  997MOL0     C34475   6.786   0.411   6.315 -0.2118  0.0922  0.2629
  997MOL0     C34476   6.707   0.329   6.212  0.4426  0.6729  0.4587
  997MOL0     N34477   6.577   0.292   6.265 -1.0575 -0.1372  0.0826
  997MOL0     C34478   6.455   0.346   6.223  0.2693 -0.4883 -0.7594
  997MOL0     C34479   6.358   0.284   6.294 -0.3115  0.3420 -0.2118
  997MOL0     C34480   6.209   0.317   6.299  0.4154  0.3095  0.3397
  997MOL0     C34481   6.160   0.390   6.418  0.1827 -0.1294  0.4023
  997MOL0     C34482   6.012   0.370   6.448 -0.4056 -0.4343 -1.2280
  997MOL0     C34483   5.912   0.361   6.337  0.7116  0.1589  0.0574
  997MOL0     O34484   5.797   0.415   6.396 -0.5670 -0.5386 -0.1844
  997MOL0     C34485   5.672   0.402   6.341  0.0744 -0.1233 -0.4495
  997MOL0     C34486   5.646   0.319   6.232 -0.0178  0.4993  0.4204
  997MOL0     C34487   5.518   0.301   6.174 -0.4151 -0.4689 -0.2247
  997MOL0     C34488   5.479   0.214   6.061  0.1679 -0.2028  0.9027
  997MOL0     C34489   5.407   0.375   6.231 -0.1353 -0.5927  0.1419
  997MOL0     C34490   5.264   0.356   6.200 -0.3936 -0.3903  0.1168
  997MOL0     O34491   5.211   0.469   6.147  0.5377  0.3116 -0.1305
  997MOL0     C34492   5.098   0.467   6.062 -0.1377  0.7798 -0.5771
  997MOL0     C34493   5.060   0.591   6.032  0.3351 -0.6374 -0.2191
  997MOL0     C34494   4.948   0.621   5.957  0.1864 -0.0467 -0.4921
  997MOL0     C34495   4.881   0.515   5.896  0.8095  0.7383  1.1294
  997MOL0     O34496   4.774   0.527   5.813  0.2983  0.5851 -0.2123
  997MOL0     C34497   4.718   0.654   5.778 -0.1614  0.9509  0.0385
  997MOL0     C34498   4.599   0.641   5.693  0.7986 -0.1155  0.9931
  997MOL0     C34499   4.575   0.773   5.613  0.3532 -0.6718  0.2559
  997MOL0     C34500   4.613   0.905   5.691 -0.2509  0.6823 -0.4633
  997MOL0     C34501   4.560   1.022   5.615 -0.1375  0.6063  0.4737
  997MOL0     C34502   4.559   1.143   5.706  0.0375  0.1009 -0.8371
  997MOL0     C34503   4.526   1.280   5.634 -0.4284  0.4603 -0.8271
  997MOL0     C34504   4.624   1.317   5.527 -0.3215  0.3544  0.0749
  997MOL0    Cl34505   4.574   1.483   5.464 -0.1196 -0.2301 -0.5781
  997MOL0     C34506   4.928   0.379   5.912 -0.4794  0.5448  0.1985
  997MOL0     C34507   5.032   0.359   5.998 -0.2164  0.9197  0.2867
  997MOL0     O34508   5.204   0.246   6.214 -0.3136  0.1885 -0.8673
  997MOL0     C34509   5.427   0.460   6.341  0.3152 -0.4372  0.3102
  997MOL0     C34510   5.559   0.464   6.390 -0.3201 -0.0633 -0.7102
  997MOL0     N34511   6.427   0.189   6.374 -0.5858  0.9401 -0.3892
  997MOL0     N34512   6.556   0.195   6.357  0.4645  0.3807  0.7388
  997MOL0     C34513   7.369   0.751   6.866  0.0205 -0.3299 -0.2878
  997MOL0     C34514   7.485   0.709   6.923  0.2745  0.2642 -0.1985
  997MOL0     C34515   7.922   0.748   7.004 -0.3618  0.3918  0.6115
  997MOL0     C34516   8.017   0.844   7.035 -0.7216 -0.1110  0.5926
  997MOL0     C34517   8.141   0.807   7.110  1.0119 -0.8650  0.2095
  997MOL0     C34518   8.150   0.677   7.151  0.6425  0.6344 -1.1450
  997MOL0     O34519   8.267   0.647   7.223  0.4970  0.1858 -0.3963
  997MOL0     C34520   8.285   0.519   7.293 -0.3101  0.1175  0.2295
  997MOL0     C34521   8.422   0.525   7.361 -0.1127 -1.0258  0.4297
  997MOL0     C34522   8.462   0.390   7.420  0.0268  0.6108 -0.6859
  997MOL0     C34523   8.599   0.397   7.480 -0.4554 -0.4647 -0.0095
  997MOL0     C34524   8.637   0.259   7.527  0.1333 -0.1480  0.1749
  997MOL0     C34525   8.663   0.150   7.576  0.2852  0.2318 -0.1273
  997MOL0     C34526   8.051   0.585   7.119  0.3431  0.5358  0.1857
  997MOL0     C34527   7.936   0.613   7.050  0.2141 -0.0978 -0.0453
  997MOL0     H34528   7.688   0.743   6.663  0.5026  1.1213 -0.0441
  997MOL0     H34529   7.471   0.815   6.554  0.1748  0.6665  0.1385
  997MOL0     H34530   7.128   0.969   6.587 -3.1622 -2.5476 -0.8209
  997MOL0     H34531   7.282   0.945   6.511 -0.6216 -0.4499 -0.2608
  997MOL0     H34532   7.144   0.838   6.363  4.7995  0.6587 -0.8722
  997MOL0     H34533   7.215   0.710   6.449 -0.0750  1.3624 -0.5590
  997MOL0     H34534   7.047   0.682   6.595  1.5475  2.0164  1.1198
  997MOL0     H34535   6.950   0.822   6.545 -3.5841 -1.3411 -0.9442
  997MOL0     H34536   6.834   0.631   6.467 -0.2628  0.3010  2.8923
  997MOL0     H34537   6.893   0.740   6.338  3.6813  1.3759  0.3827
  997MOL0     H34538   7.083   0.592   6.294 -1.9130  0.8286 -1.6284
  997MOL0     H34539   7.043   0.472   6.409 -2.3643 -1.9168 -0.4796
  997MOL0     H34540   6.869   0.544   6.168 -0.6100 -0.5542 -0.4894
  997MOL0     H34541   6.966   0.400   6.193 -0.1428 -0.1143  0.3302
  997MOL0     H34542   6.830   0.350   6.395  4.3268 -0.0219 -1.9979
  997MOL0     H34543   6.720   0.484   6.363  0.3569  0.7803  0.0149
  997MOL0     H34544   6.770   0.243   6.188  1.3432  1.4096  0.0843
  997MOL0     H34545   6.689   0.367   6.111  1.8369  1.4648  0.4636
  997MOL0     H34546   6.443   0.431   6.156 -0.6882  1.1048  1.3054
  997MOL0     H34547   6.191   0.372   6.206  0.8346 -1.0663 -0.5852
  997MOL0     H34548   6.160   0.220   6.296 -1.5497  1.2710  0.2424
  997MOL0     H34549   6.191   0.494   6.407  1.5891 -0.6441 -0.6971
  997MOL0     H34550   6.209   0.355   6.509  0.8941 -1.4611 -0.4540
  997MOL0     H34551   5.986   0.446   6.523  0.5542 -1.2629 -0.0116
  997MOL0     H34552   6.011   0.271   6.496  0.0053 -1.2825 -2.9129
  997MOL0     H34553   5.893   0.257   6.307  0.3366  0.4314 -0.6739
  997MOL0     H34554   5.951   0.414   6.250 -2.0370  1.7352 -0.3157
  997MOL0     H34555   5.727   0.269   6.179  0.3033 -1.0070  2.2110
  997MOL0     H34556   5.420   0.128   6.093  0.4658 -0.9092 -0.3729
  997MOL0     H34557   5.438   0.288   5.991  1.4542  0.1923  0.5453
  997MOL0     H34558   5.569   0.178   6.012  1.4659 -0.1982  3.1633
  997MOL0     H34559   5.127   0.670   6.065  0.5143 -0.1812 -1.6129
  997MOL0     H34560   4.910   0.721   5.940 -2.3598 -0.8241  0.1528
  997MOL0     H34561   4.691   0.724   5.858 -2.6753  0.1258  0.0098
  997MOL0     H34562   4.791   0.697   5.710  0.0134 -1.6645 -1.5808
  997MOL0     H34563   4.619   0.559   5.624  3.1144 -1.4944  3.1380
  997MOL0     H34564   4.511   0.613   5.751 -0.3933  0.9885 -0.2195
  997MOL0     H34565   4.467   0.779   5.597  0.4647  0.7386 -0.1170
  997MOL0     H34566   4.629   0.771   5.518  0.0336 -0.5831  0.0717
  997MOL0     H34567   4.567   0.900   5.790  0.0007 -0.7963 -0.4107
  997MOL0     H34568   4.719   0.925   5.706 -0.3222  0.0980  0.9728
  997MOL0     H34569   4.460   1.000   5.576  0.9765 -1.6693 -1.3325
  997MOL0     H34570   4.627   1.024   5.529 -0.2327  0.5702  0.3980
  997MOL0     H34571   4.494   1.135   5.793 -1.6139  0.5146 -1.9811
  997MOL0     H34572   4.661   1.158   5.742 -0.2199  0.4611 -0.2406
  997MOL0     H34573   4.537   1.354   5.714 -1.0080 -0.9442  0.6221
  997MOL0     H34574   4.423   1.282   5.598  0.2029  0.4488 -2.7744
  997MOL0     H34575   4.617   1.245   5.445  0.6983 -0.6550  0.8353
  997MOL0     H34576   4.729   1.315   5.561  0.6724  0.9258 -2.6954
  997MOL0     H34577   4.879   0.297   5.862  0.7770 -0.3310  0.3390
  997MOL0     H34578   5.067   0.257   6.008 -0.6784  0.7950  0.6916
  997MOL0     H34579   5.342   0.513   6.382  0.6651 -0.0508  0.5369
  997MOL0     H34580   5.577   0.527   6.477  2.2864 -0.0673 -1.1773
  997MOL0     H34581   7.270   0.759   6.909 -0.9447  2.7509 -2.7213
  997MOL0     H34582   7.494   0.684   7.028  0.1653  0.3192 -0.1767
  997MOL0     H34583   8.004   0.944   6.993  0.0186 -1.2686 -2.6911
  997MOL0     H34584   8.218   0.880   7.134  2.0418 -2.1813  1.0387
  997MOL0     H34585   8.203   0.521   7.366 -0.2404  0.7400  0.2964
  997MOL0     H34586   8.282   0.437   7.221 -2.0000  0.7107 -0.4278
  997MOL0     H34587   8.439   0.600   7.438  0.5396 -1.2040  0.4688
  997MOL0     H34588   8.492   0.550   7.280 -1.7241 -1.6234 -1.2129
  997MOL0     H34589   8.445   0.311   7.346 -2.2848 -0.7572  1.1445
  997MOL0     H34590   8.401   0.360   7.506 -0.1590  4.2570  0.6466
  997MOL0     H34591   8.591   0.468   7.563  0.8934 -0.2826 -0.0095
  997MOL0     H34592   8.681   0.438   7.420  0.2365 -0.8900  0.6158
  997MOL0     H34593   8.680   0.059   7.630 -2.1222  0.5900  1.3858
  997MOL0     H34594   8.052   0.485   7.161 -2.0736  0.3441 -0.0388
  997MOL0     H34595   7.867   0.530   7.038  1.9739 -1.6239 -0.0982
  998MOL0     O34596   7.988   4.897   3.152  0.2771  0.4329  1.1568
  998MOL0     C34597   8.003   4.823   3.053 -0.0952  0.0629  0.6573
  998MOL0     O34598   7.908   4.759   2.985  0.0999  0.5945 -0.9333
  998MOL0     C34599   7.772   4.772   3.011 -0.2184 -0.1818  1.0000
  998MOL0     C34600   7.715   4.853   3.107  0.5213 -0.7014 -0.5060
  998MOL0     C34601   7.573   4.862   3.107 -0.0735 -0.1922  0.4540
  998MOL0     C34602   7.486   4.796   3.020  0.6160 -0.1463 -0.4054
  998MOL0     O34603   7.351   4.830   3.015 -0.0231  0.2002 -0.7433
  998MOL0     C34604   7.257   4.717   2.991 -1.3297 -0.0102  0.0781
  998MOL0     C34605   7.121   4.752   3.035  0.2772  0.6572 -0.1909
  998MOL0     C34606   7.024   4.642   2.990 -0.8174  0.2045 -0.5689
  998MOL0     C34607   6.891   4.674   3.050  0.1247  0.5604 -0.3808
  998MOL0     C34608   6.796   4.550   3.044 -0.0204  0.8142  0.9003
  998MOL0     C34609   6.777   4.483   2.903  0.7221  0.4477 -0.0008
  998MOL0     C34610   6.703   4.580   2.817 -0.2658 -0.3371 -0.2837
  998MOL0     C34611   6.558   4.589   2.851  0.2911 -0.1222 -0.0108
  998MOL0     N34612   6.490   4.625   2.730 -0.2295  0.5298  1.0036
  998MOL0     C34613   6.496   4.748   2.675  0.0054 -0.2683  1.0230
  998MOL0     C34614   6.432   4.735   2.554  0.7283 -0.2524  0.8077
  998MOL0     C34615   6.408   4.856   2.469  0.5835 -0.0127  0.1174
  998MOL0     C34616   6.261   4.906   2.495 -0.7867 -0.2194 -1.0545
  998MOL0     C34617   6.157   4.813   2.442  0.2119  0.1415  0.4323
  998MOL0     C34618   6.021   4.890   2.419  0.1428 -0.5469  0.2840
  998MOL0     O34619   5.924   4.797   2.373  0.1801  0.1983  0.0674
  998MOL0     C34620   5.789   4.817   2.393 -0.1461 -0.1568  0.4008
  998MOL0     C34621   5.742   4.940   2.439  0.2434 -0.8407  0.4753
  998MOL0     C34622   5.610   4.970   2.475 -0.0004  0.3054 -0.1564
  998MOL0     C34623   5.574   5.115   2.517 -0.6215 -0.3766  0.8018
  998MOL0     C34624   5.518   4.862   2.480 -0.3236  0.9652 -0.3043
  998MOL0     C34625   5.377   4.872   2.528  0.5140  0.3718 -0.4372
  998MOL0     O34626   5.290   4.772   2.491 -0.3687 -0.1602 -0.1577
  998MOL0     C34627   5.176   4.753   2.565  0.5355 -1.4870  0.4012
  998MOL0     C34628   5.060   4.724   2.496 -0.0847  0.3793  0.3506
  998MOL0     C34629   4.931   4.713   2.555 -0.6780  0.9870  0.5842
  998MOL0     C34630   4.914   4.724   2.692  0.4838 -0.6422  0.5652
  998MOL0     O34631   4.796   4.718   2.751  0.6023 -0.3520 -0.6571
  998MOL0     C34632   4.670   4.695   2.681  0.0831 -0.2568 -0.4113
  998MOL0     C34633   4.558   4.691   2.783  0.4228  0.1506  0.3869
  998MOL0     C34634   4.576   4.814   2.878 -0.9648 -0.8808 -0.1563
  998MOL0     C34635   4.451   4.844   2.953  0.3241  0.5952  0.4625
  998MOL0     C34636   4.458   4.946   3.063  0.4926 -0.4813 -0.4227
  998MOL0     C34637   4.538   4.891   3.185  0.0658  0.5123 -0.9275
  998MOL0     C34638   4.505   4.982   3.301 -0.0573  0.2616 -0.1996
  998MOL0     C34639   4.562   4.921   3.425  0.9914 -0.0257 -0.8038
  998MOL0    Cl34640   4.463   4.988   3.570 -0.0539 -0.2957 -0.0752
  998MOL0     C34641   5.028   4.765   2.765 -0.2059 -0.0475  0.7515
  998MOL0     C34642   5.154   4.783   2.706 -0.6529 -0.3050  1.0806
  998MOL0     O34643   5.353   4.974   2.597  0.8927 -0.6358  0.1982
  998MOL0     C34644   5.562   4.742   2.424  0.2294 -0.1931 -0.0920
  998MOL0     C34645   5.691   4.723   2.374  0.5161  0.3439 -0.1734
  998MOL0     N34646   6.389   4.606   2.541  0.7722  0.0402  0.2299
  998MOL0     N34647   6.420   4.540   2.647  0.0973  0.8260  0.1416
  998MOL0     C34648   7.545   4.705   2.927 -0.7984  0.1919 -1.5304
  998MOL0     C34649   7.688   4.712   2.915 -0.1196 -0.1881  0.2044
  998MOL0     C34650   8.138   4.791   3.007 -0.0821  0.3194  0.4588
  998MOL0     C34651   8.249   4.783   3.102 -0.2677 -0.1037  0.1462
  998MOL0     C34652   8.378   4.750   3.069  0.5430  0.7597 -0.2103
  998MOL0     C34653   8.401   4.698   2.943 -0.4959  0.0709 -0.1353
  998MOL0     O34654   8.529   4.658   2.900  0.1679 -0.1529 -0.1556
  998MOL0     C34655   8.641   4.651   2.987 -0.3064  0.1786 -0.3594
  998MOL0     C34656   8.769   4.590   2.927 -0.0873 -0.2277 -0.3765
  998MOL0     C34657   8.735   4.512   2.793 -0.1752 -0.8606 -0.5366
  998MOL0     C34658   8.858   4.466   2.709 -0.1383  0.6739 -0.4260
  998MOL0     C34659   8.916   4.586   2.636  0.4338  0.5035  0.0589
  998MOL0     C34660   8.975   4.666   2.580 -0.3522 -1.1278  0.2060
  998MOL0     C34661   8.299   4.687   2.849 -0.1298 -0.0560 -0.1745
  998MOL0     C34662   8.172   4.743   2.872  0.6770  0.1565  0.1385
  998MOL0     H34663   7.763   4.920   3.176  0.6879 -0.8929 -0.4344
  998MOL0     H34664   7.514   4.923   3.174 -0.6773 -2.1178  1.7460
  998MOL0     H34665   7.254   4.679   2.889 -0.3479 -3.7867  1.2860
  998MOL0     H34666   7.293   4.634   3.053  0.9275  1.4052  0.7906
  998MOL0     H34667   7.124   4.753   3.145  0.3172 -1.0980 -0.1426
  998MOL0     H34668   7.101   4.851   2.993  2.3177  0.6792 -1.2085
  998MOL0     H34669   7.032   4.632   2.881  0.9597 -2.6115 -0.2698
  998MOL0     H34670   7.055   4.545   3.029 -2.4694 -2.0502 -4.3104
  998MOL0     H34671   6.910   4.702   3.154 -3.1516 -1.8844  1.0389
  998MOL0     H34672   6.847   4.763   3.003 -1.3290  0.5988  0.9907
  998MOL0     H34673   6.839   4.473   3.107  0.1435  0.2182  0.0730
  998MOL0     H34674   6.699   4.577   3.088  0.2555  0.5485  1.6699
  998MOL0     H34675   6.867   4.459   2.846  0.2144 -1.1427 -0.1856
  998MOL0     H34676   6.721   4.389   2.908  3.3018 -1.2702 -1.1078
  998MOL0     H34677   6.738   4.682   2.835 -0.0291 -0.5954  0.7872
  998MOL0     H34678   6.722   4.546   2.714 -0.4365 -1.4158  0.0284
  998MOL0     H34679   6.545   4.670   2.923 -1.1212  0.7008 -1.1238
  998MOL0     H34680   6.509   4.501   2.895 -2.5969  1.8174  0.9312
  998MOL0     H34681   6.524   4.844   2.718  1.3376 -0.5292  0.7841
  998MOL0     H34682   6.485   4.933   2.474  1.0700 -0.1299 -3.4161
  998MOL0     H34683   6.414   4.818   2.367 -2.0289 -0.9605  0.2451
  998MOL0     H34684   6.244   5.003   2.448  1.4125  0.9508  0.3624
  998MOL0     H34685   6.246   4.927   2.601 -3.1030 -0.2482 -1.3420
  998MOL0     H34686   6.145   4.738   2.520  0.7817  1.1179  1.4758
  998MOL0     H34687   6.186   4.770   2.346  3.5006 -0.3390  1.5395
  998MOL0     H34688   6.034   4.978   2.355 -1.3376  1.0966  2.1052
  998MOL0     H34689   5.990   4.921   2.520 -0.2509 -2.4768  0.8117
  998MOL0     H34690   5.808   5.024   2.460 -1.1983 -0.5088  4.4764
  998MOL0     H34691   5.473   5.144   2.489 -0.1460  1.2069  0.6071
  998MOL0     H34692   5.580   5.109   2.626 -0.5454 -1.0872  0.7667
  998MOL0     H34693   5.654   5.182   2.482  1.1343 -2.7364  0.0042
  998MOL0     H34694   5.070   4.702   2.390  1.2791  1.0256  0.3271
  998MOL0     H34695   4.853   4.661   2.499  0.0976  0.5342 -0.0957
  998MOL0     H34696   4.649   4.773   2.607  0.1795 -0.3518 -0.5398
  998MOL0     H34697   4.676   4.599   2.629  0.8167 -0.9373  0.8690
  998MOL0     H34698   4.465   4.685   2.725  1.2405 -0.7767 -0.8921
  998MOL0     H34699   4.562   4.593   2.830  1.3219 -1.2831 -2.4058
  998MOL0     H34700   4.605   4.906   2.826 -4.1042  1.1387  1.3973
  998MOL0     H34701   4.655   4.786   2.947 -2.4117 -1.9244  1.1468
  998MOL0     H34702   4.380   4.889   2.883  1.4722  3.0711  0.7894
  998MOL0     H34703   4.416   4.746   2.989  4.9543 -1.7923 -0.7206
  998MOL0     H34704   4.351   4.962   3.080  0.2145 -0.2940 -2.1210
  998MOL0     H34705   4.506   5.038   3.029  0.5262  0.1245  1.2138
  998MOL0     H34706   4.497   4.791   3.202 -1.8337  1.1768 -1.3861
  998MOL0     H34707   4.647   4.892   3.172  0.1665  1.5057 -0.1121
  998MOL0     H34708   4.397   4.995   3.312  0.0122 -0.0186  0.9416
  998MOL0     H34709   4.545   5.083   3.286 -3.3443  1.8137  0.5042
  998MOL0     H34710   4.668   4.945   3.430  1.4124 -1.9796  1.6817
  998MOL0     H34711   4.551   4.812   3.421 -1.8286  0.2308 -2.6510
  998MOL0     H34712   5.022   4.787   2.871 -1.1055 -2.7476  1.3307
  998MOL0     H34713   5.238   4.819   2.765 -0.6225 -0.9155  1.4253
  998MOL0     H34714   5.494   4.657   2.430 -0.2260 -0.0748 -2.4435
  998MOL0     H34715   5.718   4.622   2.343  0.5196  0.7533 -1.5837
  998MOL0     H34716   7.487   4.640   2.863 -1.3012 -3.1179  1.8915
  998MOL0     H34717   7.740   4.667   2.831 -4.1010 -3.5805 -0.8030
  998MOL0     H34718   8.225   4.800   3.207  1.1012 -2.5926  0.9492
  998MOL0     H34719   8.455   4.755   3.145 -0.5253  0.1592  0.9467
  998MOL0     H34720   8.660   4.746   3.038  1.2539 -0.2774 -0.0365
  998MOL0     H34721   8.607   4.587   3.069 -2.0395 -0.6230 -1.6410
  998MOL0     H34722   8.820   4.521   2.994 -2.4194 -0.5003  1.2156
  998MOL0     H34723   8.828   4.681   2.910 -0.7503  0.3814  0.4999
  998MOL0     H34724   8.660   4.563   2.732  0.2539 -0.2225 -0.5408
  998MOL0     H34725   8.682   4.423   2.827 -2.7718  0.2167 -1.5273
  998MOL0     H34726   8.836   4.385   2.639  2.2972  0.5475 -1.1575
  998MOL0     H34727   8.927   4.415   2.779  0.1384  1.6102 -0.0063
  998MOL0     H34728   9.044   4.739   2.540  1.7413 -1.5164  2.8536
  998MOL0     H34729   8.336   4.655   2.752  1.3313  0.6551  0.1144
  998MOL0     H34730   8.107   4.747   2.786  1.2482  0.2385 -0.2890
  999MOL0     O34731   5.176   3.690   3.515  0.3240 -0.4087 -0.0138
  999MOL0     C34732   5.224   3.584   3.491  0.0812  0.3716  0.0133
  999MOL0     O34733   5.162   3.466   3.480 -0.1576  0.8787 -0.3815
  999MOL0     C34734   5.029   3.463   3.507 -0.1082  0.0207  0.1819
  999MOL0     C34735   4.933   3.478   3.400  0.2390  0.2066  0.0920
  999MOL0     C34736   4.793   3.472   3.428  0.6851 -0.7413 -0.2507
  999MOL0     C34737   4.748   3.420   3.550 -0.0119 -0.2177 -0.1842
  999MOL0     O34738   4.613   3.405   3.570 -0.1258  0.3566  0.7396
  999MOL0     C34739   4.568   3.420   3.706 -0.7080 -0.0628 -0.6908
  999MOL0     C34740   4.422   3.442   3.696 -0.2097  1.3285 -0.5420
  999MOL0     C34741   4.354   3.453   3.833  0.0889  0.3450  0.4969
  999MOL0     C34742   4.202   3.455   3.820 -0.0262  0.9683  0.0260
  999MOL0     C34743   4.150   3.462   3.958  0.3984 -0.0989  0.3913
  999MOL0     C34744   3.997   3.493   3.968 -0.0155 -0.8567  0.4921
  999MOL0     C34745   3.915   3.386   3.887 -0.5580  0.4015 -0.0923
  999MOL0     C34746   3.770   3.411   3.893  0.3682  0.0436 -0.7615
  999MOL0     N34747   3.719   3.446   4.025  0.6027 -0.7971 -0.2052
  999MOL0     C34748   3.739   3.396   4.155 -0.0108 -0.0412  0.0180
  999MOL0     C34749   3.671   3.486   4.237  0.5343 -0.1559  0.0692
  999MOL0     C34750   3.666   3.495   4.387  0.2414  0.0070 -0.2910
  999MOL0     C34751   3.523   3.482   4.431  0.5377 -0.3737 -0.7082
  999MOL0     C34752   3.513   3.469   4.585 -0.1354  0.2086 -0.0939
  999MOL0     C34753   3.366   3.444   4.624  0.1010  0.5641  0.1003
  999MOL0     O34754   3.340   3.443   4.767 -0.1365  0.8816  0.2129
  999MOL0     C34755   3.213   3.400   4.803 -0.1988 -0.1681  0.3370
  999MOL0     C34756   3.105   3.354   4.722 -0.0059  0.0726  0.0610
  999MOL0     C34757   2.983   3.311   4.784 -0.1107  0.6187  0.0325
  999MOL0     C34758   2.882   3.237   4.700 -0.5736 -0.4639  0.2609
  999MOL0     C34759   2.966   3.309   4.924  0.6682 -0.2634  0.0910
  999MOL0     C34760   2.842   3.272   4.995  1.2800 -0.0133 -0.7485
  999MOL0     O34761   2.842   3.293   5.136 -0.2358  0.2203 -0.3794
  999MOL0     C34762   2.731   3.245   5.198 -0.2939  0.2964  0.7435
  999MOL0     C34763   2.717   3.108   5.236  0.4118  0.7616 -0.2069
  999MOL0     C34764   2.590   3.058   5.285 -0.6196 -0.5160 -0.5658
  999MOL0     C34765   2.484   3.150   5.307  0.2976  0.1394 -0.0639
  999MOL0     O34766   2.368   3.115   5.361  0.2987 -0.3956 -0.4298
  999MOL0     C34767   2.314   2.997   5.299 -0.1543  0.0793 -0.3338
  999MOL0     C34768   2.183   2.967   5.367 -0.3382  0.6600  0.3088
  999MOL0     C34769   2.089   2.876   5.280 -0.8260  0.8106  0.2397
  999MOL0     C34770   1.952   2.873   5.335 -1.1510 -0.5410  0.6167
  999MOL0     C34771   1.868   2.754   5.281  0.3411  0.0114  0.3155
  999MOL0     C34772   1.745   2.738   5.365 -0.3930  0.2093 -0.1370
  999MOL0     C34773   1.635   2.647   5.316 -0.2482  0.4702  0.1186
  999MOL0     C34774   1.555   2.701   5.200  0.2725  0.9540  0.5723
  999MOL0    Cl34775   1.460   2.852   5.230  0.0381  0.1942 -0.1127
  999MOL0     C34776   2.497   3.280   5.266  0.3320  0.0343  0.2800
  999MOL0     C34777   2.620   3.330   5.219  0.2568 -0.0335 -0.8851
  999MOL0     O34778   2.740   3.240   4.938  0.5145  0.2805 -0.1664
  999MOL0     C34779   3.072   3.371   4.995  0.4182 -0.2127  0.2627
  999MOL0     C34780   3.193   3.410   4.944 -0.4713 -0.0240 -0.5784
  999MOL0     N34781   3.615   3.584   4.157 -0.7497  0.5505 -0.5754
  999MOL0     N34782   3.650   3.567   4.031  0.4505 -0.2272  0.4264
  999MOL0     C34783   4.845   3.399   3.652  0.7934 -0.5801  0.5281
  999MOL0     C34784   4.979   3.416   3.632 -0.5257 -0.4374 -0.0955
  999MOL0     C34785   5.369   3.588   3.454  0.2638  0.0208 -0.0159
  999MOL0     C34786   5.428   3.711   3.417  0.2007 -0.6951 -0.0969
  999MOL0     C34787   5.564   3.713   3.392 -0.7084  0.3757  1.0141
  999MOL0     C34788   5.640   3.593   3.380 -0.3101  0.1189 -0.3465
  999MOL0     O34789   5.773   3.588   3.342  0.0452  0.0182 -0.7322
  999MOL0     C34790   5.851   3.706   3.343 -0.1739  0.0085  0.0434
  999MOL0     C34791   5.987   3.665   3.297 -0.2107 -0.2798  0.3042
  999MOL0     C34792   5.991   3.612   3.152  0.2298  0.9844  0.6114
  999MOL0     C34793   6.132   3.619   3.086 -0.1986  0.0539  0.0101
  999MOL0     C34794   6.240   3.539   3.147  0.5067 -0.3785  0.0475
  999MOL0     C34795   6.327   3.474   3.202  0.4558  0.3064  0.6635
  999MOL0     C34796   5.582   3.473   3.420  0.0237  0.0017 -0.1967
  999MOL0     C34797   5.445   3.474   3.455 -0.7319 -0.1754  0.1503
  999MOL0     H34798   4.961   3.510   3.300  0.6122 -0.2124  0.0626
  999MOL0     H34799   4.720   3.494   3.351 -0.4424 -0.2730  0.9187
  999MOL0     H34800   4.580   3.327   3.763  0.6294 -0.8842 -2.2344
  999MOL0     H34801   4.618   3.497   3.766 -0.1909 -1.4175  0.6779
  999MOL0     H34802   4.398   3.528   3.632 -0.7359  1.4759 -0.1472
  999MOL0     H34803   4.374   3.360   3.642  2.5474 -0.0286 -1.0920
  999MOL0     H34804   4.379   3.372   3.902 -0.8879 -0.8482 -0.5086
  999MOL0     H34805   4.378   3.550   3.878  2.7609 -0.2505  0.5303
  999MOL0     H34806   4.170   3.540   3.760  1.1352  0.9429 -0.6629
  999MOL0     H34807   4.172   3.364   3.767  0.2654  0.7492  0.2322
  999MOL0     H34808   4.177   3.366   4.002  3.8416  0.4353 -0.2101
  999MOL0     H34809   4.209   3.535   4.016  1.6653 -1.6390  1.1280
  999MOL0     H34810   3.976   3.486   4.075  0.8430 -4.0973  0.5592
  999MOL0     H34811   3.986   3.590   3.920  2.5940 -1.0466 -0.6474
  999MOL0     H34812   3.948   3.377   3.783  2.1857  0.5372  0.6936
  999MOL0     H34813   3.927   3.284   3.925 -2.3569 -0.1688 -0.9589
  999MOL0     H34814   3.726   3.316   3.863  2.9034 -0.7074 -2.4613
  999MOL0     H34815   3.744   3.485   3.817  0.5674  1.3281  0.3767
  999MOL0     H34816   3.799   3.310   4.184 -0.3890  0.0563  1.1548
  999MOL0     H34817   3.728   3.414   4.427  3.1672  1.4086 -1.6561
  999MOL0     H34818   3.708   3.588   4.426  0.7007  0.1289 -1.0448
  999MOL0     H34819   3.485   3.389   4.389  0.4473 -0.8032  0.2965
  999MOL0     H34820   3.457   3.558   4.388  1.0283  0.6802  0.3490
  999MOL0     H34821   3.537   3.568   4.626 -1.2383 -0.6163  2.7437
  999MOL0     H34822   3.593   3.410   4.632  2.1908  1.7597 -1.8435
  999MOL0     H34823   3.331   3.352   4.576  0.0542  0.2022  0.8101
  999MOL0     H34824   3.308   3.526   4.580  1.2174  1.1018 -0.4143
  999MOL0     H34825   3.116   3.340   4.615 -1.4254 -0.0909 -0.0953
  999MOL0     H34826   2.866   3.134   4.733  1.4994 -0.7742  0.4390
  999MOL0     H34827   2.792   3.298   4.689 -1.6272 -1.8063  1.0818
  999MOL0     H34828   2.919   3.226   4.598  1.7349 -2.8733  1.2417
  999MOL0     H34829   2.798   3.043   5.205  0.8897  0.9078  0.7077
  999MOL0     H34830   2.583   2.951   5.302  1.4863 -1.1728 -3.1622
  999MOL0     H34831   2.304   3.016   5.192  1.0940  1.7289 -0.1985
  999MOL0     H34832   2.379   2.911   5.318 -0.9469 -0.3562  0.5228
  999MOL0     H34833   2.205   2.914   5.460 -1.2835  2.1999  1.4569
  999MOL0     H34834   2.122   3.054   5.396 -0.3286 -0.2011  3.3151
  999MOL0     H34835   2.128   2.774   5.276  0.2897  1.2307 -3.3822
  999MOL0     H34836   2.102   2.917   5.180  1.5780 -0.0755  0.1304
  999MOL0     H34837   1.972   2.846   5.439 -1.1094 -0.9155  0.5139
  999MOL0     H34838   1.905   2.971   5.325 -0.8219 -0.1767  2.2880
  999MOL0     H34839   1.922   2.659   5.268 -0.0764 -0.0367 -1.3450
  999MOL0     H34840   1.827   2.781   5.183 -0.2134  0.1478  0.5868
  999MOL0     H34841   1.786   2.697   5.458  0.0096 -0.5703 -0.6439
  999MOL0     H34842   1.699   2.836   5.380  0.0725  0.2357  1.2443
  999MOL0     H34843   1.568   2.607   5.393  0.0133 -3.4243 -1.4649
  999MOL0     H34844   1.688   2.553   5.297 -1.2796 -1.1319  4.0321
  999MOL0     H34845   1.484   2.624   5.168  0.1271  0.7839  1.2894
  999MOL0     H34846   1.624   2.716   5.116  0.5973 -0.8169  0.4724
  999MOL0     H34847   2.419   3.356   5.272  2.1329  2.1307 -1.2635
  999MOL0     H34848   2.633   3.434   5.189 -1.4576  0.7559  0.8785
  999MOL0     H34849   3.070   3.371   5.104 -0.1289  1.6872  0.2763
  999MOL0     H34850   3.268   3.453   5.008  1.4907 -1.4154 -1.8408
  999MOL0     H34851   4.807   3.356   3.744 -2.9119 -1.9246 -1.4280
  999MOL0     H34852   5.059   3.404   3.705  0.3619  3.8744 -0.0825
  999MOL0     H34853   5.366   3.800   3.417 -0.9935 -1.5140 -0.7211
  999MOL0     H34854   5.615   3.808   3.383 -0.1981  0.1468  1.4257
  999MOL0     H34855   5.800   3.777   3.277 -0.3336  2.3033  2.4444
  999MOL0     H34856   5.861   3.753   3.441 -1.1634 -0.7169  0.5104
  999MOL0     H34857   6.044   3.600   3.364  1.1974 -0.9837 -1.5075
  999MOL0     H34858   6.051   3.754   3.299  0.8842 -1.0462  0.2505
  999MOL0     H34859   5.917   3.670   3.096 -1.8506 -0.5657  1.6199
  999MOL0     H34860   5.955   3.509   3.147  0.1917  1.0572 -0.9326
  999MOL0     H34861   6.163   3.724   3.092 -0.5210  0.0609  2.9559
  999MOL0     H34862   6.120   3.605   2.978  2.0831  0.2975 -0.3406
  999MOL0     H34863   6.404   3.413   3.246  0.6895 -0.4539 -0.7244
  999MOL0     H34864   5.645   3.386   3.418 -0.1691 -0.1419 -1.8931
  999MOL0     H34865   5.406   3.380   3.494 -0.7701  0.3162  1.3478
 1000MOL0     O34866   8.602   1.301   1.813  0.2668  0.8591  0.4457
 1000MOL0     C34867   8.598   1.298   1.935 -0.2541 -0.4873 -0.8424
 1000MOL0     O34868   8.486   1.276   2.006 -0.2101  0.3061  0.0679
 1000MOL0     C34869   8.365   1.304   1.946 -0.0649 -0.1205 -0.3472
 1000MOL0     C34870   8.331   1.425   1.875 -0.1965 -0.0145  0.3104
 1000MOL0     C34871   8.210   1.433   1.810  0.3860 -0.0879  1.1203
 1000MOL0     C34872   8.105   1.334   1.808 -0.6258  0.8177 -0.1149
 1000MOL0     O34873   7.980   1.348   1.750  0.2342  0.6492  0.2682
 1000MOL0     C34874   7.974   1.390   1.614  0.0256 -0.0425  0.1825
 1000MOL0     C34875   7.887   1.523   1.607 -0.0581 -0.1035 -0.2784
 1000MOL0     C34876   7.740   1.503   1.644  0.3659 -0.3163 -0.0467
 1000MOL0     C34877   7.665   1.631   1.602  0.0580 -0.9619  0.0517
 1000MOL0     C34878   7.516   1.616   1.627  0.8663  0.0196  0.9321
 1000MOL0     C34879   7.432   1.729   1.580  0.6646 -0.0083  0.5669
 1000MOL0     C34880   7.289   1.713   1.644 -0.9976 -0.7249  0.4272
 1000MOL0     C34881   7.201   1.837   1.612  0.4873  0.2154 -0.4755
 1000MOL0     N34882   7.157   1.829   1.469  0.5841 -0.4440  0.3182
 1000MOL0     C34883   7.031   1.787   1.431  1.0274  0.5767  0.5001
 1000MOL0     C34884   7.024   1.810   1.296  0.2111  0.0944 -0.3018
 1000MOL0     C34885   6.910   1.790   1.201  0.2961  0.1257  0.4239
 1000MOL0     C34886   6.782   1.780   1.273  0.3352 -0.6956  0.7727
 1000MOL0     C34887   6.665   1.742   1.170  0.7080 -0.2046  0.6814
 1000MOL0     C34888   6.523   1.767   1.221  0.7300 -0.3140 -0.0487
 1000MOL0     O34889   6.498   1.907   1.242 -0.2227  0.9521 -0.4866
 1000MOL0     C34890   6.364   1.948   1.261  0.2940 -1.2261  0.6877
 1000MOL0     C34891   6.340   2.081   1.271 -0.2109  0.0591  0.1422
 1000MOL0     C34892   6.213   2.130   1.294  0.2634 -0.4566  0.1315
 1000MOL0     C34893   6.206   2.277   1.339  0.3276 -0.2481  0.0548
 1000MOL0     C34894   6.099   2.042   1.306 -0.0832  0.1557 -0.5667
 1000MOL0     C34895   5.950   2.074   1.328 -0.7947 -0.3356  0.5289
 1000MOL0     O34896   5.865   1.977   1.283  0.3151  0.6916 -0.5745
 1000MOL0     C34897   5.730   2.012   1.285  0.0009  0.3091  0.4122
 1000MOL0     C34898   5.647   2.002   1.398 -0.0959 -0.2359  0.1622
 1000MOL0     C34899   5.511   2.032   1.389 -0.0530 -0.7070 -0.4390
 1000MOL0     C34900   5.448   2.062   1.273  0.0241  0.1763  0.1667
 1000MOL0     O34901   5.316   2.093   1.287  0.4250  0.4473 -0.4981
 1000MOL0     C34902   5.238   2.112   1.168 -0.5664 -0.5022  0.1851
 1000MOL0     C34903   5.095   2.129   1.209 -0.0253 -0.4881  0.1867
 1000MOL0     C34904   5.036   2.021   1.289 -0.0699  0.1175  0.0134
 1000MOL0     C34905   4.990   1.902   1.201 -0.4841 -0.0259 -0.1005
 1000MOL0     C34906   4.863   1.930   1.117 -0.6564  0.8530 -0.4210
 1000MOL0     C34907   4.835   1.804   1.032  0.5553  0.6487 -0.0150
 1000MOL0     C34908   4.708   1.817   0.944  0.0498 -0.3681 -0.2452
 1000MOL0     C34909   4.599   1.768   1.034  0.7799 -0.0588  0.4882
 1000MOL0    Cl34910   4.450   1.822   0.944 -0.1362  0.2295 -0.2674
 1000MOL0     C34911   5.530   2.070   1.153  0.2841  0.6363  0.3999
 1000MOL0     C34912   5.665   2.031   1.163  0.1633 -0.8703 -0.0960
 1000MOL0     O34913   5.916   2.181   1.390 -0.3458 -0.3533 -0.2316
 1000MOL0     C34914   6.126   1.907   1.297  0.8969 -0.6409  0.3521
 1000MOL0     C34915   6.255   1.861   1.285 -0.1851 -0.2261  0.6319
 1000MOL0     N34916   7.140   1.878   1.253  0.2080 -0.3884  0.1452
 1000MOL0     N34917   7.210   1.893   1.353  0.4122  0.4053 -0.3636
 1000MOL0     C34918   8.130   1.224   1.898 -0.3527 -0.3656 -0.7283
 1000MOL0     C34919   8.260   1.209   1.958 -0.8379  1.4560 -0.8986
 1000MOL0     C34920   8.728   1.314   2.016  0.8882 -0.3544  0.2001
 1000MOL0     C34921   8.745   1.253   2.140 -0.3548 -0.3436 -0.8841
 1000MOL0     C34922   8.862   1.274   2.210  0.8999  0.3352 -0.3949
 1000MOL0     C34923   8.967   1.349   2.151  0.2993  0.4441 -0.2935
 1000MOL0     O34924   9.080   1.366   2.234 -0.3497  0.1095  0.2442
 1000MOL0     C34925   9.203   1.422   2.172  0.6657 -0.1934 -0.3485
 1000MOL0     C34926   9.310   1.414   2.284 -0.5722 -0.3432 -0.6579
 1000MOL0     C34927   9.438   1.465   2.217 -0.5367 -0.2397  0.6782
 1000MOL0     C34928   9.556   1.409   2.296 -0.0843 -0.5910  0.6183
 1000MOL0     C34929   9.569   1.476   2.425  0.3509 -0.5773 -0.2061
 1000MOL0     C34930   9.581   1.514   2.537  0.1308 -0.3065  0.1996
 1000MOL0     C34931   8.963   1.391   2.020 -0.4309 -0.6561  0.1849
 1000MOL0     C34932   8.840   1.381   1.954  0.1332 -0.7217  0.9768
 1000MOL0     H34933   8.397   1.506   1.846 -2.1390  0.8435 -2.1025
 1000MOL0     H34934   8.178   1.523   1.759  0.8368 -0.0574  0.8870
 1000MOL0     H34935   8.070   1.405   1.565  0.4267 -0.2571  0.8869
 1000MOL0     H34936   7.926   1.320   1.545  2.5648 -0.7468 -0.9905
 1000MOL0     H34937   7.927   1.604   1.669 -0.4014  0.1023 -0.3268
 1000MOL0     H34938   7.892   1.551   1.501 -2.3547  1.2986 -0.0731
 1000MOL0     H34939   7.698   1.413   1.597 -2.9450  1.5150 -0.9244
 1000MOL0     H34940   7.718   1.492   1.751  0.7570  1.4181  0.2475
 1000MOL0     H34941   7.701   1.718   1.658  1.5778  1.3315 -4.0515
 1000MOL0     H34942   7.695   1.654   1.500  0.3236 -0.3422  0.2632
 1000MOL0     H34943   7.482   1.523   1.582  0.6882  0.3288  0.4146
 1000MOL0     H34944   7.510   1.616   1.736  0.5581 -1.3136  0.9236
 1000MOL0     H34945   7.473   1.828   1.599 -1.3834  1.1134 -0.4329
 1000MOL0     H34946   7.402   1.718   1.475 -1.2004 -2.1657  1.2369
 1000MOL0     H34947   7.242   1.617   1.618  3.3639 -3.0850  0.1724
 1000MOL0     H34948   7.287   1.713   1.753 -0.5429  2.6637  0.5379
 1000MOL0     H34949   7.264   1.924   1.633 -0.0847  0.0284  2.4149
 1000MOL0     H34950   7.115   1.836   1.681  0.1212 -2.3731 -0.8923
 1000MOL0     H34951   6.952   1.740   1.488 -0.1898  1.2122 -0.6173
 1000MOL0     H34952   6.905   1.877   1.136  0.5376  0.7759  1.2590
 1000MOL0     H34953   6.929   1.703   1.137 -0.7115 -0.1119  0.4284
 1000MOL0     H34954   6.767   1.873   1.328  0.5019 -0.8365  1.0570
 1000MOL0     H34955   6.776   1.707   1.355 -1.0487 -1.9757 -0.3854
 1000MOL0     H34956   6.669   1.637   1.141  1.2755 -0.4037  1.4766
 1000MOL0     H34957   6.681   1.808   1.083 -2.4797  1.4025  1.1541
 1000MOL0     H34958   6.516   1.717   1.318  3.9390  2.1224  1.6065
 1000MOL0     H34959   6.443   1.727   1.157 -1.4545  0.5274  2.0117
 1000MOL0     H34960   6.428   2.144   1.266 -0.3180  0.1442 -1.2955
 1000MOL0     H34961   6.306   2.318   1.357 -0.6600  1.9222  0.9411
 1000MOL0     H34962   6.170   2.341   1.259  1.0569  0.8914  0.6027
 1000MOL0     H34963   6.141   2.302   1.424  1.0058  3.4817 -0.3527
 1000MOL0     H34964   5.685   1.979   1.497 -1.5876 -0.8733  0.6152
 1000MOL0     H34965   5.453   2.028   1.480 -1.5215 -0.7815 -1.3350
 1000MOL0     H34966   5.264   2.204   1.117 -1.9690  0.6249  1.4070
 1000MOL0     H34967   5.244   2.023   1.105 -2.0821 -0.1154 -0.5519
 1000MOL0     H34968   5.081   2.220   1.267  0.6217  0.1047 -0.5583
 1000MOL0     H34969   5.036   2.134   1.117 -4.1470  0.4161  2.6717
 1000MOL0     H34970   4.953   2.073   1.338 -0.2283  1.7533 -1.8579
 1000MOL0     H34971   5.104   1.981   1.365  0.5383  2.7272  0.9329
 1000MOL0     H34972   5.071   1.873   1.133 -1.9948 -1.0408 -1.5596
 1000MOL0     H34973   4.968   1.814   1.264 -0.8993  1.3777  1.8129
 1000MOL0     H34974   4.870   2.022   1.060  1.9785  2.5922  2.3792
 1000MOL0     H34975   4.786   1.947   1.193  0.6374 -0.2386  1.2048
 1000MOL0     H34976   4.921   1.784   0.968 -1.0067 -3.6931 -1.0682
 1000MOL0     H34977   4.820   1.717   1.096  0.7090  0.0317 -0.8131
 1000MOL0     H34978   4.711   1.753   0.855 -3.7482 -1.1042  0.0031
 1000MOL0     H34979   4.688   1.920   0.910  0.1834 -0.1455  0.3357
 1000MOL0     H34980   4.608   1.833   1.122  1.1889  1.3818 -0.5970
 1000MOL0     H34981   4.606   1.660   1.052 -0.5755 -0.2732 -0.1303
 1000MOL0     H34982   5.493   2.102   1.057 -1.9132  0.3763  1.1054
 1000MOL0     H34983   5.721   2.034   1.070 -1.8256 -2.4345 -1.4112
 1000MOL0     H34984   6.044   1.836   1.303 -1.1433  1.5442 -0.2401
 1000MOL0     H34985   6.267   1.753   1.274 -0.2528 -0.0946 -1.0747
 1000MOL0     H34986   8.049   1.158   1.927 -1.4000  1.5586  1.0123
 1000MOL0     H34987   8.277   1.122   2.021 -4.0946 -0.6785 -2.6988
 1000MOL0     H34988   8.667   1.206   2.199  1.1272 -0.1379  1.3368
 1000MOL0     H34989   8.871   1.248   2.315  0.3675  0.7024 -0.2526
 1000MOL0     H34990   9.235   1.365   2.084  1.4574 -3.2081  1.7588
 1000MOL0     H34991   9.182   1.527   2.149  3.0213  0.6178  0.8598
 1000MOL0     H34992   9.314   1.306   2.305 -1.3011 -0.5532 -1.5472
 1000MOL0     H34993   9.283   1.465   2.378 -1.8843 -0.0416 -1.1734
 1000MOL0     H34994   9.441   1.574   2.209 -2.6129 -0.1535  0.5484
 1000MOL0     H34995   9.471   1.436   2.116  1.4256  1.5549  0.7244
 1000MOL0     H34996   9.648   1.430   2.241  0.4453 -2.1872  0.8591
 1000MOL0     H34997   9.544   1.302   2.312  0.9991 -0.7542  0.4385
 1000MOL0     H34998   9.575   1.541   2.640 -0.7222  1.3305 -0.2430
 1000MOL0     H34999   9.042   1.444   1.968 -0.0906 -0.5291  0.8233
 1000MOL0     H35000   8.836   1.426   1.855 -2.3574 -2.6059  0.1011
 1001MOL0     O35001   1.531   9.719   0.245 -0.4742  0.3502  0.5960
 1001MOL0     C35002   1.566   9.831   0.222  0.1459 -0.0200 -0.5460
 1001MOL0     O35003   1.490   9.948   0.232  0.3669  0.4168 -0.5775
 1001MOL0     C35004   1.357   9.946   0.259  0.4119 -0.7104  0.3828
 1001MOL0     C35005   1.302  10.074   0.251  0.6480 -0.2673  0.1976
 1001MOL0     C35006   1.160  10.095   0.275  1.0466  0.8685  0.4186
 1001MOL0     C35007   1.072   9.986   0.296 -1.1790  0.0705  0.3221
 1001MOL0     O35008   0.942  10.019   0.293  0.2954  0.2329  0.3162
 1001MOL0     C35009   0.846   9.913   0.313 -0.3128  0.1879 -0.4644
 1001MOL0     C35010   0.711   9.963   0.285  1.3792 -0.7925 -0.0733
 1001MOL0     C35011   0.605   9.866   0.262  0.2300 -0.6484 -0.4573
 1001MOL0     C35012   0.596   9.787   0.127  0.7838 -0.6913 -0.9468
 1001MOL0     C35013   0.501   9.674   0.140  0.4518  0.0828 -0.9675
 1001MOL0     C35014   0.355   9.720   0.162 -0.7172  0.1997  0.5750
 1001MOL0     C35015   0.268   9.593   0.186  0.4084  0.3736 -0.2682
 1001MOL0     C35016   0.240   9.508   0.058  0.0685 -0.2442 -0.6558
 1001MOL0     N35017   0.145   9.582  -0.025 -0.2570  0.0738 -0.4841
 1001MOL0     C35018   0.012   9.564  -0.029  0.1553 -1.2931 -0.8214
 1001MOL0     C35019  -0.030   9.651  -0.132  0.3228 -0.3928  0.2626
 1001MOL0     C35020  -0.170   9.697  -0.175  0.9412 -0.3977  0.1915
 1001MOL0     C35021  -0.192   9.749  -0.324 -0.1720 -0.1594  0.1273
 1001MOL0     C35022  -0.193   9.637  -0.437 -0.0533  0.0193  0.0149
 1001MOL0     C35023  -0.060   9.598  -0.487 -0.0752  0.3250 -0.1670
 1001MOL0     O35024  -0.013   9.692  -0.589 -0.8971  0.3696 -0.3183
 1001MOL0     C35025   0.122   9.682  -0.628 -0.7135  0.1473 -0.9705
 1001MOL0     C35026   0.186   9.795  -0.674 -0.4707  0.1662 -0.6100
 1001MOL0     C35027   0.323   9.794  -0.713  0.8345  0.0817 -0.0748
 1001MOL0     C35028   0.382   9.930  -0.756 -0.7983 -0.2834 -0.3659
 1001MOL0     C35029   0.405   9.683  -0.681  0.9826  0.5310 -0.3821
 1001MOL0     C35030   0.557   9.678  -0.698  0.6894 -0.5315  0.5499
 1001MOL0     O35031   0.617   9.796  -0.683  0.3307  0.0978  0.0461
 1001MOL0     C35032   0.745   9.821  -0.713 -0.4596  0.6591  0.6399
 1001MOL0     C35033   0.817   9.916  -0.640 -0.0728 -0.0400  0.6800
 1001MOL0     C35034   0.952   9.943  -0.662 -0.4652 -0.1621  0.2023
 1001MOL0     C35035   1.022   9.879  -0.765  0.8981  0.1405  0.0412
 1001MOL0     O35036   1.156   9.903  -0.795  0.2219 -0.2380 -0.2960
 1001MOL0     C35037   1.202  10.042  -0.798  0.2111  0.4167 -0.4077
 1001MOL0     C35038   1.267  10.065  -0.934  0.2530  0.8259 -0.1463
 1001MOL0     C35039   1.351  10.187  -0.942  0.5127  0.8244  0.1389
 1001MOL0     C35040   1.386  10.220  -1.083 -0.3557 -1.0622 -0.3723
 1001MOL0     C35041   1.509  10.311  -1.093  0.3785  0.5024  0.0647
 1001MOL0     C35042   1.542  10.351  -1.237  0.3832 -0.0011  0.6741
 1001MOL0     C35043   1.576  10.239  -1.326  0.0934  0.5016 -0.2428
 1001MOL0     C35044   1.637  10.281  -1.459  0.1027  0.2000  0.7309
 1001MOL0    Cl35045   1.515  10.373  -1.547  0.0065 -0.0755  0.0044
 1001MOL0     C35046   0.952   9.777  -0.836 -0.5572 -0.3716  0.1178
 1001MOL0     C35047   0.818   9.750  -0.816  0.7029 -0.1021 -0.8231
 1001MOL0     O35048   0.616   9.572  -0.724  0.1483  0.1135 -0.2463
 1001MOL0     C35049   0.335   9.564  -0.645 -0.4141  0.2558 -0.1685
 1001MOL0     C35050   0.191   9.555  -0.635  0.6597 -0.4069 -0.8726
 1001MOL0     N35051   0.080   9.710  -0.185 -0.3900 -0.4747  0.0361
 1001MOL0     N35052   0.183   9.665  -0.120 -0.2082  0.0829 -0.2033
 1001MOL0     C35053   1.135   9.857   0.316 -0.0184 -0.7525  0.2831
 1001MOL0     C35054   1.273   9.841   0.301 -0.0057 -0.0123  0.4422
 1001MOL0     C35055   1.708   9.839   0.186 -0.0137 -0.7640  0.5101
 1001MOL0     C35056   1.798   9.729   0.200  0.7571  0.1254 -0.6234
 1001MOL0     C35057   1.937   9.738   0.197 -0.2956  0.4087  0.0129
 1001MOL0     C35058   1.990   9.863   0.173  0.8554  0.0374  0.0668
 1001MOL0     O35059   2.123   9.868   0.168 -0.5354  0.0431  0.2268
 1001MOL0     C35060   2.193   9.971   0.095  0.6907 -0.4278  0.1289
 1001MOL0     C35061   2.348   9.942   0.102 -0.4830  0.8525 -0.2017
 1001MOL0     C35062   2.387   9.819   0.011  0.0750 -1.0764  0.7168
 1001MOL0     C35063   2.540   9.811  -0.013 -0.3846 -0.4950 -0.0569
 1001MOL0     C35064   2.611   9.746   0.101 -0.2069 -0.6714  0.1786
 1001MOL0     C35065   2.670   9.701   0.195 -0.4496  0.1227  0.1255
 1001MOL0     C35066   1.913   9.971   0.146  0.0361 -0.4915  0.2798
 1001MOL0     C35067   1.775   9.966   0.153  0.6823  0.3337  0.2455
 1001MOL0     H35068   1.359  10.166   0.241 -0.9827  1.0951  2.5160
 1001MOL0     H35069   1.112  10.192   0.283  0.3367  0.6963 -1.4000
 1001MOL0     H35070   0.873   9.826   0.253  0.4771 -0.3690  0.6611
 1001MOL0     H35071   0.843   9.883   0.418  1.9356  5.2353  1.3324
 1001MOL0     H35072   0.676  10.009   0.378 -0.1597  1.7766 -1.7758
 1001MOL0     H35073   0.707  10.042   0.209  2.5572 -0.3449  0.3239
 1001MOL0     H35074   0.606   9.786   0.337  1.0998 -2.2100 -2.0272
 1001MOL0     H35075   0.511   9.919   0.279 -1.3443 -2.6816 -2.1831
 1001MOL0     H35076   0.575   9.848   0.039  2.6168 -1.2511 -1.8259
 1001MOL0     H35077   0.697   9.745   0.126  1.6760  0.6185  4.1833
 1001MOL0     H35078   0.507   9.607   0.055  1.0340  0.5168 -1.2718
 1001MOL0     H35079   0.532   9.612   0.225 -1.3189  1.2117  0.5956
 1001MOL0     H35080   0.347   9.791   0.246  0.1362  0.3109  0.5650
 1001MOL0     H35081   0.321   9.775   0.074  0.0906 -1.6376 -0.9290
 1001MOL0     H35082   0.290   9.527   0.271  1.2286  0.8993 -0.0670
 1001MOL0     H35083   0.168   9.623   0.218 -1.2363 -2.2427 -2.4610
 1001MOL0     H35084   0.192   9.417   0.096 -1.7925  1.5989  1.7710
 1001MOL0     H35085   0.333   9.495   0.003  0.2087  0.0137 -0.4809
 1001MOL0     H35086  -0.045   9.498   0.035  0.2302 -2.6285 -2.0851
 1001MOL0     H35087  -0.231   9.606  -0.176 -1.4664  1.0922 -1.8852
 1001MOL0     H35088  -0.203   9.771  -0.102  0.8596 -1.3358  1.1319
 1001MOL0     H35089  -0.112   9.822  -0.341  1.5521 -2.0066 -0.0699
 1001MOL0     H35090  -0.280   9.812  -0.334  1.2084  1.6982 -1.0548
 1001MOL0     H35091  -0.262   9.656  -0.520  0.6857  2.3811 -0.1302
 1001MOL0     H35092  -0.242   9.547  -0.398 -2.0353 -0.0339 -2.2984
 1001MOL0     H35093  -0.070   9.497  -0.528  0.3920 -0.1356  0.8197
 1001MOL0     H35094   0.011   9.593  -0.404 -0.6114  1.7887  0.4263
 1001MOL0     H35095   0.134   9.890  -0.673  1.5466  1.3714 -2.3008
 1001MOL0     H35096   0.409  10.002  -0.678  0.3247 -0.4248 -0.6149
 1001MOL0     H35097   0.476   9.920  -0.810  0.2557 -0.0478  1.3312
 1001MOL0     H35098   0.308   9.978  -0.821 -0.4859  1.8597  0.7540
 1001MOL0     H35099   0.753   9.979  -0.579 -1.3927 -0.4497 -0.2367
 1001MOL0     H35100   1.016  10.006  -0.601  1.7190 -2.8207  0.8685
 1001MOL0     H35101   1.114  10.107  -0.796 -1.5315 -1.7348 -1.8904
 1001MOL0     H35102   1.269  10.066  -0.716  0.6154  1.6343 -1.0792
 1001MOL0     H35103   1.339   9.995  -0.976  0.7471  1.4379 -0.3406
 1001MOL0     H35104   1.184  10.065  -1.005  0.2032  4.1751 -0.2622
 1001MOL0     H35105   1.445  10.175  -0.888 -0.1978 -3.4720  0.8052
 1001MOL0     H35106   1.299  10.269  -0.892 -0.3273 -0.0443  0.7269
 1001MOL0     H35107   1.407  10.126  -1.135 -0.5261 -1.9185  1.0561
 1001MOL0     H35108   1.308  10.275  -1.136 -0.5627 -0.2858  0.6953
 1001MOL0     H35109   1.594  10.257  -1.050  0.0033  1.0654  1.6064
 1001MOL0     H35110   1.496  10.402  -1.033  0.9675  0.0463  0.9021
 1001MOL0     H35111   1.461  10.413  -1.276  2.3803  2.6157  0.4404
 1001MOL0     H35112   1.622  10.425  -1.244  0.1509  0.2599  0.7802
 1001MOL0     H35113   1.482  10.192  -1.355  0.7951 -1.4365  0.4757
 1001MOL0     H35114   1.621  10.159  -1.267 -4.2634 -1.0368  1.3681
 1001MOL0     H35115   1.650  10.187  -1.514 -0.9057  0.5708 -0.1844
 1001MOL0     H35116   1.727  10.342  -1.453  0.2532  0.1047 -0.2858
 1001MOL0     H35117   1.015   9.714  -0.899  1.2391 -0.7665  2.1850
 1001MOL0     H35118   0.754   9.684  -0.873 -0.2856 -0.8187  1.0257
 1001MOL0     H35119   0.392   9.474  -0.623  0.4898  0.6238 -0.9461
 1001MOL0     H35120   0.144   9.459  -0.614  1.1594 -1.1160 -2.7457
 1001MOL0     H35121   1.073   9.769   0.326 -0.5009 -1.3591 -4.9978
 1001MOL0     H35122   1.312   9.740   0.312  2.1944  0.7553  0.2475
 1001MOL0     H35123   1.752   9.647   0.255 -0.1472  0.7592 -0.4157
 1001MOL0     H35124   2.002   9.656   0.225 -0.4696  0.4435  0.5480
 1001MOL0     H35125   2.151   9.986  -0.005 -0.1686 -1.5579  0.2908
 1001MOL0     H35126   2.182  10.066   0.148  1.8811 -0.9710  1.4115
 1001MOL0     H35127   2.371   9.928   0.208 -1.5657 -1.0507 -0.1892
 1001MOL0     H35128   2.414  10.021   0.063 -1.5237  3.3516  2.6867
 1001MOL0     H35129   2.337   9.834  -0.085 -0.6260 -1.0811  1.0744
 1001MOL0     H35130   2.345   9.724   0.047  0.8864 -1.4756  0.6424
 1001MOL0     H35131   2.572   9.913  -0.035 -1.4191 -0.0634  0.3409
 1001MOL0     H35132   2.562   9.746  -0.098 -1.6341 -0.3020 -0.5547
 1001MOL0     H35133   2.728   9.679   0.282 -0.7795 -1.0447  0.0757
 1001MOL0     H35134   1.958  10.068   0.128  0.6240 -0.7383  0.4011
 1001MOL0     H35135   1.711  10.053   0.147  0.9935  0.4928 -0.9645
 1002MOL0     O35136   4.098   9.138   1.250 -0.1289  0.2354 -0.0074
 1002MOL0     C35137   4.158   9.219   1.320 -1.2975 -0.2576 -0.9946
 1002MOL0     O35138   4.111   9.318   1.405 -0.1844 -0.1863 -0.2726
 1002MOL0     C35139   3.977   9.341   1.406 -0.1399 -0.0038 -0.4165
 1002MOL0     C35140   3.896   9.277   1.502  1.1039  0.2798 -0.3655
 1002MOL0     C35141   3.759   9.297   1.505 -0.2646  0.4284  0.4130
 1002MOL0     C35142   3.694   9.377   1.419  0.0681 -0.4557 -0.6078
 1002MOL0     O35143   3.561   9.417   1.438 -0.1338  0.1746  0.0437
 1002MOL0     C35144   3.464   9.336   1.516  0.1860  0.3676 -0.8651
 1002MOL0     C35145   3.312   9.373   1.508  0.7910 -0.7740 -0.0539
 1002MOL0     C35146   3.220   9.264   1.549  0.3449  0.4927 -0.2901
 1002MOL0     C35147   3.075   9.321   1.547 -0.7560  0.3602  0.0312
 1002MOL0     C35148   2.980   9.227   1.602  0.7817  0.3742  0.1754
 1002MOL0     C35149   2.839   9.256   1.558  0.9729 -0.1710  0.9439
 1002MOL0     C35150   2.786   9.385   1.636  0.5275 -0.2648  0.3449
 1002MOL0     C35151   2.769   9.359   1.789 -0.0913  1.3717 -0.2921
 1002MOL0     N35152   2.674   9.251   1.823 -0.3537  0.2817 -0.6245
 1002MOL0     C35153   2.540   9.267   1.848  0.1499  0.2485  0.0095
 1002MOL0     C35154   2.491   9.134   1.853  0.0454 -0.7867  0.1364
 1002MOL0     C35155   2.349   9.094   1.875 -0.5852 -1.0951  0.7682
 1002MOL0     C35156   2.318   9.004   2.001  1.1578 -0.0699  0.3805
 1002MOL0     C35157   2.200   9.052   2.088 -0.0231 -1.4367  0.5162
 1002MOL0     C35158   2.069   9.059   2.013 -0.0773  0.2094 -0.5000
 1002MOL0     O35159   1.967   9.101   2.099  0.5386 -1.0926 -0.3089
 1002MOL0     C35160   1.855   9.019   2.101 -0.0239  0.3278  0.0943
 1002MOL0     C35161   1.865   8.888   2.146  0.4240 -0.8430 -0.4943
 1002MOL0     C35162   1.768   8.796   2.152 -1.1994  0.3123  0.0367
 1002MOL0     C35163   1.822   8.660   2.187 -0.1124 -0.2199 -1.2125
 1002MOL0     C35164   1.636   8.839   2.136 -0.2711 -0.1004 -1.1156
 1002MOL0     C35165   1.518   8.755   2.157 -0.0974  0.0565  0.0729
 1002MOL0     O35166   1.407   8.815   2.198 -0.9410 -1.2478  0.0646
 1002MOL0     C35167   1.305   8.754   2.266 -0.1055 -0.1662 -0.2373
 1002MOL0     C35168   1.306   8.623   2.326  0.0419 -0.1272 -0.5706
 1002MOL0     C35169   1.191   8.571   2.394 -0.2084 -0.1016 -0.0412
 1002MOL0     C35170   1.080   8.651   2.413  1.2011  0.4284 -0.4812
 1002MOL0     O35171   0.972   8.594   2.475  1.1551  0.3139 -0.8751
 1002MOL0     C35172   0.851   8.665   2.487  0.1370  0.3409 -0.5238
 1002MOL0     C35173   0.733   8.572   2.536 -0.2178  0.1525  0.6284
 1002MOL0     C35174   0.596   8.647   2.517  0.0979  0.2631  1.1772
 1002MOL0     C35175   0.483   8.607   2.613  0.6840 -0.2503 -0.5753
 1002MOL0     C35176   0.341   8.667   2.570  0.3209 -0.4037  0.6101
 1002MOL0     C35177   0.233   8.636   2.673 -0.2175  0.0556  0.0415
 1002MOL0     C35178   0.282   8.650   2.821  0.5039  0.4493  0.2984
 1002MOL0     C35179   0.166   8.653   2.921  0.2915 -0.1474 -0.2259
 1002MOL0    Cl35180   0.082   8.811   2.875  0.3013  0.4669 -0.0601
 1002MOL0     C35181   1.078   8.778   2.354  0.5729 -0.6656 -0.7296
 1002MOL0     C35182   1.190   8.829   2.287 -0.2807 -0.0806 -0.8560
 1002MOL0     O35183   1.527   8.635   2.127 -0.1181 -0.2077  0.7715
 1002MOL0     C35184   1.622   8.975   2.110  0.1971  0.0271 -0.1955
 1002MOL0     C35185   1.727   9.058   2.090  0.1322  0.6379 -0.6625
 1002MOL0     N35186   2.600   9.044   1.830  0.7157  0.0899  0.1676
 1002MOL0     N35187   2.706   9.119   1.818  0.2009 -0.6328  0.1158
 1002MOL0     C35188   3.774   9.438   1.319  1.5084 -0.2756  0.1911
 1002MOL0     C35189   3.911   9.415   1.310  0.0400 -0.3752 -0.3244
 1002MOL0     C35190   4.302   9.214   1.322  0.1003 -0.3541 -0.3342
 1002MOL0     C35191   4.386   9.322   1.317 -0.7954  0.3941  0.0900
 1002MOL0     C35192   4.524   9.306   1.318 -0.1156 -0.6590 -0.1868
 1002MOL0     C35193   4.587   9.179   1.314 -0.4289 -0.3354 -0.0593
 1002MOL0     O35194   4.726   9.182   1.317 -0.6254  0.0509  0.1200
 1002MOL0     C35195   4.798   9.069   1.256 -0.2366  0.6950  0.4197
 1002MOL0     C35196   4.766   9.057   1.102  0.1304  0.0828  0.3426
 1002MOL0     C35197   4.821   9.186   1.033  0.6731  0.0929 -0.1306
 1002MOL0     C35198   4.965   9.192   1.004 -0.7591 -0.8062  0.4697
 1002MOL0     C35199   5.003   9.069   0.936  0.0347 -0.8676  0.0187
 1002MOL0     C35200   5.034   8.966   0.885  0.2592  0.3235 -0.1176
 1002MOL0     C35201   4.503   9.074   1.301  0.0324  0.5714  0.0778
 1002MOL0     C35202   4.363   9.089   1.308 -0.8697  0.1886  0.1365
 1002MOL0     H35203   3.946   9.219   1.579  2.1132  0.4762 -0.8515
 1002MOL0     H35204   3.695   9.248   1.578  2.1229 -0.4192  2.0753
 1002MOL0     H35205   3.472   9.234   1.477  2.0757 -1.4596  3.6583
 1002MOL0     H35206   3.489   9.331   1.622 -0.2570  3.3991 -0.5278
 1002MOL0     H35207   3.305   9.456   1.578 -0.0083 -1.5023  0.7512
 1002MOL0     H35208   3.282   9.411   1.410 -0.9355  2.1975  1.4965
 1002MOL0     H35209   3.228   9.175   1.485  0.1698 -0.4162  0.9109
 1002MOL0     H35210   3.252   9.244   1.652 -0.1472 -0.8846 -0.3828
 1002MOL0     H35211   3.070   9.408   1.614 -2.9981  1.1650 -1.0875
 1002MOL0     H35212   3.047   9.367   1.452 -0.5762 -0.2848 -0.3421
 1002MOL0     H35213   2.996   9.133   1.548  1.8653  0.8336 -0.3521
 1002MOL0     H35214   2.974   9.209   1.710  1.7585  1.6748  0.4736
 1002MOL0     H35215   2.841   9.280   1.452 -0.1872  1.0619  1.1692
 1002MOL0     H35216   2.776   9.168   1.576  1.2790 -0.4717  0.5659
 1002MOL0     H35217   2.856   9.468   1.621  0.8776 -0.8402 -1.4193
 1002MOL0     H35218   2.692   9.426   1.597 -0.8566 -0.6910  3.0303
 1002MOL0     H35219   2.743   9.456   1.832 -1.4216  1.7193 -1.7954
 1002MOL0     H35220   2.862   9.333   1.839 -0.0884  0.9850 -0.4963
 1002MOL0     H35221   2.484   9.358   1.862 -1.8079 -1.1002  1.6965
 1002MOL0     H35222   2.296   9.189   1.884  1.7738  0.4986 -1.0664
 1002MOL0     H35223   2.315   9.040   1.786  0.6938 -0.2415 -0.2604
 1002MOL0     H35224   2.407   8.987   2.062  0.3721  0.6157  1.7512
 1002MOL0     H35225   2.293   8.910   1.951  1.4604  0.0073  0.0772
 1002MOL0     H35226   2.220   9.148   2.137  1.8297 -1.9745  0.8556
 1002MOL0     H35227   2.185   8.977   2.165 -2.2882 -1.1354  0.4456
 1002MOL0     H35228   2.060   8.955   1.980 -0.0289 -0.1618  0.6110
 1002MOL0     H35229   2.086   9.132   1.934  2.2318  0.1701 -0.0940
 1002MOL0     H35230   1.968   8.868   2.173  0.8714  3.1338  1.4694
 1002MOL0     H35231   1.887   8.661   2.275 -0.2363 -1.2628 -1.1032
 1002MOL0     H35232   1.752   8.579   2.204  1.6139 -2.3398 -3.4767
 1002MOL0     H35233   1.870   8.620   2.097 -0.0598 -5.0636  0.6848
 1002MOL0     H35234   1.393   8.561   2.308  0.8879  1.0616 -0.7335
 1002MOL0     H35235   1.191   8.470   2.434  1.6747 -1.4052 -2.9460
 1002MOL0     H35236   0.851   8.751   2.556 -3.1408  0.6361 -0.7415
 1002MOL0     H35237   0.820   8.697   2.387 -1.1409  0.4014 -0.1289
 1002MOL0     H35238   0.742   8.481   2.475  1.1341  0.4183  0.4109
 1002MOL0     H35239   0.760   8.548   2.640  1.3662 -0.4788  0.0981
 1002MOL0     H35240   0.567   8.635   2.412 -0.0737  2.3441  0.9435
 1002MOL0     H35241   0.621   8.753   2.528  3.0694 -0.1918 -0.2905
 1002MOL0     H35242   0.471   8.499   2.614 -0.1288 -0.1624  0.3276
 1002MOL0     H35243   0.518   8.636   2.712 -0.1776 -0.8768 -0.0737
 1002MOL0     H35244   0.311   8.637   2.470  1.4824  2.1690 -0.5980
 1002MOL0     H35245   0.349   8.776   2.559 -0.3673 -0.1997  1.9568
 1002MOL0     H35246   0.150   8.703   2.652 -0.4950  0.0475  1.0832
 1002MOL0     H35247   0.199   8.533   2.654  4.2020 -1.8169  0.9871
 1002MOL0     H35248   0.347   8.737   2.834  2.2557 -0.9380  1.1984
 1002MOL0     H35249   0.337   8.556   2.837 -1.3803 -1.1716 -2.0494
 1002MOL0     H35250   0.197   8.650   3.026 -1.6473 -3.6199  0.4182
 1002MOL0     H35251   0.098   8.571   2.895  0.7778 -0.7166  0.2707
 1002MOL0     H35252   0.994   8.844   2.372  2.0260  0.9021  0.7245
 1002MOL0     H35253   1.185   8.932   2.252 -1.1711 -0.1275 -0.8869
 1002MOL0     H35254   1.527   9.025   2.096  0.1061  0.1317  0.7284
 1002MOL0     H35255   1.711   9.165   2.074 -2.7651  0.7752  2.1164
 1002MOL0     H35256   3.714   9.506   1.259  0.8196  0.5217  1.7164
 1002MOL0     H35257   3.978   9.454   1.234 -0.4803  0.0381 -0.5789
 1002MOL0     H35258   4.345   9.420   1.341 -1.5130 -0.4257  2.5596
 1002MOL0     H35259   4.581   9.398   1.325  1.0382 -1.1048 -2.6611
 1002MOL0     H35260   4.906   9.069   1.273  0.2068 -0.4445 -1.9108
 1002MOL0     H35261   4.759   8.985   1.313 -0.5649  1.4667  1.3491
 1002MOL0     H35262   4.659   9.049   1.082  0.1585 -4.3781  0.9122
 1002MOL0     H35263   4.820   8.971   1.060  4.4503  2.9146 -0.5033
 1002MOL0     H35264   4.780   9.279   1.075 -2.5504 -0.0903 -2.4790
 1002MOL0     H35265   4.775   9.179   0.934  1.5755 -1.7634 -0.4709
 1002MOL0     H35266   5.013   9.199   1.102 -0.6036 -1.7198  0.4670
 1002MOL0     H35267   4.999   9.284   0.957  2.5464 -0.6636  2.8071
 1002MOL0     H35268   5.034   8.867   0.846 -2.6147 -1.3926  3.5637
 1002MOL0     H35269   4.538   8.972   1.308  2.3206  1.3370  0.7458
 1002MOL0     H35270   4.312   8.999   1.275 -1.0330  0.7822 -1.2876
 1003MOL0     O35271   5.339   8.946  10.670 -0.2352  0.0645 -0.0427
 1003MOL0     C35272   5.456   8.932  10.628 -0.0151  0.8589 -0.5766
 1003MOL0     O35273   5.563   9.009  10.674  0.3530  0.2162  0.1024
 1003MOL0     C35274   5.548   9.092  10.780  0.2747 -0.5242 -0.4717
 1003MOL0     C35275   5.580   9.232  10.759  0.7457  0.5222 -0.0325
 1003MOL0     C35276   5.568   9.321  10.865 -0.0064 -0.1645 -0.1021
 1003MOL0     C35277   5.514   9.271  10.994 -0.0050 -0.2571  0.0686
 1003MOL0     O35278   5.509   9.343  11.108 -0.4031  0.2781 -0.6770
 1003MOL0     C35279   5.386   9.400  11.148 -0.0530  0.3328 -0.3707
 1003MOL0     C35280   5.295   9.303  11.220  1.0660  0.4265 -0.2154
 1003MOL0     C35281   5.189   9.382  11.294 -0.5481  0.0104 -0.0973
 1003MOL0     C35282   5.249   9.457  11.423  0.5484  0.3257  0.4743
 1003MOL0     C35283   5.126   9.505  11.501  0.3421 -0.4974  0.0007
 1003MOL0     C35284   5.163   9.572  11.631  0.4209 -0.2539 -0.8746
 1003MOL0     C35285   5.038   9.597  11.720  0.3254  0.9681  0.1732
 1003MOL0     C35286   4.974   9.735  11.688  0.1036  0.1487  0.0722
 1003MOL0     N35287   4.879   9.766  11.789  0.1557  0.3790  1.3899
 1003MOL0     C35288   4.748   9.719  11.810  0.1803 -0.0315 -0.4877
 1003MOL0     C35289   4.700   9.789  11.919 -0.0837 -0.6228  0.5666
 1003MOL0     C35290   4.564   9.776  11.972 -0.8537  0.0542 -0.4056
 1003MOL0     C35291   4.463   9.841  11.876  0.7106  0.8859 -0.0284
 1003MOL0     C35292   4.334   9.846  11.957 -0.5845  0.9216 -0.1786
 1003MOL0     C35293   4.207   9.813  11.887 -0.0122 -0.0489 -0.1121
 1003MOL0     O35294   4.194   9.905  11.779  0.7606 -0.5333  0.2680
 1003MOL0     C35295   4.068   9.923  11.730  0.1486 -0.2116 -0.2189
 1003MOL0     C35296   4.055  10.040  11.669  0.1291 -0.1031 -0.0120
 1003MOL0     C35297   3.923  10.086  11.631  0.1169  0.4841  0.0484
 1003MOL0     C35298   3.922  10.227  11.571  0.4206  0.2848 -0.4089
 1003MOL0     C35299   3.809  10.001  11.648 -0.0473  0.1321  0.6903
 1003MOL0     C35300   3.669  10.040  11.601 -0.5627 -0.4711 -0.4131
 1003MOL0     O35301   3.655  10.170  11.563 -0.1206 -0.0890 -0.2771
 1003MOL0     C35302   3.542  10.218  11.505  0.3298 -0.0971  0.9944
 1003MOL0     C35303   3.474  10.322  11.560 -0.1149 -0.0632  0.5166
 1003MOL0     C35304   3.366  10.383  11.498 -0.1485 -0.3750  0.4547
 1003MOL0     C35305   3.337  10.350  11.362 -0.0304  0.4347  1.3227
 1003MOL0     O35306   3.254  10.427  11.283  0.3023 -0.0303  0.3888
 1003MOL0     C35307   3.282  10.575  11.301  0.2926 -0.8386  1.2850
 1003MOL0     C35308   3.192  10.646  11.210  0.0578 -0.2350  0.6304
 1003MOL0     C35309   3.047  10.607  11.243 -0.2356  0.8772 -0.1599
 1003MOL0     C35310   2.957  10.684  11.146  0.5344 -0.2847  0.2327
 1003MOL0     C35311   2.810  10.629  11.154 -0.0933  0.1213 -0.1024
 1003MOL0     C35312   2.732  10.653  11.028  0.7319 -0.1480 -0.6273
 1003MOL0     C35313   2.590  10.643  11.064 -0.1989  0.1307 -0.1084
 1003MOL0     C35314   2.508  10.649  10.930  0.3013  0.6177  0.2354
 1003MOL0    Cl35315   2.502  10.813  10.857 -0.6102 -0.3356 -0.3846
 1003MOL0     C35316   3.399  10.234  11.312 -0.4410 -0.0766 -0.0108
 1003MOL0     C35317   3.509  10.173  11.376 -0.1024 -0.1212 -0.2698
 1003MOL0     O35318   3.581   9.956  11.598  0.3874  0.1984 -0.2643
 1003MOL0     C35319   3.831   9.870  11.696  0.0875  0.2160 -0.1375
 1003MOL0     C35320   3.954   9.835  11.737 -0.4044  0.6402 -0.5102
 1003MOL0     N35321   4.802   9.870  11.963 -0.1899  0.3992  0.3382
 1003MOL0     N35322   4.901   9.859  11.883  0.0691 -0.2564 -0.7468
 1003MOL0     C35323   5.499   9.136  11.018 -0.7678  0.3579 -0.4819
 1003MOL0     C35324   5.511   9.041  10.910 -0.4708 -0.8198  0.3504
 1003MOL0     C35325   5.478   8.819  10.535  0.4785  0.0148 -0.1213
 1003MOL0     C35326   5.593   8.822  10.452  0.4290 -0.0116 -0.0974
 1003MOL0     C35327   5.610   8.725  10.362  0.6080  0.0163  0.1803
 1003MOL0     C35328   5.513   8.618  10.347  0.2190 -0.1533  0.3958
 1003MOL0     O35329   5.510   8.513  10.254 -0.2294  0.8072  0.5758
 1003MOL0     C35330   5.609   8.519  10.152 -0.7684 -0.6541 -0.8240
 1003MOL0     C35331   5.727   8.437  10.210  0.1267  0.2839 -0.3846
 1003MOL0     C35332   5.690   8.288  10.190 -0.7862  0.1659  0.2509
 1003MOL0     C35333   5.667   8.231  10.048  0.3683  0.0329  0.2813
 1003MOL0     C35334   5.787   8.249   9.969  0.2268  0.5302  0.0001
 1003MOL0     C35335   5.882   8.267   9.897  0.2324  0.1032 -0.0055
 1003MOL0     C35336   5.409   8.614  10.440 -0.3691  0.2522 -0.3928
 1003MOL0     C35337   5.384   8.713  10.534  0.1065 -0.3288 -0.4125
 1003MOL0     H35338   5.606   9.275  10.662  1.1558  1.9099  0.6643
 1003MOL0     H35339   5.588   9.427  10.856 -0.8436 -0.0690 -1.0924
 1003MOL0     H35340   5.401   9.490  11.207  1.9549  0.7406 -1.4457
 1003MOL0     H35341   5.329   9.427  11.058 -0.7796 -1.6575 -0.5829
 1003MOL0     H35342   5.243   9.240  11.147  2.7285 -1.5088  0.1875
 1003MOL0     H35343   5.344   9.241  11.296 -0.5098  2.7359  2.9423
 1003MOL0     H35344   5.144   9.456  11.227  0.1904 -0.6549 -1.3432
 1003MOL0     H35345   5.105   9.316  11.320 -2.3012  0.5979 -3.6677
 1003MOL0     H35346   5.291   9.380  11.489  1.2502  2.3863  2.5558
 1003MOL0     H35347   5.317   9.541  11.407  1.6382 -0.2452  1.8969
 1003MOL0     H35348   5.061   9.574  11.447 -1.2561 -1.7644  0.2384
 1003MOL0     H35349   5.067   9.415  11.517  0.8700 -1.3850 -2.6399
 1003MOL0     H35350   5.237   9.512  11.685  0.5464  0.0449 -0.7120
 1003MOL0     H35351   5.214   9.668  11.618  1.0027 -0.5822 -1.0424
 1003MOL0     H35352   4.968   9.515  11.704  3.0135 -1.5531  0.5335
 1003MOL0     H35353   5.061   9.587  11.827  2.7387 -2.1852 -0.5194
 1003MOL0     H35354   4.924   9.734  11.590  2.2691 -2.4207 -1.1490
 1003MOL0     H35355   5.054   9.810  11.676  1.8875 -1.2710  2.2218
 1003MOL0     H35356   4.701   9.635  11.760 -0.5650  0.5671 -0.8020
 1003MOL0     H35357   4.544   9.671  11.993 -0.0583 -0.1059 -0.4111
 1003MOL0     H35358   4.564   9.825  12.070 -1.8071 -2.9349  1.2062
 1003MOL0     H35359   4.441   9.796  11.779 -1.1133 -0.4836  0.9680
 1003MOL0     H35360   4.491   9.947  11.868  1.5138  0.8436  1.7042
 1003MOL0     H35361   4.329   9.945  12.002  2.9675  1.7669 -1.3326
 1003MOL0     H35362   4.339   9.775  12.040 -2.3927 -1.9720 -2.3288
 1003MOL0     H35363   4.122   9.810  11.956  0.1742 -1.1681  0.0860
 1003MOL0     H35364   4.198   9.713  11.843 -3.2788  0.4373 -0.8146
 1003MOL0     H35365   4.147  10.096  11.654  0.2437 -0.2031  0.3043
 1003MOL0     H35366   3.867  10.231  11.476  1.9046 -0.3049 -1.3246
 1003MOL0     H35367   3.872  10.295  11.640 -0.8359 -1.2335  0.2327
 1003MOL0     H35368   4.018  10.276  11.549 -0.1050  1.0358 -1.1083
 1003MOL0     H35369   3.509  10.354  11.657 -1.3133 -0.4219  1.0869
 1003MOL0     H35370   3.330  10.479  11.532 -1.6940 -1.2135  1.2717
 1003MOL0     H35371   3.272  10.619  11.400  1.5728  0.0533  1.0370
 1003MOL0     H35372   3.380  10.601  11.259 -2.8458  5.1526 -4.1415
 1003MOL0     H35373   3.210  10.752  11.231 -0.6123  0.3793 -1.5718
 1003MOL0     H35374   3.220  10.618  11.108  4.0265  1.1986  1.1466
 1003MOL0     H35375   3.012  10.622  11.345 -0.6534 -0.4525 -0.0821
 1003MOL0     H35376   3.035  10.499  11.228 -1.2435  1.0577 -0.7476
 1003MOL0     H35377   2.970  10.792  11.156  2.5329 -0.5168  0.5029
 1003MOL0     H35378   2.999  10.666  11.046 -0.5100 -0.1626 -0.2414
 1003MOL0     H35379   2.768  10.674  11.245  0.8625 -0.0776  0.4510
 1003MOL0     H35380   2.820  10.520  11.162 -0.5463 -0.2932 -3.7353
 1003MOL0     H35381   2.753  10.756  10.998  0.4527 -0.4135 -1.7619
 1003MOL0     H35382   2.764  10.589  10.946 -0.0338 -2.7905  0.9874
 1003MOL0     H35383   2.557  10.716  11.137 -1.9669 -2.5268  1.9473
 1003MOL0     H35384   2.569  10.550  11.118 -0.7438  1.4837  2.1328
 1003MOL0     H35385   2.406  10.614  10.950  0.6072 -0.0079  0.7612
 1003MOL0     H35386   2.548  10.571  10.865  0.0804  1.5511 -1.0385
 1003MOL0     H35387   3.365  10.197  11.216  0.0254  0.6213 -0.4554
 1003MOL0     H35388   3.566  10.096  11.326  0.1358  1.2276 -2.1793
 1003MOL0     H35389   3.750   9.801  11.717  1.0760 -1.1886 -0.7310
 1003MOL0     H35390   3.965   9.738  11.783  0.1241  1.0595  0.2852
 1003MOL0     H35391   5.462   9.095  11.112 -0.0599  2.1764  0.6276
 1003MOL0     H35392   5.501   8.934  10.922  0.8990 -0.9755  0.2549
 1003MOL0     H35393   5.662   8.905  10.448 -1.4141  1.5317 -1.6720
 1003MOL0     H35394   5.691   8.739  10.291 -1.0126  1.5088 -1.5010
 1003MOL0     H35395   5.580   8.483  10.052 -1.4007 -2.0256 -0.1672
 1003MOL0     H35396   5.638   8.623  10.132 -2.1629  0.9179  4.0305
 1003MOL0     H35397   5.758   8.442  10.315 -1.6915 -0.0147  0.2001
 1003MOL0     H35398   5.819   8.463  10.157  1.6138 -1.5559  1.1567
 1003MOL0     H35399   5.600   8.260  10.244 -0.0377  0.5230  1.7172
 1003MOL0     H35400   5.769   8.229  10.237 -1.0524  0.8836  1.6310
 1003MOL0     H35401   5.590   8.273   9.983  1.4147  1.4294 -0.0999
 1003MOL0     H35402   5.647   8.123  10.048 -3.7197  0.6429  0.3339
 1003MOL0     H35403   5.970   8.262   9.835 -0.1317  0.5111 -0.5638
 1003MOL0     H35404   5.343   8.529  10.424 -0.7417  0.8723 -2.5217
 1003MOL0     H35405   5.294   8.706  10.594  0.5031  0.4066  0.2902
 1004MOL0     O35406   0.431  10.665   4.727  0.1970  0.7460  0.7427
 1004MOL0     C35407   0.380  10.720   4.633  0.0560 -0.0260  0.2680
 1004MOL0     O35408   0.248  10.739   4.617  0.4264 -0.3004  0.2026
 1004MOL0     C35409   0.158  10.669   4.696  0.0580 -0.2399  0.1824
 1004MOL0     C35410   0.062  10.738   4.771  0.2809 -0.1058 -0.7325
 1004MOL0     C35411  -0.056  10.675   4.822 -0.6895  0.8597  0.6624
 1004MOL0     C35412  -0.063  10.533   4.812  0.4949 -0.7914  0.5148
 1004MOL0     O35413  -0.178  10.465   4.846  0.5238 -0.4340 -0.5884
 1004MOL0     C35414  -0.247  10.510   4.964  0.7641 -0.0095 -0.0974
 1004MOL0     C35415  -0.329  10.390   5.024  0.0170  0.4087  0.0938
 1004MOL0     C35416  -0.384  10.430   5.158  0.2366 -0.4090 -0.8715
 1004MOL0     C35417  -0.456  10.318   5.246 -0.0879 -0.8318  0.0664
 1004MOL0     C35418  -0.572  10.248   5.174 -0.2496  0.1524 -0.4323
 1004MOL0     C35419  -0.688  10.338   5.135 -1.0557  0.1799 -0.7326
 1004MOL0     C35420  -0.798  10.254   5.070  0.7435 -0.2119 -0.3755
 1004MOL0     C35421  -0.916  10.342   5.063  0.0092  0.7097  1.0878
 1004MOL0     N35422  -1.030  10.267   4.999  0.1576 -0.4838 -0.1741
 1004MOL0     C35423  -1.121  10.324   4.920 -0.5888  0.0455 -0.5107
 1004MOL0     C35424  -1.216  10.232   4.903 -0.4884 -1.0964 -0.1201
 1004MOL0     C35425  -1.342  10.266   4.824  0.8362  0.6261 -0.1251
 1004MOL0     C35426  -1.444  10.364   4.894  0.4780 -0.6664  0.6185
 1004MOL0     C35427  -1.548  10.403   4.787  0.4662 -0.6184  0.3978
 1004MOL0     C35428  -1.650  10.287   4.747 -0.3495 -0.2034  0.4271
 1004MOL0     O35429  -1.743  10.276   4.854 -0.0462  0.3789 -0.6519
 1004MOL0     C35430  -1.846  10.189   4.830  0.3338  0.5944  0.2815
 1004MOL0     C35431  -1.868  10.110   4.723 -0.0300 -0.2885  0.2677
 1004MOL0     C35432  -1.983  10.034   4.713  0.3642 -0.0552  0.0978
 1004MOL0     C35433  -1.995   9.944   4.581  0.2826 -0.5709  0.4860
 1004MOL0     C35434  -2.089  10.035   4.814 -0.6880  0.3380  0.0665
 1004MOL0     C35435  -2.214   9.955   4.817 -0.1251  0.3818  0.3551
 1004MOL0     O35436  -2.322  10.000   4.895 -0.0711  0.2239  0.3472
 1004MOL0     C35437  -2.440   9.933   4.926  0.3575  0.0114 -0.0842
 1004MOL0     C35438  -2.530  10.008   5.009 -0.9086  0.1504  0.3394
 1004MOL0     C35439  -2.662   9.971   5.031 -0.4855  0.3381 -0.0472
 1004MOL0     C35440  -2.698   9.844   4.984  1.3467 -0.9629  0.4665
 1004MOL0     O35441  -2.823   9.779   5.009 -0.5747  0.2931  0.2748
 1004MOL0     C35442  -2.935   9.861   4.999  0.4325 -0.0284 -0.1089
 1004MOL0     C35443  -2.948   9.911   4.856 -0.0315  0.0253  0.7478
 1004MOL0     C35444  -3.087   9.979   4.831 -0.7952 -0.2395 -0.9263
 1004MOL0     C35445  -3.109  10.095   4.931 -0.2516 -0.0062 -0.3934
 1004MOL0     C35446  -3.238  10.166   4.894  0.1487 -0.6093  0.2281
 1004MOL0     C35447  -3.356  10.077   4.928  0.0398 -0.7523 -0.4602
 1004MOL0     C35448  -3.478  10.160   4.921 -0.7784  0.2031 -0.6956
 1004MOL0     C35449  -3.595  10.074   4.940  0.3326  0.1510 -0.1368
 1004MOL0    Cl35450  -3.724  10.181   5.004 -0.1934 -0.1123  0.2580
 1004MOL0     C35451  -2.605   9.764   4.912 -0.8674  0.2677 -0.4743
 1004MOL0     C35452  -2.481   9.808   4.881  0.6865 -0.0314 -0.5858
 1004MOL0     O35453  -2.216   9.858   4.748 -0.4374  0.4412  0.5704
 1004MOL0     C35454  -2.062  10.119   4.916 -0.0983  0.0541 -0.4371
 1004MOL0     C35455  -1.945  10.187   4.922 -0.7276 -0.6384 -0.3453
 1004MOL0     N35456  -1.172  10.114   4.977 -0.2799  0.7429 -0.1061
 1004MOL0     N35457  -1.062  10.143   5.039 -0.4337  0.6340  0.4856
 1004MOL0     C35458   0.041  10.472   4.742  0.2695 -0.3394  0.3310
 1004MOL0     C35459   0.151  10.530   4.678  0.0616 -1.0792 -0.1421
 1004MOL0     C35460   0.465  10.778   4.523 -0.1278 -0.3115  1.2850
 1004MOL0     C35461   0.413  10.855   4.421  0.7835  0.4209 -0.5606
 1004MOL0     C35462   0.479  10.890   4.307  0.8501 -0.4772  0.0821
 1004MOL0     C35463   0.613  10.848   4.291 -0.2691 -0.0338 -0.2776
 1004MOL0     O35464   0.688  10.872   4.178 -0.6883  0.2018  0.6389
 1004MOL0     C35465   0.714  11.014   4.156  0.1785 -0.1077 -0.7825
 1004MOL0     C35466   0.837  11.033   4.069  1.3171 -0.0253  0.0393
 1004MOL0     C35467   0.976  10.991   4.124  1.0558 -0.7789 -0.3657
 1004MOL0     C35468   1.078  10.978   4.006  0.6185 -0.2350 -0.0096
 1004MOL0     C35469   1.093  11.109   3.939  0.1748 -0.6137  0.2762
 1004MOL0     C35470   1.093  11.209   3.869 -0.1443  0.9419 -0.0411
 1004MOL0     C35471   0.669  10.766   4.393 -0.0592  0.1114  0.4729
 1004MOL0     C35472   0.595  10.737   4.509 -0.0243 -0.4956 -0.0694
 1004MOL0     H35473   0.079  10.845   4.777  0.1840 -0.1225 -0.1632
 1004MOL0     H35474  -0.133  10.735   4.870  1.0594  2.6246  1.4115
 1004MOL0     H35475  -0.177  10.535   5.044 -0.6529  1.2759  0.8009
 1004MOL0     H35476  -0.317  10.594   4.959  0.2384 -0.3987  0.4984
 1004MOL0     H35477  -0.411  10.359   4.958 -0.9019 -2.8683  2.5330
 1004MOL0     H35478  -0.263  10.304   5.040  0.3369  0.0513 -2.5969
 1004MOL0     H35479  -0.301  10.462   5.222 -0.3268 -2.0779  0.7820
 1004MOL0     H35480  -0.463  10.506   5.151  2.0286  1.9275  1.8319
 1004MOL0     H35481  -0.390  10.238   5.280 -0.6433 -0.8955  1.0399
 1004MOL0     H35482  -0.498  10.373   5.331  0.0332 -2.3335  1.1418
 1004MOL0     H35483  -0.529  10.194   5.089  1.6352  2.6611 -1.2242
 1004MOL0     H35484  -0.605  10.173   5.245  0.6829 -0.0978 -0.2551
 1004MOL0     H35485  -0.731  10.389   5.223  0.1841  3.6984 -1.9857
 1004MOL0     H35486  -0.660  10.412   5.059  0.9403  1.3651  1.0316
 1004MOL0     H35487  -0.774  10.220   4.969 -0.5447 -0.8741 -0.4789
 1004MOL0     H35488  -0.826  10.172   5.137 -2.9021  1.2298  0.0516
 1004MOL0     H35489  -0.888  10.417   4.988  3.1259 -1.0010  0.3429
 1004MOL0     H35490  -0.943  10.394   5.154  1.4521 -1.3942  2.8221
 1004MOL0     H35491  -1.126  10.423   4.876 -0.0926  0.3937  0.2034
 1004MOL0     H35492  -1.315  10.296   4.722 -0.1473 -1.6303 -1.1126
 1004MOL0     H35493  -1.396  10.177   4.791 -0.6433  1.5474 -0.3031
 1004MOL0     H35494  -1.380  10.449   4.918 -0.8454  1.1854 -2.0000
 1004MOL0     H35495  -1.491  10.326   4.985 -1.2616  2.1642  0.9945
 1004MOL0     H35496  -1.502  10.443   4.696  1.9421 -2.3359  0.3246
 1004MOL0     H35497  -1.609  10.484   4.827 -2.1708 -1.2850 -1.9113
 1004MOL0     H35498  -1.593  10.195   4.736  0.5917  0.3885  0.2069
 1004MOL0     H35499  -1.700  10.310   4.653 -3.8432 -0.9707  1.9488
 1004MOL0     H35500  -1.792  10.114   4.645  1.3333 -2.3639  1.3932
 1004MOL0     H35501  -1.908   9.950   4.516 -0.3232 -0.9372 -0.3845
 1004MOL0     H35502  -2.021   9.840   4.603 -0.6613  0.3325  4.4929
 1004MOL0     H35503  -2.076   9.991   4.524  3.1403  1.8800 -1.8915
 1004MOL0     H35504  -2.497  10.104   5.046 -0.7977  0.2038  0.1045
 1004MOL0     H35505  -2.729  10.035   5.088 -1.6959 -1.1467  0.2627
 1004MOL0     H35506  -3.025   9.802   5.018  3.4888 -4.8895  0.9475
 1004MOL0     H35507  -2.932   9.946   5.067 -0.5458 -0.0926  0.0226
 1004MOL0     H35508  -2.868   9.979   4.827  0.5412 -0.8459  0.2469
 1004MOL0     H35509  -2.933   9.826   4.788 -0.6920  0.6465 -0.1915
 1004MOL0     H35510  -3.160   9.900   4.850 -0.5112  0.1340  2.2202
 1004MOL0     H35511  -3.084  10.005   4.725  3.4015 -0.8191 -1.1170
 1004MOL0     H35512  -3.103  10.076   5.039  0.2807 -0.9758 -0.5809
 1004MOL0     H35513  -3.019  10.155   4.912 -0.3244  0.0688 -0.4982
 1004MOL0     H35514  -3.239  10.180   4.785 -0.2675  0.0068  0.3078
 1004MOL0     H35515  -3.244  10.262   4.945 -0.3101 -0.9567  0.8350
 1004MOL0     H35516  -3.367   9.997   4.854  0.1810 -2.4185  1.2453
 1004MOL0     H35517  -3.340  10.045   5.031 -1.0544 -2.5925 -0.8234
 1004MOL0     H35518  -3.478  10.195   4.818 -2.2402  1.8488 -0.1856
 1004MOL0     H35519  -3.484  10.236   5.000 -6.9939 -1.2255  0.7696
 1004MOL0     H35520  -3.558   9.994   5.005 -0.4623 -1.2295 -1.3354
 1004MOL0     H35521  -3.623  10.041   4.840  1.2125  0.4247 -0.4787
 1004MOL0     H35522  -2.627   9.663   4.880  0.1344  0.5607 -2.2281
 1004MOL0     H35523  -2.412   9.751   4.819  1.4874  2.1994 -1.8767
 1004MOL0     H35524  -2.127  10.116   5.003 -0.0645 -0.2631 -0.4227
 1004MOL0     H35525  -1.923  10.248   5.009  2.4571  0.1515 -1.5794
 1004MOL0     H35526   0.033  10.364   4.734  1.9344 -0.4565 -0.1246
 1004MOL0     H35527   0.230  10.483   4.621  1.6726  0.3144  0.8475
 1004MOL0     H35528   0.306  10.871   4.424  0.6601 -0.5122  0.3821
 1004MOL0     H35529   0.434  10.955   4.233  1.3994 -1.3994 -1.0991
 1004MOL0     H35530   0.632  11.068   4.108 -2.0303 -0.2813  2.4959
 1004MOL0     H35531   0.714  11.065   4.252 -3.5506 -0.1869 -0.6068
 1004MOL0     H35532   0.848  11.138   4.038  2.0490  0.7424  2.6502
 1004MOL0     H35533   0.818  10.966   3.985 -5.6152 -1.0042  1.7606
 1004MOL0     H35534   0.972  10.892   4.169  4.3299 -0.0219  1.9563
 1004MOL0     H35535   1.017  11.055   4.204  2.5498 -2.8176  0.5850
 1004MOL0     H35536   1.038  10.902   3.938 -0.3701  0.6869 -0.4795
 1004MOL0     H35537   1.173  10.945   4.048  0.6861  1.7127  1.4542
 1004MOL0     H35538   1.089  11.295   3.805  3.0556  0.7755 -0.6232
 1004MOL0     H35539   0.773  10.737   4.386 -0.2463 -0.2190 -1.8318
 1004MOL0     H35540   0.637  10.676   4.589 -0.9944 -1.0868 -0.0006
 1005MOL0     O35541   3.095   3.006   5.004  0.7565  0.7627  0.5629
 1005MOL0     C35542   3.205   3.051   4.982  0.5737  0.5491  0.1471
 1005MOL0     O35543   3.288   3.109   5.078 -0.2809  0.0634 -0.6474
 1005MOL0     C35544   3.252   3.125   5.215  0.6085 -0.3275  0.3452
 1005MOL0     C35545   3.122   3.128   5.276 -0.7152  0.0783  0.2934
 1005MOL0     C35546   3.113   3.128   5.414  0.2931  0.0913  0.3418
 1005MOL0     C35547   3.231   3.139   5.494  0.4399  0.4520  0.6753
 1005MOL0     O35548   3.220   3.130   5.630 -0.1491 -0.3774 -0.7643
 1005MOL0     C35549   3.088   3.115   5.689 -0.1457  0.5906 -1.0788
 1005MOL0     C35550   3.101   3.091   5.844 -0.1881  0.1079 -0.1729
 1005MOL0     C35551   2.968   3.131   5.904  0.3352  1.0561  0.0457
 1005MOL0     C35552   2.839   3.037   5.910  0.3465 -0.2345 -0.5649
 1005MOL0     C35553   2.869   2.921   6.004  0.1366 -0.8770 -0.1763
 1005MOL0     C35554   2.742   2.839   6.018  0.4219 -0.2389  0.1493
 1005MOL0     C35555   2.771   2.708   6.082 -0.2680  0.1641  0.1938
 1005MOL0     C35556   2.640   2.639   6.121 -0.5659 -0.0346 -0.0016
 1005MOL0     N35557   2.578   2.711   6.238 -0.5340  0.0493 -0.0893
 1005MOL0     C35558   2.609   2.688   6.368  0.3628 -0.1925 -0.7575
 1005MOL0     C35559   2.517   2.755   6.444  0.6432  0.5502  0.0387
 1005MOL0     C35560   2.504   2.748   6.596 -0.1634  0.3502 -0.0198
 1005MOL0     C35561   2.405   2.854   6.656 -0.4185  1.0469  0.2606
 1005MOL0     C35562   2.373   2.828   6.796  0.1035 -0.2368 -0.3332
 1005MOL0     C35563   2.256   2.729   6.814 -0.2511  0.2244 -0.4726
 1005MOL0     O35564   2.280   2.592   6.796  0.7673  0.2030 -0.3170
 1005MOL0     C35565   2.168   2.517   6.779 -0.4580  1.1925  0.9637
 1005MOL0     C35566   2.081   2.490   6.890 -0.6018 -0.4102 -0.0848
 1005MOL0     C35567   1.967   2.411   6.874  0.6225 -0.2473 -1.1768
 1005MOL0     C35568   1.877   2.402   6.997 -0.3193 -0.9766  0.3445
 1005MOL0     C35569   1.939   2.357   6.747  0.5225  1.2879 -0.2283
 1005MOL0     C35570   1.799   2.303   6.714  0.6826 -0.4294  0.2810
 1005MOL0     O35571   1.731   2.386   6.627 -0.2722  0.3306  0.1461
 1005MOL0     C35572   1.621   2.343   6.565 -0.5520  0.0279  0.1596
 1005MOL0     C35573   1.635   2.291   6.440 -0.1461  0.3010  0.0750
 1005MOL0     C35574   1.526   2.234   6.366  0.5512 -0.3705 -0.2817
 1005MOL0     C35575   1.398   2.225   6.423 -0.1137  0.1603 -0.9703
 1005MOL0     O35576   1.287   2.166   6.372  0.1955  0.3435 -0.2596
 1005MOL0     C35577   1.283   2.140   6.230 -0.1883 -1.5359  0.4025
 1005MOL0     C35578   1.160   2.064   6.198 -0.4381 -0.1221  0.2459
 1005MOL0     C35579   1.144   1.937   6.276 -0.1597  0.2645  0.0606
 1005MOL0     C35580   1.018   1.860   6.220 -0.4595 -0.5890  1.0505
 1005MOL0     C35581   1.033   1.806   6.080  0.5998 -0.5513  0.2927
 1005MOL0     C35582   0.922   1.698   6.046  0.0079 -0.1853 -0.1358
 1005MOL0     C35583   0.925   1.658   5.899 -0.1417  0.4724  0.3606
 1005MOL0     C35584   0.850   1.529   5.868  0.1937 -0.8389  0.4948
 1005MOL0    Cl35585   0.679   1.541   5.920  0.2761 -0.6048 -0.2687
 1005MOL0     C35586   1.388   2.275   6.548  0.1055 -1.0673 -0.5834
 1005MOL0     C35587   1.492   2.331   6.622  0.0617  0.9293  1.2453
 1005MOL0     O35588   1.756   2.198   6.765 -0.0852  0.4985 -0.0459
 1005MOL0     C35589   2.027   2.369   6.643  0.3581 -0.9058 -0.7502
 1005MOL0     C35590   2.139   2.445   6.660  0.5208 -0.1195 -0.4203
 1005MOL0     N35591   2.437   2.824   6.355  0.0230  0.1292 -0.0002
 1005MOL0     N35592   2.472   2.793   6.237  0.1578 -0.6964 -0.4154
 1005MOL0     C35593   3.349   3.146   5.428  0.3891 -0.6939 -0.2231
 1005MOL0     C35594   3.365   3.144   5.292  0.2455  0.1463 -0.8092
 1005MOL0     C35595   3.257   3.047   4.841 -0.1470 -0.4262  0.2334
 1005MOL0     C35596   3.196   2.967   4.741  0.3095 -0.5061 -0.9070
 1005MOL0     C35597   3.257   2.966   4.612 -0.0674  0.7133  0.6785
 1005MOL0     C35598   3.376   3.024   4.584 -0.3138 -0.2205 -1.3818
 1005MOL0     O35599   3.424   3.016   4.457  0.0196 -0.3819  0.4074
 1005MOL0     C35600   3.566   3.036   4.432 -0.0045 -0.8667 -0.3330
 1005MOL0     C35601   3.607   3.031   4.285 -0.7260 -0.3184 -0.5823
 1005MOL0     C35602   3.510   3.084   4.173 -0.2479  0.2426 -0.2966
 1005MOL0     C35603   3.575   3.100   4.037 -0.2899 -0.2529  0.0976
 1005MOL0     C35604   3.614   2.967   3.984  0.5201  0.5747  0.3510
 1005MOL0     C35605   3.643   2.863   3.924  1.2206  0.6662  0.1662
 1005MOL0     C35606   3.447   3.089   4.692  0.0439  0.1159  0.6416
 1005MOL0     C35607   3.382   3.111   4.817 -0.2784 -0.5451  0.7969
 1005MOL0     H35608   3.033   3.134   5.215 -0.8289  1.3769  0.5578
 1005MOL0     H35609   3.014   3.121   5.457  0.2788 -1.8995  0.0519
 1005MOL0     H35610   3.040   3.212   5.677  2.4877  2.6371  2.7458
 1005MOL0     H35611   3.028   3.031   5.652 -1.3121  0.3044  1.2526
 1005MOL0     H35612   3.134   2.992   5.877 -1.0348 -0.1789 -0.1573
 1005MOL0     H35613   3.169   3.168   5.883 -0.4630 -0.5872  1.7759
 1005MOL0     H35614   2.994   3.167   6.004 -0.1382  0.2692  0.4600
 1005MOL0     H35615   2.934   3.220   5.850  1.2945 -0.7535 -3.9211
 1005MOL0     H35616   2.762   3.102   5.950 -1.3903 -0.9804 -2.5234
 1005MOL0     H35617   2.808   3.005   5.810  1.9825 -2.6564 -0.4065
 1005MOL0     H35618   2.953   2.864   5.963  2.6920  4.0608 -2.7750
 1005MOL0     H35619   2.896   2.963   6.102  1.0330 -2.3746  0.2625
 1005MOL0     H35620   2.673   2.907   6.070  3.0643  0.9861  2.2498
 1005MOL0     H35621   2.694   2.816   5.922  1.7050  0.3280 -0.6556
 1005MOL0     H35622   2.821   2.649   6.005 -0.3826  0.6489 -0.2574
 1005MOL0     H35623   2.846   2.724   6.160  1.5975  0.6758 -1.6057
 1005MOL0     H35624   2.652   2.536   6.154  1.0489  0.2529  0.3879
 1005MOL0     H35625   2.582   2.637   6.028  0.1896 -0.0583 -0.4841
 1005MOL0     H35626   2.680   2.613   6.402  1.5039  1.2236  0.1200
 1005MOL0     H35627   2.466   2.648   6.618 -0.8302  0.3911 -0.9293
 1005MOL0     H35628   2.605   2.759   6.636  0.4897  1.5147 -1.8369
 1005MOL0     H35629   2.320   2.845   6.589 -0.4919  0.2631  0.4443
 1005MOL0     H35630   2.451   2.953   6.649  1.0678  0.3147 -0.8828
 1005MOL0     H35631   2.339   2.925   6.834 -0.4131 -0.1701 -0.9468
 1005MOL0     H35632   2.462   2.794   6.850  0.1703 -0.5797 -0.6563
 1005MOL0     H35633   2.171   2.756   6.751 -0.9503  1.2027  0.8448
 1005MOL0     H35634   2.214   2.747   6.914  0.9901 -1.8774  0.5076
 1005MOL0     H35635   2.089   2.524   6.992 -1.3367 -1.0208  0.1865
 1005MOL0     H35636   1.880   2.299   7.033  2.8658 -1.3489 -0.6749
 1005MOL0     H35637   1.901   2.472   7.078  0.6220  2.3769 -2.5578
 1005MOL0     H35638   1.776   2.428   6.964 -0.4588 -2.2573 -0.2814
 1005MOL0     H35639   1.737   2.281   6.403  0.9590  1.1546  2.6828
 1005MOL0     H35640   1.541   2.182   6.272 -0.1380 -2.7610  0.8578
 1005MOL0     H35641   1.274   2.237   6.181 -1.3881 -2.3107 -1.0035
 1005MOL0     H35642   1.364   2.080   6.188  0.1128  0.0965 -1.5053
 1005MOL0     H35643   1.075   2.125   6.229 -0.5772 -0.4359  0.4865
 1005MOL0     H35644   1.154   2.053   6.089 -0.8250  2.9832 -0.1391
 1005MOL0     H35645   1.128   1.962   6.381 -0.9028  3.1699 -0.6352
 1005MOL0     H35646   1.238   1.882   6.265  0.0739  0.8185 -0.7862
 1005MOL0     H35647   0.993   1.778   6.288 -0.0348 -1.1159  0.5797
 1005MOL0     H35648   0.934   1.930   6.221  0.3847  0.5150 -0.5825
 1005MOL0     H35649   1.130   1.755   6.077  0.8944  0.0442 -1.5972
 1005MOL0     H35650   1.027   1.888   6.009  3.2434 -2.4578 -2.4098
 1005MOL0     H35651   0.934   1.609   6.108  1.0640 -0.2870 -0.4674
 1005MOL0     H35652   0.826   1.745   6.071 -0.0678 -0.8450  0.8583
 1005MOL0     H35653   1.028   1.624   5.883 -0.8285 -1.4201 -0.3170
 1005MOL0     H35654   0.902   1.740   5.830  0.7095  0.7167  0.3583
 1005MOL0     H35655   0.902   1.451   5.925  0.5895 -0.1267  1.1420
 1005MOL0     H35656   0.861   1.501   5.763  1.1686  0.1282  0.3226
 1005MOL0     H35657   1.289   2.259   6.589  0.2415 -0.2425  0.0921
 1005MOL0     H35658   1.479   2.379   6.719  0.0716  2.0629  0.6989
 1005MOL0     H35659   2.004   2.328   6.546  2.4540 -1.6069 -1.0002
 1005MOL0     H35660   2.198   2.440   6.569  0.8293 -2.2263 -0.1475
 1005MOL0     H35661   3.442   3.151   5.484  0.8683  3.3932 -1.1070
 1005MOL0     H35662   3.463   3.170   5.253  0.7072 -0.2265  0.0823
 1005MOL0     H35663   3.102   2.914   4.754  0.4128 -0.4537  0.1393
 1005MOL0     H35664   3.212   2.914   4.528 -0.5823 -1.4988  2.1999
 1005MOL0     H35665   3.601   3.130   4.475 -0.0605 -0.8386 -0.3474
 1005MOL0     H35666   3.610   2.956   4.491 -0.1751  0.0466  1.0665
 1005MOL0     H35667   3.647   2.933   4.259 -0.1213 -0.0057 -0.8681
 1005MOL0     H35668   3.686   3.107   4.285 -0.4285 -0.6265 -0.6080
 1005MOL0     H35669   3.480   3.179   4.219  1.9679  0.2575  1.2893
 1005MOL0     H35670   3.419   3.024   4.167 -0.2103  0.2165 -0.6038
 1005MOL0     H35671   3.664   3.162   4.053 -0.4315  0.5555 -1.9505
 1005MOL0     H35672   3.501   3.152   3.975  0.1890 -1.0373 -1.1603
 1005MOL0     H35673   3.674   2.777   3.868  1.4819  1.6946 -1.3344
 1005MOL0     H35674   3.542   3.141   4.689 -0.0862  0.3241 -0.4251
 1005MOL0     H35675   3.429   3.163   4.900 -2.1125  0.1855  1.4228
 1006MOL0     O35676   6.249   6.558   4.780 -0.1388  0.4228 -0.3191
 1006MOL0     C35677   6.305   6.666   4.771  0.9408  0.2793 -0.7218
 1006MOL0     O35678   6.243   6.785   4.763  0.0036 -0.5531 -0.3709
 1006MOL0     C35679   6.104   6.791   4.744 -0.3960  0.0741  0.0404
 1006MOL0     C35680   6.027   6.872   4.821  0.0886  0.7002  0.0216
 1006MOL0     C35681   5.891   6.886   4.800 -0.6532 -0.4532  0.5540
 1006MOL0     C35682   5.828   6.822   4.689  0.6462  0.2926 -1.0950
 1006MOL0     O35683   5.696   6.830   4.675  0.8305  0.7476 -0.6145
 1006MOL0     C35684   5.640   6.774   4.555  0.5216  0.1054 -0.0462
 1006MOL0     C35685   5.506   6.833   4.531 -0.2927  0.2285 -0.7836
 1006MOL0     C35686   5.439   6.790   4.399 -0.7883 -0.8547  0.0407
 1006MOL0     C35687   5.362   6.905   4.338  0.0181  0.2290 -0.8540
 1006MOL0     C35688   5.287   6.870   4.206 -0.2040 -0.1367 -0.0140
 1006MOL0     C35689   5.184   6.758   4.235  1.0339 -0.1736 -0.5964
 1006MOL0     C35690   5.073   6.753   4.123  0.1948 -0.4048  0.0025
 1006MOL0     C35691   5.018   6.610   4.109 -0.8354 -0.2798 -0.5253
 1006MOL0     N35692   4.936   6.560   4.212  0.0891  0.6077 -0.1742
 1006MOL0     C35693   4.860   6.622   4.309 -0.0726  0.1091 -0.3799
 1006MOL0     C35694   4.806   6.526   4.385 -0.6546  0.2541  0.2424
 1006MOL0     C35695   4.739   6.540   4.524 -0.2144 -0.0871  0.2320
 1006MOL0     C35696   4.587   6.500   4.507  0.5938 -0.6262 -0.7712
 1006MOL0     C35697   4.493   6.523   4.631 -0.0402  0.9749 -0.0829
 1006MOL0     C35698   4.350   6.523   4.590  0.9756 -0.1401  0.9714
 1006MOL0     O35699   4.274   6.567   4.703 -0.5914  0.0417  0.1088
 1006MOL0     C35700   4.146   6.619   4.685 -0.0208  0.8502  0.2217
 1006MOL0     C35701   4.101   6.697   4.787  0.6462 -0.2027 -0.5404
 1006MOL0     C35702   3.961   6.738   4.784  0.0312 -0.6988 -0.7188
 1006MOL0     C35703   3.921   6.825   4.898 -0.1022  0.1709 -0.0716
 1006MOL0     C35704   3.872   6.702   4.681 -0.2658  0.3560 -0.4042
 1006MOL0     C35705   3.732   6.743   4.674  0.6020  0.2516  0.0741
 1006MOL0     O35706   3.680   6.811   4.771  0.8500 -0.3514  0.0970
 1006MOL0     C35707   3.547   6.855   4.760  0.3193 -0.7060  0.6908
 1006MOL0     C35708   3.456   6.824   4.856  0.6326 -0.0092 -0.3069
 1006MOL0     C35709   3.322   6.854   4.849  0.8017 -0.8085  0.5580
 1006MOL0     C35710   3.279   6.938   4.750  0.1444 -0.2511 -0.0311
 1006MOL0     O35711   3.157   6.999   4.746 -0.1042 -0.0475 -0.2518
 1006MOL0     C35712   3.058   6.942   4.827  0.3342  0.4990 -0.5561
 1006MOL0     C35713   2.930   7.012   4.785  0.2997 -0.5526 -0.5624
 1006MOL0     C35714   2.931   7.162   4.824  0.1172  0.0324 -0.5905
 1006MOL0     C35715   2.815   7.236   4.754 -0.2928 -0.2802  0.2561
 1006MOL0     C35716   2.780   7.369   4.810 -0.5615  0.2988  0.1316
 1006MOL0     C35717   2.691   7.364   4.942  0.5900  0.2719  0.0635
 1006MOL0     C35718   2.631   7.505   4.986 -0.5207  0.2027 -0.3044
 1006MOL0     C35719   2.709   7.566   5.105 -0.3129 -0.4196 -0.0267
 1006MOL0    Cl35720   2.869   7.611   5.038 -0.0132  0.0483  0.3062
 1006MOL0     C35721   3.371   6.976   4.647 -0.1234 -0.2628  0.5797
 1006MOL0     C35722   3.502   6.925   4.644  0.1796 -0.1713 -0.7023
 1006MOL0     O35723   3.675   6.708   4.569  0.6932  0.0244 -0.2174
 1006MOL0     C35724   3.935   6.624   4.580  0.2190 -0.5803 -0.2479
 1006MOL0     C35725   4.067   6.586   4.577  0.1453  0.0239 -0.8369
 1006MOL0     N35726   4.850   6.403   4.339  0.8860 -0.0298 -0.3902
 1006MOL0     N35727   4.922   6.421   4.228 -0.4469 -0.3235  0.0603
 1006MOL0     C35728   5.914   6.742   4.603 -0.0132 -0.2633 -0.3030
 1006MOL0     C35729   6.050   6.734   4.634 -0.2743 -0.4971 -0.2863
 1006MOL0     C35730   6.447   6.656   4.770  0.5850 -0.0804  0.0160
 1006MOL0     C35731   6.519   6.775   4.743 -0.6338 -0.0237 -1.0870
 1006MOL0     C35732   6.656   6.777   4.738 -1.0242 -0.2540 -0.7589
 1006MOL0     C35733   6.736   6.656   4.758 -0.0889  0.5062  0.0712
 1006MOL0     O35734   6.874   6.661   4.757 -0.3674  0.2584 -0.0348
 1006MOL0     C35735   6.949   6.756   4.673  0.2534  0.4117 -0.4634
 1006MOL0     C35736   6.912   6.750   4.527 -0.1117  0.6095  0.4463
 1006MOL0     C35737   6.901   6.607   4.473 -0.0611  0.6354 -0.6884
 1006MOL0     C35738   6.841   6.625   4.327 -0.2968  0.6340  0.0392
 1006MOL0     C35739   6.700   6.607   4.345  0.1014 -0.3093  0.1569
 1006MOL0     C35740   6.587   6.560   4.355  0.3543  0.6223 -0.0630
 1006MOL0     C35741   6.661   6.539   4.783  0.6085  0.1712  0.0954
 1006MOL0     C35742   6.522   6.537   4.783  0.1826  0.0886  1.0013
 1006MOL0     H35743   6.072   6.924   4.905 -1.9865  1.0897  0.9632
 1006MOL0     H35744   5.836   6.951   4.868  0.7616 -0.9050  2.1832
 1006MOL0     H35745   5.694   6.812   4.468 -3.3706  1.5250 -2.0894
 1006MOL0     H35746   5.652   6.665   4.554  5.4125  0.4206  1.4909
 1006MOL0     H35747   5.446   6.800   4.616  1.2066 -0.4500  0.0508
 1006MOL0     H35748   5.517   6.941   4.541  1.8682  0.0560 -0.8394
 1006MOL0     H35749   5.525   6.765   4.337 -2.6183 -0.8838 -2.6739
 1006MOL0     H35750   5.368   6.707   4.402 -3.1563  1.0720  2.2505
 1006MOL0     H35751   5.287   6.931   4.414  1.5205 -1.0644  1.1872
 1006MOL0     H35752   5.435   6.984   4.318  0.3419 -0.1061 -1.0068
 1006MOL0     H35753   5.245   6.966   4.174  0.9537  0.6258  0.7297
 1006MOL0     H35754   5.356   6.837   4.127  2.6551 -0.8753  2.6261
 1006MOL0     H35755   5.241   6.664   4.238  1.2724 -0.0152  0.6927
 1006MOL0     H35756   5.129   6.763   4.329 -1.8145  0.9204 -2.2159
 1006MOL0     H35757   4.991   6.825   4.129  0.3865 -0.2433  0.9430
 1006MOL0     H35758   5.118   6.770   4.025 -1.1453 -1.4929 -0.8522
 1006MOL0     H35759   5.105   6.548   4.084 -0.3293  0.5378 -0.8416
 1006MOL0     H35760   4.959   6.615   4.017  0.7152  0.2406 -1.5344
 1006MOL0     H35761   4.870   6.728   4.331 -0.7837  0.1337 -0.1440
 1006MOL0     H35762   4.797   6.479   4.594  0.3046  1.2230  0.9627
 1006MOL0     H35763   4.749   6.642   4.560  1.0844  0.1585 -0.7558
 1006MOL0     H35764   4.579   6.393   4.482 -2.2078 -0.2684 -1.8789
 1006MOL0     H35765   4.540   6.557   4.426 -0.5170 -0.9241 -0.3515
 1006MOL0     H35766   4.511   6.624   4.669 -0.5715  0.6211  1.1471
 1006MOL0     H35767   4.517   6.453   4.712 -0.4541  0.1905 -0.6201
 1006MOL0     H35768   4.322   6.423   4.555  0.7061 -0.4990  2.1678
 1006MOL0     H35769   4.332   6.590   4.505  0.3730 -0.3178  0.9547
 1006MOL0     H35770   4.168   6.725   4.868  0.1729 -0.3962 -0.0740
 1006MOL0     H35771   4.003   6.844   4.967 -0.5889  0.8866  0.3233
 1006MOL0     H35772   3.885   6.918   4.854  1.0220 -0.1318 -1.7376
 1006MOL0     H35773   3.843   6.782   4.961 -1.4511 -0.4565 -2.0539
 1006MOL0     H35774   3.500   6.772   4.940  0.3897  1.9768  1.1151
 1006MOL0     H35775   3.264   6.820   4.935  1.7460  0.1344  1.5983
 1006MOL0     H35776   3.056   6.832   4.827  1.2600  0.4579  0.6318
 1006MOL0     H35777   3.085   6.965   4.931  2.6939 -2.0485 -0.4956
 1006MOL0     H35778   2.919   7.009   4.676 -2.2369  1.6460 -0.4867
 1006MOL0     H35779   2.845   6.953   4.820 -1.7385  1.4325 -1.8324
 1006MOL0     H35780   3.024   7.207   4.788 -0.9787  1.2292 -2.0496
 1006MOL0     H35781   2.925   7.164   4.933 -0.8079  2.6543 -0.6350
 1006MOL0     H35782   2.849   7.244   4.650 -2.3702 -2.0666 -0.6418
 1006MOL0     H35783   2.731   7.167   4.764  0.9249 -2.2879 -2.1807
 1006MOL0     H35784   2.727   7.410   4.724 -0.8267 -1.3400 -0.5246
 1006MOL0     H35785   2.871   7.427   4.828  0.3789 -0.7799 -0.9837
 1006MOL0     H35786   2.609   7.292   4.941 -1.0408  2.0418 -1.4304
 1006MOL0     H35787   2.764   7.341   5.020 -0.1702  0.7356  0.9376
 1006MOL0     H35788   2.539   7.483   5.040  1.5370 -1.4566  2.9159
 1006MOL0     H35789   2.619   7.572   4.900 -0.6976 -1.4134 -1.5861
 1006MOL0     H35790   2.730   7.507   5.195 -0.9351  0.9834  1.0773
 1006MOL0     H35791   2.663   7.663   5.128 -0.0378 -0.5635  1.1752
 1006MOL0     H35792   3.339   7.035   4.562 -0.2740 -0.1718  0.6984
 1006MOL0     H35793   3.568   6.946   4.560 -0.5418  0.6121 -1.0848
 1006MOL0     H35794   3.881   6.608   4.488 -2.7060  1.7024  0.8908
 1006MOL0     H35795   4.099   6.528   4.491 -1.3570  1.4572 -2.4408
 1006MOL0     H35796   5.877   6.688   4.517 -0.8921  1.2895 -0.9316
 1006MOL0     H35797   6.110   6.664   4.576  1.5829  1.4171 -0.7596
 1006MOL0     H35798   6.470   6.871   4.760  1.6519  0.9819  0.2320
 1006MOL0     H35799   6.704   6.872   4.721  2.9803 -2.1818 -1.4638
 1006MOL0     H35800   6.948   6.859   4.710  2.3379 -0.0469  1.0430
 1006MOL0     H35801   7.046   6.706   4.681  0.7004  1.1432 -1.2512
 1006MOL0     H35802   6.989   6.806   4.473  1.1636 -1.6363 -0.2054
 1006MOL0     H35803   6.819   6.807   4.520 -1.0570 -0.3215  3.7292
 1006MOL0     H35804   6.852   6.528   4.530  2.6693 -1.4413 -1.0725
 1006MOL0     H35805   7.003   6.574   4.454 -0.5457 -0.0523 -2.3329
 1006MOL0     H35806   6.884   6.556   4.254 -2.0553  0.9922 -1.3833
 1006MOL0     H35807   6.854   6.723   4.279  1.9957  0.3394 -0.0390
 1006MOL0     H35808   6.485   6.529   4.345  0.4060 -0.3797  2.0093
 1006MOL0     H35809   6.714   6.445   4.798 -0.2132 -0.5439 -1.3094
 1006MOL0     H35810   6.478   6.438   4.794 -0.1735 -0.1729 -1.9171
 1007MOL0     O35811   7.098   1.918   3.235 -0.2533  0.1645 -0.2048
 1007MOL0     C35812   7.055   1.930   3.352 -0.6175 -0.1191  0.1867
 1007MOL0     O35813   6.934   1.968   3.397  0.2344  0.2548  0.3294
 1007MOL0     C35814   6.839   2.025   3.315  0.2746  0.8793 -0.2080
 1007MOL0     C35815   6.863   2.104   3.206  0.0938  0.0177  0.7117
 1007MOL0     C35816   6.749   2.150   3.133  0.4776  0.0772  0.0216
 1007MOL0     C35817   6.620   2.107   3.159 -0.1755 -0.0282 -0.5947
 1007MOL0     O35818   6.528   2.146   3.070  0.4824  0.4496 -0.5151
 1007MOL0     C35819   6.392   2.145   3.102 -0.0238 -0.3821  0.4937
 1007MOL0     C35820   6.320   2.251   3.022 -0.2038 -0.4288  0.4749
 1007MOL0     C35821   6.165   2.248   3.046  0.3389  0.4130  0.8203
 1007MOL0     C35822   6.108   2.101   3.035 -0.7971  0.1709  0.7676
 1007MOL0     C35823   5.951   2.108   3.029 -0.2602  0.0771 -0.0902
 1007MOL0     C35824   5.895   2.188   3.143 -0.6475 -0.4035 -0.5373
 1007MOL0     C35825   5.750   2.165   3.175 -0.2970  0.1434 -0.3011
 1007MOL0     C35826   5.666   2.224   3.066  0.4229 -0.3102 -0.7650
 1007MOL0     N35827   5.523   2.218   3.085 -0.6484  0.0772  0.0345
 1007MOL0     C35828   5.437   2.324   3.119 -1.2539  1.1657  0.0170
 1007MOL0     C35829   5.319   2.252   3.155 -0.0368  0.1735  0.2545
 1007MOL0     C35830   5.189   2.305   3.192 -1.2296 -0.5577  0.0852
 1007MOL0     C35831   5.090   2.277   3.067 -0.5439  0.5686  0.2240
 1007MOL0     C35832   5.047   2.132   3.053 -0.2084  0.8547  0.1195
 1007MOL0     C35833   4.943   2.126   2.943  0.1063 -0.6451  1.0778
 1007MOL0     O35834   4.848   2.027   2.969 -0.7200  0.1263 -0.6097
 1007MOL0     C35835   4.728   2.065   3.022 -0.9199 -0.2337  0.5619
 1007MOL0     C35836   4.621   1.967   3.030  0.1535 -0.6259 -0.1500
 1007MOL0     C35837   4.498   1.991   3.082 -0.2586  0.1337 -1.0247
 1007MOL0     C35838   4.396   1.881   3.088 -0.6701 -0.2748 -0.1549
 1007MOL0     C35839   4.461   2.118   3.122  0.2136 -0.3292 -0.1441
 1007MOL0     C35840   4.327   2.159   3.168  0.5296  0.5493 -0.0769
 1007MOL0     O35841   4.256   2.259   3.102 -0.2919 -0.1770 -0.1923
 1007MOL0     C35842   4.134   2.286   3.162 -0.4157  1.0292  0.3232
 1007MOL0     C35843   4.104   2.416   3.200 -0.4444 -0.1266  0.5134
 1007MOL0     C35844   3.989   2.451   3.275 -0.2778 -0.7100 -0.1045
 1007MOL0     C35845   3.898   2.361   3.315  1.0604  0.5566 -0.6125
 1007MOL0     O35846   3.788   2.384   3.400  0.1023 -0.1751  0.0178
 1007MOL0     C35847   3.757   2.518   3.450  0.4659 -0.0672  0.0744
 1007MOL0     C35848   3.615   2.510   3.512 -0.1874 -0.0052 -0.4571
 1007MOL0     C35849   3.574   2.648   3.567  0.6035 -0.4546  0.9896
 1007MOL0     C35850   3.458   2.633   3.668 -0.1487  0.3050 -0.0388
 1007MOL0     C35851   3.386   2.771   3.692  0.3271  0.2608  0.5829
 1007MOL0     C35852   3.290   2.770   3.811 -0.1814 -0.3803  1.0245
 1007MOL0     C35853   3.193   2.886   3.810  0.5686  0.9074 -0.0343
 1007MOL0     C35854   3.051   2.852   3.851 -1.5047  0.0595 -0.2499
 1007MOL0    Cl35855   2.956   3.000   3.895  0.0969  0.3970 -0.5097
 1007MOL0     C35856   3.921   2.225   3.283 -0.3388  0.5651  0.0987
 1007MOL0     C35857   4.033   2.184   3.201  0.4973  0.1119 -0.5633
 1007MOL0     O35858   4.296   2.101   3.277  0.0423 -0.8625  0.1271
 1007MOL0     C35859   4.562   2.221   3.119 -0.0525 -0.4711 -0.4060
 1007MOL0     C35860   4.689   2.195   3.065 -0.4992 -0.8825  0.2612
 1007MOL0     N35861   5.346   2.116   3.149 -0.2630 -0.4049 -0.3185
 1007MOL0     N35862   5.463   2.100   3.109 -0.1107  0.5087  0.4486
 1007MOL0     C35863   6.592   2.026   3.270 -0.0287  0.0691  0.1356
 1007MOL0     C35864   6.702   1.993   3.350 -0.1613  0.4893 -0.3332
 1007MOL0     C35865   7.158   1.907   3.457  0.4588  0.1329  0.0088
 1007MOL0     C35866   7.292   1.886   3.420  0.2504  0.5409  0.0201
 1007MOL0     C35867   7.396   1.890   3.523  0.7157 -0.1667  0.5201
 1007MOL0     C35868   7.348   1.889   3.660 -0.2661 -0.1379 -0.2087
 1007MOL0     O35869   7.420   1.873   3.781  0.1065 -0.1116  0.4157
 1007MOL0     C35870   7.554   1.823   3.764 -0.1263  0.1705 -0.1155
 1007MOL0     C35871   7.622   1.794   3.905  0.8461  0.4763  0.9163
 1007MOL0     C35872   7.723   1.681   3.886 -0.3558  0.2307  0.3023
 1007MOL0     C35873   7.860   1.742   3.858  0.1689  0.4953 -0.2687
 1007MOL0     C35874   7.927   1.780   3.979  1.2209  0.4668 -0.9308
 1007MOL0     C35875   7.991   1.814   4.076 -0.5825  0.0443  0.1667
 1007MOL0     C35876   7.213   1.885   3.689 -0.8344 -0.4435  1.0185
 1007MOL0     C35877   7.114   1.911   3.593 -0.1006  0.2142 -0.6498
 1007MOL0     H35878   6.959   2.136   3.167 -0.0356 -1.4413 -0.9278
 1007MOL0     H35879   6.761   2.217   3.048 -2.0803  0.3872 -0.1974
 1007MOL0     H35880   6.352   2.047   3.077 -5.4598  1.3381  1.2285
 1007MOL0     H35881   6.375   2.179   3.205 -1.1658  0.6265  0.0032
 1007MOL0     H35882   6.361   2.349   3.047  0.9833 -0.9046  0.4985
 1007MOL0     H35883   6.345   2.228   2.918  0.9765  0.7445  0.4690
 1007MOL0     H35884   6.149   2.284   3.148  0.4177  1.7881  0.3568
 1007MOL0     H35885   6.115   2.315   2.976 -1.2009  0.0534  1.5301
 1007MOL0     H35886   6.142   2.054   2.942  2.8594 -1.7732  2.8560
 1007MOL0     H35887   6.153   2.039   3.113 -0.1888 -0.5857 -0.1645
 1007MOL0     H35888   5.915   2.155   2.937 -0.5038 -0.5557 -0.3187
 1007MOL0     H35889   5.917   2.005   3.024  1.8107 -0.9796  3.6709
 1007MOL0     H35890   5.948   2.155   3.233 -4.2341 -0.5839  1.6859
 1007MOL0     H35891   5.909   2.294   3.117 -2.3678 -0.4818 -1.9618
 1007MOL0     H35892   5.741   2.056   3.183  2.0474 -0.1394 -1.0598
 1007MOL0     H35893   5.733   2.207   3.274 -0.2108 -1.6413  0.5047
 1007MOL0     H35894   5.673   2.170   2.971 -1.1417 -1.4932 -0.2434
 1007MOL0     H35895   5.697   2.329   3.059 -0.3723  0.2282  2.3272
 1007MOL0     H35896   5.457   2.427   3.093 -3.0498  1.3339 -0.8634
 1007MOL0     H35897   5.146   2.251   3.277  0.6668 -2.0052  0.2065
 1007MOL0     H35898   5.193   2.410   3.220 -0.2565 -0.6886  0.4925
 1007MOL0     H35899   5.144   2.306   2.977  3.0892  0.5842  2.1880
 1007MOL0     H35900   5.007   2.348   3.074  0.7982  2.3571 -1.1041
 1007MOL0     H35901   5.009   2.092   3.148 -0.6879  1.4514  0.1859
 1007MOL0     H35902   5.131   2.065   3.032 -1.3881  0.0911 -2.5455
 1007MOL0     H35903   4.994   2.096   2.851  2.4485 -1.2129  2.4673
 1007MOL0     H35904   4.903   2.228   2.934  1.4743 -0.1804 -0.3340
 1007MOL0     H35905   4.629   1.866   2.992 -3.1741 -0.6396 -1.1100
 1007MOL0     H35906   4.417   1.811   3.170 -1.5079 -0.0155  0.2967
 1007MOL0     H35907   4.294   1.919   3.103 -0.5024  0.3231 -0.5400
 1007MOL0     H35908   4.396   1.828   2.993 -2.4188 -1.2713  0.3461
 1007MOL0     H35909   4.174   2.493   3.170 -0.4363  0.1068  1.1073
 1007MOL0     H35910   3.974   2.554   3.305 -0.1052 -0.6222 -0.3127
 1007MOL0     H35911   3.832   2.547   3.525  0.5677 -1.5014  0.5566
 1007MOL0     H35912   3.765   2.592   3.370 -0.2211  0.7017  0.6837
 1007MOL0     H35913   3.545   2.480   3.434  0.8049 -1.9039 -0.6651
 1007MOL0     H35914   3.601   2.440   3.594  0.0624 -1.2215 -1.4284
 1007MOL0     H35915   3.556   2.715   3.483  3.8132 -0.0677  0.4569
 1007MOL0     H35916   3.648   2.695   3.632 -1.2008  1.3892  1.8138
 1007MOL0     H35917   3.386   2.572   3.613  1.8025 -0.1307 -2.2433
 1007MOL0     H35918   3.508   2.584   3.752  0.8935  0.1791 -0.7215
 1007MOL0     H35919   3.334   2.804   3.602 -0.1456 -1.0211  0.3646
 1007MOL0     H35920   3.456   2.845   3.732  0.7696 -1.1070  2.4864
 1007MOL0     H35921   3.234   2.676   3.807 -0.5111 -0.2661  2.2866
 1007MOL0     H35922   3.342   2.772   3.908  0.5593  0.3146  0.6249
 1007MOL0     H35923   3.189   2.944   3.717 -2.3739  0.0786 -0.5184
 1007MOL0     H35924   3.233   2.956   3.885  0.2107 -0.1524  1.1662
 1007MOL0     H35925   3.054   2.780   3.934 -1.3715  0.3804  0.0271
 1007MOL0     H35926   3.007   2.796   3.768  1.7709  0.9749 -2.8405
 1007MOL0     H35927   3.854   2.145   3.313 -1.4292  1.1531 -0.6963
 1007MOL0     H35928   4.044   2.083   3.163 -2.3849  0.1810 -1.8297
 1007MOL0     H35929   4.550   2.323   3.156 -1.9259  0.0934 -2.3850
 1007MOL0     H35930   4.755   2.282   3.063 -1.6616  0.0509  1.1376
 1007MOL0     H35931   6.492   1.992   3.292  0.2333  0.1284  1.5303
 1007MOL0     H35932   6.692   1.930   3.438  3.3254 -0.3457 -0.4176
 1007MOL0     H35933   7.318   1.873   3.315  2.6514 -2.3940  0.8065
 1007MOL0     H35934   7.504   1.893   3.512  0.7194  1.1373  0.6847
 1007MOL0     H35935   7.548   1.732   3.705  0.2179 -0.2282  0.4563
 1007MOL0     H35936   7.619   1.895   3.714 -1.2179  0.7528 -0.7361
 1007MOL0     H35937   7.542   1.759   3.971  1.0170 -1.0110  0.3681
 1007MOL0     H35938   7.664   1.884   3.950  2.7828  0.4220 -0.6386
 1007MOL0     H35939   7.693   1.605   3.814  0.6275  0.0415  0.0855
 1007MOL0     H35940   7.727   1.625   3.980 -2.5102 -0.0921  0.2642
 1007MOL0     H35941   7.860   1.828   3.790  2.3332  0.6514 -0.1518
 1007MOL0     H35942   7.919   1.666   3.806 -0.5276  0.6022 -1.2480
 1007MOL0     H35943   8.050   1.857   4.155 -0.4043  1.5217 -0.7319
 1007MOL0     H35944   7.197   1.879   3.796 -1.2251 -2.6223  0.8776
 1007MOL0     H35945   7.017   1.949   3.621  0.3949  0.5988  0.6294
 1008MOL0     O35946   7.476   3.297   2.591 -0.4478  0.2020 -0.0972
 1008MOL0     C35947   7.446   3.217   2.684 -0.0550  0.3849  0.5429
 1008MOL0     O35948   7.319   3.193   2.718 -0.2871 -0.2354  0.4483
 1008MOL0     C35949   7.225   3.282   2.676  0.2558 -0.2263  0.1846
 1008MOL0     C35950   7.199   3.339   2.546 -0.2948 -0.0867  0.8631
 1008MOL0     C35951   7.091   3.422   2.524 -0.1427 -0.2730 -0.0561
 1008MOL0     C35952   7.005   3.466   2.640 -0.2969 -0.6273  0.5711
 1008MOL0     O35953   6.888   3.542   2.633 -0.5345  0.3298 -0.4093
 1008MOL0     C35954   6.872   3.611   2.511  0.1610  0.2961  0.9214
 1008MOL0     C35955   6.744   3.683   2.493  0.1391 -0.0585  0.3680
 1008MOL0     C35956   6.635   3.566   2.453 -0.3118  0.7515 -0.1140
 1008MOL0     C35957   6.492   3.627   2.432  0.0788 -0.6795 -0.1464
 1008MOL0     C35958   6.472   3.696   2.297  0.4981  0.4763  1.2170
 1008MOL0     C35959   6.327   3.736   2.261  0.0490 -0.3220 -0.0245
 1008MOL0     C35960   6.319   3.822   2.137 -0.4815  0.0939  0.1314
 1008MOL0     C35961   6.173   3.819   2.092  0.4150 -0.0564 -0.6570
 1008MOL0     N35962   6.084   3.893   2.186 -0.3581  0.0434 -0.3775
 1008MOL0     C35963   6.112   4.015   2.234 -0.1501 -0.7323 -0.3579
 1008MOL0     C35964   6.027   4.024   2.338 -0.0811 -0.0084  0.4503
 1008MOL0     C35965   6.035   4.141   2.436  0.4076  0.5540  0.1081
 1008MOL0     C35966   6.055   4.282   2.372 -0.0749  0.5587  0.5787
 1008MOL0     C35967   5.955   4.299   2.256 -0.3154  0.0952 -0.8170
 1008MOL0     C35968   5.810   4.274   2.289 -0.3123 -0.4790  0.7147
 1008MOL0     O35969   5.724   4.377   2.239 -0.0691  0.7240 -0.4056
 1008MOL0     C35970   5.582   4.371   2.258 -0.5789  0.4428  0.2163
 1008MOL0     C35971   5.516   4.470   2.194  0.0782  0.4059  0.3235
 1008MOL0     C35972   5.380   4.479   2.186  0.8902 -0.0322 -0.5284
 1008MOL0     C35973   5.324   4.597   2.117 -0.0826 -0.2060  0.5920
 1008MOL0     C35974   5.304   4.378   2.241  0.8060  0.5579 -0.6858
 1008MOL0     C35975   5.158   4.378   2.239  0.5299 -0.4868 -0.3721
 1008MOL0     O35976   5.100   4.293   2.318 -0.5756 -0.5518 -0.4849
 1008MOL0     C35977   4.965   4.263   2.319  0.3052  0.4562 -0.7187
 1008MOL0     C35978   4.909   4.250   2.449  0.7768  0.2578 -0.3211
 1008MOL0     C35979   4.770   4.209   2.456 -0.4677  0.0354  0.4175
 1008MOL0     C35980   4.690   4.194   2.344 -0.7901 -0.8457  0.7427
 1008MOL0     O35981   4.560   4.168   2.373 -0.0267  0.1225 -0.1696
 1008MOL0     C35982   4.482   4.094   2.276  0.3385 -0.7375  0.2090
 1008MOL0     C35983   4.337   4.103   2.331 -0.0704  0.6440 -0.6820
 1008MOL0     C35984   4.232   4.042   2.235  0.0108 -0.0015 -0.1213
 1008MOL0     C35985   4.096   4.029   2.313  0.8213 -0.3630  0.1607
 1008MOL0     C35986   3.989   3.975   2.227 -0.0610  0.7688 -0.1783
 1008MOL0     C35987   3.862   3.951   2.298 -0.4550  0.2691  0.4595
 1008MOL0     C35988   3.739   3.930   2.212 -0.0601  0.2769  0.0098
 1008MOL0     C35989   3.623   3.882   2.295  0.0859  0.1058  0.8007
 1008MOL0    Cl35990   3.480   3.830   2.196 -0.2444 -0.0996  0.0475
 1008MOL0     C35991   4.754   4.213   2.212  0.5613 -0.1626 -1.2544
 1008MOL0     C35992   4.890   4.248   2.209 -0.2794  0.7173 -0.3077
 1008MOL0     O35993   5.100   4.441   2.146 -0.1031  0.6510 -0.3706
 1008MOL0     C35994   5.368   4.268   2.301 -1.1780 -0.3110  0.2337
 1008MOL0     C35995   5.506   4.262   2.310 -0.1228 -0.1609  1.2799
 1008MOL0     N35996   5.951   3.916   2.351 -0.0990  0.2915  0.7549
 1008MOL0     N35997   5.986   3.836   2.258  0.9140  0.2248  0.4834
 1008MOL0     C35998   7.030   3.408   2.764  0.6211 -0.4601  0.5209
 1008MOL0     C35999   7.137   3.318   2.778  0.5352 -1.4709  0.2522
 1008MOL0     C36000   7.551   3.139   2.752  0.2992  0.1838  0.6375
 1008MOL0     C36001   7.513   3.050   2.857  0.6178 -0.5081  0.5848
 1008MOL0     C36002   7.601   2.981   2.935 -0.1860  0.1340 -0.3553
 1008MOL0     C36003   7.736   2.995   2.909  0.1637 -0.4572  0.0676
 1008MOL0     O36004   7.815   2.918   2.995 -0.7345 -0.5114 -0.2015
 1008MOL0     C36005   7.945   2.885   2.949  1.3176  0.6377 -0.0733
 1008MOL0     C36006   7.931   2.786   2.837  1.0183  0.1942  0.5756
 1008MOL0     C36007   8.057   2.710   2.815  0.3465  0.5672 -0.2879
 1008MOL0     C36008   8.045   2.587   2.726 -1.5551 -0.3557  0.3517
 1008MOL0     C36009   7.941   2.496   2.768 -0.3414 -0.6299  0.0282
 1008MOL0     C36010   7.861   2.418   2.807  0.0935 -0.4604  0.2331
 1008MOL0     C36011   7.780   3.086   2.805  0.1892 -1.0447 -0.1213
 1008MOL0     C36012   7.689   3.151   2.720 -0.5736  0.3548 -0.1130
 1008MOL0     H36013   7.262   3.308   2.463  0.0807 -1.4479  1.6341
 1008MOL0     H36014   7.074   3.455   2.422 -1.1184 -0.7165 -0.0427
 1008MOL0     H36015   6.949   3.689   2.508  1.3211 -0.7416  2.3585
 1008MOL0     H36016   6.880   3.548   2.423 -1.4138  0.4050  0.6741
 1008MOL0     H36017   6.719   3.727   2.590  2.5458  0.5148  0.7937
 1008MOL0     H36018   6.750   3.769   2.427  0.9284  0.0979  0.6353
 1008MOL0     H36019   6.666   3.511   2.364 -0.9240 -1.4729  0.9855
 1008MOL0     H36020   6.626   3.484   2.525 -2.0753 -1.4759 -2.6844
 1008MOL0     H36021   6.415   3.550   2.448  0.5327 -0.9721  0.7266
 1008MOL0     H36022   6.480   3.712   2.500  3.2081 -0.6072  0.4475
 1008MOL0     H36023   6.526   3.791   2.303  1.4361 -0.0866  2.1412
 1008MOL0     H36024   6.513   3.634   2.216 -1.2610  0.0370  0.6311
 1008MOL0     H36025   6.276   3.641   2.243  1.4708 -1.1862  0.3649
 1008MOL0     H36026   6.278   3.794   2.340  0.2887 -1.6620  1.1488
 1008MOL0     H36027   6.351   3.924   2.160  0.5596 -0.7639  2.9372
 1008MOL0     H36028   6.380   3.776   2.059  0.9001 -0.0022  1.2361
 1008MOL0     H36029   6.135   3.716   2.092 -1.1696  0.3537  3.3991
 1008MOL0     H36030   6.161   3.858   1.990  0.5045  0.1863 -0.5744
 1008MOL0     H36031   6.188   4.087   2.207 -1.3424  0.0134 -1.8596
 1008MOL0     H36032   5.937   4.132   2.485 -0.4851 -0.1460 -1.7150
 1008MOL0     H36033   6.103   4.130   2.521 -1.1419  0.7022  1.4228
 1008MOL0     H36034   6.155   4.284   2.328 -0.9614 -2.3797 -1.9070
 1008MOL0     H36035   6.053   4.367   2.441  2.0394 -0.3792  1.8875
 1008MOL0     H36036   5.999   4.246   2.171 -1.7072  1.6238 -2.5896
 1008MOL0     H36037   5.965   4.405   2.232 -1.0866  0.3518 -0.0445
 1008MOL0     H36038   5.795   4.275   2.397 -0.5130 -0.9288  0.6948
 1008MOL0     H36039   5.791   4.174   2.249  1.3953  0.1506 -1.9431
 1008MOL0     H36040   5.577   4.551   2.154  1.6029 -1.5481 -1.5629
 1008MOL0     H36041   5.279   4.568   2.022 -0.3162 -1.0354  0.9503
 1008MOL0     H36042   5.240   4.639   2.173 -0.6686  1.6107 -1.5159
 1008MOL0     H36043   5.400   4.676   2.114  1.6971 -1.8769 -1.0206
 1008MOL0     H36044   4.977   4.246   2.533 -0.1650 -2.8075  0.4477
 1008MOL0     H36045   4.721   4.206   2.552 -3.1329  0.9813 -0.8239
 1008MOL0     H36046   4.479   4.142   2.178 -0.3028  1.3452  1.2088
 1008MOL0     H36047   4.512   3.989   2.262 -0.3583 -0.7351 -1.4596
 1008MOL0     H36048   4.331   4.055   2.429 -0.7449 -1.1360 -1.5668
 1008MOL0     H36049   4.312   4.209   2.347 -0.0606  0.7028 -1.0437
 1008MOL0     H36050   4.262   3.939   2.213 -0.1425 -0.1583  0.3987
 1008MOL0     H36051   4.229   4.103   2.144  0.8935  1.0268  0.5206
 1008MOL0     H36052   4.114   3.960   2.396 -0.5670  2.4743  3.0490
 1008MOL0     H36053   4.064   4.127   2.349  0.7386  0.0553 -1.0156
 1008MOL0     H36054   4.035   3.881   2.194  1.0922  0.9350  0.8599
 1008MOL0     H36055   3.971   4.045   2.145  0.0168  0.1540 -0.7282
 1008MOL0     H36056   3.882   3.863   2.360  4.9379  0.7061 -0.1202
 1008MOL0     H36057   3.844   4.031   2.370  2.2695  1.4160  0.0016
 1008MOL0     H36058   3.760   3.859   2.131 -0.6886 -1.3935  1.2598
 1008MOL0     H36059   3.711   4.031   2.181 -1.1489  0.8854  2.6442
 1008MOL0     H36060   3.588   3.972   2.347  0.3648  0.7196 -0.0475
 1008MOL0     H36061   3.638   3.795   2.360 -1.3107 -1.0219 -0.3190
 1008MOL0     H36062   4.697   4.232   2.122 -0.5477  1.1313 -0.3440
 1008MOL0     H36063   4.936   4.246   2.111 -1.7762 -0.3915 -1.0297
 1008MOL0     H36064   5.308   4.192   2.349 -0.3332 -1.8731 -1.0824
 1008MOL0     H36065   5.555   4.172   2.346 -3.7929 -2.8439  0.1859
 1008MOL0     H36066   6.969   3.427   2.851  1.8777 -1.0650  1.5820
 1008MOL0     H36067   7.143   3.281   2.880  0.5237  0.2348  0.9080
 1008MOL0     H36068   7.412   3.020   2.881 -0.4236  0.2841 -2.4066
 1008MOL0     H36069   7.572   2.909   3.011 -2.1300 -2.3675 -3.2072
 1008MOL0     H36070   7.989   2.978   2.910 -1.3104  1.7157 -0.6905
 1008MOL0     H36071   8.007   2.849   3.032  0.5041 -0.1116  0.2179
 1008MOL0     H36072   7.900   2.831   2.742 -0.7966  0.8388  1.4178
 1008MOL0     H36073   7.842   2.731   2.867  0.2030  1.6600  0.9542
 1008MOL0     H36074   8.092   2.680   2.914 -0.0188 -0.5985 -0.4955
 1008MOL0     H36075   8.132   2.766   2.758 -0.8484  1.4463 -1.0426
 1008MOL0     H36076   8.145   2.546   2.736 -1.3899  0.3602  1.8177
 1008MOL0     H36077   8.037   2.612   2.620 -0.7096 -0.8304  0.1661
 1008MOL0     H36078   7.795   2.353   2.861 -1.8170  2.2144  1.3487
 1008MOL0     H36079   7.887   3.089   2.784  0.2113 -0.6359  0.0368
 1008MOL0     H36080   7.728   3.223   2.649  2.9570  1.2562  2.4888
 1009MOL0     O36081   4.665   0.623   0.686 -0.1512  0.5411  0.3878
 1009MOL0     C36082   4.753   0.608   0.605 -0.5448  0.4126  0.6197
 1009MOL0     O36083   4.738   0.606   0.463 -0.1290  0.4118 -0.1047
 1009MOL0     C36084   4.618   0.641   0.415 -0.8233 -0.7222  0.4930
 1009MOL0     C36085   4.547   0.760   0.448 -0.5214  0.0669 -0.0518
 1009MOL0     C36086   4.423   0.779   0.390  0.1218  0.4006  0.3952
 1009MOL0     C36087   4.362   0.698   0.292  0.0287  1.6343 -0.1357
 1009MOL0     O36088   4.245   0.746   0.244  0.2154 -0.3370  0.2126
 1009MOL0     C36089   4.189   0.666   0.142  0.0906  0.6558 -0.9829
 1009MOL0     C36090   4.066   0.743   0.091  0.5073 -0.0720 -0.3536
 1009MOL0     C36091   4.001   0.669  -0.020  0.8827  0.2772  0.5227
 1009MOL0     C36092   3.895   0.754  -0.100 -0.6832 -0.3165 -0.5654
 1009MOL0     C36093   3.870   0.698  -0.235  0.2168  0.3001  0.6380
 1009MOL0     C36094   3.806   0.557  -0.244  0.3312 -0.5525 -0.1336
 1009MOL0     C36095   3.659   0.556  -0.203 -0.7615  0.3839 -0.1320
 1009MOL0     C36096   3.570   0.574  -0.321 -0.3586 -0.3265  0.3436
 1009MOL0     N36097   3.430   0.553  -0.290  0.1116  0.6189  0.0012
 1009MOL0     C36098   3.326   0.584  -0.373 -0.5035 -0.0062 -0.7790
 1009MOL0     C36099   3.211   0.549  -0.297 -0.2962  0.0909  1.1728
 1009MOL0     C36100   3.062   0.582  -0.328 -0.6850 -0.3891  0.6077
 1009MOL0     C36101   3.026   0.718  -0.256  0.1509  0.4834  0.8940
 1009MOL0     C36102   2.881   0.770  -0.293 -0.3908  0.1222 -0.4737
 1009MOL0     C36103   2.840   0.782  -0.439 -0.2746  0.0612  0.6269
 1009MOL0     O36104   2.729   0.877  -0.448  0.6129  0.3958  0.0168
 1009MOL0     C36105   2.613   0.848  -0.394 -0.2582  0.4080 -0.2092
 1009MOL0     C36106   2.524   0.961  -0.387 -0.3269  0.1146 -0.1297
 1009MOL0     C36107   2.393   0.938  -0.340  1.0252 -0.3400  0.1408
 1009MOL0     C36108   2.302   1.060  -0.332 -0.2632 -0.5206 -0.1108
 1009MOL0     C36109   2.347   0.814  -0.292 -0.8393  0.2099  0.3472
 1009MOL0     C36110   2.209   0.783  -0.257 -1.0730  1.1152 -0.0039
 1009MOL0     O36111   2.123   0.884  -0.234  0.6244  0.3059 -0.1722
 1009MOL0     C36112   1.990   0.848  -0.226 -0.1672  0.3669  0.2315
 1009MOL0     C36113   1.887   0.867  -0.324 -0.5129  0.3076 -0.1333
 1009MOL0     C36114   1.752   0.842  -0.288 -0.0653  0.1895 -0.3557
 1009MOL0     C36115   1.724   0.781  -0.166 -0.3135 -0.8289  0.4842
 1009MOL0     O36116   1.596   0.747  -0.119 -0.0018  0.2366 -0.3953
 1009MOL0     C36117   1.479   0.755  -0.201 -0.1854  0.0643 -0.3404
 1009MOL0     C36118   1.432   0.891  -0.201 -0.3301  0.3653 -0.3060
 1009MOL0     C36119   1.294   0.901  -0.261 -0.9177 -0.1274  0.3073
 1009MOL0     C36120   1.249   1.041  -0.269 -0.0563 -1.3854  0.5915
 1009MOL0     C36121   1.137   1.070  -0.366 -0.0265  1.1928 -0.1580
 1009MOL0     C36122   0.999   1.058  -0.313 -0.6475  0.6754 -0.1753
 1009MOL0     C36123   0.892   1.101  -0.416 -0.1881  0.3800  0.7816
 1009MOL0     C36124   0.746   1.084  -0.388  0.2941 -0.2758 -0.9020
 1009MOL0    Cl36125   0.706   1.007  -0.230  0.1190  0.3309 -0.1535
 1009MOL0     C36126   1.822   0.767  -0.076  1.1161 -0.4233 -0.6454
 1009MOL0     C36127   1.950   0.804  -0.102 -1.0725  0.2979  0.1743
 1009MOL0     O36128   2.182   0.663  -0.257  0.5264  0.4936  0.3708
 1009MOL0     C36129   2.443   0.705  -0.305  0.4840  0.8403 -0.2340
 1009MOL0     C36130   2.571   0.721  -0.351  0.0345  0.1029 -0.5247
 1009MOL0     N36131   3.255   0.481  -0.187  0.1619 -0.0889 -0.6205
 1009MOL0     N36132   3.384   0.478  -0.190  0.9342  0.0743  0.3786
 1009MOL0     C36133   4.439   0.581   0.256  0.0397 -0.5335 -0.1899
 1009MOL0     C36134   4.560   0.558   0.315  0.3426 -0.0893 -0.2008
 1009MOL0     C36135   4.889   0.613   0.653 -0.3095 -0.4138 -0.3582
 1009MOL0     C36136   4.992   0.688   0.584  0.1440  0.9149  0.3791
 1009MOL0     C36137   5.121   0.694   0.628 -0.6478  0.2400  1.1417
 1009MOL0     C36138   5.165   0.620   0.735 -0.0934 -0.0619  0.6257
 1009MOL0     O36139   5.293   0.601   0.777  0.3202  0.1620  0.2101
 1009MOL0     C36140   5.389   0.697   0.730  0.0121 -0.2110 -0.0515
 1009MOL0     C36141   5.514   0.673   0.820 -0.1966 -0.1591  0.6801
 1009MOL0     C36142   5.486   0.705   0.970  0.2007 -0.3187 -0.6458
 1009MOL0     C36143   5.608   0.700   1.066 -0.5719 -0.1035 -0.0175
 1009MOL0     C36144   5.721   0.780   1.030 -0.1072  0.6536  0.3351
 1009MOL0     C36145   5.814   0.845   0.985 -0.6868  0.6543  0.0630
 1009MOL0     C36146   5.064   0.545   0.810 -0.1925  0.3113  0.4499
 1009MOL0     C36147   4.933   0.551   0.777  0.2851  0.0111  0.6175
 1009MOL0     H36148   4.572   0.836   0.521 -2.5856 -0.2515  1.0721
 1009MOL0     H36149   4.378   0.876   0.407 -0.2842  0.5007 -1.0734
 1009MOL0     H36150   4.260   0.647   0.061 -0.6215 -1.9400 -1.0907
 1009MOL0     H36151   4.164   0.574   0.197  0.3130  3.5905  4.8598
 1009MOL0     H36152   3.991   0.747   0.171  1.4334  0.7565  0.4911
 1009MOL0     H36153   4.099   0.841   0.056  1.0769 -0.6309 -1.4544
 1009MOL0     H36154   4.069   0.642  -0.102  0.4050  3.4245 -1.0607
 1009MOL0     H36155   3.960   0.575   0.018  1.5978  0.6955  2.4517
 1009MOL0     H36156   3.803   0.759  -0.041  0.4175 -0.9012  1.3059
 1009MOL0     H36157   3.933   0.855  -0.114  1.0097 -0.7479  0.5105
 1009MOL0     H36158   3.822   0.776  -0.294  0.9426 -0.0308 -0.4030
 1009MOL0     H36159   3.970   0.694  -0.279  1.1310 -0.2601  2.6032
 1009MOL0     H36160   3.812   0.519  -0.346 -0.6297 -0.0216 -0.4058
 1009MOL0     H36161   3.861   0.497  -0.171  1.2859 -1.1264 -1.3018
 1009MOL0     H36162   3.636   0.468  -0.141 -2.0803 -0.2993 -1.5145
 1009MOL0     H36163   3.640   0.646  -0.144 -0.3614  0.1904  0.2966
 1009MOL0     H36164   3.597   0.523  -0.414 -0.9812  0.3738 -0.2338
 1009MOL0     H36165   3.578   0.681  -0.344  1.7840  0.4863  4.0597
 1009MOL0     H36166   3.331   0.628  -0.472  1.8503  0.0574 -0.6930
 1009MOL0     H36167   3.040   0.590  -0.435  0.3156  1.6313  0.5172
 1009MOL0     H36168   2.999   0.504  -0.283 -0.4735 -1.4583 -0.8767
 1009MOL0     H36169   3.097   0.799  -0.277  2.0033 -1.2240  0.2879
 1009MOL0     H36170   3.033   0.694  -0.149  2.7556 -1.2557  0.4367
 1009MOL0     H36171   2.869   0.864  -0.238  1.6598 -0.2996  0.7773
 1009MOL0     H36172   2.811   0.697  -0.251 -0.0736 -0.9482 -1.7403
 1009MOL0     H36173   2.807   0.689  -0.486 -1.3509 -0.1832  1.8184
 1009MOL0     H36174   2.923   0.827  -0.494 -0.7277  1.1355  0.7779
 1009MOL0     H36175   2.565   1.055  -0.424 -0.0683  0.1686  0.2884
 1009MOL0     H36176   2.227   1.057  -0.412 -1.1304  3.3999  0.3461
 1009MOL0     H36177   2.260   1.085  -0.234 -0.5804 -1.3340 -0.0364
 1009MOL0     H36178   2.364   1.148  -0.353  2.6177 -2.8546 -2.0704
 1009MOL0     H36179   1.898   0.910  -0.423 -2.0719 -0.7506 -0.8038
 1009MOL0     H36180   1.673   0.871  -0.357 -1.1946  1.7235  1.4710
 1009MOL0     H36181   1.498   0.728  -0.305 -0.3085  0.4376 -0.4656
 1009MOL0     H36182   1.395   0.696  -0.163 -2.4836  2.8075 -0.7500
 1009MOL0     H36183   1.427   0.937  -0.102 -0.2190  1.5717 -0.8461
 1009MOL0     H36184   1.500   0.956  -0.256 -1.0022  0.3373 -1.2000
 1009MOL0     H36185   1.232   0.825  -0.214 -0.2503 -0.0798  1.2911
 1009MOL0     H36186   1.297   0.870  -0.366  1.3399 -1.6645  0.7464
 1009MOL0     H36187   1.225   1.086  -0.172 -0.7808  0.4435 -0.4030
 1009MOL0     H36188   1.331   1.103  -0.306 -0.6414 -1.2534 -0.5035
 1009MOL0     H36189   1.150   1.013  -0.458  0.1450  1.4873 -0.3154
 1009MOL0     H36190   1.151   1.173  -0.399 -1.1206  0.9633 -1.4413
 1009MOL0     H36191   0.976   0.952  -0.301  0.1020  0.2873 -1.8567
 1009MOL0     H36192   0.984   1.105  -0.216  1.3699 -2.2482  1.7110
 1009MOL0     H36193   0.909   1.049  -0.511 -3.7511  2.5425 -1.2655
 1009MOL0     H36194   0.916   1.203  -0.448 -1.6982  0.1463 -1.2956
 1009MOL0     H36195   0.686   1.045  -0.471 -0.4974 -0.0371 -0.4581
 1009MOL0     H36196   0.704   1.184  -0.374  0.7459 -0.4124  1.9081
 1009MOL0     H36197   1.794   0.726   0.021  0.2921  0.5968 -0.4424
 1009MOL0     H36198   2.029   0.791  -0.029 -1.6650  2.9123  1.4294
 1009MOL0     H36199   2.429   0.601  -0.278  1.5941  0.2527 -1.8049
 1009MOL0     H36200   2.630   0.630  -0.351  1.2960  0.8690  0.8774
 1009MOL0     H36201   4.408   0.511   0.179 -1.4318  1.3157 -1.3673
 1009MOL0     H36202   4.625   0.473   0.296  0.2732 -0.3432  0.6686
 1009MOL0     H36203   4.975   0.754   0.500 -1.6363 -1.3357 -1.1741
 1009MOL0     H36204   5.197   0.755   0.579 -0.1328 -0.4211  1.0986
 1009MOL0     H36205   5.410   0.679   0.624  0.6319  3.0253 -0.5701
 1009MOL0     H36206   5.349   0.798   0.738 -0.1298 -0.3131  0.5367
 1009MOL0     H36207   5.595   0.737   0.783  2.1410 -3.2281  0.1192
 1009MOL0     H36208   5.548   0.569   0.816  0.5316  0.0393  1.4156
 1009MOL0     H36209   5.403   0.643   1.005  0.8488 -0.7124  0.2047
 1009MOL0     H36210   5.451   0.808   0.966  0.1920 -0.3420 -1.4300
 1009MOL0     H36211   5.636   0.595   1.079  3.3558  1.0673  2.7190
 1009MOL0     H36212   5.582   0.732   1.167  1.7247 -0.0657  0.6179
 1009MOL0     H36213   5.883   0.918   0.949  0.0883 -0.0932  0.0136
 1009MOL0     H36214   5.105   0.481   0.888 -1.2474 -1.6745 -0.5590
 1009MOL0     H36215   4.871   0.487   0.838  0.3797 -0.0987  0.5977
 1010MOL0     O36216   5.357   1.925   9.469 -1.5457  0.0341 -0.1041
 1010MOL0     C36217   5.427   1.833   9.433 -0.4325 -0.6843  0.1995
 1010MOL0     O36218   5.389   1.726   9.360  0.2901 -0.3807 -0.3199
 1010MOL0     C36219   5.263   1.717   9.304  0.6778  0.1210 -0.6480
 1010MOL0     C36220   5.138   1.764   9.352  0.2347  1.2707  0.1234
 1010MOL0     C36221   5.020   1.760   9.278  0.1119  0.2295  0.0235
 1010MOL0     C36222   5.020   1.692   9.161  0.0823  0.5872  0.4932
 1010MOL0     O36223   4.907   1.668   9.084 -0.9118 -0.7220 -0.5873
 1010MOL0     C36224   4.791   1.754   9.092 -0.7144 -0.4126 -0.5893
 1010MOL0     C36225   4.676   1.676   9.052  0.7801 -0.1562 -0.7572
 1010MOL0     C36226   4.534   1.741   9.083 -0.6170  0.4721  0.0296
 1010MOL0     C36227   4.422   1.663   9.021 -0.2345  1.0384  0.3875
 1010MOL0     C36228   4.284   1.681   9.078 -0.9802  0.4613 -0.3655
 1010MOL0     C36229   4.173   1.616   8.988 -0.4121  0.3682  0.8485
 1010MOL0     C36230   4.036   1.626   9.060 -0.0739 -0.0948  0.3622
 1010MOL0     C36231   3.984   1.771   9.076  0.9433  0.1131  0.6600
 1010MOL0     N36232   3.847   1.785   9.135 -0.5656 -0.5705 -0.3566
 1010MOL0     C36233   3.798   1.741   9.258  0.0014  0.1460  0.5775
 1010MOL0     C36234   3.663   1.756   9.232  0.0290  0.1579 -0.5593
 1010MOL0     C36235   3.559   1.751   9.338  0.7402 -0.8137 -0.1945
 1010MOL0     C36236   3.547   1.611   9.398 -0.0813  0.2381 -0.4868
 1010MOL0     C36237   3.432   1.589   9.496  0.2058 -0.6435 -0.4999
 1010MOL0     C36238   3.303   1.596   9.426 -0.0957 -0.4033  0.3211
 1010MOL0     O36239   3.212   1.590   9.536 -0.0201  0.7779 -0.6385
 1010MOL0     C36240   3.074   1.601   9.522 -0.2000  0.1624 -0.0803
 1010MOL0     C36241   3.006   1.576   9.404  1.1400  0.5917 -0.2838
 1010MOL0     C36242   2.868   1.595   9.385  0.5168 -0.4667 -1.1477
 1010MOL0     C36243   2.815   1.570   9.238  0.3053 -0.2672  0.3566
 1010MOL0     C36244   2.789   1.628   9.507  0.6209  1.0849  0.2903
 1010MOL0     C36245   2.641   1.630   9.500  0.1561  0.7059  0.2030
 1010MOL0     O36246   2.578   1.544   9.401 -0.8858  0.4998  0.1867
 1010MOL0     C36247   2.441   1.517   9.408  0.1102 -0.6018 -0.7059
 1010MOL0     C36248   2.384   1.470   9.290 -0.8288  0.1256 -0.3579
 1010MOL0     C36249   2.251   1.445   9.270  0.4587 -0.6414 -0.1736
 1010MOL0     C36250   2.160   1.480   9.382  0.4382  0.7171  0.2503
 1010MOL0     O36251   2.026   1.448   9.372 -0.2270  0.2058  0.5621
 1010MOL0     C36252   1.948   1.569   9.384  0.0703  0.2323  0.7268
 1010MOL0     C36253   1.809   1.542   9.437 -0.1970 -0.8653  0.7845
 1010MOL0     C36254   1.751   1.420   9.369  0.9818  0.7206  0.3128
 1010MOL0     C36255   1.604   1.401   9.400  0.4221  0.2946  0.2628
 1010MOL0     C36256   1.546   1.304   9.292 -0.4162 -0.5704 -0.0822
 1010MOL0     C36257   1.403   1.253   9.329 -0.3416 -1.0502  0.0197
 1010MOL0     C36258   1.337   1.164   9.234  0.0231 -0.2510  0.0484
 1010MOL0     C36259   1.189   1.136   9.259 -0.3772 -0.2201 -0.0620
 1010MOL0    Cl36260   1.095   1.290   9.283 -0.1347  0.3945 -0.2230
 1010MOL0     C36261   2.217   1.517   9.507  0.0065 -0.7196  0.1218
 1010MOL0     C36262   2.357   1.540   9.519  0.5526  0.0146  0.7363
 1010MOL0     O36263   2.585   1.698   9.580 -0.1782  0.2980 -0.4872
 1010MOL0     C36264   2.861   1.648   9.629 -0.5923 -0.4292 -0.3460
 1010MOL0     C36265   3.000   1.636   9.633 -0.5407  0.2697 -0.2430
 1010MOL0     N36266   3.629   1.794   9.105  0.0488  0.4210  0.4104
 1010MOL0     N36267   3.744   1.795   9.047  0.9265  0.1001  0.2691
 1010MOL0     C36268   5.137   1.635   9.115 -0.7307  0.2712 -0.4855
 1010MOL0     C36269   5.256   1.645   9.185 -0.1328  0.4876  0.5054
 1010MOL0     C36270   5.575   1.836   9.452  0.1177  0.1639  0.4624
 1010MOL0     C36271   5.627   1.950   9.507  0.6590 -0.4659  0.3011
 1010MOL0     C36272   5.765   1.961   9.516  1.0654 -0.7623 -0.3397
 1010MOL0     C36273   5.846   1.857   9.495  0.1882  0.3613  0.6766
 1010MOL0     O36274   5.979   1.883   9.492 -0.1465 -0.4264 -1.0204
 1010MOL0     C36275   6.074   1.780   9.458 -0.7254  0.3897  0.3753
 1010MOL0     C36276   6.211   1.837   9.452 -0.1719  0.2252 -0.4121
 1010MOL0     C36277   6.281   1.827   9.588 -0.7268  0.0947  0.7669
 1010MOL0     C36278   6.260   1.958   9.680  0.4068 -0.4294 -0.4906
 1010MOL0     C36279   6.329   2.074   9.626 -0.0103 -0.1406 -0.1662
 1010MOL0     C36280   6.393   2.168   9.581  0.1383 -0.0002  0.4790
 1010MOL0     C36281   5.794   1.729   9.452 -0.4752 -0.3728 -0.0071
 1010MOL0     C36282   5.658   1.713   9.424 -0.1761 -0.0893  0.1467
 1010MOL0     H36283   5.132   1.814   9.449 -0.9491  1.9652 -0.2801
 1010MOL0     H36284   4.927   1.799   9.317  0.4469 -1.0520  2.2287
 1010MOL0     H36285   4.779   1.783   9.197  2.7154  0.5296 -0.3159
 1010MOL0     H36286   4.815   1.842   9.031  0.6018  0.4036  1.0073
 1010MOL0     H36287   4.686   1.672   8.943 -1.1335  0.8694 -1.0226
 1010MOL0     H36288   4.680   1.573   9.090 -4.4874 -0.0226  1.0493
 1010MOL0     H36289   4.528   1.731   9.192  2.6183 -3.6963  0.0676
 1010MOL0     H36290   4.526   1.844   9.047  1.3812  0.2859 -1.0766
 1010MOL0     H36291   4.419   1.692   8.915 -0.9021  2.6805  0.8298
 1010MOL0     H36292   4.451   1.557   9.021 -2.7125  0.2945  1.4523
 1010MOL0     H36293   4.283   1.644   9.181 -0.1432 -0.0735 -0.5430
 1010MOL0     H36294   4.272   1.789   9.087  0.4987  0.5480  1.2770
 1010MOL0     H36295   4.171   1.675   8.896  0.2137  0.9487  1.2057
 1010MOL0     H36296   4.188   1.512   8.959  0.8913  1.2600 -1.9915
 1010MOL0     H36297   3.963   1.556   9.018 -0.2430 -1.9029  3.3785
 1010MOL0     H36298   4.045   1.593   9.163 -3.4870 -3.6835 -0.2659
 1010MOL0     H36299   3.983   1.814   8.976 -1.7703 -3.0272 -0.8465
 1010MOL0     H36300   4.060   1.828   9.129 -0.6724  1.8151  1.2523
 1010MOL0     H36301   3.849   1.716   9.350  1.7347  5.4169  1.3998
 1010MOL0     H36302   3.592   1.824   9.412  0.1405  3.5075 -3.7712
 1010MOL0     H36303   3.463   1.791   9.304  2.5164  4.0171 -0.1969
 1010MOL0     H36304   3.635   1.604   9.463 -1.7253  0.5179  1.9377
 1010MOL0     H36305   3.556   1.532   9.323 -0.4264  0.1384 -0.4231
 1010MOL0     H36306   3.428   1.681   9.555  2.3059  1.0855 -2.8152
 1010MOL0     H36307   3.444   1.503   9.562 -1.8492 -1.3168 -0.9131
 1010MOL0     H36308   3.287   1.505   9.367  0.3820 -0.7916  0.7870
 1010MOL0     H36309   3.284   1.689   9.372 -1.1970 -0.6489  0.2570
 1010MOL0     H36310   3.066   1.533   9.325  1.1730 -0.7525  0.4385
 1010MOL0     H36311   2.764   1.473   9.232 -1.8068  0.8271 -0.6130
 1010MOL0     H36312   2.746   1.646   9.202 -0.6930 -0.3790  1.9267
 1010MOL0     H36313   2.899   1.564   9.169  1.8898  0.0961  2.1702
 1010MOL0     H36314   2.461   1.445   9.218  0.3234 -0.6763  1.1188
 1010MOL0     H36315   2.197   1.419   9.180 -0.1194  0.3067 -0.1204
 1010MOL0     H36316   1.989   1.645   9.451 -0.6850  0.5739  0.8204
 1010MOL0     H36317   1.945   1.625   9.290 -1.4467  0.7973  1.0688
 1010MOL0     H36318   1.814   1.538   9.546 -0.4215  0.9498  0.8990
 1010MOL0     H36319   1.745   1.629   9.418  0.5402 -0.5295 -0.2874
 1010MOL0     H36320   1.798   1.330   9.410 -2.7823 -3.1502 -2.9198
 1010MOL0     H36321   1.764   1.427   9.261  0.8318  1.3467  0.3303
 1010MOL0     H36322   1.601   1.356   9.500  0.7358 -3.4694 -1.2860
 1010MOL0     H36323   1.548   1.495   9.401  2.5479  1.6455  0.4195
 1010MOL0     H36324   1.606   1.215   9.273 -1.3584 -1.3273  0.4008
 1010MOL0     H36325   1.560   1.358   9.197  1.0009 -1.7576 -0.5826
 1010MOL0     H36326   1.407   1.199   9.424 -1.1527 -2.0768 -0.5049
 1010MOL0     H36327   1.347   1.344   9.351  0.7081 -0.8636  2.1193
 1010MOL0     H36328   1.380   1.063   9.236  0.7147 -0.0164 -1.5368
 1010MOL0     H36329   1.351   1.197   9.131  2.0859  1.4626  0.8169
 1010MOL0     H36330   1.176   1.071   9.346  1.8451 -0.9944 -0.2681
 1010MOL0     H36331   1.141   1.087   9.173  1.7651  0.0305 -1.4738
 1010MOL0     H36332   2.153   1.543   9.591  0.6264  0.2968  0.2954
 1010MOL0     H36333   2.393   1.585   9.611 -1.6633 -0.3352  1.8390
 1010MOL0     H36334   2.809   1.671   9.721  1.2114  1.3819  0.2787
 1010MOL0     H36335   3.052   1.667   9.724 -0.3638 -0.4226 -0.1077
 1010MOL0     H36336   5.125   1.592   9.016 -0.8699 -0.8901  0.0116
 1010MOL0     H36337   5.347   1.605   9.141 -0.9429 -0.0053 -0.7721
 1010MOL0     H36338   5.562   2.035   9.524  1.1008  0.1431 -0.9496
 1010MOL0     H36339   5.797   2.063   9.534 -1.1374  0.1197 -1.1087
 1010MOL0     H36340   6.060   1.697   9.527  1.1347 -0.4609 -0.2146
 1010MOL0     H36341   6.043   1.735   9.363  1.0759 -1.8373  0.7584
 1010MOL0     H36342   6.212   1.943   9.428  1.7715  0.4048  0.3456
 1010MOL0     H36343   6.262   1.793   9.366 -4.1979 -1.8803 -1.9993
 1010MOL0     H36344   6.387   1.813   9.565 -0.8825 -0.3222  0.2952
 1010MOL0     H36345   6.263   1.727   9.629  1.0288 -1.2724 -1.5423
 1010MOL0     H36346   6.311   1.927   9.772  0.8556  1.3562 -0.0939
 1010MOL0     H36347   6.155   1.982   9.695  0.7212  0.2605  0.6965
 1010MOL0     H36348   6.423   2.265   9.549 -0.7285 -0.1396 -0.8326
 1010MOL0     H36349   5.852   1.642   9.425 -1.5885 -1.0591 -0.2638
 1010MOL0     H36350   5.622   1.613   9.401  0.2201 -0.0748 -0.5295
 1011MOL0     O36351   9.142   8.796   8.533  0.1094  0.2350 -0.1769
 1011MOL0     C36352   9.175   8.680   8.494 -0.1573 -0.5039 -0.9772
 1011MOL0     O36353   9.108   8.564   8.535 -0.2438 -0.0978 -0.8405
 1011MOL0     C36354   9.023   8.584   8.631 -0.6737 -0.4610  0.4651
 1011MOL0     C36355   9.063   8.606   8.766 -0.5145  0.0043  0.6103
 1011MOL0     C36356   8.960   8.607   8.867 -0.5211 -1.1000 -0.3058
 1011MOL0     C36357   8.829   8.592   8.840  0.6589  0.4970  0.8942
 1011MOL0     O36358   8.740   8.588   8.939 -0.4114  0.3554  0.0316
 1011MOL0     C36359   8.603   8.597   8.909  0.0843 -0.4064  0.2960
 1011MOL0     C36360   8.522   8.601   9.040  0.7759  0.2648 -0.5009
 1011MOL0     C36361   8.370   8.601   9.028 -0.8364  0.2049  0.4976
 1011MOL0     C36362   8.308   8.568   9.153 -0.3799 -0.1785 -0.0699
 1011MOL0     C36363   8.162   8.534   9.134  0.9555 -0.4185  0.6686
 1011MOL0     C36364   8.079   8.595   9.243 -0.8713 -0.2916 -0.4957
 1011MOL0     C36365   7.935   8.563   9.240  0.1257 -0.1783 -0.5758
 1011MOL0     C36366   7.881   8.573   9.096  0.6841 -0.1571  0.6956
 1011MOL0     N36367   7.731   8.585   9.115 -0.2210 -0.1438 -0.1492
 1011MOL0     C36368   7.665   8.702   9.113  0.4099  1.0139 -0.3060
 1011MOL0     C36369   7.537   8.660   9.116 -0.0719  0.0989 -0.5658
 1011MOL0     C36370   7.419   8.752   9.108  0.4241 -0.8888  0.4020
 1011MOL0     C36371   7.330   8.725   8.991  0.8032  0.5437  0.2667
 1011MOL0     C36372   7.231   8.607   9.020 -0.6406 -0.4700  0.4881
 1011MOL0     C36373   7.100   8.653   9.092 -0.2740 -0.3756  0.4381
 1011MOL0     O36374   7.042   8.752   9.003  0.1299 -0.2480  0.1710
 1011MOL0     C36375   6.912   8.796   9.045 -0.3508  0.4446  0.6937
 1011MOL0     C36376   6.849   8.768   9.171 -0.4947 -0.4579 -0.4159
 1011MOL0     C36377   6.718   8.814   9.205 -0.1759 -0.6294  0.0545
 1011MOL0     C36378   6.675   8.778   9.344  1.3744 -0.0619 -1.1909
 1011MOL0     C36379   6.651   8.898   9.113 -0.1929  0.2410 -0.1980
 1011MOL0     C36380   6.513   8.963   9.131 -0.1055 -0.3410 -0.5577
 1011MOL0     O36381   6.438   9.008   9.018 -0.5568  0.3521 -0.3388
 1011MOL0     C36382   6.325   9.068   9.050  0.2432 -0.7131 -0.2416
 1011MOL0     C36383   6.209   8.995   9.031  0.2869  0.0687  0.1384
 1011MOL0     C36384   6.082   9.064   9.035 -0.6354  0.4579  0.2537
 1011MOL0     C36385   6.082   9.191   9.086  0.0427  1.0240 -0.1671
 1011MOL0     O36386   5.954   9.234   9.093  0.3562 -0.3702  0.6508
 1011MOL0     C36387   5.936   9.361   9.155 -1.1376 -0.1501  0.1433
 1011MOL0     C36388   5.785   9.383   9.169 -0.0067  0.0235 -0.3450
 1011MOL0     C36389   5.752   9.525   9.212  0.5219 -0.0719  0.1621
 1011MOL0     C36390   5.595   9.538   9.213  0.4965 -0.4499  0.3890
 1011MOL0     C36391   5.558   9.673   9.265 -0.1807  0.2143 -0.1453
 1011MOL0     C36392   5.575   9.673   9.417  0.1886  0.1646 -0.2632
 1011MOL0     C36393   5.503   9.796   9.471 -0.0520  0.3839  0.7689
 1011MOL0     C36394   5.559   9.938   9.437 -0.3505  0.5887 -0.4773
 1011MOL0    Cl36395   5.464  10.064   9.500  0.0486 -0.0607  0.6609
 1011MOL0     C36396   6.202   9.262   9.108 -0.1864 -0.6352 -0.0338
 1011MOL0     C36397   6.322   9.198   9.088  0.1667  0.6396  0.0516
 1011MOL0     O36398   6.481   8.995   9.244 -0.1395  0.5250 -0.3021
 1011MOL0     C36399   6.708   8.930   8.990 -0.2756  0.6245  0.8835
 1011MOL0     C36400   6.838   8.879   8.961  0.4234 -0.0598  0.5451
 1011MOL0     N36401   7.523   8.524   9.125  0.1682  0.1421 -0.0651
 1011MOL0     N36402   7.642   8.479   9.120  0.3891  0.0085  0.0289
 1011MOL0     C36403   8.798   8.572   8.708  0.6040 -0.4286 -0.0381
 1011MOL0     C36404   8.890   8.569   8.604  0.3048  0.5115  0.1497
 1011MOL0     C36405   9.284   8.667   8.398 -0.1804  0.7080  0.3318
 1011MOL0     C36406   9.357   8.787   8.380 -0.9789  0.4846  1.2636
 1011MOL0     C36407   9.468   8.791   8.282  0.3274  0.0309  0.4695
 1011MOL0     C36408   9.494   8.672   8.214  0.1975  0.0687  0.4795
 1011MOL0     O36409   9.604   8.644   8.135 -1.1965  0.4138  0.1733
 1011MOL0     C36410   9.719   8.739   8.147 -0.9127  1.6229 -0.4916
 1011MOL0     C36411   9.851   8.669   8.094 -0.1130  0.7731 -0.3054
 1011MOL0     C36412   9.908   8.567   8.194  0.5946  0.0777 -1.1064
 1011MOL0     C36413  10.013   8.466   8.139 -0.7090  0.3372  0.0363
 1011MOL0     C36414  10.150   8.523   8.120 -0.7667  0.6895  0.5627
 1011MOL0     C36415  10.268   8.557   8.115  0.0503 -0.8997 -0.2719
 1011MOL0     C36416   9.413   8.564   8.231  0.2333 -0.5729 -0.1622
 1011MOL0     C36417   9.317   8.552   8.328 -0.1413  0.5480  0.2407
 1011MOL0     H36418   9.169   8.608   8.786 -0.0653 -2.1351 -1.1681
 1011MOL0     H36419   8.979   8.618   8.973  0.6804  0.4461 -0.6442
 1011MOL0     H36420   8.582   8.696   8.865 -2.5070 -1.0330 -0.0343
 1011MOL0     H36421   8.568   8.524   8.836 -1.0010  3.3419 -3.3151
 1011MOL0     H36422   8.554   8.514   9.099 -0.3432  1.6579  2.3302
 1011MOL0     H36423   8.553   8.684   9.104  1.4468 -1.1546  1.1074
 1011MOL0     H36424   8.338   8.700   8.995 -0.3832 -0.1873 -1.2244
 1011MOL0     H36425   8.339   8.518   8.964  3.5242 -0.7138 -0.7379
 1011MOL0     H36426   8.356   8.487   9.209 -2.5719  0.0207  2.2928
 1011MOL0     H36427   8.313   8.652   9.224 -1.8629  0.5100 -0.7499
 1011MOL0     H36428   8.122   8.568   9.038 -2.2513 -2.6842  1.0590
 1011MOL0     H36429   8.153   8.425   9.131 -2.1772 -0.2668  1.4837
 1011MOL0     H36430   8.119   8.566   9.341  0.8167 -0.7403 -1.2819
 1011MOL0     H36431   8.095   8.701   9.221  0.0373 -1.2949 -6.1538
 1011MOL0     H36432   7.930   8.459   9.273  0.2167  0.5016  1.7016
 1011MOL0     H36433   7.884   8.629   9.311 -0.5630 -1.7042  0.3877
 1011MOL0     H36434   7.908   8.490   9.031 -0.0816 -0.1485  0.3552
 1011MOL0     H36435   7.916   8.666   9.051  0.4900  0.8824  2.5556
 1011MOL0     H36436   7.717   8.795   9.096 -2.8285  2.7851 -1.2370
 1011MOL0     H36437   7.370   8.746   9.206  1.5022  3.0920  1.3556
 1011MOL0     H36438   7.450   8.856   9.098  0.3179 -1.0494 -1.9997
 1011MOL0     H36439   7.404   8.701   8.913  0.3708 -0.1618  0.0598
 1011MOL0     H36440   7.278   8.816   8.960 -0.7325 -0.1492  0.7336
 1011MOL0     H36441   7.277   8.537   9.090 -0.7040 -0.1478  0.8578
 1011MOL0     H36442   7.212   8.557   8.924 -2.1237  0.4374  0.2628
 1011MOL0     H36443   7.123   8.704   9.186 -0.6595 -0.7064  0.7131
 1011MOL0     H36444   7.028   8.572   9.109 -2.5051  0.8241 -2.4420
 1011MOL0     H36445   6.899   8.721   9.256 -0.8592  2.4311  1.5688
 1011MOL0     H36446   6.724   8.843   9.417  1.3883 -3.8881  2.5540
 1011MOL0     H36447   6.566   8.784   9.351  1.2012  0.9814 -3.7779
 1011MOL0     H36448   6.692   8.673   9.367 -0.2595 -0.2423 -0.6385
 1011MOL0     H36449   6.223   8.893   8.996 -0.5955 -0.1826  0.4833
 1011MOL0     H36450   5.992   9.010   9.011  0.0331 -0.1238 -0.9983
 1011MOL0     H36451   5.984   9.369   9.253  2.9985 -1.2067 -1.5629
 1011MOL0     H36452   5.983   9.440   9.096 -0.9757 -0.8734 -0.7186
 1011MOL0     H36453   5.737   9.360   9.073 -0.7594 -1.3001  0.3193
 1011MOL0     H36454   5.738   9.311   9.236 -2.6534  0.5960 -1.4438
 1011MOL0     H36455   5.783   9.604   9.143 -0.0054 -0.5359 -0.6097
 1011MOL0     H36456   5.794   9.552   9.310 -0.4995  3.2006 -0.1675
 1011MOL0     H36457   5.551   9.537   9.113 -0.0462 -0.1571  0.6198
 1011MOL0     H36458   5.542   9.468   9.279 -0.1067  1.6416  2.2434
 1011MOL0     H36459   5.453   9.688   9.236 -0.8313 -0.8463  1.5081
 1011MOL0     H36460   5.615   9.746   9.207  1.1858 -1.2596 -0.7451
 1011MOL0     H36461   5.537   9.584   9.468  0.6729  0.2307  0.2131
 1011MOL0     H36462   5.684   9.673   9.424  0.1688  0.5325  0.0818
 1011MOL0     H36463   5.500   9.793   9.581  1.1966  3.6030  1.0029
 1011MOL0     H36464   5.401   9.792   9.430 -0.4785 -2.2816  1.8891
 1011MOL0     H36465   5.567   9.940   9.327 -0.5049  0.2601 -0.4972
 1011MOL0     H36466   5.661   9.935   9.474 -0.2944 -4.2430 -0.4057
 1011MOL0     H36467   6.205   9.366   9.139 -1.0048 -0.4424 -0.5624
 1011MOL0     H36468   6.404   9.269   9.088  0.2259  0.5760 -0.8381
 1011MOL0     H36469   6.656   8.980   8.910 -0.7216 -0.5118  0.4454
 1011MOL0     H36470   6.871   8.903   8.860  2.0644  0.4873  1.1802
 1011MOL0     H36471   8.691   8.564   8.687 -0.0743  1.1453  2.4460
 1011MOL0     H36472   8.839   8.538   8.513 -1.1371  0.3299  0.9998
 1011MOL0     H36473   9.343   8.879   8.435  2.6366  2.8635 -1.3277
 1011MOL0     H36474   9.520   8.884   8.263 -1.9411  1.3879  0.5651
 1011MOL0     H36475   9.699   8.824   8.081 -1.7327  1.1688 -0.8397
 1011MOL0     H36476   9.731   8.769   8.251 -1.0220 -0.2128  0.0863
 1011MOL0     H36477   9.930   8.742   8.074  0.1856  0.3017 -0.8774
 1011MOL0     H36478   9.820   8.609   8.008 -2.2614  2.0545 -0.5082
 1011MOL0     H36479   9.825   8.510   8.238 -0.2889  0.5903 -2.0950
 1011MOL0     H36480   9.944   8.619   8.283  0.3878 -0.3157 -0.7877
 1011MOL0     H36481   9.969   8.416   8.052 -2.4634 -0.6560  1.4224
 1011MOL0     H36482  10.034   8.384   8.209  1.6500  1.2488  0.4864
 1011MOL0     H36483  10.356   8.618   8.111 -0.0222 -0.3115  3.2278
 1011MOL0     H36484   9.439   8.474   8.176  0.1845 -0.8567  0.2714
 1011MOL0     H36485   9.263   8.458   8.337 -0.7104  0.6175 -1.8395
 1012MOL0     O36486   4.128   0.150   0.943 -0.0972  0.8054  0.5373
 1012MOL0     C36487   4.177   0.261   0.920 -0.0182 -0.4619  0.8278
 1012MOL0     O36488   4.117   0.355   0.842 -0.3350  0.4290  0.3537
 1012MOL0     C36489   4.004   0.313   0.775  0.7845 -0.1902 -0.1404
 1012MOL0     C36490   3.871   0.347   0.810  0.2953  0.0646 -0.2905
 1012MOL0     C36491   3.761   0.294   0.746  0.0240  0.5758  0.3242
 1012MOL0     C36492   3.783   0.198   0.639  0.1712  0.3154 -0.8876
 1012MOL0     O36493   3.689   0.139   0.571  0.8563  0.5987 -0.2989
 1012MOL0     C36494   3.645   0.216   0.455 -0.0090  0.5712 -0.0647
 1012MOL0     C36495   3.519   0.143   0.413  0.6443 -0.5805  0.5961
 1012MOL0     C36496   3.465   0.200   0.281  0.0872 -0.6261 -1.0543
 1012MOL0     C36497   3.354   0.115   0.225  0.3644  0.5360  1.0559
 1012MOL0     C36498   3.311   0.169   0.090 -0.1353  0.8765 -0.0814
 1012MOL0     C36499   3.181   0.102   0.043 -0.6571 -0.1822  0.0404
 1012MOL0     C36500   3.151   0.157  -0.090 -0.6063  0.0855 -0.2226
 1012MOL0     C36501   3.021   0.097  -0.149  0.2472  0.6539 -0.6807
 1012MOL0     N36502   3.000   0.140  -0.289  0.3590 -0.6354 -0.0018
 1012MOL0     C36503   3.094   0.108  -0.384 -0.5085  0.1064 -0.0678
 1012MOL0     C36504   3.050   0.169  -0.498  0.3721 -0.3284 -0.2144
 1012MOL0     C36505   3.117   0.161  -0.631 -0.5884  0.4033 -0.2037
 1012MOL0     C36506   3.224   0.264  -0.643 -0.0928 -0.6635  0.0581
 1012MOL0     C36507   3.367   0.224  -0.594  0.0465  0.5585 -0.3606
 1012MOL0     C36508   3.470   0.325  -0.602  0.1862  0.3497  0.6597
 1012MOL0     O36509   3.603   0.269  -0.579 -0.5235 -0.4560 -0.1731
 1012MOL0     C36510   3.648   0.230  -0.451 -0.1523  0.4587 -0.1051
 1012MOL0     C36511   3.775   0.167  -0.447  0.5785 -0.3761  0.4433
 1012MOL0     C36512   3.834   0.140  -0.325  0.1053  0.3283  0.3947
 1012MOL0     C36513   3.982   0.099  -0.328 -0.6286 -0.5236 -0.1415
 1012MOL0     C36514   3.760   0.145  -0.201 -0.0412  0.6026  0.7800
 1012MOL0     C36515   3.823   0.127  -0.069 -0.2688 -0.3006 -0.4268
 1012MOL0     O36516   3.881   0.008  -0.041  0.0196  0.0911 -0.0085
 1012MOL0     C36517   3.921  -0.009   0.089  0.3401 -0.4369  0.3786
 1012MOL0     C36518   3.836  -0.009   0.198 -0.9125 -0.3329 -0.0556
 1012MOL0     C36519   3.886  -0.056   0.326  0.1167 -0.0266 -0.1954
 1012MOL0     C36520   4.019  -0.095   0.337 -1.1873 -0.0803  0.1622
 1012MOL0     O36521   4.070  -0.126   0.469  0.5484 -0.9308  0.9448
 1012MOL0     C36522   4.203  -0.095   0.485 -0.0350 -0.6926  0.5256
 1012MOL0     C36523   4.232  -0.107   0.631 -0.2248 -0.5159 -0.0438
 1012MOL0     C36524   4.377  -0.065   0.671  0.6396  0.3072 -0.3904
 1012MOL0     C36525   4.432  -0.100   0.809 -0.5461  0.0851 -0.3629
 1012MOL0     C36526   4.580  -0.053   0.824 -0.2926 -0.5679 -0.5806
 1012MOL0     C36527   4.636  -0.073   0.967 -0.0502 -0.0210 -0.1318
 1012MOL0     C36528   4.767   0.009   0.990  0.5165 -1.1224 -0.0101
 1012MOL0     C36529   4.810   0.018   1.139 -0.6152  0.4486 -0.0053
 1012MOL0    Cl36530   4.824  -0.143   1.206 -0.3020 -0.4172  0.0726
 1012MOL0     C36531   4.107  -0.095   0.222 -0.7436  0.4585 -0.4388
 1012MOL0     C36532   4.049  -0.062   0.102 -0.4084 -0.0601  1.0005
 1012MOL0     O36533   3.809   0.226   0.006 -0.1259 -0.0468  0.2403
 1012MOL0     C36534   3.627   0.205  -0.209  0.0751  0.0668  0.3972
 1012MOL0     C36535   3.573   0.250  -0.329 -0.7713  0.1649 -0.2741
 1012MOL0     N36536   2.946   0.257  -0.467 -0.6621 -0.2225  0.2964
 1012MOL0     N36537   2.911   0.237  -0.343 -0.7016 -0.8593 -0.7904
 1012MOL0     C36538   3.915   0.162   0.610 -0.6327  0.7471  0.1901
 1012MOL0     C36539   4.022   0.211   0.677 -0.0704 -0.9879 -0.1518
 1012MOL0     C36540   4.309   0.302   0.965 -0.8335  0.7775  0.2247
 1012MOL0     C36541   4.389   0.392   0.891 -0.4061  0.2298 -0.2722
 1012MOL0     C36542   4.520   0.411   0.933 -0.7154 -0.1026 -0.1764
 1012MOL0     C36543   4.575   0.339   1.034 -0.6120 -0.6256 -0.4226
 1012MOL0     O36544   4.706   0.365   1.061 -0.5091 -0.3347 -0.2614
 1012MOL0     C36545   4.740   0.404   1.188  0.4421 -0.1594  0.3970
 1012MOL0     C36546   4.859   0.496   1.190  0.0475  0.0658 -0.4832
 1012MOL0     C36547   5.002   0.434   1.153  0.1707 -0.3500  0.2311
 1012MOL0     C36548   5.120   0.524   1.193 -0.1952 -0.1427 -0.4190
 1012MOL0     C36549   5.111   0.664   1.141 -0.6021  0.1906 -0.4410
 1012MOL0     C36550   5.099   0.774   1.094 -1.0547  0.2086  0.7815
 1012MOL0     C36551   4.492   0.248   1.101 -0.5048 -0.8037 -0.4621
 1012MOL0     C36552   4.363   0.230   1.077  0.4880  0.1386  0.2090
 1012MOL0     H36553   3.856   0.412   0.896  0.6132 -1.5273  1.0355
 1012MOL0     H36554   3.659   0.328   0.762  0.1767  0.4653  1.6026
 1012MOL0     H36555   3.631   0.319   0.489 -1.0406 -0.3401  2.5406
 1012MOL0     H36556   3.722   0.209   0.378  1.6460 -3.6473  1.6820
 1012MOL0     H36557   3.561   0.048   0.379  1.0528  0.2452 -1.3612
 1012MOL0     H36558   3.444   0.130   0.490  0.7060  2.3517  1.2752
 1012MOL0     H36559   3.435   0.302   0.309  1.0474 -0.7709  0.6936
 1012MOL0     H36560   3.550   0.205   0.213  1.0706 -0.8106  0.1191
 1012MOL0     H36561   3.390   0.012   0.221 -3.0945 -0.7652 -0.7563
 1012MOL0     H36562   3.269   0.112   0.294 -2.9347 -1.6258 -2.6898
 1012MOL0     H36563   3.290   0.275   0.104 -1.0996  0.4809  1.8412
 1012MOL0     H36564   3.385   0.149   0.012  2.2062 -1.2069  2.4530
 1012MOL0     H36565   3.192  -0.007   0.050 -1.4269 -0.5883 -3.3000
 1012MOL0     H36566   3.101   0.135   0.109  1.9397  0.8817  2.8724
 1012MOL0     H36567   3.143   0.266  -0.095 -1.9392  0.0019 -0.3328
 1012MOL0     H36568   3.233   0.116  -0.151  0.2435  1.9522 -0.3900
 1012MOL0     H36569   2.926   0.111  -0.096  0.0926 -1.4648 -0.2998
 1012MOL0     H36570   3.027  -0.012  -0.142  0.4727  0.6506 -0.9228
 1012MOL0     H36571   3.178   0.042  -0.366 -0.6582  0.2463  1.2452
 1012MOL0     H36572   3.153   0.059  -0.646  1.6661  0.9400  1.0912
 1012MOL0     H36573   3.042   0.175  -0.709  2.3892  0.2867 -3.2965
 1012MOL0     H36574   3.194   0.353  -0.586  1.5328 -1.6965  2.7028
 1012MOL0     H36575   3.232   0.301  -0.746 -2.8241  1.9600  0.6373
 1012MOL0     H36576   3.397   0.135  -0.650  0.0017  1.6012 -2.0973
 1012MOL0     H36577   3.357   0.189  -0.490  1.2689  2.2643  0.3828
 1012MOL0     H36578   3.463   0.411  -0.535 -2.4147  2.3577 -1.9363
 1012MOL0     H36579   3.458   0.376  -0.698 -2.0451 -2.8737 -0.9492
 1012MOL0     H36580   3.823   0.164  -0.544  1.5932  1.9337  0.8056
 1012MOL0     H36581   4.029   0.148  -0.243  1.0886 -0.6628 -0.9742
 1012MOL0     H36582   3.994  -0.009  -0.331  0.6786 -0.3722 -1.3386
 1012MOL0     H36583   4.028   0.138  -0.419 -2.2217 -0.0215 -0.7851
 1012MOL0     H36584   3.734   0.022   0.182 -0.4292  1.2347 -0.2781
 1012MOL0     H36585   3.814  -0.047   0.407 -1.5336  2.7576 -1.7988
 1012MOL0     H36586   4.268  -0.169   0.437 -0.5785 -1.6014  1.1708
 1012MOL0     H36587   4.220   0.009   0.455 -0.5607  0.0686  2.7337
 1012MOL0     H36588   4.169  -0.039   0.690  1.9477  0.3352  1.4179
 1012MOL0     H36589   4.212  -0.209   0.663  1.9800 -0.9749  0.0105
 1012MOL0     H36590   4.383   0.044   0.661 -0.0617  0.5126  1.0737
 1012MOL0     H36591   4.445  -0.112   0.599  1.7772  0.5507  0.4964
 1012MOL0     H36592   4.367  -0.048   0.880 -2.2477 -1.6470 -0.5820
 1012MOL0     H36593   4.432  -0.207   0.832 -0.9816  0.0173 -0.6824
 1012MOL0     H36594   4.587   0.053   0.799  0.0850 -0.8286 -1.6111
 1012MOL0     H36595   4.648  -0.100   0.753 -0.4269  1.9154 -2.4949
 1012MOL0     H36596   4.567  -0.034   1.043  1.0754  1.5211  0.1548
 1012MOL0     H36597   4.644  -0.181   0.981 -2.1864 -0.5094 -2.1042
 1012MOL0     H36598   4.756   0.107   0.943 -1.5080 -1.3242 -0.0561
 1012MOL0     H36599   4.848  -0.046   0.940  0.3565 -0.3353 -1.1836
 1012MOL0     H36600   4.736   0.079   1.193 -0.2793 -1.3000  2.5816
 1012MOL0     H36601   4.906   0.070   1.149 -0.1177 -0.5051  0.3189
 1012MOL0     H36602   4.210  -0.125   0.238 -1.5043 -1.7068  0.8783
 1012MOL0     H36603   4.112  -0.067   0.013 -0.2593 -1.4831  1.1624
 1012MOL0     H36604   3.574   0.222  -0.115  1.9832  0.2508  1.4839
 1012MOL0     H36605   3.474   0.294  -0.332 -0.0640  2.2008  2.2642
 1012MOL0     H36606   3.948   0.081   0.546  3.7604  1.3180  1.4000
 1012MOL0     H36607   4.127   0.195   0.657  0.7128  3.2592 -0.4519
 1012MOL0     H36608   4.357   0.439   0.799  1.1046 -2.3595 -2.2747
 1012MOL0     H36609   4.584   0.481   0.881  1.8297 -1.4574  0.9389
 1012MOL0     H36610   4.658   0.466   1.227 -0.9116 -1.6029 -0.0463
 1012MOL0     H36611   4.742   0.321   1.259 -1.7382  0.8677  1.7864
 1012MOL0     H36612   4.865   0.539   1.290  0.9175 -2.7494  0.7613
 1012MOL0     H36613   4.837   0.582   1.126  1.4908  2.1558  1.6877
 1012MOL0     H36614   5.005   0.410   1.046  0.6801 -2.2791  0.6516
 1012MOL0     H36615   5.022   0.342   1.207  0.6089  0.0072  0.6883
 1012MOL0     H36616   5.204   0.475   1.143  0.1590 -1.4164  1.3495
 1012MOL0     H36617   5.149   0.526   1.298 -0.1114  1.6829 -0.4442
 1012MOL0     H36618   5.108   0.867   1.041 -2.8088 -0.3129 -0.5533
 1012MOL0     H36619   4.537   0.195   1.184 -1.1122 -3.5951 -1.8190
 1012MOL0     H36620   4.293   0.167   1.131  0.9836 -0.3698  0.2668
 1013MOL0     O36621   2.777   3.628   3.353  1.1545 -0.0074 -0.1665
 1013MOL0     C36622   2.791   3.663   3.469 -0.5047  0.6097 -1.0257
 1013MOL0     O36623   2.694   3.686   3.560  0.0521  0.4243 -0.1223
 1013MOL0     C36624   2.564   3.685   3.528  0.7646 -0.0862  1.1679
 1013MOL0     C36625   2.499   3.577   3.457 -0.6368 -0.2244 -0.3830
 1013MOL0     C36626   2.363   3.590   3.422 -0.2840  0.2455 -0.1150
 1013MOL0     C36627   2.297   3.711   3.439 -0.6144 -0.0268 -0.6806
 1013MOL0     O36628   2.168   3.739   3.402 -0.0471 -0.6483 -0.2887
 1013MOL0     C36629   2.094   3.665   3.304 -1.1620  0.2925 -0.6575
 1013MOL0     C36630   2.018   3.756   3.210  0.0083  0.6146 -0.3125
 1013MOL0     C36631   1.954   3.678   3.096  0.3226  0.2163  0.3064
 1013MOL0     C36632   1.833   3.767   3.058  0.1696 -0.3164  0.0244
 1013MOL0     C36633   1.777   3.748   2.919 -0.3128 -0.1162 -0.4559
 1013MOL0     C36634   1.639   3.792   2.892  0.0138 -0.0383 -0.5440
 1013MOL0     C36635   1.602   3.920   2.968  0.1443 -0.2853  0.5461
 1013MOL0     C36636   1.474   3.981   2.922 -0.1368  0.2454 -0.0020
 1013MOL0     N36637   1.357   3.888   2.943 -0.8031 -1.0328 -0.2961
 1013MOL0     C36638   1.292   3.828   2.841 -0.4850  0.3978  0.3224
 1013MOL0     C36639   1.191   3.762   2.890  0.5190 -0.3844 -0.0281
 1013MOL0     C36640   1.102   3.657   2.819  1.2391 -1.0774 -0.2152
 1013MOL0     C36641   0.956   3.634   2.878  0.2507 -0.5188  0.7488
 1013MOL0     C36642   0.866   3.755   2.888  0.4246 -0.0197  0.5295
 1013MOL0     C36643   0.914   3.859   2.995 -0.2505  0.0924  0.2185
 1013MOL0     O36644   0.808   3.946   3.047 -0.7633  0.2238  0.7421
 1013MOL0     C36645   0.750   4.036   2.970 -0.5760  0.4504 -0.0757
 1013MOL0     C36646   0.771   4.167   2.996  1.1294 -0.0932 -0.8725
 1013MOL0     C36647   0.697   4.271   2.938  0.6851  0.4506  0.0260
 1013MOL0     C36648   0.726   4.412   2.981 -0.2306  0.1890 -0.0505
 1013MOL0     C36649   0.603   4.239   2.832 -0.0622 -0.6769  0.2244
 1013MOL0     C36650   0.520   4.334   2.753 -0.1448  0.9855  0.8878
 1013MOL0     O36651   0.553   4.468   2.755  0.5427 -0.0341  0.5955
 1013MOL0     C36652   0.491   4.567   2.687  0.0133  0.6707 -0.0878
 1013MOL0     C36653   0.549   4.692   2.719 -0.3627 -0.1983  1.1734
 1013MOL0     C36654   0.505   4.805   2.658  0.2975  0.0516  0.3190
 1013MOL0     C36655   0.401   4.800   2.564  0.1822  0.2244 -0.1803
 1013MOL0     O36656   0.367   4.922   2.513  0.4206 -0.2792 -0.8617
 1013MOL0     C36657   0.301   4.927   2.384  0.4533 -0.4810  0.0961
 1013MOL0     C36658   0.296   5.068   2.332  0.8186 -0.2925  0.1652
 1013MOL0     C36659   0.437   5.130   2.328 -0.0737 -0.2891  0.5875
 1013MOL0     C36660   0.451   5.258   2.255 -0.4539  0.2191  0.1543
 1013MOL0     C36661   0.591   5.314   2.286 -0.1167  0.3255  0.0477
 1013MOL0     C36662   0.613   5.460   2.227 -0.0926  0.3170 -0.5377
 1013MOL0     C36663   0.753   5.505   2.243 -0.2503 -0.6842  0.1584
 1013MOL0     C36664   0.782   5.625   2.158 -0.8656 -0.5881 -0.0033
 1013MOL0    Cl36665   0.726   5.783   2.239  0.2646  0.1876 -0.5902
 1013MOL0     C36666   0.334   4.675   2.535  0.0729 -0.6783  0.1476
 1013MOL0     C36667   0.383   4.557   2.597  0.0822 -0.2140 -0.7008
 1013MOL0     O36668   0.443   4.283   2.670 -0.4350 -0.2500 -0.1027
 1013MOL0     C36669   0.593   4.098   2.804 -0.4561  0.5941  0.1482
 1013MOL0     C36670   0.660   3.999   2.876 -0.2684 -0.5109  0.0267
 1013MOL0     N36671   1.203   3.783   3.028 -0.0708 -0.1522 -0.4151
 1013MOL0     N36672   1.286   3.875   3.053 -0.0069  0.4049 -0.8828
 1013MOL0     C36673   2.362   3.814   3.514 -0.6336  0.8011  0.3997
 1013MOL0     C36674   2.490   3.796   3.564  0.3809  0.5509 -0.3158
 1013MOL0     C36675   2.929   3.692   3.530  0.8650 -0.8628  1.0615
 1013MOL0     C36676   2.943   3.751   3.660 -0.3612  0.3416  0.7376
 1013MOL0     C36677   3.069   3.766   3.727 -0.4183  0.1961 -0.9755
 1013MOL0     C36678   3.185   3.733   3.647 -0.0495 -0.6692 -0.1358
 1013MOL0     O36679   3.304   3.746   3.716 -0.7830  0.4317  0.2165
 1013MOL0     C36680   3.424   3.794   3.643  0.2310  0.6466 -1.0278
 1013MOL0     C36681   3.547   3.711   3.684  0.7244  0.2836  0.7696
 1013MOL0     C36682   3.668   3.793   3.635  0.1131  0.3231 -0.6614
 1013MOL0     C36683   3.803   3.724   3.665  0.3448 -0.0611 -0.2235
 1013MOL0     C36684   3.816   3.605   3.584  0.1551 -0.6790  0.1986
 1013MOL0     C36685   3.830   3.512   3.506  0.6677 -0.0227  0.4738
 1013MOL0     C36686   3.173   3.663   3.526 -1.1733 -0.0354  0.9655
 1013MOL0     C36687   3.047   3.646   3.468  0.1889  0.4308 -0.0522
 1013MOL0     H36688   2.547   3.484   3.427  0.5031 -0.3742  1.6816
 1013MOL0     H36689   2.330   3.497   3.375  0.6041  0.5588 -1.4323
 1013MOL0     H36690   2.165   3.597   3.255 -0.0822 -0.2532  1.5341
 1013MOL0     H36691   2.026   3.605   3.364  1.3821 -1.8611  0.2891
 1013MOL0     H36692   1.942   3.809   3.267 -2.0128 -1.7230 -0.6434
 1013MOL0     H36693   2.081   3.835   3.169 -0.4516  1.0104 -0.2586
 1013MOL0     H36694   2.009   3.664   3.002  1.5581  1.7819  0.7542
 1013MOL0     H36695   1.933   3.574   3.122 -0.8325  0.1869 -0.6529
 1013MOL0     H36696   1.749   3.746   3.124  0.2882  1.2182  0.7195
 1013MOL0     H36697   1.856   3.873   3.072  1.1765 -0.7933  2.6289
 1013MOL0     H36698   1.835   3.793   2.838 -0.3339 -1.4990 -1.2702
 1013MOL0     H36699   1.788   3.641   2.900 -1.4319 -0.7508  2.0405
 1013MOL0     H36700   1.630   3.818   2.786 -0.3520  4.8159  0.4310
 1013MOL0     H36701   1.572   3.710   2.919 -0.2378  0.8000  1.5916
 1013MOL0     H36702   1.595   3.895   3.074  1.4366 -1.0957  0.4626
 1013MOL0     H36703   1.680   3.994   2.947 -0.3526  0.6505  1.8739
 1013MOL0     H36704   1.473   4.039   2.830  1.2922 -0.7155 -0.6551
 1013MOL0     H36705   1.450   4.058   2.995  0.6333  1.6219 -1.1641
 1013MOL0     H36706   1.324   3.812   2.739  3.5857 -1.4549  1.6907
 1013MOL0     H36707   1.090   3.695   2.717  2.0622 -0.5528 -0.1217
 1013MOL0     H36708   1.166   3.568   2.817  2.1319 -0.4489 -2.5807
 1013MOL0     H36709   0.961   3.587   2.976 -2.7354  1.0581  1.7928
 1013MOL0     H36710   0.907   3.563   2.810  2.3232 -1.4063  0.0962
 1013MOL0     H36711   0.769   3.723   2.926 -0.1278  1.2823  0.2692
 1013MOL0     H36712   0.857   3.805   2.791  1.1911  1.0440  0.9881
 1013MOL0     H36713   0.997   3.920   2.956 -1.7164  0.9621 -1.6880
 1013MOL0     H36714   0.949   3.802   3.082  1.0941 -1.5691 -1.3553
 1013MOL0     H36715   0.835   4.197   3.079  1.7536  1.7120 -1.9580
 1013MOL0     H36716   0.781   4.416   3.075 -1.8766 -0.8962  1.0149
 1013MOL0     H36717   0.787   4.452   2.899 -1.1262  2.3953  0.2768
 1013MOL0     H36718   0.632   4.468   2.978  0.1672  0.9179  0.6922
 1013MOL0     H36719   0.622   4.696   2.799 -0.0003  3.1639  0.8033
 1013MOL0     H36720   0.542   4.901   2.692 -3.3778  0.9287  2.4157
 1013MOL0     H36721   0.354   4.859   2.317  2.5817  1.0213  0.1441
 1013MOL0     H36722   0.198   4.892   2.388 -0.7951  2.7677 -0.6304
 1013MOL0     H36723   0.262   5.061   2.228 -0.7114  0.4991  0.5756
 1013MOL0     H36724   0.236   5.137   2.392  0.6873 -0.1738 -0.1015
 1013MOL0     H36725   0.495   5.059   2.269  0.0510 -0.7970  1.3059
 1013MOL0     H36726   0.477   5.140   2.430  2.8178  0.5587 -0.5452
 1013MOL0     H36727   0.438   5.242   2.148  0.4936 -0.8169  0.1707
 1013MOL0     H36728   0.370   5.313   2.305 -0.0518  1.0369 -0.0858
 1013MOL0     H36729   0.674   5.249   2.253  0.6767  0.5284  1.5434
 1013MOL0     H36730   0.601   5.315   2.395  1.1492 -1.0622 -0.0204
 1013MOL0     H36731   0.602   5.458   2.118  0.9400  2.0405 -0.7136
 1013MOL0     H36732   0.539   5.531   2.268 -1.3469 -0.6739 -1.0230
 1013MOL0     H36733   0.823   5.422   2.229  0.5553 -0.0494  0.3348
 1013MOL0     H36734   0.775   5.537   2.345  0.9333 -0.3819 -0.1850
 1013MOL0     H36735   0.746   5.611   2.055  0.7843 -1.7037 -0.4662
 1013MOL0     H36736   0.891   5.628   2.161 -0.8270 -2.1548  0.6412
 1013MOL0     H36737   0.256   4.678   2.459  1.2060 -0.4924 -1.0296
 1013MOL0     H36738   0.338   4.465   2.561  1.0715 -0.4096 -1.4886
 1013MOL0     H36739   0.520   4.070   2.729 -1.9497  0.0504  1.7230
 1013MOL0     H36740   0.648   3.895   2.847  0.5368 -0.6219  0.0568
 1013MOL0     H36741   2.311   3.907   3.536  1.7927  1.8274  2.1848
 1013MOL0     H36742   2.537   3.871   3.626  0.2127  1.4885 -1.2942
 1013MOL0     H36743   2.857   3.783   3.718  0.2043  1.3017  1.0798
 1013MOL0     H36744   3.078   3.815   3.823  0.6838  1.2348 -1.5790
 1013MOL0     H36745   3.404   3.789   3.535 -0.2620  1.2059 -0.9630
 1013MOL0     H36746   3.449   3.898   3.663 -3.1843  1.1931  1.1963
 1013MOL0     H36747   3.557   3.610   3.644  3.5648  0.1638  1.5683
 1013MOL0     H36748   3.545   3.687   3.790  2.6230  1.0359  1.0220
 1013MOL0     H36749   3.673   3.887   3.692  0.9912 -1.4279  2.3803
 1013MOL0     H36750   3.656   3.801   3.527  0.3822  1.0604 -0.6478
 1013MOL0     H36751   3.812   3.705   3.772 -1.2337  3.0373  0.5948
 1013MOL0     H36752   3.879   3.793   3.626  1.5759 -2.4512 -2.2624
 1013MOL0     H36753   3.833   3.422   3.448 -0.0544  0.8815 -1.0185
 1013MOL0     H36754   3.254   3.602   3.487 -0.9889  0.1659  1.0334
 1013MOL0     H36755   3.036   3.591   3.375 -0.2301 -0.6694  0.6302
 1014MOL0     O36756   9.801   0.148   1.838  0.4455 -0.8929 -0.4628
 1014MOL0     C36757   9.874   0.239   1.872 -0.3675  0.0175  0.3160
 1014MOL0     O36758   9.835   0.351   1.933 -0.3197  0.5339  0.4770
 1014MOL0     C36759   9.703   0.375   1.976  0.7059  0.1849 -0.1205
 1014MOL0     C36760   9.674   0.510   1.989 -0.3418 -0.3866 -0.4859
 1014MOL0     C36761   9.542   0.551   2.028 -0.1891 -0.2966  0.2422
 1014MOL0     C36762   9.444   0.454   2.057  0.1361 -0.3708 -0.2097
 1014MOL0     O36763   9.316   0.476   2.100  0.1144 -0.0471 -0.0584
 1014MOL0     C36764   9.257   0.600   2.101  0.9116 -0.4436  0.3690
 1014MOL0     C36765   9.108   0.582   2.131 -0.2556 -1.1838 -0.0680
 1014MOL0     C36766   9.020   0.694   2.078  0.0080 -0.0844  0.3258
 1014MOL0     C36767   8.879   0.651   2.086 -0.2019  0.4091 -0.0270
 1014MOL0     C36768   8.777   0.752   2.049 -0.3630  0.4606 -0.7133
 1014MOL0     C36769   8.723   0.721   1.913  0.3410 -0.4850 -0.2176
 1014MOL0     C36770   8.654   0.841   1.852 -0.4068  0.0277 -1.1524
 1014MOL0     C36771   8.583   0.805   1.723 -0.2775  0.9087  0.4187
 1014MOL0     N36772   8.672   0.776   1.614  0.6373  0.2984  0.1726
 1014MOL0     C36773   8.673   0.656   1.540  0.4209 -0.7683 -0.4188
 1014MOL0     C36774   8.777   0.686   1.461  0.5075 -0.0359  0.2238
 1014MOL0     C36775   8.827   0.597   1.345  0.5838 -0.0339 -0.0550
 1014MOL0     C36776   8.839   0.678   1.211 -0.5232 -0.3997 -0.0194
 1014MOL0     C36777   8.703   0.716   1.141  0.0181 -0.9970 -0.7271
 1014MOL0     C36778   8.643   0.842   1.202  0.9365 -0.0308 -0.1229
 1014MOL0     O36779   8.552   0.888   1.100  0.4862  0.2256 -0.5054
 1014MOL0     C36780   8.465   0.993   1.128 -0.6894  0.4143  0.0119
 1014MOL0     C36781   8.392   1.045   1.022  0.4066 -0.2126 -0.1032
 1014MOL0     C36782   8.289   1.151   1.040 -0.1595  0.2982  0.9407
 1014MOL0     C36783   8.213   1.200   0.919  0.6922 -0.1912  0.4053
 1014MOL0     C36784   8.260   1.196   1.167  0.9720 -0.2790  0.2944
 1014MOL0     C36785   8.157   1.304   1.207  0.1161  0.4121 -0.0217
 1014MOL0     O36786   8.088   1.367   1.109  0.3713 -0.2252 -0.0294
 1014MOL0     C36787   7.992   1.465   1.136 -0.3321  0.2692 -0.6599
 1014MOL0     C36788   8.027   1.583   1.204 -0.2567 -0.4794 -0.2330
 1014MOL0     C36789   7.938   1.692   1.209  1.2727  0.8963 -1.1073
 1014MOL0     C36790   7.804   1.671   1.162 -0.6995 -0.0857  0.4738
 1014MOL0     O36791   7.709   1.771   1.152 -0.2384  0.1927  0.7508
 1014MOL0     C36792   7.705   1.871   1.255 -0.0965  0.9030  0.2705
 1014MOL0     C36793   7.574   1.956   1.244 -0.1568  0.0864  0.5487
 1014MOL0     C36794   7.592   2.088   1.315  0.0933  0.2440  0.7317
 1014MOL0     C36795   7.470   2.181   1.306 -0.0406  0.0031  0.7033
 1014MOL0     C36796   7.499   2.321   1.371  0.0699  0.3820  0.8730
 1014MOL0     C36797   7.560   2.412   1.267 -0.3799  0.4801  0.3990
 1014MOL0     C36798   7.587   2.552   1.336  0.9070  0.7419 -0.1963
 1014MOL0     C36799   7.673   2.630   1.243 -0.5810 -0.4138 -0.1278
 1014MOL0    Cl36800   7.653   2.808   1.282 -0.3096 -0.6116  0.1371
 1014MOL0     C36801   7.779   1.559   1.087  0.0153  0.7456 -0.8947
 1014MOL0     C36802   7.871   1.458   1.069  0.5186  0.3141 -0.1936
 1014MOL0     O36803   8.145   1.323   1.326  0.1005 -0.8015 -0.4573
 1014MOL0     C36804   8.338   1.134   1.274 -1.1426  0.1180 -0.0863
 1014MOL0     C36805   8.436   1.040   1.255 -0.3977 -0.6912  0.0825
 1014MOL0     N36806   8.824   0.813   1.476  0.1649 -0.4513 -0.1592
 1014MOL0     N36807   8.749   0.873   1.562 -0.0193  0.5743  0.6460
 1014MOL0     C36808   9.488   0.319   2.064  0.6960 -1.2220  0.7529
 1014MOL0     C36809   9.606   0.279   2.005 -0.2103  0.6113  0.6723
 1014MOL0     C36810  10.014   0.221   1.863 -0.5304  0.2165  1.0325
 1014MOL0     C36811  10.068   0.099   1.823 -0.0701 -0.4393 -0.2163
 1014MOL0     C36812  10.206   0.076   1.830  0.8728  0.3183 -0.3189
 1014MOL0     C36813  10.295   0.182   1.855  0.0090  0.1187 -0.2193
 1014MOL0     O36814  10.426   0.147   1.828 -0.1766  0.1397  0.1662
 1014MOL0     C36815  10.517   0.246   1.777 -0.1160  0.3157 -0.2334
 1014MOL0     C36816  10.658   0.208   1.807 -0.3288  0.8263 -0.3818
 1014MOL0     C36817  10.680   0.076   1.726  0.3839 -0.2235 -0.8657
 1014MOL0     C36818  10.808  -0.000   1.747  0.3447  0.5629 -0.9467
 1014MOL0     C36819  10.831  -0.088   1.630 -0.6096  0.4368  0.1889
 1014MOL0     C36820  10.844  -0.158   1.534  0.1802 -0.4134 -0.3178
 1014MOL0     C36821  10.248   0.308   1.889 -0.2636  0.3505  0.1367
 1014MOL0     C36822  10.105   0.324   1.905 -0.1597 -0.2499 -0.0806
 1014MOL0     H36823   9.740   0.592   1.963 -0.2071 -1.1640 -2.9172
 1014MOL0     H36824   9.512   0.656   2.023 -1.2070 -0.6002 -0.4402
 1014MOL0     H36825   9.304   0.656   2.182 -0.6984  1.2678  0.1934
 1014MOL0     H36826   9.271   0.658   2.009 -1.7480  1.5150  1.0565
 1014MOL0     H36827   9.076   0.493   2.075 -0.1568 -1.0937 -0.2674
 1014MOL0     H36828   9.108   0.561   2.238  1.5672 -2.3462 -0.2562
 1014MOL0     H36829   9.032   0.789   2.131 -0.6166  0.1690  0.0320
 1014MOL0     H36830   9.038   0.715   1.972 -0.6645  1.9419  0.5640
 1014MOL0     H36831   8.879   0.557   2.030  2.7578  0.0559  0.4164
 1014MOL0     H36832   8.865   0.621   2.191  0.5347 -2.3822 -0.6330
 1014MOL0     H36833   8.697   0.736   2.122  0.7530  0.8887  0.6641
 1014MOL0     H36834   8.809   0.857   2.058  0.0653  0.2775 -0.0373
 1014MOL0     H36835   8.802   0.698   1.841  0.4917  1.2455 -0.6601
 1014MOL0     H36836   8.651   0.639   1.915 -0.2207 -0.1914 -3.3600
 1014MOL0     H36837   8.588   0.876   1.931  2.0934 -0.0966  1.1329
 1014MOL0     H36838   8.723   0.923   1.827 -0.4041  1.0139  1.7363
 1014MOL0     H36839   8.522   0.890   1.692  0.2192  0.3870 -2.2137
 1014MOL0     H36840   8.519   0.717   1.733  3.1556 -1.7107  1.2608
 1014MOL0     H36841   8.618   0.564   1.557 -4.4914  1.7819 -0.6860
 1014MOL0     H36842   8.927   0.559   1.366  2.1261  3.5497 -0.2669
 1014MOL0     H36843   8.761   0.510   1.335  0.7728 -0.0840 -0.9399
 1014MOL0     H36844   8.890   0.598   1.156  0.3538 -0.8273  1.3761
 1014MOL0     H36845   8.901   0.768   1.218 -0.6795 -0.4012  1.6895
 1014MOL0     H36846   8.633   0.632   1.146 -1.3736  0.2113  1.5203
 1014MOL0     H36847   8.725   0.751   1.039 -2.4967 -1.8104 -1.6381
 1014MOL0     H36848   8.720   0.916   1.226 -0.5935  2.0030 -1.1426
 1014MOL0     H36849   8.587   0.812   1.291  0.0357  1.2255 -0.2381
 1014MOL0     H36850   8.389   0.992   0.927 -0.7166 -0.2433 -0.0632
 1014MOL0     H36851   8.238   1.305   0.905 -1.9112  0.4351 -0.0498
 1014MOL0     H36852   8.237   1.144   0.828  2.3141 -0.7382  1.1316
 1014MOL0     H36853   8.104   1.191   0.925  0.6494 -0.1482 -0.2316
 1014MOL0     H36854   8.124   1.590   1.252 -0.5668 -0.5909  0.4263
 1014MOL0     H36855   7.959   1.786   1.259 -0.5614  0.5345  0.4549
 1014MOL0     H36856   7.698   1.817   1.350 -0.5424 -0.4504 -0.5214
 1014MOL0     H36857   7.793   1.936   1.257  0.0982  0.7179 -1.4898
 1014MOL0     H36858   7.556   1.971   1.137  0.1501  0.1092  0.4987
 1014MOL0     H36859   7.487   1.903   1.284  2.2432 -2.3399  2.9737
 1014MOL0     H36860   7.682   2.138   1.280 -2.3862  3.6576 -1.4386
 1014MOL0     H36861   7.612   2.062   1.420  1.3927  1.5081  0.8232
 1014MOL0     H36862   7.432   2.202   1.206 -0.1571  1.4798  1.0306
 1014MOL0     H36863   7.390   2.126   1.357  0.3579 -1.5767 -0.2797
 1014MOL0     H36864   7.556   2.313   1.464 -0.0784 -0.6489  0.8764
 1014MOL0     H36865   7.404   2.372   1.393 -0.5955 -0.2873 -0.3569
 1014MOL0     H36866   7.657   2.378   1.230 -0.1486 -0.0188  1.4025
 1014MOL0     H36867   7.491   2.425   1.184  0.5808 -2.6784 -1.0226
 1014MOL0     H36868   7.640   2.536   1.430 -2.1443 -0.7552  1.4061
 1014MOL0     H36869   7.490   2.599   1.356  1.1269 -0.1062  3.6211
 1014MOL0     H36870   7.660   2.612   1.136  0.6023  0.0555 -0.3694
 1014MOL0     H36871   7.774   2.593   1.261 -0.1936  0.4091 -0.5722
 1014MOL0     H36872   7.680   1.560   1.042 -0.1300 -1.5908 -0.7140
 1014MOL0     H36873   7.855   1.368   1.010 -0.8802  0.7098 -0.4595
 1014MOL0     H36874   8.334   1.183   1.371  0.6291  4.1697 -1.8428
 1014MOL0     H36875   8.488   1.012   1.346 -2.5045  0.9101  1.8720
 1014MOL0     H36876   9.410   0.255   2.103 -0.9039 -0.1066 -0.4924
 1014MOL0     H36877   9.618   0.171   2.001  1.9683  0.8359 -1.3999
 1014MOL0     H36878  10.000   0.016   1.808 -2.0053  1.2038 -0.9377
 1014MOL0     H36879  10.249  -0.022   1.810  0.5629  0.0995  0.0704
 1014MOL0     H36880  10.492   0.265   1.672 -0.0545  0.0130 -0.3053
 1014MOL0     H36881  10.505   0.342   1.828 -0.8067 -0.2454  0.6867
 1014MOL0     H36882  10.670   0.172   1.910  1.2570 -2.4716 -1.5660
 1014MOL0     H36883  10.739   0.272   1.772  0.6238  1.4103  2.5957
 1014MOL0     H36884  10.671   0.107   1.621 -2.6736 -0.2041 -0.6802
 1014MOL0     H36885  10.600   0.003   1.741 -0.1517  0.7103  1.1850
 1014MOL0     H36886  10.787  -0.059   1.837  1.5687  1.1425 -0.2602
 1014MOL0     H36887  10.887   0.071   1.773  0.4866 -0.6642  2.5913
 1014MOL0     H36888  10.855  -0.214   1.444  0.9619 -0.3397 -0.2711
 1014MOL0     H36889  10.312   0.392   1.913  0.5814 -0.5220  0.9964
 1014MOL0     H36890  10.065   0.419   1.940  3.0055  1.4905 -0.7888
 1015MOL0     O36891   3.886   0.110   8.743 -0.5547 -0.5175  0.2617
 1015MOL0     C36892   3.934   0.022   8.672 -0.2168  0.8710  0.2225
 1015MOL0     O36893   3.870  -0.049   8.579  0.3236 -0.4412  0.1762
 1015MOL0     C36894   3.734  -0.022   8.556  0.4432  0.5304  0.2759
 1015MOL0     C36895   3.664   0.098   8.576 -0.2395 -1.1253  0.4761
 1015MOL0     C36896   3.518   0.094   8.550 -0.5615  0.7096  0.3081
 1015MOL0     C36897   3.458  -0.017   8.490 -0.6728  0.5686 -0.2089
 1015MOL0     O36898   3.328  -0.002   8.456 -0.2800 -0.2680  0.7032
 1015MOL0     C36899   3.267  -0.093   8.368 -0.0500  0.6726  0.3555
 1015MOL0     C36900   3.167  -0.189   8.449  0.8398 -0.0711  0.4698
 1015MOL0     C36901   3.043  -0.225   8.360  0.6682  0.0300 -0.5106
 1015MOL0     C36902   2.927  -0.301   8.425 -0.5666 -0.0217  0.3848
 1015MOL0     C36903   2.819  -0.332   8.322  0.5647  0.3801  0.0713
 1015MOL0     C36904   2.706  -0.224   8.309  0.0182 -0.5927  0.2325
 1015MOL0     C36905   2.605  -0.241   8.200  0.1415  0.3789  0.7609
 1015MOL0     C36906   2.506  -0.128   8.199 -0.6221 -0.7019  0.4358
 1015MOL0     N36907   2.402  -0.148   8.094 -0.2096  0.6051 -0.3497
 1015MOL0     C36908   2.411  -0.119   7.957  0.2847  0.6457 -0.6501
 1015MOL0     C36909   2.298  -0.159   7.900 -0.2690 -0.2279  0.1510
 1015MOL0     C36910   2.259  -0.151   7.753  0.3371  0.5402  0.0851
 1015MOL0     C36911   2.188  -0.275   7.697  0.7301  0.2374 -0.0640
 1015MOL0     C36912   2.153  -0.265   7.549 -0.1550  0.1989  1.2224
 1015MOL0     C36913   2.063  -0.392   7.508 -1.1353 -0.0306 -0.5568
 1015MOL0     O36914   1.933  -0.399   7.564  0.1673 -0.1704  0.2672
 1015MOL0     C36915   1.853  -0.508   7.531  0.0908 -0.3723 -0.8375
 1015MOL0     C36916   1.888  -0.611   7.443 -1.0547 -0.5505  0.2045
 1015MOL0     C36917   1.820  -0.728   7.423 -0.1366  0.4161 -0.7441
 1015MOL0     C36918   1.865  -0.820   7.311  0.3175 -0.3154  0.1295
 1015MOL0     C36919   1.695  -0.739   7.498 -0.0899  0.1229 -0.0643
 1015MOL0     C36920   1.606  -0.860   7.484 -0.0066 -0.0778  0.1085
 1015MOL0     O36921   1.473  -0.834   7.505  0.1295  0.6567 -0.3092
 1015MOL0     C36922   1.398  -0.950   7.505 -0.3885 -1.0810 -0.4816
 1015MOL0     C36923   1.376  -1.020   7.391  0.0320 -0.2895  0.5040
 1015MOL0     C36924   1.275  -1.117   7.380  0.7796 -0.2332 -1.1016
 1015MOL0     C36925   1.175  -1.125   7.478 -0.3160  0.4382 -0.4173
 1015MOL0     O36926   1.077  -1.224   7.465  0.5668  0.2065  0.2408
 1015MOL0     C36927   1.051  -1.296   7.582  0.3188 -0.0955 -0.5480
 1015MOL0     C36928   0.969  -1.414   7.544  0.9783  0.5647 -0.0364
 1015MOL0     C36929   0.936  -1.506   7.675  0.0796 -0.2171 -0.4625
 1015MOL0     C36930   0.818  -1.589   7.655  0.2425  0.3353  0.3451
 1015MOL0     C36931   0.842  -1.708   7.559  0.3597  0.2765 -0.0376
 1015MOL0     C36932   0.898  -1.826   7.641 -0.6129  0.0421  0.9939
 1015MOL0     C36933   0.892  -1.968   7.567 -0.1519 -0.4854  0.2073
 1015MOL0     C36934   0.959  -1.967   7.432 -0.1487 -0.5492  0.0510
 1015MOL0    Cl36935   0.994  -2.135   7.379 -0.3795 -0.1174  0.2154
 1015MOL0     C36936   1.189  -1.044   7.590  0.3466  0.5917  0.2205
 1015MOL0     C36937   1.296  -0.951   7.602 -0.6653  0.4634 -0.0209
 1015MOL0     O36938   1.659  -0.973   7.468  0.2371  0.2452  0.1749
 1015MOL0     C36939   1.658  -0.630   7.581 -0.5047  0.4540  0.1305
 1015MOL0     C36940   1.735  -0.519   7.594 -0.0427 -0.4961 -0.2744
 1015MOL0     N36941   2.226  -0.220   8.005  0.5486 -0.2785  0.2268
 1015MOL0     N36942   2.287  -0.212   8.112  0.1019  0.0770 -0.7794
 1015MOL0     C36943   3.533  -0.134   8.465  0.0003 -0.8328  0.2215
 1015MOL0     C36944   3.665  -0.134   8.506  0.0216 -0.5545  0.0949
 1015MOL0     C36945   4.073  -0.014   8.709  0.5030 -0.4964 -0.4425
 1015MOL0     C36946   4.136   0.056   8.816 -0.1290 -0.0014 -1.0880
 1015MOL0     C36947   4.253   0.008   8.867  0.1478  0.4444 -1.0008
 1015MOL0     C36948   4.323  -0.103   8.821 -0.7355 -0.2922  0.7527
 1015MOL0     O36949   4.441  -0.141   8.882 -0.1787 -0.8429 -0.0534
 1015MOL0     C36950   4.519  -0.241   8.826  0.1359 -0.1364  0.5063
 1015MOL0     C36951   4.456  -0.384   8.847 -0.5219  0.0408  0.1892
 1015MOL0     C36952   4.507  -0.445   8.973  0.0551 -1.1618 -0.4096
 1015MOL0     C36953   4.443  -0.571   9.010  0.3610 -0.0605  0.5679
 1015MOL0     C36954   4.510  -0.649   9.110  0.3329  0.2153 -1.3986
 1015MOL0     C36955   4.570  -0.709   9.199 -0.0724  0.0891  0.2709
 1015MOL0     C36956   4.268  -0.159   8.706 -0.7412 -0.7720 -0.5079
 1015MOL0     C36957   4.143  -0.121   8.653 -0.1387 -0.0602  0.2008
 1015MOL0     H36958   3.711   0.187   8.617 -2.3314 -1.0667  3.0575
 1015MOL0     H36959   3.467   0.190   8.561  1.9677  2.0978  0.7299
 1015MOL0     H36960   3.203  -0.040   8.297  0.8611 -0.3057 -1.2529
 1015MOL0     H36961   3.335  -0.160   8.315 -0.4099 -1.6590  2.6322
 1015MOL0     H36962   3.218  -0.277   8.487  1.9357 -0.6973 -2.2413
 1015MOL0     H36963   3.133  -0.137   8.540  0.2171 -1.0679  0.8190
 1015MOL0     H36964   3.006  -0.129   8.321  1.2443 -0.5994 -2.7917
 1015MOL0     H36965   3.082  -0.283   8.276 -2.0747 -3.4558  0.4289
 1015MOL0     H36966   2.970  -0.395   8.462  2.0666  1.1811  0.6240
 1015MOL0     H36967   2.904  -0.241   8.513  3.4793 -0.2561  1.8053
 1015MOL0     H36968   2.860  -0.356   8.223 -0.4609  0.6544 -0.4331
 1015MOL0     H36969   2.768  -0.424   8.353  1.8721  0.4454  2.6647
 1015MOL0     H36970   2.659  -0.187   8.401  0.6981  2.3759 -0.5124
 1015MOL0     H36971   2.763  -0.135   8.283 -3.2328  2.3682  2.3611
 1015MOL0     H36972   2.656  -0.255   8.104 -2.2950 -0.3018 -0.5102
 1015MOL0     H36973   2.543  -0.328   8.220  0.3062 -0.6617 -2.6167
 1015MOL0     H36974   2.560  -0.033   8.196 -1.1655 -0.4047 -0.0782
 1015MOL0     H36975   2.455  -0.144   8.294 -1.9333 -0.4697 -0.2091
 1015MOL0     H36976   2.498  -0.070   7.914  0.5704  1.1016  0.3923
 1015MOL0     H36977   2.180  -0.075   7.747 -1.4507 -1.2515 -0.3158
 1015MOL0     H36978   2.341  -0.110   7.693 -0.3893  3.6247  0.9969
 1015MOL0     H36979   2.097  -0.293   7.754  1.5158  1.3168  1.6009
 1015MOL0     H36980   2.252  -0.360   7.719  0.0316 -1.2116 -3.0386
 1015MOL0     H36981   2.239  -0.271   7.483  0.0304  0.1317  1.4692
 1015MOL0     H36982   2.089  -0.180   7.524 -1.7040 -1.4784 -1.0526
 1015MOL0     H36983   2.125  -0.477   7.539 -0.5195  0.1861 -1.1676
 1015MOL0     H36984   2.052  -0.385   7.399 -3.2663  1.4619 -0.2976
 1015MOL0     H36985   1.993  -0.617   7.414 -1.3121 -2.3367 -0.5024
 1015MOL0     H36986   1.942  -0.777   7.247  2.8800 -3.1646  1.0192
 1015MOL0     H36987   1.909  -0.913   7.348  2.4463 -0.0691 -1.6103
 1015MOL0     H36988   1.781  -0.846   7.245  2.0363  1.8743 -3.1701
 1015MOL0     H36989   1.443  -1.002   7.307 -1.1645 -2.0891 -0.9234
 1015MOL0     H36990   1.270  -1.183   7.295 -0.7891 -1.4970 -0.0963
 1015MOL0     H36991   1.146  -1.336   7.619  0.9175 -0.7784 -2.6416
 1015MOL0     H36992   1.008  -1.233   7.660 -2.3724 -0.4996 -1.5819
 1015MOL0     H36993   0.870  -1.373   7.519 -0.1120 -2.5428 -1.2140
 1015MOL0     H36994   1.012  -1.468   7.459 -2.3714 -2.5235 -0.0148
 1015MOL0     H36995   0.909  -1.444   7.761  1.0874 -0.9802  0.4351
 1015MOL0     H36996   1.013  -1.580   7.699 -0.5613 -0.8001 -0.2143
 1015MOL0     H36997   0.775  -1.627   7.748 -1.0114 -1.1710 -0.7987
 1015MOL0     H36998   0.740  -1.525   7.613 -1.2655 -1.2418  0.6563
 1015MOL0     H36999   0.906  -1.679   7.476  1.4352  0.3642  0.8079
 1015MOL0     H37000   0.747  -1.752   7.527 -0.1396 -0.4657  2.2561
 1015MOL0     H37001   1.004  -1.808   7.658 -0.0387  3.0456 -3.9193
 1015MOL0     H37002   0.841  -1.837   7.734 -1.3542  0.0478  0.5440
 1015MOL0     H37003   0.784  -1.983   7.550  0.1054  1.3335 -5.0610
 1015MOL0     H37004   0.950  -2.032   7.633 -1.5677 -2.0208  0.0326
 1015MOL0     H37005   1.054  -1.912   7.431 -0.0824 -0.6678 -0.2543
 1015MOL0     H37006   0.903  -1.910   7.358 -0.1322 -1.7420 -0.8999
 1015MOL0     H37007   1.118  -1.055   7.672 -0.8212 -0.1372 -0.8577
 1015MOL0     H37008   1.280  -0.885   7.687  2.6819 -2.2259  3.0705
 1015MOL0     H37009   1.556  -0.633   7.618  0.2417  1.4140  2.5057
 1015MOL0     H37010   1.697  -0.452   7.671 -0.6453 -1.4854  0.3129
 1015MOL0     H37011   3.501  -0.221   8.409  1.2408 -0.5275 -1.0162
 1015MOL0     H37012   3.720  -0.225   8.485  0.0815 -0.2228 -1.2378
 1015MOL0     H37013   4.091   0.138   8.872  1.7727  0.2132  0.1937
 1015MOL0     H37014   4.300   0.041   8.959 -0.2940  2.2352 -1.3722
 1015MOL0     H37015   4.548  -0.223   8.722  1.2271  1.2877  1.0149
 1015MOL0     H37016   4.612  -0.239   8.883  1.4578 -0.4830 -1.5250
 1015MOL0     H37017   4.488  -0.440   8.758 -0.3444  0.3489  0.0588
 1015MOL0     H37018   4.347  -0.379   8.850 -0.5167  2.5749 -1.2435
 1015MOL0     H37019   4.487  -0.364   9.044  1.0165  2.0943 -3.5765
 1015MOL0     H37020   4.615  -0.463   8.982 -0.1218 -1.3284  2.1102
 1015MOL0     H37021   4.438  -0.633   8.920  1.4209  0.2379  0.2932
 1015MOL0     H37022   4.338  -0.562   9.038 -0.2470 -0.9191 -1.2778
 1015MOL0     H37023   4.624  -0.757   9.279  1.4471 -0.3402 -0.9690
 1015MOL0     H37024   4.315  -0.239   8.650 -1.8253 -1.0066 -1.1126
 1015MOL0     H37025   4.111  -0.179   8.567 -0.1620  1.4207 -0.8119
 1016MOL0     O37026   8.760   0.652   6.734  0.1822 -0.2184 -0.1342
 1016MOL0     C37027   8.854   0.727   6.711  0.3602  0.3784 -0.1257
 1016MOL0     O37028   8.842   0.846   6.651  0.2663  0.3148  0.2230
 1016MOL0     C37029   8.723   0.894   6.595 -0.3265 -0.1629 -0.3152
 1016MOL0     C37030   8.707   1.034   6.593  0.0530 -0.8553  0.6414
 1016MOL0     C37031   8.594   1.096   6.547 -0.8876 -0.3998 -0.5340
 1016MOL0     C37032   8.494   1.021   6.483  0.1679 -0.0303 -0.1344
 1016MOL0     O37033   8.382   1.077   6.423  0.0848 -0.1204 -0.5063
 1016MOL0     C37034   8.371   1.080   6.278 -0.3654  0.2310 -0.1222
 1016MOL0     C37035   8.253   1.004   6.228  0.2043  0.2300 -0.1582
 1016MOL0     C37036   8.256   0.971   6.080  0.0415  0.5806  1.3409
 1016MOL0     C37037   8.118   0.927   6.031  0.1336  0.2950  0.0535
 1016MOL0     C37038   8.114   0.901   5.879  0.2822 -0.9381 -0.5868
 1016MOL0     C37039   7.971   0.896   5.830 -1.1012  0.1147  0.2389
 1016MOL0     C37040   7.973   0.852   5.682  0.1079  0.1796 -0.5048
 1016MOL0     C37041   7.841   0.849   5.617  0.0972  0.5281  0.2755
 1016MOL0     N37042   7.854   0.797   5.476 -1.1269  0.4666  0.0407
 1016MOL0     C37043   7.789   0.687   5.423  0.4027 -1.4681  0.7268
 1016MOL0     C37044   7.783   0.712   5.288 -0.0915  0.2736 -0.0304
 1016MOL0     C37045   7.726   0.624   5.187  0.0174 -0.5804 -0.6414
 1016MOL0     C37046   7.582   0.587   5.223 -0.5724 -0.4532  0.6371
 1016MOL0     C37047   7.544   0.485   5.118 -0.3294  0.1676 -0.3921
 1016MOL0     C37048   7.398   0.458   5.134  0.8678 -0.4693  0.2756
 1016MOL0     O37049   7.367   0.409   5.263 -0.0371 -0.3041  0.3549
 1016MOL0     C37050   7.240   0.414   5.313 -0.0386  0.2184 -0.0031
 1016MOL0     C37051   7.218   0.408   5.448 -0.2690 -0.1054  0.2086
 1016MOL0     C37052   7.091   0.421   5.507  0.9946 -0.4753 -0.1956
 1016MOL0     C37053   7.087   0.434   5.663  0.8284 -0.4024  0.4436
 1016MOL0     C37054   6.978   0.424   5.419 -0.6732 -0.1499  0.6714
 1016MOL0     C37055   6.839   0.436   5.458  0.8938 -0.2063 -0.0995
 1016MOL0     O37056   6.735   0.455   5.367 -0.2051 -0.2326 -0.3737
 1016MOL0     C37057   6.609   0.424   5.404  1.1682  0.3656 -0.6111
 1016MOL0     C37058   6.518   0.517   5.455  0.1349  0.6846 -0.4141
 1016MOL0     C37059   6.384   0.483   5.476 -0.1661 -0.2101  0.3700
 1016MOL0     C37060   6.339   0.350   5.464 -0.2205 -0.0247  0.9063
 1016MOL0     O37061   6.204   0.337   5.485 -0.6265  0.0151 -0.0745
 1016MOL0     C37062   6.148   0.201   5.516 -1.1986 -0.5373 -0.1951
 1016MOL0     C37063   5.999   0.223   5.528  0.1704  0.3965 -0.1719
 1016MOL0     C37064   5.954   0.339   5.610 -0.5162  0.3311 -0.4064
 1016MOL0     C37065   5.813   0.336   5.646  0.2529  0.2751  0.7606
 1016MOL0     C37066   5.769   0.465   5.707 -0.6155  0.5033  0.4521
 1016MOL0     C37067   5.619   0.472   5.762 -0.5701 -0.2166 -0.7045
 1016MOL0     C37068   5.507   0.462   5.655  0.3937  0.1324  0.0125
 1016MOL0     C37069   5.369   0.477   5.708 -0.1558 -0.7472  0.2430
 1016MOL0    Cl37070   5.251   0.511   5.576  0.0060  0.0725  0.3139
 1016MOL0     C37071   6.429   0.251   5.427 -1.3050 -0.2719  0.3560
 1016MOL0     C37072   6.560   0.297   5.383 -0.6543  0.4131  0.2331
 1016MOL0     O37073   6.816   0.406   5.575  0.7243  0.1232 -0.0515
 1016MOL0     C37074   6.999   0.428   5.279 -0.6808  0.5507 -0.2934
 1016MOL0     C37075   7.133   0.425   5.230  0.5213 -0.4473 -0.6902
 1016MOL0     N37076   7.866   0.814   5.258 -0.0704  0.1836 -0.3253
 1016MOL0     N37077   7.901   0.860   5.366  0.0675  0.6454  0.1536
 1016MOL0     C37078   8.515   0.884   6.475  0.6294 -0.4801 -0.2275
 1016MOL0     C37079   8.625   0.822   6.536  0.9948  1.2052 -0.3373
 1016MOL0     C37080   8.994   0.692   6.750  0.2018  0.3089 -0.4236
 1016MOL0     C37081   9.009   0.580   6.837  0.9167  0.6509  0.1741
 1016MOL0     C37082   9.138   0.544   6.880 -0.7385  0.0541 -0.1049
 1016MOL0     C37083   9.252   0.613   6.833  0.8329  0.4690  0.7579
 1016MOL0     O37084   9.381   0.579   6.859  0.2600  0.3726 -0.3047
 1016MOL0     C37085   9.407   0.435   6.885  0.5403 -0.7329 -0.6247
 1016MOL0     C37086   9.539   0.394   6.824 -0.2727  0.3373 -0.1587
 1016MOL0     C37087   9.654   0.478   6.879 -0.9297 -0.6373  0.3643
 1016MOL0     C37088   9.711   0.410   7.009 -0.1991 -0.4929  0.3176
 1016MOL0     C37089   9.630   0.423   7.126  0.2526  0.2327  0.1846
 1016MOL0     C37090   9.557   0.420   7.216 -0.6302  0.0049  0.1144
 1016MOL0     C37091   9.232   0.725   6.742 -0.2104  0.2086 -0.0615
 1016MOL0     C37092   9.104   0.768   6.702  0.2798  0.1135 -0.3865
 1016MOL0     H37093   8.772   1.097   6.653 -1.5357  3.0405 -1.3843
 1016MOL0     H37094   8.588   1.205   6.546  1.8720 -0.1704 -1.8292
 1016MOL0     H37095   8.360   1.184   6.246  1.4856  0.1910 -1.0492
 1016MOL0     H37096   8.462   1.039   6.233 -1.4142  0.7320 -2.8463
 1016MOL0     H37097   8.249   0.914   6.290 -2.2761 -0.7085 -1.5495
 1016MOL0     H37098   8.163   1.063   6.247  0.2033 -0.6384  3.1529
 1016MOL0     H37099   8.284   1.062   6.026 -2.9791  1.0203  0.3237
 1016MOL0     H37100   8.328   0.889   6.068 -2.3994 -1.5391  0.1541
 1016MOL0     H37101   8.080   0.839   6.083  0.6457  0.5028  0.7929
 1016MOL0     H37102   8.046   1.008   6.049 -0.0434 -0.2534  2.0006
 1016MOL0     H37103   8.168   0.980   5.827  1.3688 -1.8413 -0.8903
 1016MOL0     H37104   8.157   0.802   5.860 -1.1774 -1.7965  0.3769
 1016MOL0     H37105   7.925   0.824   5.898  1.6994 -0.8599  1.2232
 1016MOL0     H37106   7.923   0.993   5.841 -1.0399  0.3172 -1.1116
 1016MOL0     H37107   8.036   0.906   5.610  0.9179 -0.8503 -0.5866
 1016MOL0     H37108   8.022   0.754   5.684 -0.0018  0.1363  0.5556
 1016MOL0     H37109   7.789   0.944   5.611  0.0942  0.4756 -0.6093
 1016MOL0     H37110   7.768   0.783   5.664  0.9493 -0.5410  0.1642
 1016MOL0     H37111   7.730   0.624   5.489 -0.8521  1.3840  2.5111
 1016MOL0     H37112   7.737   0.681   5.094  1.9513 -1.6810 -1.1398
 1016MOL0     H37113   7.783   0.533   5.171 -1.1565 -1.4106 -0.2421
 1016MOL0     H37114   7.516   0.673   5.211  0.4832  0.9374  3.7182
 1016MOL0     H37115   7.574   0.541   5.322 -2.4769  0.0906  0.7772
 1016MOL0     H37116   7.601   0.393   5.137  0.4973  0.5359 -1.0364
 1016MOL0     H37117   7.557   0.527   5.018 -0.3859  1.4762  0.1269
 1016MOL0     H37118   7.355   0.393   5.058  1.8387 -0.7504 -0.0493
 1016MOL0     H37119   7.343   0.552   5.121 -0.9369 -1.6480 -1.0483
 1016MOL0     H37120   7.299   0.391   5.518 -1.3806 -0.3229  1.5008
 1016MOL0     H37121   7.018   0.368   5.716 -1.1690  2.2314  1.3588
 1016MOL0     H37122   7.186   0.421   5.708  1.0024  0.1509  0.2359
 1016MOL0     H37123   7.059   0.539   5.676  0.8829 -0.1175 -1.4751
 1016MOL0     H37124   6.538   0.624   5.455 -0.4752  0.9396 -4.5849
 1016MOL0     H37125   6.309   0.561   5.490  1.1981  1.2621 -0.1931
 1016MOL0     H37126   6.168   0.129   5.436  1.2330 -0.0400 -0.1061
 1016MOL0     H37127   6.195   0.150   5.600  0.6473 -0.3911 -1.0840
 1016MOL0     H37128   5.959   0.239   5.428 -0.0453  0.4797 -0.0739
 1016MOL0     H37129   5.952   0.133   5.569 -0.8072  1.4679  1.1538
 1016MOL0     H37130   5.982   0.424   5.547 -0.3433  0.0462 -0.7166
 1016MOL0     H37131   6.007   0.354   5.705  0.7082 -1.4480 -0.7621
 1016MOL0     H37132   5.755   0.308   5.558  3.0145 -1.4516 -0.6311
 1016MOL0     H37133   5.801   0.251   5.714 -0.8527 -0.6236 -0.4971
 1016MOL0     H37134   5.770   0.548   5.634 -0.7175 -0.1106 -0.2611
 1016MOL0     H37135   5.838   0.498   5.784  0.0538  1.0802 -0.3683
 1016MOL0     H37136   5.601   0.393   5.836 -1.9457  0.0618 -0.7183
 1016MOL0     H37137   5.608   0.567   5.814  0.7211 -0.6728  0.4423
 1016MOL0     H37138   5.512   0.371   5.595  1.9529  0.4331 -0.3777
 1016MOL0     H37139   5.521   0.551   5.593  1.4667  1.0386  1.4903
 1016MOL0     H37140   5.379   0.564   5.774  4.6530 -1.1618  0.4117
 1016MOL0     H37141   5.325   0.391   5.758 -4.2211  1.5419  1.0014
 1016MOL0     H37142   6.401   0.147   5.444  1.1347 -0.4634  4.3633
 1016MOL0     H37143   6.623   0.222   5.337 -0.8750  1.3169 -1.6533
 1016MOL0     H37144   6.918   0.426   5.207 -0.8630  1.8544 -0.1431
 1016MOL0     H37145   7.142   0.424   5.121  0.4308 -1.5784 -0.7023
 1016MOL0     H37146   8.442   0.825   6.421  1.0596 -1.1858 -0.0482
 1016MOL0     H37147   8.634   0.714   6.532 -0.4998  0.9541  1.4731
 1016MOL0     H37148   8.920   0.519   6.850  1.1024 -0.1834 -1.9661
 1016MOL0     H37149   9.145   0.459   6.948  2.9619 -0.2583 -0.7198
 1016MOL0     H37150   9.396   0.422   6.993  1.1884  1.5941 -0.2424
 1016MOL0     H37151   9.329   0.376   6.835 -1.6171  0.9749  0.5427
 1016MOL0     H37152   9.534   0.400   6.715 -2.7873 -2.2212 -0.2903
 1016MOL0     H37153   9.551   0.289   6.851  1.5562  0.3400 -0.7986
 1016MOL0     H37154   9.636   0.581   6.910  1.0475 -0.1344  0.0051
 1016MOL0     H37155   9.736   0.489   6.807 -0.5545 -3.1418  0.3171
 1016MOL0     H37156   9.813   0.448   7.015 -0.2785 -0.2733  0.2701
 1016MOL0     H37157   9.718   0.306   6.973 -0.2618  0.4670 -2.8327
 1016MOL0     H37158   9.490   0.398   7.297 -0.6815 -1.0135 -0.1911
 1016MOL0     H37159   9.322   0.774   6.706  1.8015 -2.0787  1.5957
 1016MOL0     H37160   9.105   0.848   6.628  0.4253  0.6833  0.2205
 1017MOL0     O37161   3.933   9.079   9.443  0.1114  0.4335 -0.1042
 1017MOL0     C37162   4.021   9.063   9.357  0.4655  0.7397  0.4032
 1017MOL0     O37163   4.000   9.058   9.228 -0.1252 -0.2276  0.1891
 1017MOL0     C37164   3.874   9.057   9.173 -0.4241  0.3212  0.1547
 1017MOL0     C37165   3.862   9.130   9.055  0.5398 -0.1937  0.2721
 1017MOL0     C37166   3.743   9.136   8.985  0.3221  0.3315 -0.6221
 1017MOL0     C37167   3.629   9.071   9.042 -0.2319 -0.2569  0.2152
 1017MOL0     O37168   3.501   9.066   8.983  1.3729 -0.1220 -0.2987
 1017MOL0     C37169   3.473   9.113   8.843 -0.5661 -0.0318 -0.0815
 1017MOL0     C37170   3.333   9.136   8.787 -0.9072 -0.1017  0.0974
 1017MOL0     C37171   3.285   8.996   8.746 -0.4011 -0.2762 -0.4986
 1017MOL0     C37172   3.145   9.013   8.679 -0.2895 -0.8285  0.5969
 1017MOL0     C37173   3.099   8.904   8.586  0.4345 -0.1660  0.0461
 1017MOL0     C37174   2.951   8.894   8.597 -0.1436  0.0326  0.4818
 1017MOL0     C37175   2.916   8.816   8.722  0.1392  0.5672 -0.3923
 1017MOL0     C37176   2.765   8.834   8.759 -0.6208 -0.1794  0.2227
 1017MOL0     N37177   2.715   8.727   8.843  0.0823 -0.2020  0.1612
 1017MOL0     C37178   2.708   8.597   8.798 -0.3758  0.5773 -0.4733
 1017MOL0     C37179   2.671   8.525   8.905 -0.2901  0.8076  0.3147
 1017MOL0     C37180   2.661   8.379   8.917 -0.0149  0.2216  0.2471
 1017MOL0     C37181   2.518   8.333   8.949  0.4113  0.3661  0.0766
 1017MOL0     C37182   2.411   8.369   8.847 -0.5280  0.0923 -0.5682
 1017MOL0     C37183   2.287   8.305   8.898  0.1105  0.2393  0.1067
 1017MOL0     O37184   2.178   8.374   8.839  0.1681 -0.6483 -0.1743
 1017MOL0     C37185   2.060   8.326   8.861 -0.0635 -0.7610  1.3928
 1017MOL0     C37186   2.024   8.242   8.965 -0.5207  0.7204 -0.4251
 1017MOL0     C37187   1.890   8.210   8.983  0.8536  0.6128 -0.0168
 1017MOL0     C37188   1.856   8.130   9.112  1.0293  0.5111  0.2362
 1017MOL0     C37189   1.794   8.257   8.890  0.0646  0.1774 -0.1513
 1017MOL0     C37190   1.652   8.226   8.912 -0.4341  0.0174  0.2637
 1017MOL0     O37191   1.565   8.319   8.872  0.4567  0.9248  0.2386
 1017MOL0     C37192   1.430   8.296   8.854 -0.0542 -0.0069  0.6062
 1017MOL0     C37193   1.372   8.171   8.810  0.1495  0.3533 -0.1070
 1017MOL0     C37194   1.235   8.155   8.807  0.5516  0.2626 -0.0904
 1017MOL0     C37195   1.149   8.264   8.843 -0.9213 -1.6189  1.2825
 1017MOL0     O37196   1.016   8.244   8.863 -0.3743 -0.0999 -0.0847
 1017MOL0     C37197   0.955   8.172   8.755 -0.7177 -0.9682 -0.5465
 1017MOL0     C37198   0.800   8.162   8.793  0.4417 -0.2931 -0.2591
 1017MOL0     C37199   0.737   8.295   8.819  0.1663 -0.2902  0.1345
 1017MOL0     C37200   0.582   8.262   8.846  0.0763 -0.6290  0.1288
 1017MOL0     C37201   0.494   8.391   8.857  0.2416 -0.3156 -0.1705
 1017MOL0     C37202   0.344   8.369   8.843 -0.6935 -0.5024  0.9170
 1017MOL0     C37203   0.292   8.279   8.948 -0.3721  0.4282 -0.7065
 1017MOL0     C37204   0.182   8.186   8.898 -0.5397 -0.9862 -0.6426
 1017MOL0    Cl37205   0.035   8.294   8.871 -0.4215  0.4955 -0.3351
 1017MOL0     C37206   1.203   8.390   8.878 -0.2727  0.1346 -0.7180
 1017MOL0     C37207   1.350   8.399   8.882 -0.3565 -0.4815 -0.2391
 1017MOL0     O37208   1.614   8.115   8.955 -0.2607  0.0674 -0.0161
 1017MOL0     C37209   1.833   8.334   8.784  0.4215  0.0473 -0.4126
 1017MOL0     C37210   1.961   8.373   8.770 -0.1359  1.0451  0.6933
 1017MOL0     N37211   2.654   8.609   9.012  0.2653 -0.2569 -0.2586
 1017MOL0     N37212   2.700   8.722   8.979  0.0118 -0.1793  0.3786
 1017MOL0     C37213   3.635   9.004   9.166  0.7193  0.0464 -0.0123
 1017MOL0     C37214   3.763   8.984   9.225  0.6498 -0.5751 -0.0957
 1017MOL0     C37215   4.159   9.030   9.408  0.3307 -0.4870 -0.6193
 1017MOL0     C37216   4.275   9.039   9.332  0.4363  0.4229  0.3520
 1017MOL0     C37217   4.398   9.011   9.381  0.6408  0.7048 -0.0682
 1017MOL0     C37218   4.421   8.985   9.513 -0.0991 -0.1569 -0.2509
 1017MOL0     O37219   4.548   8.935   9.548  0.6210  0.2988  0.2711
 1017MOL0     C37220   4.570   8.902   9.682  0.5977  0.0859  0.2223
 1017MOL0     C37221   4.715   8.878   9.715  1.1394  0.8193  0.5787
 1017MOL0     C37222   4.779   9.006   9.769  0.0186  0.2652 -0.6569
 1017MOL0     C37223   4.930   8.983   9.768  0.3007  0.2989 -0.6567
 1017MOL0     C37224   4.997   9.087   9.834 -0.3586  0.8707 -0.3037
 1017MOL0     C37225   5.074   9.162   9.892 -0.2840 -0.3102  0.4675
 1017MOL0     C37226   4.312   8.979   9.602  0.1620 -0.2978  0.4993
 1017MOL0     C37227   4.185   9.004   9.547 -0.3243  0.4356  0.0095
 1017MOL0     H37228   3.944   9.180   9.005 -1.0925  0.4056 -2.0139
 1017MOL0     H37229   3.732   9.186   8.890  0.2290 -2.0361 -1.9258
 1017MOL0     H37230   3.507   9.216   8.838 -4.9917  1.6144 -0.2249
 1017MOL0     H37231   3.528   9.051   8.770  1.2607 -0.0736  1.2536
 1017MOL0     H37232   3.274   9.190   8.861  1.1663 -0.7138  2.3339
 1017MOL0     H37233   3.342   9.195   8.696 -1.9143 -0.3403 -0.1694
 1017MOL0     H37234   3.355   8.940   8.683  0.0945 -0.8659  0.5661
 1017MOL0     H37235   3.281   8.944   8.842 -0.3235  2.4041  1.0541
 1017MOL0     H37236   3.065   9.026   8.753 -1.6642  0.2134 -1.0006
 1017MOL0     H37237   3.143   9.107   8.624 -2.1675 -0.8601  0.5517
 1017MOL0     H37238   3.133   8.924   8.484 -1.9215  0.4336 -0.7064
 1017MOL0     H37239   3.151   8.811   8.611  0.9438  0.3699  1.0201
 1017MOL0     H37240   2.905   8.993   8.591 -0.2668 -0.0202  0.5563
 1017MOL0     H37241   2.899   8.838   8.519 -1.9631  1.0655  0.8789
 1017MOL0     H37242   2.945   8.711   8.712  0.7845  0.5382  1.4174
 1017MOL0     H37243   2.967   8.852   8.812 -0.8039  1.3270 -0.1334
 1017MOL0     H37244   2.715   8.828   8.661  2.3610  2.9063 -1.7285
 1017MOL0     H37245   2.737   8.936   8.787  1.7250  0.8837 -0.9549
 1017MOL0     H37246   2.730   8.549   8.704 -2.0885 -3.4444  0.9484
 1017MOL0     H37247   2.683   8.332   8.821 -1.8652 -1.2245  0.4858
 1017MOL0     H37248   2.721   8.342   9.001 -0.6722 -1.2899  0.0828
 1017MOL0     H37249   2.487   8.379   9.043 -2.7696 -0.6699 -0.3539
 1017MOL0     H37250   2.512   8.224   8.959  1.6756  0.2264 -0.3923
 1017MOL0     H37251   2.437   8.349   8.743 -2.7665 -0.3147 -1.1163
 1017MOL0     H37252   2.389   8.476   8.849 -2.8404 -0.3275 -0.8009
 1017MOL0     H37253   2.277   8.308   9.007  1.1497  0.3883  0.2077
 1017MOL0     H37254   2.285   8.199   8.871  0.0942 -0.3894  2.4187
 1017MOL0     H37255   2.091   8.212   9.045 -0.3689  1.8724 -0.0894
 1017MOL0     H37256   1.784   8.186   9.173  1.1160  1.0914 -0.1950
 1017MOL0     H37257   1.807   8.035   9.087  0.3650  0.2904  2.1398
 1017MOL0     H37258   1.949   8.122   9.168  0.7037  2.8013  1.2107
 1017MOL0     H37259   1.440   8.089   8.790 -0.1948 -0.7852  2.9416
 1017MOL0     H37260   1.196   8.056   8.786 -0.9666  1.0339 -1.0591
 1017MOL0     H37261   0.970   8.230   8.663 -0.3439 -0.8710 -0.4252
 1017MOL0     H37262   0.999   8.072   8.750 -1.3219 -1.3199  0.7207
 1017MOL0     H37263   0.754   8.108   8.709  0.3334 -0.1774 -0.2732
 1017MOL0     H37264   0.787   8.106   8.886 -0.1926 -0.2824 -0.3366
 1017MOL0     H37265   0.738   8.366   8.737 -1.8474  1.2745  1.3569
 1017MOL0     H37266   0.782   8.348   8.904  0.3523 -0.9914  0.4814
 1017MOL0     H37267   0.541   8.209   8.760  0.0516 -0.5099  0.0672
 1017MOL0     H37268   0.583   8.201   8.937  1.0556 -1.6332 -0.5391
 1017MOL0     H37269   0.521   8.462   8.778 -2.3098  0.2514 -0.6160
 1017MOL0     H37270   0.516   8.438   8.953  1.7523 -0.6341 -0.3334
 1017MOL0     H37271   0.290   8.464   8.837 -2.3482 -1.4990 -2.1800
 1017MOL0     H37272   0.342   8.329   8.741  2.0162  0.2712  0.4693
 1017MOL0     H37273   0.262   8.323   9.044 -0.9150 -0.6669 -0.3577
 1017MOL0     H37274   0.365   8.209   8.989 -1.1120  1.7903  3.4327
 1017MOL0     H37275   0.159   8.114   8.978  1.9343 -2.6551 -1.3128
 1017MOL0     H37276   0.207   8.127   8.809 -1.2493 -1.6535 -0.4133
 1017MOL0     H37277   1.143   8.464   8.929  1.7175  0.2938  1.5830
 1017MOL0     H37278   1.414   8.476   8.923  1.2320 -2.7596  1.8014
 1017MOL0     H37279   1.762   8.380   8.716 -1.6309 -0.2142  1.4477
 1017MOL0     H37280   1.992   8.435   8.686  2.9422  0.3135  1.1898
 1017MOL0     H37281   3.542   8.966   9.208 -0.7008  1.1825 -1.9669
 1017MOL0     H37282   3.765   8.930   9.320  1.3781 -1.8466 -0.8127
 1017MOL0     H37283   4.268   9.060   9.226  1.2438 -2.3137 -0.3080
 1017MOL0     H37284   4.489   8.988   9.326  3.7144  0.4935  4.4954
 1017MOL0     H37285   4.534   8.985   9.744  0.6189 -1.0047  1.7350
 1017MOL0     H37286   4.518   8.811   9.712  1.5907  0.1682  2.3635
 1017MOL0     H37287   4.770   8.852   9.624  0.3301  1.1711 -0.0306
 1017MOL0     H37288   4.720   8.788   9.777 -0.9243 -0.0126 -0.3751
 1017MOL0     H37289   4.739   9.015   9.871 -2.3352 -1.6048 -1.3285
 1017MOL0     H37290   4.760   9.093   9.705 -1.8341  0.7656  0.4727
 1017MOL0     H37291   4.966   8.973   9.666  1.0530  0.2605 -0.3936
 1017MOL0     H37292   4.949   8.895   9.830 -1.4185  0.6133  0.3853
 1017MOL0     H37293   5.149   9.220   9.942 -1.7201  1.4235  0.7252
 1017MOL0     H37294   4.314   8.942   9.704 -2.0382  0.0194  0.6928
 1017MOL0     H37295   4.105   9.011   9.619  0.4447  2.0127  0.7752
 1018MOL0     O37296   9.302   1.195   5.840 -0.5133  0.2256  0.1467
 1018MOL0     C37297   9.353   1.302   5.882  0.3735 -0.4751  0.0840
 1018MOL0     O37298   9.313   1.427   5.856 -0.7323  0.3349  0.0552
 1018MOL0     C37299   9.200   1.438   5.784 -0.2173 -1.7336 -0.1931
 1018MOL0     C37300   9.073   1.431   5.843 -0.7911  0.3853  1.4729
 1018MOL0     C37301   8.957   1.442   5.763  0.0076  0.0376  0.1798
 1018MOL0     C37302   8.969   1.477   5.625 -0.1567  1.2372  0.3392
 1018MOL0     O37303   8.869   1.480   5.529 -0.1434 -0.4665  0.2541
 1018MOL0     C37304   8.736   1.457   5.574 -0.1040  0.2205 -0.9694
 1018MOL0     C37305   8.629   1.492   5.462  0.2668  0.1980 -0.0844
 1018MOL0     C37306   8.489   1.458   5.504 -0.1515  0.0240 -0.1727
 1018MOL0     C37307   8.390   1.548   5.429 -0.0482 -0.2368 -0.2118
 1018MOL0     C37308   8.255   1.555   5.493  1.0866  0.8383 -0.4430
 1018MOL0     C37309   8.151   1.609   5.407 -0.4792 -0.0614 -0.0663
 1018MOL0     C37310   8.012   1.594   5.463  0.0906  1.0581  0.1522
 1018MOL0     C37311   7.905   1.639   5.362  0.2967 -0.7600  0.6225
 1018MOL0     N37312   7.774   1.663   5.408  0.6326 -0.4143 -0.5404
 1018MOL0     C37313   7.704   1.596   5.509 -0.0613  0.2303  0.3104
 1018MOL0     C37314   7.582   1.651   5.517 -0.6708 -0.2761 -0.2871
 1018MOL0     C37315   7.463   1.604   5.591  0.2352  0.0104 -0.3792
 1018MOL0     C37316   7.467   1.625   5.746  1.5815  0.0495 -0.0404
 1018MOL0     C37317   7.329   1.582   5.790  0.6355 -0.7157  0.3513
 1018MOL0     C37318   7.331   1.579   5.943  0.1687  0.2601 -0.2894
 1018MOL0     O37319   7.216   1.506   5.975 -0.0275  0.1355 -0.2683
 1018MOL0     C37320   7.093   1.568   5.983 -0.1035  0.4708  0.7689
 1018MOL0     C37321   6.994   1.492   6.041  0.0885  0.2677  0.3919
 1018MOL0     C37322   6.871   1.544   6.072  1.2194 -0.3989  0.0756
 1018MOL0     C37323   6.778   1.448   6.145  1.2849  0.6147 -1.2356
 1018MOL0     C37324   6.843   1.683   6.037 -0.7391 -0.7603  0.3168
 1018MOL0     C37325   6.711   1.750   6.049 -0.1008  0.2259 -0.1720
 1018MOL0     O37326   6.697   1.875   5.991  0.3146  0.1830 -0.1091
 1018MOL0     C37327   6.568   1.930   5.977 -0.6948 -0.1913 -1.4037
 1018MOL0     C37328   6.496   1.891   5.867  0.4205  0.0650  0.1876
 1018MOL0     C37329   6.370   1.939   5.836 -0.9320 -0.3141  0.7432
 1018MOL0     C37330   6.310   2.037   5.925  0.1715 -0.4440 -0.0844
 1018MOL0     O37331   6.178   2.069   5.913 -0.2954  0.4884  0.6562
 1018MOL0     C37332   6.108   2.040   5.789 -1.0010 -0.2143  0.3970
 1018MOL0     C37333   5.970   2.100   5.788  0.1732  0.2440  0.3169
 1018MOL0     C37334   5.890   2.068   5.664 -1.4574  0.4779  0.6328
 1018MOL0     C37335   5.752   2.104   5.712  0.8946 -0.6767 -0.2623
 1018MOL0     C37336   5.651   2.087   5.600  0.9446 -0.6930 -0.1057
 1018MOL0     C37337   5.662   2.177   5.479  0.0335 -0.0949 -0.3241
 1018MOL0     C37338   5.549   2.167   5.374 -0.2140 -0.0220 -0.8782
 1018MOL0     C37339   5.424   2.234   5.425 -0.3504  0.6824  0.9926
 1018MOL0    Cl37340   5.288   2.170   5.314 -0.4655  0.3061 -0.5157
 1018MOL0     C37341   6.379   2.077   6.046  0.0919  0.8703  0.0839
 1018MOL0     C37342   6.507   2.021   6.069 -0.5414  0.9384  0.2923
 1018MOL0     O37343   6.616   1.678   6.083 -0.3535  0.7016  0.0910
 1018MOL0     C37344   6.943   1.761   5.982 -0.0779  0.0906  0.2716
 1018MOL0     C37345   7.067   1.698   5.960 -0.2148  0.4020  0.3461
 1018MOL0     N37346   7.577   1.753   5.425 -1.0619 -0.1499 -0.3825
 1018MOL0     N37347   7.685   1.751   5.357 -0.0204  0.1606  0.3062
 1018MOL0     C37348   9.104   1.490   5.572  0.5555  0.6864  0.7540
 1018MOL0     C37349   9.217   1.467   5.650  1.5314  0.7910  0.4687
 1018MOL0     C37350   9.455   1.282   5.986  0.1012  0.3110  0.0083
 1018MOL0     C37351   9.503   1.152   6.014 -0.6234  0.3318 -0.1100
 1018MOL0     C37352   9.580   1.128   6.131 -0.2962 -0.3691 -0.5998
 1018MOL0     C37353   9.607   1.228   6.219 -0.0345 -0.1347  0.4958
 1018MOL0     O37354   9.693   1.209   6.330  0.2237 -0.0969 -0.0323
 1018MOL0     C37355   9.657   1.285   6.447 -0.2893 -0.1407 -0.2613
 1018MOL0     C37356   9.745   1.230   6.563  0.4162 -0.8587 -0.5585
 1018MOL0     C37357   9.701   1.315   6.682 -0.5505  0.0147 -0.3900
 1018MOL0     C37358   9.713   1.258   6.822 -0.3476 -0.0252 -0.0980
 1018MOL0     C37359   9.857   1.213   6.847 -0.2489  0.8453  0.6154
 1018MOL0     C37360   9.968   1.169   6.855 -0.1581 -0.4706  0.2543
 1018MOL0     C37361   9.560   1.360   6.193 -0.4217 -0.3057 -0.2961
 1018MOL0     C37362   9.473   1.380   6.081 -0.2457  0.5757  0.4492
 1018MOL0     H37363   9.068   1.395   5.945 -0.7461  1.7059  1.9619
 1018MOL0     H37364   8.859   1.424   5.804  0.3139 -2.8174 -0.1827
 1018MOL0     H37365   8.724   1.357   5.616 -0.5104 -0.4584 -2.6441
 1018MOL0     H37366   8.712   1.525   5.657  0.1434  0.6020 -1.2042
 1018MOL0     H37367   8.635   1.598   5.435  0.6776 -0.4057 -2.5681
 1018MOL0     H37368   8.662   1.437   5.374  0.4625  1.6204 -0.9401
 1018MOL0     H37369   8.476   1.356   5.468 -2.2039  0.5696 -1.1343
 1018MOL0     H37370   8.475   1.458   5.612  2.9426 -2.7240  0.3673
 1018MOL0     H37371   8.433   1.649   5.434 -0.1021 -0.1674 -1.0992
 1018MOL0     H37372   8.398   1.516   5.325  2.6088  0.3813 -0.2854
 1018MOL0     H37373   8.224   1.452   5.512  0.8669  0.9073 -0.4250
 1018MOL0     H37374   8.255   1.621   5.580  3.6566  3.6854 -2.4008
 1018MOL0     H37375   8.186   1.712   5.391  0.3108 -0.2984  0.0805
 1018MOL0     H37376   8.152   1.570   5.305 -1.9513  0.9149 -0.4881
 1018MOL0     H37377   8.004   1.491   5.499  2.2936  0.7840  0.0007
 1018MOL0     H37378   8.013   1.658   5.551  3.8462 -0.3355  1.3127
 1018MOL0     H37379   7.890   1.556   5.292  0.9510 -0.8501  0.5867
 1018MOL0     H37380   7.937   1.731   5.314 -3.7213  0.6296  0.2160
 1018MOL0     H37381   7.741   1.513   5.568 -1.1642 -1.2674 -1.0469
 1018MOL0     H37382   7.376   1.649   5.542 -2.4780 -2.1734  2.0706
 1018MOL0     H37383   7.453   1.500   5.561  0.7403  0.3721 -1.8618
 1018MOL0     H37384   7.467   1.731   5.773 -3.6784 -0.1194  1.8144
 1018MOL0     H37385   7.550   1.569   5.789  1.3242 -0.8776 -0.7173
 1018MOL0     H37386   7.314   1.480   5.754 -1.9840 -0.6857  1.1827
 1018MOL0     H37387   7.256   1.653   5.750 -0.1294 -1.2068  0.8503
 1018MOL0     H37388   7.332   1.684   5.972  0.2703  0.8437 -2.2682
 1018MOL0     H37389   7.418   1.522   5.978 -1.6552  0.2045  5.0126
 1018MOL0     H37390   7.009   1.387   6.065 -1.2767  0.5098  2.7334
 1018MOL0     H37391   6.715   1.497   6.220  0.5499 -0.5908 -1.0341
 1018MOL0     H37392   6.704   1.412   6.074 -1.2482 -0.4454  1.6979
 1018MOL0     H37393   6.824   1.365   6.200 -2.0161 -0.7935 -0.3537
 1018MOL0     H37394   6.536   1.824   5.792 -3.1053  0.6319 -2.4713
 1018MOL0     H37395   6.318   1.894   5.751  0.9000 -0.5766 -0.2834
 1018MOL0     H37396   6.175   2.077   5.710 -2.6100  0.6109 -0.6302
 1018MOL0     H37397   6.095   1.933   5.773  0.0736 -0.0993 -1.7311
 1018MOL0     H37398   5.924   2.042   5.869  1.6283 -0.4394  0.6829
 1018MOL0     H37399   5.964   2.206   5.816 -0.4056 -0.1288  1.7205
 1018MOL0     H37400   5.892   1.961   5.641  0.2368  0.6877 -0.3975
 1018MOL0     H37401   5.929   2.126   5.579  1.6724 -0.3037  1.4333
 1018MOL0     H37402   5.715   2.042   5.794 -0.0172  0.8982  0.5727
 1018MOL0     H37403   5.742   2.208   5.745 -0.7647 -1.1047  0.6980
 1018MOL0     H37404   5.551   2.106   5.639  1.8966 -0.1484  2.2126
 1018MOL0     H37405   5.646   1.983   5.566  0.0294 -0.9882  0.8711
 1018MOL0     H37406   5.664   2.281   5.513  6.1159  0.3643 -0.9990
 1018MOL0     H37407   5.757   2.170   5.425 -0.3671 -0.5263 -0.9801
 1018MOL0     H37408   5.523   2.063   5.354  1.4459 -0.4424 -0.9551
 1018MOL0     H37409   5.589   2.210   5.283 -0.3031 -0.9384 -1.3627
 1018MOL0     H37410   5.431   2.343   5.416  2.8793  0.4543 -0.4316
 1018MOL0     H37411   5.406   2.218   5.532  0.7436  2.8375  1.5703
 1018MOL0     H37412   6.336   2.144   6.119 -0.0508 -0.1125  0.9347
 1018MOL0     H37413   6.555   2.024   6.167  0.4154 -1.6299 -0.0190
 1018MOL0     H37414   6.934   1.866   5.958  1.5570  0.1980 -0.0047
 1018MOL0     H37415   7.133   1.780   5.932 -1.5564  0.9806 -1.2303
 1018MOL0     H37416   9.115   1.504   5.464  1.2571 -1.5737  0.4870
 1018MOL0     H37417   9.316   1.492   5.611  1.0784  1.7643 -0.0882
 1018MOL0     H37418   9.486   1.060   5.959  0.8389 -0.3935  0.6201
 1018MOL0     H37419   9.633   1.036   6.154  1.4491  1.0216  1.3202
 1018MOL0     H37420   9.674   1.393   6.443  0.6355 -0.2824 -0.4402
 1018MOL0     H37421   9.552   1.272   6.473 -0.1246 -2.3012 -0.4836
 1018MOL0     H37422   9.851   1.241   6.538  1.0021 -2.8313  0.8318
 1018MOL0     H37423   9.719   1.124   6.569  0.5987 -0.9918 -1.7657
 1018MOL0     H37424   9.599   1.351   6.671 -0.9168 -0.8702  0.0056
 1018MOL0     H37425   9.769   1.400   6.678 -1.6688  1.0474  1.4947
 1018MOL0     H37426   9.648   1.171   6.841  1.6737 -2.2011 -2.4046
 1018MOL0     H37427   9.690   1.341   6.889  0.6557 -0.7954  1.2859
 1018MOL0     H37428  10.065   1.124   6.859  0.8373  1.4357 -1.1368
 1018MOL0     H37429   9.585   1.442   6.259  1.6482 -2.0290  1.2273
 1018MOL0     H37430   9.435   1.481   6.073 -1.3831  0.1568  0.3911
 1019MOL0     O37431   3.102   2.610   6.193 -0.3860  0.6590  0.0975
 1019MOL0     C37432   3.199   2.616   6.266 -0.5864  0.1701  0.2269
 1019MOL0     O37433   3.215   2.696   6.375  0.1832  0.8657 -0.0514
 1019MOL0     C37434   3.121   2.781   6.416 -0.1763  0.7568 -0.0886
 1019MOL0     C37435   2.991   2.738   6.466  0.9653  0.6993 -0.7958
 1019MOL0     C37436   2.892   2.828   6.497  1.0611 -0.1557 -0.0398
 1019MOL0     C37437   2.907   2.963   6.472 -0.1485  0.0797  0.4186
 1019MOL0     O37438   2.803   3.044   6.494 -0.0665 -0.1026 -0.2470
 1019MOL0     C37439   2.797   3.183   6.452  0.0744  0.2172 -0.0340
 1019MOL0     C37440   2.664   3.262   6.464 -0.4877 -0.5775  0.2368
 1019MOL0     C37441   2.537   3.208   6.400  0.4735 -0.0223 -0.3214
 1019MOL0     C37442   2.550   3.218   6.253 -0.1138  0.0330  0.4077
 1019MOL0     C37443   2.427   3.170   6.177 -0.2074  0.0423  0.0064
 1019MOL0     C37444   2.306   3.264   6.183  0.5657 -0.1837 -0.1324
 1019MOL0     C37445   2.181   3.226   6.099 -0.1809 -0.2084  0.0276
 1019MOL0     C37446   2.138   3.080   6.109 -0.3060 -0.5332  0.5315
 1019MOL0     N37447   2.063   3.052   6.228  0.6450 -0.6082  0.5870
 1019MOL0     C37448   2.099   2.963   6.330  0.4929 -0.1161  0.9878
 1019MOL0     C37449   1.985   2.931   6.393  0.2118  0.1103 -0.2837
 1019MOL0     C37450   1.985   2.840   6.514 -0.2230 -0.7589  0.4096
 1019MOL0     C37451   1.862   2.861   6.599 -0.2232  0.0874 -0.3587
 1019MOL0     C37452   1.842   2.751   6.710  0.0209  0.3519 -0.6795
 1019MOL0     C37453   1.756   2.799   6.829  0.8644 -0.7220 -0.4157
 1019MOL0     O37454   1.748   2.685   6.920 -0.2778 -0.1721 -0.5665
 1019MOL0     C37455   1.632   2.686   6.996  0.0099 -0.7064  0.5143
 1019MOL0     C37456   1.646   2.721   7.132  0.3974  0.0100 -0.6290
 1019MOL0     C37457   1.535   2.741   7.219 -0.9745  0.0922  0.2100
 1019MOL0     C37458   1.568   2.794   7.359 -0.1492 -0.3192  0.4352
 1019MOL0     C37459   1.406   2.708   7.170  0.1727 -0.1182  0.7298
 1019MOL0     C37460   1.278   2.722   7.245  0.0989  0.6971 -0.9176
 1019MOL0     O37461   1.184   2.640   7.210 -0.6997  0.2041  0.3096
 1019MOL0     C37462   1.057   2.670   7.248  1.2738  0.1968  0.2295
 1019MOL0     C37463   0.990   2.762   7.168 -0.7321 -0.2243 -0.4724
 1019MOL0     C37464   0.864   2.805   7.201  0.0763  0.4672  0.7451
 1019MOL0     C37465   0.802   2.760   7.323  0.5681  0.1236  0.9121
 1019MOL0     O37466   0.692   2.819   7.364  0.6024  0.1401 -0.3607
 1019MOL0     C37467   0.627   2.928   7.311  0.4410 -0.3502 -0.5805
 1019MOL0     C37468   0.501   2.955   7.403 -0.7160  0.0078  0.5396
 1019MOL0     C37469   0.391   2.843   7.415  0.4287 -0.6086  0.0890
 1019MOL0     C37470   0.333   2.815   7.274 -0.4360 -0.1627 -0.6026
 1019MOL0     C37471   0.205   2.726   7.289 -0.5912 -0.3866 -0.1815
 1019MOL0     C37472   0.129   2.726   7.148  0.2489  0.3329  0.0651
 1019MOL0     C37473  -0.016   2.675   7.155  0.2105 -0.4514 -0.3434
 1019MOL0     C37474  -0.023   2.523   7.183 -0.1897 -0.4082  1.5680
 1019MOL0    Cl37475  -0.013   2.500   7.353 -0.0063  0.0663 -0.2114
 1019MOL0     C37476   0.866   2.669   7.397 -0.2471 -0.2668  0.1491
 1019MOL0     C37477   0.991   2.623   7.360 -0.0509 -0.3711 -0.8851
 1019MOL0     O37478   1.264   2.812   7.334 -0.5487 -0.3182  0.8104
 1019MOL0     C37479   1.399   2.659   7.037 -1.2015 -0.3595 -0.7475
 1019MOL0     C37480   1.507   2.657   6.944 -0.1071 -0.1054 -0.3123
 1019MOL0     N37481   1.882   3.014   6.337 -0.4307  0.6664  0.5428
 1019MOL0     N37482   1.929   3.085   6.242  0.4054 -0.3773  0.0173
 1019MOL0     C37483   3.032   3.011   6.417 -0.5293  0.0701 -0.0880
 1019MOL0     C37484   3.137   2.918   6.385 -0.2615  0.4382  0.3863
 1019MOL0     C37485   3.318   2.548   6.209 -0.3518 -0.2236 -0.0519
 1019MOL0     C37486   3.304   2.418   6.150 -0.4233  0.1186  0.7847
 1019MOL0     C37487   3.423   2.352   6.088  0.4171 -0.0731 -0.0926
 1019MOL0     C37488   3.537   2.432   6.071 -0.3377 -0.5512 -0.4365
 1019MOL0     O37489   3.644   2.383   5.999  0.6006  0.4199 -0.7938
 1019MOL0     C37490   3.767   2.392   6.066 -1.6820  0.6063 -0.3145
 1019MOL0     C37491   3.870   2.305   6.007  0.1190 -0.1329 -0.2456
 1019MOL0     C37492   3.834   2.158   6.014  0.4670  0.3785 -0.3326
 1019MOL0     C37493   3.957   2.081   5.980 -0.1696  0.1052 -0.1273
 1019MOL0     C37494   4.060   2.098   6.075 -0.1038  0.3065 -0.6610
 1019MOL0     C37495   4.129   2.123   6.165 -0.0637  0.2805 -0.0958
 1019MOL0     C37496   3.544   2.561   6.118  0.5639 -0.7352 -0.0778
 1019MOL0     C37497   3.440   2.611   6.199 -0.3603  0.5706  0.5681
 1019MOL0     H37498   2.979   2.635   6.500  1.0493  1.1744  0.7905
 1019MOL0     H37499   2.800   2.791   6.542  0.7930  0.0087 -0.4504
 1019MOL0     H37500   2.866   3.243   6.512 -1.0541  2.1018 -0.5305
 1019MOL0     H37501   2.825   3.195   6.348  0.4669 -2.7868 -0.3494
 1019MOL0     H37502   2.637   3.276   6.569  1.8367 -0.9408  0.9342
 1019MOL0     H37503   2.682   3.365   6.435  2.0088 -0.6979  1.1401
 1019MOL0     H37504   2.522   3.105   6.431  3.6613 -0.4584  0.1116
 1019MOL0     H37505   2.448   3.261   6.436  0.2064  2.8914 -4.4725
 1019MOL0     H37506   2.566   3.322   6.223 -1.4570  0.0190 -0.4579
 1019MOL0     H37507   2.641   3.161   6.231  1.0753  0.8080  2.9769
 1019MOL0     H37508   2.467   3.137   6.080  2.2569  1.4862  0.4576
 1019MOL0     H37509   2.401   3.083   6.237  0.7665 -0.4408 -0.2422
 1019MOL0     H37510   2.266   3.270   6.285  0.1412  0.9565 -0.3491
 1019MOL0     H37511   2.337   3.364   6.151 -0.4517  0.7829  1.6978
 1019MOL0     H37512   2.091   3.281   6.126  0.5685 -1.2452  6.0832
 1019MOL0     H37513   2.191   3.236   5.991 -0.7049 -2.9616 -0.3452
 1019MOL0     H37514   2.222   3.010   6.117 -0.2193 -0.2108  2.9062
 1019MOL0     H37515   2.078   3.058   6.020 -2.0318 -1.0532  1.7828
 1019MOL0     H37516   2.200   2.927   6.348  0.3537 -1.1572 -0.1419
 1019MOL0     H37517   1.990   2.735   6.484  1.5993 -0.7416  0.5361
 1019MOL0     H37518   2.071   2.865   6.577 -0.5799  0.9090  0.2962
 1019MOL0     H37519   1.779   2.857   6.529 -1.6898 -0.6547  1.3584
 1019MOL0     H37520   1.877   2.964   6.634  0.0188 -0.3853  0.9978
 1019MOL0     H37521   1.936   2.712   6.752 -1.6845  0.4303  3.6935
 1019MOL0     H37522   1.795   2.665   6.662 -2.5598 -0.4863  2.9344
 1019MOL0     H37523   1.661   2.836   6.790  0.6034 -0.8451  0.0946
 1019MOL0     H37524   1.803   2.877   6.889  2.8978 -3.9271  2.5619
 1019MOL0     H37525   1.748   2.744   7.160 -0.1818 -1.6584  3.5030
 1019MOL0     H37526   1.657   2.857   7.357 -0.4855  0.1548 -0.8301
 1019MOL0     H37527   1.491   2.851   7.410 -0.1705 -0.9141  1.0806
 1019MOL0     H37528   1.580   2.707   7.425 -1.5127  0.2662  1.5033
 1019MOL0     H37529   1.033   2.801   7.077  1.3670 -0.3712  0.4122
 1019MOL0     H37530   0.812   2.863   7.125 -0.5390  1.4677  1.8770
 1019MOL0     H37531   0.685   3.021   7.311 -0.7799  0.4460 -1.3411
 1019MOL0     H37532   0.591   2.906   7.210 -4.1941 -1.0320  0.9445
 1019MOL0     H37533   0.533   2.994   7.500  2.2617  0.4777 -0.5289
 1019MOL0     H37534   0.450   3.042   7.362 -1.2651  0.5669  2.3132
 1019MOL0     H37535   0.306   2.858   7.482 -0.7985 -2.0223 -1.0805
 1019MOL0     H37536   0.429   2.746   7.449  0.6733 -0.1589  1.1355
 1019MOL0     H37537   0.301   2.906   7.222 -0.5713 -0.6191 -1.3386
 1019MOL0     H37538   0.410   2.763   7.216  2.5781  1.0975  1.9489
 1019MOL0     H37539   0.153   2.770   7.375 -1.5004  0.6308 -1.2170
 1019MOL0     H37540   0.236   2.623   7.311 -1.2064 -0.4079  0.6338
 1019MOL0     H37541   0.138   2.825   7.102 -0.7129  1.7274  2.6645
 1019MOL0     H37542   0.179   2.652   7.085 -2.3382  0.1438 -1.9470
 1019MOL0     H37543  -0.054   2.684   7.053  2.2059 -0.3545 -1.1370
 1019MOL0     H37544  -0.079   2.733   7.222  0.0690  0.3606 -1.1709
 1019MOL0     H37545   0.055   2.468   7.130 -1.5193 -1.9972  1.1585
 1019MOL0     H37546  -0.113   2.477   7.141 -0.3289 -1.3091  2.7858
 1019MOL0     H37547   0.813   2.627   7.483 -1.9265 -2.6484 -1.8772
 1019MOL0     H37548   1.047   2.552   7.420  1.5810  1.8920  0.4446
 1019MOL0     H37549   1.298   2.640   7.000 -1.4000  1.0929 -1.0234
 1019MOL0     H37550   1.472   2.630   6.844 -1.5398 -1.2290  0.4494
 1019MOL0     H37551   3.039   3.116   6.391  2.7356 -0.6483 -2.6815
 1019MOL0     H37552   3.230   2.950   6.339 -1.3577  1.2528 -1.3722
 1019MOL0     H37553   3.209   2.367   6.146 -0.6338  0.5551 -0.9818
 1019MOL0     H37554   3.404   2.256   6.041  0.2829  0.7196 -1.7090
 1019MOL0     H37555   3.810   2.493   6.072  1.2529 -0.5921  0.2833
 1019MOL0     H37556   3.758   2.349   6.166 -1.2700 -0.8655 -0.8941
 1019MOL0     H37557   3.963   2.333   6.058 -1.1545  0.4495  1.9242
 1019MOL0     H37558   3.873   2.337   5.903  1.6347 -0.4651 -0.3224
 1019MOL0     H37559   3.761   2.142   5.933 -0.2138  1.7930 -0.0315
 1019MOL0     H37560   3.783   2.129   6.106  0.9352  1.8906  0.4356
 1019MOL0     H37561   3.988   2.122   5.883 -0.3357  0.1683 -0.1531
 1019MOL0     H37562   3.937   1.975   5.962  2.0349 -0.4047  0.1473
 1019MOL0     H37563   4.191   2.126   6.252  2.6663 -0.5913 -1.8969
 1019MOL0     H37564   3.622   2.632   6.093 -0.5688  1.1865  1.4723
 1019MOL0     H37565   3.450   2.710   6.240 -0.4583 -0.1815  2.4933
 1020MOL0     O37566   0.956   9.423   2.920 -0.5592  1.0252  0.0698
 1020MOL0     C37567   1.030   9.330   2.930 -0.7493  0.4533  0.2372
 1020MOL0     O37568   0.998   9.210   2.986  0.2069  0.2724  0.3727
 1020MOL0     C37569   0.877   9.180   3.048  0.2302  0.0808 -0.4237
 1020MOL0     C37570   0.883   9.044   3.110  0.8746 -0.3624 -0.0155
 1020MOL0     C37571   0.769   8.988   3.163 -0.5561  0.5844  0.1596
 1020MOL0     C37572   0.656   9.064   3.180 -0.5130 -0.1101  0.5959
 1020MOL0     O37573   0.557   9.012   3.252  0.0665  0.6617  0.3848
 1020MOL0     C37574   0.428   9.051   3.216  0.5226 -0.1439  0.2839
 1020MOL0     C37575   0.332   8.946   3.270 -0.0991  1.0375 -0.8239
 1020MOL0     C37576   0.193   8.992   3.231 -0.1213 -1.4355  0.1833
 1020MOL0     C37577   0.083   8.895   3.257  0.0473 -0.0039  0.1965
 1020MOL0     C37578  -0.050   8.957   3.202  0.2536 -0.5843 -0.0345
 1020MOL0     C37579  -0.166   8.860   3.229  0.7072  0.4974 -0.0994
 1020MOL0     C37580  -0.312   8.915   3.190 -0.5865  0.6760 -0.0003
 1020MOL0     C37581  -0.301   8.993   3.062 -0.0703 -0.4387  0.8390
 1020MOL0     N37582  -0.439   9.020   3.007 -0.5766 -0.7011 -0.1205
 1020MOL0     C37583  -0.521   8.930   2.948 -0.1421  0.0058 -0.4319
 1020MOL0     C37584  -0.635   8.998   2.931  0.3341  0.5857  0.6312
 1020MOL0     C37585  -0.753   8.918   2.867  0.9486  0.6206  0.3884
 1020MOL0     C37586  -0.741   8.904   2.718  0.0061  0.6532 -0.6779
 1020MOL0     C37587  -0.737   9.036   2.650  0.4552 -0.4564 -0.0872
 1020MOL0     C37588  -0.762   9.040   2.502 -0.1878 -0.3817 -0.7525
 1020MOL0     O37589  -0.886   8.976   2.479 -0.0279 -0.2688 -0.6909
 1020MOL0     C37590  -0.999   9.057   2.466  0.5326  0.1788  0.2481
 1020MOL0     C37591  -1.015   9.192   2.490 -0.5209  0.5781 -0.5155
 1020MOL0     C37592  -1.138   9.265   2.478  0.4092  0.1610  0.7117
 1020MOL0     C37593  -1.149   9.408   2.524 -0.2861 -0.2538 -0.8960
 1020MOL0     C37594  -1.249   9.192   2.425 -0.3633 -0.7511  0.6070
 1020MOL0     C37595  -1.378   9.251   2.384  0.7734 -0.2930 -0.4963
 1020MOL0     O37596  -1.488   9.209   2.457  0.6730 -0.6176 -0.3707
 1020MOL0     C37597  -1.592   9.293   2.466 -0.7018 -0.6016 -0.0845
 1020MOL0     C37598  -1.720   9.252   2.428 -0.3858 -0.1344  0.1068
 1020MOL0     C37599  -1.832   9.335   2.453 -0.1649 -0.5238  0.8488
 1020MOL0     C37600  -1.815   9.460   2.505  0.1336 -0.1329  0.2095
 1020MOL0     O37601  -1.930   9.536   2.510 -0.3688 -0.3460  0.1342
 1020MOL0     C37602  -1.912   9.674   2.458  0.5782 -0.3648  0.5235
 1020MOL0     C37603  -2.041   9.756   2.478  1.0221  0.1148 -0.2169
 1020MOL0     C37604  -2.162   9.684   2.421 -0.3047  0.6675 -0.1926
 1020MOL0     C37605  -2.290   9.772   2.420  0.4178  0.2757  0.1858
 1020MOL0     C37606  -2.374   9.751   2.541  0.6431  0.6409  0.0478
 1020MOL0     C37607  -2.497   9.851   2.561 -0.0775  0.0988  0.6288
 1020MOL0     C37608  -2.599   9.850   2.448 -0.3590 -0.9665 -0.0927
 1020MOL0     C37609  -2.736   9.910   2.498  0.0386 -0.7151  0.0181
 1020MOL0    Cl37610  -2.820   9.807   2.616  0.2596  0.1013 -0.0756
 1020MOL0     C37611  -1.688   9.507   2.527 -0.1068 -0.3798 -0.5065
 1020MOL0     C37612  -1.578   9.425   2.516  0.4691  0.5200  0.0922
 1020MOL0     O37613  -1.382   9.335   2.295 -0.5360  0.3026 -0.0669
 1020MOL0     C37614  -1.241   9.055   2.399 -0.0211 -0.3956  0.5022
 1020MOL0     C37615  -1.118   8.994   2.415  0.1117 -0.4209 -0.2879
 1020MOL0     N37616  -0.634   9.129   2.986 -0.0235  0.7312  0.5163
 1020MOL0     N37617  -0.513   9.136   3.035 -0.4228  0.5038  0.0650
 1020MOL0     C37618   0.653   9.196   3.126  0.1699 -0.2447 -0.0840
 1020MOL0     C37619   0.762   9.251   3.056 -0.7354  0.1230 -0.2067
 1020MOL0     C37620   1.163   9.330   2.863 -0.4383  0.2142  0.1841
 1020MOL0     C37621   1.234   9.206   2.840 -0.2065 -0.1065 -1.1321
 1020MOL0     C37622   1.354   9.206   2.765  0.3220 -0.1531 -0.5199
 1020MOL0     C37623   1.395   9.321   2.701 -0.4523 -0.1355  0.6723
 1020MOL0     O37624   1.511   9.308   2.635 -0.2761  0.0245 -0.2589
 1020MOL0     C37625   1.558   9.420   2.561  0.0156 -0.8604 -0.7276
 1020MOL0     C37626   1.709   9.410   2.538 -0.1726 -0.1004 -0.4825
 1020MOL0     C37627   1.727   9.325   2.416 -0.0651 -0.2165  0.3578
 1020MOL0     C37628   1.876   9.306   2.392 -0.8857 -0.1866  0.5887
 1020MOL0     C37629   1.931   9.413   2.301  0.4150 -0.0848  0.5334
 1020MOL0     C37630   1.967   9.502   2.223 -0.4854  1.0914 -0.6173
 1020MOL0     C37631   1.317   9.441   2.709  0.2272 -0.0421 -0.2327
 1020MOL0     C37632   1.203   9.446   2.792  0.0073  0.7637 -0.3880
 1020MOL0     H37633   0.966   8.976   3.098 -0.1225 -2.2488  2.7596
 1020MOL0     H37634   0.775   8.886   3.199 -1.3341  1.0358  1.6225
 1020MOL0     H37635   0.404   9.151   3.252  2.0999  1.5228 -2.8882
 1020MOL0     H37636   0.427   9.054   3.107 -2.9575  0.5019  0.2281
 1020MOL0     H37637   0.361   8.848   3.232 -1.1563  0.3513  0.0897
 1020MOL0     H37638   0.338   8.929   3.378 -1.1582 -0.3974 -0.9616
 1020MOL0     H37639   0.170   9.082   3.290 -0.8500  0.6045 -2.9176
 1020MOL0     H37640   0.189   9.020   3.125  3.6836 -0.3137  0.2030
 1020MOL0     H37641   0.094   8.794   3.217 -0.9096 -0.6159  1.3995
 1020MOL0     H37642   0.084   8.880   3.366  1.2055 -3.9545 -0.1777
 1020MOL0     H37643  -0.071   9.051   3.253  0.0816 -0.3057 -0.6133
 1020MOL0     H37644  -0.044   8.976   3.095 -2.2075  3.7226  0.3747
 1020MOL0     H37645  -0.150   8.771   3.168  1.3339  1.5884 -1.5824
 1020MOL0     H37646  -0.158   8.835   3.336  2.6599  3.0934  0.4747
 1020MOL0     H37647  -0.374   8.825   3.182 -1.3760  1.0140  1.8487
 1020MOL0     H37648  -0.350   8.989   3.261 -0.1445  1.6825 -0.7843
 1020MOL0     H37649  -0.245   8.936   2.988 -0.0355 -0.9214  1.2324
 1020MOL0     H37650  -0.245   9.087   3.073 -0.3639 -0.0147 -0.9713
 1020MOL0     H37651  -0.496   8.829   2.918  0.0914  0.3837 -1.5509
 1020MOL0     H37652  -0.753   8.826   2.926  2.8061  0.1055 -0.3428
 1020MOL0     H37653  -0.846   8.973   2.884  0.6254 -0.5259  2.7781
 1020MOL0     H37654  -0.823   8.847   2.673 -1.5795  2.0499  0.3632
 1020MOL0     H37655  -0.644   8.855   2.702  1.8553  4.4961 -2.5426
 1020MOL0     H37656  -0.633   9.065   2.668  0.1045  1.6929 -1.1476
 1020MOL0     H37657  -0.792   9.120   2.695  0.7956 -0.6192  0.6464
 1020MOL0     H37658  -0.677   8.988   2.456  0.5111 -0.8631  0.9768
 1020MOL0     H37659  -0.765   9.144   2.471  1.0195  0.0532  0.4727
 1020MOL0     H37660  -0.928   9.248   2.525 -0.5377 -0.1084  0.6826
 1020MOL0     H37661  -1.055   9.455   2.555  0.0214 -1.6591  0.4417
 1020MOL0     H37662  -1.202   9.470   2.451 -0.6747 -0.2975 -0.6593
 1020MOL0     H37663  -1.208   9.397   2.616 -2.2522  1.1902 -1.9156
 1020MOL0     H37664  -1.744   9.153   2.391 -1.7609  0.5539 -0.9081
 1020MOL0     H37665  -1.931   9.296   2.428  0.4687 -0.8417 -1.4259
 1020MOL0     H37666  -1.831   9.722   2.514 -0.6950 -0.4050  2.5067
 1020MOL0     H37667  -1.878   9.667   2.354  1.8378  0.2914  0.8621
 1020MOL0     H37668  -2.057   9.767   2.585 -2.2936  0.0583 -0.6046
 1020MOL0     H37669  -2.045   9.854   2.429 -1.3480 -0.2239 -0.8216
 1020MOL0     H37670  -2.183   9.593   2.478 -2.8474  0.7110 -0.9459
 1020MOL0     H37671  -2.140   9.659   2.316 -0.3807 -1.9817  0.3729
 1020MOL0     H37672  -2.274   9.879   2.404  1.3054  0.3743  1.5395
 1020MOL0     H37673  -2.351   9.752   2.332 -0.2924  0.9582  0.5106
 1020MOL0     H37674  -2.302   9.755   2.623  0.6622 -0.7740  0.1246
 1020MOL0     H37675  -2.420   9.652   2.529  1.1583  0.4771 -0.6481
 1020MOL0     H37676  -2.546   9.837   2.658  1.6507  1.0563  1.7026
 1020MOL0     H37677  -2.455   9.952   2.563 -1.7493  0.9120 -1.4852
 1020MOL0     H37678  -2.618   9.749   2.409  0.0006 -0.6681 -1.0871
 1020MOL0     H37679  -2.571   9.920   2.369 -1.0813 -2.0369 -1.3408
 1020MOL0     H37680  -2.807   9.931   2.418 -1.4867  1.1626  1.7520
 1020MOL0     H37681  -2.718   9.992   2.568  3.5202 -0.8189 -0.5875
 1020MOL0     H37682  -1.678   9.605   2.574  0.9038 -0.0116 -1.4422
 1020MOL0     H37683  -1.487   9.465   2.558 -0.9485  2.2942  1.6529
 1020MOL0     H37684  -1.328   9.017   2.346 -0.5119  0.5669  0.5979
 1020MOL0     H37685  -1.101   8.888   2.397  0.3922 -1.1202  3.2789
 1020MOL0     H37686   0.560   9.251   3.140 -0.0768 -0.6967  0.0800
 1020MOL0     H37687   0.762   9.345   3.001 -0.1003 -0.2267 -0.8135
 1020MOL0     H37688   1.195   9.117   2.888 -2.1007 -0.5519 -3.2722
 1020MOL0     H37689   1.409   9.112   2.760 -1.8801 -1.5297 -0.3993
 1020MOL0     H37690   1.501   9.421   2.468  0.7404  2.0350 -1.2519
 1020MOL0     H37691   1.553   9.516   2.614  1.7736  0.0745 -2.1157
 1020MOL0     H37692   1.755   9.362   2.625 -0.8498 -1.5304 -0.8796
 1020MOL0     H37693   1.757   9.508   2.528  0.8864 -0.5192  0.3353
 1020MOL0     H37694   1.688   9.371   2.325 -2.1542 -2.1983  0.1634
 1020MOL0     H37695   1.678   9.229   2.436 -1.1822  0.4724  1.0561
 1020MOL0     H37696   1.897   9.208   2.349  0.7039  0.4203 -0.1138
 1020MOL0     H37697   1.927   9.315   2.488  0.9489  0.0660 -0.3619
 1020MOL0     H37698   1.989   9.570   2.143 -0.7735 -0.1328 -1.7933
 1020MOL0     H37699   1.335   9.527   2.645 -2.1915  0.7464  0.0463
 1020MOL0     H37700   1.153   9.543   2.792  1.5178  1.5830 -1.4727
 1021MOL0     O37701   0.395   8.255   8.234  0.6345  0.5076 -0.2067
 1021MOL0     C37702   0.326   8.307   8.320  0.1957 -1.1355  0.1112
 1021MOL0     O37703   0.363   8.386   8.430  0.8153  0.7427 -0.9729
 1021MOL0     C37704   0.491   8.406   8.446 -0.3174  0.5711 -0.4324
 1021MOL0     C37705   0.525   8.534   8.478 -0.4568  0.0707  0.5075
 1021MOL0     C37706   0.660   8.567   8.499 -0.8663  0.8630 -0.3237
 1021MOL0     C37707   0.763   8.482   8.463 -0.1891  0.6099 -0.6526
 1021MOL0     O37708   0.900   8.513   8.478 -0.0638  0.0175 -0.2099
 1021MOL0     C37709   0.936   8.631   8.535  0.0685  0.3254  0.2441
 1021MOL0     C37710   1.093   8.648   8.524  0.5556 -0.0003 -1.1002
 1021MOL0     C37711   1.143   8.785   8.543 -0.1815 -0.2161  0.8673
 1021MOL0     C37712   1.291   8.795   8.531  0.1472 -0.4446  0.2932
 1021MOL0     C37713   1.339   8.938   8.521 -0.1663 -0.4582  0.5303
 1021MOL0     C37714   1.491   8.944   8.502  0.4354 -0.1017 -0.2447
 1021MOL0     C37715   1.542   9.089   8.506 -0.0608  0.0930  0.1862
 1021MOL0     C37716   1.698   9.105   8.513  0.9010  0.1680  0.1716
 1021MOL0     N37717   1.745   9.243   8.500  0.4006  0.7475  1.4303
 1021MOL0     C37718   1.747   9.319   8.379 -0.0868  0.6350 -0.0129
 1021MOL0     C37719   1.852   9.401   8.393 -0.0029  0.4686 -0.3475
 1021MOL0     C37720   1.929   9.474   8.293 -0.1086 -0.9014  0.4514
 1021MOL0     C37721   1.867   9.603   8.254  0.1270 -0.5058 -1.1566
 1021MOL0     C37722   1.848   9.711   8.370 -0.0058  0.7547 -0.1410
 1021MOL0     C37723   1.732   9.813   8.351  0.5330 -0.5127 -0.3321
 1021MOL0     O37724   1.609   9.759   8.387  0.3139  0.5558 -0.6676
 1021MOL0     C37725   1.509   9.741   8.293 -0.1168  0.7269 -0.3097
 1021MOL0     C37726   1.462   9.844   8.211  0.3778  0.4472  0.0129
 1021MOL0     C37727   1.362   9.818   8.113  0.4628  0.2715 -0.0500
 1021MOL0     C37728   1.294   9.932   8.043  0.0801 -0.7974 -0.1732
 1021MOL0     C37729   1.305   9.689   8.102 -0.4004 -1.4768  0.6801
 1021MOL0     C37730   1.188   9.642   8.017  0.8423 -0.8306 -0.2883
 1021MOL0     O37731   1.153   9.516   8.035  0.9927 -0.1252 -0.0258
 1021MOL0     C37732   1.023   9.481   8.035 -0.0320 -0.5680 -1.2712
 1021MOL0     C37733   0.990   9.354   7.990  0.0826  0.1488 -0.5840
 1021MOL0     C37734   0.849   9.306   7.993  0.0234  0.5617  0.7166
 1021MOL0     C37735   0.745   9.392   8.038 -0.1472  0.3420  0.0501
 1021MOL0     O37736   0.615   9.338   8.034 -0.0848  0.1958  0.1390
 1021MOL0     C37737   0.523   9.390   7.940 -0.6588  0.1703  0.1558
 1021MOL0     C37738   0.404   9.465   8.012 -0.5910  0.2307  0.1810
 1021MOL0     C37739   0.326   9.384   8.105 -0.0866 -0.1375  0.2657
 1021MOL0     C37740   0.239   9.270   8.051  0.2155 -0.5269 -0.0316
 1021MOL0     C37741   0.179   9.203   8.177 -0.2274 -0.9613 -0.0454
 1021MOL0     C37742   0.069   9.117   8.134  0.0693  0.1688  0.2755
 1021MOL0     C37743   0.001   9.043   8.243 -0.8364  0.0716 -1.4573
 1021MOL0     C37744  -0.141   8.991   8.207 -0.7586 -0.8134 -0.0707
 1021MOL0    Cl37745  -0.123   8.881   8.067  0.0769 -0.0572  0.3748
 1021MOL0     C37746   0.775   9.518   8.082  0.3877 -0.6394  0.5789
 1021MOL0     C37747   0.911   9.558   8.086 -0.5475 -1.0370  0.5880
 1021MOL0     O37748   1.130   9.724   7.944 -0.3335  0.2407  0.0368
 1021MOL0     C37749   1.356   9.593   8.191  1.5142 -0.4145 -0.3421
 1021MOL0     C37750   1.450   9.616   8.289  0.3268 -0.1488  0.2803
 1021MOL0     N37751   1.900   9.386   8.526 -0.5877 -0.3861  0.0522
 1021MOL0     N37752   1.830   9.297   8.583 -0.3016  0.5100 -0.0795
 1021MOL0     C37753   0.730   8.350   8.428 -0.2718  0.0973  1.1030
 1021MOL0     C37754   0.595   8.311   8.428  0.3320 -0.2052  0.1258
 1021MOL0     C37755   0.178   8.281   8.319 -0.0214  0.5071  0.5357
 1021MOL0     C37756   0.115   8.207   8.218  1.0313  1.1525  0.4607
 1021MOL0     C37757  -0.026   8.196   8.214 -0.3180  0.6327 -0.0513
 1021MOL0     C37758  -0.111   8.249   8.310 -0.4605 -0.5572 -0.5036
 1021MOL0     O37759  -0.248   8.239   8.300 -0.4068  0.2077 -0.1799
 1021MOL0     C37760  -0.314   8.195   8.417 -0.4585  0.1332 -0.7656
 1021MOL0     C37761  -0.465   8.219   8.406  0.2621 -1.3704  0.1187
 1021MOL0     C37762  -0.533   8.162   8.538 -0.5265 -0.0234 -0.0162
 1021MOL0     C37763  -0.673   8.218   8.546  0.8683  0.1058  0.1009
 1021MOL0     C37764  -0.758   8.205   8.429 -0.4311  0.7668  0.6472
 1021MOL0     C37765  -0.823   8.195   8.333 -0.0834 -0.8283 -0.1618
 1021MOL0     C37766  -0.045   8.327   8.403 -0.1079  0.2372 -0.3668
 1021MOL0     C37767   0.093   8.344   8.409  0.2464  0.4238  0.0172
 1021MOL0     H37768   0.453   8.616   8.477  2.4282  2.8008 -0.6537
 1021MOL0     H37769   0.668   8.672   8.526 -0.5053  0.9012 -0.5813
 1021MOL0     H37770   0.895   8.716   8.480  2.2456  0.8210 -0.7176
 1021MOL0     H37771   0.909   8.636   8.641  0.7114 -1.9680  0.5749
 1021MOL0     H37772   1.144   8.582   8.595  2.4992  3.4481  0.9586
 1021MOL0     H37773   1.121   8.616   8.423  0.0213 -2.4121 -0.5394
 1021MOL0     H37774   1.097   8.838   8.459  1.6526 -1.5639 -1.0948
 1021MOL0     H37775   1.108   8.840   8.630 -1.4476 -0.0987  0.3080
 1021MOL0     H37776   1.343   8.746   8.613  0.6820  1.4576  1.1555
 1021MOL0     H37777   1.316   8.738   8.441  0.7187  1.6587 -0.9654
 1021MOL0     H37778   1.279   8.989   8.446  2.1817 -0.1760 -1.2504
 1021MOL0     H37779   1.315   8.992   8.613 -0.6208  2.0023 -0.9381
 1021MOL0     H37780   1.546   8.892   8.581  0.8539  0.2526 -0.2939
 1021MOL0     H37781   1.510   8.893   8.407  0.9230  1.4265 -1.0117
 1021MOL0     H37782   1.503   9.156   8.429 -0.7890  1.0896  1.3782
 1021MOL0     H37783   1.496   9.136   8.593  1.6705  0.2560  1.0697
 1021MOL0     H37784   1.740   9.047   8.430  1.5359  0.3450  0.3650
 1021MOL0     H37785   1.727   9.051   8.604  1.0633 -1.1757 -0.6484
 1021MOL0     H37786   1.674   9.311   8.299 -1.5071  1.0716  1.2054
 1021MOL0     H37787   2.024   9.476   8.346  0.0542  1.4598  0.1737
 1021MOL0     H37788   1.946   9.417   8.201 -1.5436 -0.9268  0.1748
 1021MOL0     H37789   1.768   9.573   8.218 -0.4390  1.3966 -1.3256
 1021MOL0     H37790   1.928   9.643   8.173  2.1096 -3.5458 -1.3111
 1021MOL0     H37791   1.939   9.768   8.389 -0.1358  0.7526  0.4859
 1021MOL0     H37792   1.821   9.665   8.465  0.7123  3.8143  1.6796
 1021MOL0     H37793   1.738   9.846   8.246  0.3445  1.3446  0.2036
 1021MOL0     H37794   1.761   9.898   8.414  1.4297  0.3594 -1.8337
 1021MOL0     H37795   1.508   9.941   8.221  0.5051  0.3934 -0.0553
 1021MOL0     H37796   1.354  10.022   8.058 -0.8102 -0.2032 -0.1407
 1021MOL0     H37797   1.273   9.904   7.939 -3.3249  1.0723 -0.1080
 1021MOL0     H37798   1.200   9.960   8.091  1.5924  0.1002  2.4677
 1021MOL0     H37799   1.067   9.290   7.949  0.1544 -0.1463  0.0006
 1021MOL0     H37800   0.841   9.211   7.942  1.7106  1.5663 -1.6056
 1021MOL0     H37801   0.575   9.462   7.876 -1.4889 -1.6580 -2.7681
 1021MOL0     H37802   0.482   9.308   7.881  0.1850  0.1638 -0.4399
 1021MOL0     H37803   0.451   9.555   8.054  2.2711  0.3018 -2.7650
 1021MOL0     H37804   0.335   9.503   7.936 -0.9897 -0.1456  0.3531
 1021MOL0     H37805   0.260   9.455   8.155  1.4267  1.0641  0.6375
 1021MOL0     H37806   0.400   9.340   8.173  1.3703  0.3496 -0.9535
 1021MOL0     H37807   0.159   9.303   7.985  0.3448  3.5205  1.5544
 1021MOL0     H37808   0.301   9.204   7.989  1.9236  2.0412 -1.2130
 1021MOL0     H37809   0.141   9.288   8.235  3.6417  1.8342 -1.1346
 1021MOL0     H37810   0.257   9.150   8.232  1.2964 -1.1716 -2.2703
 1021MOL0     H37811  -0.004   9.167   8.069  0.3207 -3.1876 -2.9263
 1021MOL0     H37812   0.110   9.046   8.062  0.3801  1.8983 -1.3125
 1021MOL0     H37813   0.004   9.115   8.326 -1.8269 -1.3137 -0.1695
 1021MOL0     H37814   0.061   8.954   8.266  2.6890  2.9529  2.0233
 1021MOL0     H37815  -0.210   9.074   8.191  0.8983  1.4479  3.3177
 1021MOL0     H37816  -0.178   8.937   8.295  1.9582 -1.0603  1.0142
 1021MOL0     H37817   0.699   9.585   8.121  0.1665  0.5781 -1.7363
 1021MOL0     H37818   0.953   9.644   8.136  1.1505 -2.1634  1.1931
 1021MOL0     H37819   1.311   9.494   8.198 -0.2516  0.3954  0.2646
 1021MOL0     H37820   1.481   9.537   8.357  1.5334 -1.3412 -1.5527
 1021MOL0     H37821   0.813   8.286   8.401 -0.9394 -1.0529  1.7088
 1021MOL0     H37822   0.569   8.210   8.397  0.0216  0.1708 -0.8662
 1021MOL0     H37823   0.162   8.158   8.134  2.4447  1.6367  0.9391
 1021MOL0     H37824  -0.077   8.140   8.136 -0.1133  0.9653 -0.4307
 1021MOL0     H37825  -0.291   8.089   8.429  1.0305  0.3863 -1.1721
 1021MOL0     H37826  -0.279   8.240   8.510 -0.7346 -1.2467  0.0320
 1021MOL0     H37827  -0.498   8.167   8.316  1.2062 -0.4808 -0.7737
 1021MOL0     H37828  -0.478   8.327   8.396 -2.8654 -1.4982  1.7197
 1021MOL0     H37829  -0.473   8.186   8.627  0.0658 -0.9060 -0.1672
 1021MOL0     H37830  -0.535   8.053   8.534 -1.6673  0.0086 -0.6223
 1021MOL0     H37831  -0.666   8.326   8.561 -0.9774  0.2698  0.0004
 1021MOL0     H37832  -0.719   8.179   8.637 -0.9485  0.2466 -0.7053
 1021MOL0     H37833  -0.870   8.183   8.237  0.2294  0.9766 -0.5851
 1021MOL0     H37834  -0.100   8.381   8.480 -1.1804 -0.3358 -0.7144
 1021MOL0     H37835   0.122   8.417   8.483 -0.2027  0.1547  0.4686
 1022MOL0     O37836   3.373   3.594   9.734 -0.7026 -0.3933  0.5702
 1022MOL0     C37837   3.423   3.692   9.796  0.3685  0.1501 -0.3017
 1022MOL0     O37838   3.354   3.779   9.874  0.6239  0.2787  0.1207
 1022MOL0     C37839   3.220   3.750   9.896 -0.1505 -0.2121  0.0142
 1022MOL0     C37840   3.180   3.693  10.017  0.1921 -0.3970 -0.4986
 1022MOL0     C37841   3.047   3.672  10.042 -0.0422  0.6616 -0.0350
 1022MOL0     C37842   2.950   3.707   9.950 -0.3590  0.4107 -0.1714
 1022MOL0     O37843   2.814   3.687   9.978 -0.4821  0.4175  0.0361
 1022MOL0     C37844   2.722   3.796   9.950 -0.0027 -0.5959 -0.9671
 1022MOL0     C37845   2.597   3.717   9.911  0.3642  0.1559  1.1064
 1022MOL0     C37846   2.488   3.810   9.842  0.2918 -0.6106  0.6565
 1022MOL0     C37847   2.415   3.892   9.940  0.6689 -1.6253 -0.1670
 1022MOL0     C37848   2.297   3.979   9.872  0.2803  0.0409  0.4197
 1022MOL0     C37849   2.210   4.037   9.988 -0.3814  0.3519  0.5470
 1022MOL0     C37850   2.108   4.145   9.939 -0.0791 -0.0626  0.0844
 1022MOL0     C37851   2.020   4.186  10.060 -0.0760 -0.0626  1.5717
 1022MOL0     N37852   1.912   4.084  10.072 -0.4345  0.2640  0.8612
 1022MOL0     C37853   1.802   4.069   9.992  0.2075 -0.1136 -0.5897
 1022MOL0     C37854   1.721   3.976  10.060  0.3701  0.3004 -0.2013
 1022MOL0     C37855   1.585   3.944  10.029 -0.5053 -0.0293 -0.6385
 1022MOL0     C37856   1.571   3.788  10.027  0.0510  0.4929 -0.1289
 1022MOL0     C37857   1.529   3.729  10.170  0.7237  0.2231  0.0007
 1022MOL0     C37858   1.381   3.684  10.169 -0.1543  0.0594  0.3255
 1022MOL0     O37859   1.303   3.790  10.131 -0.5793 -0.6373  0.2185
 1022MOL0     C37860   1.175   3.760  10.102 -0.7635 -0.7690 -0.1383
 1022MOL0     C37861   1.105   3.637  10.116 -0.1926 -0.2847  0.2124
 1022MOL0     C37862   0.965   3.624  10.116  0.0486  0.5715  0.1585
 1022MOL0     C37863   0.906   3.486  10.152 -0.4806  0.0075 -1.0459
 1022MOL0     C37864   0.891   3.738  10.075  0.5684  0.1411 -0.9529
 1022MOL0     C37865   0.744   3.746  10.085 -0.4178 -0.3405 -0.7717
 1022MOL0     O37866   0.690   3.856  10.025 -0.1540 -0.1507 -0.3829
 1022MOL0     C37867   0.577   3.907  10.081 -0.2534  0.7632 -0.0840
 1022MOL0     C37868   0.454   3.924  10.012 -0.0158 -0.7394  0.0692
 1022MOL0     C37869   0.342   3.972  10.077  0.2371 -0.0408 -0.3817
 1022MOL0     C37870   0.347   4.019  10.205  0.0131 -0.0970  0.4749
 1022MOL0     O37871   0.235   4.068  10.261  0.7774 -0.3360  0.0961
 1022MOL0     C37872   0.202   4.011  10.394  0.0068  0.4923  0.0839
 1022MOL0     C37873   0.081   4.082  10.448 -0.4905 -0.1044  0.1762
 1022MOL0     C37874   0.032   4.031  10.579  0.3346 -0.0879 -0.2409
 1022MOL0     C37875  -0.080   4.115  10.628 -0.0608 -0.7105  0.1118
 1022MOL0     C37876  -0.125   4.083  10.775  0.5606 -0.1364  0.9767
 1022MOL0     C37877  -0.217   4.198  10.831 -0.2295  0.5685 -0.1899
 1022MOL0     C37878  -0.250   4.152  10.973 -0.6179 -0.3754  0.1595
 1022MOL0     C37879  -0.264   4.270  11.073  0.6619 -0.0814 -0.4431
 1022MOL0    Cl37880  -0.411   4.346  11.056  0.1273 -0.2498  0.0445
 1022MOL0     C37881   0.472   4.012  10.269 -0.1854 -0.4438  0.1029
 1022MOL0     C37882   0.588   3.957  10.207  0.2077 -0.3342  0.0235
 1022MOL0     O37883   0.674   3.659  10.145  0.1056 -0.5290  0.3264
 1022MOL0     C37884   0.964   3.851  10.036 -0.4092 -1.1165 -0.9466
 1022MOL0     C37885   1.104   3.863  10.056 -0.3098 -0.3246  0.5510
 1022MOL0     N37886   1.790   3.939  10.168  0.4985 -0.4179 -0.1489
 1022MOL0     N37887   1.902   4.009  10.184 -0.2967  0.5584  0.8099
 1022MOL0     C37888   2.986   3.755   9.821  0.1458 -0.2617  0.2207
 1022MOL0     C37889   3.127   3.782   9.799  0.5229 -0.8485  0.1071
 1022MOL0     C37890   3.571   3.696   9.796  0.2322  0.3912 -0.7964
 1022MOL0     C37891   3.650   3.627   9.705  0.1394  0.7244  0.0110
 1022MOL0     C37892   3.787   3.652   9.692 -0.1476  0.4144  0.4967
 1022MOL0     C37893   3.862   3.723   9.786 -0.4809 -0.4693 -0.1595
 1022MOL0     O37894   4.000   3.742   9.793  0.5353  0.0853  0.1172
 1022MOL0     C37895   4.069   3.708   9.668 -0.5147  0.6245 -0.1893
 1022MOL0     C37896   4.213   3.764   9.682  0.1687 -0.3582 -0.5217
 1022MOL0     C37897   4.254   3.818   9.544 -0.1269 -0.1030 -0.7264
 1022MOL0     C37898   4.396   3.866   9.537 -0.3771  0.4699  0.1691
 1022MOL0     C37899   4.496   3.767   9.558 -0.8426 -0.3835  0.0149
 1022MOL0     C37900   4.581   3.681   9.574  0.0110 -0.1744 -0.3747
 1022MOL0     C37901   3.783   3.785   9.884 -0.1617 -0.0070  0.0361
 1022MOL0     C37902   3.640   3.782   9.884 -0.2183  0.5221 -0.3355
 1022MOL0     H37903   3.261   3.671  10.085 -1.2685  0.6453  1.7062
 1022MOL0     H37904   3.027   3.622  10.136 -0.9780  0.4729 -0.3250
 1022MOL0     H37905   2.696   3.850  10.042  1.4550 -1.0609 -0.2531
 1022MOL0     H37906   2.752   3.863   9.868 -1.7595  1.4140 -0.0783
 1022MOL0     H37907   2.631   3.644   9.836 -2.3626  0.2685 -0.3486
 1022MOL0     H37908   2.554   3.651   9.987  0.2236 -3.6614 -1.9520
 1022MOL0     H37909   2.524   3.872   9.760 -2.4882  1.6068  0.9830
 1022MOL0     H37910   2.409   3.749   9.797 -0.7565  1.6799 -0.7837
 1022MOL0     H37911   2.370   3.833  10.021  0.4324 -0.3136  0.6869
 1022MOL0     H37912   2.484   3.963   9.985 -0.9385 -0.6127  0.8058
 1022MOL0     H37913   2.339   4.062   9.816 -0.5087  1.1476  1.4105
 1022MOL0     H37914   2.233   3.920   9.806  0.3119  0.6128 -0.1324
 1022MOL0     H37915   2.169   3.952  10.042 -0.1234  0.6965  1.2927
 1022MOL0     H37916   2.279   4.087  10.057 -1.7343  1.8481  0.8837
 1022MOL0     H37917   2.165   4.232   9.907  0.0918 -0.7249 -1.5612
 1022MOL0     H37918   2.049   4.111   9.852  4.3438 -1.9477 -2.5484
 1022MOL0     H37919   1.968   4.279  10.037  0.8333  0.4903  1.6744
 1022MOL0     H37920   2.071   4.198  10.156 -1.2332 -0.8921  2.3125
 1022MOL0     H37921   1.777   4.137   9.910  2.0883  1.8780  0.4066
 1022MOL0     H37922   1.521   3.973  10.113  0.4864 -1.3953  0.6470
 1022MOL0     H37923   1.539   3.998   9.946  3.1038  0.9016 -2.1834
 1022MOL0     H37924   1.660   3.745   9.980  0.0259  1.3246 -0.9462
 1022MOL0     H37925   1.489   3.780   9.955  0.3627  0.8337 -0.5229
 1022MOL0     H37926   1.554   3.794  10.254  1.4793  0.4027 -0.3558
 1022MOL0     H37927   1.588   3.638  10.183  0.1607 -0.1476 -0.0001
 1022MOL0     H37928   1.354   3.634  10.262  0.3219 -0.1581  0.3526
 1022MOL0     H37929   1.380   3.600  10.098 -1.1493  0.7947 -0.5677
 1022MOL0     H37930   1.161   3.551  10.151 -1.0204 -0.1787  1.8715
 1022MOL0     H37931   0.830   3.490  10.230  1.0334  1.6599  0.4406
 1022MOL0     H37932   0.873   3.433  10.063  1.2495 -1.6771 -0.7446
 1022MOL0     H37933   0.991   3.430  10.192 -1.2752 -1.4072 -1.2817
 1022MOL0     H37934   0.445   3.879   9.914  2.0638 -0.8203 -0.1123
 1022MOL0     H37935   0.244   3.980  10.029 -0.5171 -0.0342  1.1104
 1022MOL0     H37936   0.183   3.903  10.395 -1.2803  0.6865  2.0548
 1022MOL0     H37937   0.279   4.033  10.468 -2.2904 -1.3064  3.2645
 1022MOL0     H37938   0.105   4.188  10.463 -2.5560  0.3408  0.5475
 1022MOL0     H37939  -0.002   4.078  10.377  0.9452  0.0809 -1.6108
 1022MOL0     H37940   0.113   4.027  10.652  0.7056 -2.4503 -0.7060
 1022MOL0     H37941   0.007   3.927  10.554  1.8235 -0.4224 -0.4402
 1022MOL0     H37942  -0.041   4.217  10.620  1.8428 -1.4150 -0.2840
 1022MOL0     H37943  -0.157   4.095  10.553 -1.1524  1.5832  0.5549
 1022MOL0     H37944  -0.039   4.074  10.843  1.1765  1.8957  0.5434
 1022MOL0     H37945  -0.182   3.990  10.767  1.0809 -0.3549 -0.4439
 1022MOL0     H37946  -0.157   4.289  10.837  0.0064  0.3085  2.5787
 1022MOL0     H37947  -0.305   4.224  10.771 -0.0938  1.2727 -0.0876
 1022MOL0     H37948  -0.172   4.087  11.013 -0.2274 -0.4562 -0.7018
 1022MOL0     H37949  -0.347   4.101  10.967 -0.6726 -0.1234 -2.4050
 1022MOL0     H37950  -0.184   4.341  11.052  1.8518 -1.8036 -2.1449
 1022MOL0     H37951  -0.264   4.236  11.177 -1.3517 -1.9126 -0.9599
 1022MOL0     H37952   0.483   4.034  10.375  3.1339 -4.9518  0.9943
 1022MOL0     H37953   0.684   3.971  10.257  0.3379  1.9988 -0.7578
 1022MOL0     H37954   0.921   3.948  10.010  2.1725  0.5058  0.3596
 1022MOL0     H37955   1.161   3.952  10.028 -0.8733 -0.9219 -2.9490
 1022MOL0     H37956   2.910   3.758   9.744 -1.1400 -2.4912  1.3331
 1022MOL0     H37957   3.159   3.815   9.700 -2.3884 -0.7937 -0.9113
 1022MOL0     H37958   3.607   3.562   9.629  1.1680  2.5534 -2.2549
 1022MOL0     H37959   3.833   3.596   9.611  0.5515 -0.3554  1.4043
 1022MOL0     H37960   4.080   3.600   9.656  0.2157  0.3882  2.0542
 1022MOL0     H37961   4.027   3.753   9.578 -0.5752  0.7239 -0.1118
 1022MOL0     H37962   4.278   3.687   9.724 -0.3250 -0.7199 -0.4125
 1022MOL0     H37963   4.216   3.846   9.754  1.5941  0.4254 -1.4181
 1022MOL0     H37964   4.175   3.889   9.517 -1.8364 -1.6616 -0.0313
 1022MOL0     H37965   4.242   3.743   9.465 -0.1610  0.3031 -1.1099
 1022MOL0     H37966   4.405   3.946   9.611  2.4054  1.2400 -0.8627
 1022MOL0     H37967   4.405   3.909   9.437 -0.7137 -0.2647 -0.1825
 1022MOL0     H37968   4.655   3.604   9.581  0.1340  0.1029  2.0131
 1022MOL0     H37969   3.845   3.830   9.961  2.8805 -3.3379 -0.2042
 1022MOL0     H37970   3.580   3.836   9.955 -2.8373  0.6114 -2.4497
 1023MOL0     O37971   6.908   5.091   5.320 -0.6134 -0.0116  0.7772
 1023MOL0     C37972   6.925   5.082   5.444 -0.4618  0.4716  0.7390
 1023MOL0     O37973   6.828   5.108   5.535 -0.2372  0.0334  0.0517
 1023MOL0     C37974   6.696   5.119   5.485  0.1528  0.5293  0.9839
 1023MOL0     C37975   6.608   5.007   5.467  0.4543 -0.2874 -0.4196
 1023MOL0     C37976   6.477   5.031   5.422  0.7851  0.0716  0.1317
 1023MOL0     C37977   6.430   5.152   5.379 -0.3061  0.3840 -0.6932
 1023MOL0     O37978   6.297   5.173   5.352 -0.0678 -0.0693  0.2021
 1023MOL0     C37979   6.228   5.269   5.439 -0.0214 -0.6761 -0.3352
 1023MOL0     C37980   6.080   5.225   5.463 -0.1253  0.0097 -0.2866
 1023MOL0     C37981   6.005   5.327   5.554 -0.3847 -0.5851  0.1191
 1023MOL0     C37982   5.857   5.296   5.586  0.3944 -0.3570 -0.2519
 1023MOL0     C37983   5.781   5.395   5.667 -0.0144 -0.6256  0.9318
 1023MOL0     C37984   5.638   5.350   5.694 -0.6656 -0.0023  0.5473
 1023MOL0     C37985   5.555   5.456   5.764  0.5147  0.1553  0.7932
 1023MOL0     C37986   5.402   5.406   5.781 -0.9259 -0.2530  0.2757
 1023MOL0     N37987   5.326   5.518   5.841  0.0677  0.1243 -0.5585
 1023MOL0     C37988   5.198   5.544   5.785  0.2560 -0.1483  0.1314
 1023MOL0     C37989   5.128   5.607   5.886  0.5650  0.2104 -0.3007
 1023MOL0     C37990   4.986   5.660   5.873  0.3471  1.2049  0.2967
 1023MOL0     C37991   4.898   5.612   5.979 -0.0452  0.0232  0.4921
 1023MOL0     C37992   4.755   5.663   5.977 -0.6577 -0.0989  0.6776
 1023MOL0     C37993   4.753   5.810   5.943  0.7294  0.0384 -0.4120
 1023MOL0     O37994   4.621   5.849   5.931  0.6208 -0.1409  0.0236
 1023MOL0     C37995   4.544   5.882   6.044 -0.9879  0.2278  0.4428
 1023MOL0     C37996   4.573   5.866   6.183  0.3731  0.0509 -0.3424
 1023MOL0     C37997   4.484   5.920   6.276  0.2089  0.0529  0.4597
 1023MOL0     C37998   4.509   5.901   6.419 -0.4117  0.9474 -0.2444
 1023MOL0     C37999   4.359   5.982   6.238  0.1237  0.2183  0.1970
 1023MOL0     C38000   4.261   6.048   6.327 -0.8891 -0.2496  0.4826
 1023MOL0     O38001   4.192   6.147   6.264  0.0616  0.2143  0.1631
 1023MOL0     C38002   4.118   6.239   6.342 -0.0853  0.0796 -0.3802
 1023MOL0     C38003   4.183   6.332   6.420  0.9851 -0.7128 -0.0113
 1023MOL0     C38004   4.106   6.405   6.510 -0.0703 -0.7106 -0.2152
 1023MOL0     C38005   3.968   6.409   6.512 -0.1097 -1.1040 -0.1322
 1023MOL0     O38006   3.892   6.494   6.585 -0.2603  0.2896 -0.0296
 1023MOL0     C38007   3.951   6.564   6.693 -0.1411 -0.1259  0.9860
 1023MOL0     C38008   3.831   6.655   6.759 -0.4869 -0.1307 -0.0659
 1023MOL0     C38009   3.697   6.584   6.799 -0.9390 -0.6773  0.1192
 1023MOL0     C38010   3.721   6.476   6.910 -0.2013 -0.7835 -0.1412
 1023MOL0     C38011   3.585   6.429   6.958  0.2583  0.1113  0.7235
 1023MOL0     C38012   3.497   6.371   6.841 -0.0669  0.2010 -0.9531
 1023MOL0     C38013   3.578   6.272   6.749  0.1267  0.1804 -0.6061
 1023MOL0     C38014   3.490   6.203   6.650  0.1696  0.1532  0.1104
 1023MOL0    Cl38015   3.587   6.124   6.515  0.5565  0.0299  0.2635
 1023MOL0     C38016   3.904   6.315   6.438  0.0626  0.2600  0.6246
 1023MOL0     C38017   3.979   6.228   6.357 -0.0985 -0.3157  0.0877
 1023MOL0     O38018   4.267   6.030   6.450 -0.0566 -0.1324  0.1131
 1023MOL0     C38019   4.330   5.984   6.102 -0.3977 -0.9333 -0.9554
 1023MOL0     C38020   4.427   5.938   6.011  0.0183  0.2630  1.0174
 1023MOL0     N38021   5.208   5.609   5.998 -0.8618  0.4343 -0.4354
 1023MOL0     N38022   5.324   5.557   5.970 -0.6556  0.3384 -0.0574
 1023MOL0     C38023   6.520   5.270   5.383  0.2899 -0.1796 -0.5965
 1023MOL0     C38024   6.642   5.248   5.444 -0.6081  0.3979 -0.9420
 1023MOL0     C38025   7.074   5.084   5.486 -0.2141  0.3277 -0.0781
 1023MOL0     C38026   7.115   5.037   5.613 -0.4034  0.3146 -0.1307
 1023MOL0     C38027   7.250   5.016   5.653  0.5514 -0.1149  0.0476
 1023MOL0     C38028   7.357   5.045   5.567 -0.4110 -0.4456  0.3487
 1023MOL0     O38029   7.493   5.027   5.587  0.9703  0.3613 -0.2010
 1023MOL0     C38030   7.537   4.980   5.706 -0.1854  0.0599 -1.2306
 1023MOL0     C38031   7.679   5.029   5.730  0.0212  0.1862 -1.1107
 1023MOL0     C38032   7.740   4.944   5.846 -0.2195 -0.0529  0.0908
 1023MOL0     C38033   7.891   4.983   5.857 -1.3600  0.3185 -0.6806
 1023MOL0     C38034   7.979   4.929   5.748  1.0965 -0.7580 -0.8833
 1023MOL0     C38035   8.048   4.897   5.659  0.1691  0.1556 -0.5776
 1023MOL0     C38036   7.322   5.107   5.442 -0.0775  0.1558  0.4811
 1023MOL0     C38037   7.187   5.122   5.401  0.2305  0.4360  0.8287
 1023MOL0     H38038   6.634   4.905   5.496 -1.6026 -0.6566  0.2745
 1023MOL0     H38039   6.402   4.952   5.429  0.7199  0.1886  0.7644
 1023MOL0     H38040   6.268   5.259   5.540 -1.1914  2.2911  0.5373
 1023MOL0     H38041   6.237   5.372   5.405 -2.4068  0.6192  2.4740
 1023MOL0     H38042   6.027   5.211   5.369 -0.7062 -0.5499  0.1187
 1023MOL0     H38043   6.079   5.134   5.524  3.3163  1.5227  2.4232
 1023MOL0     H38044   6.071   5.330   5.642 -0.6487 -0.4607  0.3119
 1023MOL0     H38045   6.012   5.429   5.516 -2.8707  0.3052  1.8192
 1023MOL0     H38046   5.802   5.288   5.492  1.9019 -2.3079 -1.0534
 1023MOL0     H38047   5.844   5.200   5.639  0.2802  0.4483  1.2370
 1023MOL0     H38048   5.835   5.425   5.757  2.4019  1.5557 -1.0518
 1023MOL0     H38049   5.773   5.477   5.595 -0.8870 -2.1020 -0.7212
 1023MOL0     H38050   5.577   5.323   5.608 -0.7460  0.3250  0.4989
 1023MOL0     H38051   5.649   5.265   5.762  3.0996 -0.3726 -0.3058
 1023MOL0     H38052   5.599   5.478   5.862  0.7831 -1.6498  1.1069
 1023MOL0     H38053   5.560   5.547   5.704 -1.3585 -0.7584 -0.8624
 1023MOL0     H38054   5.403   5.315   5.842 -2.1322  0.1410  0.9242
 1023MOL0     H38055   5.362   5.379   5.683  1.0927 -2.4082 -0.0651
 1023MOL0     H38056   5.154   5.518   5.689  1.1259 -0.9419 -0.0613
 1023MOL0     H38057   4.999   5.768   5.870  0.4409  1.1778 -1.0137
 1023MOL0     H38058   4.955   5.614   5.778 -1.2166  1.6770  0.5517
 1023MOL0     H38059   4.945   5.638   6.075  3.0341  1.3440 -1.2293
 1023MOL0     H38060   4.899   5.503   5.983 -1.2251  0.0053  0.4855
 1023MOL0     H38061   4.700   5.639   6.069 -0.4336 -0.1989  0.7868
 1023MOL0     H38062   4.701   5.606   5.901 -0.9917 -0.0420  0.8723
 1023MOL0     H38063   4.803   5.836   5.849 -0.6769  1.0594 -0.9115
 1023MOL0     H38064   4.801   5.857   6.029  1.0813 -1.8500  0.4499
 1023MOL0     H38065   4.671   5.829   6.210  0.6921  1.3728  0.3899
 1023MOL0     H38066   4.604   5.850   6.441  0.5387  2.1249 -1.4628
 1023MOL0     H38067   4.524   5.990   6.482  0.3832  1.1736 -0.7433
 1023MOL0     H38068   4.431   5.837   6.462  0.0321  1.3466  1.2442
 1023MOL0     H38069   4.291   6.328   6.428  1.0489 -0.8749 -0.8879
 1023MOL0     H38070   4.156   6.479   6.572  0.5335  0.5415 -2.1076
 1023MOL0     H38071   3.994   6.493   6.764 -1.8467  0.3320  2.5527
 1023MOL0     H38072   4.033   6.627   6.658  1.2628 -2.5152 -0.2254
 1023MOL0     H38073   3.879   6.703   6.846  0.7895  1.8618 -1.7754
 1023MOL0     H38074   3.806   6.740   6.695 -1.2920 -0.3310 -0.0311
 1023MOL0     H38075   3.661   6.538   6.707  2.1419 -0.6026 -1.2414
 1023MOL0     H38076   3.620   6.654   6.832  1.3304  2.7532 -1.3279
 1023MOL0     H38077   3.775   6.391   6.867  1.2838  0.7939 -1.5534
 1023MOL0     H38078   3.778   6.519   6.993 -0.2971 -0.9605  0.0152
 1023MOL0     H38079   3.529   6.515   6.996 -5.9642 -3.1568  0.2311
 1023MOL0     H38080   3.589   6.367   7.048 -0.6448  0.6250  1.1365
 1023MOL0     H38081   3.415   6.316   6.888 -0.3458 -2.0651 -3.8439
 1023MOL0     H38082   3.449   6.446   6.778  0.5711  0.7839 -0.7510
 1023MOL0     H38083   3.625   6.191   6.805 -1.6609 -2.1577 -2.2703
 1023MOL0     H38084   3.651   6.329   6.690 -0.5729 -0.7411 -2.4004
 1023MOL0     H38085   3.426   6.273   6.595  2.7167  2.2151 -0.3921
 1023MOL0     H38086   3.442   6.113   6.689 -0.1287  0.0130 -0.5535
 1023MOL0     H38087   3.796   6.300   6.441 -0.0430  0.6379 -0.6680
 1023MOL0     H38088   3.932   6.142   6.310  1.3499 -2.9217  2.9963
 1023MOL0     H38089   4.240   6.034   6.066  0.5093  0.3541 -1.5030
 1023MOL0     H38090   4.412   5.943   5.904 -1.7478 -2.3706  1.0296
 1023MOL0     H38091   6.489   5.369   5.350  0.6235  0.2201  0.2570
 1023MOL0     H38092   6.702   5.337   5.458 -1.2674  0.9809 -1.7303
 1023MOL0     H38093   7.046   5.009   5.692 -1.2464  0.6294 -0.7353
 1023MOL0     H38094   7.266   4.966   5.748  1.4657  0.0090 -0.0285
 1023MOL0     H38095   7.468   5.008   5.785  0.7376 -3.4023  1.0335
 1023MOL0     H38096   7.549   4.871   5.698 -1.2588 -0.2078  0.4188
 1023MOL0     H38097   7.666   5.132   5.764 -1.3203 -0.0174 -0.9750
 1023MOL0     H38098   7.744   5.035   5.642  1.3828  1.6342 -0.0800
 1023MOL0     H38099   7.727   4.839   5.818 -1.0750  0.8873 -3.6631
 1023MOL0     H38100   7.682   4.962   5.937 -0.7494  0.8236 -0.4121
 1023MOL0     H38101   7.939   4.946   5.948 -2.5139 -0.0107 -0.1946
 1023MOL0     H38102   7.916   5.090   5.860 -2.1707  0.5734 -2.1708
 1023MOL0     H38103   8.116   4.849   5.591  0.3577 -1.1057  0.4488
 1023MOL0     H38104   7.395   5.147   5.373  0.0513  1.4989  1.3604
 1023MOL0     H38105   7.156   5.177   5.313  1.0495 -0.7990 -0.2743
 1024MOL0     O38106   7.436   5.940   1.263 -0.1294 -0.7222  0.8354
 1024MOL0     C38107   7.423   5.819   1.260 -0.0177 -0.4921  0.2371
 1024MOL0     O38108   7.304   5.762   1.254 -0.3002  0.4298  0.3897
 1024MOL0     C38109   7.187   5.830   1.210  0.4167  0.1201  0.1752
 1024MOL0     C38110   7.061   5.795   1.266 -0.3775  0.3323 -0.5212
 1024MOL0     C38111   6.941   5.845   1.211 -0.5051  0.1496  0.0022
 1024MOL0     C38112   6.942   5.942   1.112  0.2814  0.5218 -0.1794
 1024MOL0     O38113   6.834   6.002   1.059  0.1870  0.1036  0.4415
 1024MOL0     C38114   6.707   5.940   1.082 -0.5391 -0.1061  0.2928
 1024MOL0     C38115   6.598   6.007   0.998 -0.5873 -0.1026 -0.3682
 1024MOL0     C38116   6.460   5.933   1.013 -0.2397  0.6005 -0.4145
 1024MOL0     C38117   6.357   6.039   0.986  0.3315  0.1972  0.2559
 1024MOL0     C38118   6.220   5.982   0.984 -0.7905 -0.1807  0.6914
 1024MOL0     C38119   6.133   6.087   0.918  1.2170  0.5263  0.0279
 1024MOL0     C38120   5.992   6.045   0.901 -0.5837  0.3959 -0.0787
 1024MOL0     C38121   5.899   6.049   1.017 -0.5258  0.2210 -0.1896
 1024MOL0     N38122   5.775   5.968   1.009 -0.1188  0.0483  0.2909
 1024MOL0     C38123   5.762   5.828   0.980 -0.2692  0.3663  0.0195
 1024MOL0     C38124   5.633   5.807   0.997  0.3276  0.2606  0.3472
 1024MOL0     C38125   5.559   5.682   0.967  0.0399  0.3999  0.1714
 1024MOL0     C38126   5.411   5.676   1.002  0.1232 -0.0439 -0.3295
 1024MOL0     C38127   5.327   5.601   0.892  0.1631 -0.1523 -0.3849
 1024MOL0     C38128   5.182   5.586   0.924 -0.6898  0.7104 -0.2579
 1024MOL0     O38129   5.126   5.550   0.799  0.8316  0.1999  0.1971
 1024MOL0     C38130   4.997   5.505   0.795  0.2505  0.4825  0.1058
 1024MOL0     C38131   4.952   5.458   0.676  0.1999  0.5616  0.0028
 1024MOL0     C38132   4.817   5.416   0.660 -0.7689 -0.4613 -0.0230
 1024MOL0     C38133   4.780   5.382   0.516  0.5173 -0.0958  0.1773
 1024MOL0     C38134   4.729   5.421   0.769 -0.2819 -0.4401  0.6176
 1024MOL0     C38135   4.589   5.366   0.769 -0.1550 -0.1323  0.4429
 1024MOL0     O38136   4.526   5.358   0.886  0.1712  0.1528 -0.5766
 1024MOL0     C38137   4.385   5.358   0.882 -0.3415 -0.8457  0.2685
 1024MOL0     C38138   4.327   5.452   0.964  0.5754 -0.2405  0.0424
 1024MOL0     C38139   4.185   5.460   0.971 -0.3848  0.2606 -0.3147
 1024MOL0     C38140   4.102   5.386   0.883  0.3030 -0.7022  1.0029
 1024MOL0     O38141   3.964   5.396   0.877 -0.2607 -0.1971  0.7848
 1024MOL0     C38142   3.906   5.508   0.943 -0.5437  0.3701 -0.2250
 1024MOL0     C38143   3.756   5.504   0.962 -0.1323 -0.4276  0.4728
 1024MOL0     C38144   3.672   5.528   0.833  0.0198  0.6093  0.7175
 1024MOL0     C38145   3.524   5.534   0.870 -0.0894 -0.4505  0.4749
 1024MOL0     C38146   3.420   5.548   0.749  0.5417  0.1828 -0.6242
 1024MOL0     C38147   3.426   5.683   0.670  0.7918  0.5756 -0.7780
 1024MOL0     C38148   3.383   5.791   0.770 -0.0159  0.7074 -0.0185
 1024MOL0     C38149   3.363   5.932   0.712 -0.3572 -0.4980  0.2947
 1024MOL0    Cl38150   3.283   5.944   0.560  0.1827 -0.0230 -0.0892
 1024MOL0     C38151   4.164   5.290   0.802  0.0904 -0.2597 -0.0980
 1024MOL0     C38152   4.304   5.270   0.803 -0.0662 -0.7327 -0.3061
 1024MOL0     O38153   4.546   5.318   0.665  0.6338  0.4570  0.9629
 1024MOL0     C38154   4.774   5.467   0.888  1.1857 -0.0460 -0.3427
 1024MOL0     C38155   4.912   5.502   0.904  0.3010  0.7468 -0.5763
 1024MOL0     N38156   5.571   5.920   1.040  0.0919  0.2863 -0.1353
 1024MOL0     N38157   5.652   6.015   1.041  0.4585 -0.3993  0.0151
 1024MOL0     C38158   7.074   5.985   1.068  0.3730 -0.1880  0.3831
 1024MOL0     C38159   7.192   5.934   1.111 -0.0665 -0.3209 -0.0125
 1024MOL0     C38160   7.540   5.730   1.279 -1.1919  0.2060  0.2530
 1024MOL0     C38161   7.662   5.789   1.274 -0.5463 -0.6210 -0.1171
 1024MOL0     C38162   7.782   5.712   1.295 -0.1360  0.2736 -0.0837
 1024MOL0     C38163   7.782   5.579   1.321  0.4020  0.1776 -0.5676
 1024MOL0     O38164   7.902   5.527   1.349  0.0498 -0.0742 -0.3476
 1024MOL0     C38165   7.911   5.401   1.422 -0.7980 -0.6111  0.3428
 1024MOL0     C38166   8.051   5.380   1.481  0.1678  0.7949  0.4458
 1024MOL0     C38167   8.068   5.228   1.525 -0.3445 -0.8730  0.3628
 1024MOL0     C38168   8.214   5.199   1.577  1.1751  0.3331  0.1374
 1024MOL0     C38169   8.245   5.291   1.685  1.0945  0.2996  0.0372
 1024MOL0     C38170   8.259   5.376   1.770  0.5309 -0.3197  0.2323
 1024MOL0     C38171   7.655   5.515   1.313  0.5976  0.4860 -0.0051
 1024MOL0     C38172   7.534   5.593   1.306  0.4793 -0.2850 -0.3485
 1024MOL0     H38173   7.067   5.720   1.344 -0.3103  0.5697 -0.2959
 1024MOL0     H38174   6.844   5.811   1.243 -0.3116  0.7314  1.2519
 1024MOL0     H38175   6.705   5.837   1.046 -0.8549  0.5891 -1.8633
 1024MOL0     H38176   6.683   5.950   1.188  2.3888 -1.5150  1.1924
 1024MOL0     H38177   6.613   6.106   1.041  2.2621 -1.0819  1.1388
 1024MOL0     H38178   6.619   5.998   0.891  0.3203 -0.9622 -0.1244
 1024MOL0     H38179   6.460   5.846   0.947  1.8156 -1.0709  1.6278
 1024MOL0     H38180   6.448   5.890   1.113 -1.4592 -1.3008 -1.3099
 1024MOL0     H38181   6.364   6.128   1.049 -0.9031 -0.3363  1.1836
 1024MOL0     H38182   6.381   6.075   0.886 -0.7052  0.0073 -0.0721
 1024MOL0     H38183   6.211   5.895   0.918  1.0437 -0.4122  0.7042
 1024MOL0     H38184   6.182   5.957   1.083 -0.1312 -2.1405  0.5137
 1024MOL0     H38185   6.132   6.181   0.975  0.1542 -0.4947  1.7737
 1024MOL0     H38186   6.167   6.101   0.815 -1.3758 -2.1728 -1.3638
 1024MOL0     H38187   5.943   6.113   0.831 -2.0850 -0.1035  0.4423
 1024MOL0     H38188   5.991   5.945   0.857  1.6905  0.7909 -1.1624
 1024MOL0     H38189   5.882   6.155   1.036  0.3375  0.2038  0.8173
 1024MOL0     H38190   5.958   6.006   1.099  2.4309  2.5441 -0.9278
 1024MOL0     H38191   5.832   5.754   0.942 -1.8638 -0.8376 -0.6515
 1024MOL0     H38192   5.577   5.668   0.860  1.6734 -1.0616  0.5836
 1024MOL0     H38193   5.617   5.601   1.014  0.2885 -1.4058 -2.9439
 1024MOL0     H38194   5.375   5.779   1.010 -2.9501 -1.0474 -0.1739
 1024MOL0     H38195   5.390   5.627   1.098 -2.0611  2.0432  0.3494
 1024MOL0     H38196   5.363   5.503   0.859 -2.4910 -1.5579  0.6043
 1024MOL0     H38197   5.322   5.663   0.802  0.4195 -1.9248 -1.6663
 1024MOL0     H38198   5.145   5.682   0.960  0.1879  0.4299  1.5200
 1024MOL0     H38199   5.169   5.514   1.006  0.3608 -0.9360 -1.4688
 1024MOL0     H38200   5.009   5.449   0.584 -2.6128 -1.5697 -1.6707
 1024MOL0     H38201   4.859   5.415   0.448  2.1273  0.0809  2.0393
 1024MOL0     H38202   4.753   5.277   0.506 -1.6322  0.3584  0.7371
 1024MOL0     H38203   4.692   5.440   0.489  0.3167 -0.3017  0.3894
 1024MOL0     H38204   4.391   5.512   1.029 -1.4508  1.2747  0.7567
 1024MOL0     H38205   4.147   5.531   1.044  2.3287  1.5904 -0.0701
 1024MOL0     H38206   3.936   5.503   1.048 -0.2968 -0.8727 -0.3368
 1024MOL0     H38207   3.940   5.604   0.905 -0.4978  0.5851  0.3531
 1024MOL0     H38208   3.727   5.403   0.991 -0.9171 -0.3704 -0.0990
 1024MOL0     H38209   3.731   5.579   1.037  1.7619  3.5030 -2.4505
 1024MOL0     H38210   3.690   5.443   0.766  0.0320  1.9035 -0.9946
 1024MOL0     H38211   3.703   5.618   0.780  0.4521 -0.0982 -0.2643
 1024MOL0     H38212   3.493   5.448   0.930 -4.4270 -0.7736 -1.8776
 1024MOL0     H38213   3.521   5.622   0.936 -1.9682  0.6148 -0.9265
 1024MOL0     H38214   3.320   5.534   0.793  0.6937  0.1403 -0.2884
 1024MOL0     H38215   3.436   5.469   0.675 -1.1573  0.2957 -1.1560
 1024MOL0     H38216   3.530   5.708   0.647  2.1771 -1.4155  2.5520
 1024MOL0     H38217   3.361   5.671   0.583  1.3608 -0.8357 -1.0329
 1024MOL0     H38218   3.453   5.792   0.855  1.4131  1.1719 -1.1618
 1024MOL0     H38219   3.285   5.759   0.808  1.4719 -1.4972  2.2788
 1024MOL0     H38220   3.459   5.984   0.700 -1.1861  0.9097 -0.5414
 1024MOL0     H38221   3.316   6.000   0.785 -0.2301 -1.0647  0.9121
 1024MOL0     H38222   4.098   5.225   0.746 -1.4639  2.1397 -1.1822
 1024MOL0     H38223   4.345   5.184   0.752 -0.8579 -2.7643  2.2743
 1024MOL0     H38224   4.709   5.467   0.976 -0.2455 -0.4853 -1.3664
 1024MOL0     H38225   4.945   5.525   1.005  0.3295  0.2504 -0.4678
 1024MOL0     H38226   7.073   6.065   0.994 -1.7635 -0.8408 -0.3786
 1024MOL0     H38227   7.286   5.970   1.070 -1.4568  3.2316 -0.4536
 1024MOL0     H38228   7.677   5.896   1.264  1.1985 -0.7403  0.8124
 1024MOL0     H38229   7.882   5.752   1.300  0.0493 -0.1336 -0.4473
 1024MOL0     H38230   7.834   5.381   1.496 -1.0809  1.9772  0.8123
 1024MOL0     H38231   7.898   5.324   1.345 -0.9617 -0.5989  0.3589
 1024MOL0     H38232   8.060   5.449   1.566 -2.9451 -0.4781  1.9609
 1024MOL0     H38233   8.124   5.412   1.406  1.1384 -1.4191  0.3744
 1024MOL0     H38234   8.061   5.159   1.440 -0.0122 -0.3075 -0.1309
 1024MOL0     H38235   7.997   5.198   1.602 -1.4457  1.2007  0.2159
 1024MOL0     H38236   8.275   5.208   1.486 -0.1325 -4.1411 -1.4901
 1024MOL0     H38237   8.208   5.099   1.620  1.7461 -0.7148 -2.0528
 1024MOL0     H38238   8.267   5.436   1.858 -1.7716 -2.2762  1.9339
 1024MOL0     H38239   7.651   5.410   1.337  0.1941  0.2478 -1.0850
 1024MOL0     H38240   7.438   5.543   1.308 -0.6043  1.7067 -0.0153
  11.28741  11.28741  11.28741
